Protein in INSANE! Membrane UpperLeaflet>POPC=1.0 LowerLeaflet>POPC=1.0
243857
    1AU     AUC    1  38.284   2.626   7.498
    1AU     AUC    2  38.552   2.609   7.338
    1AU     AUC    3  38.553   2.614   7.663
    1AU     AUC    4  38.015   2.635   7.336
    1AU     AUC    5  38.019   2.645   7.666
    1AU     AUC    6  38.137   2.901   7.489
    1AU     AUC    7  38.468   2.885   7.493
    1AU     AUC    8  38.100   2.367   7.504
    1AU     AUC    9  38.430   2.347   7.500
    1AU     AUC   10  38.274   2.467   7.767
    1AU     AUC   11  38.297   2.794   7.763
    1AU     AUC   12  38.274   2.453   7.236
    1AU     AUC   13  38.295   2.782   7.225
    1AU     AUC   14  38.807   2.596   7.187
    1AU     AUC   15  38.832   2.595   7.502
    1AU     AUC   16  38.813   2.597   7.811
    1AU     AUC   17  37.758   2.639   7.173
    1AU     AUC   18  37.741   2.652   7.512
    1AU     AUC   19  37.769   2.669   7.836
    1AU     AUC   20  38.003   3.176   7.476
    1AU     AUC   21  38.314   3.168   7.467
    1AU     AUC   22  38.645   3.135   7.491
    1AU     AUC   23  37.919   2.121   7.512
    1AU     AUC   24  38.249   2.082   7.494
    1AU     AUC   25  38.571   2.071   7.506
    1AU     AUC   26  38.261   2.308   8.027
    1AU     AUC   27  38.281   2.628   8.052
    1AU     AUC   28  38.309   2.951   8.021
    1AU     AUC   29  38.276   2.288   6.983
    1AU     AUC   30  38.304   2.611   6.952
    1AU     AUC   31  38.313   2.920   6.953
    1AU     AUC   32  38.542   2.447   7.940
    1AU     AUC   33  38.572   2.783   7.940
    1AU     AUC   34  38.550   2.437   7.067
    1AU     AUC   35  38.570   2.774   7.061
    1AU     AUC   36  38.008   2.485   7.951
    1AU     AUC   37  38.029   2.814   7.940
    1AU     AUC   38  38.003   2.461   7.069
    1AU     AUC   39  38.017   2.778   7.043
    1AU     AUC   40  38.750   2.877   7.348
    1AU     AUC   41  38.749   2.883   7.674
    1AU     AUC   42  37.860   2.921   7.319
    1AU     AUC   43  37.868   2.936   7.665
    1AU     AUC   44  38.699   2.316   7.337
    1AU     AUC   45  38.704   2.326   7.660
    1AU     AUC   46  37.812   2.375   7.349
    1AU     AUC   47  37.829   2.374   7.687
    1AU     AUC   48  38.150   3.083   7.749
    1AU     AUC   49  38.478   3.062   7.761
    1AU     AUC   50  38.092   2.203   7.782
    1AU     AUC   51  38.425   2.182   7.771
    1AU     AUC   52  38.143   3.062   7.205
    1AU     AUC   53  38.493   3.050   7.203
    1AU     AUC   54  38.081   2.183   7.234
    1AU     AUC   55  38.422   2.161   7.226
    1AU    AUSL   56  38.765   2.557   8.102
    1AU    AUSL   57  38.577   2.207   8.102
    1AU     AUL   58  38.653   2.521   8.416
    1AU       S   59  38.897   1.840   8.244
    1AU     LIG   60  38.936   1.419   8.416
    1AU     LIG   61  39.107   1.123   8.740
    1AU     LIG   62  39.348   0.935   9.104
    1AU     LIG   63  39.334   0.681   9.518
    1AU       S   64  39.062   2.252   8.451
    1AU     LIG   65  39.149   2.344   8.897
    1AU     LIG   66  39.235   2.262   9.352
    1AU     LIG   67  39.548   2.194   9.712
    1AU     LIG   68  39.950   2.213   9.982
    1AU    AUSL   69  38.369   2.420   8.253
    1AU    AUSL   70  38.163   2.781   8.270
    1AU     AUL   71  38.335   2.590   8.577
    1AU       S   72  38.706   2.091   8.633
    1AU     LIG   73  38.734   2.128   9.108
    1AU     LIG   74  38.796   2.075   9.571
    1AU     LIG   75  38.860   1.972  10.026
    1AU     LIG   76  39.080   2.061  10.435
    1AU       S   77  37.864   2.667   8.737
    1AU     LIG   78  37.705   2.681   9.172
    1AU     LIG   79  37.650   2.569   9.624
    1AU     LIG   80  37.436   2.688  10.029
    1AU     LIG   81  37.298   3.062  10.307
    1AU    AUSL   82  38.509   2.811   8.235
    1AU    AUSL   83  38.860   2.885   7.986
    1AU     AUL   84  38.900   2.774   8.345
    1AU       S   85  38.527   3.075   8.614
    1AU     LIG   86  38.746   3.170   9.019
    1AU     LIG   87  38.883   3.284   9.459
    1AU     LIG   88  38.912   3.276   9.938
    1AU     LIG   89  39.071   3.391  10.369
    1AU       S   90  39.107   3.227   8.295
    1AU     LIG   91  39.486   3.152   8.524
    1AU     LIG   92  39.835   3.391   8.690
    1AU     LIG   93  40.017   3.672   9.011
    1AU     LIG   94  40.169   4.009   9.295
    1AU    AUSL   95  38.763   2.653   6.892
    1AU    AUSL   96  38.637   3.018   6.886
    1AU     AUL   97  39.069   2.828   6.841
    1AU       S   98  38.876   2.721   6.383
    1AU     LIG   99  39.169   2.567   6.032
    1AU     LIG  100  39.267   2.272   5.686
    1AU     LIG  101  39.382   2.263   5.234
    1AU     LIG  102  39.595   2.352   4.823
    1AU       S  103  38.852   3.241   6.564
    1AU     LIG  104  38.994   3.589   6.280
    1AU     LIG  105  39.358   3.741   6.012
    1AU     LIG  106  39.669   4.007   5.758
    1AU     LIG  107  39.870   4.246   5.395
    1AU    AUSL  108  38.547   2.418   6.778
    1AU    AUSL  109  38.797   2.307   7.020
    1AU     AUL  110  39.022   2.454   6.841
    1AU       S  111  38.951   2.019   6.605
    1AU     LIG  112  39.275   1.829   6.332
    1AU     LIG  113  39.600   1.498   6.349
    1AU     LIG  114  39.891   1.163   6.248
    1AU     LIG  115  40.095   1.084   5.855
    1AU       S  116  38.807   2.456   6.365
    1AU     LIG  117  38.898   2.114   6.073
    1AU     LIG  118  38.823   2.013   5.623
    1AU     LIG  119  38.913   2.046   5.164
    1AU     LIG  120  39.173   2.053   4.783
    1AU    AUSL  121  38.459   2.751   6.725
    1AU    AUSL  122  38.162   2.451   6.782
    1AU     AUL  123  38.341   2.387   6.509
    1AU       S  124  37.903   2.529   6.282
    1AU     LIG  125  37.955   2.322   5.866
    1AU     LIG  126  37.765   2.089   5.499
    1AU     LIG  127  37.508   1.955   5.129
    1AU     LIG  128  37.245   1.901   4.735
    1AU       S  129  38.617   2.800   6.336
    1AU     LIG  130  38.675   2.573   5.886
    1AU     LIG  131  38.880   2.503   5.442
    1AU     LIG  132  39.029   2.543   4.982
    1AU     LIG  133  38.934   2.797   4.577
    1AU    AUSL  134  37.833   2.735   8.149
    1AU    AUSL  135  38.033   3.057   8.064
    1AU     AUL  136  37.992   3.041   8.412
    1AU       S  137  37.636   2.720   8.612
    1AU     LIG  138  37.372   2.433   8.852
    1AU     LIG  139  37.320   2.328   9.294
    1AU     LIG  140  37.243   2.268   9.749
    1AU     LIG  141  36.972   2.184  10.114
    1AU       S  142  37.619   3.370   8.252
    1AU     LIG  143  37.503   3.408   8.699
    1AU     LIG  144  37.406   3.730   9.013
    1AU     LIG  145  37.217   4.084   9.237
    1AU     LIG  146  36.957   4.160   9.610
    1AU    AUSL  147  38.016   2.457   8.237
    1AU    AUSL  148  37.752   2.375   7.981
    1AU     AUL  149  37.562   2.531   8.161
    1AU       S  150  37.546   2.065   8.370
    1AU     LIG  151  37.094   1.894   8.360
    1AU     LIG  152  36.816   1.531   8.393
    1AU     LIG  153  36.603   1.269   8.697
    1AU     LIG  154  36.439   1.106   9.104
    1AU       S  155  37.828   2.413   8.620
    1AU     LIG  156  37.778   2.186   9.057
    1AU     LIG  157  37.683   2.051   9.532
    1AU     LIG  158  37.512   1.879   9.966
    1AU     LIG  159  37.493   1.834  10.447
    1AU    AUSL  160  37.842   2.580   6.835
    1AU    AUSL  161  37.957   2.201   6.950
    1AU     AUL  162  38.034   2.188   6.634
    1AU       S  163  37.682   2.524   6.407
    1AU     LIG  164  37.465   2.424   5.977
    1AU     LIG  165  37.274   2.252   5.556
    1AU     LIG  166  37.022   2.132   5.169
    1AU     LIG  167  36.812   2.244   4.766
    1AU       S  168  37.546   2.060   6.630
    1AU     LIG  169  37.342   1.653   6.406
    1AU     LIG  170  37.123   1.223   6.295
    1AU     LIG  171  36.906   1.013   5.928
    1AU     LIG  172  36.885   1.199   5.482
    1AU    AUSL  173  38.123   2.799   6.731
    1AU    AUSL  174  37.701   2.901   7.010
    1AU     AUL  175  37.802   2.939   6.672
    1AU       S  176  37.337   3.124   6.755
    1AU     LIG  177  37.138   3.415   6.425
    1AU     LIG  178  37.076   3.636   6.012
    1AU     LIG  179  36.805   3.733   5.638
    1AU     LIG  180  36.350   3.732   5.484
    1AU       S  181  38.045   2.757   6.273
    1AU     LIG  182  37.804   2.820   5.878
    1AU     LIG  183  37.659   2.595   5.507
    1AU     LIG  184  37.588   2.537   5.052
    1AU     LIG  185  37.651   2.808   4.655
    1AU    AUSL  186  38.967   3.048   7.495
    1AU    AUSL  187  38.867   2.899   7.111
    1AU     AUL  188  39.174   3.071   7.176
    1AU       S  189  39.069   3.306   6.716
    1AU     LIG  190  39.376   3.258   6.396
    1AU     LIG  191  39.702   3.365   6.107
    1AU     LIG  192  39.993   3.635   5.891
    1AU     LIG  193  40.207   3.935   5.622
    1AU       S  194  39.523   3.114   7.554
    1AU     LIG  195  39.937   3.354   7.582
    1AU     LIG  196  40.379   3.481   7.453
    1AU     LIG  197  40.777   3.743   7.444
    1AU     LIG  198  41.078   4.049   7.670
    1AU    AUSL  199  39.065   2.726   7.345
    1AU    AUSL  200  39.050   2.424   7.627
    1AU     AUL  201  39.319   2.464   7.297
    1AU       S  202  39.570   2.870   7.456
    1AU     LIG  203  40.067   2.910   7.369
    1AU     LIG  204  40.560   3.014   7.311
    1AU     LIG  205  41.040   3.158   7.256
    1AU     LIG  206  41.433   3.120   6.961
    1AU       S  207  39.418   2.038   7.692
    1AU     LIG  208  39.824   1.803   7.795
    1AU     LIG  209  40.303   1.765   7.788
    1AU     LIG  210  40.782   1.691   7.690
    1AU     LIG  211  41.247   1.545   7.751
    1AU    AUSL  212  39.043   2.759   7.709
    1AU    AUSL  213  38.780   3.190   7.777
    1AU     AUL  214  39.100   3.102   7.810
    1AU       S  215  39.064   3.479   8.146
    1AU     LIG  216  39.425   3.650   8.417
    1AU     LIG  217  39.751   3.908   8.636
    1AU     LIG  218  40.003   4.233   8.853
    1AU     LIG  219  40.172   4.677   8.802
    1AU       S  220  39.497   2.792   7.732
    1AU     LIG  221  39.920   2.922   7.868
    1AU     LIG  222  40.357   3.080   7.785
    1AU     LIG  223  40.793   3.271   7.705
    1AU     LIG  224  41.192   3.523   7.645
    1AU    AUSL  225  37.720   3.156   7.520
    1AU    AUSL  226  37.715   2.975   7.928
    1AU     AUL  227  37.417   3.176   7.717
    1AU       S  228  37.463   3.116   8.241
    1AU     LIG  229  37.094   3.317   8.393
    1AU     LIG  230  36.985   3.543   8.773
    1AU     LIG  231  36.805   3.818   9.103
    1AU     LIG  232  36.541   3.877   9.491
    1AU       S  233  37.600   3.619   7.507
    1AU     LIG  234  37.147   3.817   7.427
    1AU     LIG  235  36.694   4.043   7.410
    1AU     LIG  236  36.233   4.150   7.514
    1AU     LIG  237  35.900   4.413   7.751
    1AU    AUSL  238  37.583   2.825   7.314
    1AU    AUSL  239  37.832   3.212   7.193
    1AU     AUL  240  37.466   3.138   7.255
    1AU       S  241  37.180   2.700   6.981
    1AU     LIG  242  36.711   2.877   6.963
    1AU     LIG  243  36.293   3.129   7.026
    1AU     LIG  244  35.881   3.319   6.871
    1AU     LIG  245  35.425   3.177   6.830
    1AU       S  246  37.596   3.580   7.008
    1AU     LIG  247  37.293   3.823   6.718
    1AU     LIG  248  37.126   4.065   6.342
    1AU     LIG  249  36.895   4.492   6.258
    1AU     LIG  250  36.714   4.857   6.000
    1AU    AUSL  251  37.551   2.828   7.675
    1AU    AUSL  252  37.498   2.504   7.366
    1AU     AUL  253  37.274   2.871   7.457
    1AU       S  254  37.033   2.422   7.443
    1AU     LIG  255  36.683   2.413   7.179
    1AU     LIG  256  36.353   2.146   7.056
    1AU     LIG  257  35.961   1.969   7.077
    1AU     LIG  258  35.531   1.858   7.154
    1AU       S  259  37.148   2.815   7.975
    1AU     LIG  260  36.780   3.083   8.034
    1AU     LIG  261  36.404   3.324   7.939
    1AU     LIG  262  35.957   3.265   7.999
    1AU     LIG  263  35.508   3.247   8.156
    1AU    AUSL  264  38.891   2.125   7.553
    1AU    AUSL  265  38.841   2.293   7.893
    1AU     AUL  266  39.145   2.390   7.908
    1AU       S  267  39.188   1.843   7.606
    1AU     LIG  268  39.497   1.497   7.543
    1AU     LIG  269  39.935   1.334   7.479
    1AU     LIG  270  40.166   0.912   7.515
    1AU     LIG  271  40.595   0.832   7.681
    1AU       S  272  39.092   1.914   8.088
    1AU     LIG  273  39.381   1.686   8.379
    1AU     LIG  274  39.543   1.393   8.719
    1AU     LIG  275  39.825   1.118   8.970
    1AU     LIG  276  40.230   1.051   9.208
    1AU    AUSL  277  38.976   2.379   7.303
    1AU    AUSL  278  38.719   2.021   7.228
    1AU     AUL  279  39.052   2.089   7.164
    1AU       S  280  39.432   1.998   7.467
    1AU     LIG  281  39.828   1.814   7.283
    1AU     LIG  282  40.292   1.709   7.276
    1AU     LIG  283  40.739   1.547   7.181
    1AU     LIG  284  41.002   1.426   6.800
    1AU       S  285  38.970   1.801   6.755
    1AU     LIG  286  39.177   1.403   6.640
    1AU     LIG  287  39.426   1.024   6.473
    1AU     LIG  288  39.728   0.662   6.373
    1AU     LIG  289  40.061   0.318   6.486
    1AU    AUSL  290  37.616   2.197   7.538
    1AU    AUSL  291  37.666   2.387   7.073
    1AU     AUL  292  37.426   2.148   7.264
    1AU       S  293  37.391   2.263   6.758
    1AU     LIG  294  37.000   2.022   6.601
    1AU     LIG  295  36.826   1.601   6.510
    1AU     LIG  296  36.611   1.327   6.212
    1AU     LIG  297  36.456   1.257   5.772
    1AU       S  298  37.041   2.189   7.580
    1AU     LIG  299  36.702   1.944   7.390
    1AU     LIG  300  36.327   1.671   7.283
    1AU     LIG  301  35.883   1.529   7.384
    1AU     LIG  302  35.742   1.072   7.482
    1AU    AUSL  303  37.536   2.493   7.725
    1AU    AUSL  304  37.789   2.059   7.818
    1AU     AUL  305  37.456   2.178   7.870
    1AU       S  306  37.563   1.817   8.207
    1AU     LIG  307  37.291   1.421   8.207
    1AU     LIG  308  36.986   1.048   8.261
    1AU     LIG  309  36.675   0.793   8.507
    1AU     LIG  310  36.411   0.440   8.710
    1AU       S  311  37.045   2.433   7.679
    1AU     LIG  312  36.562   2.376   7.679
    1AU     LIG  313  36.236   2.069   7.580
    1AU     LIG  314  35.792   2.095   7.538
    1AU     LIG  315  35.421   1.926   7.667
    1AU    AUSL  316  38.285   3.271   7.922
    1AU    AUSL  317  37.921   3.258   7.803
    1AU     AUL  318  38.133   3.337   8.213
    1AU       S  319  37.678   3.561   8.009
    1AU     LIG  320  37.355   3.779   8.365
    1AU     LIG  321  37.116   4.036   8.713
    1AU     LIG  322  36.822   4.332   8.960
    1AU     LIG  323  36.505   4.717   8.953
    1AU       S  324  38.132   3.781   7.987
    1AU     LIG  325  38.179   4.133   8.307
    1AU     LIG  326  38.312   4.542   8.490
    1AU     LIG  327  38.415   4.875   8.835
    1AU     LIG  328  38.296   5.307   9.032
    1AU    AUSL  329  38.166   3.410   7.590
    1AU    AUSL  330  38.479   3.350   7.298
    1AU     AUL  331  38.531   3.645   7.474
    1AU       S  332  38.046   3.803   7.687
    1AU     LIG  333  38.058   4.304   7.838
    1AU     LIG  334  38.290   4.709   7.962
    1AU     LIG  335  38.128   5.139   8.056
    1AU     LIG  336  37.964   5.590   8.183
    1AU       S  337  38.418   3.825   7.020
    1AU     LIG  338  38.704   4.197   6.962
    1AU     LIG  339  38.840   4.622   6.854
    1AU     LIG  340  38.740   4.996   6.614
    1AU     LIG  341  38.663   5.452   6.673
    1AU    AUSL  342  38.499   3.346   7.652
    1AU    AUSL  343  38.573   3.104   8.059
    1AU     AUL  344  38.591   3.465   7.960
    1AU       S  345  38.860   3.329   8.369
    1AU     LIG  346  39.107   3.432   8.759
    1AU     LIG  347  39.466   3.630   8.961
    1AU     LIG  348  39.654   4.000   9.173
    1AU     LIG  349  39.773   4.179   9.592
    1AU       S  350  38.316   3.876   7.853
    1AU     LIG  351  38.566   4.250   7.989
    1AU     LIG  352  38.732   4.620   8.215
    1AU     LIG  353  38.527   5.013   8.349
    1AU     LIG  354  38.458   5.471   8.274
    1AU    AUSL  355  38.298   2.006   7.943
    1AU    AUSL  356  38.642   2.011   7.813
    1AU     AUL  357  38.402   1.940   8.223
    1AU       S  358  38.442   1.473   8.018
    1AU     LIG  359  38.255   1.107   8.244
    1AU     LIG  360  38.043   0.685   8.271
    1AU     LIG  361  38.063   0.232   8.429
    1AU     LIG  362  37.950  44.920   8.778
    1AU       S  363  38.872   1.733   7.972
    1AU     LIG  364  39.198   1.425   7.967
    1AU     LIG  365  39.387   1.155   8.291
    1AU     LIG  366  39.536   0.845   8.619
    1AU     LIG  367  39.598   0.377   8.736
    1AU    AUSL  368  38.075   1.944   7.676
    1AU    AUSL  369  38.017   2.152   8.086
    1AU     AUL  370  38.015   1.792   7.991
    1AU       S  371  38.254   1.372   7.794
    1AU     LIG  372  37.949   1.021   7.829
    1AU     LIG  373  37.752   0.597   7.846
    1AU     LIG  374  37.821   0.170   7.982
    1AU     LIG  375  37.740  44.831   8.286
    1AU       S  376  37.785   1.951   8.428
    1AU     LIG  377  37.447   1.643   8.660
    1AU     LIG  378  37.143   1.272   8.700
    1AU     LIG  379  36.915   0.946   8.951
    1AU     LIG  380  36.733   0.737   9.330
    1AU    AUSL  381  38.390   1.841   7.646
    1AU    AUSL  382  38.047   1.877   7.334
    1AU     AUL  383  37.924   1.698   7.625
    1AU       S  384  38.077   1.409   7.239
    1AU     LIG  385  37.764   1.110   7.096
    1AU     LIG  386  37.597   0.696   6.984
    1AU     LIG  387  37.672   0.263   6.832
    1AU     LIG  388  37.729  44.841   6.624
    1AU       S  389  38.516   1.456   7.736
    1AU     LIG  390  38.463   0.927   7.796
    1AU     LIG  391  38.341   0.457   7.926
    1AU     LIG  392  38.507   0.074   8.177
    1AU     LIG  393  38.686  44.576   8.298
    1AU    AUSL  394  38.332   3.211   6.977
    1AU    AUSL  395  38.794   3.210   7.236
    1AU     AUL  396  38.621   3.365   6.999
    1AU       S  397  38.341   3.705   6.758
    1AU     LIG  398  38.658   3.929   6.530
    1AU     LIG  399  38.663   4.380   6.439
    1AU     LIG  400  38.488   4.754   6.219
    1AU     LIG  401  38.359   4.902   5.784
    1AU       S  402  39.078   3.494   6.871
    1AU     LIG  403  39.379   3.740   6.583
    1AU     LIG  404  39.760   3.849   6.311
    1AU     LIG  405  40.055   4.150   6.086
    1AU     LIG  406  40.262   4.590   6.101
    1AU    AUSL  407  38.133   3.369   7.245
    1AU    AUSL  408  38.017   3.046   6.947
    1AU     AUL  409  38.027   3.337   6.867
    1AU       S  410  38.136   3.797   7.079
    1AU     LIG  411  38.230   4.207   6.758
    1AU     LIG  412  38.334   4.673   6.721
    1AU     LIG  413  38.240   5.143   6.711
    1AU     LIG  414  38.176   5.609   6.823
    1AU       S  415  37.543   3.375   6.752
    1AU     LIG  416  37.602   3.629   6.354
    1AU     LIG  417  37.503   3.911   5.994
    1AU     LIG  418  37.288   4.003   5.583
    1AU     LIG  419  37.379   4.272   5.192
    1AU    AUSL  420  38.222   1.967   7.033
    1AU    AUSL  421  37.776   2.077   7.232
    1AU     AUL  422  37.896   1.839   6.986
    1AU       S  423  37.428   1.925   6.826
    1AU     LIG  424  37.184   1.514   6.874
    1AU     LIG  425  36.912   1.135   6.750
    1AU     LIG  426  36.719   0.855   6.410
    1AU     LIG  427  36.502   0.483   6.169
    1AU       S  428  38.194   1.426   6.984
    1AU     LIG  429  38.096   1.085   6.700
    1AU     LIG  430  37.994   0.641   6.659
    1AU     LIG  431  38.095   0.197   6.534
    1AU     LIG  432  38.293  44.945   6.183
    1AU    AUSL  433  38.414   1.867   7.315
    1AU    AUSL  434  38.512   2.117   6.928
    1AU     AUL  435  38.556   1.772   7.025
    1AU       S  436  38.342   1.380   7.276
    1AU     LIG  437  38.246   0.887   7.155
    1AU     LIG  438  38.325   0.404   6.966
    1AU     LIG  439  38.569   0.067   6.672
    1AU     LIG  440  38.769  44.606   6.691
    1AU       S  441  38.699   1.944   6.560
    1AU     LIG  442  38.820   1.603   6.286
    1AU     LIG  443  39.160   1.333   6.130
    1AU     LIG  444  39.480   1.047   5.952
    1AU     LIG  445  39.583   0.859   5.532
    2AU     AUC  446   6.304  41.770   7.498
    2AU     AUC  447   6.572  41.746   7.334
    2AU     AUC  448   6.567  41.749   7.666
    2AU     AUC  449   6.039  41.792   7.336
    2AU     AUC  450   6.042  41.797   7.666
    2AU     AUC  451   6.169  42.050   7.490
    2AU     AUC  452   6.496  42.020   7.492
    2AU     AUC  453   6.114  41.515   7.503
    2AU     AUC  454   6.442  41.487   7.501
    2AU     AUC  455   6.288  41.608   7.768
    2AU     AUC  456   6.323  41.936   7.765
    2AU     AUC  457   6.293  41.603   7.235
    2AU     AUC  458   6.320  41.930   7.224
    2AU     AUC  459   6.832  41.727   7.175
    2AU     AUC  460   6.835  41.718   7.498
    2AU     AUC  461   6.816  41.726   7.824
    2AU     AUC  462   5.783  41.805   7.174
    2AU     AUC  463   5.765  41.816   7.512
    2AU     AUC  464   5.794  41.830   7.834
    2AU     AUC  465   6.052  42.331   7.483
    2AU     AUC  466   6.359  42.306   7.471
    2AU     AUC  467   6.693  42.256   7.483
    2AU     AUC  468   5.927  41.269   7.506
    2AU     AUC  469   6.250  41.218   7.496
    2AU     AUC  470   6.576  41.214   7.514
    2AU     AUC  471   6.271  41.451   8.026
    2AU     AUC  472   6.302  41.774   8.055
    2AU     AUC  473   6.344  42.098   8.024
    2AU     AUC  474   6.299  41.442   6.983
    2AU     AUC  475   6.326  41.760   6.954
    2AU     AUC  476   6.336  42.073   6.954
    2AU     AUC  477   6.552  41.584   7.948
    2AU     AUC  478   6.593  41.917   7.946
    2AU     AUC  479   6.578  41.585   7.064
    2AU     AUC  480   6.597  41.914   7.055
    2AU     AUC  481   6.025  41.635   7.946
    2AU     AUC  482   6.057  41.968   7.939
    2AU     AUC  483   6.024  41.624   7.070
    2AU     AUC  484   6.043  41.941   7.042
    2AU     AUC  485   6.775  42.002   7.333
    2AU     AUC  486   6.765  42.010   7.668
    2AU     AUC  487   5.895  42.083   7.321
    2AU     AUC  488   5.903  42.096   7.666
    2AU     AUC  489   6.724  41.457   7.342
    2AU     AUC  490   6.709  41.460   7.671
    2AU     AUC  491   5.826  41.538   7.347
    2AU     AUC  492   5.846  41.531   7.683
    2AU     AUC  493   6.196  42.232   7.754
    2AU     AUC  494   6.522  42.189   7.765
    2AU     AUC  495   6.103  41.337   7.774
    2AU     AUC  496   6.432  41.319   7.775
    2AU     AUC  497   6.174  42.215   7.205
    2AU     AUC  498   6.517  42.193   7.214
    2AU     AUC  499   6.091  41.341   7.231
    2AU     AUC  500   6.429  41.313   7.229
    2AU    AUSL  501   6.773  41.686   8.119
    2AU    AUSL  502   6.577  41.348   8.109
    2AU     AUL  503   6.666  41.662   8.428
    2AU       S  504   6.883  40.966   8.257
    2AU     LIG  505   7.010  40.599   8.491
    2AU     LIG  506   7.129  40.246   8.764
    2AU     LIG  507   7.377  40.097   9.119
    2AU     LIG  508   7.325  39.966   9.568
    2AU       S  509   7.061  41.374   8.466
    2AU     LIG  510   7.160  41.456   8.916
    2AU     LIG  511   7.238  41.601   9.360
    2AU     LIG  512   7.535  41.645   9.725
    2AU     LIG  513   7.842  41.864  10.006
    2AU    AUSL  514   6.379  41.570   8.264
    2AU    AUSL  515   6.186  41.934   8.267
    2AU     AUL  516   6.366  41.786   8.580
    2AU       S  517   6.696  41.228   8.642
    2AU     LIG  518   6.696  41.334   9.103
    2AU     LIG  519   6.833  41.332   9.553
    2AU     LIG  520   6.855  41.173   9.997
    2AU     LIG  521   6.898  40.959  10.415
    2AU       S  522   5.889  41.806   8.735
    2AU     LIG  523   5.764  41.777   9.180
    2AU     LIG  524   5.698  41.702   9.628
    2AU     LIG  525   5.497  41.745  10.042
    2AU     LIG  526   5.468  42.012  10.437
    2AU    AUSL  527   6.534  41.963   8.241
    2AU    AUSL  528   6.874  42.003   8.003
    2AU     AUL  529   6.921  41.911   8.363
    2AU       S  530   6.588  42.264   8.603
    2AU     LIG  531   6.792  42.313   9.054
    2AU     LIG  532   6.984  42.327   9.513
    2AU     LIG  533   7.041  42.402   9.997
    2AU     LIG  534   7.136  42.411  10.473
    2AU       S  535   7.155  42.353   8.252
    2AU     LIG  536   7.499  42.324   8.554
    2AU     LIG  537   7.889  42.448   8.755
    2AU     LIG  538   8.132  42.770   8.973
    2AU     LIG  539   8.250  43.090   9.292
    2AU    AUSL  540   6.770  41.838   6.849
    2AU    AUSL  541   6.645  42.178   6.930
    2AU     AUL  542   6.557  42.197   6.615
    2AU       S  543   6.956  41.881   6.433
    2AU     LIG  544   7.256  41.687   6.120
    2AU     LIG  545   7.300  41.476   5.711
    2AU     LIG  546   7.405  41.495   5.246
    2AU     LIG  547   7.537  41.736   4.855
    2AU       S  548   7.044  42.373   6.658
    2AU     LIG  549   7.315  42.589   6.320
    2AU     LIG  550   7.533  42.819   5.950
    2AU     LIG  551   7.700  43.119   5.611
    2AU     LIG  552   7.756  43.502   5.315
    2AU    AUSL  553   6.584  41.558   6.792
    2AU    AUSL  554   6.833  41.439   7.031
    2AU     AUL  555   7.044  41.630   6.872
    2AU       S  556   7.003  41.166   6.648
    2AU     LIG  557   7.230  40.886   6.326
    2AU     LIG  558   7.459  40.491   6.227
    2AU     LIG  559   7.769  40.263   5.965
    2AU     LIG  560   8.034  40.311   5.567
    2AU       S  561   6.850  41.564   6.383
    2AU     LIG  562   6.940  41.235   6.074
    2AU     LIG  563   6.895  41.182   5.597
    2AU     LIG  564   6.979  41.211   5.119
    2AU     LIG  565   7.091  41.066   4.669
    2AU    AUSL  566   6.461  41.869   6.714
    2AU    AUSL  567   6.187  41.604   6.776
    2AU     AUL  568   6.374  41.487   6.524
    2AU       S  569   5.961  41.667   6.285
    2AU     LIG  570   5.953  41.404   5.905
    2AU     LIG  571   5.700  41.157   5.600
    2AU     LIG  572   5.496  41.173   5.179
    2AU     LIG  573   5.504  41.239   4.708
    2AU       S  574   6.689  41.824   6.282
    2AU     LIG  575   6.815  41.677   5.848
    2AU     LIG  576   6.930  41.663   5.391
    2AU     LIG  577   7.023  41.707   4.930
    2AU     LIG  578   7.164  41.978   4.557
    2AU    AUSL  579   5.854  41.894   8.144
    2AU    AUSL  580   6.071  42.213   8.065
    2AU     AUL  581   6.005  42.189   8.415
    2AU       S  582   5.659  41.846   8.615
    2AU     LIG  583   5.429  41.524   8.883
    2AU     LIG  584   5.355  41.434   9.350
    2AU     LIG  585   5.121  41.493   9.761
    2AU     LIG  586   4.673  41.537   9.951
    2AU       S  587   5.673  42.554   8.237
    2AU     LIG  588   5.674  42.762   8.649
    2AU     LIG  589   5.556  42.931   9.057
    2AU     LIG  590   5.247  43.122   9.334
    2AU     LIG  591   4.985  43.273   9.693
    2AU    AUSL  592   6.030  41.612   8.229
    2AU    AUSL  593   5.767  41.531   7.979
    2AU     AUL  594   5.576  41.705   8.148
    2AU       S  595   5.555  41.244   8.374
    2AU     LIG  596   5.109  41.072   8.431
    2AU     LIG  597   4.873  40.689   8.540
    2AU     LIG  598   4.701  40.336   8.793
    2AU     LIG  599   4.397  40.313   9.159
    2AU       S  600   5.864  41.571   8.603
    2AU     LIG  601   5.885  41.311   8.987
    2AU     LIG  602   5.813  41.222   9.447
    2AU     LIG  603   5.580  41.252   9.856
    2AU     LIG  604   5.464  41.047  10.274
    2AU    AUSL  605   5.867  41.733   6.836
    2AU    AUSL  606   5.972  41.378   6.958
    2AU     AUL  607   6.046  41.327   6.651
    2AU       S  608   5.726  41.666   6.387
    2AU     LIG  609   5.465  41.489   6.021
    2AU     LIG  610   5.258  41.434   5.581
    2AU     LIG  611   5.087  41.518   5.135
    2AU     LIG  612   4.733  41.686   4.837
    2AU       S  613   5.549  41.247   6.618
    2AU     LIG  614   5.379  40.857   6.356
    2AU     LIG  615   5.154  40.431   6.234
    2AU     LIG  616   4.887  40.127   5.968
    2AU     LIG  617   4.835  39.975   5.531
    2AU    AUSL  618   6.138  41.954   6.734
    2AU    AUSL  619   5.741  42.075   7.014
    2AU     AUL  620   5.806  42.074   6.671
    2AU       S  621   5.385  42.341   6.768
    2AU     LIG  622   5.121  42.551   6.443
    2AU     LIG  623   5.086  42.690   5.983
    2AU     LIG  624   4.852  42.803   5.584
    2AU     LIG  625   4.412  42.798   5.393
    2AU       S  626   6.075  41.900   6.278
    2AU     LIG  627   5.783  41.895   5.881
    2AU     LIG  628   5.704  41.664   5.483
    2AU     LIG  629   5.579  41.663   5.027
    2AU     LIG  630   5.506  41.743   4.561
    2AU    AUSL  631   7.014  42.163   7.461
    2AU    AUSL  632   6.935  42.007   7.087
    2AU     AUL  633   7.283  41.908   7.129
    2AU       S  634   7.187  42.240   6.771
    2AU     LIG  635   7.624  42.315   6.630
    2AU     LIG  636   7.836  42.490   6.238
    2AU     LIG  637   8.052  42.780   5.917
    2AU     LIG  638   8.430  43.075   5.851
    2AU       S  639   7.316  42.436   7.451
    2AU     LIG  640   7.734  42.642   7.282
    2AU     LIG  641   8.195  42.554   7.384
    2AU     LIG  642   8.528  42.741   7.638
    2AU     LIG  643   8.806  43.118   7.544
    2AU    AUSL  644   7.061  41.837   7.369
    2AU    AUSL  645   7.032  41.567   7.644
    2AU     AUL  646   7.353  41.762   7.616
    2AU       S  647   7.539  42.208   7.411
    2AU     LIG  648   7.932  42.187   7.131
    2AU     LIG  649   8.428  42.169   7.082
    2AU     LIG  650   8.856  42.339   7.040
    2AU     LIG  651   9.231  42.628   6.972
    2AU       S  652   7.455  41.231   7.603
    2AU     LIG  653   7.787  41.120   7.888
    2AU     LIG  654   8.237  41.146   7.858
    2AU     LIG  655   8.665  41.021   7.749
    2AU     LIG  656   9.051  40.808   7.927
    2AU    AUSL  657   7.005  41.906   7.697
    2AU    AUSL  658   6.860  42.286   7.767
    2AU     AUL  659   7.181  42.044   7.850
    2AU       S  660   7.171  42.539   8.016
    2AU     LIG  661   7.400  42.793   8.363
    2AU     LIG  662   7.743  42.945   8.652
    2AU     LIG  663   8.005  43.273   8.870
    2AU     LIG  664   8.313  43.569   9.074
    2AU       S  665   7.500  42.330   7.634
    2AU     LIG  666   7.956  42.231   7.708
    2AU     LIG  667   8.427  42.223   7.733
    2AU     LIG  668   8.844  42.344   7.857
    2AU     LIG  669   9.132  42.689   7.897
    2AU    AUSL  670   5.771  42.324   7.520
    2AU    AUSL  671   5.751  42.144   7.924
    2AU     AUL  672   5.466  42.359   7.708
    2AU       S  673   5.498  42.311   8.236
    2AU     LIG  674   5.232  42.521   8.579
    2AU     LIG  675   5.082  42.722   8.999
    2AU     LIG  676   4.801  42.873   9.367
    2AU     LIG  677   4.561  42.979   9.776
    2AU       S  678   5.688  42.794   7.498
    2AU     LIG  679   5.238  42.916   7.323
    2AU     LIG  680   4.753  43.019   7.406
    2AU     LIG  681   4.274  43.122   7.530
    2AU     LIG  682   3.863  43.358   7.657
    2AU    AUSL  683   5.614  41.994   7.313
    2AU    AUSL  684   5.877  42.374   7.190
    2AU     AUL  685   5.511  42.312   7.265
    2AU       S  686   5.230  41.901   6.958
    2AU     LIG  687   4.838  42.189   6.903
    2AU     LIG  688   4.345  42.257   6.976
    2AU     LIG  689   3.846  42.285   7.042
    2AU     LIG  690   3.381  42.286   6.905
    2AU       S  691   5.648  42.741   7.004
    2AU     LIG  692   5.304  42.938   6.748
    2AU     LIG  693   5.173  43.076   6.320
    2AU     LIG  694   5.097  43.385   5.982
    2AU     LIG  695   4.886  43.811   5.944
    2AU    AUSL  696   5.579  41.998   7.675
    2AU    AUSL  697   5.516  41.677   7.369
    2AU     AUL  698   5.301  42.042   7.450
    2AU       S  699   5.037  41.602   7.474
    2AU     LIG  700   4.572  41.640   7.390
    2AU     LIG  701   4.130  41.492   7.284
    2AU     LIG  702   3.776  41.212   7.162
    2AU     LIG  703   3.380  40.938   7.199
    2AU       S  704   5.174  42.016   7.969
    2AU     LIG  705   4.704  42.098   7.925
    2AU     LIG  706   4.270  42.307   7.971
    2AU     LIG  707   3.826  42.496   7.996
    2AU     LIG  708   3.372  42.556   7.930
    2AU    AUSL  709   6.904  41.257   7.568
    2AU    AUSL  710   6.855  41.424   7.914
    2AU     AUL  711   7.173  41.510   7.910
    2AU       S  712   7.268  41.040   7.631
    2AU     LIG  713   7.593  40.720   7.647
    2AU     LIG  714   8.067  40.712   7.636
    2AU     LIG  715   8.510  40.608   7.487
    2AU     LIG  716   8.776  40.245   7.526
    2AU       S  717   7.094  41.041   8.100
    2AU     LIG  718   7.432  40.859   8.353
    2AU     LIG  719   7.553  40.518   8.666
    2AU     LIG  720   7.831  40.330   8.991
    2AU     LIG  721   8.177  40.457   9.298
    2AU    AUSL  722   7.036  41.500   7.302
    2AU    AUSL  723   6.708  41.180   7.253
    2AU     AUL  724   7.019  41.147   7.200
    2AU       S  725   7.466  41.302   7.362
    2AU     LIG  726   7.848  41.039   7.305
    2AU     LIG  727   8.314  41.055   7.328
    2AU     LIG  728   8.692  40.942   7.095
    2AU     LIG  729   9.034  40.659   6.903
    2AU       S  730   6.950  40.920   6.752
    2AU     LIG  731   7.057  40.481   6.599
    2AU     LIG  732   7.230  40.069   6.415
    2AU     LIG  733   7.554  39.808   6.189
    2AU     LIG  734   7.717  39.366   6.126
    2AU    AUSL  735   5.624  41.364   7.534
    2AU    AUSL  736   5.676  41.562   7.071
    2AU     AUL  737   5.419  41.338   7.254
    2AU       S  738   5.401  41.447   6.744
    2AU     LIG  739   5.032  41.204   6.522
    2AU     LIG  740   4.872  40.755   6.514
    2AU     LIG  741   4.617  40.408   6.309
    2AU     LIG  742   4.261  40.290   6.007
    2AU       S  743   5.053  41.366   7.597
    2AU     LIG  744   4.629  41.168   7.588
    2AU     LIG  745   4.203  41.018   7.469
    2AU     LIG  746   3.797  40.789   7.464
    2AU     LIG  747   3.450  40.530   7.601
    2AU    AUSL  748   5.557  41.660   7.726
    2AU    AUSL  749   5.808  41.218   7.803
    2AU     AUL  750   5.481  41.328   7.863
    2AU       S  751   5.558  40.992   8.228
    2AU     LIG  752   5.282  40.593   8.239
    2AU     LIG  753   4.963  40.225   8.323
    2AU     LIG  754   4.726  39.865   8.537
    2AU     LIG  755   4.528  39.480   8.730
    2AU       S  756   5.082  41.613   7.706
    2AU     LIG  757   4.667  41.582   7.894
    2AU     LIG  758   4.228  41.470   7.783
    2AU     LIG  759   3.814  41.269   7.694
    2AU     LIG  760   3.393  41.050   7.711
    2AU    AUSL  761   6.340  42.419   7.933
    2AU    AUSL  762   5.978  42.418   7.802
    2AU     AUL  763   6.180  42.478   8.223
    2AU       S  764   5.766  42.735   7.989
    2AU     LIG  765   5.411  42.970   8.249
    2AU     LIG  766   5.244  43.089   8.672
    2AU     LIG  767   5.060  43.423   8.953
    2AU     LIG  768   4.911  43.875   9.013
    2AU       S  769   6.251  42.917   7.995
    2AU     LIG  770   6.419  43.167   8.335
    2AU     LIG  771   6.562  43.572   8.506
    2AU     LIG  772   6.447  43.981   8.696
    2AU     LIG  773   6.385  44.180   9.136
    2AU    AUSL  774   6.252  42.556   7.605
    2AU    AUSL  775   6.532  42.504   7.309
    2AU     AUL  776   6.704  42.717   7.529
    2AU       S  777   6.153  42.946   7.706
    2AU     LIG  778   6.091  43.388   7.976
    2AU     LIG  779   6.219  43.811   8.201
    2AU     LIG  780   6.075  44.275   8.280
    2AU     LIG  781   5.770  44.675   8.197
    2AU       S  782   6.427  42.998   7.215
    2AU     LIG  783   6.646  43.421   7.034
    2AU     LIG  784   6.805  43.873   6.874
    2AU     LIG  785   6.917  44.360   6.896
    2AU     LIG  786   6.862  44.770   6.663
    2AU    AUSL  787   6.562  42.432   7.656
    2AU    AUSL  788   6.622  42.246   8.051
    2AU     AUL  789   6.670  42.596   7.923
    2AU       S  790   6.942  42.469   8.323
    2AU     LIG  791   7.086  42.589   8.727
    2AU     LIG  792   7.460  42.661   8.974
    2AU     LIG  793   7.716  42.982   9.190
    2AU     LIG  794   7.834  43.315   9.496
    2AU       S  795   6.421  43.034   7.792
    2AU     LIG  796   6.596  43.496   7.981
    2AU     LIG  797   6.756  43.947   8.190
    2AU     LIG  798   7.062  44.376   8.254
    2AU     LIG  799   7.265  44.840   8.342
    2AU    AUSL  800   6.293  41.137   7.931
    2AU    AUSL  801   6.649  41.153   7.825
    2AU     AUL  802   6.393  41.104   8.227
    2AU       S  803   6.419  40.628   8.060
    2AU     LIG  804   6.193  40.283   8.337
    2AU     LIG  805   6.025  39.837   8.335
    2AU     LIG  806   6.058  39.374   8.457
    2AU     LIG  807   5.974  39.125   8.854
    2AU       S  808   6.885  40.866   7.972
    2AU     LIG  809   7.208  40.541   8.013
    2AU     LIG  810   7.365  40.205   8.303
    2AU     LIG  811   7.566  39.951   8.653
    2AU     LIG  812   7.834  39.593   8.828
    2AU    AUSL  813   6.071  41.033   7.663
    2AU    AUSL  814   6.027  41.303   8.084
    2AU     AUL  815   5.987  40.948   7.982
    2AU       S  816   6.207  40.508   7.895
    2AU     LIG  817   5.893  40.134   7.924
    2AU     LIG  818   5.748  39.668   7.910
    2AU     LIG  819   5.740  39.232   8.083
    2AU     LIG  820   5.567  38.795   8.201
    2AU       S  821   5.795  41.111   8.435
    2AU     LIG  822   5.480  40.800   8.682
    2AU     LIG  823   5.248  40.375   8.725
    2AU     LIG  824   5.058  39.975   8.908
    2AU     LIG  825   4.657  39.866   9.115
    2AU    AUSL  826   6.424  40.977   7.642
    2AU    AUSL  827   6.034  41.039   7.306
    2AU     AUL  828   6.141  40.758   7.475
    2AU       S  829   6.023  40.566   7.018
    2AU     LIG  830   5.731  40.215   6.905
    2AU     LIG  831   5.710  39.747   7.013
    2AU     LIG  832   5.720  39.281   6.940
    2AU     LIG  833   5.357  39.067   6.741
    2AU       S  834   6.514  40.566   7.798
    2AU     LIG  835   6.403  40.048   7.922
    2AU     LIG  836   6.265  39.551   7.983
    2AU     LIG  837   6.443  39.092   8.074
    2AU     LIG  838   6.874  38.851   8.123
    2AU    AUSL  839   6.369  42.381   7.008
    2AU    AUSL  840   6.817  42.318   7.217
    2AU     AUL  841   6.672  42.557   6.968
    2AU       S  842   6.349  42.954   6.948
    2AU     LIG  843   6.367  43.301   6.625
    2AU     LIG  844   6.574  43.674   6.413
    2AU     LIG  845   6.600  43.916   5.992
    2AU     LIG  846   6.495  44.217   5.628
    2AU       S  847   7.183  42.472   6.977
    2AU     LIG  848   7.463  42.774   6.789
    2AU     LIG  849   7.699  42.952   6.423
    2AU     LIG  850   8.018  43.212   6.188
    2AU     LIG  851   8.411  43.478   6.187
    2AU    AUSL  852   6.174  42.517   7.272
    2AU    AUSL  853   6.052  42.224   6.925
    2AU     AUL  854   6.101  42.529   6.878
    2AU       S  855   6.122  42.939   7.209
    2AU     LIG  856   6.129  43.406   7.079
    2AU     LIG  857   6.300  43.791   6.846
    2AU     LIG  858   6.423  44.261   6.761
    2AU     LIG  859   6.319  44.738   6.692
    2AU       S  860   5.621  42.549   6.729
    2AU     LIG  861   5.572  42.747   6.300
    2AU     LIG  862   5.483  42.999   5.900
    2AU     LIG  863   5.248  43.163   5.526
    2AU     LIG  864   5.247  43.390   5.105
    2AU    AUSL  865   6.236  41.130   7.014
    2AU    AUSL  866   5.770  41.251   7.228
    2AU     AUL  867   5.886  41.040   6.973
    2AU       S  868   5.416  41.105   6.816
    2AU     LIG  869   5.296  40.637   6.811
    2AU     LIG  870   5.017  40.264   6.698
    2AU     LIG  871   4.790  39.930   6.439
    2AU     LIG  872   4.448  39.825   6.117
    2AU       S  873   6.235  40.716   6.781
    2AU     LIG  874   6.147  40.300   6.583
    2AU     LIG  875   5.970  39.862   6.585
    2AU     LIG  876   5.783  39.444   6.458
    2AU     LIG  877   5.726  39.116   6.105
    2AU    AUSL  878   6.391  41.017   7.309
    2AU    AUSL  879   6.541  41.257   6.941
    2AU     AUL  880   6.593  40.915   7.096
    2AU       S  881   6.294  40.524   7.037
    2AU     LIG  882   6.197  40.035   7.031
    2AU     LIG  883   6.181  39.540   6.958
    2AU     LIG  884   6.353  39.072   6.946
    2AU     LIG  885   6.674  38.796   6.690
    2AU       S  886   6.716  41.060   6.602
    2AU     LIG  887   6.735  40.751   6.281
    2AU     LIG  888   6.966  40.401   6.089
    2AU     LIG  889   7.273  40.117   5.888
    2AU     LIG  890   7.563  40.086   5.517
    3AU     AUC  891  26.301  23.466   7.494
    3AU     AUC  892  26.568  23.448   7.332
    3AU     AUC  893  26.569  23.456   7.658
    3AU     AUC  894  26.033  23.475   7.331
    3AU     AUC  895  26.037  23.482   7.663
    3AU     AUC  896  26.153  23.742   7.485
    3AU     AUC  897  26.483  23.727   7.486
    3AU     AUC  898  26.118  23.205   7.500
    3AU     AUC  899  26.448  23.186   7.497
    3AU     AUC  900  26.292  23.306   7.764
    3AU     AUC  901  26.314  23.635   7.759
    3AU     AUC  902  26.292  23.293   7.231
    3AU     AUC  903  26.309  23.624   7.219
    3AU     AUC  904  26.826  23.430   7.180
    3AU     AUC  905  26.845  23.430   7.498
    3AU     AUC  906  26.830  23.442   7.805
    3AU     AUC  907  25.777  23.476   7.169
    3AU     AUC  908  25.759  23.485   7.508
    3AU     AUC  909  25.787  23.501   7.833
    3AU     AUC  910  26.016  24.012   7.479
    3AU     AUC  911  26.331  24.018   7.465
    3AU     AUC  912  26.659  23.978   7.476
    3AU     AUC  913  25.939  22.957   7.507
    3AU     AUC  914  26.268  22.918   7.492
    3AU     AUC  915  26.590  22.911   7.507
    3AU     AUC  916  26.279  23.147   8.023
    3AU     AUC  917  26.299  23.468   8.048
    3AU     AUC  918  26.327  23.791   8.017
    3AU     AUC  919  26.296  23.127   6.980
    3AU     AUC  920  26.321  23.452   6.949
    3AU     AUC  921  26.321  23.765   6.947
    3AU     AUC  922  26.559  23.290   7.937
    3AU     AUC  923  26.591  23.627   7.932
    3AU     AUC  924  26.570  23.274   7.063
    3AU     AUC  925  26.587  23.613   7.054
    3AU     AUC  926  26.025  23.320   7.946
    3AU     AUC  927  26.045  23.649   7.938
    3AU     AUC  928  26.021  23.303   7.065
    3AU     AUC  929  26.031  23.626   7.037
    3AU     AUC  930  26.763  23.711   7.334
    3AU     AUC  931  26.767  23.724   7.659
    3AU     AUC  932  25.878  23.760   7.317
    3AU     AUC  933  25.882  23.770   7.665
    3AU     AUC  934  26.719  23.154   7.334
    3AU     AUC  935  26.721  23.168   7.659
    3AU     AUC  936  25.831  23.211   7.343
    3AU     AUC  937  25.847  23.209   7.683
    3AU     AUC  938  26.162  23.920   7.752
    3AU     AUC  939  26.492  23.910   7.750
    3AU     AUC  940  26.112  23.039   7.778
    3AU     AUC  941  26.443  23.021   7.770
    3AU     AUC  942  26.152  23.907   7.199
    3AU     AUC  943  26.499  23.891   7.199
    3AU     AUC  944  26.101  23.022   7.230
    3AU     AUC  945  26.441  23.001   7.224
    3AU    AUSL  946  26.784  23.406   8.095
    3AU    AUSL  947  26.593  23.051   8.101
    3AU     AUL  948  26.673  23.365   8.407
    3AU       S  949  26.910  22.689   8.252
    3AU     LIG  950  26.937  22.261   8.410
    3AU     LIG  951  27.097  21.950   8.722
    3AU     LIG  952  27.344  21.772   9.086
    3AU     LIG  953  27.377  21.658   9.547
    3AU       S  954  27.081  23.101   8.455
    3AU     LIG  955  27.141  23.249   8.885
    3AU     LIG  956  27.201  23.318   9.338
    3AU     LIG  957  27.407  23.183   9.734
    3AU     LIG  958  27.753  23.030  10.029
    3AU    AUSL  959  26.384  23.263   8.253
    3AU    AUSL  960  26.180  23.619   8.268
    3AU     AUL  961  26.364  23.448   8.576
    3AU       S  962  26.716  22.943   8.641
    3AU     LIG  963  26.735  23.035   9.118
    3AU     LIG  964  26.829  23.070   9.586
    3AU     LIG  965  27.018  22.973  10.004
    3AU     LIG  966  27.108  22.849  10.452
    3AU       S  967  25.890  23.492   8.741
    3AU     LIG  968  25.759  23.461   9.196
    3AU     LIG  969  25.681  23.412   9.661
    3AU     LIG  970  25.518  23.456  10.097
    3AU     LIG  971  25.343  23.778  10.409
    3AU    AUSL  972  26.524  23.656   8.229
    3AU    AUSL  973  26.883  23.733   7.975
    3AU     AUL  974  26.912  23.624   8.341
    3AU       S  975  26.544  23.938   8.602
    3AU     LIG  976  26.780  23.961   9.025
    3AU     LIG  977  26.889  23.981   9.498
    3AU     LIG  978  26.871  24.062   9.976
    3AU     LIG  979  26.883  24.172  10.443
    3AU       S  980  27.160  24.051   8.259
    3AU     LIG  981  27.532  24.000   8.499
    3AU     LIG  982  27.864  24.259   8.666
    3AU     LIG  983  28.017  24.515   9.018
    3AU     LIG  984  28.109  24.819   9.355
    3AU    AUSL  985  26.775  23.491   6.885
    3AU    AUSL  986  26.640  23.857   6.886
    3AU     AUL  987  26.996  23.739   6.737
    3AU       S  988  26.870  23.462   6.337
    3AU     LIG  989  27.144  23.320   5.956
    3AU     LIG  990  27.317  23.127   5.560
    3AU     LIG  991  27.443  23.180   5.112
    3AU     LIG  992  27.688  23.042   4.727
    3AU       S  993  27.010  24.259   6.682
    3AU     LIG  994  27.140  24.535   6.319
    3AU     LIG  995  27.409  24.649   5.945
    3AU     LIG  996  27.609  24.883   5.591
    3AU     LIG  997  27.607  25.201   5.247
    3AU    AUSL  998  26.564  23.254   6.775
    3AU    AUSL  999  26.827  23.145   7.013
    3AU     AUL 1000  27.040  23.329   6.829
    3AU       S 1001  27.001  22.864   6.625
    3AU     LIG 1002  27.270  22.643   6.300
    3AU     LIG 1003  27.581  22.286   6.219
    3AU     LIG 1004  27.909  21.993   6.034
    3AU     LIG 1005  28.355  21.865   5.891
    3AU       S 1006  26.813  23.247   6.358
    3AU     LIG 1007  26.866  22.904   6.076
    3AU     LIG 1008  26.867  22.877   5.617
    3AU     LIG 1009  26.992  22.928   5.156
    3AU     LIG 1010  27.155  23.011   4.703
    3AU    AUSL 1011  26.472  23.585   6.716
    3AU    AUSL 1012  26.179  23.294   6.779
    3AU     AUL 1013  26.351  23.204   6.517
    3AU       S 1014  25.937  23.379   6.279
    3AU     LIG 1015  25.971  23.142   5.898
    3AU     LIG 1016  25.691  22.970   5.574
    3AU     LIG 1017  25.487  23.020   5.155
    3AU     LIG 1018  25.265  23.066   4.730
    3AU       S 1019  26.620  23.600   6.315
    3AU     LIG 1020  26.640  23.364   5.878
    3AU     LIG 1021  26.875  23.368   5.453
    3AU     LIG 1022  26.985  23.422   4.985
    3AU     LIG 1023  27.111  23.558   4.544
    3AU    AUSL 1024  25.850  23.568   8.149
    3AU    AUSL 1025  26.050  23.891   8.063
    3AU     AUL 1026  25.992  23.872   8.412
    3AU       S 1027  25.657  23.520   8.614
    3AU     LIG 1028  25.423  23.214   8.884
    3AU     LIG 1029  25.369  23.135   9.348
    3AU     LIG 1030  25.176  23.252   9.764
    3AU     LIG 1031  24.774  23.226  10.015
    3AU       S 1032  25.611  24.194   8.256
    3AU     LIG 1033  25.486  24.285   8.687
    3AU     LIG 1034  25.348  24.586   9.005
    3AU     LIG 1035  25.045  24.866   9.204
    3AU     LIG 1036  24.946  25.110   9.604
    3AU    AUSL 1037  26.033  23.294   8.229
    3AU    AUSL 1038  25.766  23.207   7.979
    3AU     AUL 1039  25.572  23.382   8.145
    3AU       S 1040  25.565  22.919   8.364
    3AU     LIG 1041  25.108  22.807   8.347
    3AU     LIG 1042  24.811  22.481   8.464
    3AU     LIG 1043  24.615  22.194   8.764
    3AU     LIG 1044  24.388  21.851   8.993
    3AU       S 1045  25.860  23.250   8.603
    3AU     LIG 1046  25.878  23.000   8.990
    3AU     LIG 1047  25.837  22.960   9.456
    3AU     LIG 1048  25.572  22.936   9.854
    3AU     LIG 1049  25.402  22.731  10.252
    3AU    AUSL 1050  25.857  23.416   6.832
    3AU    AUSL 1051  25.979  23.043   6.949
    3AU     AUL 1052  26.039  23.026   6.634
    3AU       S 1053  25.705  23.350   6.386
    3AU     LIG 1054  25.475  23.265   5.967
    3AU     LIG 1055  25.204  23.169   5.579
    3AU     LIG 1056  25.010  23.225   5.156
    3AU     LIG 1057  24.719  23.223   4.795
    3AU       S 1058  25.556  22.889   6.622
    3AU     LIG 1059  25.330  22.460   6.422
    3AU     LIG 1060  25.074  22.084   6.223
    3AU     LIG 1061  24.709  21.867   5.979
    3AU     LIG 1062  24.494  21.785   5.550
    3AU    AUSL 1063  26.136  23.643   6.732
    3AU    AUSL 1064  25.724  23.746   7.009
    3AU     AUL 1065  25.802  23.756   6.666
    3AU       S 1066  25.358  23.979   6.763
    3AU     LIG 1067  24.998  24.158   6.560
    3AU     LIG 1068  24.911  24.411   6.186
    3AU     LIG 1069  24.791  24.643   5.798
    3AU     LIG 1070  24.428  24.647   5.494
    3AU       S 1071  26.071  23.598   6.270
    3AU     LIG 1072  25.822  23.634   5.852
    3AU     LIG 1073  25.609  23.466   5.455
    3AU     LIG 1074  25.432  23.517   5.007
    3AU     LIG 1075  25.431  23.794   4.602
    3AU    AUSL 1076  26.999  23.878   7.453
    3AU    AUSL 1077  26.906  23.733   7.092
    3AU     AUL 1078  27.250  23.742   7.114
    3AU       S 1079  27.184  24.194   6.900
    3AU     LIG 1080  27.513  24.268   6.579
    3AU     LIG 1081  27.732  24.331   6.191
    3AU     LIG 1082  27.935  24.633   5.920
    3AU     LIG 1083  28.148  24.643   5.505
    3AU       S 1084  27.522  23.968   7.504
    3AU     LIG 1085  27.987  24.152   7.520
    3AU     LIG 1086  28.456  24.290   7.480
    3AU     LIG 1087  28.885  24.493   7.465
    3AU     LIG 1088  29.072  24.929   7.383
    3AU    AUSL 1089  27.065  23.547   7.352
    3AU    AUSL 1090  27.068  23.269   7.626
    3AU     AUL 1091  27.338  23.315   7.294
    3AU       S 1092  27.569  23.704   7.518
    3AU     LIG 1093  28.027  23.658   7.406
    3AU     LIG 1094  28.456  23.820   7.276
    3AU     LIG 1095  28.898  24.006   7.250
    3AU     LIG 1096  29.343  23.982   7.064
    3AU       S 1097  27.443  22.896   7.694
    3AU     LIG 1098  27.822  22.630   7.826
    3AU     LIG 1099  28.292  22.494   7.769
    3AU     LIG 1100  28.765  22.374   7.665
    3AU     LIG 1101  29.211  22.585   7.636
    3AU    AUSL 1102  27.057  23.608   7.703
    3AU    AUSL 1103  26.786  24.026   7.749
    3AU     AUL 1104  27.097  23.972   7.765
    3AU       S 1105  27.097  24.311   8.138
    3AU     LIG 1106  27.438  24.500   8.425
    3AU     LIG 1107  27.751  24.778   8.660
    3AU     LIG 1108  27.953  25.138   8.912
    3AU     LIG 1109  28.109  25.601   8.892
    3AU       S 1110  27.498  23.659   7.763
    3AU     LIG 1111  27.925  23.799   7.895
    3AU     LIG 1112  28.379  23.880   7.783
    3AU     LIG 1113  28.838  24.048   7.763
    3AU     LIG 1114  29.297  24.122   7.918
    3AU    AUSL 1115  25.738  23.990   7.517
    3AU    AUSL 1116  25.726  23.803   7.931
    3AU     AUL 1117  25.442  24.000   7.710
    3AU       S 1118  25.461  23.943   8.238
    3AU     LIG 1119  25.082  24.065   8.456
    3AU     LIG 1120  24.957  24.392   8.733
    3AU     LIG 1121  24.729  24.435   9.129
    3AU     LIG 1122  24.352  24.360   9.410
    3AU       S 1123  25.601  24.453   7.511
    3AU     LIG 1124  25.086  24.456   7.564
    3AU     LIG 1125  24.628  24.632   7.574
    3AU     LIG 1126  24.265  24.969   7.604
    3AU     LIG 1127  23.825  25.132   7.731
    3AU    AUSL 1128  25.604  23.656   7.309
    3AU    AUSL 1129  25.852  24.057   7.194
    3AU     AUL 1130  25.488  23.970   7.259
    3AU       S 1131  25.200  23.556   6.977
    3AU     LIG 1132  24.907  23.959   7.045
    3AU     LIG 1133  24.467  24.109   6.926
    3AU     LIG 1134  23.983  24.179   6.853
    3AU     LIG 1135  23.528  24.278   6.973
    3AU       S 1136  25.561  24.406   7.002
    3AU     LIG 1137  25.235  24.606   6.704
    3AU     LIG 1138  25.151  24.853   6.295
    3AU     LIG 1139  25.003  25.190   5.973
    3AU     LIG 1140  24.859  25.667   5.881
    3AU    AUSL 1141  25.571  23.658   7.672
    3AU    AUSL 1142  25.517  23.336   7.361
    3AU     AUL 1143  25.303  23.698   7.457
    3AU       S 1144  25.045  23.250   7.431
    3AU     LIG 1145  24.588  23.147   7.350
    3AU     LIG 1146  24.105  23.108   7.304
    3AU     LIG 1147  23.705  23.012   7.107
    3AU     LIG 1148  23.561  22.648   6.858
    3AU       S 1149  25.139  23.665   7.960
    3AU     LIG 1150  24.949  24.113   7.964
    3AU     LIG 1151  24.558  24.329   7.997
    3AU     LIG 1152  24.145  24.194   8.142
    3AU     LIG 1153  23.685  24.178   7.987
    3AU    AUSL 1154  26.910  22.965   7.558
    3AU    AUSL 1155  26.857  23.138   7.892
    3AU     AUL 1156  27.158  23.236   7.911
    3AU       S 1157  27.218  22.694   7.620
    3AU     LIG 1158  27.501  22.339   7.546
    3AU     LIG 1159  27.941  22.186   7.540
    3AU     LIG 1160  28.382  22.026   7.552
    3AU     LIG 1161  28.716  21.708   7.666
    3AU       S 1162  27.108  22.762   8.094
    3AU     LIG 1163  27.392  22.526   8.367
    3AU     LIG 1164  27.518  22.247   8.723
    3AU     LIG 1165  27.804  21.998   8.995
    3AU     LIG 1166  28.139  22.002   9.323
    3AU    AUSL 1167  26.999  23.205   7.302
    3AU    AUSL 1168  26.736  22.864   7.230
    3AU     AUL 1169  27.066  22.909   7.173
    3AU       S 1170  27.459  22.849   7.469
    3AU     LIG 1171  27.862  22.648   7.314
    3AU     LIG 1172  28.302  22.460   7.258
    3AU     LIG 1173  28.761  22.523   7.177
    3AU     LIG 1174  29.220  22.464   7.141
    3AU       S 1175  26.993  22.635   6.755
    3AU     LIG 1176  27.219  22.250   6.629
    3AU     LIG 1177  27.426  21.859   6.470
    3AU     LIG 1178  27.725  21.559   6.256
    3AU     LIG 1179  28.031  21.199   6.170
    3AU    AUSL 1180  25.638  23.032   7.532
    3AU    AUSL 1181  25.682  23.223   7.067
    3AU     AUL 1182  25.443  22.979   7.262
    3AU       S 1183  25.404  23.097   6.753
    3AU     LIG 1184  25.010  22.824   6.594
    3AU     LIG 1185  24.773  22.411   6.477
    3AU     LIG 1186  24.403  22.192   6.236
    3AU     LIG 1187  24.146  21.947   5.903
    3AU       S 1188  25.056  23.030   7.579
    3AU     LIG 1189  24.680  22.790   7.702
    3AU     LIG 1190  24.270  22.572   7.605
    3AU     LIG 1191  23.958  22.342   7.865
    3AU     LIG 1192  23.612  22.035   7.897
    3AU    AUSL 1193  25.551  23.324   7.721
    3AU    AUSL 1194  25.811  22.894   7.811
    3AU     AUL 1195  25.478  22.999   7.856
    3AU       S 1196  25.580  22.662   8.215
    3AU     LIG 1197  25.248  22.319   8.218
    3AU     LIG 1198  24.892  22.002   8.284
    3AU     LIG 1199  24.603  21.728   8.531
    3AU     LIG 1200  24.248  21.444   8.679
    3AU       S 1201  25.070  23.266   7.680
    3AU     LIG 1202  24.635  23.293   7.849
    3AU     LIG 1203  24.227  23.045   7.794
    3AU     LIG 1204  23.807  22.817   7.658
    3AU     LIG 1205  23.451  22.540   7.849
    3AU    AUSL 1206  26.310  24.111   7.924
    3AU    AUSL 1207  25.915  24.087   7.812
    3AU     AUL 1208  26.122  24.172   8.210
    3AU       S 1209  25.665  24.387   8.015
    3AU     LIG 1210  25.259  24.546   8.298
    3AU     LIG 1211  25.111  24.880   8.634
    3AU     LIG 1212  24.947  25.337   8.730
    3AU     LIG 1213  24.761  25.798   8.699
    3AU       S 1214  26.225  24.617   8.018
    3AU     LIG 1215  26.410  24.867   8.363
    3AU     LIG 1216  26.571  25.279   8.512
    3AU     LIG 1217  26.568  25.745   8.598
    3AU     LIG 1218  26.525  26.148   8.863
    3AU    AUSL 1219  26.153  24.235   7.615
    3AU    AUSL 1220  26.511  24.209   7.279
    3AU     AUL 1221  26.351  24.487   7.430
    3AU       S 1222  26.048  24.650   7.808
    3AU     LIG 1223  26.113  25.119   8.012
    3AU     LIG 1224  26.307  25.550   8.156
    3AU     LIG 1225  26.299  26.031   8.253
    3AU     LIG 1226  25.971  26.321   8.430
    3AU       S 1227  26.619  24.651   7.026
    3AU     LIG 1228  26.901  25.020   6.940
    3AU     LIG 1229  26.894  25.487   6.821
    3AU     LIG 1230  26.932  25.983   6.861
    3AU     LIG 1231  26.958  26.477   6.833
    3AU    AUSL 1232  26.512  24.216   7.633
    3AU    AUSL 1233  26.598  23.943   8.049
    3AU     AUL 1234  26.629  24.292   7.945
    3AU       S 1235  26.898  24.165   8.354
    3AU     LIG 1236  27.131  24.231   8.745
    3AU     LIG 1237  27.479  24.441   8.956
    3AU     LIG 1238  27.623  24.824   9.166
    3AU     LIG 1239  27.731  25.164   9.464
    3AU       S 1240  26.419  24.741   7.851
    3AU     LIG 1241  26.635  25.163   8.001
    3AU     LIG 1242  26.831  25.587   8.166
    3AU     LIG 1243  27.048  26.026   8.215
    3AU     LIG 1244  27.101  26.478   8.369
    3AU    AUSL 1245  26.317  22.842   7.941
    3AU    AUSL 1246  26.661  22.854   7.815
    3AU     AUL 1247  26.416  22.791   8.227
    3AU       S 1248  26.469  22.322   8.029
    3AU     LIG 1249  26.271  21.999   8.296
    3AU     LIG 1250  26.058  21.591   8.374
    3AU     LIG 1251  26.030  21.121   8.434
    3AU     LIG 1252  25.914  20.660   8.540
    3AU       S 1253  26.894  22.583   7.979
    3AU     LIG 1254  27.195  22.266   7.961
    3AU     LIG 1255  27.388  22.004   8.279
    3AU     LIG 1256  27.560  21.735   8.610
    3AU     LIG 1257  27.626  21.350   8.849
    3AU    AUSL 1258  26.098  22.776   7.671
    3AU    AUSL 1259  26.035  22.987   8.082
    3AU     AUL 1260  26.029  22.625   7.987
    3AU       S 1261  26.287  22.200   7.809
    3AU     LIG 1262  26.070  21.757   7.871
    3AU     LIG 1263  25.890  21.305   7.962
    3AU     LIG 1264  25.751  20.847   8.080
    3AU     LIG 1265  25.597  20.400   8.165
    3AU       S 1266  25.800  22.790   8.426
    3AU     LIG 1267  25.426  22.534   8.671
    3AU     LIG 1268  25.141  22.154   8.710
    3AU     LIG 1269  24.916  21.815   8.947
    3AU     LIG 1270  24.724  21.681   9.356
    3AU    AUSL 1271  26.415  22.677   7.647
    3AU    AUSL 1272  26.063  22.714   7.327
    3AU     AUL 1273  25.962  22.520   7.619
    3AU       S 1274  26.063  22.244   7.206
    3AU     LIG 1275  25.752  21.908   7.074
    3AU     LIG 1276  25.673  21.433   7.087
    3AU     LIG 1277  25.663  21.004   6.877
    3AU     LIG 1278  25.517  20.562   6.748
    3AU       S 1279  26.548  22.299   7.741
    3AU     LIG 1280  26.581  21.808   7.925
    3AU     LIG 1281  26.403  21.347   8.076
    3AU     LIG 1282  26.410  20.846   8.211
    3AU     LIG 1283  26.631  20.391   8.297
    3AU    AUSL 1284  26.332  24.059   6.983
    3AU    AUSL 1285  26.792  24.032   7.223
    3AU     AUL 1286  26.611  24.155   6.936
    3AU       S 1287  26.418  24.565   6.745
    3AU     LIG 1288  26.697  24.853   6.503
    3AU     LIG 1289  26.665  25.320   6.365
    3AU     LIG 1290  26.609  25.663   6.003
    3AU     LIG 1291  26.588  26.072   5.716
    3AU       S 1292  27.064  24.355   7.077
    3AU     LIG 1293  27.286  24.689   6.785
    3AU     LIG 1294  27.605  24.783   6.418
    3AU     LIG 1295  27.935  25.090   6.210
    3AU     LIG 1296  28.188  25.529   6.183
    3AU    AUSL 1297  26.156  24.218   7.261
    3AU    AUSL 1298  26.021  23.915   6.915
    3AU     AUL 1299  26.043  24.253   6.918
    3AU       S 1300  26.282  24.701   6.983
    3AU     LIG 1301  26.417  25.152   6.822
    3AU     LIG 1302  26.406  25.638   6.727
    3AU     LIG 1303  26.204  26.090   6.730
    3AU     LIG 1304  25.831  26.384   6.660
    3AU       S 1305  25.576  24.213   6.725
    3AU     LIG 1306  25.421  24.356   6.298
    3AU     LIG 1307  25.313  24.580   5.889
    3AU     LIG 1308  25.178  24.894   5.561
    3AU     LIG 1309  24.930  25.146   5.246
    3AU    AUSL 1310  26.246  22.807   7.030
    3AU    AUSL 1311  25.794  22.915   7.225
    3AU     AUL 1312  25.922  22.687   6.970
    3AU       S 1313  25.449  22.767   6.818
    3AU     LIG 1314  25.349  22.328   6.917
    3AU     LIG 1315  25.049  22.034   6.742
    3AU     LIG 1316  24.687  21.861   6.508
    3AU     LIG 1317  24.296  21.676   6.319
    3AU       S 1318  26.217  22.272   6.980
    3AU     LIG 1319  26.079  21.987   6.681
    3AU     LIG 1320  25.920  21.571   6.656
    3AU     LIG 1321  25.994  21.140   6.507
    3AU     LIG 1322  25.985  20.804   6.185
    3AU    AUSL 1323  26.429  22.707   7.316
    3AU    AUSL 1324  26.538  22.954   6.930
    3AU     AUL 1325  26.584  22.608   7.034
    3AU       S 1326  26.346  22.225   7.281
    3AU     LIG 1327  26.238  21.750   7.122
    3AU     LIG 1328  26.156  21.268   6.999
    3AU     LIG 1329  26.150  20.793   6.878
    3AU     LIG 1330  26.364  20.353   6.850
    3AU       S 1331  26.735  22.779   6.572
    3AU     LIG 1332  26.807  22.422   6.316
    3AU     LIG 1333  27.098  22.126   6.141
    3AU     LIG 1334  27.410  21.850   5.950
    3AU     LIG 1335  27.497  21.519   5.637
    4AU     AUC 1336  14.451  44.604   7.501
    4AU     AUC 1337  14.721  44.584   7.340
    4AU     AUC 1338  14.718  44.593   7.665
    4AU     AUC 1339  14.182  44.616   7.338
    4AU     AUC 1340  14.186  44.623   7.670
    4AU     AUC 1341  14.304  44.882   7.493
    4AU     AUC 1342  14.634  44.864   7.493
    4AU     AUC 1343  14.267  44.345   7.506
    4AU     AUC 1344  14.598  44.324   7.504
    4AU     AUC 1345  14.440  44.445   7.770
    4AU     AUC 1346  14.464  44.774   7.765
    4AU     AUC 1347  14.442  44.430   7.239
    4AU     AUC 1348  14.458  44.762   7.228
    4AU     AUC 1349  14.988  44.566   7.192
    4AU     AUC 1350  14.996  44.570   7.500
    4AU     AUC 1351  14.970  44.578   7.819
    4AU     AUC 1352  13.926  44.623   7.176
    4AU     AUC 1353  13.908  44.631   7.516
    4AU     AUC 1354  13.935  44.646   7.840
    4AU     AUC 1355  14.169   0.154   7.488
    4AU     AUC 1356  14.483   0.154   7.471
    4AU     AUC 1357  14.813   0.115   7.482
    4AU     AUC 1358  14.086  44.099   7.513
    4AU     AUC 1359  14.415  44.059   7.499
    4AU     AUC 1360  14.740  44.049   7.516
    4AU     AUC 1361  14.426  44.287   8.030
    4AU     AUC 1362  14.449  44.607   8.055
    4AU     AUC 1363  14.479  44.930   8.024
    4AU     AUC 1364  14.449  44.263   6.987
    4AU     AUC 1365  14.469  44.587   6.961
    4AU     AUC 1366  14.467  44.901   6.956
    4AU     AUC 1367  14.706  44.424   7.946
    4AU     AUC 1368  14.738  44.764   7.940
    4AU     AUC 1369  14.726  44.407   7.076
    4AU     AUC 1370  14.734  44.744   7.064
    4AU     AUC 1371  14.173  44.461   7.953
    4AU     AUC 1372  14.195  44.790   7.946
    4AU     AUC 1373  14.171  44.443   7.069
    4AU     AUC 1374  14.179  44.771   7.046
    4AU     AUC 1375  14.919  44.847   7.344
    4AU     AUC 1376  14.911  44.865   7.666
    4AU     AUC 1377  14.028  44.905   7.327
    4AU     AUC 1378  14.032  44.913   7.674
    4AU     AUC 1379  14.883  44.292   7.345
    4AU     AUC 1380  14.865  44.302   7.669
    4AU     AUC 1381  13.980  44.354   7.349
    4AU     AUC 1382  13.996  44.352   7.689
    4AU     AUC 1383  14.315   0.058   7.759
    4AU     AUC 1384  14.647   0.047   7.757
    4AU     AUC 1385  14.258  44.180   7.784
    4AU     AUC 1386  14.589  44.159   7.776
    4AU     AUC 1387  14.302   0.048   7.206
    4AU     AUC 1388  14.650   0.025   7.206
    4AU     AUC 1389  14.250  44.161   7.235
    4AU     AUC 1390  14.592  44.140   7.234
    4AU    AUSL 1391  14.928  44.537   8.106
    4AU    AUSL 1392  14.735  44.181   8.109
    4AU     AUL 1393  14.826  44.498   8.419
    4AU       S 1394  15.029  43.799   8.246
    4AU     LIG 1395  14.907  43.439   8.464
    4AU     LIG 1396  15.140  43.165   8.710
    4AU     LIG 1397  15.383  43.002   9.079
    4AU     LIG 1398  15.717  42.788   9.326
    4AU       S 1399  15.215  44.204   8.450
    4AU     LIG 1400  15.302  44.292   8.893
    4AU     LIG 1401  15.399  44.239   9.345
    4AU     LIG 1402  15.643  44.105   9.730
    4AU     LIG 1403  16.031  44.158  10.001
    4AU    AUSL 1404  14.536  44.404   8.260
    4AU    AUSL 1405  14.333  44.758   8.275
    4AU     AUL 1406  14.518  44.587   8.583
    4AU       S 1407  14.852  44.064   8.637
    4AU     LIG 1408  14.881  44.091   9.110
    4AU     LIG 1409  14.993  43.998   9.555
    4AU     LIG 1410  15.075  43.787   9.960
    4AU     LIG 1411  15.213  43.770  10.402
    4AU       S 1412  14.044  44.623   8.744
    4AU     LIG 1413  13.974  44.607   9.189
    4AU     LIG 1414  13.808  44.520   9.602
    4AU     LIG 1415  13.596  44.586   9.999
    4AU     LIG 1416  13.465  44.957  10.267
    4AU    AUSL 1417  14.679  44.795   8.238
    4AU    AUSL 1418  15.025  44.865   7.991
    4AU     AUL 1419  15.072  44.752   8.350
    4AU       S 1420  14.702   0.073   8.609
    4AU     LIG 1421  14.887   0.202   9.030
    4AU     LIG 1422  14.963   0.370   9.475
    4AU     LIG 1423  14.995   0.412   9.953
    4AU     LIG 1424  15.173   0.428  10.393
    4AU       S 1425  15.264   0.214   8.290
    4AU     LIG 1426  15.587   0.160   8.602
    4AU     LIG 1427  15.968   0.377   8.714
    4AU     LIG 1428  16.175   0.669   9.005
    4AU     LIG 1429  16.312   0.933   9.364
    4AU    AUSL 1430  14.926  44.623   6.895
    4AU    AUSL 1431  14.776  44.983   6.887
    4AU     AUL 1432  15.118  44.886   6.731
    4AU       S 1433  15.007  44.579   6.347
    4AU     LIG 1434  15.243  44.472   5.947
    4AU     LIG 1435  15.422  44.236   5.579
    4AU     LIG 1436  15.594  44.155   5.155
    4AU     LIG 1437  15.895  44.155   4.799
    4AU       S 1438  15.153   0.406   6.676
    4AU     LIG 1439  15.329   0.661   6.296
    4AU     LIG 1440  15.587   0.894   5.968
    4AU     LIG 1441  15.804   1.022   5.576
    4AU     LIG 1442  15.703   1.197   5.144
    4AU    AUSL 1443  14.721  44.380   6.791
    4AU    AUSL 1444  14.991  44.277   7.032
    4AU     AUL 1445  15.193  44.469   6.833
    4AU       S 1446  15.170  44.000   6.646
    4AU     LIG 1447  15.432  43.752   6.330
    4AU     LIG 1448  15.647  43.336   6.218
    4AU     LIG 1449  15.978  43.080   5.998
    4AU     LIG 1450  16.250  43.000   5.624
    4AU       S 1451  14.934  44.366   6.374
    4AU     LIG 1452  15.034  44.030   6.101
    4AU     LIG 1453  14.990  43.959   5.656
    4AU     LIG 1454  15.094  44.018   5.203
    4AU     LIG 1455  15.243  44.106   4.755
    4AU    AUSL 1456  14.612  44.698   6.730
    4AU    AUSL 1457  14.329  44.442   6.783
    4AU     AUL 1458  14.494  44.263   6.579
    4AU       S 1459  14.256  44.567   6.253
    4AU     LIG 1460  14.205  44.316   5.860
    4AU     LIG 1461  13.941  44.059   5.557
    4AU     LIG 1462  13.715  43.988   5.145
    4AU     LIG 1463  13.608  43.772   4.732
    4AU       S 1464  14.747  44.689   6.333
    4AU     LIG 1465  14.726  44.457   5.910
    4AU     LIG 1466  14.961  44.453   5.492
    4AU     LIG 1467  15.201  44.515   5.085
    4AU     LIG 1468  15.217  44.692   4.640
    4AU    AUSL 1469  14.001  44.709   8.155
    4AU    AUSL 1470  14.202   0.029   8.073
    4AU     AUL 1471  14.143   0.006   8.424
    4AU       S 1472  13.810  44.648   8.631
    4AU     LIG 1473  13.603  44.347   8.949
    4AU     LIG 1474  13.403  44.282   9.383
    4AU     LIG 1475  13.192  44.313   9.809
    4AU     LIG 1476  12.803  44.332  10.077
    4AU       S 1477  13.784   0.349   8.269
    4AU     LIG 1478  13.732   0.482   8.720
    4AU     LIG 1479  13.651   0.755   9.087
    4AU     LIG 1480  13.385   1.066   9.293
    4AU     LIG 1481  13.087   1.118   9.650
    4AU    AUSL 1482  14.183  44.434   8.236
    4AU    AUSL 1483  13.915  44.352   7.985
    4AU     AUL 1484  13.725  44.523   8.159
    4AU       S 1485  13.717  44.059   8.373
    4AU     LIG 1486  13.264  43.952   8.391
    4AU     LIG 1487  12.960  43.626   8.477
    4AU     LIG 1488  12.754  43.352   8.780
    4AU     LIG 1489  12.557  43.058   9.088
    4AU       S 1490  14.015  44.387   8.609
    4AU     LIG 1491  14.071  44.137   8.976
    4AU     LIG 1492  13.867  44.057   9.379
    4AU     LIG 1493  13.651  44.067   9.800
    4AU     LIG 1494  13.501  43.901  10.206
    4AU    AUSL 1495  14.004  44.573   6.838
    4AU    AUSL 1496  14.134  44.176   6.949
    4AU     AUL 1497  14.116  44.224   6.618
    4AU       S 1498  13.962  44.577   6.291
    4AU     LIG 1499  13.700  44.407   5.925
    4AU     LIG 1500  13.470  44.278   5.518
    4AU     LIG 1501  13.222  44.187   5.121
    4AU     LIG 1502  12.856  44.322   4.845
    4AU       S 1503  13.686  43.982   6.670
    4AU     LIG 1504  13.508  43.615   6.416
    4AU     LIG 1505  13.257  43.237   6.297
    4AU     LIG 1506  13.021  43.030   5.956
    4AU     LIG 1507  13.039  42.978   5.477
    4AU    AUSL 1508  14.284  44.793   6.745
    4AU    AUSL 1509  13.873  44.897   7.023
    4AU     AUL 1510  13.923  44.882   6.681
    4AU       S 1511  13.503   0.151   6.771
    4AU     LIG 1512  13.280   0.397   6.413
    4AU     LIG 1513  13.160   0.573   5.975
    4AU     LIG 1514  12.894   0.783   5.638
    4AU     LIG 1515  12.521   0.813   5.344
    4AU       S 1516  14.260  44.829   6.299
    4AU     LIG 1517  14.057  44.814   5.850
    4AU     LIG 1518  13.903  44.570   5.478
    4AU     LIG 1519  13.661  44.509   5.079
    4AU     LIG 1520  13.622  44.715   4.648
    4AU    AUSL 1521  15.149   0.019   7.451
    4AU    AUSL 1522  15.038  44.868   7.107
    4AU     AUL 1523  15.344  44.841   7.060
    4AU       S 1524  15.338   0.324   6.911
    4AU     LIG 1525  15.659   0.375   6.578
    4AU     LIG 1526  15.811   0.464   6.155
    4AU     LIG 1527  16.089   0.764   5.958
    4AU     LIG 1528  16.350   1.076   5.752
    4AU       S 1529  15.565   0.201   7.379
    4AU     LIG 1530  16.060   0.336   7.421
    4AU     LIG 1531  16.552   0.367   7.457
    4AU     LIG 1532  16.972   0.612   7.468
    4AU     LIG 1533  17.157   1.052   7.497
    4AU    AUSL 1534  15.249  44.687   7.367
    4AU    AUSL 1535  15.181  44.416   7.647
    4AU     AUL 1536  15.484  44.587   7.725
    4AU       S 1537  15.740  44.847   7.356
    4AU     LIG 1538  16.208  44.873   7.251
    4AU     LIG 1539  16.668  44.963   7.159
    4AU     LIG 1540  17.021   0.264   7.097
    4AU     LIG 1541  17.449   0.309   6.899
    4AU       S 1542  15.646  44.111   7.563
    4AU     LIG 1543  16.093  43.908   7.646
    4AU     LIG 1544  16.531  43.705   7.692
    4AU     LIG 1545  16.949  43.591   7.870
    4AU     LIG 1546  17.421  43.510   7.876
    4AU    AUSL 1547  15.177  44.762   7.695
    4AU    AUSL 1548  14.958   0.164   7.755
    4AU     AUL 1549  15.289   0.049   7.810
    4AU       S 1550  15.249   0.454   8.114
    4AU     LIG 1551  15.579   0.634   8.410
    4AU     LIG 1552  15.897   0.893   8.636
    4AU     LIG 1553  16.118   1.215   8.892
    4AU     LIG 1554  16.191   1.688   8.821
    4AU       S 1555  15.702   0.006   7.543
    4AU     LIG 1556  16.102  44.932   7.751
    4AU     LIG 1557  16.548  44.881   7.656
    4AU     LIG 1558  16.968   0.057   7.582
    4AU     LIG 1559  17.197   0.338   7.850
    4AU    AUSL 1560  13.888   0.136   7.529
    4AU    AUSL 1561  13.876  44.949   7.940
    4AU     AUL 1562  13.586   0.157   7.726
    4AU       S 1563  13.620   0.095   8.251
    4AU     LIG 1564  13.299   0.339   8.486
    4AU     LIG 1565  13.212   0.572   8.886
    4AU     LIG 1566  13.025   0.701   9.307
    4AU     LIG 1567  12.713   0.751   9.668
    4AU       S 1568  13.775   0.603   7.521
    4AU     LIG 1569  13.300   0.725   7.413
    4AU     LIG 1570  12.807   0.844   7.450
    4AU     LIG 1571  12.354   0.992   7.583
    4AU     LIG 1572  11.956   1.276   7.588
    4AU    AUSL 1573  13.754  44.807   7.321
    4AU    AUSL 1574  14.003   0.201   7.206
    4AU     AUL 1575  13.636   0.121   7.268
    4AU       S 1576  13.373  44.692   6.968
    4AU     LIG 1577  12.941  44.876   7.045
    4AU     LIG 1578  12.627   0.194   6.920
    4AU     LIG 1579  12.171   0.194   6.867
    4AU     LIG 1580  11.725   0.283   6.952
    4AU       S 1581  13.723   0.558   7.014
    4AU     LIG 1582  13.447   0.788   6.716
    4AU     LIG 1583  13.280   0.948   6.305
    4AU     LIG 1584  12.906   1.214   6.143
    4AU     LIG 1585  12.595   1.577   6.266
    4AU    AUSL 1586  13.715  44.807   7.681
    4AU    AUSL 1587  13.668  44.486   7.367
    4AU     AUL 1588  13.442  44.849   7.455
    4AU       S 1589  13.194  44.404   7.452
    4AU     LIG 1590  12.768  44.489   7.358
    4AU     LIG 1591  12.432  44.245   7.178
    4AU     LIG 1592  12.007  44.064   7.159
    4AU     LIG 1593  11.613  44.279   7.250
    4AU       S 1594  13.302  44.800   7.971
    4AU     LIG 1595  12.847  44.903   7.863
    4AU     LIG 1596  12.418   0.074   8.027
    4AU     LIG 1597  12.106   0.430   8.047
    4AU     LIG 1598  11.692   0.565   7.861
    4AU    AUSL 1599  15.069  44.096   7.565
    4AU    AUSL 1600  15.004  44.266   7.911
    4AU     AUL 1601  15.327  44.301   7.913
    4AU       S 1602  15.470  43.900   7.610
    4AU     LIG 1603  15.757  43.553   7.495
    4AU     LIG 1604  16.197  43.374   7.477
    4AU     LIG 1605  16.661  43.297   7.349
    4AU     LIG 1606  17.040  43.032   7.127
    4AU       S 1607  15.242  43.841   8.095
    4AU     LIG 1608  15.421  43.521   8.389
    4AU     LIG 1609  15.634  43.301   8.709
    4AU     LIG 1610  15.898  43.163   9.025
    4AU     LIG 1611  16.300  43.105   9.230
    4AU    AUSL 1612  15.189  44.354   7.305
    4AU    AUSL 1613  14.881  44.003   7.246
    4AU     AUL 1614  15.194  44.002   7.202
    4AU       S 1615  15.624  44.225   7.337
    4AU     LIG 1616  15.935  43.914   7.162
    4AU     LIG 1617  16.386  43.763   7.199
    4AU     LIG 1618  16.860  43.780   7.285
    4AU     LIG 1619  17.344  43.810   7.239
    4AU       S 1620  15.147  43.762   6.763
    4AU     LIG 1621  15.320  43.345   6.639
    4AU     LIG 1622  15.498  42.927   6.519
    4AU     LIG 1623  15.779  42.670   6.250
    4AU     LIG 1624  16.185  42.567   6.023
    4AU    AUSL 1625  13.785  44.176   7.538
    4AU    AUSL 1626  13.838  44.364   7.070
    4AU     AUL 1627  13.592  44.143   7.267
    4AU       S 1628  13.557  44.216   6.760
    4AU     LIG 1629  13.168  43.967   6.607
    4AU     LIG 1630  12.935  43.592   6.473
    4AU     LIG 1631  12.699  43.396   6.132
    4AU     LIG 1632  12.470  43.443   5.724
    4AU       S 1633  13.204  44.168   7.583
    4AU     LIG 1634  12.778  43.993   7.495
    4AU     LIG 1635  12.335  43.803   7.464
    4AU     LIG 1636  11.954  43.549   7.608
    4AU     LIG 1637  11.867  43.104   7.804
    4AU    AUSL 1638  13.702  44.470   7.726
    4AU    AUSL 1639  13.956  44.038   7.818
    4AU     AUL 1640  13.625  44.147   7.865
    4AU       S 1641  13.727  43.809   8.224
    4AU     LIG 1642  13.401  43.471   8.230
    4AU     LIG 1643  13.052  43.155   8.277
    4AU     LIG 1644  12.766  42.898   8.540
    4AU     LIG 1645  12.482  42.631   8.798
    4AU       S 1646  13.221  44.412   7.685
    4AU     LIG 1647  12.795  44.384   7.854
    4AU     LIG 1648  12.381  44.237   7.723
    4AU     LIG 1649  11.944  44.094   7.684
    4AU     LIG 1650  11.497  44.140   7.757
    4AU    AUSL 1651  14.460   0.249   7.928
    4AU    AUSL 1652  14.075   0.228   7.823
    4AU     AUL 1653  14.296   0.296   8.227
    4AU       S 1654  13.847   0.532   8.028
    4AU     LIG 1655  13.549   0.788   8.344
    4AU     LIG 1656  13.391   1.035   8.734
    4AU     LIG 1657  13.194   1.424   8.950
    4AU     LIG 1658  12.964   1.857   9.000
    4AU       S 1659  14.351   0.742   8.021
    4AU     LIG 1660  14.551   0.941   8.377
    4AU     LIG 1661  14.591   1.367   8.508
    4AU     LIG 1662  14.615   1.788   8.678
    4AU     LIG 1663  14.642   1.991   9.101
    4AU    AUSL 1664  14.310   0.374   7.619
    4AU    AUSL 1665  14.661   0.342   7.283
    4AU     AUL 1666  14.525   0.622   7.443
    4AU       S 1667  14.201   0.798   7.797
    4AU     LIG 1668  14.243   1.239   8.069
    4AU     LIG 1669  14.285   1.697   8.240
    4AU     LIG 1670  14.024   2.109   8.339
    4AU     LIG 1671  13.970   2.513   8.601
    4AU       S 1672  14.772   0.767   7.023
    4AU     LIG 1673  15.072   1.091   6.986
    4AU     LIG 1674  15.082   1.506   6.796
    4AU     LIG 1675  15.151   1.970   6.830
    4AU     LIG 1676  15.388   2.365   6.974
    4AU    AUSL 1677  14.669   0.344   7.639
    4AU    AUSL 1678  14.748   0.083   8.052
    4AU     AUL 1679  14.777   0.432   7.939
    4AU       S 1680  15.033   0.319   8.357
    4AU     LIG 1681  15.214   0.487   8.744
    4AU     LIG 1682  15.596   0.634   8.961
    4AU     LIG 1683  15.808   0.956   9.231
    4AU     LIG 1684  15.882   1.088   9.679
    4AU       S 1685  14.551   0.876   7.866
    4AU     LIG 1686  14.758   1.278   8.027
    4AU     LIG 1687  14.873   1.708   8.220
    4AU     LIG 1688  15.196   2.074   8.308
    4AU     LIG 1689  15.363   2.513   8.438
    4AU    AUSL 1690  14.461  43.983   7.944
    4AU    AUSL 1691  14.806  43.990   7.818
    4AU     AUL 1692  14.545  43.929   8.228
    4AU       S 1693  14.618  43.462   8.032
    4AU     LIG 1694  14.552  43.079   8.272
    4AU     LIG 1695  14.490  42.611   8.303
    4AU     LIG 1696  14.431  42.170   8.476
    4AU     LIG 1697  14.459  41.958   8.884
    4AU       S 1698  15.055  43.700   7.955
    4AU     LIG 1699  15.145  43.244   8.061
    4AU     LIG 1700  15.453  42.985   8.334
    4AU     LIG 1701  15.673  42.783   8.715
    4AU     LIG 1702  16.070  42.680   8.955
    4AU    AUSL 1703  14.240  43.917   7.677
    4AU    AUSL 1704  14.181  44.128   8.087
    4AU     AUL 1705  14.174  43.766   7.993
    4AU       S 1706  14.426  43.340   7.817
    4AU     LIG 1707  14.289  42.869   7.855
    4AU     LIG 1708  14.203  42.396   7.922
    4AU     LIG 1709  14.066  42.000   8.141
    4AU     LIG 1710  13.850  41.613   8.350
    4AU       S 1711  13.952  43.929   8.435
    4AU     LIG 1712  13.594  43.663   8.684
    4AU     LIG 1713  13.283  43.298   8.718
    4AU     LIG 1714  13.057  42.973   8.966
    4AU     LIG 1715  12.947  42.832   9.396
    4AU    AUSL 1716  14.557  43.816   7.653
    4AU    AUSL 1717  14.213  43.855   7.334
    4AU     AUL 1718  14.101  43.663   7.625
    4AU       S 1719  14.247  43.390   7.227
    4AU     LIG 1720  14.016  43.024   7.151
    4AU     LIG 1721  14.074  42.589   7.038
    4AU     LIG 1722  14.134  42.155   6.868
    4AU     LIG 1723  13.955  41.701   6.921
    4AU       S 1724  14.682  43.447   7.747
    4AU     LIG 1725  14.776  42.985   7.821
    4AU     LIG 1726  14.699  42.516   7.851
    4AU     LIG 1727  14.604  42.068   8.000
    4AU     LIG 1728  14.856  41.773   8.264
    4AU    AUSL 1729  14.482   0.194   6.990
    4AU    AUSL 1730  14.945   0.174   7.228
    4AU     AUL 1731  14.771   0.272   6.941
    4AU       S 1732  14.583   0.682   6.743
    4AU     LIG 1733  14.925   0.914   6.527
    4AU     LIG 1734  14.886   1.350   6.339
    4AU     LIG 1735  14.761   1.714   6.052
    4AU     LIG 1736  14.780   2.042   5.694
    4AU       S 1737  15.217   0.494   7.074
    4AU     LIG 1738  15.450   0.811   6.775
    4AU     LIG 1739  15.785   0.897   6.441
    4AU     LIG 1740  15.987   1.232   6.156
    4AU     LIG 1741  16.155   1.685   6.204
    4AU    AUSL 1742  14.310   0.359   7.269
    4AU    AUSL 1743  14.166   0.062   6.920
    4AU     AUL 1744  14.198   0.395   6.930
    4AU       S 1745  14.449   0.829   6.991
    4AU     LIG 1746  14.614   1.227   6.790
    4AU     LIG 1747  14.595   1.680   6.674
    4AU     LIG 1748  14.278   2.041   6.715
    4AU     LIG 1749  14.180   2.460   6.548
    4AU       S 1750  13.743   0.364   6.717
    4AU     LIG 1751  13.726   0.622   6.308
    4AU     LIG 1752  13.605   0.818   5.892
    4AU     LIG 1753  13.372   0.914   5.483
    4AU     LIG 1754  13.014   1.130   5.246
    4AU    AUSL 1755  14.400  43.944   7.035
    4AU    AUSL 1756  13.942  44.053   7.231
    4AU     AUL 1757  14.078  43.820   6.979
    4AU       S 1758  13.586  43.861   6.866
    4AU     LIG 1759  13.279  43.503   6.860
    4AU     LIG 1760  13.000  43.143   6.731
    4AU     LIG 1761  12.687  42.964   6.417
    4AU     LIG 1762  12.223  42.803   6.304
    4AU       S 1763  14.373  43.403   6.981
    4AU     LIG 1764  14.414  42.961   6.832
    4AU     LIG 1765  14.372  42.548   6.612
    4AU     LIG 1766  14.425  42.171   6.359
    4AU     LIG 1767  14.498  42.015   5.918
    4AU    AUSL 1768  14.577  43.846   7.323
    4AU    AUSL 1769  14.698  44.084   6.944
    4AU     AUL 1770  14.739  43.743   7.046
    4AU       S 1771  14.504  43.368   7.294
    4AU     LIG 1772  14.498  42.903   7.349
    4AU     LIG 1773  14.582  42.520   7.083
    4AU     LIG 1774  14.672  42.150   6.815
    4AU     LIG 1775  14.838  41.691   6.904
    4AU       S 1776  14.910  43.898   6.586
    4AU     LIG 1777  14.968  43.537   6.305
    4AU     LIG 1778  15.170  43.135   6.173
    4AU     LIG 1779  15.486  42.921   5.911
    4AU     LIG 1780  15.824  42.691   5.671
    5AU     AUC 1781   8.181  17.029   7.497
    5AU     AUC 1782   8.450  17.017   7.334
    5AU     AUC 1783   8.450  17.019   7.661
    5AU     AUC 1784   7.912  17.038   7.335
    5AU     AUC 1785   7.916  17.042   7.666
    5AU     AUC 1786   8.032  17.303   7.491
    5AU     AUC 1787   8.363  17.291   7.494
    5AU     AUC 1788   7.999  16.767   7.501
    5AU     AUC 1789   8.330  16.751   7.496
    5AU     AUC 1790   8.173  16.866   7.765
    5AU     AUC 1791   8.194  17.194   7.764
    5AU     AUC 1792   8.173  16.858   7.233
    5AU     AUC 1793   8.187  17.188   7.225
    5AU     AUC 1794   8.708  17.011   7.180
    5AU     AUC 1795   8.729  17.009   7.491
    5AU     AUC 1796   8.705  17.004   7.812
    5AU     AUC 1797   7.654  17.041   7.173
    5AU     AUC 1798   7.637  17.049   7.512
    5AU     AUC 1799   7.665  17.061   7.837
    5AU     AUC 1800   7.894  17.572   7.487
    5AU     AUC 1801   8.209  17.578   7.475
    5AU     AUC 1802   8.536  17.546   7.496
    5AU     AUC 1803   7.821  16.519   7.505
    5AU     AUC 1804   8.151  16.482   7.489
    5AU     AUC 1805   8.473  16.475   7.501
    5AU     AUC 1806   8.160  16.704   8.024
    5AU     AUC 1807   8.180  17.024   8.052
    5AU     AUC 1808   8.206  17.347   8.024
    5AU     AUC 1809   8.177  16.694   6.979
    5AU     AUC 1810   8.196  17.017   6.952
    5AU     AUC 1811   8.196  17.329   6.951
    5AU     AUC 1812   8.440  16.846   7.940
    5AU     AUC 1813   8.468  17.186   7.939
    5AU     AUC 1814   8.450  16.845   7.065
    5AU     AUC 1815   8.460  17.183   7.055
    5AU     AUC 1816   7.905  16.878   7.949
    5AU     AUC 1817   7.924  17.206   7.944
    5AU     AUC 1818   7.900  16.867   7.066
    5AU     AUC 1819   7.908  17.191   7.043
    5AU     AUC 1820   8.645  17.290   7.343
    5AU     AUC 1821   8.646  17.290   7.672
    5AU     AUC 1822   7.756  17.323   7.324
    5AU     AUC 1823   7.760  17.330   7.672
    5AU     AUC 1824   8.610  16.726   7.333
    5AU     AUC 1825   8.594  16.728   7.661
    5AU     AUC 1826   7.711  16.774   7.344
    5AU     AUC 1827   7.728  16.770   7.683
    5AU     AUC 1828   8.041  17.477   7.759
    5AU     AUC 1829   8.373  17.472   7.762
    5AU     AUC 1830   7.993  16.599   7.777
    5AU     AUC 1831   8.324  16.581   7.768
    5AU     AUC 1832   8.032  17.470   7.205
    5AU     AUC 1833   8.380  17.452   7.209
    5AU     AUC 1834   7.982  16.586   7.229
    5AU     AUC 1835   8.324  16.568   7.222
    5AU    AUSL 1836   8.661  16.962   8.099
    5AU    AUSL 1837   8.473  16.604   8.100
    5AU     AUL 1838   8.557  16.917   8.413
    5AU       S 1839   8.796  16.237   8.236
    5AU     LIG 1840   8.756  15.875   8.501
    5AU     LIG 1841   8.974  15.546   8.752
    5AU     LIG 1842   9.259  15.392   9.087
    5AU     LIG 1843   9.313  15.374   9.559
    5AU       S 1844   8.970  16.653   8.433
    5AU     LIG 1845   9.045  16.756   8.870
    5AU     LIG 1846   9.064  16.794   9.328
    5AU     LIG 1847   9.192  16.740   9.772
    5AU     LIG 1848   9.584  16.775  10.036
    5AU    AUSL 1849   8.269  16.819   8.254
    5AU    AUSL 1850   8.061  17.173   8.274
    5AU     AUL 1851   8.245  16.991   8.580
    5AU       S 1852   8.614  16.487   8.629
    5AU     LIG 1853   8.634  16.549   9.110
    5AU     LIG 1854   8.687  16.566   9.589
    5AU     LIG 1855   8.801  16.496  10.037
    5AU     LIG 1856   8.743  16.305  10.460
    5AU       S 1857   7.774  17.044   8.741
    5AU     LIG 1858   7.726  17.116   9.186
    5AU     LIG 1859   7.565  16.982   9.590
    5AU     LIG 1860   7.364  17.035   9.996
    5AU     LIG 1861   7.406  17.328  10.359
    5AU    AUSL 1862   8.406  17.209   8.238
    5AU    AUSL 1863   8.759  17.287   7.982
    5AU     AUL 1864   8.797  17.178   8.343
    5AU       S 1865   8.424  17.479   8.620
    5AU     LIG 1866   8.610  17.644   9.038
    5AU     LIG 1867   8.668  17.757   9.512
    5AU     LIG 1868   8.850  17.756   9.960
    5AU     LIG 1869   8.950  17.685  10.426
    5AU       S 1870   9.003  17.634   8.302
    5AU     LIG 1871   9.369  17.600   8.558
    5AU     LIG 1872   9.740  17.838   8.659
    5AU     LIG 1873   9.924  18.070   9.004
    5AU     LIG 1874  10.047  18.314   9.382
    5AU    AUSL 1875   8.652  17.065   6.886
    5AU    AUSL 1876   8.506  17.420   6.865
    5AU     AUL 1877   8.921  17.281   6.786
    5AU       S 1878   8.739  17.092   6.354
    5AU     LIG 1879   8.970  16.977   5.948
    5AU     LIG 1880   9.123  16.704   5.608
    5AU     LIG 1881   9.364  16.624   5.214
    5AU     LIG 1882   9.756  16.711   4.958
    5AU       S 1883   8.724  17.741   6.554
    5AU     LIG 1884   8.961  18.016   6.238
    5AU     LIG 1885   9.300  18.177   5.936
    5AU     LIG 1886   9.534  18.406   5.581
    5AU     LIG 1887   9.593  18.676   5.191
    5AU    AUSL 1888   8.447  16.822   6.777
    5AU    AUSL 1889   8.705  16.722   7.022
    5AU     AUL 1890   8.919  16.890   6.831
    5AU       S 1891   8.884  16.437   6.613
    5AU     LIG 1892   9.181  16.203   6.310
    5AU     LIG 1893   9.483  15.829   6.220
    5AU     LIG 1894   9.784  15.548   5.974
    5AU     LIG 1895  10.161  15.423   5.730
    5AU       S 1896   8.692  16.846   6.361
    5AU     LIG 1897   8.775  16.511   6.081
    5AU     LIG 1898   8.663  16.476   5.644
    5AU     LIG 1899   8.817  16.533   5.209
    5AU     LIG 1900   8.787  16.547   4.752
    5AU    AUSL 1901   8.339  17.144   6.720
    5AU    AUSL 1902   8.057  16.861   6.778
    5AU     AUL 1903   8.234  16.755   6.521
    5AU       S 1904   7.839  16.954   6.269
    5AU     LIG 1905   7.881  16.747   5.847
    5AU     LIG 1906   7.645  16.531   5.487
    5AU     LIG 1907   7.347  16.464   5.118
    5AU     LIG 1908   7.159  16.394   4.686
    5AU       S 1909   8.481  17.183   6.331
    5AU     LIG 1910   8.461  16.945   5.904
    5AU     LIG 1911   8.687  16.967   5.475
    5AU     LIG 1912   8.829  17.021   5.016
    5AU     LIG 1913   8.741  17.151   4.563
    5AU    AUSL 1914   7.732  17.123   8.153
    5AU    AUSL 1915   7.929  17.445   8.072
    5AU     AUL 1916   7.874  17.423   8.421
    5AU       S 1917   7.542  17.066   8.631
    5AU     LIG 1918   7.345  16.826   9.007
    5AU     LIG 1919   7.125  16.769   9.435
    5AU     LIG 1920   6.922  16.775   9.866
    5AU     LIG 1921   6.579  16.831  10.192
    5AU       S 1922   7.509  17.759   8.265
    5AU     LIG 1923   7.471  17.870   8.709
    5AU     LIG 1924   7.404  18.190   9.025
    5AU     LIG 1925   7.089  18.444   9.237
    5AU     LIG 1926   6.754  18.522   9.556
    5AU    AUSL 1927   7.916  16.847   8.233
    5AU    AUSL 1928   7.647  16.766   7.979
    5AU     AUL 1929   7.460  16.936   8.159
    5AU       S 1930   7.437  16.465   8.352
    5AU     LIG 1931   6.971  16.358   8.265
    5AU     LIG 1932   6.645  16.037   8.322
    5AU     LIG 1933   6.432  15.772   8.631
    5AU     LIG 1934   6.351  15.908   9.064
    5AU       S 1935   7.741  16.792   8.608
    5AU     LIG 1936   7.813  16.617   9.029
    5AU     LIG 1937   7.572  16.506   9.401
    5AU     LIG 1938   7.388  16.534   9.833
    5AU     LIG 1939   7.316  16.333  10.257
    5AU    AUSL 1940   7.733  16.984   6.835
    5AU    AUSL 1941   7.860  16.605   6.950
    5AU     AUL 1942   7.906  16.599   6.631
    5AU       S 1943   7.594  16.931   6.378
    5AU     LIG 1944   7.391  16.869   5.946
    5AU     LIG 1945   7.166  16.726   5.541
    5AU     LIG 1946   6.863  16.660   5.174
    5AU     LIG 1947   6.672  16.906   4.821
    5AU       S 1948   7.432  16.435   6.635
    5AU     LIG 1949   7.192  16.031   6.417
    5AU     LIG 1950   6.919  15.623   6.307
    5AU     LIG 1951   6.681  15.318   6.022
    5AU     LIG 1952   6.792  15.142   5.594
    5AU    AUSL 1953   8.007  17.212   6.739
    5AU    AUSL 1954   7.601  17.314   7.018
    5AU     AUL 1955   7.671  17.327   6.675
    5AU       S 1956   7.230  17.563   6.769
    5AU     LIG 1957   7.032  17.834   6.414
    5AU     LIG 1958   6.936  18.023   5.978
    5AU     LIG 1959   6.701  18.178   5.590
    5AU     LIG 1960   6.262  18.207   5.416
    5AU       S 1961   7.958  17.180   6.286
    5AU     LIG 1962   7.752  17.248   5.864
    5AU     LIG 1963   7.585  17.040   5.482
    5AU     LIG 1964   7.498  16.957   5.025
    5AU     LIG 1965   7.539  17.105   4.562
    5AU    AUSL 1966   8.865  17.459   7.499
    5AU    AUSL 1967   8.752  17.323   7.093
    5AU     AUL 1968   9.037  17.516   7.154
    5AU       S 1969   8.949  17.776   6.717
    5AU     LIG 1970   9.349  17.814   6.517
    5AU     LIG 1971   9.625  17.846   6.166
    5AU     LIG 1972   9.845  18.152   5.916
    5AU     LIG 1973  10.252  18.324   5.764
    5AU       S 1974   9.396  17.569   7.518
    5AU     LIG 1975   9.885  17.587   7.463
    5AU     LIG 1976  10.325  17.754   7.428
    5AU     LIG 1977  10.486  18.185   7.418
    5AU     LIG 1978  10.870  18.325   7.220
    5AU    AUSL 1979   8.961  17.152   7.325
    5AU    AUSL 1980   8.888  16.836   7.631
    5AU     AUL 1981   9.202  16.905   7.482
    5AU       S 1982   9.453  17.319   7.364
    5AU     LIG 1983   9.844  17.090   7.339
    5AU     LIG 1984  10.274  17.213   7.279
    5AU     LIG 1985  10.693  17.401   7.253
    5AU     LIG 1986  11.117  17.276   7.054
    5AU       S 1987   9.303  16.410   7.656
    5AU     LIG 1988   9.747  16.404   7.785
    5AU     LIG 1989  10.094  16.131   7.856
    5AU     LIG 1990  10.531  16.055   7.780
    5AU     LIG 1991  10.894  16.303   7.879
    5AU    AUSL 1992   8.950  17.169   7.698
    5AU    AUSL 1993   8.669  17.599   7.774
    5AU     AUL 1994   8.996  17.503   7.818
    5AU       S 1995   8.964  17.889   8.148
    5AU     LIG 1996   9.326  18.093   8.419
    5AU     LIG 1997   9.672  18.370   8.648
    5AU     LIG 1998   9.922  18.788   8.777
    5AU     LIG 1999   9.971  19.285   8.796
    5AU       S 2000   9.440  17.300   7.695
    5AU     LIG 2001   9.859  17.232   7.836
    5AU     LIG 2002  10.271  17.397   7.783
    5AU     LIG 2003  10.722  17.512   7.771
    5AU     LIG 2004  11.165  17.714   7.828
    5AU    AUSL 2005   7.613  17.553   7.529
    5AU    AUSL 2006   7.605  17.361   7.937
    5AU     AUL 2007   7.310  17.569   7.726
    5AU       S 2008   7.349  17.504   8.251
    5AU     LIG 2009   7.028  17.745   8.482
    5AU     LIG 2010   6.956  17.976   8.878
    5AU     LIG 2011   6.678  18.128   9.222
    5AU     LIG 2012   6.401  18.116   9.611
    5AU       S 2013   7.496  18.018   7.525
    5AU     LIG 2014   7.042  18.186   7.380
    5AU     LIG 2015   6.563  18.376   7.376
    5AU     LIG 2016   6.088  18.561   7.320
    5AU     LIG 2017   5.621  18.762   7.348
    5AU    AUSL 2018   7.480  17.223   7.316
    5AU    AUSL 2019   7.728  17.619   7.207
    5AU     AUL 2020   7.362  17.535   7.268
    5AU       S 2021   7.096  17.117   6.963
    5AU     LIG 2022   6.709  17.434   6.920
    5AU     LIG 2023   6.236  17.620   6.946
    5AU     LIG 2024   5.760  17.791   6.977
    5AU     LIG 2025   5.389  18.112   6.957
    5AU       S 2026   7.446  17.979   7.024
    5AU     LIG 2027   7.177  18.224   6.727
    5AU     LIG 2028   7.070  18.403   6.303
    5AU     LIG 2029   6.859  18.774   6.084
    5AU     LIG 2030   6.658  19.220   6.125
    5AU    AUSL 2031   7.444  17.222   7.677
    5AU    AUSL 2032   7.395  16.902   7.364
    5AU     AUL 2033   7.166  17.259   7.455
    5AU       S 2034   6.920  16.811   7.457
    5AU     LIG 2035   6.454  16.831   7.490
    5AU     LIG 2036   6.074  16.563   7.387
    5AU     LIG 2037   5.750  16.231   7.305
    5AU     LIG 2038   5.437  16.108   7.024
    5AU       S 2039   7.037  17.205   7.974
    5AU     LIG 2040   6.580  17.206   7.864
    5AU     LIG 2041   6.197  17.490   7.949
    5AU     LIG 2042   5.757  17.688   8.004
    5AU     LIG 2043   5.327  17.726   8.216
    5AU    AUSL 2044   8.794  16.523   7.540
    5AU    AUSL 2045   8.747  16.691   7.909
    5AU     AUL 2046   9.069  16.788   7.863
    5AU       S 2047   9.112  16.240   7.585
    5AU     LIG 2048   9.540  15.977   7.553
    5AU     LIG 2049   9.968  15.799   7.469
    5AU     LIG 2050  10.410  15.652   7.413
    5AU     LIG 2051  10.749  15.359   7.550
    5AU       S 2052   9.003  16.314   8.075
    5AU     LIG 2053   9.242  16.028   8.385
    5AU     LIG 2054   9.445  15.756   8.730
    5AU     LIG 2055   9.729  15.620   9.078
    5AU     LIG 2056  10.059  15.733   9.403
    5AU    AUSL 2057   8.914  16.798   7.290
    5AU    AUSL 2058   8.618  16.429   7.222
    5AU     AUL 2059   8.942  16.488   7.163
    5AU       S 2060   9.372  16.437   7.398
    5AU     LIG 2061   9.822  16.349   7.284
    5AU     LIG 2062  10.250  16.219   7.375
    5AU     LIG 2063  10.684  16.088   7.282
    5AU     LIG 2064  10.993  16.379   7.113
    5AU       S 2065   8.877  16.208   6.750
    5AU     LIG 2066   9.086  15.817   6.637
    5AU     LIG 2067   9.317  15.434   6.512
    5AU     LIG 2068   9.672  15.192   6.331
    5AU     LIG 2069   9.800  15.010   5.933
    5AU    AUSL 2070   7.518  16.594   7.528
    5AU    AUSL 2071   7.564  16.786   7.069
    5AU     AUL 2072   7.320  16.557   7.256
    5AU       S 2073   7.295  16.650   6.748
    5AU     LIG 2074   6.890  16.403   6.620
    5AU     LIG 2075   6.651  16.008   6.507
    5AU     LIG 2076   6.387  15.710   6.238
    5AU     LIG 2077   5.988  15.659   5.976
    5AU       S 2078   6.938  16.571   7.581
    5AU     LIG 2079   6.533  16.335   7.597
    5AU     LIG 2080   6.126  16.109   7.643
    5AU     LIG 2081   5.716  15.915   7.712
    5AU     LIG 2082   5.494  15.553   7.855
    5AU    AUSL 2083   7.434  16.885   7.722
    5AU    AUSL 2084   7.692  16.453   7.808
    5AU     AUL 2085   7.365  16.559   7.850
    5AU       S 2086   7.454  16.203   8.194
    5AU     LIG 2087   7.113  15.854   8.190
    5AU     LIG 2088   6.735  15.534   8.254
    5AU     LIG 2089   6.426  15.236   8.457
    5AU     LIG 2090   6.472  14.930   8.810
    5AU       S 2091   6.953  16.817   7.690
    5AU     LIG 2092   6.610  16.690   7.966
    5AU     LIG 2093   6.159  16.580   7.889
    5AU     LIG 2094   5.711  16.426   7.782
    5AU     LIG 2095   5.323  16.164   7.937
    5AU    AUSL 2096   8.183  17.666   7.928
    5AU    AUSL 2097   7.801  17.645   7.822
    5AU     AUL 2098   8.023  17.717   8.225
    5AU       S 2099   7.570  17.944   8.029
    5AU     LIG 2100   7.275  18.195   8.350
    5AU     LIG 2101   7.078  18.447   8.707
    5AU     LIG 2102   6.868  18.815   8.933
    5AU     LIG 2103   6.744  19.291   8.940
    5AU       S 2104   8.064  18.166   8.018
    5AU     LIG 2105   8.268  18.378   8.367
    5AU     LIG 2106   8.345  18.799   8.505
    5AU     LIG 2107   8.321  19.230   8.653
    5AU     LIG 2108   8.231  19.401   9.086
    5AU    AUSL 2109   8.032  17.795   7.616
    5AU    AUSL 2110   8.384  17.764   7.299
    5AU     AUL 2111   8.229  18.051   7.430
    5AU       S 2112   7.919  18.217   7.798
    5AU     LIG 2113   7.962  18.666   8.049
    5AU     LIG 2114   8.087  19.121   8.182
    5AU     LIG 2115   7.958  19.592   8.268
    5AU     LIG 2116   7.641  19.980   8.184
    5AU       S 2117   8.476  18.199   7.007
    5AU     LIG 2118   8.796  18.512   6.936
    5AU     LIG 2119   8.774  18.944   6.767
    5AU     LIG 2120   8.793  19.417   6.822
    5AU     LIG 2121   9.052  19.813   6.952
    5AU    AUSL 2122   8.390  17.783   7.650
    5AU    AUSL 2123   8.472  17.501   8.062
    5AU     AUL 2124   8.489  17.855   7.971
    5AU       S 2125   8.760  17.729   8.376
    5AU     LIG 2126   8.981  17.886   8.753
    5AU     LIG 2127   9.371  18.054   8.944
    5AU     LIG 2128   9.575  18.414   9.164
    5AU     LIG 2129   9.651  18.583   9.591
    5AU       S 2130   8.274  18.297   7.858
    5AU     LIG 2131   8.475  18.709   8.012
    5AU     LIG 2132   8.621  19.125   8.207
    5AU     LIG 2133   8.825  19.559   8.246
    5AU     LIG 2134   8.751  19.997   8.385
    5AU    AUSL 2135   8.199  16.402   7.939
    5AU    AUSL 2136   8.545  16.416   7.808
    5AU     AUL 2137   8.301  16.342   8.221
    5AU       S 2138   8.358  15.879   8.016
    5AU     LIG 2139   8.173  15.555   8.283
    5AU     LIG 2140   7.980  15.142   8.374
    5AU     LIG 2141   7.983  14.671   8.424
    5AU     LIG 2142   8.031  14.257   8.667
    5AU       S 2143   8.787  16.140   7.958
    5AU     LIG 2144   8.957  15.740   8.049
    5AU     LIG 2145   9.255  15.497   8.325
    5AU     LIG 2146   9.456  15.184   8.635
    5AU     LIG 2147   9.641  14.715   8.654
    5AU    AUSL 2148   7.981  16.339   7.669
    5AU    AUSL 2149   7.915  16.544   8.080
    5AU     AUL 2150   7.915  16.184   7.986
    5AU       S 2151   8.162  15.763   7.794
    5AU     LIG 2152   7.927  15.336   7.872
    5AU     LIG 2153   7.743  14.895   7.984
    5AU     LIG 2154   7.698  14.423   8.067
    5AU     LIG 2155   7.392  14.129   8.270
    5AU       S 2156   7.666  16.340   8.414
    5AU     LIG 2157   7.268  16.096   8.643
    5AU     LIG 2158   6.950  15.754   8.674
    5AU     LIG 2159   6.710  15.403   8.871
    5AU     LIG 2160   6.618  15.149   9.260
    5AU    AUSL 2161   8.296  16.240   7.641
    5AU    AUSL 2162   7.950  16.278   7.325
    5AU     AUL 2163   7.835  16.090   7.618
    5AU       S 2164   7.984  15.817   7.222
    5AU     LIG 2165   7.677  15.511   7.116
    5AU     LIG 2166   7.665  15.074   6.980
    5AU     LIG 2167   7.685  14.622   6.835
    5AU     LIG 2168   7.606  14.200   6.628
    5AU       S 2169   8.428  15.861   7.737
    5AU     LIG 2170   8.443  15.359   7.882
    5AU     LIG 2171   8.254  14.901   8.005
    5AU     LIG 2172   8.231  14.395   8.050
    5AU     LIG 2173   8.558  14.047   7.955
    5AU    AUSL 2174   8.219  17.621   6.982
    5AU    AUSL 2175   8.691  17.625   7.255
    5AU     AUL 2176   8.529  17.703   7.009
    5AU       S 2177   8.326  18.054   6.720
    5AU     LIG 2178   8.616  18.331   6.498
    5AU     LIG 2179   8.545  18.775   6.326
    5AU     LIG 2180   8.329  19.107   6.047
    5AU     LIG 2181   8.169  19.418   5.705
    5AU       S 2182   8.920  17.975   6.894
    5AU     LIG 2183   9.164  18.282   6.626
    5AU     LIG 2184   9.574  18.331   6.356
    5AU     LIG 2185   9.990  18.565   6.203
    5AU     LIG 2186  10.359  18.898   6.259
    5AU    AUSL 2187   8.035  17.775   7.264
    5AU    AUSL 2188   7.900  17.481   6.927
    5AU     AUL 2189   7.918  17.809   6.926
    5AU       S 2190   8.180  18.236   6.960
    5AU     LIG 2191   8.319  18.656   6.784
    5AU     LIG 2192   8.285  19.117   6.655
    5AU     LIG 2193   7.990  19.501   6.670
    5AU     LIG 2194   7.839  19.920   6.809
    5AU       S 2195   7.450  17.785   6.747
    5AU     LIG 2196   7.504  18.036   6.364
    5AU     LIG 2197   7.414  18.222   5.960
    5AU     LIG 2198   7.112  18.471   5.723
    5AU     LIG 2199   7.057  18.685   5.307
    5AU    AUSL 2200   8.129  16.374   7.027
    5AU    AUSL 2201   7.674  16.472   7.225
    5AU     AUL 2202   7.810  16.244   6.970
    5AU       S 2203   7.327  16.300   6.836
    5AU     LIG 2204   7.009  15.945   6.888
    5AU     LIG 2205   6.735  15.567   6.785
    5AU     LIG 2206   6.486  15.283   6.506
    5AU     LIG 2207   6.289  14.908   6.286
    5AU       S 2208   8.101  15.822   6.971
    5AU     LIG 2209   8.010  15.401   6.734
    5AU     LIG 2210   7.904  14.980   6.519
    5AU     LIG 2211   7.941  14.514   6.380
    5AU     LIG 2212   8.003  14.020   6.357
    5AU    AUSL 2213   8.316  16.272   7.310
    5AU    AUSL 2214   8.422  16.523   6.928
    5AU     AUL 2215   8.459  16.176   7.017
    5AU       S 2216   8.248  15.791   7.278
    5AU     LIG 2217   8.147  15.311   7.221
    5AU     LIG 2218   8.140  14.878   6.969
    5AU     LIG 2219   8.154  14.396   6.833
    5AU     LIG 2220   8.429  14.035   6.670
    5AU       S 2221   8.626  16.355   6.564
    5AU     LIG 2222   8.712  16.007   6.291
    5AU     LIG 2223   9.000  15.679   6.148
    5AU     LIG 2224   9.302  15.360   5.991
    5AU     LIG 2225   9.353  15.040   5.653
    6AU     AUC 2226  31.228   4.077   7.495
    6AU     AUC 2227  31.497   4.062   7.333
    6AU     AUC 2228  31.497   4.065   7.659
    6AU     AUC 2229  30.959   4.087   7.333
    6AU     AUC 2230  30.963   4.092   7.664
    6AU     AUC 2231  31.081   4.351   7.488
    6AU     AUC 2232  31.412   4.337   7.491
    6AU     AUC 2233  31.044   3.817   7.500
    6AU     AUC 2234  31.375   3.798   7.495
    6AU     AUC 2235  31.219   3.915   7.763
    6AU     AUC 2236  31.241   4.242   7.761
    6AU     AUC 2237  31.219   3.905   7.231
    6AU     AUC 2238  31.238   4.235   7.222
    6AU     AUC 2239  31.751   4.051   7.180
    6AU     AUC 2240  31.776   4.048   7.498
    6AU     AUC 2241  31.758   4.048   7.807
    6AU     AUC 2242  30.703   4.090   7.172
    6AU     AUC 2243  30.683   4.099   7.511
    6AU     AUC 2244  30.711   4.112   7.834
    6AU     AUC 2245  30.945   4.621   7.481
    6AU     AUC 2246  31.260   4.624   7.470
    6AU     AUC 2247  31.588   4.590   7.491
    6AU     AUC 2248  30.864   3.571   7.506
    6AU     AUC 2249  31.195   3.533   7.487
    6AU     AUC 2250  31.518   3.523   7.500
    6AU     AUC 2251  31.207   3.755   8.021
    6AU     AUC 2252  31.226   4.073   8.049
    6AU     AUC 2253  31.253   4.395   8.020
    6AU     AUC 2254  31.223   3.741   6.978
    6AU     AUC 2255  31.247   4.064   6.949
    6AU     AUC 2256  31.251   4.374   6.948
    6AU     AUC 2257  31.486   3.896   7.936
    6AU     AUC 2258  31.517   4.232   7.937
    6AU     AUC 2259  31.496   3.889   7.062
    6AU     AUC 2260  31.513   4.227   7.054
    6AU     AUC 2261  30.951   3.929   7.946
    6AU     AUC 2262  30.971   4.256   7.940
    6AU     AUC 2263  30.948   3.915   7.066
    6AU     AUC 2264  30.959   4.236   7.040
    6AU     AUC 2265  31.695   4.330   7.342
    6AU     AUC 2266  31.692   4.335   7.671
    6AU     AUC 2267  30.805   4.371   7.320
    6AU     AUC 2268  30.808   4.381   7.667
    6AU     AUC 2269  31.644   3.768   7.331
    6AU     AUC 2270  31.649   3.778   7.655
    6AU     AUC 2271  30.756   3.825   7.345
    6AU     AUC 2272  30.772   3.821   7.683
    6AU     AUC 2273  31.089   4.526   7.754
    6AU     AUC 2274  31.420   4.518   7.758
    6AU     AUC 2275  31.038   3.650   7.776
    6AU     AUC 2276  31.371   3.632   7.765
    6AU     AUC 2277  31.084   4.516   7.201
    6AU     AUC 2278  31.434   4.498   7.204
    6AU     AUC 2279  31.027   3.636   7.228
    6AU     AUC 2280  31.369   3.614   7.220
    6AU    AUSL 2281  31.711   4.007   8.097
    6AU    AUSL 2282  31.522   3.656   8.097
    6AU     AUL 2283  31.600   3.965   8.410
    6AU       S 2284  31.840   3.289   8.241
    6AU     LIG 2285  31.860   2.845   8.361
    6AU     LIG 2286  32.029   2.543   8.676
    6AU     LIG 2287  32.309   2.412   9.030
    6AU     LIG 2288  32.553   2.416   9.440
    6AU       S 2289  32.008   3.699   8.452
    6AU     LIG 2290  32.097   3.736   8.908
    6AU     LIG 2291  32.246   3.702   9.355
    6AU     LIG 2292  32.490   3.594   9.749
    6AU     LIG 2293  32.874   3.689  10.016
    6AU    AUSL 2294  31.312   3.865   8.251
    6AU    AUSL 2295  31.107   4.222   8.270
    6AU     AUL 2296  31.287   4.039   8.576
    6AU       S 2297  31.646   3.537   8.632
    6AU     LIG 2298  31.659   3.555   9.109
    6AU     LIG 2299  31.822   3.484   9.548
    6AU     LIG 2300  32.038   3.352   9.948
    6AU     LIG 2301  31.944   3.251  10.409
    6AU       S 2302  30.814   4.096   8.735
    6AU     LIG 2303  30.746   4.089   9.182
    6AU     LIG 2304  30.608   3.973   9.602
    6AU     LIG 2305  30.380   4.053   9.991
    6AU     LIG 2306  30.302   4.385  10.314
    6AU    AUSL 2307  31.452   4.256   8.234
    6AU    AUSL 2308  31.806   4.336   7.983
    6AU     AUL 2309  31.843   4.222   8.343
    6AU       S 2310  31.470   4.526   8.614
    6AU     LIG 2311  31.680   4.639   9.030
    6AU     LIG 2312  31.789   4.746   9.489
    6AU     LIG 2313  31.782   4.762   9.977
    6AU     LIG 2314  31.873   4.726  10.451
    6AU       S 2315  32.061   4.671   8.292
    6AU     LIG 2316  32.432   4.615   8.539
    6AU     LIG 2317  32.789   4.862   8.675
    6AU     LIG 2318  32.973   5.129   9.007
    6AU     LIG 2319  33.095   5.441   9.338
    6AU    AUSL 2320  31.703   4.105   6.885
    6AU    AUSL 2321  31.570   4.467   6.873
    6AU     AUL 2322  31.979   4.312   6.787
    6AU       S 2323  31.803   4.125   6.353
    6AU     LIG 2324  32.090   3.968   5.984
    6AU     LIG 2325  32.272   3.687   5.644
    6AU     LIG 2326  32.426   3.686   5.197
    6AU     LIG 2327  32.643   3.718   4.777
    6AU       S 2328  31.809   4.782   6.576
    6AU     LIG 2329  31.996   5.059   6.248
    6AU     LIG 2330  32.376   5.153   5.977
    6AU     LIG 2331  32.659   5.436   5.721
    6AU     LIG 2332  32.679   5.695   5.316
    6AU    AUSL 2333  31.493   3.868   6.773
    6AU    AUSL 2334  31.747   3.760   7.013
    6AU     AUL 2335  31.968   3.926   6.834
    6AU       S 2336  31.917   3.473   6.617
    6AU     LIG 2337  32.232   3.313   6.314
    6AU     LIG 2338  32.555   2.983   6.233
    6AU     LIG 2339  32.753   2.624   6.004
    6AU     LIG 2340  32.813   2.249   5.717
    6AU       S 2341  31.750   3.884   6.359
    6AU     LIG 2342  31.822   3.540   6.072
    6AU     LIG 2343  31.833   3.413   5.633
    6AU     LIG 2344  31.960   3.466   5.187
    6AU     LIG 2345  32.157   3.536   4.759
    6AU    AUSL 2346  31.397   4.197   6.717
    6AU    AUSL 2347  31.108   3.906   6.776
    6AU     AUL 2348  31.285   3.820   6.509
    6AU       S 2349  30.862   3.985   6.280
    6AU     LIG 2350  30.885   3.739   5.891
    6AU     LIG 2351  30.593   3.507   5.606
    6AU     LIG 2352  30.379   3.476   5.187
    6AU     LIG 2353  30.456   3.535   4.727
    6AU       S 2354  31.550   4.236   6.329
    6AU     LIG 2355  31.581   4.001   5.892
    6AU     LIG 2356  31.840   3.918   5.494
    6AU     LIG 2357  32.002   3.963   5.042
    6AU     LIG 2358  31.947   3.995   4.564
    6AU    AUSL 2359  30.777   4.176   8.149
    6AU    AUSL 2360  30.976   4.496   8.067
    6AU     AUL 2361  30.927   4.476   8.416
    6AU       S 2362  30.581   4.139   8.617
    6AU     LIG 2363  30.362   3.856   8.926
    6AU     LIG 2364  30.233   3.724   9.359
    6AU     LIG 2365  30.012   3.766   9.766
    6AU     LIG 2366  29.715   3.864  10.105
    6AU       S 2367  30.556   4.808   8.262
    6AU     LIG 2368  30.473   4.875   8.707
    6AU     LIG 2369  30.390   5.248   8.970
    6AU     LIG 2370  30.165   5.581   9.201
    6AU     LIG 2371  29.998   5.764   9.590
    6AU    AUSL 2372  30.959   3.900   8.230
    6AU    AUSL 2373  30.691   3.816   7.978
    6AU     AUL 2374  30.500   3.983   8.153
    6AU       S 2375  30.491   3.516   8.365
    6AU     LIG 2376  30.046   3.305   8.380
    6AU     LIG 2377  29.729   2.999   8.523
    6AU     LIG 2378  29.562   2.784   8.898
    6AU     LIG 2379  29.214   2.607   9.151
    6AU       S 2380  30.778   3.857   8.606
    6AU     LIG 2381  30.804   3.604   8.994
    6AU     LIG 2382  30.684   3.483   9.433
    6AU     LIG 2383  30.469   3.528   9.851
    6AU     LIG 2384  30.463   3.486  10.321
    6AU    AUSL 2385  30.786   4.027   6.834
    6AU    AUSL 2386  30.903   3.658   6.948
    6AU     AUL 2387  30.977   3.635   6.635
    6AU       S 2388  30.636   3.963   6.389
    6AU     LIG 2389  30.401   3.877   5.969
    6AU     LIG 2390  30.155   3.785   5.556
    6AU     LIG 2391  29.915   3.754   5.152
    6AU     LIG 2392  29.461   3.771   4.993
    6AU       S 2393  30.487   3.523   6.623
    6AU     LIG 2394  30.282   3.130   6.390
    6AU     LIG 2395  30.071   2.737   6.207
    6AU     LIG 2396  29.861   2.484   5.872
    6AU     LIG 2397  29.769   2.441   5.398
    6AU    AUSL 2398  31.062   4.255   6.733
    6AU    AUSL 2399  30.650   4.356   7.013
    6AU     AUL 2400  30.728   4.370   6.670
    6AU       S 2401  30.281   4.591   6.758
    6AU     LIG 2402  30.118   4.848   6.375
    6AU     LIG 2403  29.910   5.047   5.993
    6AU     LIG 2404  29.681   5.268   5.632
    6AU     LIG 2405  29.340   5.560   5.480
    6AU       S 2406  30.997   4.212   6.274
    6AU     LIG 2407  30.767   4.243   5.856
    6AU     LIG 2408  30.611   4.007   5.484
    6AU     LIG 2409  30.412   3.975   5.056
    6AU     LIG 2410  30.447   4.207   4.637
    6AU    AUSL 2411  31.914   4.498   7.493
    6AU    AUSL 2412  31.816   4.355   7.096
    6AU     AUL 2413  32.125   4.513   7.166
    6AU       S 2414  32.023   4.809   6.753
    6AU     LIG 2415  32.397   4.849   6.486
    6AU     LIG 2416  32.763   4.904   6.220
    6AU     LIG 2417  32.988   5.052   5.852
    6AU     LIG 2418  33.269   4.844   5.526
    6AU       S 2419  32.469   4.565   7.551
    6AU     LIG 2420  32.927   4.753   7.516
    6AU     LIG 2421  33.395   4.893   7.487
    6AU     LIG 2422  33.820   5.108   7.514
    6AU     LIG 2423  34.009   5.545   7.433
    6AU    AUSL 2424  32.006   4.179   7.339
    6AU    AUSL 2425  31.997   3.876   7.624
    6AU     AUL 2426  32.259   3.915   7.284
    6AU       S 2427  32.500   4.313   7.469
    6AU     LIG 2428  32.968   4.264   7.383
    6AU     LIG 2429  33.405   4.427   7.265
    6AU     LIG 2430  33.803   4.687   7.204
    6AU     LIG 2431  34.133   5.031   7.102
    6AU       S 2432  32.356   3.490   7.692
    6AU     LIG 2433  32.642   3.158   7.853
    6AU     LIG 2434  33.113   3.070   7.765
    6AU     LIG 2435  33.585   3.087   7.784
    6AU     LIG 2436  33.928   2.977   8.082
    6AU    AUSL 2437  31.986   4.211   7.705
    6AU    AUSL 2438  31.716   4.643   7.771
    6AU     AUL 2439  32.040   4.560   7.803
    6AU       S 2440  32.010   4.929   8.148
    6AU     LIG 2441  32.369   5.110   8.422
    6AU     LIG 2442  32.684   5.380   8.659
    6AU     LIG 2443  32.963   5.687   8.889
    6AU     LIG 2444  33.166   6.135   8.865
    6AU       S 2445  32.437   4.244   7.737
    6AU     LIG 2446  32.857   4.384   7.875
    6AU     LIG 2447  33.307   4.467   7.767
    6AU     LIG 2448  33.768   4.607   7.731
    6AU     LIG 2449  34.180   4.634   7.993
    6AU    AUSL 2450  30.663   4.603   7.522
    6AU    AUSL 2451  30.653   4.414   7.933
    6AU     AUL 2452  30.361   4.623   7.721
    6AU       S 2453  30.400   4.551   8.245
    6AU     LIG 2454  30.050   4.773   8.409
    6AU     LIG 2455  29.970   5.030   8.770
    6AU     LIG 2456  29.768   5.261   9.110
    6AU     LIG 2457  29.395   5.216   9.396
    6AU       S 2458  30.548   5.068   7.512
    6AU     LIG 2459  30.097   5.243   7.385
    6AU     LIG 2460  29.614   5.390   7.387
    6AU     LIG 2461  29.124   5.408   7.400
    6AU     LIG 2462  28.751   5.615   7.178
    6AU    AUSL 2463  30.528   4.273   7.313
    6AU    AUSL 2464  30.781   4.667   7.201
    6AU     AUL 2465  30.414   4.586   7.259
    6AU       S 2466  30.136   4.157   6.971
    6AU     LIG 2467  29.678   4.321   6.969
    6AU     LIG 2468  29.289   4.543   6.776
    6AU     LIG 2469  28.811   4.486   6.795
    6AU     LIG 2470  28.397   4.755   6.841
    6AU       S 2471  30.496   5.028   7.003
    6AU     LIG 2472  30.261   5.271   6.633
    6AU     LIG 2473  29.964   5.475   6.298
    6AU     LIG 2474  29.698   5.844   6.134
    6AU     LIG 2475  29.604   6.302   6.099
    6AU    AUSL 2476  30.491   4.274   7.674
    6AU    AUSL 2477  30.440   3.952   7.363
    6AU     AUL 2478  30.217   4.317   7.454
    6AU       S 2479  29.958   3.875   7.416
    6AU     LIG 2480  29.533   3.854   7.161
    6AU     LIG 2481  29.132   3.594   7.061
    6AU     LIG 2482  28.679   3.453   7.203
    6AU     LIG 2483  28.193   3.383   7.095
    6AU       S 2484  30.073   4.268   7.968
    6AU     LIG 2485  29.624   4.452   8.000
    6AU     LIG 2486  29.250   4.757   7.954
    6AU     LIG 2487  28.845   4.920   8.135
    6AU     LIG 2488  28.385   4.863   7.974
    6AU    AUSL 2489  31.836   3.578   7.549
    6AU    AUSL 2490  31.786   3.744   7.888
    6AU     AUL 2491  32.086   3.843   7.908
    6AU       S 2492  32.132   3.299   7.601
    6AU     LIG 2493  32.384   2.946   7.464
    6AU     LIG 2494  32.801   2.776   7.484
    6AU     LIG 2495  33.228   2.608   7.506
    6AU     LIG 2496  33.545   2.338   7.275
    6AU       S 2497  32.040   3.365   8.086
    6AU     LIG 2498  32.319   3.107   8.367
    6AU     LIG 2499  32.481   2.795   8.690
    6AU     LIG 2500  32.772   2.648   9.025
    6AU     LIG 2501  33.038   2.646   9.416
    6AU    AUSL 2502  31.917   3.833   7.301
    6AU    AUSL 2503  31.668   3.474   7.223
    6AU     AUL 2504  32.003   3.547   7.162
    6AU       S 2505  32.379   3.456   7.471
    6AU     LIG 2506  32.815   3.284   7.380
    6AU     LIG 2507  33.287   3.182   7.286
    6AU     LIG 2508  33.762   3.275   7.184
    6AU     LIG 2509  34.095   2.976   7.066
    6AU       S 2510  31.930   3.242   6.759
    6AU     LIG 2511  32.177   2.868   6.585
    6AU     LIG 2512  32.423   2.496   6.392
    6AU     LIG 2513  32.706   2.143   6.217
    6AU     LIG 2514  33.081   1.818   6.190
    6AU    AUSL 2515  30.562   3.647   7.532
    6AU    AUSL 2516  30.608   3.839   7.072
    6AU     AUL 2517  30.366   3.595   7.265
    6AU       S 2518  30.333   3.722   6.757
    6AU     LIG 2519  29.941   3.475   6.598
    6AU     LIG 2520  29.771   3.046   6.498
    6AU     LIG 2521  29.550   2.788   6.167
    6AU     LIG 2522  29.409   2.687   5.719
    6AU       S 2523  29.976   3.654   7.574
    6AU     LIG 2524  29.513   3.575   7.579
    6AU     LIG 2525  29.111   3.364   7.524
    6AU     LIG 2526  28.845   2.993   7.438
    6AU     LIG 2527  28.523   2.631   7.469
    6AU    AUSL 2528  30.476   3.938   7.723
    6AU    AUSL 2529  30.736   3.505   7.810
    6AU     AUL 2530  30.398   3.611   7.856
    6AU       S 2531  30.521   3.285   8.220
    6AU     LIG 2532  30.315   2.885   8.216
    6AU     LIG 2533  29.953   2.630   8.235
    6AU     LIG 2534  29.697   2.440   8.548
    6AU     LIG 2535  29.491   2.244   8.906
    6AU       S 2536  29.990   3.884   7.675
    6AU     LIG 2537  29.591   3.920   7.937
    6AU     LIG 2538  29.141   3.732   7.944
    6AU     LIG 2539  28.709   3.609   7.724
    6AU     LIG 2540  28.234   3.582   7.718
    6AU    AUSL 2541  31.230   4.714   7.923
    6AU    AUSL 2542  30.850   4.696   7.816
    6AU     AUL 2543  31.070   4.769   8.219
    6AU       S 2544  30.614   5.001   8.027
    6AU     LIG 2545  30.311   5.239   8.383
    6AU     LIG 2546  30.050   5.532   8.693
    6AU     LIG 2547  29.799   5.871   8.948
    6AU     LIG 2548  29.461   6.220   9.046
    6AU       S 2549  31.106   5.214   8.005
    6AU     LIG 2550  31.281   5.408   8.377
    6AU     LIG 2551  31.435   5.797   8.553
    6AU     LIG 2552  31.465   6.241   8.665
    6AU     LIG 2553  31.409   6.664   8.846
    6AU    AUSL 2554  31.083   4.843   7.608
    6AU    AUSL 2555  31.441   4.807   7.298
    6AU     AUL 2556  31.299   5.096   7.425
    6AU       S 2557  30.967   5.262   7.779
    6AU     LIG 2558  31.020   5.713   8.032
    6AU     LIG 2559  31.219   6.124   8.206
    6AU     LIG 2560  31.203   6.584   8.366
    6AU     LIG 2561  31.091   6.987   8.596
    6AU       S 2562  31.532   5.269   7.000
    6AU     LIG 2563  31.783   5.678   6.909
    6AU     LIG 2564  31.807   6.151   6.791
    6AU     LIG 2565  31.731   6.605   6.629
    6AU     LIG 2566  31.911   7.062   6.529
    6AU    AUSL 2567  31.440   4.827   7.648
    6AU    AUSL 2568  31.519   4.547   8.059
    6AU     AUL 2569  31.536   4.901   7.971
    6AU       S 2570  31.813   4.771   8.372
    6AU     LIG 2571  32.044   4.889   8.758
    6AU     LIG 2572  32.415   5.064   8.963
    6AU     LIG 2573  32.595   5.427   9.195
    6AU     LIG 2574  32.656   5.597   9.635
    6AU       S 2575  31.317   5.339   7.856
    6AU     LIG 2576  31.542   5.713   8.045
    6AU     LIG 2577  31.736   6.096   8.240
    6AU     LIG 2578  31.713   6.560   8.331
    6AU     LIG 2579  31.553   7.003   8.289
    6AU    AUSL 2580  31.245   3.452   7.936
    6AU    AUSL 2581  31.589   3.462   7.807
    6AU     AUL 2582  31.346   3.395   8.219
    6AU       S 2583  31.400   2.932   8.011
    6AU     LIG 2584  31.222   2.644   8.300
    6AU     LIG 2585  31.018   2.248   8.394
    6AU     LIG 2586  31.040   1.788   8.441
    6AU     LIG 2587  31.232   1.419   8.655
    6AU       S 2588  31.826   3.189   7.968
    6AU     LIG 2589  32.159   2.884   7.934
    6AU     LIG 2590  32.325   2.582   8.246
    6AU     LIG 2591  32.455   2.239   8.558
    6AU     LIG 2592  32.661   1.805   8.656
    6AU    AUSL 2593  31.023   3.391   7.668
    6AU    AUSL 2594  30.964   3.596   8.078
    6AU     AUL 2595  30.959   3.235   7.981
    6AU       S 2596  31.212   2.817   7.790
    6AU     LIG 2597  30.983   2.413   7.892
    6AU     LIG 2598  30.813   1.979   8.002
    6AU     LIG 2599  30.761   1.508   8.085
    6AU     LIG 2600  30.508   1.088   8.039
    6AU       S 2601  30.745   3.397   8.427
    6AU     LIG 2602  30.425   3.100   8.678
    6AU     LIG 2603  30.114   2.734   8.729
    6AU     LIG 2604  29.933   2.467   9.080
    6AU     LIG 2605  29.978   2.423   9.561
    6AU    AUSL 2606  31.339   3.292   7.637
    6AU    AUSL 2607  30.992   3.330   7.325
    6AU     AUL 2608  30.878   3.141   7.616
    6AU       S 2609  31.020   2.869   7.216
    6AU     LIG 2610  30.713   2.571   7.090
    6AU     LIG 2611  30.741   2.121   7.047
    6AU     LIG 2612  30.764   1.694   6.856
    6AU     LIG 2613  30.506   1.335   6.688
    6AU       S 2614  31.475   2.915   7.731
    6AU     LIG 2615  31.505   2.433   7.913
    6AU     LIG 2616  31.336   1.997   8.058
    6AU     LIG 2617  31.436   1.525   8.178
    6AU     LIG 2618  31.696   1.097   8.219
    6AU    AUSL 2619  31.268   4.662   6.975
    6AU    AUSL 2620  31.745   4.660   7.240
    6AU     AUL 2621  31.554   4.772   7.000
    6AU       S 2622  31.358   5.119   6.709
    6AU     LIG 2623  31.668   5.387   6.508
    6AU     LIG 2624  31.656   5.850   6.404
    6AU     LIG 2625  31.546   6.287   6.242
    6AU     LIG 2626  31.418   6.572   5.880
    6AU       S 2627  31.990   4.993   6.937
    6AU     LIG 2628  32.208   5.303   6.650
    6AU     LIG 2629  32.610   5.372   6.376
    6AU     LIG 2630  32.979   5.587   6.131
    6AU     LIG 2631  33.257   6.007   6.131
    6AU    AUSL 2632  31.091   4.824   7.256
    6AU    AUSL 2633  30.950   4.520   6.925
    6AU     AUL 2634  30.970   4.849   6.915
    6AU       S 2635  31.214   5.286   6.963
    6AU     LIG 2636  31.295   5.704   6.751
    6AU     LIG 2637  31.305   6.192   6.686
    6AU     LIG 2638  31.191   6.668   6.596
    6AU     LIG 2639  30.890   7.088   6.621
    6AU       S 2640  30.495   4.820   6.749
    6AU     LIG 2641  30.617   4.995   6.367
    6AU     LIG 2642  30.381   5.246   6.090
    6AU     LIG 2643  30.133   5.478   5.778
    6AU     LIG 2644  30.124   5.684   5.358
    6AU    AUSL 2645  31.169   3.422   7.024
    6AU    AUSL 2646  30.719   3.529   7.226
    6AU     AUL 2647  30.843   3.298   6.973
    6AU       S 2648  30.376   3.396   6.815
    6AU     LIG 2649  30.248   2.961   6.876
    6AU     LIG 2650  30.002   2.621   6.703
    6AU     LIG 2651  29.718   2.370   6.435
    6AU     LIG 2652  29.431   1.990   6.504
    6AU       S 2653  31.141   2.884   6.971
    6AU     LIG 2654  31.039   2.537   6.695
    6AU     LIG 2655  30.925   2.117   6.564
    6AU     LIG 2656  31.090   1.704   6.451
    6AU     LIG 2657  31.313   1.313   6.306
    6AU    AUSL 2658  31.360   3.323   7.307
    6AU    AUSL 2659  31.463   3.568   6.925
    6AU     AUL 2660  31.505   3.226   7.017
    6AU       S 2661  31.287   2.845   7.273
    6AU     LIG 2662  31.199   2.380   7.162
    6AU     LIG 2663  31.221   1.945   6.951
    6AU     LIG 2664  31.279   1.480   6.873
    6AU     LIG 2665  31.582   1.165   6.720
    6AU       S 2666  31.667   3.392   6.558
    6AU     LIG 2667  31.796   3.050   6.274
    6AU     LIG 2668  32.116   2.769   6.070
    6AU     LIG 2669  32.317   2.374   5.885
    6AU     LIG 2670  32.344   2.088   5.501
    7AU     AUC 2671  20.839  34.513   7.500
    7AU     AUC 2672  21.106  34.497   7.337
    7AU     AUC 2673  21.108  34.499   7.664
    7AU     AUC 2674  20.570  34.525   7.338
    7AU     AUC 2675  20.575  34.530   7.670
    7AU     AUC 2676  20.693  34.788   7.493
    7AU     AUC 2677  21.023  34.773   7.496
    7AU     AUC 2678  20.654  34.255   7.505
    7AU     AUC 2679  20.984  34.233   7.500
    7AU     AUC 2680  20.830  34.351   7.769
    7AU     AUC 2681  20.854  34.679   7.766
    7AU     AUC 2682  20.827  34.342   7.236
    7AU     AUC 2683  20.847  34.672   7.226
    7AU     AUC 2684  21.359  34.485   7.184
    7AU     AUC 2685  21.386  34.481   7.501
    7AU     AUC 2686  21.368  34.479   7.810
    7AU     AUC 2687  20.313  34.529   7.177
    7AU     AUC 2688  20.295  34.538   7.516
    7AU     AUC 2689  20.325  34.552   7.841
    7AU     AUC 2690  20.556  35.056   7.487
    7AU     AUC 2691  20.874  35.060   7.476
    7AU     AUC 2692  21.200  35.026   7.496
    7AU     AUC 2693  20.472  34.010   7.512
    7AU     AUC 2694  20.802  33.969   7.493
    7AU     AUC 2695  21.124  33.956   7.504
    7AU     AUC 2696  20.818  34.190   8.028
    7AU     AUC 2697  20.839  34.509   8.055
    7AU     AUC 2698  20.867  34.832   8.026
    7AU     AUC 2699  20.827  34.178   6.983
    7AU     AUC 2700  20.854  34.502   6.952
    7AU     AUC 2701  20.860  34.813   6.951
    7AU     AUC 2702  21.098  34.327   7.940
    7AU     AUC 2703  21.129  34.665   7.941
    7AU     AUC 2704  21.101  34.325   7.065
    7AU     AUC 2705  21.120  34.662   7.058
    7AU     AUC 2706  20.565  34.367   7.954
    7AU     AUC 2707  20.585  34.694   7.946
    7AU     AUC 2708  20.556  34.354   7.071
    7AU     AUC 2709  20.569  34.677   7.044
    7AU     AUC 2710  21.305  34.765   7.347
    7AU     AUC 2711  21.304  34.768   7.675
    7AU     AUC 2712  20.415  34.809   7.326
    7AU     AUC 2713  20.420  34.818   7.673
    7AU     AUC 2714  21.252  34.202   7.335
    7AU     AUC 2715  21.258  34.210   7.659
    7AU     AUC 2716  20.365  34.263   7.351
    7AU     AUC 2717  20.384  34.260   7.689
    7AU     AUC 2718  20.703  34.963   7.759
    7AU     AUC 2719  21.034  34.954   7.763
    7AU     AUC 2720  20.648  34.089   7.783
    7AU     AUC 2721  20.980  34.064   7.771
    7AU     AUC 2722  20.695  34.951   7.205
    7AU     AUC 2723  21.044  34.934   7.210
    7AU     AUC 2724  20.633  34.074   7.234
    7AU     AUC 2725  20.975  34.050   7.225
    7AU    AUSL 2726  21.322  34.436   8.100
    7AU    AUSL 2727  21.132  34.084   8.101
    7AU     AUL 2728  21.213  34.397   8.416
    7AU       S 2729  21.463  33.716   8.241
    7AU     LIG 2730  21.548  33.301   8.439
    7AU     LIG 2731  21.698  32.932   8.701
    7AU     LIG 2732  21.915  32.774   9.079
    7AU     LIG 2733  22.094  32.877   9.502
    7AU       S 2734  21.622  34.129   8.450
    7AU     LIG 2735  21.694  34.236   8.892
    7AU     LIG 2736  21.780  34.208   9.351
    7AU     LIG 2737  22.125  34.287   9.676
    7AU     LIG 2738  22.549  34.411   9.877
    7AU    AUSL 2739  20.927  34.300   8.254
    7AU    AUSL 2740  20.722  34.662   8.276
    7AU     AUL 2741  20.898  34.468   8.579
    7AU       S 2742  21.262  33.965   8.629
    7AU     LIG 2743  21.294  34.000   9.108
    7AU     LIG 2744  21.382  33.923   9.567
    7AU     LIG 2745  21.368  33.726  10.004
    7AU     LIG 2746  21.531  33.673  10.451
    7AU       S 2747  20.431  34.547   8.751
    7AU     LIG 2748  20.300  34.569   9.206
    7AU     LIG 2749  20.278  34.457   9.670
    7AU     LIG 2750  20.159  34.478  10.127
    7AU     LIG 2751  20.062  34.744  10.507
    7AU    AUSL 2752  21.068  34.689   8.238
    7AU    AUSL 2753  21.418  34.765   7.987
    7AU     AUL 2754  21.459  34.651   8.344
    7AU       S 2755  21.087  34.954   8.618
    7AU     LIG 2756  21.343  35.054   9.007
    7AU     LIG 2757  21.440  35.218   9.450
    7AU     LIG 2758  21.386  35.338   9.919
    7AU     LIG 2759  21.239  35.297  10.374
    7AU       S 2760  21.679  35.100   8.308
    7AU     LIG 2761  21.999  35.050   8.637
    7AU     LIG 2762  22.401  35.248   8.743
    7AU     LIG 2763  22.673  35.516   9.004
    7AU     LIG 2764  23.114  35.647   9.120
    7AU    AUSL 2765  21.309  34.539   6.888
    7AU    AUSL 2766  21.179  34.899   6.873
    7AU     AUL 2767  21.589  34.742   6.795
    7AU       S 2768  21.409  34.561   6.360
    7AU     LIG 2769  21.699  34.427   6.005
    7AU     LIG 2770  21.782  34.185   5.624
    7AU     LIG 2771  21.874  34.219   5.170
    7AU     LIG 2772  22.148  34.160   4.796
    7AU       S 2773  21.422  35.207   6.575
    7AU     LIG 2774  21.575  35.596   6.382
    7AU     LIG 2775  21.911  35.709   6.080
    7AU     LIG 2776  22.288  35.921   5.896
    7AU     LIG 2777  22.387  36.258   5.584
    7AU    AUSL 2778  21.096  34.304   6.774
    7AU    AUSL 2779  21.351  34.195   7.017
    7AU     AUL 2780  21.572  34.356   6.835
    7AU       S 2781  21.523  33.904   6.617
    7AU     LIG 2782  21.805  33.677   6.305
    7AU     LIG 2783  22.124  33.317   6.240
    7AU     LIG 2784  22.462  33.022   6.052
    7AU     LIG 2785  22.935  32.921   5.941
    7AU       S 2786  21.352  34.315   6.361
    7AU     LIG 2787  21.420  33.986   6.051
    7AU     LIG 2788  21.315  33.967   5.586
    7AU     LIG 2789  21.388  34.053   5.116
    7AU     LIG 2790  21.616  34.130   4.703
    7AU    AUSL 2791  21.003  34.635   6.719
    7AU    AUSL 2792  20.712  34.343   6.780
    7AU     AUL 2793  20.882  34.275   6.503
    7AU       S 2794  20.436  34.403   6.288
    7AU     LIG 2795  20.259  34.125   5.943
    7AU     LIG 2796  20.118  33.987   5.515
    7AU     LIG 2797  20.128  34.012   5.045
    7AU     LIG 2798  20.026  34.144   4.605
    7AU       S 2799  21.165  34.677   6.330
    7AU     LIG 2800  21.202  34.453   5.883
    7AU     LIG 2801  21.393  34.466   5.439
    7AU     LIG 2802  21.520  34.560   4.987
    7AU     LIG 2803  21.702  34.794   4.615
    7AU    AUSL 2804  20.392  34.615   8.157
    7AU    AUSL 2805  20.590  34.934   8.072
    7AU     AUL 2806  20.545  34.919   8.421
    7AU       S 2807  20.199  34.587   8.622
    7AU     LIG 2808  19.954  34.320   8.903
    7AU     LIG 2809  19.925  34.230   9.356
    7AU     LIG 2810  19.785  34.322   9.791
    7AU     LIG 2811  19.476  34.239  10.127
    7AU       S 2812  20.164  35.243   8.270
    7AU     LIG 2813  20.034  35.335   8.706
    7AU     LIG 2814  19.929  35.685   9.002
    7AU     LIG 2815  19.776  35.924   9.387
    7AU     LIG 2816  19.671  35.967   9.849
    7AU    AUSL 2817  20.574  34.338   8.241
    7AU    AUSL 2818  20.310  34.261   7.988
    7AU     AUL 2819  20.116  34.419   8.163
    7AU       S 2820  20.094  33.953   8.375
    7AU     LIG 2821  19.635  33.781   8.321
    7AU     LIG 2822  19.431  33.371   8.430
    7AU     LIG 2823  19.280  32.999   8.669
    7AU     LIG 2824  19.140  32.870   9.099
    7AU       S 2825  20.389  34.294   8.617
    7AU     LIG 2826  20.392  34.089   9.042
    7AU     LIG 2827  20.351  33.975   9.496
    7AU     LIG 2828  20.155  33.992   9.922
    7AU     LIG 2829  19.863  33.903  10.288
    7AU    AUSL 2830  20.394  34.469   6.840
    7AU    AUSL 2831  20.508  34.096   6.953
    7AU     AUL 2832  20.586  34.071   6.642
    7AU       S 2833  20.232  34.405   6.420
    7AU     LIG 2834  19.879  34.395   6.158
    7AU     LIG 2835  19.789  34.363   5.709
    7AU     LIG 2836  19.740  34.289   5.242
    7AU     LIG 2837  19.582  34.344   4.795
    7AU       S 2838  20.092  33.960   6.629
    7AU     LIG 2839  19.827  33.592   6.391
    7AU     LIG 2840  19.573  33.172   6.295
    7AU     LIG 2841  19.244  32.945   6.022
    7AU     LIG 2842  18.970  32.986   5.628
    7AU    AUSL 2843  20.668  34.693   6.736
    7AU    AUSL 2844  20.264  34.801   7.019
    7AU     AUL 2845  20.343  34.817   6.677
    7AU       S 2846  19.899  35.039   6.769
    7AU     LIG 2847  19.633  35.179   6.422
    7AU     LIG 2848  19.524  35.254   5.969
    7AU     LIG 2849  19.208  35.374   5.631
    7AU     LIG 2850  18.889  35.632   5.381
    7AU       S 2851  20.568  34.639   6.266
    7AU     LIG 2852  20.260  34.632   5.870
    7AU     LIG 2853  20.194  34.488   5.412
    7AU     LIG 2854  20.098  34.541   4.946
    7AU     LIG 2855  20.192  34.827   4.564
    7AU    AUSL 2856  21.528  34.931   7.501
    7AU    AUSL 2857  21.420  34.790   7.100
    7AU     AUL 2858  21.726  34.944   7.164
    7AU       S 2859  21.651  35.236   6.747
    7AU     LIG 2860  22.020  35.335   6.439
    7AU     LIG 2861  22.374  35.466   6.133
    7AU     LIG 2862  22.720  35.593   5.821
    7AU     LIG 2863  23.169  35.776   5.876
    7AU       S 2864  22.066  35.024   7.543
    7AU     LIG 2865  22.471  35.283   7.435
    7AU     LIG 2866  22.866  35.322   7.172
    7AU     LIG 2867  23.211  35.619   7.151
    7AU     LIG 2868  23.482  35.745   7.493
    7AU    AUSL 2869  21.615  34.614   7.340
    7AU    AUSL 2870  21.603  34.307   7.627
    7AU     AUL 2871  21.872  34.349   7.303
    7AU       S 2872  22.112  34.765   7.454
    7AU     LIG 2873  22.565  34.800   7.288
    7AU     LIG 2874  23.025  34.831   7.162
    7AU     LIG 2875  23.385  35.107   7.031
    7AU     LIG 2876  23.715  35.400   7.185
    7AU       S 2877  21.965  33.919   7.692
    7AU     LIG 2878  22.318  33.662   7.856
    7AU     LIG 2879  22.783  33.591   7.773
    7AU     LIG 2880  23.217  33.669   7.607
    7AU     LIG 2881  23.678  33.778   7.620
    7AU    AUSL 2882  21.600  34.642   7.707
    7AU    AUSL 2883  21.330  35.077   7.774
    7AU     AUL 2884  21.652  34.984   7.819
    7AU       S 2885  21.628  35.360   8.156
    7AU     LIG 2886  22.019  35.506   8.409
    7AU     LIG 2887  22.363  35.757   8.627
    7AU     LIG 2888  22.467  36.191   8.773
    7AU     LIG 2889  22.660  36.520   9.040
    7AU       S 2890  22.059  34.691   7.727
    7AU     LIG 2891  22.498  34.890   7.792
    7AU     LIG 2892  22.908  35.055   7.615
    7AU     LIG 2893  23.320  35.245   7.526
    7AU     LIG 2894  23.730  35.202   7.724
    7AU    AUSL 2895  20.274  35.040   7.529
    7AU    AUSL 2896  20.265  34.850   7.938
    7AU     AUL 2897  19.970  35.058   7.726
    7AU       S 2898  20.011  34.986   8.253
    7AU     LIG 2899  19.641  35.208   8.378
    7AU     LIG 2900  19.540  35.528   8.689
    7AU     LIG 2901  19.414  35.683   9.102
    7AU     LIG 2902  19.118  35.738   9.458
    7AU       S 2903  20.156  35.504   7.520
    7AU     LIG 2904  19.679  35.640   7.418
    7AU     LIG 2905  19.185  35.778   7.468
    7AU     LIG 2906  18.709  35.936   7.580
    7AU     LIG 2907  18.377  36.087   7.912
    7AU    AUSL 2908  20.136  34.708   7.314
    7AU    AUSL 2909  20.390  35.104   7.206
    7AU     AUL 2910  20.022  35.020   7.270
    7AU       S 2911  19.753  34.601   6.961
    7AU     LIG 2912  19.384  34.877   6.784
    7AU     LIG 2913  18.969  35.113   6.913
    7AU     LIG 2914  18.492  35.194   6.996
    7AU     LIG 2915  18.095  35.426   7.122
    7AU       S 2916  20.098  35.457   7.014
    7AU     LIG 2917  19.763  35.632   6.717
    7AU     LIG 2918  19.703  35.963   6.378
    7AU     LIG 2919  19.542  36.414   6.302
    7AU     LIG 2920  19.229  36.725   6.140
    7AU    AUSL 2921  20.103  34.712   7.677
    7AU    AUSL 2922  20.051  34.388   7.374
    7AU     AUL 2923  19.822  34.742   7.455
    7AU       S 2924  19.593  34.287   7.494
    7AU     LIG 2925  19.185  34.264   7.420
    7AU     LIG 2926  18.938  34.065   7.176
    7AU     LIG 2927  18.543  34.004   7.258
    7AU     LIG 2928  18.210  33.761   7.317
    7AU       S 2929  19.689  34.700   7.973
    7AU     LIG 2930  19.276  34.840   8.161
    7AU     LIG 2931  18.902  35.111   8.217
    7AU     LIG 2932  18.432  35.092   8.125
    7AU     LIG 2933  18.128  35.437   7.979
    7AU    AUSL 2934  21.443  34.009   7.550
    7AU    AUSL 2935  21.396  34.172   7.892
    7AU     AUL 2936  21.699  34.276   7.906
    7AU       S 2937  21.738  33.721   7.600
    7AU     LIG 2938  22.054  33.374   7.529
    7AU     LIG 2939  22.514  33.246   7.506
    7AU     LIG 2940  22.995  33.156   7.521
    7AU     LIG 2941  23.287  32.799   7.668
    7AU       S 2942  21.649  33.796   8.082
    7AU     LIG 2943  21.965  33.593   8.371
    7AU     LIG 2944  22.063  33.295   8.741
    7AU     LIG 2945  22.332  33.075   9.067
    7AU     LIG 2946  22.645  33.159   9.404
    7AU    AUSL 2947  21.527  34.268   7.303
    7AU    AUSL 2948  21.272  33.906   7.224
    7AU     AUL 2949  21.607  33.981   7.165
    7AU       S 2950  21.980  33.880   7.473
    7AU     LIG 2951  22.400  33.729   7.349
    7AU     LIG 2952  22.834  33.584   7.256
    7AU     LIG 2953  23.256  33.422   7.145
    7AU     LIG 2954  23.709  33.344   7.066
    7AU       S 2955  21.528  33.681   6.765
    7AU     LIG 2956  21.764  33.297   6.653
    7AU     LIG 2957  21.966  32.897   6.505
    7AU     LIG 2958  22.181  32.613   6.217
    7AU     LIG 2959  22.535  32.316   6.174
    7AU    AUSL 2960  20.170  34.079   7.538
    7AU    AUSL 2961  20.217  34.281   7.075
    7AU     AUL 2962  19.978  34.048   7.252
    7AU       S 2963  19.935  34.162   6.751
    7AU     LIG 2964  19.524  33.943   6.654
    7AU     LIG 2965  19.358  33.497   6.633
    7AU     LIG 2966  19.047  33.200   6.420
    7AU     LIG 2967  18.725  33.099   6.071
    7AU       S 2968  19.615  34.032   7.584
    7AU     LIG 2969  19.253  33.756   7.441
    7AU     LIG 2970  18.803  33.592   7.418
    7AU     LIG 2971  18.447  33.511   7.701
    7AU     LIG 2972  18.233  33.129   7.871
    7AU    AUSL 2973  20.094  34.376   7.731
    7AU    AUSL 2974  20.346  33.947   7.820
    7AU     AUL 2975  20.024  34.064   7.876
    7AU       S 2976  20.119  33.706   8.211
    7AU     LIG 2977  19.859  33.322   8.148
    7AU     LIG 2978  19.615  32.926   8.196
    7AU     LIG 2979  19.546  32.593   8.490
    7AU     LIG 2980  19.242  32.456   8.800
    7AU       S 2981  19.601  34.292   7.718
    7AU     LIG 2982  19.257  33.993   7.904
    7AU     LIG 2983  18.847  34.001   7.718
    7AU     LIG 2984  18.411  34.054   7.770
    7AU     LIG 2985  17.961  33.961   7.783
    7AU    AUSL 2986  20.848  35.151   7.928
    7AU    AUSL 2987  20.461  35.133   7.821
    7AU     AUL 2988  20.677  35.213   8.220
    7AU       S 2989  20.223  35.434   8.028
    7AU     LIG 2990  19.913  35.683   8.345
    7AU     LIG 2991  19.725  36.026   8.651
    7AU     LIG 2992  19.597  36.509   8.726
    7AU     LIG 2993  19.323  36.916   8.747
    7AU       S 2994  20.746  35.654   8.007
    7AU     LIG 2995  20.940  35.859   8.362
    7AU     LIG 2996  21.082  36.256   8.525
    7AU     LIG 2997  21.033  36.693   8.648
    7AU     LIG 2998  21.002  36.940   9.046
    7AU    AUSL 2999  20.695  35.277   7.615
    7AU    AUSL 3000  21.056  35.250   7.301
    7AU     AUL 3001  20.869  35.539   7.410
    7AU       S 3002  20.586  35.693   7.802
    7AU     LIG 3003  20.629  36.135   8.035
    7AU     LIG 3004  20.784  36.541   8.204
    7AU     LIG 3005  20.539  36.936   8.291
    7AU     LIG 3006  20.111  37.151   8.212
    7AU       S 3007  21.162  35.682   7.007
    7AU     LIG 3008  21.469  35.980   6.868
    7AU     LIG 3009  21.444  36.437   6.765
    7AU     LIG 3010  21.598  36.875   6.672
    7AU     LIG 3011  21.738  37.313   6.804
    7AU    AUSL 3012  21.054  35.267   7.649
    7AU    AUSL 3013  21.134  34.981   8.063
    7AU     AUL 3014  21.157  35.333   7.973
    7AU       S 3015  21.427  35.199   8.375
    7AU     LIG 3016  21.624  35.395   8.735
    7AU     LIG 3017  22.011  35.516   8.940
    7AU     LIG 3018  22.287  35.833   9.135
    7AU     LIG 3019  22.351  36.236   9.353
    7AU       S 3020  20.954  35.776   7.841
    7AU     LIG 3021  21.145  36.188   8.013
    7AU     LIG 3022  21.329  36.599   8.202
    7AU     LIG 3023  21.660  36.972   8.189
    7AU     LIG 3024  21.860  37.385   8.332
    7AU    AUSL 3025  20.852  33.889   7.942
    7AU    AUSL 3026  21.197  33.890   7.809
    7AU     AUL 3027  20.966  33.804   8.215
    7AU       S 3028  20.968  33.336   8.003
    7AU     LIG 3029  20.702  32.942   8.170
    7AU     LIG 3030  20.411  32.554   8.306
    7AU     LIG 3031  20.378  32.156   8.580
    7AU     LIG 3032  20.202  31.834   8.872
    7AU       S 3033  21.425  33.603   7.967
    7AU     LIG 3034  21.786  33.316   7.975
    7AU     LIG 3035  22.004  33.047   8.293
    7AU     LIG 3036  22.205  32.786   8.643
    7AU     LIG 3037  22.508  32.451   8.807
    7AU    AUSL 3038  20.628  33.832   7.673
    7AU    AUSL 3039  20.573  34.034   8.090
    7AU     AUL 3040  20.568  33.678   7.991
    7AU       S 3041  20.772  33.250   7.767
    7AU     LIG 3042  20.476  32.854   7.705
    7AU     LIG 3043  20.261  32.410   7.827
    7AU     LIG 3044  20.242  31.995   8.092
    7AU     LIG 3045  20.308  31.638   8.396
    7AU       S 3046  20.333  33.831   8.430
    7AU     LIG 3047  19.973  33.502   8.630
    7AU     LIG 3048  19.799  33.054   8.660
    7AU     LIG 3049  19.634  32.751   8.979
    7AU     LIG 3050  19.592  32.629   9.419
    7AU    AUSL 3051  20.940  33.725   7.644
    7AU    AUSL 3052  20.597  33.767   7.331
    7AU     AUL 3053  20.459  33.603   7.624
    7AU       S 3054  20.608  33.305   7.244
    7AU     LIG 3055  20.293  32.967   7.175
    7AU     LIG 3056  20.059  32.652   6.924
    7AU     LIG 3057  20.118  32.219   6.786
    7AU     LIG 3058  20.257  31.778   6.744
    7AU       S 3059  21.054  33.348   7.731
    7AU     LIG 3060  21.038  32.847   7.758
    7AU     LIG 3061  20.778  32.493   7.917
    7AU     LIG 3062  20.725  32.137   8.196
    7AU     LIG 3063  20.859  31.709   8.309
    7AU    AUSL 3064  20.884  35.102   6.977
    7AU    AUSL 3065  21.359  35.095   7.251
    7AU     AUL 3066  21.188  35.188   7.008
    7AU       S 3067  20.993  35.523   6.700
    7AU     LIG 3068  21.157  35.884   6.476
    7AU     LIG 3069  21.143  36.335   6.356
    7AU     LIG 3070  21.111  36.657   6.001
    7AU     LIG 3071  21.105  36.824   5.541
    7AU       S 3072  21.611  35.425   6.931
    7AU     LIG 3073  21.915  35.731   6.744
    7AU     LIG 3074  22.242  35.871   6.438
    7AU     LIG 3075  22.470  36.233   6.261
    7AU     LIG 3076  22.532  36.589   5.986
    7AU    AUSL 3077  20.706  35.247   7.262
    7AU    AUSL 3078  20.565  34.968   6.926
    7AU     AUL 3079  20.581  35.305   6.939
    7AU       S 3080  20.879  35.710   6.934
    7AU     LIG 3081  20.984  36.173   6.857
    7AU     LIG 3082  20.901  36.623   6.735
    7AU     LIG 3083  20.552  36.968   6.755
    7AU     LIG 3084  20.219  37.305   6.658
    7AU       S 3085  20.123  35.271   6.729
    7AU     LIG 3086  20.035  35.483   6.307
    7AU     LIG 3087  19.830  35.692   5.934
    7AU     LIG 3088  19.798  35.797   5.467
    7AU     LIG 3089  19.691  35.915   5.025
    7AU    AUSL 3090  20.772  33.860   7.032
    7AU    AUSL 3091  20.327  33.967   7.230
    7AU     AUL 3092  20.448  33.735   6.977
    7AU       S 3093  19.977  33.816   6.818
    7AU     LIG 3094  19.827  33.355   6.851
    7AU     LIG 3095  19.625  32.931   6.753
    7AU     LIG 3096  19.272  32.736   6.504
    7AU     LIG 3097  18.814  32.692   6.368
    7AU       S 3098  20.734  33.314   6.996
    7AU     LIG 3099  20.633  32.922   6.785
    7AU     LIG 3100  20.413  32.579   6.553
    7AU     LIG 3101  20.361  32.172   6.334
    7AU     LIG 3102  20.503  31.738   6.289
    7AU    AUSL 3103  20.965  33.757   7.313
    7AU    AUSL 3104  21.065  34.005   6.928
    7AU     AUL 3105  21.099  33.662   7.013
    7AU       S 3106  20.888  33.284   7.274
    7AU     LIG 3107  20.783  32.830   7.290
    7AU     LIG 3108  20.547  32.499   7.063
    7AU     LIG 3109  20.630  32.151   6.776
    7AU     LIG 3110  20.916  31.831   6.609
    7AU       S 3111  21.268  33.835   6.559
    7AU     LIG 3112  21.348  33.452   6.332
    7AU     LIG 3113  21.643  33.139   6.175
    7AU     LIG 3114  21.955  32.977   5.876
    7AU     LIG 3115  22.000  33.029   5.400
    8AU     AUC 3116  33.311  27.838   7.496
    8AU     AUC 3117  33.581  27.821   7.337
    8AU     AUC 3118  33.578  27.826   7.663
    8AU     AUC 3119  33.045  27.848   7.332
    8AU     AUC 3120  33.045  27.855   7.661
    8AU     AUC 3121  33.165  28.113   7.488
    8AU     AUC 3122  33.496  28.097   7.493
    8AU     AUC 3123  33.126  27.577   7.498
    8AU     AUC 3124  33.456  27.559   7.497
    8AU     AUC 3125  33.299  27.677   7.763
    8AU     AUC 3126  33.322  28.004   7.762
    8AU     AUC 3127  33.303  27.667   7.232
    8AU     AUC 3128  33.327  27.997   7.224
    8AU     AUC 3129  33.839  27.803   7.189
    8AU     AUC 3130  33.856  27.804   7.505
    8AU     AUC 3131  33.840  27.811   7.812
    8AU     AUC 3132  32.789  27.854   7.167
    8AU     AUC 3133  32.767  27.863   7.505
    8AU     AUC 3134  32.792  27.878   7.828
    8AU     AUC 3135  33.031  28.387   7.475
    8AU     AUC 3136  33.343  28.381   7.469
    8AU     AUC 3137  33.674  28.345   7.492
    8AU     AUC 3138  32.947  27.329   7.502
    8AU     AUC 3139  33.275  27.290   7.489
    8AU     AUC 3140  33.598  27.285   7.506
    8AU     AUC 3141  33.284  27.517   8.019
    8AU     AUC 3142  33.304  27.837   8.049
    8AU     AUC 3143  33.332  28.160   8.021
    8AU     AUC 3144  33.306  27.504   6.979
    8AU     AUC 3145  33.339  27.831   6.949
    8AU     AUC 3146  33.352  28.140   6.956
    8AU     AUC 3147  33.565  27.659   7.938
    8AU     AUC 3148  33.599  27.995   7.941
    8AU     AUC 3149  33.581  27.651   7.065
    8AU     AUC 3150  33.608  27.993   7.063
    8AU     AUC 3151  33.030  27.692   7.942
    8AU     AUC 3152  33.051  28.023   7.936
    8AU     AUC 3153  33.033  27.676   7.065
    8AU     AUC 3154  33.052  27.993   7.041
    8AU     AUC 3155  33.778  28.086   7.347
    8AU     AUC 3156  33.776  28.094   7.675
    8AU     AUC 3157  32.890  28.134   7.316
    8AU     AUC 3158  32.893  28.147   7.662
    8AU     AUC 3159  33.727  27.529   7.338
    8AU     AUC 3160  33.732  27.540   7.658
    8AU     AUC 3161  32.840  27.587   7.340
    8AU     AUC 3162  32.854  27.584   7.678
    8AU     AUC 3163  33.177  28.293   7.749
    8AU     AUC 3164  33.504  28.272   7.762
    8AU     AUC 3165  33.117  27.409   7.773
    8AU     AUC 3166  33.449  27.392   7.767
    8AU     AUC 3167  33.176  28.276   7.207
    8AU     AUC 3168  33.524  28.266   7.206
    8AU     AUC 3169  33.110  27.396   7.225
    8AU     AUC 3170  33.447  27.376   7.222
    8AU    AUSL 3171  33.792  27.771   8.101
    8AU    AUSL 3172  33.598  27.418   8.097
    8AU     AUL 3173  33.678  27.723   8.409
    8AU       S 3174  33.893  27.045   8.239
    8AU     LIG 3175  33.800  26.667   8.448
    8AU     LIG 3176  34.029  26.452   8.758
    8AU     LIG 3177  34.279  26.190   9.050
    8AU     LIG 3178  34.593  25.941   9.287
    8AU       S 3179  34.078  27.447   8.459
    8AU     LIG 3180  34.162  27.534   8.911
    8AU     LIG 3181  34.314  27.526   9.358
    8AU     LIG 3182  34.576  27.440   9.741
    8AU     LIG 3183  35.002  27.426   9.958
    8AU    AUSL 3184  33.389  27.629   8.251
    8AU    AUSL 3185  33.182  27.990   8.267
    8AU     AUL 3186  33.370  27.816   8.572
    8AU       S 3187  33.714  27.295   8.635
    8AU     LIG 3188  33.712  27.369   9.103
    8AU     LIG 3189  33.853  27.395   9.553
    8AU     LIG 3190  34.093  27.329   9.953
    8AU     LIG 3191  34.220  27.231  10.401
    8AU       S 3192  32.899  27.854   8.739
    8AU     LIG 3193  32.817  27.856   9.195
    8AU     LIG 3194  32.653  27.782   9.620
    8AU     LIG 3195  32.465  27.801  10.040
    8AU     LIG 3196  32.425  28.073  10.417
    8AU    AUSL 3197  33.529  28.021   8.236
    8AU    AUSL 3198  33.890  28.103   7.991
    8AU     AUL 3199  33.914  27.985   8.356
    8AU       S 3200  33.543  28.304   8.611
    8AU     LIG 3201  33.767  28.426   9.019
    8AU     LIG 3202  33.822  28.473   9.500
    8AU     LIG 3203  33.772  28.468   9.987
    8AU     LIG 3204  33.847  28.575  10.445
    8AU       S 3205  34.159  28.414   8.273
    8AU     LIG 3206  34.574  28.378   8.416
    8AU     LIG 3207  34.864  28.625   8.663
    8AU     LIG 3208  35.029  28.862   9.021
    8AU     LIG 3209  35.171  29.158   9.350
    8AU    AUSL 3210  33.794  27.862   6.899
    8AU    AUSL 3211  33.679  28.249   6.900
    8AU     AUL 3212  34.081  28.045   6.811
    8AU       S 3213  33.910  27.880   6.365
    8AU     LIG 3214  34.152  27.732   5.969
    8AU     LIG 3215  34.341  27.494   5.608
    8AU     LIG 3216  34.584  27.348   5.237
    8AU     LIG 3217  34.967  27.414   4.969
    8AU       S 3218  33.945  28.507   6.609
    8AU     LIG 3219  34.085  28.861   6.340
    8AU     LIG 3220  34.417  28.955   6.009
    8AU     LIG 3221  34.652  29.271   5.747
    8AU     LIG 3222  34.790  29.590   5.424
    8AU    AUSL 3223  33.573  27.639   6.770
    8AU    AUSL 3224  33.832  27.514   7.016
    8AU     AUL 3225  34.050  27.667   6.834
    8AU       S 3226  33.982  27.225   6.605
    8AU     LIG 3227  34.283  27.016   6.291
    8AU     LIG 3228  34.558  26.611   6.227
    8AU     LIG 3229  34.804  26.301   5.970
    8AU     LIG 3230  35.180  26.248   5.676
    8AU       S 3231  33.825  27.642   6.363
    8AU     LIG 3232  33.894  27.298   6.077
    8AU     LIG 3233  33.933  27.185   5.638
    8AU     LIG 3234  34.051  27.306   5.197
    8AU     LIG 3235  33.942  27.397   4.740
    8AU    AUSL 3236  33.505  27.990   6.731
    8AU    AUSL 3237  33.191  27.668   6.788
    8AU     AUL 3238  33.352  27.686   6.498
    8AU       S 3239  32.881  27.734   6.296
    8AU     LIG 3240  32.950  27.488   5.931
    8AU     LIG 3241  32.690  27.325   5.598
    8AU     LIG 3242  32.491  27.359   5.176
    8AU     LIG 3243  32.285  27.407   4.755
    8AU       S 3244  33.697  28.042   6.351
    8AU     LIG 3245  33.645  27.808   5.917
    8AU     LIG 3246  33.866  27.696   5.511
    8AU     LIG 3247  33.990  27.810   5.062
    8AU     LIG 3248  33.895  27.907   4.596
    8AU    AUSL 3249  32.852  27.940   8.142
    8AU    AUSL 3250  33.054  28.264   8.063
    8AU     AUL 3251  32.983  28.236   8.412
    8AU       S 3252  32.667  27.862   8.624
    8AU     LIG 3253  32.458  27.579   8.962
    8AU     LIG 3254  32.254  27.530   9.406
    8AU     LIG 3255  32.042  27.558   9.838
    8AU     LIG 3256  31.762  27.456  10.224
    8AU       S 3257  32.644  28.595   8.246
    8AU     LIG 3258  32.573  28.781   8.690
    8AU     LIG 3259  32.458  28.991   9.099
    8AU     LIG 3260  32.195  29.258   9.374
    8AU     LIG 3261  31.894  29.360   9.727
    8AU    AUSL 3262  33.037  27.664   8.225
    8AU    AUSL 3263  32.772  27.582   7.974
    8AU     AUL 3264  32.578  27.752   8.148
    8AU       S 3265  32.558  27.281   8.354
    8AU     LIG 3266  32.096  27.130   8.309
    8AU     LIG 3267  31.827  26.781   8.453
    8AU     LIG 3268  31.638  26.493   8.760
    8AU     LIG 3269  31.408  26.155   9.006
    8AU       S 3270  32.869  27.605   8.596
    8AU     LIG 3271  32.936  27.389   8.991
    8AU     LIG 3272  32.725  27.322   9.398
    8AU     LIG 3273  32.510  27.322   9.827
    8AU     LIG 3274  32.281  27.344  10.250
    8AU    AUSL 3275  32.875  27.803   6.832
    8AU    AUSL 3276  32.988  27.412   6.939
    8AU     AUL 3277  33.089  27.418   6.622
    8AU       S 3278  32.684  27.760   6.427
    8AU     LIG 3279  32.449  27.567   6.043
    8AU     LIG 3280  32.234  27.567   5.601
    8AU     LIG 3281  31.984  27.470   5.193
    8AU     LIG 3282  31.760  27.416   4.774
    8AU       S 3283  32.600  27.286   6.607
    8AU     LIG 3284  32.423  26.883   6.373
    8AU     LIG 3285  32.169  26.482   6.281
    8AU     LIG 3286  31.943  26.245   5.937
    8AU     LIG 3287  31.985  26.229   5.461
    8AU    AUSL 3288  33.163  28.014   6.724
    8AU    AUSL 3289  32.739  28.119   7.004
    8AU     AUL 3290  32.860  28.173   6.669
    8AU       S 3291  32.388  28.347   6.741
    8AU     LIG 3292  32.142  28.627   6.443
    8AU     LIG 3293  32.050  28.794   6.001
    8AU     LIG 3294  31.767  28.974   5.671
    8AU     LIG 3295  31.383  29.081   5.415
    8AU       S 3296  33.003  27.966   6.240
    8AU     LIG 3297  32.743  27.949   5.840
    8AU     LIG 3298  32.654  27.806   5.400
    8AU     LIG 3299  32.577  27.820   4.925
    8AU     LIG 3300  32.610  28.024   4.481
    8AU    AUSL 3301  34.002  28.251   7.484
    8AU    AUSL 3302  33.917  28.108   7.113
    8AU     AUL 3303  34.258  28.201   7.179
    8AU       S 3304  34.152  28.537   6.792
    8AU     LIG 3305  34.455  28.516   6.437
    8AU     LIG 3306  34.772  28.589   6.117
    8AU     LIG 3307  34.986  28.887   5.846
    8AU     LIG 3308  35.151  29.241   5.574
    8AU       S 3309  34.570  28.267   7.587
    8AU     LIG 3310  35.011  28.488   7.623
    8AU     LIG 3311  35.460  28.600   7.489
    8AU     LIG 3312  35.856  28.839   7.461
    8AU     LIG 3313  36.089  29.048   7.793
    8AU    AUSL 3314  34.081  27.922   7.363
    8AU    AUSL 3315  34.086  27.649   7.620
    8AU     AUL 3316  34.315  27.705   7.217
    8AU       S 3317  34.577  27.978   7.549
    8AU     LIG 3318  34.973  28.083   7.321
    8AU     LIG 3319  35.417  28.185   7.201
    8AU     LIG 3320  35.832  28.232   7.001
    8AU     LIG 3321  36.179  28.519   7.163
    8AU       S 3322  34.527  27.413   7.635
    8AU     LIG 3323  34.888  27.104   7.778
    8AU     LIG 3324  35.363  26.944   7.735
    8AU     LIG 3325  35.831  27.005   7.848
    8AU     LIG 3326  36.302  27.160   7.931
    8AU    AUSL 3327  34.064  27.977   7.721
    8AU    AUSL 3328  33.804  28.395   7.776
    8AU     AUL 3329  34.120  28.342   7.778
    8AU       S 3330  34.100  28.676   8.157
    8AU     LIG 3331  34.454  28.881   8.425
    8AU     LIG 3332  34.784  29.151   8.660
    8AU     LIG 3333  35.077  29.521   8.766
    8AU     LIG 3334  35.316  29.951   8.667
    8AU       S 3335  34.502  27.995   7.813
    8AU     LIG 3336  34.979  28.042   7.881
    8AU     LIG 3337  35.420  28.242   7.863
    8AU     LIG 3338  35.805  28.540   7.894
    8AU     LIG 3339  36.242  28.561   7.683
    8AU    AUSL 3340  32.747  28.368   7.515
    8AU    AUSL 3341  32.735  28.185   7.924
    8AU     AUL 3342  32.440  28.385   7.706
    8AU       S 3343  32.473  28.340   8.230
    8AU     LIG 3344  32.152  28.586   8.478
    8AU     LIG 3345  32.034  28.771   8.905
    8AU     LIG 3346  31.815  28.920   9.312
    8AU     LIG 3347  31.573  28.941   9.729
    8AU       S 3348  32.622  28.832   7.503
    8AU     LIG 3349  32.132  28.991   7.486
    8AU     LIG 3350  31.635  29.146   7.544
    8AU     LIG 3351  31.164  29.325   7.660
    8AU     LIG 3352  30.807  29.629   7.849
    8AU    AUSL 3353  32.612  28.037   7.304
    8AU    AUSL 3354  32.863  28.424   7.190
    8AU     AUL 3355  32.495  28.350   7.250
    8AU       S 3356  32.229  27.926   6.952
    8AU     LIG 3357  31.881  28.283   6.881
    8AU     LIG 3358  31.429  28.502   6.924
    8AU     LIG 3359  30.937  28.617   6.940
    8AU     LIG 3360  30.464  28.500   6.907
    8AU       S 3361  32.636  28.793   7.006
    8AU     LIG 3362  32.333  29.037   6.714
    8AU     LIG 3363  32.214  29.196   6.280
    8AU     LIG 3364  32.063  29.562   6.003
    8AU     LIG 3365  31.971  30.016   5.885
    8AU    AUSL 3366  32.574  28.039   7.666
    8AU    AUSL 3367  32.525  27.715   7.356
    8AU     AUL 3368  32.297  28.072   7.442
    8AU       S 3369  32.043  27.621   7.442
    8AU     LIG 3370  31.574  27.460   7.396
    8AU     LIG 3371  31.100  27.335   7.346
    8AU     LIG 3372  30.634  27.205   7.304
    8AU     LIG 3373  30.213  27.085   7.100
    8AU       S 3374  32.152  28.036   7.959
    8AU     LIG 3375  31.681  28.201   8.017
    8AU     LIG 3376  31.263  28.500   8.083
    8AU     LIG 3377  30.807  28.724   8.184
    8AU     LIG 3378  30.368  28.661   8.394
    8AU    AUSL 3379  33.924  27.336   7.561
    8AU    AUSL 3380  33.861  27.509   7.887
    8AU     AUL 3381  34.156  27.573   7.924
    8AU       S 3382  34.283  27.125   7.637
    8AU     LIG 3383  34.534  26.750   7.632
    8AU     LIG 3384  34.989  26.622   7.572
    8AU     LIG 3385  35.425  26.432   7.511
    8AU     LIG 3386  35.632  25.985   7.527
    8AU       S 3387  34.104  27.099   8.101
    8AU     LIG 3388  34.300  26.831   8.446
    8AU     LIG 3389  34.533  26.528   8.700
    8AU     LIG 3390  34.772  26.352   9.024
    8AU     LIG 3391  35.078  26.191   9.323
    8AU    AUSL 3392  34.003  27.574   7.304
    8AU    AUSL 3393  33.740  27.246   7.235
    8AU     AUL 3394  34.064  27.258   7.177
    8AU       S 3395  34.477  27.270   7.456
    8AU     LIG 3396  34.822  27.022   7.274
    8AU     LIG 3397  35.271  26.884   7.227
    8AU     LIG 3398  35.715  26.827   7.314
    8AU     LIG 3399  36.105  26.652   7.084
    8AU       S 3400  33.991  27.011   6.735
    8AU     LIG 3401  34.173  26.613   6.575
    8AU     LIG 3402  34.242  26.177   6.498
    8AU     LIG 3403  34.509  25.812   6.333
    8AU     LIG 3404  34.931  25.606   6.198
    8AU    AUSL 3405  32.643  27.409   7.525
    8AU    AUSL 3406  32.697  27.603   7.063
    8AU     AUL 3407  32.449  27.365   7.250
    8AU       S 3408  32.422  27.478   6.744
    8AU     LIG 3409  32.074  27.245   6.488
    8AU     LIG 3410  31.826  26.842   6.394
    8AU     LIG 3411  31.555  26.495   6.190
    8AU     LIG 3412  31.143  26.291   6.030
    8AU       S 3413  32.069  27.391   7.580
    8AU     LIG 3414  31.730  27.143   7.770
    8AU     LIG 3415  31.333  26.951   7.601
    8AU     LIG 3416  30.926  26.757   7.455
    8AU     LIG 3417  30.491  26.778   7.552
    8AU    AUSL 3418  32.560  27.702   7.715
    8AU    AUSL 3419  32.817  27.268   7.802
    8AU     AUL 3420  32.491  27.378   7.853
    8AU       S 3421  32.572  27.018   8.195
    8AU     LIG 3422  32.256  26.634   8.203
    8AU     LIG 3423  31.910  26.283   8.297
    8AU     LIG 3424  31.597  26.024   8.542
    8AU     LIG 3425  31.433  25.670   8.806
    8AU       S 3426  32.084  27.636   7.679
    8AU     LIG 3427  31.673  27.656   7.865
    8AU     LIG 3428  31.267  27.410   7.834
    8AU     LIG 3429  30.850  27.162   7.780
    8AU     LIG 3430  30.400  27.091   7.951
    8AU    AUSL 3431  33.312  28.480   7.926
    8AU    AUSL 3432  32.948  28.466   7.802
    8AU     AUL 3433  33.154  28.529   8.222
    8AU       S 3434  32.714  28.768   7.994
    8AU     LIG 3435  32.386  29.023   8.271
    8AU     LIG 3436  32.220  29.205   8.688
    8AU     LIG 3437  32.046  29.567   8.970
    8AU     LIG 3438  31.868  30.021   9.059
    8AU       S 3439  33.172  28.971   7.996
    8AU     LIG 3440  33.294  29.211   8.368
    8AU     LIG 3441  33.500  29.585   8.537
    8AU     LIG 3442  33.475  30.041   8.620
    8AU     LIG 3443  33.379  30.317   8.988
    8AU    AUSL 3444  33.194  28.620   7.592
    8AU    AUSL 3445  33.509  28.567   7.301
    8AU     AUL 3446  33.565  28.855   7.478
    8AU       S 3447  33.076  29.010   7.698
    8AU     LIG 3448  33.037  29.456   7.971
    8AU     LIG 3449  33.216  29.847   8.191
    8AU     LIG 3450  33.107  30.299   8.301
    8AU     LIG 3451  32.765  30.647   8.206
    8AU       S 3452  33.430  29.068   7.045
    8AU     LIG 3453  33.669  29.506   6.950
    8AU     LIG 3454  33.790  29.970   6.820
    8AU     LIG 3455  34.058  30.396   6.805
    8AU     LIG 3456  34.124  30.805   6.553
    8AU    AUSL 3457  33.526  28.557   7.656
    8AU    AUSL 3458  33.600  28.313   8.061
    8AU     AUL 3459  33.627  28.672   7.964
    8AU       S 3460  33.902  28.530   8.371
    8AU     LIG 3461  34.190  28.576   8.746
    8AU     LIG 3462  34.497  28.840   8.960
    8AU     LIG 3463  34.675  29.202   9.189
    8AU     LIG 3464  34.770  29.348   9.629
    8AU       S 3465  33.351  29.086   7.857
    8AU     LIG 3466  33.562  29.486   8.021
    8AU     LIG 3467  33.751  29.893   8.197
    8AU     LIG 3468  33.965  30.316   8.269
    8AU     LIG 3469  34.124  30.750   8.149
    8AU    AUSL 3470  33.320  27.212   7.934
    8AU    AUSL 3471  33.666  27.226   7.810
    8AU     AUL 3472  33.406  27.176   8.222
    8AU       S 3473  33.487  26.705   8.042
    8AU     LIG 3474  33.355  26.328   8.308
    8AU     LIG 3475  33.113  25.924   8.336
    8AU     LIG 3476  33.154  25.471   8.429
    8AU     LIG 3477  33.479  25.171   8.572
    8AU       S 3478  33.915  26.942   7.954
    8AU     LIG 3479  34.112  26.540   8.067
    8AU     LIG 3480  34.326  26.227   8.349
    8AU     LIG 3481  34.566  25.981   8.681
    8AU     LIG 3482  34.960  25.879   8.915
    8AU    AUSL 3483  33.101  27.137   7.667
    8AU    AUSL 3484  33.037  27.358   8.076
    8AU     AUL 3485  33.024  26.999   7.975
    8AU       S 3486  33.311  26.594   7.867
    8AU     LIG 3487  33.075  26.185   7.882
    8AU     LIG 3488  32.904  25.740   7.880
    8AU     LIG 3489  32.947  25.297   7.999
    8AU     LIG 3490  32.750  24.886   8.081
    8AU       S 3491  32.791  27.151   8.413
    8AU     LIG 3492  32.420  26.869   8.644
    8AU     LIG 3493  32.168  26.460   8.700
    8AU     LIG 3494  31.937  26.124   8.950
    8AU     LIG 3495  31.767  26.168   9.383
    8AU    AUSL 3496  33.425  27.047   7.639
    8AU    AUSL 3497  33.074  27.089   7.319
    8AU     AUL 3498  33.003  26.858   7.584
    8AU       S 3499  33.133  26.608   7.156
    8AU     LIG 3500  32.938  26.207   6.970
    8AU     LIG 3501  32.853  25.741   6.985
    8AU     LIG 3502  32.984  25.296   7.051
    8AU     LIG 3503  32.732  24.996   6.836
    8AU       S 3504  33.548  26.677   7.734
    8AU     LIG 3505  33.592  26.201   7.864
    8AU     LIG 3506  33.425  25.769   7.954
    8AU     LIG 3507  33.480  25.306   8.052
    8AU     LIG 3508  33.746  24.944   8.192
    8AU    AUSL 3509  33.368  28.432   6.982
    8AU    AUSL 3510  33.818  28.418   7.238
    8AU     AUL 3511  33.647  28.609   6.996
    8AU       S 3512  33.339  28.948   6.790
    8AU     LIG 3513  33.619  29.202   6.538
    8AU     LIG 3514  33.611  29.654   6.440
    8AU     LIG 3515  33.507  30.049   6.197
    8AU     LIG 3516  33.516  30.292   5.767
    8AU       S 3517  34.137  28.689   6.983
    8AU     LIG 3518  34.440  28.957   6.706
    8AU     LIG 3519  34.769  29.044   6.368
    8AU     LIG 3520  35.036  29.331   6.097
    8AU     LIG 3521  35.399  29.575   5.918
    8AU    AUSL 3522  33.162  28.582   7.246
    8AU    AUSL 3523  33.060  28.256   6.955
    8AU     AUL 3524  33.064  28.544   6.861
    8AU       S 3525  33.139  29.007   7.101
    8AU     LIG 3526  33.190  29.440   6.788
    8AU     LIG 3527  33.239  29.929   6.684
    8AU     LIG 3528  32.997  30.375   6.654
    8AU     LIG 3529  32.808  30.835   6.659
    8AU       S 3530  32.579  28.594   6.752
    8AU     LIG 3531  32.609  28.816   6.336
    8AU     LIG 3532  32.519  28.988   5.911
    8AU     LIG 3533  32.219  29.225   5.653
    8AU     LIG 3534  32.033  29.596   5.425
    8AU    AUSL 3535  33.255  27.181   7.019
    8AU    AUSL 3536  32.803  27.293   7.220
    8AU     AUL 3537  32.920  27.048   6.980
    8AU       S 3538  32.462  27.165   6.798
    8AU     LIG 3539  32.151  26.825   6.808
    8AU     LIG 3540  31.909  26.441   6.727
    8AU     LIG 3541  31.802  26.114   6.429
    8AU     LIG 3542  31.487  25.908   6.162
    8AU       S 3543  33.263  26.663   6.909
    8AU     LIG 3544  33.294  26.295   6.604
    8AU     LIG 3545  33.215  25.834   6.620
    8AU     LIG 3546  32.983  25.403   6.550
    8AU     LIG 3547  32.855  24.966   6.341
    8AU    AUSL 3548  33.436  27.082   7.309
    8AU    AUSL 3549  33.542  27.338   6.924
    8AU     AUL 3550  33.606  27.003   7.040
    8AU       S 3551  33.398  26.597   7.251
    8AU     LIG 3552  33.427  26.152   7.079
    8AU     LIG 3553  33.344  25.705   7.096
    8AU     LIG 3554  33.490  25.315   6.905
    8AU     LIG 3555  33.700  24.932   6.706
    8AU       S 3556  33.709  27.160   6.560
    8AU     LIG 3557  33.797  26.822   6.284
    8AU     LIG 3558  34.094  26.585   6.041
    8AU     LIG 3559  34.292  26.162   5.986
    8AU     LIG 3560  34.601  25.832   5.828
    9AU     AUC 3561  28.180  15.359   7.493
    9AU     AUC 3562  28.448  15.338   7.333
    9AU     AUC 3563  28.448  15.346   7.659
    9AU     AUC 3564  27.912  15.373   7.328
    9AU     AUC 3565  27.914  15.384   7.659
    9AU     AUC 3566  28.037  15.634   7.482
    9AU     AUC 3567  28.368  15.613   7.488
    9AU     AUC 3568  27.992  15.104   7.499
    9AU     AUC 3569  28.322  15.079   7.497
    9AU     AUC 3570  28.167  15.203   7.763
    9AU     AUC 3571  28.195  15.528   7.758
    9AU     AUC 3572  28.168  15.187   7.231
    9AU     AUC 3573  28.195  15.516   7.218
    9AU     AUC 3574  28.702  15.318   7.184
    9AU     AUC 3575  28.723  15.318   7.500
    9AU     AUC 3576  28.709  15.328   7.807
    9AU     AUC 3577  27.656  15.380   7.165
    9AU     AUC 3578  27.635  15.395   7.503
    9AU     AUC 3579  27.663  15.415   7.825
    9AU     AUC 3580  27.908  15.909   7.468
    9AU     AUC 3581  28.217  15.891   7.460
    9AU     AUC 3582  28.552  15.857   7.483
    9AU     AUC 3583  27.807  14.861   7.508
    9AU     AUC 3584  28.137  14.816   7.492
    9AU     AUC 3585  28.460  14.801   7.506
    9AU     AUC 3586  28.152  15.049   8.021
    9AU     AUC 3587  28.175  15.368   8.048
    9AU     AUC 3588  28.208  15.690   8.016
    9AU     AUC 3589  28.169  15.022   6.981
    9AU     AUC 3590  28.204  15.348   6.946
    9AU     AUC 3591  28.217  15.660   6.947
    9AU     AUC 3592  28.433  15.182   7.936
    9AU     AUC 3593  28.472  15.516   7.937
    9AU     AUC 3594  28.445  15.165   7.064
    9AU     AUC 3595  28.472  15.511   7.056
    9AU     AUC 3596  27.900  15.228   7.943
    9AU     AUC 3597  27.925  15.557   7.932
    9AU     AUC 3598  27.898  15.200   7.064
    9AU     AUC 3599  27.918  15.517   7.033
    9AU     AUC 3600  28.647  15.603   7.340
    9AU     AUC 3601  28.653  15.611   7.666
    9AU     AUC 3602  27.762  15.659   7.309
    9AU     AUC 3603  27.767  15.678   7.655
    9AU     AUC 3604  28.591  15.041   7.335
    9AU     AUC 3605  28.597  15.057   7.656
    9AU     AUC 3606  27.703  15.116   7.343
    9AU     AUC 3607  27.721  15.117   7.680
    9AU     AUC 3608  28.056  15.818   7.744
    9AU     AUC 3609  28.383  15.785   7.759
    9AU     AUC 3610  27.983  14.942   7.777
    9AU     AUC 3611  28.316  14.916   7.768
    9AU     AUC 3612  28.042  15.792   7.197
    9AU     AUC 3613  28.392  15.784   7.202
    9AU     AUC 3614  27.970  14.921   7.230
    9AU     AUC 3615  28.310  14.893   7.224
    9AU    AUSL 3616  28.660  15.290   8.100
    9AU    AUSL 3617  28.465  14.942   8.100
    9AU     AUL 3618  28.543  15.256   8.410
    9AU       S 3619  28.778  14.571   8.246
    9AU     LIG 3620  28.770  14.141   8.388
    9AU     LIG 3621  28.958  13.843   8.692
    9AU     LIG 3622  29.256  13.613   8.973
    9AU     LIG 3623  29.562  13.435   9.281
    9AU       S 3624  28.946  14.981   8.454
    9AU     LIG 3625  29.016  15.076   8.889
    9AU     LIG 3626  29.131  15.070   9.330
    9AU     LIG 3627  29.427  15.021   9.685
    9AU     LIG 3628  29.821  15.037   9.942
    9AU    AUSL 3629  28.256  15.157   8.249
    9AU    AUSL 3630  28.054  15.529   8.265
    9AU     AUL 3631  28.229  15.339   8.569
    9AU       S 3632  28.582  14.827   8.632
    9AU     LIG 3633  28.607  14.856   9.110
    9AU     LIG 3634  28.750  14.801   9.557
    9AU     LIG 3635  28.884  14.610   9.971
    9AU     LIG 3636  28.979  14.518  10.429
    9AU       S 3637  27.760  15.417   8.737
    9AU     LIG 3638  27.642  15.339   9.192
    9AU     LIG 3639  27.568  15.243   9.649
    9AU     LIG 3640  27.378  15.254  10.071
    9AU     LIG 3641  27.190  15.505  10.413
    9AU    AUSL 3642  28.402  15.551   8.231
    9AU    AUSL 3643  28.762  15.616   7.984
    9AU     AUL 3644  28.790  15.509   8.347
    9AU       S 3645  28.419  15.823   8.612
    9AU     LIG 3646  28.584  16.020   9.029
    9AU     LIG 3647  28.641  16.229   9.473
    9AU     LIG 3648  28.738  16.338   9.939
    9AU     LIG 3649  28.854  16.304  10.406
    9AU       S 3650  29.006  15.956   8.288
    9AU     LIG 3651  29.374  15.916   8.539
    9AU     LIG 3652  29.732  16.158   8.668
    9AU     LIG 3653  29.917  16.399   9.007
    9AU     LIG 3654  30.091  16.725   9.283
    9AU    AUSL 3655  28.657  15.377   6.896
    9AU    AUSL 3656  28.538  15.774   6.889
    9AU     AUL 3657  28.921  15.578   6.783
    9AU       S 3658  28.762  15.378   6.353
    9AU     LIG 3659  29.043  15.249   5.986
    9AU     LIG 3660  29.244  15.008   5.642
    9AU     LIG 3661  29.443  15.051   5.217
    9AU     LIG 3662  29.741  15.048   4.840
    9AU       S 3663  28.847  16.065   6.627
    9AU     LIG 3664  29.054  16.359   6.313
    9AU     LIG 3665  29.334  16.483   5.953
    9AU     LIG 3666  29.519  16.681   5.559
    9AU     LIG 3667  29.350  16.993   5.233
    9AU    AUSL 3668  28.440  15.150   6.774
    9AU    AUSL 3669  28.696  15.025   7.014
    9AU     AUL 3670  28.917  15.193   6.838
    9AU       S 3671  28.861  14.739   6.620
    9AU     LIG 3672  29.155  14.505   6.313
    9AU     LIG 3673  29.436  14.120   6.217
    9AU     LIG 3674  29.769  13.797   6.063
    9AU     LIG 3675  30.219  13.633   5.929
    9AU       S 3676  28.700  15.150   6.364
    9AU     LIG 3677  28.782  14.813   6.090
    9AU     LIG 3678  28.797  14.730   5.648
    9AU     LIG 3679  28.995  14.771   5.232
    9AU     LIG 3680  29.097  14.738   4.774
    9AU    AUSL 3681  28.368  15.496   6.723
    9AU    AUSL 3682  28.058  15.185   6.783
    9AU     AUL 3683  28.229  15.150   6.505
    9AU       S 3684  27.785  15.253   6.277
    9AU     LIG 3685  27.831  14.996   5.887
    9AU     LIG 3686  27.616  14.750   5.545
    9AU     LIG 3687  27.412  14.753   5.119
    9AU     LIG 3688  27.400  14.887   4.663
    9AU       S 3689  28.536  15.530   6.333
    9AU     LIG 3690  28.541  15.289   5.893
    9AU     LIG 3691  28.804  15.225   5.488
    9AU     LIG 3692  28.974  15.250   5.030
    9AU     LIG 3693  28.934  15.418   4.573
    9AU    AUSL 3694  27.723  15.483   8.137
    9AU    AUSL 3695  27.931  15.801   8.054
    9AU     AUL 3696  27.862  15.789   8.399
    9AU       S 3697  27.524  15.447   8.606
    9AU     LIG 3698  27.283  15.145   8.879
    9AU     LIG 3699  27.209  15.042   9.339
    9AU     LIG 3700  27.009  15.055   9.774
    9AU     LIG 3701  26.781  15.132  10.186
    9AU       S 3702  27.520  16.150   8.208
    9AU     LIG 3703  27.556  16.366   8.600
    9AU     LIG 3704  27.515  16.647   8.940
    9AU     LIG 3705  27.174  16.856   9.130
    9AU     LIG 3706  27.065  17.231   9.380
    9AU    AUSL 3707  27.904  15.206   8.226
    9AU    AUSL 3708  27.642  15.121   7.975
    9AU     AUL 3709  27.446  15.291   8.142
    9AU       S 3710  27.437  14.830   8.369
    9AU     LIG 3711  26.984  14.676   8.362
    9AU     LIG 3712  26.726  14.303   8.449
    9AU     LIG 3713  26.559  14.035   8.785
    9AU     LIG 3714  26.249  13.916   9.108
    9AU       S 3715  27.721  15.172   8.601
    9AU     LIG 3716  27.717  14.882   8.957
    9AU     LIG 3717  27.649  14.784   9.414
    9AU     LIG 3718  27.434  14.768   9.836
    9AU     LIG 3719  27.173  14.797  10.231
    9AU    AUSL 3720  27.740  15.318   6.827
    9AU    AUSL 3721  27.848  14.939   6.945
    9AU     AUL 3722  27.938  14.925   6.630
    9AU       S 3723  27.574  15.260   6.398
    9AU     LIG 3724  27.350  15.140   5.970
    9AU     LIG 3725  27.157  14.997   5.537
    9AU     LIG 3726  26.936  15.006   5.114
    9AU     LIG 3727  26.496  15.141   4.950
    9AU       S 3728  27.446  14.813   6.617
    9AU     LIG 3729  27.244  14.425   6.380
    9AU     LIG 3730  27.045  13.995   6.287
    9AU     LIG 3731  26.852  13.671   6.002
    9AU     LIG 3732  26.872  13.420   5.608
    9AU    AUSL 3733  28.028  15.531   6.719
    9AU    AUSL 3734  27.609  15.645   6.999
    9AU     AUL 3735  27.701  15.672   6.662
    9AU       S 3736  27.260  15.911   6.739
    9AU     LIG 3737  27.099  16.276   6.436
    9AU     LIG 3738  26.992  16.493   6.021
    9AU     LIG 3739  26.729  16.611   5.646
    9AU     LIG 3740  26.324  16.706   5.400
    9AU       S 3741  27.924  15.489   6.254
    9AU     LIG 3742  27.711  15.499   5.837
    9AU     LIG 3743  27.587  15.262   5.461
    9AU     LIG 3744  27.420  15.266   5.019
    9AU     LIG 3745  27.471  15.388   4.550
    9AU    AUSL 3746  28.883  15.770   7.469
    9AU    AUSL 3747  28.778  15.627   7.104
    9AU     AUL 3748  29.122  15.672   7.137
    9AU       S 3749  29.029  16.068   6.825
    9AU     LIG 3750  29.382  16.034   6.533
    9AU     LIG 3751  29.655  16.147   6.187
    9AU     LIG 3752  29.853  16.478   5.932
    9AU     LIG 3753  30.119  16.609   5.576
    9AU       S 3754  29.427  15.804   7.528
    9AU     LIG 3755  29.881  15.902   7.627
    9AU     LIG 3756  30.330  15.966   7.487
    9AU     LIG 3757  30.701  16.279   7.553
    9AU     LIG 3758  30.818  16.730   7.701
    9AU    AUSL 3759  28.944  15.436   7.353
    9AU    AUSL 3760  28.951  15.160   7.616
    9AU     AUL 3761  29.182  15.217   7.221
    9AU       S 3762  29.466  15.524   7.501
    9AU     LIG 3763  29.930  15.493   7.331
    9AU     LIG 3764  30.298  15.655   7.053
    9AU     LIG 3765  30.776  15.566   6.978
    9AU     LIG 3766  31.258  15.644   7.021
    9AU       S 3767  29.377  14.904   7.641
    9AU     LIG 3768  29.816  14.745   7.777
    9AU     LIG 3769  30.283  14.629   7.766
    9AU     LIG 3770  30.722  14.511   7.700
    9AU     LIG 3771  31.080  14.578   7.976
    9AU    AUSL 3772  28.938  15.490   7.709
    9AU    AUSL 3773  28.697  15.912   7.767
    9AU     AUL 3774  29.011  15.834   7.796
    9AU       S 3775  28.973  16.203   8.143
    9AU     LIG 3776  29.328  16.414   8.416
    9AU     LIG 3777  29.672  16.685   8.645
    9AU     LIG 3778  29.970  17.020   8.855
    9AU     LIG 3779  30.277  17.431   8.819
    9AU       S 3780  29.387  15.490   7.746
    9AU     LIG 3781  29.834  15.432   7.848
    9AU     LIG 3782  30.271  15.591   7.852
    9AU     LIG 3783  30.663  15.860   7.865
    9AU     LIG 3784  31.106  15.788   7.707
    9AU    AUSL 3785  27.628  15.901   7.503
    9AU    AUSL 3786  27.612  15.726   7.912
    9AU     AUL 3787  27.322  15.933   7.689
    9AU       S 3788  27.358  15.886   8.211
    9AU     LIG 3789  27.180  16.002   8.610
    9AU     LIG 3790  27.082  16.367   8.885
    9AU     LIG 3791  26.757  16.550   9.167
    9AU     LIG 3792  26.333  16.570   9.367
    9AU       S 3793  27.539  16.372   7.476
    9AU     LIG 3794  27.155  16.615   7.322
    9AU     LIG 3795  26.678  16.735   7.387
    9AU     LIG 3796  26.208  16.899   7.393
    9AU     LIG 3797  25.897  17.170   7.183
    9AU    AUSL 3798  27.482  15.568   7.300
    9AU    AUSL 3799  27.735  15.944   7.173
    9AU     AUL 3800  27.369  15.883   7.244
    9AU       S 3801  27.103  15.471   6.942
    9AU     LIG 3802  26.759  15.824   6.893
    9AU     LIG 3803  26.356  16.113   6.917
    9AU     LIG 3804  25.940  16.385   6.900
    9AU     LIG 3805  25.495  16.434   6.735
    9AU       S 3806  27.520  16.315   6.989
    9AU     LIG 3807  27.250  16.628   6.798
    9AU     LIG 3808  27.170  16.815   6.381
    9AU     LIG 3809  27.022  17.121   6.056
    9AU     LIG 3810  26.726  17.479   5.897
    9AU    AUSL 3811  27.445  15.577   7.661
    9AU    AUSL 3812  27.390  15.249   7.357
    9AU     AUL 3813  27.167  15.609   7.435
    9AU       S 3814  26.908  15.163   7.447
    9AU     LIG 3815  26.420  15.125   7.397
    9AU     LIG 3816  25.936  15.029   7.378
    9AU     LIG 3817  25.574  14.733   7.352
    9AU     LIG 3818  25.236  14.398   7.279
    9AU       S 3819  27.030  15.586   7.951
    9AU     LIG 3820  26.549  15.704   7.959
    9AU     LIG 3821  26.132  15.996   7.992
    9AU     LIG 3822  25.705  16.280   8.010
    9AU     LIG 3823  25.263  16.422   8.196
    9AU    AUSL 3824  28.786  14.851   7.560
    9AU    AUSL 3825  28.727  15.027   7.886
    9AU     AUL 3826  29.021  15.104   7.919
    9AU       S 3827  29.140  14.629   7.637
    9AU     LIG 3828  29.505  14.344   7.664
    9AU     LIG 3829  29.957  14.300   7.508
    9AU     LIG 3830  30.426  14.170   7.464
    9AU     LIG 3831  30.741  13.997   7.792
    9AU       S 3832  28.976  14.631   8.100
    9AU     LIG 3833  29.234  14.377   8.413
    9AU     LIG 3834  29.418  14.077   8.732
    9AU     LIG 3835  29.729  13.828   8.963
    9AU     LIG 3836  30.041  13.648   9.248
    9AU    AUSL 3837  28.867  15.088   7.300
    9AU    AUSL 3838  28.598  14.750   7.229
    9AU     AUL 3839  28.925  14.771   7.181
    9AU       S 3840  29.348  14.785   7.445
    9AU     LIG 3841  29.790  14.901   7.299
    9AU     LIG 3842  30.197  14.686   7.276
    9AU     LIG 3843  30.616  14.581   7.175
    9AU     LIG 3844  30.920  14.264   7.080
    9AU       S 3845  28.853  14.511   6.750
    9AU     LIG 3846  29.067  14.096   6.617
    9AU     LIG 3847  29.261  13.678   6.432
    9AU     LIG 3848  29.569  13.356   6.255
    9AU     LIG 3849  30.022  13.198   6.162
    9AU    AUSL 3850  27.506  14.941   7.533
    9AU    AUSL 3851  27.559  15.132   7.066
    9AU     AUL 3852  27.309  14.899   7.257
    9AU       S 3853  27.283  15.015   6.749
    9AU     LIG 3854  26.898  14.768   6.574
    9AU     LIG 3855  26.722  14.344   6.485
    9AU     LIG 3856  26.532  14.052   6.174
    9AU     LIG 3857  26.247  14.011   5.796
    9AU       S 3858  26.929  14.929   7.586
    9AU     LIG 3859  26.524  14.691   7.643
    9AU     LIG 3860  26.089  14.541   7.485
    9AU     LIG 3861  25.679  14.262   7.540
    9AU     LIG 3862  25.252  14.013   7.616
    9AU    AUSL 3863  27.429  15.240   7.717
    9AU    AUSL 3864  27.682  14.803   7.814
    9AU     AUL 3865  27.353  14.919   7.862
    9AU       S 3866  27.458  14.583   8.219
    9AU     LIG 3867  27.174  14.217   8.186
    9AU     LIG 3868  26.873  13.863   8.199
    9AU     LIG 3869  26.611  13.624   8.477
    9AU     LIG 3870  26.539  13.290   8.786
    9AU       S 3871  26.951  15.181   7.681
    9AU     LIG 3872  26.556  15.165   7.891
    9AU     LIG 3873  26.135  14.975   7.844
    9AU     LIG 3874  25.787  14.677   7.863
    9AU     LIG 3875  25.358  14.566   7.815
    9AU    AUSL 3876  28.194  16.009   7.923
    9AU    AUSL 3877  27.832  16.000   7.788
    9AU     AUL 3878  28.030  16.076   8.208
    9AU       S 3879  27.614  16.319   7.965
    9AU     LIG 3880  27.520  16.716   8.215
    9AU     LIG 3881  27.308  16.955   8.583
    9AU     LIG 3882  27.124  17.293   8.853
    9AU     LIG 3883  26.718  17.461   9.045
    9AU       S 3884  28.079  16.512   7.964
    9AU     LIG 3885  28.010  16.725   8.354
    9AU     LIG 3886  28.199  17.081   8.499
    9AU     LIG 3887  28.107  17.461   8.662
    9AU     LIG 3888  28.042  17.804   8.950
    9AU    AUSL 3889  28.093  16.139   7.584
    9AU    AUSL 3890  28.376  16.093   7.304
    9AU     AUL 3891  28.552  16.314   7.509
    9AU       S 3892  27.979  16.529   7.674
    9AU     LIG 3893  27.922  16.986   7.922
    9AU     LIG 3894  28.058  17.410   8.107
    9AU     LIG 3895  27.885  17.783   8.342
    9AU     LIG 3896  27.546  18.101   8.247
    9AU       S 3897  28.234  16.574   7.210
    9AU     LIG 3898  28.496  16.911   7.068
    9AU     LIG 3899  28.513  17.252   6.768
    9AU     LIG 3900  28.428  17.656   6.552
    9AU     LIG 3901  28.419  18.126   6.613
    9AU    AUSL 3902  28.405  16.038   7.648
    9AU    AUSL 3903  28.480  15.841   8.051
    9AU     AUL 3904  28.511  16.204   7.926
    9AU       S 3905  28.751  16.067   8.355
    9AU     LIG 3906  28.986  16.198   8.743
    9AU     LIG 3907  29.364  16.390   8.947
    9AU     LIG 3908  29.578  16.759   9.154
    9AU     LIG 3909  29.719  16.985   9.540
    9AU       S 3910  28.230  16.614   7.743
    9AU     LIG 3911  28.410  16.916   8.049
    9AU     LIG 3912  28.551  17.324   8.212
    9AU     LIG 3913  28.408  17.741   8.341
    9AU     LIG 3914  28.462  18.205   8.338
    9AU    AUSL 3915  28.186  14.745   7.939
    9AU    AUSL 3916  28.533  14.742   7.812
    9AU     AUL 3917  28.287  14.674   8.218
    9AU       S 3918  28.332  14.206   8.020
    9AU     LIG 3919  28.166  13.788   8.205
    9AU     LIG 3920  27.926  13.368   8.208
    9AU     LIG 3921  27.812  12.918   8.341
    9AU     LIG 3922  27.964  12.692   8.722
    9AU       S 3923  28.771  14.463   7.961
    9AU     LIG 3924  29.092  14.136   7.980
    9AU     LIG 3925  29.294  13.839   8.294
    9AU     LIG 3926  29.568  13.531   8.564
    9AU     LIG 3927  29.967  13.384   8.791
    9AU    AUSL 3928  27.964  14.679   7.672
    9AU    AUSL 3929  27.908  14.896   8.083
    9AU     AUL 3930  27.903  14.530   7.990
    9AU       S 3931  28.144  14.096   7.795
    9AU     LIG 3932  27.941  13.647   7.737
    9AU     LIG 3933  27.803  13.172   7.738
    9AU     LIG 3934  27.531  12.811   7.914
    9AU     LIG 3935  27.269  12.710   8.295
    9AU       S 3936  27.679  14.705   8.430
    9AU     LIG 3937  27.328  14.402   8.659
    9AU     LIG 3938  27.076  13.988   8.661
    9AU     LIG 3939  26.883  13.651   8.920
    9AU     LIG 3940  26.604  13.585   9.282
    9AU    AUSL 3941  28.279  14.573   7.647
    9AU    AUSL 3942  27.927  14.614   7.331
    9AU     AUL 3943  27.819  14.428   7.625
    9AU       S 3944  27.936  14.138   7.226
    9AU     LIG 3945  27.675  13.763   7.103
    9AU     LIG 3946  27.619  13.293   7.122
    9AU     LIG 3947  27.665  12.851   6.947
    9AU     LIG 3948  27.658  12.535   6.599
    9AU       S 3949  28.407  14.196   7.733
    9AU     LIG 3950  28.449  13.690   7.783
    9AU     LIG 3951  28.313  13.217   7.903
    9AU     LIG 3952  28.291  12.816   8.188
    9AU     LIG 3953  28.604  12.485   8.321
    9AU    AUSL 3954  28.237  15.951   6.996
    9AU    AUSL 3955  28.678  15.936   7.229
    9AU     AUL 3956  28.500  16.147   6.975
    9AU       S 3957  28.176  16.527   6.921
    9AU     LIG 3958  28.319  16.807   6.569
    9AU     LIG 3959  28.241  17.202   6.322
    9AU     LIG 3960  28.306  17.581   6.042
    9AU     LIG 3961  28.394  17.893   5.693
    9AU       S 3962  29.000  16.201   7.030
    9AU     LIG 3963  29.286  16.496   6.754
    9AU     LIG 3964  29.580  16.616   6.394
    9AU     LIG 3965  29.896  16.934   6.195
    9AU     LIG 3966  30.177  17.350   6.190
    9AU    AUSL 3967  28.028  16.091   7.249
    9AU    AUSL 3968  27.926  15.788   6.926
    9AU     AUL 3969  27.966  16.083   6.851
    9AU       S 3970  27.955  16.519   7.166
    9AU     LIG 3971  28.010  16.991   6.924
    9AU     LIG 3972  28.022  17.403   6.749
    9AU     LIG 3973  27.967  17.870   6.694
    9AU     LIG 3974  27.758  18.305   6.754
    9AU       S 3975  27.484  16.137   6.733
    9AU     LIG 3976  27.583  16.493   6.435
    9AU     LIG 3977  27.492  16.633   6.001
    9AU     LIG 3978  27.225  16.832   5.682
    9AU     LIG 3979  26.861  17.101   5.544
    9AU    AUSL 3980  28.109  14.703   7.031
    9AU    AUSL 3981  27.662  14.822   7.226
    9AU     AUL 3982  27.780  14.579   6.982
    9AU       S 3983  27.323  14.695   6.808
    9AU     LIG 3984  27.086  14.309   6.858
    9AU     LIG 3985  26.862  13.918   6.763
    9AU     LIG 3986  26.639  13.632   6.472
    9AU     LIG 3987  26.450  13.347   6.147
    9AU       S 3988  28.073  14.164   6.990
    9AU     LIG 3989  28.029  13.823   6.727
    9AU     LIG 3990  27.895  13.400   6.706
    9AU     LIG 3991  27.964  12.975   6.550
    9AU     LIG 3992  28.122  12.574   6.376
    9AU    AUSL 3993  28.293  14.598   7.316
    9AU    AUSL 3994  28.401  14.848   6.925
    9AU     AUL 3995  28.440  14.503   7.026
    9AU       S 3996  28.215  14.116   7.279
    9AU     LIG 3997  28.148  13.612   7.203
    9AU     LIG 3998  28.104  13.108   7.082
    9AU     LIG 3999  28.173  12.646   6.886
    9AU     LIG 4000  28.548  12.415   6.663
    9AU       S 4001  28.592  14.673   6.563
    9AU     LIG 4002  28.681  14.318   6.293
    9AU     LIG 4003  28.945  13.976   6.134
    9AU     LIG 4004  29.259  13.733   5.894
    9AU     LIG 4005  29.296  13.737   5.418
   10AU     AUC 4006  17.826  14.112   7.494
   10AU     AUC 4007  18.094  14.094   7.333
   10AU     AUC 4008  18.094  14.100   7.658
   10AU     AUC 4009  17.557  14.124   7.332
   10AU     AUC 4010  17.561  14.129   7.662
   10AU     AUC 4011  17.679  14.388   7.486
   10AU     AUC 4012  18.010  14.372   7.488
   10AU     AUC 4013  17.641  13.852   7.499
   10AU     AUC 4014  17.971  13.832   7.495
   10AU     AUC 4015  17.816  13.951   7.762
   10AU     AUC 4016  17.839  14.279   7.759
   10AU     AUC 4017  17.816  13.940   7.232
   10AU     AUC 4018  17.836  14.271   7.220
   10AU     AUC 4019  18.350  14.078   7.181
   10AU     AUC 4020  18.371  14.076   7.498
   10AU     AUC 4021  18.355  14.083   7.805
   10AU     AUC 4022  17.301  14.128   7.171
   10AU     AUC 4023  17.282  14.136   7.509
   10AU     AUC 4024  17.311  14.150   7.833
   10AU     AUC 4025  17.544  14.658   7.479
   10AU     AUC 4026  17.859  14.662   7.467
   10AU     AUC 4027  18.187  14.624   7.485
   10AU     AUC 4028  17.460  13.605   7.506
   10AU     AUC 4029  17.790  13.566   7.488
   10AU     AUC 4030  18.113  13.556   7.502
   10AU     AUC 4031  17.803  13.791   8.021
   10AU     AUC 4032  17.824  14.110   8.048
   10AU     AUC 4033  17.853  14.433   8.018
   10AU     AUC 4034  17.819  13.775   6.980
   10AU     AUC 4035  17.845  14.100   6.950
   10AU     AUC 4036  17.849  14.412   6.947
   10AU     AUC 4037  18.083  13.931   7.935
   10AU     AUC 4038  18.115  14.269   7.934
   10AU     AUC 4039  18.093  13.921   7.064
   10AU     AUC 4040  18.113  14.261   7.054
   10AU     AUC 4041  17.550  13.966   7.946
   10AU     AUC 4042  17.570  14.295   7.938
   10AU     AUC 4043  17.546  13.952   7.067
   10AU     AUC 4044  17.557  14.275   7.038
   10AU     AUC 4045  18.291  14.359   7.339
   10AU     AUC 4046  18.291  14.369   7.666
   10AU     AUC 4047  17.403  14.409   7.319
   10AU     AUC 4048  17.407  14.418   7.665
   10AU     AUC 4049  18.242  13.799   7.332
   10AU     AUC 4050  18.247  13.812   7.655
   10AU     AUC 4051  17.352  13.861   7.345
   10AU     AUC 4052  17.370  13.857   7.682
   10AU     AUC 4053  17.689  14.564   7.752
   10AU     AUC 4054  18.019  14.554   7.754
   10AU     AUC 4055  17.635  13.686   7.776
   10AU     AUC 4056  17.967  13.666   7.766
   10AU     AUC 4057  17.681  14.553   7.198
   10AU     AUC 4058  18.031  14.535   7.201
   10AU     AUC 4059  17.622  13.671   7.229
   10AU     AUC 4060  17.962  13.647   7.222
   10AU    AUSL 4061  18.307  14.043   8.096
   10AU    AUSL 4062  18.118  13.691   8.097
   10AU     AUL 4063  18.194  14.003   8.410
   10AU       S 4064  18.433  13.324   8.241
   10AU     LIG 4065  18.451  12.885   8.371
   10AU     LIG 4066  18.627  12.603   8.699
   10AU     LIG 4067  18.884  12.489   9.068
   10AU     LIG 4068  18.999  12.278   9.470
   10AU       S 4069  18.600  13.732   8.455
   10AU     LIG 4070  18.664  13.909   8.880
   10AU     LIG 4071  18.681  13.990   9.335
   10AU     LIG 4072  18.904  13.839   9.715
   10AU     LIG 4073  19.196  13.835  10.080
   10AU    AUSL 4074  17.909  13.902   8.249
   10AU    AUSL 4075  17.706  14.261   8.267
   10AU     AUL 4076  17.878  14.073   8.575
   10AU       S 4077  18.240  13.576   8.633
   10AU     LIG 4078  18.259  13.684   9.102
   10AU     LIG 4079  18.356  13.668   9.563
   10AU     LIG 4080  18.530  13.576   9.981
   10AU     LIG 4081  18.618  13.308  10.349
   10AU       S 4082  17.405  14.146   8.737
   10AU     LIG 4083  17.276  14.110   9.188
   10AU     LIG 4084  17.163  14.071   9.643
   10AU     LIG 4085  16.957  14.153  10.042
   10AU     LIG 4086  16.927  14.500  10.364
   10AU    AUSL 4087  18.051  14.293   8.231
   10AU    AUSL 4088  18.405  14.373   7.980
   10AU     AUL 4089  18.442  14.255   8.340
   10AU       S 4090  18.077  14.557   8.613
   10AU     LIG 4091  18.336  14.553   9.020
   10AU     LIG 4092  18.492  14.464   9.468
   10AU     LIG 4093  18.604  14.573   9.924
   10AU     LIG 4094  18.604  14.712  10.373
   10AU       S 4095  18.675  14.693   8.277
   10AU     LIG 4096  19.057  14.632   8.504
   10AU     LIG 4097  19.389  14.895   8.674
   10AU     LIG 4098  19.544  15.157   9.026
   10AU     LIG 4099  19.657  15.280   9.472
   10AU    AUSL 4100  18.300  14.137   6.887
   10AU    AUSL 4101  18.170  14.503   6.878
   10AU     AUL 4102  18.551  14.363   6.760
   10AU       S 4103  18.394  14.129   6.346
   10AU     LIG 4104  18.681  13.979   5.985
   10AU     LIG 4105  18.834  13.718   5.635
   10AU     LIG 4106  19.000  13.761   5.209
   10AU     LIG 4107  19.091  13.970   4.801
   10AU       S 4108  18.487  14.877   6.629
   10AU     LIG 4109  18.656  15.168   6.286
   10AU     LIG 4110  18.931  15.325   5.930
   10AU     LIG 4111  19.156  15.618   5.644
   10AU     LIG 4112  19.309  15.676   5.202
   10AU    AUSL 4113  18.089  13.901   6.776
   10AU    AUSL 4114  18.348  13.789   7.013
   10AU     AUL 4115  18.566  13.968   6.836
   10AU       S 4116  18.520  13.509   6.624
   10AU     LIG 4117  18.781  13.317   6.282
   10AU     LIG 4118  19.053  12.961   6.132
   10AU     LIG 4119  19.355  12.659   5.936
   10AU     LIG 4120  19.716  12.678   5.616
   10AU       S 4121  18.345  13.906   6.363
   10AU     LIG 4122  18.378  13.572   6.078
   10AU     LIG 4123  18.346  13.547   5.634
   10AU     LIG 4124  18.506  13.601   5.201
   10AU     LIG 4125  18.738  13.580   4.793
   10AU    AUSL 4126  17.996  14.232   6.718
   10AU    AUSL 4127  17.706  13.942   6.778
   10AU     AUL 4128  17.881  13.853   6.514
   10AU       S 4129  17.464  14.021   6.282
   10AU     LIG 4130  17.474  13.782   5.894
   10AU     LIG 4131  17.190  13.555   5.603
   10AU     LIG 4132  17.010  13.589   5.177
   10AU     LIG 4133  17.065  13.585   4.706
   10AU       S 4134  18.147  14.260   6.325
   10AU     LIG 4135  18.179  14.034   5.885
   10AU     LIG 4136  18.455  14.035   5.491
   10AU     LIG 4137  18.620  14.088   5.042
   10AU     LIG 4138  18.585  14.385   4.668
   10AU    AUSL 4139  17.377  14.217   8.148
   10AU    AUSL 4140  17.576  14.536   8.065
   10AU     AUL 4141  17.536  14.519   8.414
   10AU       S 4142  17.175  14.199   8.604
   10AU     LIG 4143  16.897  13.956   8.869
   10AU     LIG 4144  16.810  13.882   9.319
   10AU     LIG 4145  16.624  13.875   9.747
   10AU     LIG 4146  16.234  13.875  10.021
   10AU       S 4147  17.154  14.841   8.265
   10AU     LIG 4148  17.041  14.928   8.713
   10AU     LIG 4149  16.884  15.247   9.019
   10AU     LIG 4150  16.656  15.409   9.396
   10AU     LIG 4151  16.404  15.638   9.718
   10AU    AUSL 4152  17.557  13.939   8.230
   10AU    AUSL 4153  17.293  13.855   7.977
   10AU     AUL 4154  17.101  14.022   8.147
   10AU       S 4155  17.090  13.561   8.363
   10AU     LIG 4156  16.629  13.458   8.339
   10AU     LIG 4157  16.332  13.129   8.461
   10AU     LIG 4158  16.134  12.821   8.749
   10AU     LIG 4159  15.927  12.465   8.991
   10AU       S 4160  17.365  13.905   8.608
   10AU     LIG 4161  17.284  13.636   8.976
   10AU     LIG 4162  17.220  13.596   9.448
   10AU     LIG 4163  17.051  13.622   9.902
   10AU     LIG 4164  16.990  13.486  10.360
   10AU    AUSL 4165  17.385  14.064   6.834
   10AU    AUSL 4166  17.499  13.696   6.949
   10AU     AUL 4167  17.575  13.669   6.637
   10AU       S 4168  17.240  13.999   6.384
   10AU     LIG 4169  16.984  13.894   5.986
   10AU     LIG 4170  16.732  13.798   5.580
   10AU     LIG 4171  16.510  13.764   5.167
   10AU     LIG 4172  16.159  13.920   4.890
   10AU       S 4173  17.083  13.573   6.625
   10AU     LIG 4174  16.895  13.222   6.352
   10AU     LIG 4175  16.704  12.807   6.261
   10AU     LIG 4176  16.538  12.571   5.890
   10AU     LIG 4177  16.581  12.482   5.421
   10AU    AUSL 4178  17.660  14.292   6.733
   10AU    AUSL 4179  17.250  14.397   7.013
   10AU     AUL 4180  17.319  14.402   6.671
   10AU       S 4181  16.879  14.643   6.765
   10AU     LIG 4182  16.497  14.778   6.529
   10AU     LIG 4183  16.379  14.895   6.106
   10AU     LIG 4184  16.272  15.087   5.692
   10AU     LIG 4185  16.067  15.432   5.428
   10AU       S 4186  17.597  14.251   6.278
   10AU     LIG 4187  17.332  14.283   5.878
   10AU     LIG 4188  17.163  14.063   5.509
   10AU     LIG 4189  16.919  14.092   5.115
   10AU     LIG 4190  16.967  14.219   4.665
   10AU    AUSL 4191  18.521  14.526   7.477
   10AU    AUSL 4192  18.425  14.383   7.095
   10AU     AUL 4193  18.762  14.459   7.147
   10AU       S 4194  18.669  14.849   6.836
   10AU     LIG 4195  19.012  14.890   6.537
   10AU     LIG 4196  19.231  14.960   6.143
   10AU     LIG 4197  19.459  15.290   5.914
   10AU     LIG 4198  19.673  15.554   5.581
   10AU       S 4199  19.067  14.595   7.546
   10AU     LIG 4200  19.523  14.801   7.529
   10AU     LIG 4201  19.996  14.938   7.519
   10AU     LIG 4202  20.462  15.070   7.497
   10AU     LIG 4203  20.734  15.397   7.298
   10AU    AUSL 4204  18.594  14.200   7.350
   10AU    AUSL 4205  18.597  13.913   7.621
   10AU     AUL 4206  18.854  13.966   7.265
   10AU       S 4207  19.101  14.323   7.518
   10AU     LIG 4208  19.575  14.306   7.427
   10AU     LIG 4209  20.030  14.467   7.315
   10AU     LIG 4210  20.504  14.606   7.242
   10AU     LIG 4211  20.893  14.653   6.953
   10AU       S 4212  18.984  13.572   7.674
   10AU     LIG 4213  19.395  13.369   7.812
   10AU     LIG 4214  19.852  13.239   7.742
   10AU     LIG 4215  20.234  13.025   7.900
   10AU     LIG 4216  20.651  13.200   7.971
   10AU    AUSL 4217  18.582  14.247   7.708
   10AU    AUSL 4218  18.313  14.674   7.762
   10AU     AUL 4219  18.629  14.607   7.784
   10AU       S 4220  18.615  14.955   8.148
   10AU     LIG 4221  18.965  15.130   8.428
   10AU     LIG 4222  19.271  15.415   8.655
   10AU     LIG 4223  19.456  15.854   8.724
   10AU     LIG 4224  19.542  16.301   8.888
   10AU       S 4225  19.023  14.283   7.769
   10AU     LIG 4226  19.430  14.459   7.911
   10AU     LIG 4227  19.882  14.519   7.808
   10AU     LIG 4228  20.343  14.610   7.735
   10AU     LIG 4229  20.785  14.780   7.804
   10AU    AUSL 4230  17.262  14.639   7.521
   10AU    AUSL 4231  17.252  14.452   7.930
   10AU     AUL 4232  16.958  14.657   7.718
   10AU       S 4233  16.999  14.590   8.244
   10AU     LIG 4234  16.641  14.787   8.421
   10AU     LIG 4235  16.503  14.974   8.802
   10AU     LIG 4236  16.308  15.087   9.203
   10AU     LIG 4237  16.027  15.183   9.560
   10AU       S 4238  17.141  15.102   7.508
   10AU     LIG 4239  16.677  15.160   7.305
   10AU     LIG 4240  16.236  15.361   7.256
   10AU     LIG 4241  15.764  15.460   7.311
   10AU     LIG 4242  15.330  15.497   7.542
   10AU    AUSL 4243  17.125  14.308   7.311
   10AU    AUSL 4244  17.379  14.704   7.198
   10AU     AUL 4245  17.012  14.620   7.261
   10AU       S 4246  16.732  14.209   6.968
   10AU     LIG 4247  16.343  14.530   6.951
   10AU     LIG 4248  16.056  14.898   6.798
   10AU     LIG 4249  15.607  15.091   6.826
   10AU     LIG 4250  15.125  15.170   6.831
   10AU       S 4251  17.093  15.057   7.003
   10AU     LIG 4252  16.706  15.198   6.757
   10AU     LIG 4253  16.555  15.423   6.349
   10AU     LIG 4254  16.365  15.862   6.185
   10AU     LIG 4255  16.032  16.220   6.081
   10AU    AUSL 4256  17.091  14.309   7.672
   10AU    AUSL 4257  17.037  13.989   7.365
   10AU     AUL 4258  16.814  14.349   7.455
   10AU       S 4259  16.562  13.901   7.452
   10AU     LIG 4260  16.098  13.863   7.433
   10AU     LIG 4261  15.662  13.706   7.302
   10AU     LIG 4262  15.309  13.679   6.985
   10AU     LIG 4263  14.883  13.549   6.861
   10AU       S 4264  16.678  14.298   7.970
   10AU     LIG 4265  16.351  14.605   8.035
   10AU     LIG 4266  15.936  14.637   8.206
   10AU     LIG 4267  15.518  14.840   8.185
   10AU     LIG 4268  15.062  14.918   8.211
   10AU    AUSL 4269  18.436  13.609   7.555
   10AU    AUSL 4270  18.381  13.780   7.886
   10AU     AUL 4271  18.676  13.874   7.914
   10AU       S 4272  18.767  13.346   7.617
   10AU     LIG 4273  19.124  13.026   7.551
   10AU     LIG 4274  19.592  12.925   7.441
   10AU     LIG 4275  20.079  12.841   7.439
   10AU     LIG 4276  20.342  12.443   7.535
   10AU       S 4277  18.635  13.398   8.089
   10AU     LIG 4278  18.900  13.154   8.392
   10AU     LIG 4279  19.076  12.858   8.720
   10AU     LIG 4280  19.378  12.611   8.977
   10AU     LIG 4281  19.658  12.598   9.359
   10AU    AUSL 4282  18.521  13.854   7.299
   10AU    AUSL 4283  18.257  13.506   7.227
   10AU     AUL 4284  18.587  13.551   7.174
   10AU       S 4285  18.995  13.513   7.453
   10AU     LIG 4286  19.442  13.396   7.304
   10AU     LIG 4287  19.925  13.328   7.229
   10AU     LIG 4288  20.344  13.534   7.049
   10AU     LIG 4289  20.824  13.632   7.133
   10AU       S 4290  18.514  13.276   6.754
   10AU     LIG 4291  18.753  12.904   6.587
   10AU     LIG 4292  18.967  12.523   6.386
   10AU     LIG 4293  19.132  12.152   6.133
   10AU     LIG 4294  19.149  11.658   6.075
   10AU    AUSL 4295  17.157  13.680   7.531
   10AU    AUSL 4296  17.205  13.879   7.071
   10AU     AUL 4297  16.961  13.640   7.256
   10AU       S 4298  16.932  13.768   6.752
   10AU     LIG 4299  16.551  13.552   6.559
   10AU     LIG 4300  16.358  13.143   6.453
   10AU     LIG 4301  16.181  12.777   6.228
   10AU     LIG 4302  16.010  12.592   5.839
   10AU       S 4303  16.579  13.656   7.580
   10AU     LIG 4304  16.170  13.392   7.592
   10AU     LIG 4305  15.703  13.287   7.586
   10AU     LIG 4306  15.402  12.933   7.514
   10AU     LIG 4307  15.469  12.447   7.516
   10AU    AUSL 4308  17.076  13.973   7.722
   10AU    AUSL 4309  17.333  13.542   7.810
   10AU     AUL 4310  17.003  13.650   7.858
   10AU       S 4311  17.104  13.310   8.216
   10AU     LIG 4312  16.776  12.966   8.231
   10AU     LIG 4313  16.427  12.642   8.306
   10AU     LIG 4314  16.139  12.347   8.532
   10AU     LIG 4315  15.732  12.103   8.613
   10AU       S 4316  16.591  13.907   7.687
   10AU     LIG 4317  16.223  13.767   7.936
   10AU     LIG 4318  15.761  13.769   7.830
   10AU     LIG 4319  15.335  13.538   7.862
   10AU     LIG 4320  14.910  13.316   7.945
   10AU    AUSL 4321  17.834  14.753   7.920
   10AU    AUSL 4322  17.448  14.734   7.813
   10AU     AUL 4323  17.666  14.814   8.212
   10AU       S 4324  17.211  15.035   8.020
   10AU     LIG 4325  16.890  15.263   8.348
   10AU     LIG 4326  16.731  15.611   8.654
   10AU     LIG 4327  16.643  16.103   8.718
   10AU     LIG 4328  16.437  16.549   8.695
   10AU       S 4329  17.728  15.260   8.006
   10AU     LIG 4330  17.910  15.513   8.350
   10AU     LIG 4331  18.051  15.934   8.480
   10AU     LIG 4332  17.997  16.388   8.569
   10AU     LIG 4333  17.859  16.764   8.832
   10AU    AUSL 4334  17.683  14.881   7.609
   10AU    AUSL 4335  18.041  14.849   7.289
   10AU     AUL 4336  17.887  15.133   7.418
   10AU       S 4337  17.572  15.296   7.784
   10AU     LIG 4338  17.619  15.758   7.986
   10AU     LIG 4339  17.794  16.190   8.106
   10AU     LIG 4340  17.673  16.628   8.248
   10AU     LIG 4341  17.357  16.826   8.534
   10AU       S 4342  18.152  15.302   7.008
   10AU     LIG 4343  18.402  15.714   6.917
   10AU     LIG 4344  18.406  16.198   6.824
   10AU     LIG 4345  18.363  16.652   6.672
   10AU     LIG 4346  18.466  17.132   6.725
   10AU    AUSL 4347  18.041  14.864   7.640
   10AU    AUSL 4348  18.120  14.584   8.055
   10AU     AUL 4349  18.144  14.936   7.962
   10AU       S 4350  18.419  14.801   8.366
   10AU     LIG 4351  18.661  14.873   8.757
   10AU     LIG 4352  19.011  15.084   8.970
   10AU     LIG 4353  19.162  15.342   9.328
   10AU     LIG 4354  19.150  15.570   9.740
   10AU       S 4355  17.935  15.380   7.846
   10AU     LIG 4356  18.141  15.798   7.982
   10AU     LIG 4357  18.325  16.225   8.123
   10AU     LIG 4358  18.498  16.679   8.061
   10AU     LIG 4359  18.300  17.076   8.208
   10AU    AUSL 4360  17.840  13.488   7.937
   10AU    AUSL 4361  18.185  13.496   7.808
   10AU     AUL 4362  17.940  13.430   8.219
   10AU       S 4363  17.994  12.965   8.016
   10AU     LIG 4364  17.821  12.631   8.278
   10AU     LIG 4365  17.578  12.245   8.355
   10AU     LIG 4366  17.542  11.777   8.407
   10AU     LIG 4367  17.605  11.340   8.605
   10AU       S 4368  18.424  13.221   7.961
   10AU     LIG 4369  18.758  12.917   7.950
   10AU     LIG 4370  18.929  12.634   8.277
   10AU     LIG 4371  19.088  12.328   8.611
   10AU     LIG 4372  19.241  11.867   8.686
   10AU    AUSL 4373  17.619  13.424   7.668
   10AU    AUSL 4374  17.560  13.633   8.080
   10AU     AUL 4375  17.552  13.272   7.985
   10AU       S 4376  17.808  12.854   7.799
   10AU     LIG 4377  17.559  12.457   7.856
   10AU     LIG 4378  17.330  12.057   7.939
   10AU     LIG 4379  17.292  11.611   7.996
   10AU     LIG 4380  17.440  11.213   8.147
   10AU       S 4381  17.329  13.441   8.427
   10AU     LIG 4382  16.955  13.195   8.680
   10AU     LIG 4383  16.667  12.821   8.725
   10AU     LIG 4384  16.453  12.472   8.953
   10AU     LIG 4385  16.274  12.335   9.369
   10AU    AUSL 4386  17.936  13.325   7.640
   10AU    AUSL 4387  17.583  13.364   7.324
   10AU     AUL 4388  17.478  13.172   7.615
   10AU       S 4389  17.595  12.895   7.208
   10AU     LIG 4390  17.325  12.537   7.077
   10AU     LIG 4391  17.302  12.070   7.130
   10AU     LIG 4392  17.343  11.606   7.052
   10AU     LIG 4393  17.228  11.231   6.775
   10AU       S 4394  18.068  12.946   7.729
   10AU     LIG 4395  18.078  12.445   7.864
   10AU     LIG 4396  17.849  12.015   7.980
   10AU     LIG 4397  17.827  11.529   8.054
   10AU     LIG 4398  17.939  11.095   8.261
   10AU    AUSL 4399  17.864  14.701   6.975
   10AU    AUSL 4400  18.334  14.685   7.236
   10AU     AUL 4401  18.147  14.803   6.973
   10AU       S 4402  17.955  15.176   6.716
   10AU     LIG 4403  18.246  15.459   6.507
   10AU     LIG 4404  18.256  15.924   6.421
   10AU     LIG 4405  18.278  16.354   6.226
   10AU     LIG 4406  18.294  16.540   5.780
   10AU       S 4407  18.603  15.005   7.037
   10AU     LIG 4408  18.806  15.333   6.744
   10AU     LIG 4409  19.141  15.408   6.394
   10AU     LIG 4410  19.417  15.751   6.177
   10AU     LIG 4411  19.604  16.194   6.316
   10AU    AUSL 4412  17.689  14.860   7.257
   10AU    AUSL 4413  17.547  14.564   6.916
   10AU     AUL 4414  17.571  14.899   6.922
   10AU       S 4415  17.827  15.336   6.961
   10AU     LIG 4416  17.911  15.796   6.787
   10AU     LIG 4417  17.904  16.303   6.708
   10AU     LIG 4418  17.651  16.755   6.788
   10AU     LIG 4419  17.244  17.063   6.833
   10AU       S 4420  17.107  14.866   6.723
   10AU     LIG 4421  16.903  15.006   6.314
   10AU     LIG 4422  16.754  15.188   5.904
   10AU     LIG 4423  16.660  15.359   5.476
   10AU     LIG 4424  16.673  15.650   5.112
   10AU    AUSL 4425  17.763  13.456   7.025
   10AU    AUSL 4426  17.313  13.566   7.224
   10AU     AUL 4427  17.434  13.335   6.970
   10AU       S 4428  16.964  13.428   6.812
   10AU     LIG 4429  16.719  13.019   6.795
   10AU     LIG 4430  16.415  12.659   6.675
   10AU     LIG 4431  16.072  12.337   6.517
   10AU     LIG 4432  15.693  12.001   6.551
   10AU       S 4433  17.730  12.917   6.968
   10AU     LIG 4434  17.675  12.550   6.699
   10AU     LIG 4435  17.431  12.160   6.636
   10AU     LIG 4436  17.380  11.696   6.555
   10AU     LIG 4437  17.493  11.288   6.346
   10AU    AUSL 4438  17.948  13.353   7.309
   10AU    AUSL 4439  18.058  13.601   6.928
   10AU     AUL 4440  18.098  13.255   7.024
   10AU       S 4441  17.868  12.869   7.273
   10AU     LIG 4442  17.798  12.374   7.169
   10AU     LIG 4443  17.758  11.908   6.946
   10AU     LIG 4444  17.762  11.416   6.811
   10AU     LIG 4445  18.099  11.062   6.716
   10AU       S 4446  18.260  13.430   6.568
   10AU     LIG 4447  18.324  13.083   6.303
   10AU     LIG 4448  18.577  12.766   6.121
   10AU     LIG 4449  18.859  12.520   5.870
   10AU     LIG 4450  18.860  12.196   5.537
   11POPC   NC3 4451   4.517   6.344   9.200
   11POPC   PO4 4452   4.534   6.851   9.648
   11POPC   GL1 4453   4.351   6.849   9.191
   11POPC   GL2 4454   4.068   6.608   9.035
   11POPC   C1A 4455   4.403   6.843   8.717
   11POPC   D2A 4456   4.029   6.779   8.434
   11POPC   C3A 4457   4.019   6.770   7.989
   11POPC   C4A 4458   4.310   6.989   7.735
   11POPC   C1B 4459   4.117   6.233   8.726
   11POPC   C2B 4460   4.116   6.264   8.326
   11POPC   C3B 4461   4.348   6.208   7.965
   11POPC   C4B 4462   4.277   6.463   7.663
   12POPC   NC3 4463  25.131   1.090   9.489
   12POPC   PO4 4464  25.498   1.676   9.455
   12POPC   GL1 4465  25.370   1.338   9.095
   12POPC   GL2 4466  25.468   0.989   9.080
   12POPC   C1A 4467  25.360   1.189   8.621
   12POPC   D2A 4468  25.619   1.307   8.236
   12POPC   C3A 4469  25.460   1.297   7.812
   12POPC   C4A 4470  25.007   1.314   7.791
   12POPC   C1B 4471  25.366   0.675   8.771
   12POPC   C2B 4472  25.206   0.642   8.365
   12POPC   C3B 4473  25.265   0.831   7.975
   12POPC   C4B 4474  25.070   0.796   7.577
   13POPC   NC3 4475  14.870  20.062   9.617
   13POPC   PO4 4476  15.523  20.128   9.575
   13POPC   GL1 4477  15.302  19.886   9.237
   13POPC   GL2 4478  14.983  20.043   9.125
   13POPC   C1A 4479  15.383  19.639   8.833
   13POPC   D2A 4480  15.670  19.530   8.461
   13POPC   C3A 4481  15.539  19.687   8.054
   13POPC   C4A 4482  15.102  19.657   7.912
   13POPC   C1B 4483  14.855  19.960   8.710
   13POPC   C2B 4484  14.879  19.986   8.256
   13POPC   C3B 4485  14.820  20.122   7.832
   13POPC   C4B 4486  14.871  20.150   7.386
   14POPC   NC3 4487  38.554  26.024   9.563
   14POPC   PO4 4488  38.535  26.618   9.447
   14POPC   GL1 4489  38.579  26.239   9.116
   14POPC   GL2 4490  38.809  25.912   9.142
   14POPC   C1A 4491  38.663  26.043   8.682
   14POPC   D2A 4492  38.561  25.811   8.291
   14POPC   C3A 4493  38.458  26.090   7.964
   14POPC   C4A 4494  38.225  26.114   7.596
   14POPC   C1B 4495  39.080  25.662   8.866
   14POPC   C2B 4496  39.107  25.524   8.431
   14POPC   C3B 4497  38.951  25.605   8.024
   14POPC   C4B 4498  38.904  25.919   7.693
   15POPC   NC3 4499   8.180  10.864   9.368
   15POPC   PO4 4500   8.439  10.362   9.740
   15POPC   GL1 4501   8.485  10.342   9.217
   15POPC   GL2 4502   8.215  10.456   9.054
   15POPC   C1A 4503   8.393  10.168   8.715
   15POPC   D2A 4504   8.001  10.396   8.489
   15POPC   C3A 4505   7.776  10.288   8.097
   15POPC   C4A 4506   7.925  10.390   7.684
   15POPC   C1B 4507   8.341  10.716   8.726
   15POPC   C2B 4508   8.428  10.629   8.297
   15POPC   C3B 4509   8.381  10.530   7.866
   15POPC   C4B 4510   8.649  10.657   7.537
   16POPC   NC3 4511  20.609   4.541   9.454
   16POPC   PO4 4512  20.945   3.944   9.263
   16POPC   GL1 4513  20.659   4.218   9.059
   16POPC   GL2 4514  20.340   4.228   9.146
   16POPC   C1A 4515  20.725   4.514   8.747
   16POPC   D2A 4516  20.938   4.383   8.368
   16POPC   C3A 4517  20.739   4.541   7.996
   16POPC   C4A 4518  20.918   4.718   7.641
   16POPC   C1B 4519  20.226   4.353   8.756
   16POPC   C2B 4520  20.379   4.228   8.371
   16POPC   C3B 4521  20.266   4.336   7.964
   16POPC   C4B 4522  20.483   4.130   7.638
   17POPC   NC3 4523  10.784  44.693   9.800
   17POPC   PO4 4524  10.271  44.295   9.673
   17POPC   GL1 4525  10.414  44.582   9.332
   17POPC   GL2 4526  10.756  44.664   9.267
   17POPC   C1A 4527  10.376  44.771   8.901
   17POPC   D2A 4528  10.523  44.652   8.478
   17POPC   C3A 4529  10.507  44.876   8.090
   17POPC   C4A 4530  10.264  44.781   7.730
   17POPC   C1B 4531  10.899  44.727   8.831
   17POPC   C2B 4532  11.020  44.587   8.390
   17POPC   C3B 4533  10.856  44.425   8.002
   17POPC   C4B 4534  10.753  44.661   7.628
   18POPC   NC3 4535  10.639  40.177   9.594
   18POPC   PO4 4536  10.510  39.567   9.542
   18POPC   GL1 4537  10.570  39.858   9.172
   18POPC   GL2 4538  10.344  40.121   9.162
   18POPC   C1A 4539  10.741  40.019   8.770
   18POPC   D2A 4540  10.595  40.274   8.407
   18POPC   C3A 4541  10.699  40.147   8.003
   18POPC   C4A 4542  10.613  40.239   7.585
   18POPC   C1B 4543  10.251  39.902   8.729
   18POPC   C2B 4544  10.225  39.913   8.258
   18POPC   C3B 4545  10.189  40.153   7.864
   18POPC   C4B 4546  10.157  40.176   7.394
   19POPC   NC3 4547  26.151  10.581   9.418
   19POPC   PO4 4548  25.523  10.381   9.580
   19POPC   GL1 4549  25.774  10.371   9.138
   19POPC   GL2 4550  25.816  10.724   9.005
   19POPC   C1A 4551  25.912  10.386   8.667
   19POPC   D2A 4552  25.976  10.693   8.320
   19POPC   C3A 4553  26.060  10.467   7.944
   19POPC   C4A 4554  25.783  10.217   7.781
   19POPC   C1B 4555  26.272  10.740   8.768
   19POPC   C2B 4556  26.410  10.962   8.357
   19POPC   C3B 4557  26.535  10.765   7.970
   19POPC   C4B 4558  26.426  10.761   7.523
   20POPC   NC3 4559  22.528  14.179   9.427
   20POPC   PO4 4560  22.124  14.764   9.385
   20POPC   GL1 4561  22.307  14.488   9.094
   20POPC   GL2 4562  22.181  14.109   9.058
   20POPC   C1A 4563  22.401  14.367   8.682
   20POPC   D2A 4564  22.130  14.510   8.358
   20POPC   C3A 4565  22.252  14.450   7.933
   20POPC   C4A 4566  22.232  14.212   7.564
   20POPC   C1B 4567  22.013  14.055   8.616
   20POPC   C2B 4568  22.026  14.037   8.151
   20POPC   C3B 4569  21.791  14.206   7.783
   20POPC   C4B 4570  21.765  14.122   7.318
   21POPC   NC3 4571  31.896   0.288   9.399
   21POPC   PO4 4572  32.354   0.581   9.759
   21POPC   GL1 4573  32.311   0.563   9.244
   21POPC   GL2 4574  32.587   0.446   9.116
   21POPC   C1A 4575  32.161   0.376   8.820
   21POPC   D2A 4576  32.085   0.606   8.450
   21POPC   C3A 4577  31.903   0.442   8.114
   21POPC   C4A 4578  32.017   0.165   7.816
   21POPC   C1B 4579  32.509   0.748   8.796
   21POPC   C2B 4580  32.593   0.611   8.425
   21POPC   C3B 4581  32.421   0.498   8.037
   21POPC   C4B 4582  32.542   0.773   7.784
   22POPC   NC3 4583  12.769  34.885   9.367
   22POPC   PO4 4584  12.970  34.233   9.420
   22POPC   GL1 4585  12.981  34.463   9.098
   22POPC   GL2 4586  13.246  34.714   9.173
   22POPC   C1A 4587  12.714  34.545   8.766
   22POPC   D2A 4588  12.666  34.344   8.401
   22POPC   C3A 4589  12.694  34.555   8.062
   22POPC   C4A 4590  12.735  34.388   7.679
   22POPC   C1B 4591  13.241  34.664   8.714
   22POPC   C2B 4592  13.006  34.807   8.381
   22POPC   C3B 4593  13.047  34.889   7.929
   22POPC   C4B 4594  13.355  34.922   7.625
   23POPC   NC3 4595   9.244   2.494   9.452
   23POPC   PO4 4596   8.524   2.608   9.516
   23POPC   GL1 4597   8.679   2.848   9.188
   23POPC   GL2 4598   9.036   2.791   9.082
   23POPC   C1A 4599   8.668   2.845   8.752
   23POPC   D2A 4600   8.990   2.866   8.440
   23POPC   C3A 4601   8.705   2.856   8.096
   23POPC   C4A 4602   8.566   2.576   7.769
   23POPC   C1B 4603   9.404   2.773   8.801
   23POPC   C2B 4604   9.570   2.540   8.433
   23POPC   C3B 4605   9.327   2.441   8.060
   23POPC   C4B 4606   9.079   2.717   7.784
   24POPC   NC3 4607  44.286  32.211   9.317
   24POPC   PO4 4608  43.713  31.967   9.467
   24POPC   GL1 4609  43.724  32.185   9.129
   24POPC   GL2 4610  43.807  32.503   9.268
   24POPC   C1A 4611  43.806  32.059   8.735
   24POPC   D2A 4612  43.790  32.197   8.333
   24POPC   C3A 4613  43.772  31.933   7.955
   24POPC   C4A 4614  43.965  32.067   7.579
   24POPC   C1B 4615  43.892  32.584   8.831
   24POPC   C2B 4616  43.940  32.691   8.399
   24POPC   C3B 4617  43.920  32.500   7.952
   24POPC   C4B 4618  44.302  32.504   7.720
   25POPC   NC3 4619  16.464   3.850   9.513
   25POPC   PO4 4620  17.052   3.589   9.721
   25POPC   GL1 4621  17.061   3.630   9.248
   25POPC   GL2 4622  16.725   3.683   9.108
   25POPC   C1A 4623  17.082   3.549   8.776
   25POPC   D2A 4624  16.939   3.797   8.431
   25POPC   C3A 4625  17.014   3.639   8.045
   25POPC   C4A 4626  16.950   3.470   7.651
   25POPC   C1B 4627  16.508   3.808   8.743
   25POPC   C2B 4628  16.373   3.692   8.326
   25POPC   C3B 4629  16.523   3.509   7.936
   25POPC   C4B 4630  16.468   3.485   7.451
   26POPC   NC3 4631  12.470  12.268   9.349
   26POPC   PO4 4632  11.942  11.870   9.582
   26POPC   GL1 4633  11.974  12.148   9.210
   26POPC   GL2 4634  12.022  11.856   9.010
   26POPC   C1A 4635  12.092  12.312   8.780
   26POPC   D2A 4636  12.128  12.149   8.364
   26POPC   C3A 4637  12.270  12.432   8.039
   26POPC   C4A 4638  12.180  12.486   7.575
   26POPC   C1B 4639  12.301  11.728   8.650
   26POPC   C2B 4640  12.466  11.689   8.241
   26POPC   C3B 4641  12.309  11.944   7.921
   26POPC   C4B 4642  12.282  11.977   7.508
   27POPC   NC3 4643   0.360  41.184   9.451
   27POPC   PO4 4644   0.279  41.791   9.676
   27POPC   GL1 4645   0.429  41.719   9.259
   27POPC   GL2 4646   0.687  41.447   9.182
   27POPC   C1A 4647   0.232  41.559   8.885
   27POPC   D2A 4648   0.011  41.734   8.540
   27POPC   C3A 4649   0.215  41.556   8.193
   27POPC   C4A 4650   0.123  41.622   7.780
   27POPC   C1B 4651   0.710  41.730   8.822
   27POPC   C2B 4652   0.700  41.564   8.422
   27POPC   C3B 4653   0.716  41.377   8.034
   27POPC   C4B 4654   0.757  41.561   7.678
   28POPC   NC3 4655  28.193  39.115   9.476
   28POPC   PO4 4656  28.797  39.406   9.605
   28POPC   GL1 4657  28.575  39.315   9.197
   28POPC   GL2 4658  28.273  39.479   9.093
   28POPC   C1A 4659  28.654  39.447   8.770
   28POPC   D2A 4660  28.650  39.161   8.406
   28POPC   C3A 4661  28.583  39.286   7.981
   28POPC   C4A 4662  28.653  38.919   7.725
   28POPC   C1B 4663  28.196  39.195   8.790
   28POPC   C2B 4664  28.132  39.037   8.393
   28POPC   C3B 4665  28.197  38.921   7.993
   28POPC   C4B 4666  27.844  38.923   7.750
   29POPC   NC3 4667  36.043   8.499   9.382
   29POPC   PO4 4668  35.815   7.928   9.374
   29POPC   GL1 4669  36.195   8.067   9.106
   29POPC   GL2 4670  36.314   8.430   8.970
   29POPC   C1A 4671  36.305   7.988   8.689
   29POPC   D2A 4672  36.323   8.292   8.357
   29POPC   C3A 4673  36.299   8.061   7.970
   29POPC   C4A 4674  36.089   7.914   7.617
   29POPC   C1B 4675  35.951   8.374   8.738
   29POPC   C2B 4676  35.808   8.305   8.333
   29POPC   C3B 4677  35.981   8.488   7.970
   29POPC   C4B 4678  35.816   8.356   7.616
   30POPC   NC3 4679  19.458  28.183   9.359
   30POPC   PO4 4680  19.980  28.516   9.551
   30POPC   GL1 4681  19.761  28.608   9.180
   30POPC   GL2 4682  20.031  28.812   9.110
   30POPC   C1A 4683  19.753  28.398   8.791
   30POPC   D2A 4684  19.715  28.094   8.443
   30POPC   C3A 4685  19.666  28.271   8.022
   30POPC   C4A 4686  19.857  28.093   7.642
   30POPC   C1B 4687  20.177  28.697   8.733
   30POPC   C2B 4688  19.977  28.559   8.360
   30POPC   C3B 4689  20.125  28.517   7.963
   30POPC   C4B 4690  19.886  28.578   7.616
   31POPC   NC3 4691  19.065  16.431   9.776
   31POPC   PO4 4692  19.182  17.031   9.643
   31POPC   GL1 4693  19.168  16.980   9.169
   31POPC   GL2 4694  19.160  16.620   9.084
   31POPC   C1A 4695  19.164  17.097   8.723
   31POPC   D2A 4696  18.809  17.019   8.449
   31POPC   C3A 4697  18.795  17.126   8.035
   31POPC   C4A 4698  18.646  17.094   7.640
   31POPC   C1B 4699  19.119  16.589   8.630
   31POPC   C2B 4700  19.262  16.825   8.257
   31POPC   C3B 4701  19.120  16.746   7.851
   31POPC   C4B 4702  19.160  16.422   7.497
   32POPC   NC3 4703  28.444  29.640   9.464
   32POPC   PO4 4704  28.475  30.217   9.186
   32POPC   GL1 4705  28.487  29.856   9.005
   32POPC   GL2 4706  28.145  29.784   9.082
   32POPC   C1A 4707  28.598  29.902   8.606
   32POPC   D2A 4708  28.817  30.126   8.337
   32POPC   C3A 4709  28.622  30.010   8.015
   32POPC   C4A 4710  28.496  29.900   7.617
   32POPC   C1B 4711  28.098  29.818   8.663
   32POPC   C2B 4712  28.201  29.838   8.267
   32POPC   C3B 4713  28.139  29.694   7.911
   32POPC   C4B 4714  28.000  29.865   7.551
   33POPC   NC3 4715  14.164  34.541   9.590
   33POPC   PO4 4716  14.782  34.804   9.266
   33POPC   GL1 4717  14.520  34.616   8.959
   33POPC   GL2 4718  14.193  34.553   9.082
   33POPC   C1A 4719  14.232  34.697   8.611
   33POPC   D2A 4720  14.179  34.626   8.190
   33POPC   C3A 4721  14.578  34.669   8.015
   33POPC   C4A 4722  14.852  34.388   7.794
   33POPC   C1B 4723  14.025  34.213   8.804
   33POPC   C2B 4724  13.996  34.011   8.377
   33POPC   C3B 4725  13.994  34.223   7.977
   33POPC   C4B 4726  14.298  34.395   7.690
   34POPC   NC3 4727   0.481   0.263   9.597
   34POPC   PO4 4728   0.321   0.953   9.552
   34POPC   GL1 4729   0.553   0.684   9.313
   34POPC   GL2 4730   0.315   0.491   9.162
   34POPC   C1A 4731   0.702   0.682   8.858
   34POPC   D2A 4732   0.553   0.410   8.479
   34POPC   C3A 4733   0.566   0.523   7.998
   34POPC   C4A 4734   0.678   0.156   7.716
   34POPC   C1B 4735   0.148   0.240   8.834
   34POPC   C2B 4736   0.042   0.225   8.421
   34POPC   C3B 4737   0.225   0.157   8.064
   34POPC   C4B 4738   0.182   0.296   7.674
   35POPC   NC3 4739  23.175   9.012   9.683
   35POPC   PO4 4740  22.569   8.736   9.540
   35POPC   GL1 4741  22.779   9.056   9.273
   35POPC   GL2 4742  23.158   9.087   9.177
   35POPC   C1A 4743  22.626   9.129   8.854
   35POPC   D2A 4744  22.608   8.831   8.494
   35POPC   C3A 4745  22.737   8.869   8.045
   35POPC   C4A 4746  22.901   8.511   7.774
   35POPC   C1B 4747  23.061   8.853   8.797
   35POPC   C2B 4748  23.185   8.911   8.359
   35POPC   C3B 4749  23.251   8.864   7.902
   35POPC   C4B 4750  23.270   9.038   7.482
   36POPC   NC3 4751  17.714   6.608   9.540
   36POPC   PO4 4752  17.065   6.881   9.641
   36POPC   GL1 4753  17.364   6.809   9.250
   36POPC   GL2 4754  17.734   6.943   9.144
   36POPC   C1A 4755  17.540   6.555   8.892
   36POPC   D2A 4756  17.658   6.454   8.458
   36POPC   C3A 4757  17.406   6.384   8.069
   36POPC   C4A 4758  17.304   6.641   7.704
   36POPC   C1B 4759  17.960   6.803   8.753
   36POPC   C2B 4760  18.104   6.663   8.336
   36POPC   C3B 4761  17.894   6.624   7.895
   36POPC   C4B 4762  17.916   6.726   7.418
   37POPC   NC3 4763  36.640  41.506   9.395
   37POPC   PO4 4764  37.201  41.812   9.451
   37POPC   GL1 4765  36.990  41.744   9.069
   37POPC   GL2 4766  36.907  41.378   8.988
   37POPC   C1A 4767  37.141  41.697   8.664
   37POPC   D2A 4768  37.201  41.565   8.243
   37POPC   C3A 4769  36.912  41.762   7.993
   37POPC   C4A 4770  36.654  41.710   7.620
   37POPC   C1B 4771  36.889  41.264   8.557
   37POPC   C2B 4772  36.744  41.297   8.150
   37POPC   C3B 4773  36.901  41.291   7.744
   37POPC   C4B 4774  36.719  41.161   7.328
   38POPC   NC3 4775  14.643   9.569   9.411
   38POPC   PO4 4776  14.094   9.903   9.520
   38POPC   GL1 4777  14.289   9.836   9.145
   38POPC   GL2 4778  14.248   9.515   9.108
   38POPC   C1A 4779  14.621   9.790   8.801
   38POPC   D2A 4780  14.663   9.574   8.430
   38POPC   C3A 4781  14.731   9.799   8.066
   38POPC   C4A 4782  14.528   9.676   7.717
   38POPC   C1B 4783  14.136   9.560   8.720
   38POPC   C2B 4784  13.883   9.675   8.412
   38POPC   C3B 4785  14.100   9.642   8.042
   38POPC   C4B 4786  13.905   9.790   7.699
   39POPC   NC3 4787   0.980   4.797   9.337
   39POPC   PO4 4788   1.477   5.080   9.680
   39POPC   GL1 4789   1.431   5.038   9.217
   39POPC   GL2 4790   1.652   4.798   9.152
   39POPC   C1A 4791   1.249   4.943   8.778
   39POPC   D2A 4792   1.054   5.256   8.493
   39POPC   C3A 4793   1.152   5.233   8.072
   39POPC   C4A 4794   0.969   4.997   7.741
   39POPC   C1B 4795   1.764   4.945   8.752
   39POPC   C2B 4796   1.555   5.023   8.370
   39POPC   C3B 4797   1.482   4.874   7.971
   39POPC   C4B 4798   1.507   4.721   7.601
   40POPC   NC3 4799   6.734  37.264   9.534
   40POPC   PO4 4800   6.420  36.649   9.581
   40POPC   GL1 4801   6.462  36.910   9.228
   40POPC   GL2 4802   6.796  36.946   9.136
   40POPC   C1A 4803   6.478  37.004   8.760
   40POPC   D2A 4804   6.763  37.095   8.395
   40POPC   C3A 4805   6.554  37.072   7.985
   40POPC   C4A 4806   6.512  37.041   7.557
   40POPC   C1B 4807   6.964  36.691   8.796
   40POPC   C2B 4808   7.184  36.592   8.389
   40POPC   C3B 4809   7.055  36.410   7.975
   40POPC   C4B 4810   6.703  36.585   7.734
   41POPC   NC3 4811  38.180  14.057   9.596
   41POPC   PO4 4812  38.767  13.746   9.538
   41POPC   GL1 4813  38.486  13.584   9.210
   41POPC   GL2 4814  38.744  13.377   9.068
   41POPC   C1A 4815  38.263  13.281   8.880
   41POPC   D2A 4816  38.310  13.229   8.402
   41POPC   C3A 4817  38.173  13.516   8.029
   41POPC   C4A 4818  38.195  13.404   7.552
   41POPC   C1B 4819  38.599  13.639   8.699
   41POPC   C2B 4820  38.661  13.641   8.253
   41POPC   C3B 4821  38.608  13.662   7.798
   41POPC   C4B 4822  38.481  13.839   7.411
   42POPC   NC3 4823  10.057  27.213   9.523
   42POPC   PO4 4824   9.802  27.865   9.468
   42POPC   GL1 4825   9.728  27.779   9.041
   42POPC   GL2 4826   9.862  27.468   9.118
   42POPC   C1A 4827   9.873  27.705   8.608
   42POPC   D2A 4828   9.632  27.646   8.245
   42POPC   C3A 4829   9.676  27.645   7.808
   42POPC   C4A 4830   9.490  27.764   7.420
   42POPC   C1B 4831   9.968  27.236   8.795
   42POPC   C2B 4832  10.060  27.248   8.402
   42POPC   C3B 4833   9.767  27.188   8.106
   42POPC   C4B 4834  10.036  27.206   7.826
   43POPC   NC3 4835  29.653  36.517   9.514
   43POPC   PO4 4836  29.809  35.848   9.409
   43POPC   GL1 4837  29.955  36.042   9.074
   43POPC   GL2 4838  29.644  36.216   9.083
   43POPC   C1A 4839  29.876  35.960   8.654
   43POPC   D2A 4840  29.731  35.671   8.338
   43POPC   C3A 4841  29.682  35.928   7.971
   43POPC   C4A 4842  29.778  36.085   7.564
   43POPC   C1B 4843  29.585  36.383   8.702
   43POPC   C2B 4844  29.810  36.338   8.292
   43POPC   C3B 4845  29.944  36.442   7.875
   43POPC   C4B 4846  29.871  36.547   7.409
   44POPC   NC3 4847  34.206  39.724   9.454
   44POPC   PO4 4848  33.494  39.855   9.625
   44POPC   GL1 4849  33.647  39.709   9.216
   44POPC   GL2 4850  33.940  39.961   9.112
   44POPC   C1A 4851  33.562  39.854   8.791
   44POPC   D2A 4852  33.899  40.120   8.606
   44POPC   C3A 4853  33.968  40.102   8.153
   44POPC   C4A 4854  33.833  40.142   7.764
   44POPC   C1B 4855  34.028  39.627   8.789
   44POPC   C2B 4856  33.830  39.644   8.391
   44POPC   C3B 4857  34.031  39.618   8.012
   44POPC   C4B 4858  33.897  39.666   7.568
   45POPC   NC3 4859  44.840  41.590   9.645
   45POPC   PO4 4860  44.273  41.901   9.746
   45POPC   GL1 4861  44.479  41.783   9.297
   45POPC   GL2 4862  44.854  41.819   9.169
   45POPC   C1A 4863  44.365  41.801   8.843
   45POPC   D2A 4864  44.445  41.539   8.484
   45POPC   C3A 4865  44.671  41.687   8.137
   45POPC   C4A 4866  44.611  41.528   7.733
   45POPC   C1B 4867  44.731  41.441   8.923
   45POPC   C2B 4868  44.850  41.235   8.539
   45POPC   C3B 4869  44.846  41.210   8.096
   45POPC   C4B 4870  44.959  41.149   7.672
   46POPC   NC3 4871  39.728  25.790   9.592
   46POPC   PO4 4872  39.088  26.096   9.547
   46POPC   GL1 4873  39.273  26.153   9.149
   46POPC   GL2 4874  39.494  25.931   9.161
   46POPC   C1A 4875  39.199  26.135   8.705
   46POPC   D2A 4876  39.409  26.303   8.343
   46POPC   C3A 4877  39.230  26.246   7.947
   46POPC   C4A 4878  39.469  26.291   7.596
   46POPC   C1B 4879  39.660  25.748   8.808
   46POPC   C2B 4880  39.655  25.594   8.398
   46POPC   C3B 4881  39.455  25.798   8.075
   46POPC   C4B 4882  39.334  25.641   7.669
   47POPC   NC3 4883  21.062  40.703   9.579
   47POPC   PO4 4884  20.449  40.724   9.584
   47POPC   GL1 4885  20.367  40.718   9.129
   47POPC   GL2 4886  20.723  40.617   9.052
   47POPC   C1A 4887  20.484  40.836   8.679
   47POPC   D2A 4888  20.711  40.869   8.286
   47POPC   C3A 4889  20.517  40.979   7.876
   47POPC   C4A 4890  20.780  40.910   7.484
   47POPC   C1B 4891  20.905  40.419   8.666
   47POPC   C2B 4892  20.956  40.388   8.223
   47POPC   C3B 4893  20.674  40.497   7.878
   47POPC   C4B 4894  20.382  40.610   7.533
   48POPC   NC3 4895  43.553   8.392   9.503
   48POPC   PO4 4896  44.222   8.227   9.461
   48POPC   GL1 4897  43.867   8.111   9.183
   48POPC   GL2 4898  43.686   7.785   9.191
   48POPC   C1A 4899  43.742   8.319   8.808
   48POPC   D2A 4900  43.981   8.402   8.466
   48POPC   C3A 4901  43.915   8.245   8.072
   48POPC   C4A 4902  44.090   8.517   7.795
   48POPC   C1B 4903  43.787   7.823   8.749
   48POPC   C2B 4904  43.631   7.856   8.330
   48POPC   C3B 4905  43.797   7.766   7.901
   48POPC   C4B 4906  43.860   7.782   7.447
   49POPC   NC3 4907  12.425  21.005   9.418
   49POPC   PO4 4908  12.147  20.475   9.454
   49POPC   GL1 4909  11.953  20.517   9.156
   49POPC   GL2 4910  11.991  20.834   9.106
   49POPC   C1A 4911  12.031  20.388   8.771
   49POPC   D2A 4912  11.947  20.578   8.399
   49POPC   C3A 4913  11.934  20.369   8.014
   49POPC   C4A 4914  11.865  20.605   7.644
   49POPC   C1B 4915  12.232  20.933   8.767
   49POPC   C2B 4916  12.147  21.064   8.381
   49POPC   C3B 4917  12.172  20.858   8.009
   49POPC   C4B 4918  12.098  21.060   7.638
   50POPC   NC3 4919  44.302   7.034   9.512
   50POPC   PO4 4920  43.760   7.217   9.925
   50POPC   GL1 4921  43.880   7.358   9.438
   50POPC   GL2 4922  44.192   7.507   9.288
   50POPC   C1A 4923  43.784   7.344   8.950
   50POPC   D2A 4924  43.891   7.397   8.486
   50POPC   C3A 4925  43.735   7.275   8.065
   50POPC   C4A 4926  43.853   7.308   7.638
   50POPC   C1B 4927  44.283   7.277   8.882
   50POPC   C2B 4928  44.412   7.347   8.454
   50POPC   C3B 4929  44.217   7.394   8.049
   50POPC   C4B 4930  44.367   7.287   7.666
   51POPC   NC3 4931   1.385  41.912   9.535
   51POPC   PO4 4932   0.882  42.309   9.548
   51POPC   GL1 4933   1.115  42.362   9.152
   51POPC   GL2 4934   1.458  42.254   9.167
   51POPC   C1A 4935   0.937  42.421   8.745
   51POPC   D2A 4936   1.124  42.488   8.338
   51POPC   C3A 4937   0.939  42.339   7.963
   51POPC   C4A 4938   1.121  42.475   7.583
   51POPC   C1B 4939   1.456  42.354   8.725
   51POPC   C2B 4940   1.453  42.113   8.358
   51POPC   C3B 4941   1.444  42.207   7.935
   51POPC   C4B 4942   1.529  42.178   7.508
   52POPC   NC3 4943  29.500  38.040   9.527
   52POPC   PO4 4944  30.152  37.616   9.506
   52POPC   GL1 4945  29.908  37.758   9.143
   52POPC   GL2 4946  29.886  38.113   9.201
   52POPC   C1A 4947  29.877  37.720   8.686
   52POPC   D2A 4948  29.862  37.957   8.330
   52POPC   C3A 4949  29.755  37.650   8.036
   52POPC   C4A 4950  29.761  37.590   7.621
   52POPC   C1B 4951  29.566  38.079   8.860
   52POPC   C2B 4952  29.402  38.178   8.466
   52POPC   C3B 4953  29.396  38.019   8.065
   52POPC   C4B 4954  29.318  38.147   7.672
   53POPC   NC3 4955   1.622  12.329   9.555
   53POPC   PO4 4956   2.146  11.867   9.508
   53POPC   GL1 4957   2.088  12.199   9.215
   53POPC   GL2 4958   1.788  12.347   9.088
   53POPC   C1A 4959   2.194  12.197   8.784
   53POPC   D2A 4960   2.053  12.002   8.415
   53POPC   C3A 4961   2.232  12.182   8.060
   53POPC   C4A 4962   2.134  12.199   7.661
   53POPC   C1B 4963   1.843  12.576   8.710
   53POPC   C2B 4964   2.054  12.575   8.309
   53POPC   C3B 4965   1.868  12.610   7.856
   53POPC   C4B 4966   1.842  12.503   7.374
   54POPC   NC3 4967   2.485  40.702   9.517
   54POPC   PO4 4968   3.129  40.851   9.577
   54POPC   GL1 4969   2.852  40.913   9.223
   54POPC   GL2 4970   2.800  40.537   9.176
   54POPC   C1A 4971   2.581  40.974   8.839
   54POPC   D2A 4972   2.736  40.842   8.403
   54POPC   C3A 4973   2.529  40.809   7.991
   54POPC   C4A 4974   2.390  41.158   7.775
   54POPC   C1B 4975   2.997  40.621   8.803
   54POPC   C2B 4976   2.942  40.388   8.421
   54POPC   C3B 4977   2.998  40.569   8.012
   54POPC   C4B 4978   3.023  40.264   7.711
   55POPC   NC3 4979  34.331   3.899   9.478
   55POPC   PO4 4980  34.756   3.509   9.699
   55POPC   GL1 4981  34.627   3.476   9.252
   55POPC   GL2 4982  34.752   3.161   9.114
   55POPC   C1A 4983  34.637   3.565   8.772
   55POPC   D2A 4984  34.676   3.448   8.300
   55POPC   C3A 4985  34.579   3.719   7.904
   55POPC   C4A 4986  34.647   3.787   7.433
   55POPC   C1B 4987  34.409   3.098   8.797
   55POPC   C2B 4988  34.395   3.008   8.325
   55POPC   C3B 4989  34.428   3.210   7.909
   55POPC   C4B 4990  34.788   3.331   7.621
   56POPC   NC3 4991   8.632  23.737   9.219
   56POPC   PO4 4992   9.197  24.025   9.215
   56POPC   GL1 4993   8.949  23.951   8.898
   56POPC   GL2 4994   9.027  23.574   8.918
   56POPC   C1A 4995   8.951  23.849   8.490
   56POPC   D2A 4996   9.062  23.506   8.251
   56POPC   C3A 4997   9.010  23.640   7.843
   56POPC   C4A 4998   8.973  23.926   7.488
   56POPC   C1B 4999   8.666  23.443   8.637
   56POPC   C2B 5000   8.373  23.380   8.309
   56POPC   C3B 5001   8.535  23.420   7.919
   56POPC   C4B 5002   8.640  23.525   7.511
   57POPC   NC3 5003  37.642   6.110   9.876
   57POPC   PO4 5004  37.733   6.739   9.489
   57POPC   GL1 5005  37.609   6.554   9.104
   57POPC   GL2 5006  37.561   6.191   9.165
   57POPC   C1A 5007  37.681   6.701   8.687
   57POPC   D2A 5008  37.387   6.858   8.361
   57POPC   C3A 5009  37.456   6.756   7.958
   57POPC   C4A 5010  37.840   6.727   7.809
   57POPC   C1B 5011  37.683   6.198   8.704
   57POPC   C2B 5012  37.665   6.403   8.274
   57POPC   C3B 5013  37.631   6.262   7.851
   57POPC   C4B 5014  37.496   6.068   7.434
   58POPC   NC3 5015  35.701  22.082   9.322
   58POPC   PO4 5016  36.287  22.275   9.659
   58POPC   GL1 5017  36.195  22.035   9.290
   58POPC   GL2 5018  36.193  22.354   9.124
   58POPC   C1A 5019  36.162  21.961   8.834
   58POPC   D2A 5020  36.346  22.209   8.503
   58POPC   C3A 5021  36.298  22.036   8.083
   58POPC   C4A 5022  36.258  22.160   7.661
   58POPC   C1B 5023  35.919  22.429   8.731
   58POPC   C2B 5024  35.933  22.695   8.370
   58POPC   C3B 5025  36.101  22.557   7.989
   58POPC   C4B 5026  35.916  22.501   7.573
   59POPC   NC3 5027  37.164  10.389   9.538
   59POPC   PO4 5028  36.870  11.027   9.523
   59POPC   GL1 5029  36.951  10.764   9.176
   59POPC   GL2 5030  36.916  10.425   9.096
   59POPC   C1A 5031  36.913  10.760   8.735
   59POPC   D2A 5032  37.136  10.766   8.369
   59POPC   C3A 5033  36.908  10.620   8.035
   59POPC   C4A 5034  36.942  10.609   7.640
   59POPC   C1B 5035  36.912  10.155   8.718
   59POPC   C2B 5036  36.862  10.132   8.278
   59POPC   C3B 5037  36.875  10.135   7.849
   59POPC   C4B 5038  36.596  10.240   7.523
   60POPC   NC3 5039  35.357  15.664   9.408
   60POPC   PO4 5040  35.808  16.295   9.356
   60POPC   GL1 5041  35.567  16.008   9.115
   60POPC   GL2 5042  35.183  16.016   9.058
   60POPC   C1A 5043  35.603  15.909   8.729
   60POPC   D2A 5044  35.472  16.058   8.346
   60POPC   C3A 5045  35.603  15.873   7.979
   60POPC   C4A 5046  35.557  15.987   7.554
   60POPC   C1B 5047  35.110  15.759   8.690
   60POPC   C2B 5048  35.186  15.668   8.264
   60POPC   C3B 5049  35.031  15.884   7.917
   60POPC   C4B 5050  35.084  15.867   7.486
   61POPC   NC3 5051  33.832  11.081   9.513
   61POPC   PO4 5052  33.662  10.424   9.589
   61POPC   GL1 5053  34.027  10.506   9.295
   61POPC   GL2 5054  34.096  10.177   9.162
   61POPC   C1A 5055  34.128  10.594   8.834
   61POPC   D2A 5056  33.837  10.583   8.445
   61POPC   C3A 5057  34.023  10.598   8.027
   61POPC   C4A 5058  33.941  10.405   7.629
   61POPC   C1B 5059  33.772  10.237   8.825
   61POPC   C2B 5060  33.861  10.043   8.404
   61POPC   C3B 5061  33.997   9.981   7.971
   61POPC   C4B 5062  33.717   9.934   7.629
   62POPC   NC3 5063  12.554  30.293   9.419
   62POPC   PO4 5064  12.997  30.809   9.451
   62POPC   GL1 5065  12.936  30.991   9.095
   62POPC   GL2 5066  12.658  30.763   9.040
   62POPC   C1A 5067  13.076  31.181   8.737
   62POPC   D2A 5068  12.860  31.209   8.333
   62POPC   C3A 5069  12.952  30.856   8.054
   62POPC   C4A 5070  13.138  30.815   7.637
   62POPC   C1B 5071  12.730  30.757   8.581
   62POPC   C2B 5072  12.964  30.419   8.379
   62POPC   C3B 5073  13.160  30.378   7.989
   62POPC   C4B 5074  12.915  30.338   7.628
   63POPC   NC3 5075  12.928  27.742   9.421
   63POPC   PO4 5076  13.327  27.190   9.150
   63POPC   GL1 5077  13.096  27.488   9.011
   63POPC   GL2 5078  12.823  27.376   9.048
   63POPC   C1A 5079  13.153  27.707   8.659
   63POPC   D2A 5080  12.959  27.814   8.308
   63POPC   C3A 5081  12.976  27.507   7.982
   63POPC   C4A 5082  12.806  27.475   7.578
   63POPC   C1B 5083  12.652  27.618   8.728
   63POPC   C2B 5084  12.477  27.613   8.315
   63POPC   C3B 5085  12.523  27.802   7.878
   63POPC   C4B 5086  12.512  27.836   7.390
   64POPC   NC3 5087  12.033  33.223   9.414
   64POPC   PO4 5088  12.599  32.980   9.635
   64POPC   GL1 5089  12.449  33.128   9.168
   64POPC   GL2 5090  12.179  32.913   9.039
   64POPC   C1A 5091  12.152  33.331   8.776
   64POPC   D2A 5092  12.000  33.072   8.422
   64POPC   C3A 5093  12.134  33.170   7.996
   64POPC   C4A 5094  12.149  32.957   7.594
   64POPC   C1B 5095  12.458  32.938   8.682
   64POPC   C2B 5096  12.622  32.711   8.366
   64POPC   C3B 5097  12.360  32.627   8.020
   64POPC   C4B 5098  12.515  32.607   7.643
   65POPC   NC3 5099  25.719   0.304   9.680
   65POPC   PO4 5100  26.240   0.591   9.426
   65POPC   GL1 5101  26.111   0.439   9.101
   65POPC   GL2 5102  25.978   0.114   9.211
   65POPC   C1A 5103  26.334   0.509   8.720
   65POPC   D2A 5104  26.087   0.408   8.373
   65POPC   C3A 5105  26.182   0.567   7.980
   65POPC   C4A 5106  26.033   0.404   7.588
   65POPC   C1B 5107  26.154   0.042   8.786
   65POPC   C2B 5108  25.938  44.917   8.406
   65POPC   C3B 5109  26.068   0.026   7.994
   65POPC   C4B 5110  25.819  44.941   7.629
   66POPC   NC3 5111  20.129  23.740   9.625
   66POPC   PO4 5112  19.550  23.562   9.626
   66POPC   GL1 5113  19.744  23.490   9.231
   66POPC   GL2 5114  20.094  23.347   9.281
   66POPC   C1A 5115  19.588  23.676   8.840
   66POPC   D2A 5116  19.513  23.882   8.444
   66POPC   C3A 5117  19.716  23.647   8.089
   66POPC   C4A 5118  19.858  23.834   7.662
   66POPC   C1B 5119  20.106  23.568   8.858
   66POPC   C2B 5120  20.105  23.435   8.399
   66POPC   C3B 5121  20.211  23.538   7.948
   66POPC   C4B 5122  20.235  23.515   7.485
   67POPC   NC3 5123  21.957  29.666   9.308
   67POPC   PO4 5124  22.008  30.329   9.535
   67POPC   GL1 5125  21.958  30.184   9.162
   67POPC   GL2 5126  22.312  30.081   9.193
   67POPC   C1A 5127  22.019  30.051   8.757
   67POPC   D2A 5128  22.044  29.794   8.423
   67POPC   C3A 5129  21.954  29.972   8.041
   67POPC   C4A 5130  22.089  29.875   7.664
   67POPC   C1B 5131  22.535  29.833   8.923
   67POPC   C2B 5132  22.567  29.864   8.484
   67POPC   C3B 5133  22.448  29.846   8.071
   67POPC   C4B 5134  22.557  30.063   7.719
   68POPC   NC3 5135  16.113  18.944   9.429
   68POPC   PO4 5136  15.542  19.265   9.466
   68POPC   GL1 5137  15.825  19.218   9.092
   68POPC   GL2 5138  16.196  19.193   9.006
   68POPC   C1A 5139  15.813  19.084   8.682
   68POPC   D2A 5140  15.717  18.938   8.250
   68POPC   C3A 5141  15.834  19.258   7.990
   68POPC   C4A 5142  16.078  19.226   7.602
   68POPC   C1B 5143  16.339  19.025   8.695
   68POPC   C2B 5144  16.189  19.123   8.335
   68POPC   C3B 5145  16.204  18.913   7.964
   68POPC   C4B 5146  16.492  18.936   7.616
   69POPC   NC3 5147   2.125  39.858   9.410
   69POPC   PO4 5148   2.264  40.383   9.757
   69POPC   GL1 5149   2.151  40.376   9.193
   69POPC   GL2 5150   1.838  40.213   9.065
   69POPC   C1A 5151   2.210  40.087   8.763
   69POPC   D2A 5152   1.983  40.009   8.394
   69POPC   C3A 5153   2.171  40.016   8.003
   69POPC   C4A 5154   2.046  40.082   7.581
   69POPC   C1B 5155   1.784  39.789   8.837
   69POPC   C2B 5156   1.681  39.592   8.430
   69POPC   C3B 5157   1.944  39.570   8.101
   69POPC   C4B 5158   1.769  39.713   7.746
   70POPC   NC3 5159  27.561  17.570  10.317
   70POPC   PO4 5160  27.824  17.519   9.838
   70POPC   GL1 5161  27.751  17.488   9.287
   70POPC   GL2 5162  27.546  17.206   9.164
   70POPC   C1A 5163  27.609  17.556   8.781
   70POPC   D2A 5164  27.396  17.601   8.344
   70POPC   C3A 5165  27.621  17.663   7.923
   70POPC   C4A 5166  27.889  17.429   7.618
   70POPC   C1B 5167  27.771  17.071   8.795
   70POPC   C2B 5168  27.709  17.193   8.380
   70POPC   C3B 5169  27.468  17.185   7.998
   70POPC   C4B 5170  27.484  16.874   7.652
   71POPC   NC3 5171  26.351  32.867   9.560
   71POPC   PO4 5172  25.688  32.711   9.533
   71POPC   GL1 5173  25.754  32.956   9.153
   71POPC   GL2 5174  26.106  33.025   9.121
   71POPC   C1A 5175  25.826  33.033   8.693
   71POPC   D2A 5176  26.143  33.161   8.387
   71POPC   C3A 5177  26.008  33.293   7.975
   71POPC   C4A 5178  25.716  33.170   7.656
   71POPC   C1B 5179  26.183  33.414   8.871
   71POPC   C2B 5180  26.536  33.469   8.603
   71POPC   C3B 5181  26.479  33.476   8.152
   71POPC   C4B 5182  26.461  33.143   7.822
   72POPC   NC3 5183  34.025  10.112   9.670
   72POPC   PO4 5184  33.829   9.469   9.767
   72POPC   GL1 5185  33.926   9.681   9.348
   72POPC   GL2 5186  33.774   9.394   9.245
   72POPC   C1A 5187  33.870   9.746   8.863
   72POPC   D2A 5188  33.569   9.594   8.509
   72POPC   C3A 5189  33.527   9.717   8.058
   72POPC   C4A 5190  33.450   9.375   7.722
   72POPC   C1B 5191  33.793   9.251   8.848
   72POPC   C2B 5192  33.986   9.277   8.468
   72POPC   C3B 5193  33.811   9.296   8.092
   72POPC   C4B 5194  33.939   9.489   7.714
   73POPC   NC3 5195   6.919   1.982   9.504
   73POPC   PO4 5196   6.389   2.290   9.460
   73POPC   GL1 5197   6.430   2.130   9.063
   73POPC   GL2 5198   6.549   1.829   9.094
   73POPC   C1A 5199   6.528   2.211   8.625
   73POPC   D2A 5200   6.500   1.992   8.245
   73POPC   C3A 5201   6.577   2.157   7.863
   73POPC   C4A 5202   6.701   1.941   7.514
   73POPC   C1B 5203   6.343   1.721   8.689
   73POPC   C2B 5204   6.201   1.587   8.263
   73POPC   C3B 5205   6.453   1.622   7.861
   73POPC   C4B 5206   6.777   1.462   7.604
   74POPC   NC3 5207   5.900  23.151   9.547
   74POPC   PO4 5208   5.489  22.549   9.461
   74POPC   GL1 5209   5.735  22.832   9.212
   74POPC   GL2 5210   5.509  23.040   9.059
   74POPC   C1A 5211   5.977  22.904   8.828
   74POPC   D2A 5212   5.816  22.779   8.407
   74POPC   C3A 5213   5.837  22.973   7.991
   74POPC   C4A 5214   5.697  23.006   7.559
   74POPC   C1B 5215   5.483  22.691   8.801
   74POPC   C2B 5216   5.370  22.499   8.463
   74POPC   C3B 5217   5.482  22.564   8.071
   74POPC   C4B 5218   5.717  22.529   7.715
   75POPC   NC3 5219  44.108  25.646   9.406
   75POPC   PO4 5220  43.776  24.958   9.438
   75POPC   GL1 5221  43.984  25.221   9.168
   75POPC   GL2 5222  44.309  25.102   9.200
   75POPC   C1A 5223  43.900  25.489   8.783
   75POPC   D2A 5224  43.865  25.659   8.353
   75POPC   C3A 5225  43.870  25.436   7.968
   75POPC   C4A 5226  43.785  25.431   7.559
   75POPC   C1B 5227  44.259  25.142   8.753
   75POPC   C2B 5228  44.277  25.323   8.383
   75POPC   C3B 5229  44.296  25.123   8.017
   75POPC   C4B 5230  44.091  25.027   7.637
   76POPC   NC3 5231  17.215  10.634   9.556
   76POPC   PO4 5232  17.830  10.696   9.406
   76POPC   GL1 5233  17.517  10.444   9.146
   76POPC   GL2 5234  17.287  10.735   9.074
   76POPC   C1A 5235  17.545  10.253   8.703
   76POPC   D2A 5236  17.346  10.293   8.272
   76POPC   C3A 5237  17.617  10.371   7.962
   76POPC   C4A 5238  17.859  10.713   7.879
   76POPC   C1B 5239  17.605  10.791   8.745
   76POPC   C2B 5240  17.569  10.745   8.312
   76POPC   C3B 5241  17.347  10.794   7.904
   76POPC   C4B 5242  17.144  10.910   7.529
   77POPC   NC3 5243  36.887  35.674   9.478
   77POPC   PO4 5244  37.211  35.160   9.402
   77POPC   GL1 5245  37.111  35.437   9.078
   77POPC   GL2 5246  36.777  35.359   9.043
   77POPC   C1A 5247  37.047  35.427   8.636
   77POPC   D2A 5248  36.801  35.417   8.281
   77POPC   C3A 5249  37.028  35.462   7.911
   77POPC   C4A 5250  37.330  35.464   7.543
   77POPC   C1B 5251  36.646  35.715   8.753
   77POPC   C2B 5252  36.755  35.917   8.378
   77POPC   C3B 5253  36.616  35.817   7.987
   77POPC   C4B 5254  36.550  35.527   7.667
   78POPC   NC3 5255  39.136  23.501   9.870
   78POPC   PO4 5256  39.061  23.997   9.435
   78POPC   GL1 5257  39.311  23.776   9.173
   78POPC   GL2 5258  39.223  23.468   9.130
   78POPC   C1A 5259  39.471  23.782   8.765
   78POPC   D2A 5260  39.232  23.564   8.435
   78POPC   C3A 5261  39.271  23.770   8.052
   78POPC   C4A 5262  39.640  23.771   7.802
   78POPC   C1B 5263  38.972  23.754   8.810
   78POPC   C2B 5264  39.119  24.087   8.531
   78POPC   C3B 5265  38.989  24.223   8.117
   78POPC   C4B 5266  38.962  24.043   7.731
   79POPC   NC3 5267  16.526  40.888   9.411
   79POPC   PO4 5268  15.839  40.744   9.498
   79POPC   GL1 5269  16.103  40.739   9.133
   79POPC   GL2 5270  16.354  40.484   9.032
   79POPC   C1A 5271  15.916  40.888   8.761
   79POPC   D2A 5272  15.766  41.020   8.365
   79POPC   C3A 5273  16.014  40.874   8.044
   79POPC   C4A 5274  15.820  40.910   7.692
   79POPC   C1B 5275  16.079  40.422   8.699
   79POPC   C2B 5276  15.883  40.332   8.298
   79POPC   C3B 5277  15.870  40.387   7.861
   79POPC   C4B 5278  16.022  40.504   7.489
   80POPC   NC3 5279  11.620  34.621   9.712
   80POPC   PO4 5280  12.287  34.623   9.417
   80POPC   GL1 5281  12.020  34.580   9.056
   80POPC   GL2 5282  11.672  34.555   9.144
   80POPC   C1A 5283  11.916  34.696   8.635
   80POPC   D2A 5284  11.677  34.733   8.275
   80POPC   C3A 5285  11.899  34.756   7.928
   80POPC   C4A 5286  12.290  34.676   7.790
   80POPC   C1B 5287  11.707  34.247   8.800
   80POPC   C2B 5288  11.787  34.167   8.365
   80POPC   C3B 5289  11.857  34.226   7.932
   80POPC   C4B 5290  11.775  34.440   7.544
   81POPC   NC3 5291  15.827  33.229   9.562
   81POPC   PO4 5292  15.825  32.699   9.187
   81POPC   GL1 5293  15.979  33.101   9.026
   81POPC   GL2 5294  16.113  33.424   9.179
   81POPC   C1A 5295  15.926  33.024   8.585
   81POPC   D2A 5296  15.753  32.680   8.305
   81POPC   C3A 5297  15.843  32.802   7.895
   81POPC   C4A 5298  15.671  32.873   7.477
   81POPC   C1B 5299  16.216  33.576   8.787
   81POPC   C2B 5300  16.361  33.428   8.369
   81POPC   C3B 5301  16.380  33.321   7.932
   81POPC   C4B 5302  16.069  33.189   7.643
   82POPC   NC3 5303   3.344  41.917   9.575
   82POPC   PO4 5304   3.479  41.382   9.713
   82POPC   GL1 5305   3.384  41.381   9.263
   82POPC   GL2 5306   3.322  41.714   9.109
   82POPC   C1A 5307   3.484  41.352   8.801
   82POPC   D2A 5308   3.422  41.215   8.358
   82POPC   C3A 5309   3.427  41.499   7.996
   82POPC   C4A 5310   3.095  41.592   7.757
   82POPC   C1B 5311   3.116  41.734   8.677
   82POPC   C2B 5312   3.057  41.831   8.220
   82POPC   C3B 5313   3.301  42.039   7.860
   82POPC   C4B 5314   3.377  42.053   7.408
   83POPC   NC3 5315  25.114  19.481   9.878
   83POPC   PO4 5316  25.515  19.913   9.514
   83POPC   GL1 5317  25.299  19.732   9.179
   83POPC   GL2 5318  25.613  19.674   9.043
   83POPC   C1A 5319  24.983  19.754   8.828
   83POPC   D2A 5320  24.993  19.582   8.429
   83POPC   C3A 5321  24.869  19.717   8.035
   83POPC   C4A 5322  25.123  19.666   7.713
   83POPC   C1B 5323  25.477  19.770   8.630
   83POPC   C2B 5324  25.626  19.893   8.245
   83POPC   C3B 5325  25.666  19.650   7.876
   83POPC   C4B 5326  25.545  19.639   7.418
   84POPC   NC3 5327   3.242   0.903   9.866
   84POPC   PO4 5328   3.609   0.353   9.698
   84POPC   GL1 5329   3.460   0.371   9.213
   84POPC   GL2 5330   3.723   0.577   9.011
   84POPC   C1A 5331   3.375   0.304   8.770
   84POPC   D2A 5332   3.618   0.439   8.412
   84POPC   C3A 5333   3.443   0.260   8.073
   84POPC   C4A 5334   3.486   0.407   7.682
   84POPC   C1B 5335   3.403   0.819   8.828
   84POPC   C2B 5336   3.210   0.712   8.480
   84POPC   C3B 5337   3.354   0.758   8.088
   84POPC   C4B 5338   3.343   0.894   7.696
   85POPC   NC3 5339  26.573  30.304   9.408
   85POPC   PO4 5340  26.925  29.666   9.499
   85POPC   GL1 5341  26.902  29.830   9.141
   85POPC   GL2 5342  26.550  29.865   9.112
   85POPC   C1A 5343  26.914  29.652   8.739
   85POPC   D2A 5344  26.919  29.839   8.333
   85POPC   C3A 5345  26.741  29.720   7.946
   85POPC   C4A 5346  26.783  29.841   7.502
   85POPC   C1B 5347  26.677  30.110   8.773
   85POPC   C2B 5348  26.741  30.315   8.427
   85POPC   C3B 5349  26.518  30.131   8.152
   85POPC   C4B 5350  26.499  30.138   7.753
   86POPC   NC3 5351  17.016  24.803   9.465
   86POPC   PO4 5352  17.644  24.558   9.522
   86POPC   GL1 5353  17.445  24.580   9.095
   86POPC   GL2 5354  17.276  24.870   9.042
   86POPC   C1A 5355  17.591  24.384   8.699
   86POPC   D2A 5356  17.769  24.104   8.385
   86POPC   C3A 5357  17.653  24.147   7.950
   86POPC   C4A 5358  17.298  24.363   7.753
   86POPC   C1B 5359  17.539  24.899   8.702
   86POPC   C2B 5360  17.526  24.731   8.292
   86POPC   C3B 5361  17.783  24.667   7.951
   86POPC   C4B 5362  17.918  24.888   7.597
   87POPC   NC3 5363   2.322  22.886   9.631
   87POPC   PO4 5364   2.916  23.178   9.647
   87POPC   GL1 5365   3.035  23.046   9.187
   87POPC   GL2 5366   3.148  23.302   9.001
   87POPC   C1A 5367   3.009  22.738   8.815
   87POPC   D2A 5368   2.946  22.398   8.510
   87POPC   C3A 5369   2.765  22.573   8.134
   87POPC   C4A 5370   2.701  22.705   7.732
   87POPC   C1B 5371   3.171  23.167   8.565
   87POPC   C2B 5372   2.918  23.106   8.191
   87POPC   C3B 5373   3.066  23.091   7.779
   87POPC   C4B 5374   3.085  23.298   7.347
   88POPC   NC3 5375   6.102   7.676   9.587
   88POPC   PO4 5376   6.566   7.210   9.378
   88POPC   GL1 5377   6.547   7.556   9.087
   88POPC   GL2 5378   6.204   7.714   9.078
   88POPC   C1A 5379   6.561   7.544   8.631
   88POPC   D2A 5380   6.603   7.147   8.420
   88POPC   C3A 5381   6.694   7.139   7.970
   88POPC   C4A 5382   6.716   7.546   7.762
   88POPC   C1B 5383   6.144   7.310   8.885
   88POPC   C2B 5384   6.115   7.337   8.471
   88POPC   C3B 5385   6.343   7.480   8.111
   88POPC   C4B 5386   6.217   7.253   7.727
   89POPC   NC3 5387  23.059  44.309   9.312
   89POPC   PO4 5388  22.669  44.789   9.544
   89POPC   GL1 5389  22.826  44.729   9.152
   89POPC   GL2 5390  22.740   0.035   9.056
   89POPC   C1A 5391  22.775  44.526   8.723
   89POPC   D2A 5392  22.844  44.374   8.273
   89POPC   C3A 5393  23.054  44.629   7.952
   89POPC   C4A 5394  23.041  44.664   7.448
   89POPC   C1B 5395  23.070  44.953   8.783
   89POPC   C2B 5396  22.903  44.909   8.389
   89POPC   C3B 5397  22.857   0.212   8.108
   89POPC   C4B 5398  22.933   0.064   7.740
   90POPC   NC3 5399  11.004   7.730   9.359
   90POPC   PO4 5400  11.413   8.284   9.549
   90POPC   GL1 5401  11.327   8.218   9.144
   90POPC   GL2 5402  11.447   7.900   9.120
   90POPC   C1A 5403  11.392   8.246   8.681
   90POPC   D2A 5404  11.215   8.071   8.296
   90POPC   C3A 5405  11.210   8.174   7.872
   90POPC   C4A 5406  10.833   8.176   7.725
   90POPC   C1B 5407  11.793   7.867   8.858
   90POPC   C2B 5408  11.636   7.830   8.457
   90POPC   C3B 5409  11.834   7.784   8.105
   90POPC   C4B 5410  11.594   7.852   7.763
   91POPC   NC3 5411  29.408  35.575   9.372
   91POPC   PO4 5412  29.056  35.006   9.493
   91POPC   GL1 5413  29.214  35.166   9.104
   91POPC   GL2 5414  29.430  34.904   8.979
   91POPC   C1A 5415  29.383  35.385   8.731
   91POPC   D2A 5416  29.216  35.600   8.388
   91POPC   C3A 5417  29.345  35.538   7.978
   91POPC   C4A 5418  29.134  35.454   7.568
   91POPC   C1B 5419  29.163  34.944   8.639
   91POPC   C2B 5420  29.006  35.126   8.304
   91POPC   C3B 5421  29.149  35.089   7.909
   91POPC   C4B 5422  28.962  34.957   7.521
   92POPC   NC3 5423  34.924  43.028   9.467
   92POPC   PO4 5424  34.380  43.381   9.452
   92POPC   GL1 5425  34.507  43.049   9.119
   92POPC   GL2 5426  34.401  42.696   9.057
   92POPC   C1A 5427  34.461  42.963   8.643
   92POPC   D2A 5428  34.748  43.133   8.364
   92POPC   C3A 5429  34.844  43.298   7.974
   92POPC   C4A 5430  34.735  43.147   7.582
   92POPC   C1B 5431  34.859  42.754   8.870
   92POPC   C2B 5432  35.082  42.758   8.468
   92POPC   C3B 5433  34.916  42.801   7.999
   92POPC   C4B 5434  34.964  42.720   7.519
   93POPC   NC3 5435  12.719  32.169   9.368
   93POPC   PO4 5436  13.393  32.363   9.568
   93POPC   GL1 5437  13.129  32.395   9.149
   93POPC   GL2 5438  13.025  32.042   8.988
   93POPC   C1A 5439  12.952  32.472   8.715
   93POPC   D2A 5440  12.975  32.292   8.303
   93POPC   C3A 5441  12.924  32.577   7.953
   93POPC   C4A 5442  12.978  32.471   7.504
   93POPC   C1B 5443  12.626  32.082   8.706
   93POPC   C2B 5444  12.470  32.195   8.295
   93POPC   C3B 5445  12.684  32.137   7.892
   93POPC   C4B 5446  12.580  31.841   7.616
   94POPC   NC3 5447   3.363  34.831   9.514
   94POPC   PO4 5448   3.789  34.269   9.511
   94POPC   GL1 5449   3.574  34.482   9.205
   94POPC   GL2 5450   3.674  34.809   9.106
   94POPC   C1A 5451   3.532  34.413   8.799
   94POPC   D2A 5452   3.393  34.359   8.427
   94POPC   C3A 5453   3.609  34.452   8.065
   94POPC   C4A 5454   3.369  34.644   7.721
   94POPC   C1B 5455   3.422  34.911   8.762
   94POPC   C2B 5456   3.657  34.812   8.428
   94POPC   C3B 5457   3.589  34.954   8.054
   94POPC   C4B 5458   3.225  35.144   7.908
   95POPC   NC3 5459  38.653  22.634   9.459
   95POPC   PO4 5460  38.999  23.202   9.556
   95POPC   GL1 5461  38.670  23.144   9.202
   95POPC   GL2 5462  38.364  22.933   9.149
   95POPC   C1A 5463  38.712  23.042   8.765
   95POPC   D2A 5464  38.768  23.287   8.406
   95POPC   C3A 5465  38.746  23.066   8.075
   95POPC   C4A 5466  38.562  23.084   7.694
   95POPC   C1B 5467  38.229  22.801   8.768
   95POPC   C2B 5468  38.358  22.770   8.349
   95POPC   C3B 5469  38.242  22.745   7.930
   95POPC   C4B 5470  38.250  22.672   7.496
   96POPC   NC3 5471  31.298  13.041   9.429
   96POPC   PO4 5472  31.731  12.555   9.406
   96POPC   GL1 5473  31.550  12.761   9.088
   96POPC   GL2 5474  31.726  13.090   9.010
   96POPC   C1A 5475  31.364  12.677   8.717
   96POPC   D2A 5476  31.613  12.775   8.378
   96POPC   C3A 5477  31.465  12.609   8.003
   96POPC   C4A 5478  31.668  12.729   7.664
   96POPC   C1B 5479  31.335  13.173   8.777
   96POPC   C2B 5480  31.159  13.024   8.376
   96POPC   C3B 5481  31.396  13.103   8.023
   96POPC   C4B 5482  31.369  13.318   7.696
   97POPC   NC3 5483  30.060  44.022   9.591
   97POPC   PO4 5484  29.536  43.663   9.560
   97POPC   GL1 5485  29.587  43.944   9.213
   97POPC   GL2 5486  29.872  44.112   9.134
   97POPC   C1A 5487  29.514  43.972   8.799
   97POPC   D2A 5488  29.648  43.821   8.422
   97POPC   C3A 5489  29.795  44.039   8.045
   97POPC   C4A 5490  29.667  43.859   7.645
   97POPC   C1B 5491  29.995  44.130   8.720
   97POPC   C2B 5492  30.174  44.226   8.360
   97POPC   C3B 5493  30.312  43.896   8.098
   97POPC   C4B 5494  30.175  43.878   7.700
   98POPC   NC3 5495  24.362  40.932   9.438
   98POPC   PO4 5496  24.763  40.390   9.400
   98POPC   GL1 5497  24.652  40.676   9.085
   98POPC   GL2 5498  24.825  41.020   9.177
   98POPC   C1A 5499  24.334  40.631   8.733
   98POPC   D2A 5500  24.286  40.372   8.343
   98POPC   C3A 5501  24.420  40.611   8.012
   98POPC   C4A 5502  24.277  40.809   7.652
   98POPC   C1B 5503  24.595  41.081   8.801
   98POPC   C2B 5504  24.626  40.923   8.402
   98POPC   C3B 5505  24.499  41.105   7.999
   98POPC   C4B 5506  24.736  41.071   7.656
   99POPC   NC3 5507  10.339  42.590   9.505
   99POPC   PO4 5508  10.379  41.932   9.518
   99POPC   GL1 5509  10.418  42.213   9.179
   99POPC   GL2 5510  10.669  42.498   9.126
   99POPC   C1A 5511  10.286  42.393   8.801
   99POPC   D2A 5512  10.302  42.232   8.401
   99POPC   C3A 5513  10.385  42.473   8.023
   99POPC   C4A 5514  10.374  42.145   7.689
   99POPC   C1B 5515  10.719  42.155   8.784
   99POPC   C2B 5516  10.818  42.306   8.390
   99POPC   C3B 5517  10.816  42.219   8.007
   99POPC   C4B 5518  10.767  42.458   7.646
  100POPC   NC3 5519  27.351  28.506   9.464
  100POPC   PO4 5520  27.603  27.965   9.329
  100POPC   GL1 5521  27.639  28.184   8.991
  100POPC   GL2 5522  27.810  28.452   9.127
  100POPC   C1A 5523  27.386  28.425   8.728
  100POPC   D2A 5524  27.474  28.571   8.315
  100POPC   C3A 5525  27.630  28.247   8.034
  100POPC   C4A 5526  27.733  28.159   7.594
  100POPC   C1B 5527  27.888  28.671   8.736
  100POPC   C2B 5528  27.979  28.766   8.290
  100POPC   C3B 5529  27.792  28.704   7.872
  100POPC   C4B 5530  27.900  28.616   7.414
  101POPC   NC3 5531   7.120   9.954   9.417
  101POPC   PO4 5532   7.725   9.727   9.445
  101POPC   GL1 5533   7.483   9.782   9.094
  101POPC   GL2 5534   7.271   9.494   9.115
  101POPC   C1A 5535   7.498   9.675   8.680
  101POPC   D2A 5536   7.535   9.860   8.306
  101POPC   C3A 5537   7.715   9.608   8.013
  101POPC   C4A 5538   7.670   9.938   7.731
  101POPC   C1B 5539   7.036   9.498   8.720
  101POPC   C2B 5540   7.191   9.478   8.283
  101POPC   C3B 5541   7.235   9.686   7.886
  101POPC   C4B 5542   7.442   9.529   7.506
  102POPC   NC3 5543  13.880  32.563   9.540
  102POPC   PO4 5544  13.457  33.090   9.348
  102POPC   GL1 5545  13.802  32.896   9.137
  102POPC   GL2 5546  13.616  32.592   9.095
  102POPC   C1A 5547  13.865  32.837   8.702
  102POPC   D2A 5548  13.657  32.978   8.360
  102POPC   C3A 5549  13.724  33.011   7.934
  102POPC   C4A 5550  13.543  33.374   7.715
  102POPC   C1B 5551  13.347  32.794   8.780
  102POPC   C2B 5552  13.196  32.753   8.370
  102POPC   C3B 5553  13.415  32.597   8.058
  102POPC   C4B 5554  13.437  32.661   7.642
  103POPC   NC3 5555  40.946  44.773   9.461
  103POPC   PO4 5556  41.239  44.213   9.334
  103POPC   GL1 5557  41.044  44.492   9.028
  103POPC   GL2 5558  40.683  44.577   9.049
  103POPC   C1A 5559  40.943  44.555   8.590
  103POPC   D2A 5560  41.129  44.691   8.221
  103POPC   C3A 5561  40.936  44.573   7.839
  103POPC   C4A 5562  40.560  44.403   7.609
  103POPC   C1B 5563  40.543  44.852   8.697
  103POPC   C2B 5564  40.671  44.953   8.246
  103POPC   C3B 5565  40.505  44.858   7.834
  103POPC   C4B 5566  40.335   0.076   7.474
  104POPC   NC3 5567   4.087   0.388   9.726
  104POPC   PO4 5568   4.641   0.236   9.406
  104POPC   GL1 5569   4.239   0.381   9.144
  104POPC   GL2 5570   4.213   0.712   9.036
  104POPC   C1A 5571   4.057   0.401   8.684
  104POPC   D2A 5572   4.196   0.605   8.289
  104POPC   C3A 5573   4.146   0.489   7.867
  104POPC   C4A 5574   3.956   0.377   7.505
  104POPC   C1B 5575   4.508   0.657   8.696
  104POPC   C2B 5576   4.729   0.615   8.327
  104POPC   C3B 5577   4.799   0.772   7.930
  104POPC   C4B 5578   4.553   0.667   7.580
  105POPC   NC3 5579  20.203  22.427   9.631
  105POPC   PO4 5580  20.805  22.109   9.457
  105POPC   GL1 5581  20.661  22.212   9.049
  105POPC   GL2 5582  20.312  22.269   9.117
  105POPC   C1A 5583  20.665  22.251   8.585
  105POPC   D2A 5584  20.647  21.971   8.248
  105POPC   C3A 5585  20.902  22.127   7.936
  105POPC   C4A 5586  20.937  22.510   7.750
  105POPC   C1B 5587  20.250  21.981   8.741
  105POPC   C2B 5588  20.113  21.891   8.304
  105POPC   C3B 5589  20.294  21.962   7.874
  105POPC   C4B 5590  20.400  21.878   7.429
  106POPC   NC3 5591  19.684   9.400   9.509
  106POPC   PO4 5592  20.059   8.815   9.524
  106POPC   GL1 5593  19.801   8.939   9.115
  106POPC   GL2 5594  19.580   9.246   9.043
  106POPC   C1A 5595  19.554   8.909   8.677
  106POPC   D2A 5596  19.407   9.001   8.286
  106POPC   C3A 5597  19.649   8.758   8.050
  106POPC   C4A 5598  19.731   8.900   7.719
  106POPC   C1B 5599  19.897   9.270   8.730
  106POPC   C2B 5600  19.951   9.089   8.322
  106POPC   C3B 5601  20.065   9.228   7.908
  106POPC   C4B 5602  20.130   9.098   7.458
  107POPC   NC3 5603  41.911   6.838   9.583
  107POPC   PO4 5604  41.392   6.502   9.351
  107POPC   GL1 5605  41.633   6.754   9.125
  107POPC   GL2 5606  41.362   6.951   9.075
  107POPC   C1A 5607  41.708   6.660   8.705
  107POPC   D2A 5608  41.549   6.473   8.343
  107POPC   C3A 5609  41.794   6.498   7.991
  107POPC   C4A 5610  41.554   6.420   7.654
  107POPC   C1B 5611  41.260   6.901   8.703
  107POPC   C2B 5612  41.410   6.963   8.328
  107POPC   C3B 5613  41.384   6.824   7.937
  107POPC   C4B 5614  41.708   6.910   7.652
  108POPC   NC3 5615  16.988  22.999   9.421
  108POPC   PO4 5616  17.682  23.110   9.429
  108POPC   GL1 5617  17.495  22.941   9.126
  108POPC   GL2 5618  17.374  22.658   9.328
  108POPC   C1A 5619  17.239  23.149   8.825
  108POPC   D2A 5620  17.270  23.333   8.427
  108POPC   C3A 5621  17.527  23.169   8.085
  108POPC   C4A 5622  17.245  23.257   7.740
  108POPC   C1B 5623  17.196  22.629   8.878
  108POPC   C2B 5624  17.302  22.788   8.483
  108POPC   C3B 5625  17.168  22.829   8.097
  108POPC   C4B 5626  17.431  22.720   7.780
  109POPC   NC3 5627  11.330   2.716   9.658
  109POPC   PO4 5628  10.708   2.624   9.372
  109POPC   GL1 5629  11.107   2.804   9.159
  109POPC   GL2 5630  11.466   2.922   9.203
  109POPC   C1A 5631  11.095   3.042   8.787
  109POPC   D2A 5632  11.293   3.060   8.396
  109POPC   C3A 5633  11.153   2.815   8.096
  109POPC   C4A 5634  11.205   2.813   7.673
  109POPC   C1B 5635  11.550   2.829   8.801
  109POPC   C2B 5636  11.542   2.596   8.417
  109POPC   C3B 5637  11.496   2.443   7.997
  109POPC   C4B 5638  11.616   2.536   7.600
  110POPC   NC3 5639  29.311   9.491   9.719
  110POPC   PO4 5640  28.888   9.968   9.712
  110POPC   GL1 5641  29.017   9.777   9.322
  110POPC   GL2 5642  29.351   9.834   9.201
  110POPC   C1A 5643  28.911   9.901   8.898
  110POPC   D2A 5644  28.801   9.998   8.485
  110POPC   C3A 5645  28.961   9.771   8.127
  110POPC   C4A 5646  28.801   9.827   7.722
  110POPC   C1B 5647  29.458   9.605   8.808
  110POPC   C2B 5648  29.501   9.729   8.345
  110POPC   C3B 5649  29.521   9.555   7.892
  110POPC   C4B 5650  29.530   9.468   7.372
  111POPC   NC3 5651  19.815   3.080   9.333
  111POPC   PO4 5652  20.128   2.566   9.496
  111POPC   GL1 5653  20.117   2.748   9.064
  111POPC   GL2 5654  20.355   2.994   9.030
  111POPC   C1A 5655  19.842   2.815   8.673
  111POPC   D2A 5656  19.618   2.591   8.339
  111POPC   C3A 5657  19.887   2.399   8.030
  111POPC   C4A 5658  19.854   2.524   7.588
  111POPC   C1B 5659  20.345   2.868   8.586
  111POPC   C2B 5660  20.181   2.965   8.197
  111POPC   C3B 5661  19.823   2.903   7.969
  111POPC   C4B 5662  19.581   3.011   7.650
  112POPC   NC3 5663   3.316  11.027   9.650
  112POPC   PO4 5664   3.806  11.430   9.369
  112POPC   GL1 5665   3.725  11.253   9.039
  112POPC   GL2 5666   3.388  11.154   9.114
  112POPC   C1A 5667   3.558  11.400   8.669
  112POPC   D2A 5668   3.284  11.225   8.390
  112POPC   C3A 5669   3.479  11.333   8.004
  112POPC   C4A 5670   3.470  11.580   7.665
  112POPC   C1B 5671   3.110  10.939   8.793
  112POPC   C2B 5672   2.924  10.840   8.369
  112POPC   C3B 5673   3.097  10.955   7.961
  112POPC   C4B 5674   2.912  11.152   7.607
  113POPC   NC3 5675   0.742  31.004   9.523
  113POPC   PO4 5676   0.213  30.612   9.430
  113POPC   GL1 5677   0.460  30.845   9.125
  113POPC   GL2 5678   0.653  31.172   9.048
  113POPC   C1A 5679   0.311  30.892   8.749
  113POPC   D2A 5680   0.073  30.726   8.454
  113POPC   C3A 5681   0.253  30.660   8.061
  113POPC   C4A 5682   0.086  30.342   7.785
  113POPC   C1B 5683   0.756  31.127   8.636
  113POPC   C2B 5684   0.698  30.769   8.357
  113POPC   C3B 5685   0.880  30.706   7.952
  113POPC   C4B 5686   0.785  30.795   7.520
  114POPC   NC3 5687  16.226  33.912   9.425
  114POPC   PO4 5688  16.879  33.828   9.588
  114POPC   GL1 5689  16.674  33.699   9.191
  114POPC   GL2 5690  17.013  33.733   9.069
  114POPC   C1A 5691  16.720  33.525   8.737
  114POPC   D2A 5692  16.957  33.739   8.399
  114POPC   C3A 5693  16.900  33.645   7.977
  114POPC   C4A 5694  16.526  33.826   7.894
  114POPC   C1B 5695  16.846  34.074   8.822
  114POPC   C2B 5696  17.026  34.257   8.412
  114POPC   C3B 5697  16.963  34.167   7.978
  114POPC   C4B 5698  16.864  34.327   7.571
  115POPC   NC3 5699  14.265  33.652   9.448
  115POPC   PO4 5700  14.517  34.212   9.625
  115POPC   GL1 5701  14.300  34.075   9.203
  115POPC   GL2 5702  14.530  34.062   8.976
  115POPC   C1A 5703  14.169  33.733   8.821
  115POPC   D2A 5704  14.439  33.748   8.475
  115POPC   C3A 5705  14.339  33.597   8.091
  115POPC   C4A 5706  14.276  33.873   7.771
  115POPC   C1B 5707  14.483  34.259   8.588
  115POPC   C2B 5708  14.459  34.186   8.174
  115POPC   C3B 5709  14.737  33.946   8.020
  115POPC   C4B 5710  14.728  33.615   7.752
  116POPC   NC3 5711  11.157   4.737   9.678
  116POPC   PO4 5712  11.527   4.148   9.607
  116POPC   GL1 5713  11.337   4.197   9.195
  116POPC   GL2 5714  11.046   4.389   9.278
  116POPC   C1A 5715  11.366   4.337   8.751
  116POPC   D2A 5716  11.306   4.097   8.375
  116POPC   C3A 5717  11.472   4.291   8.001
  116POPC   C4A 5718  11.308   4.557   7.682
  116POPC   C1B 5719  10.888   4.276   8.877
  116POPC   C2B 5720  10.859   4.440   8.458
  116POPC   C3B 5721  10.962   4.342   8.056
  116POPC   C4B 5722  10.867   4.303   7.639
  117POPC   NC3 5723  42.734  40.898   9.490
  117POPC   PO4 5724  43.213  40.347   9.395
  117POPC   GL1 5725  42.905  40.560   9.135
  117POPC   GL2 5726  43.043  40.878   9.100
  117POPC   C1A 5727  42.811  40.708   8.700
  117POPC   D2A 5728  42.931  40.422   8.398
  117POPC   C3A 5729  42.907  40.613   8.039
  117POPC   C4A 5730  43.183  40.597   7.721
  117POPC   C1B 5731  43.311  40.960   8.796
  117POPC   C2B 5732  43.252  40.857   8.403
  117POPC   C3B 5733  43.301  41.010   8.008
  117POPC   C4B 5734  42.929  41.067   7.785
  118POPC   NC3 5735  16.231  32.677   9.394
  118POPC   PO4 5736  16.742  32.326   9.507
  118POPC   GL1 5737  16.649  32.349   9.114
  118POPC   GL2 5738  16.499  32.043   9.145
  118POPC   C1A 5739  16.621  32.562   8.726
  118POPC   D2A 5740  16.588  32.480   8.305
  118POPC   C3A 5741  16.847  32.529   8.001
  118POPC   C4A 5742  16.816  32.254   7.598
  118POPC   C1B 5743  16.604  32.007   8.732
  118POPC   C2B 5744  16.368  31.996   8.364
  118POPC   C3B 5745  16.565  32.054   7.990
  118POPC   C4B 5746  16.538  31.823   7.602
  119POPC   NC3 5747  21.187  17.800   9.666
  119POPC   PO4 5748  21.583  17.301   9.445
  119POPC   GL1 5749  21.347  17.577   9.216
  119POPC   GL2 5750  21.005  17.459   9.274
  119POPC   C1A 5751  21.210  17.626   8.805
  119POPC   D2A 5752  21.314  17.383   8.452
  119POPC   C3A 5753  21.492  17.570   8.096
  119POPC   C4A 5754  21.199  17.532   7.781
  119POPC   C1B 5755  20.824  17.292   8.882
  119POPC   C2B 5756  20.913  17.046   8.475
  119POPC   C3B 5757  20.923  17.170   8.014
  119POPC   C4B 5758  20.863  17.083   7.549
  120POPC   NC3 5759  24.972  33.614   9.743
  120POPC   PO4 5760  25.373  34.033   9.516
  120POPC   GL1 5761  25.245  34.054   9.095
  120POPC   GL2 5762  25.043  33.777   9.176
  120POPC   C1A 5763  25.401  33.949   8.676
  120POPC   D2A 5764  25.285  33.724   8.320
  120POPC   C3A 5765  25.206  33.935   7.914
  120POPC   C4A 5766  25.310  33.992   7.476
  120POPC   C1B 5767  25.083  33.531   8.779
  120POPC   C2B 5768  24.940  33.350   8.377
  120POPC   C3B 5769  24.992  33.489   7.950
  120POPC   C4B 5770  24.883  33.727   7.569
  121POPC   NC3 5771   0.854  35.939   9.440
  121POPC   PO4 5772   1.518  36.156   9.422
  121POPC   GL1 5773   1.213  36.172   9.123
  121POPC   GL2 5774   0.963  36.394   9.196
  121POPC   C1A 5775   1.179  35.922   8.778
  121POPC   D2A 5776   1.006  35.754   8.441
  121POPC   C3A 5777   1.219  35.820   8.096
  121POPC   C4A 5778   1.284  35.734   7.697
  121POPC   C1B 5779   0.942  36.479   8.768
  121POPC   C2B 5780   1.104  36.300   8.372
  121POPC   C3B 5781   1.072  36.297   7.903
  121POPC   C4B 5782   1.112  36.511   7.493
  122POPC   NC3 5783   2.651  24.629   9.677
  122POPC   PO4 5784   3.169  24.459   9.367
  122POPC   GL1 5785   2.734  24.404   9.170
  122POPC   GL2 5786   2.592  24.740   9.151
  122POPC   C1A 5787   2.562  24.443   8.721
  122POPC   D2A 5788   2.567  24.637   8.282
  122POPC   C3A 5789   2.602  24.471   7.819
  122POPC   C4A 5790   2.907  24.233   7.512
  122POPC   C1B 5791   2.939  24.750   8.814
  122POPC   C2B 5792   3.022  24.863   8.399
  122POPC   C3B 5793   3.070  24.647   8.019
  122POPC   C4B 5794   2.984  24.723   7.585
  123POPC   NC3 5795  44.718  28.712   9.506
  123POPC   PO4 5796  44.321  29.227   9.342
  123POPC   GL1 5797  44.714  29.138   9.163
  123POPC   GL2 5798  44.820  28.807   9.023
  123POPC   C1A 5799  44.774  29.322   8.765
  123POPC   D2A 5800  44.549  29.241   8.382
  123POPC   C3A 5801  44.743  28.985   8.065
  123POPC   C4A 5802  44.793  29.132   7.659
  123POPC   C1B 5803  44.461  28.907   8.768
  123POPC   C2B 5804  44.279  28.796   8.416
  123POPC   C3B 5805  44.234  28.917   8.014
  123POPC   C4B 5806  44.288  28.974   7.632
  124POPC   NC3 5807  30.306  32.451   9.233
  124POPC   PO4 5808  30.453  31.939   9.702
  124POPC   GL1 5809  30.751  32.178   9.308
  124POPC   GL2 5810  30.898  32.537   9.276
  124POPC   C1A 5811  30.763  32.236   8.817
  124POPC   D2A 5812  30.599  31.987   8.472
  124POPC   C3A 5813  30.636  32.140   8.051
  124POPC   C4A 5814  30.361  32.345   7.752
  124POPC   C1B 5815  31.076  32.615   8.850
  124POPC   C2B 5816  30.934  32.456   8.368
  124POPC   C3B 5817  30.912  32.535   7.850
  124POPC   C4B 5818  30.921  32.601   7.353
  125POPC   NC3 5819  18.708   9.541   9.344
  125POPC   PO4 5820  19.265   9.887   9.425
  125POPC   GL1 5821  19.094   9.736   9.074
  125POPC   GL2 5822  18.802   9.975   9.053
  125POPC   C1A 5823  18.989   9.719   8.660
  125POPC   D2A 5824  19.253   9.975   8.421
  125POPC   C3A 5825  19.327   9.849   8.002
  125POPC   C4A 5826  19.140   9.656   7.679
  125POPC   C1B 5827  18.827  10.184   8.641
  125POPC   C2B 5828  18.813  10.087   8.190
  125POPC   C3B 5829  18.900  10.082   7.763
  125POPC   C4B 5830  18.821   9.891   7.317
  126POPC   NC3 5831   3.236  10.004  10.059
  126POPC   PO4 5832   3.697   9.700   9.595
  126POPC   GL1 5833   3.517   9.652   9.217
  126POPC   GL2 5834   3.163   9.635   9.176
  126POPC   C1A 5835   3.548   9.867   8.853
  126POPC   D2A 5836   3.311   9.992   8.505
  126POPC   C3A 5837   3.450   9.750   8.150
  126POPC   C4A 5838   3.667   9.906   7.767
  126POPC   C1B 5839   3.218   9.478   8.757
  126POPC   C2B 5840   3.384   9.246   8.403
  126POPC   C3B 5841   3.251   9.268   7.974
  126POPC   C4B 5842   3.436   9.474   7.626
  127POPC   NC3 5843   3.352  11.634   9.364
  127POPC   PO4 5844   3.803  12.106   9.440
  127POPC   GL1 5845   3.535  12.059   9.097
  127POPC   GL2 5846   3.674  11.777   8.990
  127POPC   C1A 5847   3.245  11.980   8.735
  127POPC   D2A 5848   3.325  11.736   8.345
  127POPC   C3A 5849   3.488  11.933   8.016
  127POPC   C4A 5850   3.290  12.055   7.679
  127POPC   C1B 5851   3.739  11.949   8.579
  127POPC   C2B 5852   3.840  11.649   8.277
  127POPC   C3B 5853   3.928  11.711   7.879
  127POPC   C4B 5854   3.771  11.943   7.500
  128POPC   NC3 5855  25.139  28.050   9.468
  128POPC   PO4 5856  25.675  28.531   9.457
  128POPC   GL1 5857  25.402  28.591   9.120
  128POPC   GL2 5858  25.074  28.408   9.094
  128POPC   C1A 5859  25.464  28.433   8.712
  128POPC   D2A 5860  25.282  28.338   8.337
  128POPC   C3A 5861  25.468  28.523   8.007
  128POPC   C4A 5862  25.412  28.421   7.585
  128POPC   C1B 5863  24.992  28.670   8.720
  128POPC   C2B 5864  25.117  28.826   8.297
  128POPC   C3B 5865  25.041  28.735   7.843
  128POPC   C4B 5866  25.191  28.820   7.407
  129POPC   NC3 5867  43.489  19.878   9.551
  129POPC   PO4 5868  43.995  19.499   9.497
  129POPC   GL1 5869  43.876  19.635   9.136
  129POPC   GL2 5870  43.887  19.993   9.205
  129POPC   C1A 5871  44.048  19.694   8.734
  129POPC   D2A 5872  43.981  20.017   8.420
  129POPC   C3A 5873  43.863  19.783   8.071
  129POPC   C4A 5874  43.872  19.538   7.692
  129POPC   C1B 5875  43.631  20.010   8.834
  129POPC   C2B 5876  43.526  20.304   8.499
  129POPC   C3B 5877  43.683  20.278   8.079
  129POPC   C4B 5878  43.892  20.128   7.702
  130POPC   NC3 5879  39.163  13.972   9.437
  130POPC   PO4 5880  39.297  13.315   9.537
  130POPC   GL1 5881  39.232  13.533   9.176
  130POPC   GL2 5882  39.552  13.667   9.220
  130POPC   C1A 5883  39.111  13.646   8.751
  130POPC   D2A 5884  39.122  13.388   8.362
  130POPC   C3A 5885  39.089  13.551   7.960
  130POPC   C4A 5886  39.249  13.885   7.790
  130POPC   C1B 5887  39.613  13.753   8.789
  130POPC   C2B 5888  39.434  13.816   8.372
  130POPC   C3B 5889  39.599  13.582   8.029
  130POPC   C4B 5890  39.671  13.418   7.625
  131POPC   NC3 5891  26.500  28.345   9.633
  131POPC   PO4 5892  27.154  28.154   9.686
  131POPC   GL1 5893  27.045  28.148   9.206
  131POPC   GL2 5894  26.696  28.282   9.145
  131POPC   C1A 5895  26.972  28.048   8.749
  131POPC   D2A 5896  26.727  27.977   8.364
  131POPC   C3A 5897  26.699  28.243   7.994
  131POPC   C4A 5898  27.120  28.440   7.932
  131POPC   C1B 5899  26.836  28.566   8.797
  131POPC   C2B 5900  26.812  28.589   8.344
  131POPC   C3B 5901  26.686  28.741   7.898
  131POPC   C4B 5902  26.905  28.584   7.481
  132POPC   NC3 5903  44.556   1.805   9.576
  132POPC   PO4 5904   0.107   2.162   9.589
  132POPC   GL1 5905  44.834   2.135   9.256
  132POPC   GL2 5906  44.889   1.788   9.187
  132POPC   C1A 5907  44.734   2.124   8.817
  132POPC   D2A 5908  44.487   1.984   8.455
  132POPC   C3A 5909  44.672   2.187   8.103
  132POPC   C4A 5910  44.713   2.051   7.680
  132POPC   C1B 5911  44.647   1.614   8.844
  132POPC   C2B 5912  44.715   1.511   8.417
  132POPC   C3B 5913  44.694   1.676   8.051
  132POPC   C4B 5914  44.525   1.547   7.708
  133POPC   NC3 5915   1.067  41.025   9.625
  133POPC   PO4 5916   1.347  40.412   9.555
  133POPC   GL1 5917   1.158  40.736   9.208
  133POPC   GL2 5918   1.250  41.096   9.152
  133POPC   C1A 5919   1.176  40.784   8.756
  133POPC   D2A 5920   1.157  40.564   8.377
  133POPC   C3A 5921   1.375  40.615   8.013
  133POPC   C4A 5922   1.153  40.466   7.668
  133POPC   C1B 5923   1.007  41.303   8.796
  133POPC   C2B 5924   0.891  41.083   8.425
  133POPC   C3B 5925   1.155  41.085   8.066
  133POPC   C4B 5926   1.280  40.966   7.641
  134POPC   NC3 5927  34.908  17.030   9.335
  134POPC   PO4 5928  34.525  17.594   9.549
  134POPC   GL1 5929  34.755  17.664   9.143
  134POPC   GL2 5930  34.471  17.861   9.061
  134POPC   C1A 5931  34.832  17.446   8.699
  134POPC   D2A 5932  34.822  17.618   8.258
  134POPC   C3A 5933  34.749  17.376   7.870
  134POPC   C4A 5934  35.037  17.103   7.651
  134POPC   C1B 5935  34.507  17.817   8.643
  134POPC   C2B 5936  34.305  17.531   8.343
  134POPC   C3B 5937  34.258  17.630   7.918
  134POPC   C4B 5938  34.160  17.806   7.530
  135POPC   NC3 5939  26.588  39.504   9.249
  135POPC   PO4 5940  26.960  38.958   9.510
  135POPC   GL1 5941  26.972  39.028   9.110
  135POPC   GL2 5942  26.629  38.975   9.102
  135POPC   C1A 5943  27.106  39.314   8.794
  135POPC   D2A 5944  26.966  39.581   8.446
  135POPC   C3A 5945  27.124  39.436   8.030
  135POPC   C4A 5946  26.847  39.511   7.676
  135POPC   C1B 5947  26.657  39.118   8.695
  135POPC   C2B 5948  26.912  39.093   8.365
  135POPC   C3B 5949  26.680  39.179   8.050
  135POPC   C4B 5950  26.699  39.023   7.670
  136POPC   NC3 5951  30.853  18.329   9.632
  136POPC   PO4 5952  30.189  18.465   9.536
  136POPC   GL1 5953  30.445  18.335   9.183
  136POPC   GL2 5954  30.766  18.181   9.179
  136POPC   C1A 5955  30.554  18.538   8.792
  136POPC   D2A 5956  30.536  18.683   8.362
  136POPC   C3A 5957  30.550  18.282   8.178
  136POPC   C4A 5958  30.631  18.192   7.778
  136POPC   C1B 5959  31.056  17.981   8.901
  136POPC   C2B 5960  30.962  18.052   8.480
  136POPC   C3B 5961  30.917  17.887   8.071
  136POPC   C4B 5962  31.098  17.870   7.671
  137POPC   NC3 5963   5.566  20.545   9.463
  137POPC   PO4 5964   6.048  20.941   9.737
  137POPC   GL1 5965   5.897  20.920   9.317
  137POPC   GL2 5966   6.175  21.042   9.137
  137POPC   C1A 5967   5.756  20.790   8.890
  137POPC   D2A 5968   5.598  20.722   8.488
  137POPC   C3A 5969   5.770  20.562   8.115
  137POPC   C4A 5970   5.867  20.830   7.820
  137POPC   C1B 5971   6.208  20.964   8.731
  137POPC   C2B 5972   6.072  20.902   8.351
  137POPC   C3B 5973   6.347  20.872   8.030
  137POPC   C4B 5974   6.322  20.644   7.687
  138POPC   NC3 5975  26.909   7.753   9.606
  138POPC   PO4 5976  26.569   7.204   9.610
  138POPC   GL1 5977  26.814   7.320   9.213
  138POPC   GL2 5978  27.018   7.641   9.139
  138POPC   C1A 5979  26.693   7.477   8.797
  138POPC   D2A 5980  26.622   7.516   8.381
  138POPC   C3A 5981  26.903   7.425   8.029
  138POPC   C4A 5982  26.585   7.370   7.719
  138POPC   C1B 5983  26.930   7.957   8.818
  138POPC   C2B 5984  26.821   7.999   8.382
  138POPC   C3B 5985  26.628   7.859   7.999
  138POPC   C4B 5986  26.815   7.797   7.625
  139POPC   NC3 5987  28.348   7.978   9.477
  139POPC   PO4 5988  28.299   7.313   9.462
  139POPC   GL1 5989  28.278   7.512   9.071
  139POPC   GL2 5990  28.025   7.777   9.108
  139POPC   C1A 5991  28.562   7.498   8.694
  139POPC   D2A 5992  28.618   7.581   8.277
  139POPC   C3A 5993  28.430   7.375   7.996
  139POPC   C4A 5994  28.691   7.248   7.712
  139POPC   C1B 5995  28.142   7.795   8.672
  139POPC   C2B 5996  28.046   7.526   8.323
  139POPC   C3B 5997  27.960   7.536   7.883
  139POPC   C4B 5998  28.101   7.828   7.561
  140POPC   NC3 5999  17.892  44.418   9.697
  140POPC   PO4 6000  18.112  44.972   9.504
  140POPC   GL1 6001  18.364  44.697   9.225
  140POPC   GL2 6002  18.131  44.475   9.172
  140POPC   C1A 6003  18.450  44.393   8.794
  140POPC   D2A 6004  18.528  44.430   8.308
  140POPC   C3A 6005  18.251  44.434   7.959
  140POPC   C4A 6006  18.322  44.612   7.555
  140POPC   C1B 6007  18.160  44.790   8.759
  140POPC   C2B 6008  18.237  44.856   8.295
  140POPC   C3B 6009  18.138  44.961   7.864
  140POPC   C4B 6010  17.958  44.959   7.412
  141POPC   NC3 6011  17.353   8.767   9.365
  141POPC   PO4 6012  17.460   9.395   9.545
  141POPC   GL1 6013  17.580   9.174   9.126
  141POPC   GL2 6014  17.740   8.856   9.047
  141POPC   C1A 6015  17.606   9.186   8.664
  141POPC   D2A 6016  17.658   8.879   8.313
  141POPC   C3A 6017  17.590   9.045   7.900
  141POPC   C4A 6018  17.879   9.014   7.568
  141POPC   C1B 6019  17.384   8.735   8.738
  141POPC   C2B 6020  17.102   8.748   8.381
  141POPC   C3B 6021  17.234   8.680   7.987
  141POPC   C4B 6022  17.165   8.744   7.569
  142POPC   NC3 6023  30.170  41.612   9.531
  142POPC   PO4 6024  30.776  41.491   9.421
  142POPC   GL1 6025  30.522  41.648   9.142
  142POPC   GL2 6026  30.845  41.697   8.949
  142POPC   C1A 6027  30.393  41.626   8.744
  142POPC   D2A 6028  30.703  41.563   8.439
  142POPC   C3A 6029  30.559  41.689   8.050
  142POPC   C4A 6030  30.466  41.526   7.657
  142POPC   C1B 6031  31.010  41.938   8.613
  142POPC   C2B 6032  31.115  41.774   8.206
  142POPC   C3B 6033  30.970  41.796   7.778
  142POPC   C4B 6034  31.137  41.744   7.364
  143POPC   NC3 6035  15.585  20.573   9.597
  143POPC   PO4 6036  15.038  20.877   9.562
  143POPC   GL1 6037  15.246  20.736   9.189
  143POPC   GL2 6038  15.342  20.404   9.174
  143POPC   C1A 6039  15.218  20.907   8.776
  143POPC   D2A 6040  15.392  20.892   8.386
  143POPC   C3A 6041  15.152  21.023   8.030
  143POPC   C4A 6042  15.357  20.891   7.660
  143POPC   C1B 6043  15.338  20.171   8.787
  143POPC   C2B 6044  15.239  20.400   8.427
  143POPC   C3B 6045  15.240  20.502   8.017
  143POPC   C4B 6046  15.326  20.133   7.839
  144POPC   NC3 6047  32.610  14.926   9.438
  144POPC   PO4 6048  32.097  14.589   9.561
  144POPC   GL1 6049  32.148  14.921   9.186
  144POPC   GL2 6050  32.477  15.130   9.022
  144POPC   C1A 6051  32.074  15.130   8.768
  144POPC   D2A 6052  32.389  15.178   8.460
  144POPC   C3A 6053  32.180  15.202   8.093
  144POPC   C4A 6054  32.260  15.237   7.670
  144POPC   C1B 6055  32.734  15.396   8.784
  144POPC   C2B 6056  32.730  15.572   8.400
  144POPC   C3B 6057  32.646  15.394   8.013
  144POPC   C4B 6058  32.727  15.543   7.616
  145POPC   NC3 6059  15.509  18.308   9.623
  145POPC   PO4 6060  16.162  18.484   9.534
  145POPC   GL1 6061  15.951  18.448   9.157
  145POPC   GL2 6062  16.039  18.708   8.977
  145POPC   C1A 6063  16.036  18.206   8.773
  145POPC   D2A 6064  15.737  18.034   8.493
  145POPC   C3A 6065  15.968  17.852   8.167
  145POPC   C4A 6066  16.200  18.039   7.829
  145POPC   C1B 6067  16.006  18.645   8.542
  145POPC   C2B 6068  15.999  18.408   8.193
  145POPC   C3B 6069  15.851  18.587   7.836
  145POPC   C4B 6070  15.914  18.765   7.437
  146POPC   NC3 6071   9.220  26.888   9.512
  146POPC   PO4 6072   8.651  26.551   9.480
  146POPC   GL1 6073   8.909  26.582   9.127
  146POPC   GL2 6074   8.918  26.939   9.115
  146POPC   C1A 6075   8.855  26.735   8.669
  146POPC   D2A 6076   8.945  26.974   8.318
  146POPC   C3A 6077   8.835  26.782   7.987
  146POPC   C4A 6078   9.102  26.833   7.651
  146POPC   C1B 6079   8.986  27.209   8.772
  146POPC   C2B 6080   8.700  27.405   8.460
  146POPC   C3B 6081   8.783  27.379   8.045
  146POPC   C4B 6082   8.696  27.156   7.671
  147POPC   NC3 6083   8.814   4.062   9.386
  147POPC   PO4 6084   9.310   4.433   9.635
  147POPC   GL1 6085   9.161   4.499   9.188
  147POPC   GL2 6086   9.052   4.180   8.963
  147POPC   C1A 6087   9.202   4.598   8.733
  147POPC   D2A 6088   8.968   4.317   8.430
  147POPC   C3A 6089   9.113   4.263   8.017
  147POPC   C4A 6090   8.897   4.372   7.641
  147POPC   C1B 6091   8.610   4.123   8.778
  147POPC   C2B 6092   8.383   4.118   8.389
  147POPC   C3B 6093   8.631   4.093   8.015
  147POPC   C4B 6094   8.485   4.073   7.573
  148POPC   NC3 6095  18.445  31.530   9.296
  148POPC   PO4 6096  18.954  31.288   9.627
  148POPC   GL1 6097  19.022  31.249   9.165
  148POPC   GL2 6098  18.720  31.112   9.137
  148POPC   C1A 6099  19.164  31.491   8.764
  148POPC   D2A 6100  19.410  31.445   8.350
  148POPC   C3A 6101  19.234  31.372   7.914
  148POPC   C4A 6102  19.130  31.798   7.713
  148POPC   C1B 6103  18.718  31.218   8.724
  148POPC   C2B 6104  18.924  31.267   8.356
  148POPC   C3B 6105  18.816  31.593   8.087
  148POPC   C4B 6106  18.687  31.512   7.695
  149POPC   NC3 6107  14.968  30.941   9.245
  149POPC   PO4 6108  15.224  30.540   9.751
  149POPC   GL1 6109  15.348  30.544   9.282
  149POPC   GL2 6110  15.494  30.893   9.149
  149POPC   C1A 6111  15.253  30.527   8.819
  149POPC   D2A 6112  14.913  30.697   8.540
  149POPC   C3A 6113  15.101  30.691   8.152
  149POPC   C4A 6114  15.503  30.564   7.989
  149POPC   C1B 6115  15.440  31.023   8.696
  149POPC   C2B 6116  15.393  31.127   8.231
  149POPC   C3B 6117  15.333  30.994   7.786
  149POPC   C4B 6118  15.462  31.051   7.378
  150POPC   NC3 6119  14.121  30.841   9.496
  150POPC   PO4 6120  14.708  30.546   9.322
  150POPC   GL1 6121  14.392  30.748   9.076
  150POPC   GL2 6122  14.122  30.551   8.925
  150POPC   C1A 6123  14.349  30.978   8.696
  150POPC   D2A 6124  14.527  31.206   8.321
  150POPC   C3A 6125  14.417  31.032   7.939
  150POPC   C4A 6126  14.751  30.766   7.796
  150POPC   C1B 6127  14.432  30.472   8.636
  150POPC   C2B 6128  14.465  30.633   8.247
  150POPC   C3B 6129  14.414  30.408   7.872
  150POPC   C4B 6130  14.129  30.336   7.565
  151POPC   NC3 6131  21.871  23.104   9.509
  151POPC   PO4 6132  21.123  22.994   9.522
  151POPC   GL1 6133  21.355  22.924   9.176
  151POPC   GL2 6134  21.592  23.202   9.103
  151POPC   C1A 6135  21.442  22.857   8.762
  151POPC   D2A 6136  21.531  22.666   8.416
  151POPC   C3A 6137  21.490  22.924   8.118
  151POPC   C4A 6138  21.456  22.853   7.732
  151POPC   C1B 6139  21.624  23.406   8.728
  151POPC   C2B 6140  21.716  23.363   8.307
  151POPC   C3B 6141  21.719  23.323   7.870
  151POPC   C4B 6142  21.518  23.280   7.464
  152POPC   NC3 6143   3.325  23.341   9.491
  152POPC   PO4 6144   3.848  23.875   9.493
  152POPC   GL1 6145   3.857  23.873   9.075
  152POPC   GL2 6146   3.571  23.652   9.112
  152POPC   C1A 6147   3.601  23.938   8.696
  152POPC   D2A 6148   3.230  23.844   8.478
  152POPC   C3A 6149   3.322  23.744   8.072
  152POPC   C4A 6150   3.572  23.892   7.758
  152POPC   C1B 6151   3.569  23.439   8.776
  152POPC   C2B 6152   3.642  23.487   8.390
  152POPC   C3B 6153   3.448  23.230   8.115
  152POPC   C4B 6154   3.477  23.390   7.723
  153POPC   NC3 6155  11.649  30.281   9.295
  153POPC   PO4 6156  11.246  30.759   9.565
  153POPC   GL1 6157  11.246  30.924   9.150
  153POPC   GL2 6158  11.362  30.630   9.059
  153POPC   C1A 6159  11.182  30.932   8.711
  153POPC   D2A 6160  11.285  30.760   8.335
  153POPC   C3A 6161  11.142  30.853   7.944
  153POPC   C4A 6162  11.515  30.732   7.742
  153POPC   C1B 6163  11.469  30.423   8.677
  153POPC   C2B 6164  11.266  30.244   8.325
  153POPC   C3B 6165  11.272  30.315   7.893
  153POPC   C4B 6166  11.472  30.336   7.411
  154POPC   NC3 6167   2.867  42.621   9.544
  154POPC   PO4 6168   2.248  42.514   9.433
  154POPC   GL1 6169   2.584  42.545   9.138
  154POPC   GL2 6170   2.583  42.230   9.020
  154POPC   C1A 6171   2.866  42.542   8.744
  154POPC   D2A 6172   3.127  42.294   8.444
  154POPC   C3A 6173   2.915  42.319   8.065
  154POPC   C4A 6174   2.587  42.586   7.926
  154POPC   C1B 6175   2.695  42.085   8.624
  154POPC   C2B 6176   2.467  42.231   8.303
  154POPC   C3B 6177   2.461  42.082   7.900
  154POPC   C4B 6178   2.806  41.994   7.641
  155POPC   NC3 6179  44.495  30.386   9.431
  155POPC   PO4 6180  44.611  31.019   9.332
  155POPC   GL1 6181  44.683  30.704   9.008
  155POPC   GL2 6182  44.341  30.617   9.005
  155POPC   C1A 6183  44.561  30.652   8.543
  155POPC   D2A 6184  44.444  30.855   8.143
  155POPC   C3A 6185  44.803  30.796   7.874
  155POPC   C4A 6186  44.896  30.666   7.457
  155POPC   C1B 6187  44.315  30.246   8.768
  155POPC   C2B 6188  44.400  30.108   8.342
  155POPC   C3B 6189  44.456  30.377   7.958
  155POPC   C4B 6190  44.619  30.254   7.554
  156POPC   NC3 6191  34.192  20.886   9.478
  156POPC   PO4 6192  33.684  20.459   9.654
  156POPC   GL1 6193  33.830  20.556   9.243
  156POPC   GL2 6194  34.134  20.398   9.276
  156POPC   C1A 6195  33.987  20.763   8.859
  156POPC   D2A 6196  33.791  20.785   8.467
  156POPC   C3A 6197  33.899  20.938   8.077
  156POPC   C4A 6198  33.792  20.677   7.742
  156POPC   C1B 6199  34.248  20.288   8.877
  156POPC   C2B 6200  34.169  20.422   8.494
  156POPC   C3B 6201  34.144  20.490   8.094
  156POPC   C4B 6202  34.166  20.181   7.808
  157POPC   NC3 6203  38.261  12.355   9.505
  157POPC   PO4 6204  38.730  11.806   9.534
  157POPC   GL1 6205  38.573  11.981   9.173
  157POPC   GL2 6206  38.618  12.324   9.142
  157POPC   C1A 6207  38.555  11.854   8.756
  157POPC   D2A 6208  38.298  11.660   8.422
  157POPC   C3A 6209  38.263  11.843   8.042
  157POPC   C4A 6210  38.509  12.076   7.745
  157POPC   C1B 6211  38.258  12.275   8.846
  157POPC   C2B 6212  38.375  12.202   8.413
  157POPC   C3B 6213  38.204  12.358   8.060
  157POPC   C4B 6214  38.229  12.522   7.679
  158POPC   NC3 6215  20.786  38.752   9.587
  158POPC   PO4 6216  20.318  38.401   9.482
  158POPC   GL1 6217  20.461  38.726   9.149
  158POPC   GL2 6218  20.841  38.794   9.073
  158POPC   C1A 6219  20.299  38.835   8.718
  158POPC   D2A 6220  20.027  38.777   8.326
  158POPC   C3A 6221  20.297  38.676   7.951
  158POPC   C4A 6222  20.436  38.281   7.774
  158POPC   C1B 6223  20.767  38.611   8.648
  158POPC   C2B 6224  20.724  38.482   8.185
  158POPC   C3B 6225  20.939  38.381   7.763
  158POPC   C4B 6226  21.011  38.380   7.301
  159POPC   NC3 6227  18.496  39.267   9.420
  159POPC   PO4 6228  17.960  39.133   9.691
  159POPC   GL1 6229  18.057  39.150   9.199
  159POPC   GL2 6230  18.136  39.416   9.056
  159POPC   C1A 6231  18.156  39.005   8.752
  159POPC   D2A 6232  18.124  39.271   8.385
  159POPC   C3A 6233  18.146  39.084   7.965
  159POPC   C4A 6234  18.436  38.901   7.705
  159POPC   C1B 6235  18.461  39.451   8.760
  159POPC   C2B 6236  18.493  39.643   8.367
  159POPC   C3B 6237  18.521  39.459   7.984
  159POPC   C4B 6238  18.758  39.607   7.647
  160POPC   NC3 6239  28.666  37.933   9.398
  160POPC   PO4 6240  29.318  37.584   9.496
  160POPC   GL1 6241  29.018  37.605   9.193
  160POPC   GL2 6242  29.141  37.912   9.079
  160POPC   C1A 6243  28.890  37.584   8.770
  160POPC   D2A 6244  28.922  37.973   8.551
  160POPC   C3A 6245  28.659  37.991   8.200
  160POPC   C4A 6246  28.915  37.927   7.891
  160POPC   C1B 6247  29.399  37.599   8.844
  160POPC   C2B 6248  29.388  37.645   8.414
  160POPC   C3B 6249  29.240  37.509   7.997
  160POPC   C4B 6250  29.504  37.205   7.797
  161POPC   NC3 6251  20.628  25.545   9.865
  161POPC   PO4 6252  20.503  26.156   9.539
  161POPC   GL1 6253  20.404  25.843   9.195
  161POPC   GL2 6254  20.724  25.848   9.068
  161POPC   C1A 6255  20.161  25.794   8.776
  161POPC   D2A 6256  20.201  26.020   8.372
  161POPC   C3A 6257  20.327  25.867   7.948
  161POPC   C4A 6258  20.703  25.974   7.750
  161POPC   C1B 6259  20.614  26.025   8.697
  161POPC   C2B 6260  20.711  25.861   8.291
  161POPC   C3B 6261  20.917  25.596   7.995
  161POPC   C4B 6262  21.024  25.614   7.525
  162POPC   NC3 6263   1.116   1.679   9.415
  162POPC   PO4 6264   0.981   2.368   9.513
  162POPC   GL1 6265   1.170   2.220   9.108
  162POPC   GL2 6266   1.352   1.930   9.059
  162POPC   C1A 6267   1.028   1.994   8.695
  162POPC   D2A 6268   1.114   1.825   8.292
  162POPC   C3A 6269   1.293   2.161   8.116
  162POPC   C4A 6270   1.242   2.200   7.723
  162POPC   C1B 6271   1.511   1.683   8.722
  162POPC   C2B 6272   1.635   1.826   8.308
  162POPC   C3B 6273   1.479   1.732   7.897
  162POPC   C4B 6274   1.532   1.882   7.470
  163POPC   NC3 6275   6.602   6.642   9.397
  163POPC   PO4 6276   7.159   6.990   9.344
  163POPC   GL1 6277   6.874   6.928   9.042
  163POPC   GL2 6278   6.962   6.566   9.053
  163POPC   C1A 6279   6.645   6.701   8.695
  163POPC   D2A 6280   6.619   6.366   8.370
  163POPC   C3A 6281   6.705   6.612   8.017
  163POPC   C4A 6282   6.444   6.774   7.706
  163POPC   C1B 6283   7.007   6.302   8.696
  163POPC   C2B 6284   7.142   6.402   8.258
  163POPC   C3B 6285   7.047   6.316   7.794
  163POPC   C4B 6286   6.961   6.413   7.293
  164POPC   NC3 6287  40.497   8.680   9.423
  164POPC   PO4 6288  40.948   9.289   9.568
  164POPC   GL1 6289  40.804   9.283   9.111
  164POPC   GL2 6290  40.534   9.033   9.041
  164POPC   C1A 6291  40.920   9.147   8.640
  164POPC   D2A 6292  40.721   8.814   8.298
  164POPC   C3A 6293  40.837   8.847   7.833
  164POPC   C4A 6294  40.941   8.920   7.382
  164POPC   C1B 6295  40.467   9.321   8.717
  164POPC   C2B 6296  40.541   9.294   8.290
  164POPC   C3B 6297  40.372   9.248   7.897
  164POPC   C4B 6298  40.451   8.998   7.539
  165POPC   NC3 6299  38.735  43.021   9.569
  165POPC   PO4 6300  38.758  43.574   9.221
  165POPC   GL1 6301  38.588  43.332   8.955
  165POPC   GL2 6302  38.500  43.020   9.110
  165POPC   C1A 6303  38.448  43.514   8.623
  165POPC   D2A 6304  38.617  43.525   8.251
  165POPC   C3A 6305  38.498  43.277   7.936
  165POPC   C4A 6306  38.681  43.176   7.547
  165POPC   C1B 6307  38.332  42.990   8.710
  165POPC   C2B 6308  38.534  42.849   8.320
  165POPC   C3B 6309  38.527  42.774   7.876
  165POPC   C4B 6310  38.241  42.902   7.587
  166POPC   NC3 6311  12.191  24.807   9.390
  166POPC   PO4 6312  12.450  25.497   9.544
  166POPC   GL1 6313  12.301  25.305   9.159
  166POPC   GL2 6314  11.951  25.196   9.149
  166POPC   C1A 6315  12.311  25.078   8.768
  166POPC   D2A 6316  12.376  25.293   8.399
  166POPC   C3A 6317  12.212  25.244   8.010
  166POPC   C4A 6318  12.198  25.535   7.703
  166POPC   C1B 6319  11.894  25.365   8.758
  166POPC   C2B 6320  11.833  25.136   8.392
  166POPC   C3B 6321  11.708  25.246   7.995
  166POPC   C4B 6322  11.758  25.163   7.571
  167POPC   NC3 6323  34.624  38.069   9.560
  167POPC   PO4 6324  34.268  37.504   9.533
  167POPC   GL1 6325  34.628  37.584   9.261
  167POPC   GL2 6326  34.555  37.860   9.094
  167POPC   C1A 6327  34.663  37.422   8.839
  167POPC   D2A 6328  34.409  37.445   8.452
  167POPC   C3A 6329  34.617  37.622   8.069
  167POPC   C4A 6330  34.721  37.424   7.651
  167POPC   C1B 6331  34.440  37.916   8.691
  167POPC   C2B 6332  34.633  38.101   8.343
  167POPC   C3B 6333  34.540  38.103   7.912
  167POPC   C4B 6334  34.637  37.938   7.528
  168POPC   NC3 6335  17.143  35.252   9.402
  168POPC   PO4 6336  17.800  34.959   9.245
  168POPC   GL1 6337  17.429  35.095   9.007
  168POPC   GL2 6338  17.358  35.473   8.995
  168POPC   C1A 6339  17.469  35.180   8.585
  168POPC   D2A 6340  17.666  35.302   8.203
  168POPC   C3A 6341  17.459  35.025   7.941
  168POPC   C4A 6342  17.375  35.079   7.536
  168POPC   C1B 6343  17.146  35.598   8.634
  168POPC   C2B 6344  17.169  35.396   8.239
  168POPC   C3B 6345  17.316  35.550   7.860
  168POPC   C4B 6346  17.729  35.713   7.809
  169POPC   NC3 6347  33.293  10.121   9.503
  169POPC   PO4 6348  32.861   9.717   9.851
  169POPC   GL1 6349  33.022   9.638   9.370
  169POPC   GL2 6350  33.362   9.679   9.252
  169POPC   C1A 6351  33.066   9.515   8.882
  169POPC   D2A 6352  33.015   9.705   8.465
  169POPC   C3A 6353  33.069   9.470   8.064
  169POPC   C4A 6354  33.032   9.584   7.590
  169POPC   C1B 6355  33.368   9.931   8.848
  169POPC   C2B 6356  33.353  10.072   8.415
  169POPC   C3B 6357  33.089  10.034   8.035
  169POPC   C4B 6358  33.199  10.080   7.583
  170POPC   NC3 6359   3.039  27.885   9.494
  170POPC   PO4 6360   2.425  27.639   9.556
  170POPC   GL1 6361   2.694  27.612   9.232
  170POPC   GL2 6362   2.804  27.288   9.323
  170POPC   C1A 6363   2.754  27.728   8.815
  170POPC   D2A 6364   2.944  27.645   8.440
  170POPC   C3A 6365   2.747  27.680   8.042
  170POPC   C4A 6366   2.983  27.633   7.679
  170POPC   C1B 6367   2.450  27.264   8.966
  170POPC   C2B 6368   2.526  27.343   8.555
  170POPC   C3B 6369   2.507  27.231   8.134
  170POPC   C4B 6370   2.323  27.201   7.721
  171POPC   NC3 6371  37.157  22.864   9.335
  171POPC   PO4 6372  36.520  23.147   9.450
  171POPC   GL1 6373  36.601  22.922   9.103
  171POPC   GL2 6374  36.689  22.568   9.192
  171POPC   C1A 6375  36.861  23.112   8.781
  171POPC   D2A 6376  37.100  23.282   8.435
  171POPC   C3A 6377  36.948  23.102   8.071
  171POPC   C4A 6378  37.156  22.934   7.744
  171POPC   C1B 6379  36.805  22.575   8.765
  171POPC   C2B 6380  37.177  22.716   8.544
  171POPC   C3B 6381  37.179  22.621   8.132
  171POPC   C4B 6382  36.796  22.587   7.903
  172POPC   NC3 6383  34.103  43.758   9.516
  172POPC   PO4 6384  33.675  44.182   9.753
  172POPC   GL1 6385  33.798  44.159   9.277
  172POPC   GL2 6386  33.809  43.820   9.112
  172POPC   C1A 6387  33.753  44.177   8.769
  172POPC   D2A 6388  33.630  43.810   8.469
  172POPC   C3A 6389  33.584  43.865   8.029
  172POPC   C4A 6390  33.601  44.192   7.755
  172POPC   C1B 6391  34.056  43.778   8.710
  172POPC   C2B 6392  34.131  43.835   8.302
  172POPC   C3B 6393  33.932  43.515   8.074
  172POPC   C4B 6394  33.642  43.414   7.792
  173POPC   NC3 6395  34.745  43.677   9.362
  173POPC   PO4 6396  34.364  44.146   9.481
  173POPC   GL1 6397  34.283  44.073   9.060
  173POPC   GL2 6398  34.357  43.720   9.071
  173POPC   C1A 6399  34.529  43.977   8.656
  173POPC   D2A 6400  34.802  44.086   8.271
  173POPC   C3A 6401  34.535  44.004   7.905
  173POPC   C4A 6402  34.072  44.015   7.837
  173POPC   C1B 6403  34.617  43.489   8.735
  173POPC   C2B 6404  34.592  43.617   8.284
  173POPC   C3B 6405  34.403  43.522   7.904
  173POPC   C4B 6406  34.565  43.603   7.520
  174POPC   NC3 6407  11.666  41.262   9.554
  174POPC   PO4 6408  11.212  41.749   9.591
  174POPC   GL1 6409  11.387  41.738   9.220
  174POPC   GL2 6410  11.558  42.039   9.199
  174POPC   C1A 6411  11.367  41.537   8.834
  174POPC   D2A 6412  11.233  41.526   8.436
  174POPC   C3A 6413  11.438  41.447   8.076
  174POPC   C4A 6414  11.227  41.518   7.691
  174POPC   C1B 6415  11.721  41.905   8.797
  174POPC   C2B 6416  11.684  41.776   8.385
  174POPC   C3B 6417  11.716  41.964   7.983
  174POPC   C4B 6418  11.551  41.886   7.562
  175POPC   NC3 6419   4.084  20.858   9.397
  175POPC   PO4 6420   4.403  20.269   9.555
  175POPC   GL1 6421   4.463  20.539   9.160
  175POPC   GL2 6422   4.571  20.881   9.139
  175POPC   C1A 6423   4.255  20.589   8.764
  175POPC   D2A 6424   4.158  20.261   8.458
  175POPC   C3A 6425   4.319  20.231   8.030
  175POPC   C4A 6426   4.514  20.474   7.680
  175POPC   C1B 6427   4.727  20.790   8.755
  175POPC   C2B 6428   4.581  20.573   8.374
  175POPC   C3B 6429   4.320  20.756   8.047
  175POPC   C4B 6430   4.567  21.008   7.750
  176POPC   NC3 6431  12.875   9.854   9.517
  176POPC   PO4 6432  13.325   9.372   9.328
  176POPC   GL1 6433  12.966   9.587   9.098
  176POPC   GL2 6434  12.566   9.670   9.146
  176POPC   C1A 6435  12.888   9.764   8.709
  176POPC   D2A 6436  13.104   9.663   8.335
  176POPC   C3A 6437  12.818   9.763   8.002
  176POPC   C4A 6438  12.989   9.745   7.629
  176POPC   C1B 6439  12.494   9.392   8.777
  176POPC   C2B 6440  12.680   9.377   8.358
  176POPC   C3B 6441  12.644   9.273   7.933
  176POPC   C4B 6442  12.581   9.445   7.521
  177POPC   NC3 6443  15.017  26.467   9.897
  177POPC   PO4 6444  15.003  27.048   9.520
  177POPC   GL1 6445  15.273  26.956   9.177
  177POPC   GL2 6446  15.204  26.649   9.010
  177POPC   C1A 6447  15.184  27.068   8.721
  177POPC   D2A 6448  15.047  27.396   8.420
  177POPC   C3A 6449  14.915  27.259   7.995
  177POPC   C4A 6450  14.945  27.154   7.566
  177POPC   C1B 6451  15.211  26.582   8.560
  177POPC   C2B 6452  15.006  26.817   8.255
  177POPC   C3B 6453  15.032  26.710   7.845
  177POPC   C4B 6454  15.287  26.346   7.693
  178POPC   NC3 6455  42.000  22.020   9.551
  178POPC   PO4 6456  42.140  21.384   9.381
  178POPC   GL1 6457  42.185  21.221   9.014
  178POPC   GL2 6458  42.465  21.043   9.065
  178POPC   C1A 6459  42.313  21.229   8.581
  178POPC   D2A 6460  42.185  21.552   8.267
  178POPC   C3A 6461  42.360  21.551   7.863
  178POPC   C4A 6462  42.613  21.464   7.526
  178POPC   C1B 6463  42.771  20.967   8.768
  178POPC   C2B 6464  42.801  21.129   8.367
  178POPC   C3B 6465  42.707  21.136   7.942
  178POPC   C4B 6466  42.572  20.940   7.602
  179POPC   NC3 6467  44.973   3.265   9.870
  179POPC   PO4 6468  44.665   3.796   9.656
  179POPC   GL1 6469  44.569   3.857   9.189
  179POPC   GL2 6470  44.824   3.746   8.972
  179POPC   C1A 6471  44.395   3.659   8.745
  179POPC   D2A 6472  44.572   3.375   8.410
  179POPC   C3A 6473  44.390   3.445   7.984
  179POPC   C4A 6474  44.631   3.333   7.593
  179POPC   C1B 6475  44.753   4.013   8.653
  179POPC   C2B 6476  44.617   3.887   8.255
  179POPC   C3B 6477  44.642   3.847   7.854
  179POPC   C4B 6478  44.876   3.762   7.534
  180POPC   NC3 6479  32.536  10.030   9.612
  180POPC   PO4 6480  32.026   9.542   9.488
  180POPC   GL1 6481  32.220   9.810   9.219
  180POPC   GL2 6482  32.537   9.690   9.211
  180POPC   C1A 6483  32.208   9.972   8.795
  180POPC   D2A 6484  31.981   9.847   8.452
  180POPC   C3A 6485  31.992  10.094   8.120
  180POPC   C4A 6486  32.184   9.872   7.802
  180POPC   C1B 6487  32.566   9.621   8.760
  180POPC   C2B 6488  32.531   9.868   8.363
  180POPC   C3B 6489  32.660   9.752   7.950
  180POPC   C4B 6490  32.640   9.862   7.518
  181POPC   NC3 6491  18.668  34.421   9.673
  181POPC   PO4 6492  19.177  34.295   9.487
  181POPC   GL1 6493  18.882  34.403   9.134
  181POPC   GL2 6494  18.748  34.735   9.059
  181POPC   C1A 6495  18.925  34.425   8.658
  181POPC   D2A 6496  19.186  34.331   8.287
  181POPC   C3A 6497  19.072  34.457   7.874
  181POPC   C4A 6498  19.242  34.760   7.629
  181POPC   C1B 6499  18.566  34.781   8.612
  181POPC   C2B 6500  18.730  34.641   8.201
  181POPC   C3B 6501  18.752  34.849   7.796
  181POPC   C4B 6502  18.745  34.960   7.372
  182POPC   NC3 6503  24.866  44.317   9.223
  182POPC   PO4 6504  24.472  43.923   9.596
  182POPC   GL1 6505  24.327  44.088   9.197
  182POPC   GL2 6506  24.593  43.922   9.020
  182POPC   C1A 6507  24.153  44.004   8.776
  182POPC   D2A 6508  24.389  43.976   8.375
  182POPC   C3A 6509  24.246  43.967   7.936
  182POPC   C4A 6510  24.430  43.738   7.576
  182POPC   C1B 6511  24.779  43.490   8.980
  182POPC   C2B 6512  25.046  43.354   8.610
  182POPC   C3B 6513  24.927  43.613   8.237
  182POPC   C4B 6514  24.787  43.896   7.900
  183POPC   NC3 6515  34.305  32.094   9.564
  183POPC   PO4 6516  34.771  32.460   9.340
  183POPC   GL1 6517  34.655  32.124   9.103
  183POPC   GL2 6518  34.375  31.839   9.124
  183POPC   C1A 6519  34.775  32.240   8.689
  183POPC   D2A 6520  34.742  32.072   8.298
  183POPC   C3A 6521  34.720  32.255   7.895
  183POPC   C4A 6522  34.614  32.156   7.472
  183POPC   C1B 6523  34.197  32.200   8.858
  183POPC   C2B 6524  34.348  32.463   8.497
  183POPC   C3B 6525  34.357  32.629   8.081
  183POPC   C4B 6526  34.451  32.644   7.624
  184POPC   NC3 6527   8.565  12.383   9.454
  184POPC   PO4 6528   8.609  13.044   9.472
  184POPC   GL1 6529   8.792  12.816   9.104
  184POPC   GL2 6530   9.156  12.713   9.054
  184POPC   C1A 6531   8.805  12.967   8.678
  184POPC   D2A 6532   9.071  13.162   8.349
  184POPC   C3A 6533   8.855  13.057   7.967
  184POPC   C4A 6534   8.852  12.816   7.572
  184POPC   C1B 6535   9.326  12.903   8.698
  184POPC   C2B 6536   9.456  12.794   8.285
  184POPC   C3B 6537   9.290  12.838   7.845
  184POPC   C4B 6538   9.281  12.580   7.421
  185POPC   NC3 6539  35.966   9.317   9.321
  185POPC   PO4 6540  36.448   8.723   9.394
  185POPC   GL1 6541  36.251   8.946   9.136
  185POPC   GL2 6542  36.400   9.274   9.038
  185POPC   C1A 6543  35.978   8.912   8.794
  185POPC   D2A 6544  35.999   8.788   8.388
  185POPC   C3A 6545  35.891   9.085   8.061
  185POPC   C4A 6546  35.924   9.037   7.606
  185POPC   C1B 6547  36.479   8.978   8.711
  185POPC   C2B 6548  36.498   8.828   8.313
  185POPC   C3B 6549  36.346   8.919   7.924
  185POPC   C4B 6550  36.574   9.220   7.722
  186POPC   NC3 6551  24.761   9.973   9.306
  186POPC   PO4 6552  25.305   9.681   9.635
  186POPC   GL1 6553  25.258   9.608   9.153
  186POPC   GL2 6554  24.918   9.523   9.027
  186POPC   C1A 6555  25.436   9.650   8.766
  186POPC   D2A 6556  25.402  10.015   8.498
  186POPC   C3A 6557  25.399   9.938   8.043
  186POPC   C4A 6558  25.625   9.760   7.694
  186POPC   C1B 6559  24.964   9.806   8.692
  186POPC   C2B 6560  24.928   9.978   8.269
  186POPC   C3B 6561  24.910   9.974   7.797
  186POPC   C4B 6562  24.960   9.643   7.452
  187POPC   NC3 6563  44.668  42.708   9.367
  187POPC   PO4 6564  44.850  43.379   9.240
  187POPC   GL1 6565  44.708  43.082   9.019
  187POPC   GL2 6566  44.391  43.105   9.135
  187POPC   C1A 6567  44.533  42.930   8.660
  187POPC   D2A 6568  44.685  42.714   8.326
  187POPC   C3A 6569  44.682  42.974   7.972
  187POPC   C4A 6570  44.935  43.140   7.657
  187POPC   C1B 6571  44.389  43.430   8.756
  187POPC   C2B 6572  44.599  43.513   8.347
  187POPC   C3B 6573  44.703  43.505   7.897
  187POPC   C4B 6574  44.489  43.329   7.490
  188POPC   NC3 6575  35.819   2.892   9.810
  188POPC   PO4 6576  35.781   2.334   9.588
  188POPC   GL1 6577  35.689   2.686   9.322
  188POPC   GL2 6578  35.955   2.933   9.262
  188POPC   C1A 6579  35.707   2.756   8.850
  188POPC   D2A 6580  35.831   2.999   8.459
  188POPC   C3A 6581  35.822   2.784   8.047
  188POPC   C4A 6582  36.006   2.427   7.871
  188POPC   C1B 6583  36.191   2.985   8.825
  188POPC   C2B 6584  36.329   2.986   8.340
  188POPC   C3B 6585  36.339   2.819   7.893
  188POPC   C4B 6586  36.490   2.839   7.447
  189POPC   NC3 6587  25.980  40.774   9.671
  189POPC   PO4 6588  25.740  40.188   9.476
  189POPC   GL1 6589  25.802  40.621   9.195
  189POPC   GL2 6590  25.878  41.010   9.168
  189POPC   C1A 6591  26.069  40.707   8.800
  189POPC   D2A 6592  26.228  40.550   8.372
  189POPC   C3A 6593  26.124  40.754   7.965
  189POPC   C4A 6594  26.210  40.690   7.499
  189POPC   C1B 6595  26.145  41.210   8.800
  189POPC   C2B 6596  26.210  41.101   8.370
  189POPC   C3B 6597  26.020  41.261   8.003
  189POPC   C4B 6598  25.998  41.163   7.571
  190POPC   NC3 6599  11.104  25.166   9.379
  190POPC   PO4 6600  11.544  25.676   9.495
  190POPC   GL1 6601  11.475  25.409   9.131
  190POPC   GL2 6602  11.121  25.468   8.985
  190POPC   C1A 6603  11.432  25.159   8.756
  190POPC   D2A 6604  11.058  25.144   8.509
  190POPC   C3A 6605  11.198  25.132   8.101
  190POPC   C4A 6606  11.287  25.368   7.743
  190POPC   C1B 6607  10.996  25.670   8.597
  190POPC   C2B 6608  11.015  25.638   8.120
  190POPC   C3B 6609  10.818  25.546   7.695
  190POPC   C4B 6610  10.967  25.551   7.245
  191POPC   NC3 6611  44.593   9.352   9.549
  191POPC   PO4 6612  44.726  10.012   9.525
  191POPC   GL1 6613  44.794   9.848   9.142
  191POPC   GL2 6614  44.904   9.489   9.154
  191POPC   C1A 6615  44.819   9.808   8.720
  191POPC   D2A 6616  44.633   9.617   8.377
  191POPC   C3A 6617  44.779   9.812   8.046
  191POPC   C4A 6618  44.646  10.042   7.679
  191POPC   C1B 6619  44.774   9.314   8.764
  191POPC   C2B 6620  44.865   9.155   8.345
  191POPC   C3B 6621  44.689   9.306   7.961
  191POPC   C4B 6622  44.768   9.531   7.620
  192POPC   NC3 6623  38.876   8.673   9.381
  192POPC   PO4 6624  39.208   7.994   9.451
  192POPC   GL1 6625  39.195   8.187   9.102
  192POPC   GL2 6626  38.860   8.246   9.120
  192POPC   C1A 6627  39.444   8.241   8.746
  192POPC   D2A 6628  39.343   8.504   8.433
  192POPC   C3A 6629  39.296   8.336   8.041
  192POPC   C4A 6630  39.260   7.916   7.884
  192POPC   C1B 6631  38.932   8.377   8.719
  192POPC   C2B 6632  39.045   8.069   8.416
  192POPC   C3B 6633  38.796   7.991   8.060
  192POPC   C4B 6634  38.829   8.349   7.776
  193POPC   NC3 6635  31.904  19.493   9.825
  193POPC   PO4 6636  31.309  19.605   9.465
  193POPC   GL1 6637  31.466  19.811   9.124
  193POPC   GL2 6638  31.783  19.967   9.226
  193POPC   C1A 6639  31.291  19.907   8.721
  193POPC   D2A 6640  31.431  20.027   8.310
  193POPC   C3A 6641  31.188  19.901   7.939
  193POPC   C4A 6642  31.259  19.914   7.483
  193POPC   C1B 6643  31.869  19.878   8.768
  193POPC   C2B 6644  31.899  19.687   8.341
  193POPC   C3B 6645  31.650  19.686   7.970
  193POPC   C4B 6646  31.734  19.951   7.632
  194POPC   NC3 6647  28.055  30.308   9.376
  194POPC   PO4 6648  28.484  30.844   9.514
  194POPC   GL1 6649  28.299  30.713   9.124
  194POPC   GL2 6650  27.958  30.661   9.042
  194POPC   C1A 6651  28.433  30.711   8.712
  194POPC   D2A 6652  28.674  30.833   8.377
  194POPC   C3A 6653  28.554  30.610   8.012
  194POPC   C4A 6654  28.393  30.683   7.608
  194POPC   C1B 6655  28.074  30.355   8.711
  194POPC   C2B 6656  28.333  30.312   8.351
  194POPC   C3B 6657  28.204  30.255   7.882
  194POPC   C4B 6658  27.995  30.358   7.476
  195POPC   NC3 6659   7.985  26.193   9.616
  195POPC   PO4 6660   8.441  25.713   9.525
  195POPC   GL1 6661   8.245  25.917   9.179
  195POPC   GL2 6662   8.287  26.281   9.210
  195POPC   C1A 6663   8.323  25.915   8.728
  195POPC   D2A 6664   8.109  25.831   8.338
  195POPC   C3A 6665   8.262  25.888   7.917
  195POPC   C4A 6666   8.045  25.868   7.519
  195POPC   C1B 6667   8.063  26.377   8.812
  195POPC   C2B 6668   8.193  26.354   8.385
  195POPC   C3B 6669   8.003  26.327   7.988
  195POPC   C4B 6670   8.080  26.387   7.559
  196POPC   NC3 6671   0.904  42.771   9.361
  196POPC   PO4 6672   1.483  43.104   9.478
  196POPC   GL1 6673   1.524  43.138   9.028
  196POPC   GL2 6674   1.532  42.762   9.062
  196POPC   C1A 6675   1.301  43.406   8.668
  196POPC   D2A 6676   0.956  43.484   8.340
  196POPC   C3A 6677   1.141  43.335   7.944
  196POPC   C4A 6678   1.443  43.461   7.685
  196POPC   C1B 6679   1.261  42.833   8.717
  196POPC   C2B 6680   1.153  42.996   8.334
  196POPC   C3B 6681   1.226  42.808   7.944
  196POPC   C4B 6682   1.351  42.943   7.533
  197POPC   NC3 6683   3.987  25.104   9.490
  197POPC   PO4 6684   4.570  25.494   9.630
  197POPC   GL1 6685   4.438  25.273   9.244
  197POPC   GL2 6686   4.124  25.431   9.107
  197POPC   C1A 6687   4.550  25.402   8.817
  197POPC   D2A 6688   4.277  25.428   8.473
  197POPC   C3A 6689   4.476  25.367   8.070
  197POPC   C4A 6690   4.256  25.385   7.648
  197POPC   C1B 6691   4.166  25.061   8.832
  197POPC   C2B 6692   4.013  24.953   8.407
  197POPC   C3B 6693   4.219  24.907   7.995
  197POPC   C4B 6694   4.337  24.876   7.554
  198POPC   NC3 6695  40.047  12.482   9.530
  198POPC   PO4 6696  40.265  13.080   9.628
  198POPC   GL1 6697  40.148  13.019   9.185
  198POPC   GL2 6698  39.859  12.862   9.180
  198POPC   C1A 6699  40.178  12.916   8.745
  198POPC   D2A 6700  39.939  12.746   8.397
  198POPC   C3A 6701  40.201  12.812   8.095
  198POPC   C4A 6702  40.302  12.781   7.723
  198POPC   C1B 6703  39.805  13.263   8.889
  198POPC   C2B 6704  39.795  13.271   8.418
  198POPC   C3B 6705  39.957  13.217   7.979
  198POPC   C4B 6706  40.053  13.149   7.491
  199POPC   NC3 6707  35.070  24.236   9.541
  199POPC   PO4 6708  35.139  24.838   9.315
  199POPC   GL1 6709  35.466  24.598   9.134
  199POPC   GL2 6710  35.371  24.304   9.128
  199POPC   C1A 6711  35.663  24.499   8.718
  199POPC   D2A 6712  35.417  24.402   8.354
  199POPC   C3A 6713  35.445  24.533   7.957
  199POPC   C4A 6714  35.467  24.745   7.589
  199POPC   C1B 6715  35.143  24.499   8.770
  199POPC   C2B 6716  34.884  24.442   8.454
  199POPC   C3B 6717  34.994  24.338   8.053
  199POPC   C4B 6718  35.057  24.451   7.595
  200POPC   NC3 6719   2.395  19.533   9.431
  200POPC   PO4 6720   1.938  20.064   9.462
  200POPC   GL1 6721   1.817  19.828   9.109
  200POPC   GL2 6722   2.079  19.546   9.036
  200POPC   C1A 6723   1.825  19.752   8.666
  200POPC   D2A 6724   2.131  19.625   8.438
  200POPC   C3A 6725   2.058  19.752   8.027
  200POPC   C4A 6726   1.984  19.718   7.608
  200POPC   C1B 6727   2.269  19.937   8.856
  200POPC   C2B 6728   2.516  19.959   8.484
  200POPC   C3B 6729   2.486  20.063   8.061
  200POPC   C4B 6730   2.200  20.183   7.745
  201POPC   NC3 6731   7.974  34.054   9.815
  201POPC   PO4 6732   8.433  33.579   9.650
  201POPC   GL1 6733   8.442  33.676   9.197
  201POPC   GL2 6734   8.542  34.015   9.234
  201POPC   C1A 6735   8.193  33.663   8.782
  201POPC   D2A 6736   8.192  33.523   8.359
  201POPC   C3A 6737   8.415  33.659   8.028
  201POPC   C4A 6738   8.158  33.708   7.673
  201POPC   C1B 6739   8.546  34.023   8.802
  201POPC   C2B 6740   8.492  34.151   8.351
  201POPC   C3B 6741   8.278  34.151   7.945
  201POPC   C4B 6742   8.424  34.078   7.496
  202POPC   NC3 6743   9.632  38.519   9.767
  202POPC   PO4 6744  10.097  38.121   9.833
  202POPC   GL1 6745   9.904  38.260   9.381
  202POPC   GL2 6746   9.774  38.629   9.286
  202POPC   C1A 6747  10.012  38.348   8.905
  202POPC   D2A 6748   9.816  38.520   8.523
  202POPC   C3A 6749   9.881  38.325   8.114
  202POPC   C4A 6750  10.026  38.587   7.757
  202POPC   C1B 6751   9.501  38.618   8.918
  202POPC   C2B 6752   9.354  38.764   8.521
  202POPC   C3B 6753   9.548  38.718   8.132
  202POPC   C4B 6754   9.544  38.553   7.735
  203POPC   NC3 6755  26.903   9.194   9.663
  203POPC   PO4 6756  26.352   8.853   9.728
  203POPC   GL1 6757  26.608   8.964   9.292
  203POPC   GL2 6758  27.001   9.033   9.205
  203POPC   C1A 6759  26.686   9.123   8.844
  203POPC   D2A 6760  26.748   8.906   8.458
  203POPC   C3A 6761  26.609   9.121   8.126
  203POPC   C4A 6762  26.793   9.298   7.732
  203POPC   C1B 6763  27.170   8.911   8.797
  203POPC   C2B 6764  27.310   8.921   8.362
  203POPC   C3B 6765  27.077   8.962   7.983
  203POPC   C4B 6766  26.742   8.757   7.758
  204POPC   NC3 6767  20.000  20.267   9.448
  204POPC   PO4 6768  20.080  20.982   9.474
  204POPC   GL1 6769  20.019  20.666   9.130
  204POPC   GL2 6770  19.638  20.545   9.166
  204POPC   C1A 6771  20.124  20.368   8.776
  204POPC   D2A 6772  20.218  20.234   8.383
  204POPC   C3A 6773  19.946  20.458   8.128
  204POPC   C4A 6774  19.993  20.698   7.775
  204POPC   C1B 6775  19.692  20.654   8.721
  204POPC   C2B 6776  19.699  20.896   8.349
  204POPC   C3B 6777  19.531  20.764   7.957
  204POPC   C4B 6778  19.568  20.354   7.801
  205POPC   NC3 6779   3.316  24.886   9.313
  205POPC   PO4 6780   3.585  25.411   9.475
  205POPC   GL1 6781   3.603  25.491   9.102
  205POPC   GL2 6782   3.700  25.120   9.049
  205POPC   C1A 6783   3.335  25.588   8.763
  205POPC   D2A 6784   3.263  25.325   8.440
  205POPC   C3A 6785   3.439  25.374   8.047
  205POPC   C4A 6786   3.189  25.133   7.812
  205POPC   C1B 6787   3.774  25.340   8.668
  205POPC   C2B 6788   3.778  25.593   8.366
  205POPC   C3B 6789   3.957  25.356   8.076
  205POPC   C4B 6790   3.794  25.089   7.789
  206POPC   NC3 6791  14.457  32.335   9.494
  206POPC   PO4 6792  14.574  31.766   9.871
  206POPC   GL1 6793  14.529  31.804   9.347
  206POPC   GL2 6794  14.731  31.993   9.153
  206POPC   C1A 6795  14.307  31.950   8.897
  206POPC   D2A 6796  14.303  32.196   8.483
  206POPC   C3A 6797  14.170  32.049   8.063
  206POPC   C4A 6798  14.297  32.181   7.641
  206POPC   C1B 6799  14.704  32.313   8.803
  206POPC   C2B 6800  14.739  32.422   8.359
  206POPC   C3B 6801  14.690  32.199   7.984
  206POPC   C4B 6802  14.820  32.298   7.552
  207POPC   NC3 6803  27.082   1.919   9.844
  207POPC   PO4 6804  27.714   1.785   9.605
  207POPC   GL1 6805  27.447   1.904   9.236
  207POPC   GL2 6806  27.176   1.729   9.289
  207POPC   C1A 6807  27.313   2.059   8.792
  207POPC   D2A 6808  27.467   2.263   8.414
  207POPC   C3A 6809  27.545   2.052   8.041
  207POPC   C4A 6810  27.503   2.001   7.608
  207POPC   C1B 6811  27.134   1.571   8.876
  207POPC   C2B 6812  27.273   1.628   8.438
  207POPC   C3B 6813  27.177   1.707   8.005
  207POPC   C4B 6814  26.949   1.523   7.672
  208POPC   NC3 6815  23.568  11.483   9.505
  208POPC   PO4 6816  23.828  10.854   9.591
  208POPC   GL1 6817  23.826  11.164   9.212
  208POPC   GL2 6818  23.463  11.236   9.073
  208POPC   C1A 6819  23.875  11.359   8.804
  208POPC   D2A 6820  23.671  11.311   8.410
  208POPC   C3A 6821  23.877  11.247   7.998
  208POPC   C4A 6822  23.988  11.020   7.612
  208POPC   C1B 6823  23.174  11.424   8.745
  208POPC   C2B 6824  23.249  11.601   8.326
  208POPC   C3B 6825  23.596  11.681   8.061
  208POPC   C4B 6826  23.737  11.650   7.677
  209POPC   NC3 6827  10.745   9.456   9.442
  209POPC   PO4 6828  10.316  10.053   9.382
  209POPC   GL1 6829  10.553   9.814   9.120
  209POPC   GL2 6830  10.845   9.988   9.028
  209POPC   C1A 6831  10.359   9.609   8.770
  209POPC   D2A 6832  10.102   9.837   8.480
  209POPC   C3A 6833  10.257  10.002   8.103
  209POPC   C4A 6834  10.260   9.836   7.712
  209POPC   C1B 6835  10.875   9.606   8.749
  209POPC   C2B 6836  10.648   9.391   8.404
  209POPC   C3B 6837  10.512   9.500   8.001
  209POPC   C4B 6838  10.753   9.738   7.734
  210POPC   NC3 6839  24.139   6.499   9.464
  210POPC   PO4 6840  24.681   6.909   9.526
  210POPC   GL1 6841  24.757   6.710   9.141
  210POPC   GL2 6842  24.426   6.647   9.089
  210POPC   C1A 6843  24.748   6.619   8.698
  210POPC   D2A 6844  24.454   6.706   8.347
  210POPC   C3A 6845  24.709   6.746   8.018
  210POPC   C4A 6846  24.736   6.586   7.606
  210POPC   C1B 6847  24.286   6.398   8.738
  210POPC   C2B 6848  24.488   6.205   8.383
  210POPC   C3B 6849  24.394   6.334   7.961
  210POPC   C4B 6850  24.437   6.149   7.556
  211POPC   NC3 6851   8.062   4.691   9.382
  211POPC   PO4 6852   8.377   4.083   9.552
  211POPC   GL1 6853   8.350   4.288   9.176
  211POPC   GL2 6854   8.618   4.521   9.193
  211POPC   C1A 6855   8.233   4.466   8.763
  211POPC   D2A 6856   7.934   4.426   8.452
  211POPC   C3A 6857   7.950   4.594   8.045
  211POPC   C4A 6858   8.025   4.372   7.639
  211POPC   C1B 6859   8.711   4.622   8.757
  211POPC   C2B 6860   8.460   4.621   8.333
  211POPC   C3B 6861   8.437   4.526   7.883
  211POPC   C4B 6862   8.467   4.541   7.404
  212POPC   NC3 6863  32.691  18.878   9.773
  212POPC   PO4 6864  32.241  19.304   9.447
  212POPC   GL1 6865  32.087  19.060   9.100
  212POPC   GL2 6866  31.875  18.740   9.117
  212POPC   C1A 6867  32.281  18.870   8.703
  212POPC   D2A 6868  32.471  18.641   8.358
  212POPC   C3A 6869  32.543  18.943   8.018
  212POPC   C4A 6870  32.278  19.068   7.662
  212POPC   C1B 6871  31.787  18.987   8.714
  212POPC   C2B 6872  31.783  19.181   8.298
  212POPC   C3B 6873  31.700  19.185   7.845
  212POPC   C4B 6874  31.825  18.999   7.453
  213POPC   NC3 6875  27.424  39.036   9.535
  213POPC   PO4 6876  27.935  39.523   9.454
  213POPC   GL1 6877  27.809  39.192   9.156
  213POPC   GL2 6878  27.497  39.348   9.103
  213POPC   C1A 6879  27.700  39.057   8.722
  213POPC   D2A 6880  27.417  39.171   8.414
  213POPC   C3A 6881  27.617  39.245   8.074
  213POPC   C4A 6882  27.469  39.280   7.661
  213POPC   C1B 6883  27.780  39.557   8.778
  213POPC   C2B 6884  27.981  39.543   8.352
  213POPC   C3B 6885  28.067  39.415   7.907
  213POPC   C4B 6886  27.883  39.506   7.509
  214POPC   NC3 6887  27.183  36.021   9.396
  214POPC   PO4 6888  26.845  36.606   9.481
  214POPC   GL1 6889  26.848  36.339   9.135
  214POPC   GL2 6890  26.684  36.032   9.205
  214POPC   C1A 6891  27.005  36.235   8.735
  214POPC   D2A 6892  26.793  36.258   8.331
  214POPC   C3A 6893  26.975  36.040   7.994
  214POPC   C4A 6894  26.809  36.021   7.575
  214POPC   C1B 6895  26.523  36.051   8.789
  214POPC   C2B 6896  26.527  35.823   8.400
  214POPC   C3B 6897  26.460  35.981   7.982
  214POPC   C4B 6898  26.311  35.914   7.558
  215POPC   NC3 6899  11.105  32.855   9.482
  215POPC   PO4 6900  11.783  32.822   9.470
  215POPC   GL1 6901  11.502  32.835   9.159
  215POPC   GL2 6902  11.336  33.178   9.166
  215POPC   C1A 6903  11.298  32.790   8.782
  215POPC   D2A 6904  11.441  32.714   8.375
  215POPC   C3A 6905  11.291  33.019   8.107
  215POPC   C4A 6906  11.122  33.133   7.713
  215POPC   C1B 6907  11.639  33.209   8.827
  215POPC   C2B 6908  11.569  33.355   8.421
  215POPC   C3B 6909  11.637  33.388   7.984
  215POPC   C4B 6910  11.638  33.065   7.671
  216POPC   NC3 6911  13.817  28.965   9.421
  216POPC   PO4 6912  13.532  29.632   9.538
  216POPC   GL1 6913  13.490  29.320   9.212
  216POPC   GL2 6914  13.815  29.329   9.072
  216POPC   C1A 6915  13.365  29.222   8.771
  216POPC   D2A 6916  13.211  29.384   8.360
  216POPC   C3A 6917  13.268  29.080   8.020
  216POPC   C4A 6918  13.623  28.871   7.850
  216POPC   C1B 6919  13.986  29.453   8.701
  216POPC   C2B 6920  13.737  29.266   8.369
  216POPC   C3B 6921  13.697  29.380   7.959
  216POPC   C4B 6922  14.082  29.423   7.746
  217POPC   NC3 6923  11.469  35.411   9.365
  217POPC   PO4 6924  10.812  35.581   9.462
  217POPC   GL1 6925  11.046  35.557   9.107
  217POPC   GL2 6926  10.934  35.227   9.088
  217POPC   C1A 6927  11.292  35.396   8.753
  217POPC   D2A 6928  11.327  35.267   8.360
  217POPC   C3A 6929  11.335  35.540   7.980
  217POPC   C4A 6930  11.468  35.558   7.550
  217POPC   C1B 6931  10.901  35.023   8.673
  217POPC   C2B 6932  11.068  34.828   8.301
  217POPC   C3B 6933  11.336  34.974   7.957
  217POPC   C4B 6934  11.252  35.101   7.568
  218POPC   NC3 6935  18.262  20.445   9.417
  218POPC   PO4 6936  18.119  21.071   9.598
  218POPC   GL1 6937  18.119  20.909   9.186
  218POPC   GL2 6938  17.900  20.623   9.112
  218POPC   C1A 6939  18.195  20.920   8.759
  218POPC   D2A 6940  18.136  21.045   8.348
  218POPC   C3A 6941  18.045  20.657   8.133
  218POPC   C4A 6942  18.212  20.586   7.726
  218POPC   C1B 6943  18.133  20.378   8.773
  218POPC   C2B 6944  18.311  20.279   8.365
  218POPC   C3B 6945  18.134  20.150   7.971
  218POPC   C4B 6946  18.011  20.189   7.536
  219POPC   NC3 6947  38.715  15.607   9.444
  219POPC   PO4 6948  38.987  15.006   9.383
  219POPC   GL1 6949  38.623  15.089   9.124
  219POPC   GL2 6950  38.326  14.861   9.124
  219POPC   C1A 6951  38.399  15.273   8.758
  219POPC   D2A 6952  38.319  15.460   8.338
  219POPC   C3A 6953  38.541  15.400   7.919
  219POPC   C4A 6954  38.668  15.445   7.445
  219POPC   C1B 6955  38.536  14.790   8.694
  219POPC   C2B 6956  38.577  14.996   8.287
  219POPC   C3B 6957  38.393  14.874   7.888
  219POPC   C4B 6958  38.390  14.489   7.620
  220POPC   NC3 6959  42.324  43.552   9.697
  220POPC   PO4 6960  42.249  44.143   9.425
  220POPC   GL1 6961  42.096  43.977   9.101
  220POPC   GL2 6962  42.182  43.648   9.138
  220POPC   C1A 6963  42.283  43.961   8.735
  220POPC   D2A 6964  42.272  43.741   8.393
  220POPC   C3A 6965  42.278  44.027   8.087
  220POPC   C4A 6966  42.364  43.929   7.730
  220POPC   C1B 6967  41.903  43.594   8.783
  220POPC   C2B 6968  41.852  43.445   8.364
  220POPC   C3B 6969  41.951  43.642   7.990
  220POPC   C4B 6970  42.089  43.513   7.589
  221POPC   NC3 6971   1.817  30.636   9.370
  221POPC   PO4 6972   1.174  30.839   9.546
  221POPC   GL1 6973   1.325  30.655   9.185
  221POPC   GL2 6974   0.969  30.680   9.054
  221POPC   C1A 6975   1.377  30.412   8.780
  221POPC   D2A 6976   1.142  30.464   8.390
  221POPC   C3A 6977   1.370  30.607   8.033
  221POPC   C4A 6978   1.307  30.735   7.597
  221POPC   C1B 6979   1.198  30.891   8.757
  221POPC   C2B 6980   1.206  30.979   8.353
  221POPC   C3B 6981   1.228  31.104   7.976
  221POPC   C4B 6982   0.979  31.212   7.720
  222POPC   NC3 6983  31.961  24.553   9.577
  222POPC   PO4 6984  32.164  23.957   9.421
  222POPC   GL1 6985  32.430  24.181   9.109
  222POPC   GL2 6986  32.430  24.537   9.147
  222POPC   C1A 6987  32.350  24.187   8.637
  222POPC   D2A 6988  32.276  24.505   8.294
  222POPC   C3A 6989  32.244  24.378   7.852
  222POPC   C4A 6990  32.475  24.306   7.454
  222POPC   C1B 6991  32.112  24.585   8.824
  222POPC   C2B 6992  31.844  24.756   8.478
  222POPC   C3B 6993  31.883  24.918   8.032
  222POPC   C4B 6994  31.808  24.766   7.624
  223POPC   NC3 6995   2.574  36.774   9.446
  223POPC   PO4 6996   3.105  37.245   9.491
  223POPC   GL1 6997   2.899  37.139   9.132
  223POPC   GL2 6998   2.904  36.771   9.031
  223POPC   C1A 6999   3.009  37.165   8.705
  223POPC   D2A 7000   2.757  37.038   8.375
  223POPC   C3A 7001   2.969  36.825   8.105
  223POPC   C4A 7002   2.849  36.788   7.709
  223POPC   C1B 7003   2.522  36.943   8.817
  223POPC   C2B 7004   2.307  36.761   8.475
  223POPC   C3B 7005   2.459  36.722   8.054
  223POPC   C4B 7006   2.387  36.538   7.637
  224POPC   NC3 7007  40.769  29.212   9.384
  224POPC   PO4 7008  40.317  28.664   9.384
  224POPC   GL1 7009  40.362  29.015   9.109
  224POPC   GL2 7010  40.450  29.392   9.034
  224POPC   C1A 7011  40.610  28.995   8.734
  224POPC   D2A 7012  40.612  29.118   8.302
  224POPC   C3A 7013  40.867  28.969   7.946
  224POPC   C4A 7014  41.188  29.182   7.687
  224POPC   C1B 7015  40.542  29.516   8.624
  224POPC   C2B 7016  40.303  29.527   8.252
  224POPC   C3B 7017  40.369  29.238   7.878
  224POPC   C4B 7018  40.325  29.311   7.429
  225POPC   NC3 7019  23.475  41.124   9.445
  225POPC   PO4 7020  23.838  41.690   9.589
  225POPC   GL1 7021  23.575  41.570   9.219
  225POPC   GL2 7022  23.624  41.853   9.094
  225POPC   C1A 7023  23.367  41.452   8.778
  225POPC   D2A 7024  23.634  41.399   8.347
  225POPC   C3A 7025  23.487  41.236   7.908
  225POPC   C4A 7026  23.454  41.327   7.440
  225POPC   C1B 7027  23.724  41.796   8.697
  225POPC   C2B 7028  23.670  41.960   8.321
  225POPC   C3B 7029  23.886  41.955   7.964
  225POPC   C4B 7030  23.830  41.597   7.666
  226POPC   NC3 7031   9.151  44.935   9.489
  226POPC   PO4 7032   8.588  44.570   9.548
  226POPC   GL1 7033   8.916  44.507   9.237
  226POPC   GL2 7034   8.895  44.816   9.079
  226POPC   C1A 7035   9.183  44.461   8.859
  226POPC   D2A 7036   9.098  44.592   8.447
  226POPC   C3A 7037   9.093  44.385   8.042
  226POPC   C4A 7038   9.021  44.400   7.579
  226POPC   C1B 7039   9.180  44.976   8.788
  226POPC   C2B 7040   8.984   0.071   8.398
  226POPC   C3B 7041   8.926  44.870   8.014
  226POPC   C4B 7042   9.195   0.008   7.713
  227POPC   NC3 7043  15.430  28.520   9.492
  227POPC   PO4 7044  14.829  28.559   9.510
  227POPC   GL1 7045  14.871  28.295   9.157
  227POPC   GL2 7046  15.213  28.397   9.035
  227POPC   C1A 7047  14.844  28.271   8.713
  227POPC   D2A 7048  15.172  28.402   8.465
  227POPC   C3A 7049  15.291  28.245   8.076
  227POPC   C4A 7050  15.554  28.379   7.739
  227POPC   C1B 7051  14.958  28.743   8.848
  227POPC   C2B 7052  14.758  28.736   8.439
  227POPC   C3B 7053  14.939  28.699   8.039
  227POPC   C4B 7054  15.044  28.482   7.709
  228POPC   NC3 7055  43.071  22.664   9.642
  228POPC   PO4 7056  43.258  23.330   9.536
  228POPC   GL1 7057  43.042  23.074   9.200
  228POPC   GL2 7058  43.274  22.817   9.157
  228POPC   C1A 7059  42.939  22.907   8.766
  228POPC   D2A 7060  43.011  23.109   8.348
  228POPC   C3A 7061  43.132  22.907   7.985
  228POPC   C4A 7062  42.967  22.531   7.946
  228POPC   C1B 7063  43.467  22.852   8.720
  228POPC   C2B 7064  43.526  23.019   8.283
  228POPC   C3B 7065  43.627  22.867   7.844
  228POPC   C4B 7066  43.454  22.968   7.412
  229POPC   NC3 7067  27.909  40.649   9.581
  229POPC   PO4 7068  27.413  41.104   9.354
  229POPC   GL1 7069  27.512  40.896   8.989
  229POPC   GL2 7070  27.709  40.605   9.070
  229POPC   C1A 7071  27.880  40.882   8.672
  229POPC   D2A 7072  27.707  40.951   8.306
  229POPC   C3A 7073  27.868  40.820   7.966
  229POPC   C4A 7074  28.027  41.073   7.647
  229POPC   C1B 7075  27.486  40.548   8.637
  229POPC   C2B 7076  27.224  40.773   8.316
  229POPC   C3B 7077  27.336  40.872   7.893
  229POPC   C4B 7078  27.541  40.583   7.619
  230POPC   NC3 7079  35.069  10.048   9.541
  230POPC   PO4 7080  35.645   9.589   9.516
  230POPC   GL1 7081  35.385   9.515   9.200
  230POPC   GL2 7082  35.316   9.863   9.139
  230POPC   C1A 7083  35.374   9.521   8.759
  230POPC   D2A 7084  35.082   9.654   8.446
  230POPC   C3A 7085  35.203   9.594   8.020
  230POPC   C4A 7086  34.954   9.583   7.647
  230POPC   C1B 7087  35.537  10.020   8.785
  230POPC   C2B 7088  35.651   9.840   8.398
  230POPC   C3B 7089  35.619   9.981   7.974
  230POPC   C4B 7090  35.439  10.248   7.678
  231POPC   NC3 7091  29.001  38.874   9.445
  231POPC   PO4 7092  29.040  38.170   9.504
  231POPC   GL1 7093  29.325  38.393   9.199
  231POPC   GL2 7094  29.427  38.749   9.206
  231POPC   C1A 7095  29.174  38.497   8.812
  231POPC   D2A 7096  28.999  38.668   8.439
  231POPC   C3A 7097  29.041  38.382   8.120
  231POPC   C4A 7098  29.032  38.561   7.733
  231POPC   C1B 7099  29.481  38.923   8.827
  231POPC   C2B 7100  29.506  38.691   8.474
  231POPC   C3B 7101  29.419  38.751   8.087
  231POPC   C4B 7102  29.568  38.586   7.755
  232POPC   NC3 7103  35.573   4.636   9.703
  232POPC   PO4 7104  34.992   5.082   9.702
  232POPC   GL1 7105  35.404   5.052   9.384
  232POPC   GL2 7106  35.588   5.323   9.160
  232POPC   C1A 7107  35.518   4.885   8.933
  232POPC   D2A 7108  35.266   4.962   8.542
  232POPC   C3A 7109  35.365   4.858   8.097
  232POPC   C4A 7110  35.126   4.953   7.735
  232POPC   C1B 7111  35.555   5.355   8.710
  232POPC   C2B 7112  35.592   5.496   8.253
  232POPC   C3B 7113  35.292   5.442   7.878
  232POPC   C4B 7114  35.056   5.409   7.466
  233POPC   NC3 7115   7.596  21.076   9.432
  233POPC   PO4 7116   6.932  21.171   9.417
  233POPC   GL1 7117   7.275  21.354   9.123
  233POPC   GL2 7118   7.673  21.432   9.081
  233POPC   C1A 7119   7.381  21.182   8.728
  233POPC   D2A 7120   7.377  21.361   8.349
  233POPC   C3A 7121   7.284  21.178   7.948
  233POPC   C4A 7122   7.573  21.132   7.589
  233POPC   C1B 7123   7.491  21.686   8.779
  233POPC   C2B 7124   7.309  21.863   8.423
  233POPC   C3B 7125   7.434  21.742   8.022
  233POPC   C4B 7126   7.392  21.590   7.627
  234POPC   NC3 7127   6.465   2.689   9.241
  234POPC   PO4 7128   7.068   2.449   9.418
  234POPC   GL1 7129   6.955   2.713   9.116
  234POPC   GL2 7130   6.811   2.458   8.972
  234POPC   C1A 7131   6.728   2.903   8.704
  234POPC   D2A 7132   6.869   3.013   8.278
  234POPC   C3A 7133   6.516   3.081   7.962
  234POPC   C4A 7134   6.503   3.257   7.549
  234POPC   C1B 7135   6.999   2.457   8.612
  234POPC   C2B 7136   6.798   2.448   8.254
  234POPC   C3B 7137   6.801   2.617   7.904
  234POPC   C4B 7138   7.076   2.309   7.752
  235POPC   NC3 7139  40.239  26.579   9.609
  235POPC   PO4 7140  39.668  26.906   9.464
  235POPC   GL1 7141  39.988  26.891   9.182
  235POPC   GL2 7142  40.215  26.615   9.122
  235POPC   C1A 7143  39.830  26.748   8.807
  235POPC   D2A 7144  39.925  26.581   8.423
  235POPC   C3A 7145  39.807  26.872   8.107
  235POPC   C4A 7146  39.730  26.702   7.746
  235POPC   C1B 7147  40.309  26.852   8.759
  235POPC   C2B 7148  40.443  26.655   8.422
  235POPC   C3B 7149  40.259  26.668   8.030
  235POPC   C4B 7150  40.403  26.432   7.746
  236POPC   NC3 7151  18.167   5.735   9.691
  236POPC   PO4 7152  18.299   5.032   9.494
  236POPC   GL1 7153  18.306   4.902   9.054
  236POPC   GL2 7154  18.085   4.584   9.022
  236POPC   C1A 7155  18.172   5.160   8.704
  236POPC   D2A 7156  18.051   5.528   8.460
  236POPC   C3A 7157  18.120   5.402   8.064
  236POPC   C4A 7158  18.282   5.178   7.744
  236POPC   C1B 7159  18.120   4.635   8.590
  236POPC   C2B 7160  18.295   4.879   8.283
  236POPC   C3B 7161  18.467   4.764   7.924
  236POPC   C4B 7162  18.210   4.678   7.600
  237POPC   NC3 7163  43.847  41.668   9.728
  237POPC   PO4 7164  43.897  41.044   9.548
  237POPC   GL1 7165  43.801  41.320   9.194
  237POPC   GL2 7166  43.951  41.685   9.203
  237POPC   C1A 7167  44.025  41.365   8.790
  237POPC   D2A 7168  43.944  41.620   8.446
  237POPC   C3A 7169  44.087  41.474   8.037
  237POPC   C4A 7170  43.806  41.258   7.757
  237POPC   C1B 7171  43.604  41.691   8.874
  237POPC   C2B 7172  43.457  41.774   8.436
  237POPC   C3B 7173  43.584  41.655   8.032
  237POPC   C4B 7174  43.580  41.804   7.613
  238POPC   NC3 7175   5.434  36.214   9.371
  238POPC   PO4 7176   5.919  35.788   9.493
  238POPC   GL1 7177   5.887  36.074   9.166
  238POPC   GL2 7178   5.624  35.897   9.006
  238POPC   C1A 7179   5.725  36.409   8.829
  238POPC   D2A 7180   5.639  36.612   8.414
  238POPC   C3A 7181   5.881  36.484   8.040
  238POPC   C4A 7182   5.776  36.388   7.630
  238POPC   C1B 7183   5.933  35.973   8.682
  238POPC   C2B 7184   5.992  36.020   8.271
  238POPC   C3B 7185   5.983  35.968   7.853
  238POPC   C4B 7186   5.963  35.955   7.423
  239POPC   NC3 7187  24.459   5.623   9.318
  239POPC   PO4 7188  24.549   6.283   9.496
  239POPC   GL1 7189  24.618   6.161   9.091
  239POPC   GL2 7190  24.267   6.074   9.120
  239POPC   C1A 7191  24.759   5.903   8.734
  239POPC   D2A 7192  24.668   5.706   8.321
  239POPC   C3A 7193  24.746   5.951   7.967
  239POPC   C4A 7194  24.782   5.767   7.569
  239POPC   C1B 7195  24.210   5.884   8.733
  239POPC   C2B 7196  24.063   5.944   8.337
  239POPC   C3B 7197  24.250   5.837   7.975
  239POPC   C4B 7198  24.284   5.663   7.593
  240POPC   NC3 7199  37.761  18.767   9.508
  240POPC   PO4 7200  37.770  19.447   9.638
  240POPC   GL1 7201  37.673  19.216   9.255
  240POPC   GL2 7202  37.993  19.136   9.255
  240POPC   C1A 7203  37.609  18.927   8.884
  240POPC   D2A 7204  37.359  19.050   8.533
  240POPC   C3A 7205  37.540  19.117   8.156
  240POPC   C4A 7206  37.499  19.084   7.737
  240POPC   C1B 7207  38.120  19.004   8.882
  240POPC   C2B 7208  37.907  18.937   8.471
  240POPC   C3B 7209  38.025  19.006   8.024
  240POPC   C4B 7210  37.963  18.925   7.576
  241POPC   NC3 7211  19.206  29.759   9.557
  241POPC   PO4 7212  18.625  29.414   9.402
  241POPC   GL1 7213  18.915  29.728   9.136
  241POPC   GL2 7214  19.315  29.771   9.074
  241POPC   C1A 7215  18.963  30.018   8.792
  241POPC   D2A 7216  18.736  30.233   8.457
  241POPC   C3A 7217  18.873  30.072   8.032
  241POPC   C4A 7218  18.822  29.908   7.604
  241POPC   C1B 7219  19.254  29.559   8.706
  241POPC   C2B 7220  19.307  29.579   8.282
  241POPC   C3B 7221  19.026  29.539   7.950
  241POPC   C4B 7222  19.166  29.540   7.551
  242POPC   NC3 7223  25.222  32.674   9.511
  242POPC   PO4 7224  24.816  33.177   9.680
  242POPC   GL1 7225  25.031  33.076   9.253
  242POPC   GL2 7226  24.983  32.711   9.084
  242POPC   C1A 7227  25.331  33.102   8.920
  242POPC   D2A 7228  25.397  33.212   8.500
  242POPC   C3A 7229  25.584  33.042   8.141
  242POPC   C4A 7230  25.256  33.069   7.831
  242POPC   C1B 7231  25.051  32.764   8.669
  242POPC   C2B 7232  25.143  32.814   8.270
  242POPC   C3B 7233  25.016  32.608   7.929
  242POPC   C4B 7234  24.992  32.720   7.540
  243POPC   NC3 7235  41.102  30.163   9.467
  243POPC   PO4 7236  41.147  29.487   9.405
  243POPC   GL1 7237  40.932  29.611   9.086
  243POPC   GL2 7238  40.742  29.887   9.188
  243POPC   C1A 7239  40.952  29.798   8.718
  243POPC   D2A 7240  41.042  29.595   8.356
  243POPC   C3A 7241  40.735  29.737   8.088
  243POPC   C4A 7242  40.765  29.523   7.725
  243POPC   C1B 7243  40.602  30.162   8.822
  243POPC   C2B 7244  40.641  30.250   8.391
  243POPC   C3B 7245  40.524  30.212   7.976
  243POPC   C4B 7246  40.694  30.013   7.623
  244POPC   NC3 7247  21.396   6.328   9.501
  244POPC   PO4 7248  21.568   7.000   9.539
  244POPC   GL1 7249  21.409   6.764   9.176
  244POPC   GL2 7250  21.484   6.413   9.025
  244POPC   C1A 7251  21.106   6.695   8.873
  244POPC   D2A 7252  21.334   6.482   8.535
  244POPC   C3A 7253  21.497   6.764   8.217
  244POPC   C4A 7254  21.508   6.737   7.750
  244POPC   C1B 7255  21.766   6.234   8.729
  244POPC   C2B 7256  21.832   6.372   8.298
  244POPC   C3B 7257  21.546   6.284   7.953
  244POPC   C4B 7258  21.600   6.256   7.479
  245POPC   NC3 7259  39.646  20.661   9.457
  245POPC   PO4 7260  39.077  21.013   9.327
  245POPC   GL1 7261  39.381  20.893   9.072
  245POPC   GL2 7262  39.380  20.532   9.032
  245POPC   C1A 7263  39.247  20.868   8.657
  245POPC   D2A 7264  39.296  21.075   8.272
  245POPC   C3A 7265  39.176  20.744   8.020
  245POPC   C4A 7266  39.223  20.640   7.634
  245POPC   C1B 7267  39.503  20.235   8.731
  245POPC   C2B 7268  39.312  20.031   8.442
  245POPC   C3B 7269  39.234  20.142   8.067
  245POPC   C4B 7270  38.962  20.220   7.757
  246POPC   NC3 7271   8.931  34.314   9.502
  246POPC   PO4 7272   8.919  34.957   9.324
  246POPC   GL1 7273   8.816  34.802   8.943
  246POPC   GL2 7274   8.690  34.492   9.089
  246POPC   C1A 7275   9.051  34.822   8.544
  246POPC   D2A 7276   9.236  35.016   8.182
  246POPC   C3A 7277   9.288  34.681   7.924
  246POPC   C4A 7278   8.899  34.668   7.768
  246POPC   C1B 7279   8.879  34.368   8.683
  246POPC   C2B 7280   8.967  34.371   8.240
  246POPC   C3B 7281   8.777  34.206   7.862
  246POPC   C4B 7282   8.846  34.313   7.392
  247POPC   NC3 7283  16.241  28.674   9.512
  247POPC   PO4 7284  15.744  28.158   9.476
  247POPC   GL1 7285  15.981  28.343   9.168
  247POPC   GL2 7286  16.292  28.159   9.229
  247POPC   C1A 7287  15.917  28.536   8.743
  247POPC   D2A 7288  15.692  28.504   8.326
  247POPC   C3A 7289  15.927  28.707   7.947
  247POPC   C4A 7290  15.819  28.727   7.486
  247POPC   C1B 7291  16.290  28.183   8.777
  247POPC   C2B 7292  16.177  28.331   8.347
  247POPC   C3B 7293  15.947  28.186   7.986
  247POPC   C4B 7294  16.115  28.328   7.594
  248POPC   NC3 7295   4.252  23.538   9.492
  248POPC   PO4 7296   4.545  24.111   9.407
  248POPC   GL1 7297   4.580  23.901   9.022
  248POPC   GL2 7298   4.365  23.632   9.017
  248POPC   C1A 7299   4.525  23.843   8.585
  248POPC   D2A 7300   4.376  24.031   8.252
  248POPC   C3A 7301   4.491  23.898   7.883
  248POPC   C4A 7302   4.808  24.083   7.707
  248POPC   C1B 7303   4.073  23.595   8.684
  248POPC   C2B 7304   4.186  23.557   8.267
  248POPC   C3B 7305   3.940  23.550   7.927
  248POPC   C4B 7306   3.935  23.625   7.508
  249POPC   NC3 7307  31.107  24.143   9.432
  249POPC   PO4 7308  31.457  23.505   9.472
  249POPC   GL1 7309  31.515  23.604   9.094
  249POPC   GL2 7310  31.608  23.944   9.183
  249POPC   C1A 7311  31.425  23.432   8.737
  249POPC   D2A 7312  31.189  23.411   8.405
  249POPC   C3A 7313  31.405  23.516   8.050
  249POPC   C4A 7314  31.333  23.446   7.647
  249POPC   C1B 7315  31.324  23.965   8.831
  249POPC   C2B 7316  31.175  24.041   8.471
  249POPC   C3B 7317  31.358  24.088   8.090
  249POPC   C4B 7318  31.376  23.934   7.725
  250POPC   NC3 7319   2.468  29.880   9.438
  250POPC   PO4 7320   3.130  29.970   9.511
  250POPC   GL1 7321   2.851  30.105   9.108
  250POPC   GL2 7322   2.565  29.965   8.972
  250POPC   C1A 7323   2.852  30.222   8.651
  250POPC   D2A 7324   3.034  30.036   8.289
  250POPC   C3A 7325   2.815  29.972   7.906
  250POPC   C4A 7326   2.896  30.017   7.471
  250POPC   C1B 7327   2.515  29.757   8.599
  250POPC   C2B 7328   2.441  29.796   8.204
  250POPC   C3B 7329   2.567  29.529   7.880
  250POPC   C4B 7330   2.640  29.597   7.481
  251POPC   NC3 7331  13.183  20.502   9.339
  251POPC   PO4 7332  13.830  20.546   9.541
  251POPC   GL1 7333  13.898  20.667   9.154
  251POPC   GL2 7334  13.584  20.713   9.016
  251POPC   C1A 7335  14.006  20.545   8.765
  251POPC   D2A 7336  13.867  20.752   8.403
  251POPC   C3A 7337  13.677  20.570   8.051
  251POPC   C4A 7338  13.921  20.333   7.762
  251POPC   C1B 7339  13.420  20.631   8.604
  251POPC   C2B 7340  13.181  20.745   8.252
  251POPC   C3B 7341  13.310  20.850   7.821
  251POPC   C4B 7342  13.667  20.689   7.498
  252POPC   NC3 7343  30.377  11.538   9.453
  252POPC   PO4 7344  29.887  11.064   9.525
  252POPC   GL1 7345  30.068  11.245   9.169
  252POPC   GL2 7346  29.930  11.598   9.176
  252POPC   C1A 7347  30.217  11.065   8.784
  252POPC   D2A 7348  30.183  11.196   8.351
  252POPC   C3A 7349  29.844  11.112   8.055
  252POPC   C4A 7350  30.050  11.189   7.675
  252POPC   C1B 7351  30.011  11.542   8.725
  252POPC   C2B 7352  29.835  11.652   8.293
  252POPC   C3B 7353  29.858  11.628   7.823
  252POPC   C4B 7354  29.641  11.414   7.459
  253POPC   NC3 7355   9.391  21.277   9.399
  253POPC   PO4 7356   8.683  21.376   9.506
  253POPC   GL1 7357   8.771  21.448   9.103
  253POPC   GL2 7358   8.673  21.800   9.016
  253POPC   C1A 7359   9.091  21.433   8.789
  253POPC   D2A 7360   9.267  21.207   8.419
  253POPC   C3A 7361   9.150  21.427   8.070
  253POPC   C4A 7362   9.243  21.494   7.668
  253POPC   C1B 7363   8.517  21.531   8.688
  253POPC   C2B 7364   8.755  21.300   8.406
  253POPC   C3B 7365   8.718  21.188   7.979
  253POPC   C4B 7366   8.749  21.452   7.566
  254POPC   NC3 7367   8.451  31.096   9.433
  254POPC   PO4 7368   7.889  31.444   9.488
  254POPC   GL1 7369   8.020  31.615   9.109
  254POPC   GL2 7370   8.386  31.564   9.099
  254POPC   C1A 7371   7.787  31.710   8.724
  254POPC   D2A 7372   7.772  31.888   8.298
  254POPC   C3A 7373   7.995  31.586   8.041
  254POPC   C4A 7374   7.890  31.430   7.644
  254POPC   C1B 7375   8.464  31.350   8.719
  254POPC   C2B 7376   8.358  31.264   8.273
  254POPC   C3B 7377   8.481  31.472   7.881
  254POPC   C4B 7378   8.421  31.348   7.409
  255POPC   NC3 7379  14.847  33.173   9.368
  255POPC   PO4 7380  14.308  32.764   9.588
  255POPC   GL1 7381  14.375  32.967   9.247
  255POPC   GL2 7382  14.630  32.709   9.175
  255POPC   C1A 7383  14.215  33.158   8.893
  255POPC   D2A 7384  14.352  33.247   8.499
  255POPC   C3A 7385  14.208  33.084   8.119
  255POPC   C4A 7386  14.500  33.164   7.793
  255POPC   C1B 7387  14.292  32.612   8.893
  255POPC   C2B 7388  14.301  32.708   8.475
  255POPC   C3B 7389  14.288  32.550   8.071
  255POPC   C4B 7390  14.183  32.749   7.709
  256POPC   NC3 7391  15.718   3.184   9.481
  256POPC   PO4 7392  16.062   2.675   9.617
  256POPC   GL1 7393  16.183   2.747   9.189
  256POPC   GL2 7394  16.152   3.071   9.071
  256POPC   C1A 7395  16.040   2.671   8.752
  256POPC   D2A 7396  16.145   2.518   8.352
  256POPC   C3A 7397  15.945   2.607   7.966
  256POPC   C4A 7398  16.130   2.507   7.588
  256POPC   C1B 7399  15.766   3.086   8.804
  256POPC   C2B 7400  15.740   2.888   8.382
  256POPC   C3B 7401  15.647   3.019   7.962
  256POPC   C4B 7402  15.765   2.892   7.528
  257POPC   NC3 7403  42.190  27.833   9.440
  257POPC   PO4 7404  42.642  27.386   9.518
  257POPC   GL1 7405  42.531  27.587   9.126
  257POPC   GL2 7406  42.156  27.556   9.020
  257POPC   C1A 7407  42.509  27.701   8.686
  257POPC   D2A 7408  42.306  27.501   8.335
  257POPC   C3A 7409  42.517  27.540   7.935
  257POPC   C4A 7410  42.682  27.206   7.673
  257POPC   C1B 7411  42.064  27.958   8.787
  257POPC   C2B 7412  42.167  28.002   8.348
  257POPC   C3B 7413  42.018  27.769   7.983
  257POPC   C4B 7414  42.134  27.748   7.569
  258POPC   NC3 7415  23.278   2.429   9.346
  258POPC   PO4 7416  23.104   2.992   9.629
  258POPC   GL1 7417  23.012   2.871   9.204
  258POPC   GL2 7418  22.761   2.663   9.008
  258POPC   C1A 7419  23.097   2.993   8.784
  258POPC   D2A 7420  23.243   2.881   8.337
  258POPC   C3A 7421  22.891   2.693   8.146
  258POPC   C4A 7422  22.616   2.671   7.803
  258POPC   C1B 7423  23.098   2.466   8.715
  258POPC   C2B 7424  23.178   2.249   8.323
  258POPC   C3B 7425  23.300   2.446   7.957
  258POPC   C4B 7426  23.171   2.828   7.722
  259POPC   NC3 7427   3.312  36.856   9.331
  259POPC   PO4 7428   3.827  36.646   9.679
  259POPC   GL1 7429   3.617  36.497   9.192
  259POPC   GL2 7430   3.621  36.749   8.937
  259POPC   C1A 7431   3.747  36.276   8.781
  259POPC   D2A 7432   3.811  36.380   8.356
  259POPC   C3A 7433   3.623  36.764   8.179
  259POPC   C4A 7434   3.367  36.867   7.802
  259POPC   C1B 7435   3.888  37.022   8.694
  259POPC   C2B 7436   3.953  37.163   8.282
  259POPC   C3B 7437   3.610  37.251   8.007
  259POPC   C4B 7438   3.514  37.310   7.604
  260POPC   NC3 7439  40.861  18.673   9.527
  260POPC   PO4 7440  40.839  19.280   9.779
  260POPC   GL1 7441  40.792  19.062   9.205
  260POPC   GL2 7442  40.686  18.710   9.058
  260POPC   C1A 7443  40.994  19.023   8.755
  260POPC   D2A 7444  40.898  19.077   8.319
  260POPC   C3A 7445  41.138  19.198   7.936
  260POPC   C4A 7446  40.991  18.935   7.597
  260POPC   C1B 7447  40.489  18.894   8.704
  260POPC   C2B 7448  40.433  18.812   8.270
  260POPC   C3B 7449  40.607  18.992   7.897
  260POPC   C4B 7450  40.529  19.069   7.399
  261POPC   NC3 7451   6.974  30.303   9.958
  261POPC   PO4 7452   6.498  30.644   9.697
  261POPC   GL1 7453   6.535  30.658   9.247
  261POPC   GL2 7454   6.852  30.603   9.200
  261POPC   C1A 7455   6.446  30.703   8.816
  261POPC   D2A 7456   6.577  30.555   8.416
  261POPC   C3A 7457   6.640  30.913   8.143
  261POPC   C4A 7458   6.398  31.022   7.765
  261POPC   C1B 7459   6.790  30.339   8.840
  261POPC   C2B 7460   6.965  30.152   8.452
  261POPC   C3B 7461   6.820  30.269   8.051
  261POPC   C4B 7462   6.757  30.603   7.747
  262POPC   NC3 7463   4.292   5.595   9.456
  262POPC   PO4 7464   4.073   6.239   9.377
  262POPC   GL1 7465   4.024   5.880   9.102
  262POPC   GL2 7466   4.354   5.886   9.050
  262POPC   C1A 7467   4.018   5.718   8.650
  262POPC   D2A 7468   4.083   5.774   8.213
  262POPC   C3A 7469   3.977   5.642   7.811
  262POPC   C4A 7470   4.096   5.999   7.550
  262POPC   C1B 7471   4.521   5.754   8.685
  262POPC   C2B 7472   4.588   5.865   8.254
  262POPC   C3B 7473   4.479   5.698   7.831
  262POPC   C4B 7474   4.396   5.657   7.373
  263POPC   NC3 7475   9.034  29.295   9.393
  263POPC   PO4 7476   8.577  28.787   9.329
  263POPC   GL1 7477   8.901  28.921   9.073
  263POPC   GL2 7478   8.809  29.269   8.951
  263POPC   C1A 7479   9.243  29.096   8.812
  263POPC   D2A 7480   9.345  29.050   8.419
  263POPC   C3A 7481   9.049  29.161   8.155
  263POPC   C4A 7482   8.843  29.123   7.767
  263POPC   C1B 7483   8.770  28.983   8.600
  263POPC   C2B 7484   8.562  29.005   8.227
  263POPC   C3B 7485   8.584  28.694   7.915
  263POPC   C4B 7486   8.498  28.864   7.490
  264POPC   NC3 7487  26.826  11.650   9.348
  264POPC   PO4 7488  26.665  12.164   9.811
  264POPC   GL1 7489  26.806  12.153   9.352
  264POPC   GL2 7490  27.161  12.026   9.266
  264POPC   C1A 7491  26.715  12.085   8.854
  264POPC   D2A 7492  26.867  11.808   8.513
  264POPC   C3A 7493  26.792  11.994   8.115
  264POPC   C4A 7494  26.578  12.084   7.767
  264POPC   C1B 7495  27.208  12.118   8.821
  264POPC   C2B 7496  27.207  12.179   8.384
  264POPC   C3B 7497  27.293  12.010   8.022
  264POPC   C4B 7498  27.075  12.035   7.636
  265POPC   NC3 7499  39.455  33.731   9.500
  265POPC   PO4 7500  39.001  34.273   9.316
  265POPC   GL1 7501  39.201  33.955   9.118
  265POPC   GL2 7502  39.559  34.004   9.097
  265POPC   C1A 7503  39.113  33.852   8.735
  265POPC   D2A 7504  39.163  33.689   8.358
  265POPC   C3A 7505  39.012  33.943   8.003
  265POPC   C4A 7506  39.097  33.837   7.615
  265POPC   C1B 7507  39.596  33.728   8.753
  265POPC   C2B 7508  39.669  33.885   8.368
  265POPC   C3B 7509  39.498  33.783   7.992
  265POPC   C4B 7510  39.598  33.797   7.582
  266POPC   NC3 7511   2.791  22.017   9.642
  266POPC   PO4 7512   2.718  22.718   9.395
  266POPC   GL1 7513   2.698  22.314   9.214
  266POPC   GL2 7514   2.978  22.077   9.182
  266POPC   C1A 7515   2.598  22.099   8.838
  266POPC   D2A 7516   2.589  21.968   8.431
  266POPC   C3A 7517   2.459  22.160   8.070
  266POPC   C4A 7518   2.695  22.145   7.673
  266POPC   C1B 7519   3.090  21.879   8.815
  266POPC   C2B 7520   3.207  21.974   8.418
  266POPC   C3B 7521   3.001  21.962   8.036
  266POPC   C4B 7522   3.244  21.907   7.657
  267POPC   NC3 7523  34.505   2.213   9.434
  267POPC   PO4 7524  35.051   1.782   9.511
  267POPC   GL1 7525  34.731   1.820   9.169
  267POPC   GL2 7526  34.676   2.165   8.953
  267POPC   C1A 7527  34.646   1.709   8.741
  267POPC   D2A 7528  34.842   1.998   8.450
  267POPC   C3A 7529  34.704   2.072   8.056
  267POPC   C4A 7530  34.818   2.064   7.635
  267POPC   C1B 7531  34.356   2.079   8.589
  267POPC   C2B 7532  34.316   1.739   8.289
  267POPC   C3B 7533  34.326   1.820   7.845
  267POPC   C4B 7534  34.326   2.233   7.700
  268POPC   NC3 7535  22.707   9.963   9.705
  268POPC   PO4 7536  23.037   9.423   9.547
  268POPC   GL1 7537  22.850   9.581   9.186
  268POPC   GL2 7538  23.170   9.706   9.063
  268POPC   C1A 7539  22.794   9.606   8.735
  268POPC   D2A 7540  22.626   9.356   8.388
  268POPC   C3A 7541  22.630   9.630   8.064
  268POPC   C4A 7542  22.994   9.810   7.930
  268POPC   C1B 7543  23.234   9.362   8.738
  268POPC   C2B 7544  23.146   9.430   8.290
  268POPC   C3B 7545  23.297   9.384   7.856
  268POPC   C4B 7546  23.350   9.530   7.400
  269POPC   NC3 7547   7.578   6.850   9.465
  269POPC   PO4 7548   7.064   6.352   9.505
  269POPC   GL1 7549   7.432   6.402   9.161
  269POPC   GL2 7550   7.462   6.748   8.998
  269POPC   C1A 7551   7.502   6.402   8.667
  269POPC   D2A 7552   7.613   6.700   8.374
  269POPC   C3A 7553   7.623   6.492   8.010
  269POPC   C4A 7554   7.441   6.537   7.604
  269POPC   C1B 7555   7.177   6.808   8.664
  269POPC   C2B 7556   7.031   6.915   8.300
  269POPC   C3B 7557   7.256   6.836   7.985
  269POPC   C4B 7558   7.630   7.040   7.906
  270POPC   NC3 7559  42.063   2.528   9.400
  270POPC   PO4 7560  42.168   3.106   9.718
  270POPC   GL1 7561  42.435   2.970   9.318
  270POPC   GL2 7562  42.765   3.138   9.173
  270POPC   C1A 7563  42.483   2.795   8.889
  270POPC   D2A 7564  42.170   2.703   8.578
  270POPC   C3A 7565  42.276   2.542   8.182
  270POPC   C4A 7566  42.131   2.521   7.755
  270POPC   C1B 7567  42.608   3.289   8.734
  270POPC   C2B 7568  42.322   3.159   8.375
  270POPC   C3B 7569  42.292   3.004   7.938
  270POPC   C4B 7570  42.596   2.699   7.799
  271POPC   NC3 7571   9.871  14.349   9.518
  271POPC   PO4 7572   9.386  14.699   9.443
  271POPC   GL1 7573   9.590  14.418   9.087
  271POPC   GL2 7574   9.934  14.545   9.055
  271POPC   C1A 7575   9.520  14.119   8.702
  271POPC   D2A 7576   9.275  14.073   8.300
  271POPC   C3A 7577   9.446  14.256   7.887
  271POPC   C4A 7578   9.349  14.478   7.485
  271POPC   C1B 7579  10.007  14.225   8.770
  271POPC   C2B 7580  10.169  14.294   8.362
  271POPC   C3B 7581   9.968  14.396   7.954
  271POPC   C4B 7582   9.772  14.725   7.703
  272POPC   NC3 7583  12.259  26.608   9.436
  272POPC   PO4 7584  11.811  26.942   9.595
  272POPC   GL1 7585  11.853  26.730   9.144
  272POPC   GL2 7586  12.071  26.956   8.974
  272POPC   C1A 7587  12.138  26.464   8.813
  272POPC   D2A 7588  12.241  26.398   8.357
  272POPC   C3A 7589  12.289  26.709   8.013
  272POPC   C4A 7590  11.978  26.616   7.688
  272POPC   C1B 7591  11.846  26.815   8.606
  272POPC   C2B 7592  11.827  26.828   8.175
  272POPC   C3B 7593  11.990  27.097   7.851
  272POPC   C4B 7594  11.823  27.148   7.474
  273POPC   NC3 7595  36.916  32.938   9.663
  273POPC   PO4 7596  37.413  33.109   9.348
  273POPC   GL1 7597  36.959  33.113   9.181
  273POPC   GL2 7598  36.757  32.787   9.168
  273POPC   C1A 7599  36.747  33.177   8.783
  273POPC   D2A 7600  36.556  33.049   8.381
  273POPC   C3A 7601  36.780  33.195   8.001
  273POPC   C4A 7602  37.107  33.048   7.680
  273POPC   C1B 7603  36.664  32.688   8.743
  273POPC   C2B 7604  36.985  32.775   8.385
  273POPC   C3B 7605  36.849  32.698   7.951
  273POPC   C4B 7606  36.652  32.857   7.567
  274POPC   NC3 7607  37.451  31.096   9.451
  274POPC   PO4 7608  38.039  31.367   9.666
  274POPC   GL1 7609  37.878  31.307   9.218
  274POPC   GL2 7610  37.569  31.162   8.979
  274POPC   C1A 7611  37.833  31.568   8.854
  274POPC   D2A 7612  37.650  31.735   8.470
  274POPC   C3A 7613  37.708  31.486   8.091
  274POPC   C4A 7614  37.871  31.397   7.660
  274POPC   C1B 7615  37.323  31.379   8.698
  274POPC   C2B 7616  37.103  31.388   8.300
  274POPC   C3B 7617  37.249  31.396   7.858
  274POPC   C4B 7618  37.225  31.365   7.394
  275POPC   NC3 7619  42.859   7.585   9.367
  275POPC   PO4 7620  42.198   7.223   9.521
  275POPC   GL1 7621  42.314   7.493   9.210
  275POPC   GL2 7622  42.456   7.224   9.033
  275POPC   C1A 7623  42.073   7.595   8.844
  275POPC   D2A 7624  42.136   7.402   8.466
  275POPC   C3A 7625  42.109   7.566   8.062
  275POPC   C4A 7626  42.429   7.447   7.773
  275POPC   C1B 7627  42.587   7.513   8.737
  275POPC   C2B 7628  42.570   7.670   8.320
  275POPC   C3B 7629  42.812   7.715   7.977
  275POPC   C4B 7630  42.931   7.436   7.636
  276POPC   NC3 7631  18.061  26.675   9.535
  276POPC   PO4 7632  18.685  26.924   9.470
  276POPC   GL1 7633  18.416  26.745   9.160
  276POPC   GL2 7634  18.132  26.984   9.152
  276POPC   C1A 7635  18.286  26.590   8.760
  276POPC   D2A 7636  18.208  26.754   8.346
  276POPC   C3A 7637  18.295  26.534   7.950
  276POPC   C4A 7638  18.257  26.521   7.468
  276POPC   C1B 7639  18.148  27.079   8.754
  276POPC   C2B 7640  18.311  27.263   8.415
  276POPC   C3B 7641  18.182  27.168   8.021
  276POPC   C4B 7642  18.424  27.193   7.662
  277POPC   NC3 7643  15.030  39.043   9.588
  277POPC   PO4 7644  15.618  39.250   9.617
  277POPC   GL1 7645  15.355  39.068   9.197
  277POPC   GL2 7646  15.008  38.853   9.118
  277POPC   C1A 7647  15.356  39.100   8.725
  277POPC   D2A 7648  15.437  39.328   8.327
  277POPC   C3A 7649  15.410  39.159   7.919
  277POPC   C4A 7650  15.431  39.361   7.508
  277POPC   C1B 7651  14.863  39.031   8.704
  277POPC   C2B 7652  15.038  38.932   8.312
  277POPC   C3B 7653  14.892  38.953   7.912
  277POPC   C4B 7654  14.886  39.242   7.596
  278POPC   NC3 7655  37.286   6.900   9.377
  278POPC   PO4 7656  36.718   6.567   9.453
  278POPC   GL1 7657  36.698   6.861   9.119
  278POPC   GL2 7658  36.990   6.790   8.969
  278POPC   C1A 7659  36.626   7.033   8.702
  278POPC   D2A 7660  36.925   7.060   8.375
  278POPC   C3A 7661  36.951   6.793   8.023
  278POPC   C4A 7662  36.787   6.716   7.633
  278POPC   C1B 7663  37.165   6.530   8.666
  278POPC   C2B 7664  37.141   6.344   8.250
  278POPC   C3B 7665  37.118   6.328   7.796
  278POPC   C4B 7666  36.980   6.309   7.333
  279POPC   NC3 7667  37.945  24.410   9.511
  279POPC   PO4 7668  37.364  24.567   9.882
  279POPC   GL1 7669  37.495  24.640   9.360
  279POPC   GL2 7670  37.847  24.797   9.234
  279POPC   C1A 7671  37.659  24.421   8.911
  279POPC   D2A 7672  37.689  24.136   8.502
  279POPC   C3A 7673  37.741  24.316   8.044
  279POPC   C4A 7674  37.524  24.435   7.635
  279POPC   C1B 7675  37.977  24.801   8.806
  279POPC   C2B 7676  37.705  24.645   8.446
  279POPC   C3B 7677  37.523  24.785   8.053
  279POPC   C4B 7678  37.701  24.927   7.665
  280POPC   NC3 7679  43.365  32.291   9.522
  280POPC   PO4 7680  42.779  32.071   9.486
  280POPC   GL1 7681  42.975  32.311   9.153
  280POPC   GL2 7682  43.298  32.509   9.073
  280POPC   C1A 7683  42.829  32.186   8.751
  280POPC   D2A 7684  43.069  32.210   8.383
  280POPC   C3A 7685  42.861  32.165   8.010
  280POPC   C4A 7686  43.012  32.080   7.629
  280POPC   C1B 7687  43.432  32.460   8.669
  280POPC   C2B 7688  43.460  32.576   8.258
  280POPC   C3B 7689  43.392  32.300   7.968
  280POPC   C4B 7690  43.371  32.502   7.644
  281POPC   NC3 7691  24.913  27.082   9.572
  281POPC   PO4 7692  25.557  26.893   9.391
  281POPC   GL1 7693  25.175  26.818   9.178
  281POPC   GL2 7694  25.025  27.124   9.036
  281POPC   C1A 7695  24.981  26.649   8.808
  281POPC   D2A 7696  24.977  26.539   8.360
  281POPC   C3A 7697  25.132  26.781   8.082
  281POPC   C4A 7698  25.400  26.760   7.757
  281POPC   C1B 7699  25.291  27.024   8.624
  281POPC   C2B 7700  25.535  27.126   8.222
  281POPC   C3B 7701  25.482  27.243   7.780
  281POPC   C4B 7702  25.169  27.130   7.403
  282POPC   NC3 7703  27.525   6.343   9.444
  282POPC   PO4 7704  27.785   6.900   9.394
  282POPC   GL1 7705  27.583   6.712   9.044
  282POPC   GL2 7706  27.861   6.488   9.059
  282POPC   C1A 7707  27.305   6.826   8.672
  282POPC   D2A 7708  27.199   7.093   8.307
  282POPC   C3A 7709  27.274   6.879   7.905
  282POPC   C4A 7710  27.416   6.477   7.757
  282POPC   C1B 7711  27.779   6.472   8.620
  282POPC   C2B 7712  27.739   6.522   8.172
  282POPC   C3B 7713  27.873   6.290   7.790
  282POPC   C4B 7714  27.925   6.655   7.542
  283POPC   NC3 7715   1.774  24.194   9.471
  283POPC   PO4 7716   2.364  24.289   9.594
  283POPC   GL1 7717   2.134  24.447   9.148
  283POPC   GL2 7718   1.744  24.372   9.008
  283POPC   C1A 7719   2.077  24.416   8.658
  283POPC   D2A 7720   1.900  24.287   8.268
  283POPC   C3A 7721   1.853  24.552   7.904
  283POPC   C4A 7722   2.149  24.553   7.502
  283POPC   C1B 7723   1.689  24.747   8.716
  283POPC   C2B 7724   1.551  24.730   8.296
  283POPC   C3B 7725   1.534  24.983   7.910
  283POPC   C4B 7726   1.498  24.716   7.569
  284POPC   NC3 7727  22.417  21.115   9.502
  284POPC   PO4 7728  22.780  20.434   9.577
  284POPC   GL1 7729  22.762  20.623   9.179
  284POPC   GL2 7730  22.430  20.820   9.095
  284POPC   C1A 7731  23.014  20.575   8.818
  284POPC   D2A 7732  22.945  20.325   8.472
  284POPC   C3A 7733  23.013  20.474   8.057
  284POPC   C4A 7734  23.176  20.635   7.696
  284POPC   C1B 7735  22.640  20.903   8.717
  284POPC   C2B 7736  22.687  20.741   8.340
  284POPC   C3B 7737  22.680  20.889   7.945
  284POPC   C4B 7738  22.754  20.988   7.531
  285POPC   NC3 7739  14.989  29.447   9.494
  285POPC   PO4 7740  15.644  29.129   9.517
  285POPC   GL1 7741  15.387  29.236   9.198
  285POPC   GL2 7742  15.384  28.889   9.136
  285POPC   C1A 7743  15.203  29.231   8.787
  285POPC   D2A 7744  15.353  29.399   8.386
  285POPC   C3A 7745  15.156  29.225   8.036
  285POPC   C4A 7746  14.938  29.342   7.722
  285POPC   C1B 7747  15.458  28.762   8.745
  285POPC   C2B 7748  15.262  28.885   8.397
  285POPC   C3B 7749  15.426  28.796   8.003
  285POPC   C4B 7750  15.456  29.018   7.664
  286POPC   NC3 7751  23.214  14.369   9.846
  286POPC   PO4 7752  22.714  14.616   9.460
  286POPC   GL1 7753  22.794  14.384   9.032
  286POPC   GL2 7754  23.138  14.259   8.934
  286POPC   C1A 7755  22.845  14.606   8.655
  286POPC   D2A 7756  22.669  14.493   8.257
  286POPC   C3A 7757  22.978  14.353   8.000
  286POPC   C4A 7758  23.174  14.596   7.685
  286POPC   C1B 7759  22.870  14.093   8.595
  286POPC   C2B 7760  22.506  13.973   8.349
  286POPC   C3B 7761  22.545  14.026   7.921
  286POPC   C4B 7762  22.918  13.982   7.657
  287POPC   NC3 7763  23.454  30.405   9.999
  287POPC   PO4 7764  22.978  30.573   9.519
  287POPC   GL1 7765  23.055  30.735   9.112
  287POPC   GL2 7766  23.060  30.380   9.054
  287POPC   C1A 7767  23.075  30.950   8.695
  287POPC   D2A 7768  22.793  30.993   8.328
  287POPC   C3A 7769  22.963  31.048   7.911
  287POPC   C4A 7770  22.814  30.866   7.527
  287POPC   C1B 7771  22.898  30.492   8.693
  287POPC   C2B 7772  22.762  30.480   8.315
  287POPC   C3B 7773  22.980  30.525   7.924
  287POPC   C4B 7774  22.905  30.364   7.520
  288POPC   NC3 7775  30.088   6.787   9.496
  288POPC   PO4 7776  30.306   6.337   9.085
  288POPC   GL1 7777  30.059   6.741   8.998
  288POPC   GL2 7778  29.775   6.610   9.122
  288POPC   C1A 7779  29.867   6.982   8.671
  288POPC   D2A 7780  30.044   6.837   8.300
  288POPC   C3A 7781  30.193   7.063   7.961
  288POPC   C4A 7782  30.193   6.814   7.592
  288POPC   C1B 7783  29.706   6.504   8.680
  288POPC   C2B 7784  29.547   6.747   8.309
  288POPC   C3B 7785  29.724   6.684   7.887
  288POPC   C4B 7786  29.938   6.340   7.651
  289POPC   NC3 7787   5.030  14.916   9.450
  289POPC   PO4 7788   4.692  14.385   9.633
  289POPC   GL1 7789   4.934  14.432   9.227
  289POPC   GL2 7790   5.279  14.322   9.204
  289POPC   C1A 7791   4.858  14.276   8.801
  289POPC   D2A 7792   4.771  14.392   8.396
  289POPC   C3A 7793   4.816  14.267   7.986
  289POPC   C4A 7794   5.100  14.361   7.635
  289POPC   C1B 7795   5.229  14.622   8.835
  289POPC   C2B 7796   5.142  14.742   8.394
  289POPC   C3B 7797   5.259  14.664   7.985
  289POPC   C4B 7798   5.546  14.619   7.582
  290POPC   NC3 7799  29.874   1.172   9.668
  290POPC   PO4 7800  30.048   1.751   9.558
  290POPC   GL1 7801  29.995   1.372   9.211
  290POPC   GL2 7802  29.710   1.113   9.188
  290POPC   C1A 7803  30.057   1.110   8.807
  290POPC   D2A 7804  29.907   0.972   8.366
  290POPC   C3A 7805  30.007   1.212   7.982
  290POPC   C4A 7806  30.085   1.298   7.510
  290POPC   C1B 7807  29.569   0.942   8.782
  290POPC   C2B 7808  29.404   1.062   8.383
  290POPC   C3B 7809  29.425   0.900   7.983
  290POPC   C4B 7810  29.707   0.949   7.671
  291POPC   NC3 7811  16.429  23.824   9.514
  291POPC   PO4 7812  15.749  23.607   9.490
  291POPC   GL1 7813  16.035  23.724   9.180
  291POPC   GL2 7814  16.320  23.494   9.168
  291POPC   C1A 7815  15.925  23.710   8.763
  291POPC   D2A 7816  15.747  24.014   8.491
  291POPC   C3A 7817  15.763  23.991   8.045
  291POPC   C4A 7818  15.615  23.937   7.630
  291POPC   C1B 7819  16.452  23.772   8.846
  291POPC   C2B 7820  16.325  23.787   8.422
  291POPC   C3B 7821  16.114  23.616   8.072
  291POPC   C4B 7822  16.078  23.734   7.663
  292POPC   NC3 7823  32.838  35.739   9.605
  292POPC   PO4 7824  32.753  35.110   9.638
  292POPC   GL1 7825  32.942  35.317   9.252
  292POPC   GL2 7826  32.689  35.522   9.167
  292POPC   C1A 7827  33.061  35.450   8.818
  292POPC   D2A 7828  32.870  35.333   8.409
  292POPC   C3A 7829  33.119  35.183   8.109
  292POPC   C4A 7830  33.293  35.309   7.725
  292POPC   C1B 7831  32.536  35.335   8.798
  292POPC   C2B 7832  32.450  35.611   8.471
  292POPC   C3B 7833  32.559  35.712   8.096
  292POPC   C4B 7834  32.802  35.465   7.835
  293POPC   NC3 7835   6.543  28.802   9.447
  293POPC   PO4 7836   6.827  29.427   9.348
  293POPC   GL1 7837   6.769  29.114   9.079
  293POPC   GL2 7838   6.412  29.163   9.080
  293POPC   C1A 7839   6.751  29.281   8.675
  293POPC   D2A 7840   6.664  29.137   8.253
  293POPC   C3A 7841   6.889  29.352   7.924
  293POPC   C4A 7842   6.928  29.528   7.496
  293POPC   C1B 7843   6.308  29.033   8.635
  293POPC   C2B 7844   6.290  28.791   8.233
  293POPC   C3B 7845   6.403  28.975   7.826
  293POPC   C4B 7846   6.464  29.373   7.619
  294POPC   NC3 7847  24.259  20.405   9.570
  294POPC   PO4 7848  24.891  20.164   9.431
  294POPC   GL1 7849  24.565  20.431   9.173
  294POPC   GL2 7850  24.197  20.309   9.084
  294POPC   C1A 7851  24.460  20.643   8.774
  294POPC   D2A 7852  24.467  20.535   8.349
  294POPC   C3A 7853  24.582  20.741   7.968
  294POPC   C4A 7854  24.744  20.590   7.550
  294POPC   C1B 7855  23.961  20.501   8.766
  294POPC   C2B 7856  23.931  20.591   8.333
  294POPC   C3B 7857  24.138  20.417   7.975
  294POPC   C4B 7858  24.231  20.617   7.607
  295POPC   NC3 7859   5.697  37.928   9.417
  295POPC   PO4 7860   5.623  37.250   9.527
  295POPC   GL1 7861   5.657  37.480   9.144
  295POPC   GL2 7862   6.001  37.618   9.173
  295POPC   C1A 7863   5.711  37.680   8.730
  295POPC   D2A 7864   5.722  37.838   8.291
  295POPC   C3A 7865   5.569  37.522   7.967
  295POPC   C4A 7866   5.425  37.549   7.535
  295POPC   C1B 7867   6.186  37.876   8.875
  295POPC   C2B 7868   6.237  37.790   8.458
  295POPC   C3B 7869   6.154  37.875   8.031
  295POPC   C4B 7870   5.929  37.689   7.672
  296POPC   NC3 7871   2.995  41.340   9.600
  296POPC   PO4 7872   2.942  42.123   9.492
  296POPC   GL1 7873   2.822  41.799   9.113
  296POPC   GL2 7874   2.884  41.429   9.110
  296POPC   C1A 7875   2.624  41.599   8.716
  296POPC   D2A 7876   2.406  41.726   8.329
  296POPC   C3A 7877   2.649  41.611   7.978
  296POPC   C4A 7878   2.633  41.532   7.536
  296POPC   C1B 7879   2.998  41.226   8.715
  296POPC   C2B 7880   2.923  41.313   8.277
  296POPC   C3B 7881   2.899  41.136   7.848
  296POPC   C4B 7882   3.002  41.219   7.401
  297POPC   NC3 7883  43.328  20.850   9.586
  297POPC   PO4 7884  42.720  21.073   9.497
  297POPC   GL1 7885  42.970  20.770   9.216
  297POPC   GL2 7886  42.838  20.425   9.246
  297POPC   C1A 7887  43.196  20.557   8.849
  297POPC   D2A 7888  43.059  20.664   8.430
  297POPC   C3A 7889  42.871  20.638   8.029
  297POPC   C4A 7890  43.066  20.833   7.735
  297POPC   C1B 7891  42.712  20.453   8.802
  297POPC   C2B 7892  42.783  20.250   8.415
  297POPC   C3B 7893  43.147  20.228   8.128
  297POPC   C4B 7894  43.087  20.312   7.671
  298POPC   NC3 7895  22.977  36.122   9.589
  298POPC   PO4 7896  23.444  36.341   9.419
  298POPC   GL1 7897  23.095  36.219   9.077
  298POPC   GL2 7898  22.774  36.022   9.134
  298POPC   C1A 7899  22.962  36.381   8.641
  298POPC   D2A 7900  23.136  36.487   8.208
  298POPC   C3A 7901  22.920  36.382   7.808
  298POPC   C4A 7902  22.700  36.442   7.402
  298POPC   C1B 7903  22.880  35.881   8.713
  298POPC   C2B 7904  23.114  35.979   8.332
  298POPC   C3B 7905  23.154  35.906   7.886
  298POPC   C4B 7906  22.962  35.593   7.602
  299POPC   NC3 7907  13.939  40.925   9.471
  299POPC   PO4 7908  13.439  40.494   9.458
  299POPC   GL1 7909  13.558  40.500   9.053
  299POPC   GL2 7910  13.900  40.505   9.129
  299POPC   C1A 7911  13.445  40.772   8.688
  299POPC   D2A 7912  13.668  41.077   8.394
  299POPC   C3A 7913  13.593  41.015   7.955
  299POPC   C4A 7914  13.482  40.576   7.842
  299POPC   C1B 7915  13.963  40.712   8.750
  299POPC   C2B 7916  13.781  40.553   8.371
  299POPC   C3B 7917  13.958  40.697   8.052
  299POPC   C4B 7918  14.061  40.592   7.713
  300POPC   NC3 7919   0.342  27.763   9.455
  300POPC   PO4 7920   0.339  27.098   9.347
  300POPC   GL1 7921   0.445  27.342   9.055
  300POPC   GL2 7922   0.792  27.235   9.052
  300POPC   C1A 7923   0.326  27.482   8.642
  300POPC   D2A 7924   0.012  27.603   8.305
  300POPC   C3A 7925   0.083  27.784   7.919
  300POPC   C4A 7926   0.217  27.543   7.545
  300POPC   C1B 7927   0.770  27.662   8.829
  300POPC   C2B 7928   0.648  27.821   8.442
  300POPC   C3B 7929   0.517  27.599   8.091
  300POPC   C4B 7930   0.702  27.616   7.721
  301POPC   NC3 7931  41.099  32.945   9.691
  301POPC   PO4 7932  40.563  32.736   9.506
  301POPC   GL1 7933  40.616  32.961   9.110
  301POPC   GL2 7934  40.914  33.056   9.218
  301POPC   C1A 7935  40.561  32.961   8.621
  301POPC   D2A 7936  40.472  33.093   8.146
  301POPC   C3A 7937  40.590  32.832   7.752
  301POPC   C4A 7938  40.432  32.962   7.338
  301POPC   C1B 7939  41.061  33.062   8.802
  301POPC   C2B 7940  41.086  32.881   8.393
  301POPC   C3B 7941  40.989  33.077   8.008
  301POPC   C4B 7942  41.213  33.369   7.755
  302POPC   NC3 7943   1.497  31.164   9.496
  302POPC   PO4 7944   1.396  31.810   9.453
  302POPC   GL1 7945   1.407  31.652   9.047
  302POPC   GL2 7946   1.181  31.343   9.010
  302POPC   C1A 7947   1.274  31.741   8.662
  302POPC   D2A 7948   1.049  31.477   8.384
  302POPC   C3A 7949   1.113  31.620   7.993
  302POPC   C4A 7950   1.453  31.526   7.720
  302POPC   C1B 7951   1.497  31.297   8.650
  302POPC   C2B 7952   1.575  31.399   8.216
  302POPC   C3B 7953   1.717  31.109   7.862
  302POPC   C4B 7954   1.578  31.141   7.430
  303POPC   NC3 7955  23.622   5.647   9.556
  303POPC   PO4 7956  23.808   6.223   9.299
  303POPC   GL1 7957  23.758   6.009   9.012
  303POPC   GL2 7958  23.904   5.682   9.105
  303POPC   C1A 7959  23.767   6.219   8.635
  303POPC   D2A 7960  23.989   6.460   8.311
  303POPC   C3A 7961  23.879   6.216   7.943
  303POPC   C4A 7962  23.525   5.955   7.802
  303POPC   C1B 7963  23.733   5.640   8.676
  303POPC   C2B 7964  23.552   5.837   8.327
  303POPC   C3B 7965  23.789   5.616   8.061
  303POPC   C4B 7966  23.794   5.526   7.639
  304POPC   NC3 7967  18.732  40.168   9.785
  304POPC   PO4 7968  18.272  39.719   9.428
  304POPC   GL1 7969  18.165  39.959   9.110
  304POPC   GL2 7970  17.837  40.076   9.162
  304POPC   C1A 7971  18.353  39.996   8.711
  304POPC   D2A 7972  18.288  40.202   8.326
  304POPC   C3A 7973  18.363  39.962   7.957
  304POPC   C4A 7974  18.383  39.936   7.519
  304POPC   C1B 7975  17.916  40.258   8.762
  304POPC   C2B 7976  17.767  40.309   8.353
  304POPC   C3B 7977  17.960  40.300   7.910
  304POPC   C4B 7978  17.968  40.231   7.414
  305POPC   NC3 7979  31.075  20.866   9.494
  305POPC   PO4 7980  30.615  20.328   9.515
  305POPC   GL1 7981  30.832  20.470   9.145
  305POPC   GL2 7982  30.813  20.831   9.070
  305POPC   C1A 7983  30.663  20.468   8.727
  305POPC   D2A 7984  30.604  20.634   8.334
  305POPC   C3A 7985  30.821  20.479   7.986
  305POPC   C4A 7986  30.563  20.380   7.664
  305POPC   C1B 7987  30.836  20.983   8.668
  305POPC   C2B 7988  30.665  21.137   8.272
  305POPC   C3B 7989  30.559  20.888   7.891
  305POPC   C4B 7990  30.797  20.829   7.548
  306POPC   NC3 7991  39.325  38.033   9.563
  306POPC   PO4 7992  39.128  37.422   9.487
  306POPC   GL1 7993  39.221  37.706   9.190
  306POPC   GL2 7994  38.954  37.963   9.187
  306POPC   C1A 7995  39.429  37.677   8.799
  306POPC   D2A 7996  39.577  37.853   8.402
  306POPC   C3A 7997  39.456  37.704   7.976
  306POPC   C4A 7998  39.404  37.434   7.592
  306POPC   C1B 7999  38.903  37.654   8.815
  306POPC   C2B 8000  39.070  37.700   8.391
  306POPC   C3B 8001  38.960  37.790   7.968
  306POPC   C4B 8002  39.032  37.769   7.518
  307POPC   NC3 8003  15.504   7.481   9.522
  307POPC   PO4 8004  14.856   7.603   9.483
  307POPC   GL1 8005  15.138   7.575   9.117
  307POPC   GL2 8006  15.461   7.716   9.054
  307POPC   C1A 8007  15.082   7.467   8.673
  307POPC   D2A 8008  15.053   7.223   8.270
  307POPC   C3A 8009  15.215   7.406   7.890
  307POPC   C4A 8010  15.268   7.662   7.519
  307POPC   C1B 8011  15.552   7.314   8.830
  307POPC   C2B 8012  15.742   7.081   8.471
  307POPC   C3B 8013  15.618   7.101   8.012
  307POPC   C4B 8014  15.679   7.006   7.591
  308POPC   NC3 8015  20.209  39.566   9.520
  308POPC   PO4 8016  19.667  39.138   9.638
  308POPC   GL1 8017  19.730  39.084   9.187
  308POPC   GL2 8018  20.076  39.070   9.114
  308POPC   C1A 8019  19.490  39.170   8.782
  308POPC   D2A 8020  19.441  39.162   8.308
  308POPC   C3A 8021  19.741  39.051   7.971
  308POPC   C4A 8022  19.710  39.113   7.506
  308POPC   C1B 8023  19.994  39.251   8.701
  308POPC   C2B 8024  19.814  39.531   8.379
  308POPC   C3B 8025  19.750  39.559   7.947
  308POPC   C4B 8026  20.104  39.343   7.770
  309POPC   NC3 8027  27.689  20.469   9.560
  309POPC   PO4 8028  27.294  20.980   9.307
  309POPC   GL1 8029  27.491  20.624   9.117
  309POPC   GL2 8030  27.230  20.421   9.190
  309POPC   C1A 8031  27.676  20.355   8.785
  309POPC   D2A 8032  27.781  20.120   8.384
  309POPC   C3A 8033  27.752  20.378   7.986
  309POPC   C4A 8034  27.620  20.717   7.705
  309POPC   C1B 8035  27.164  20.460   8.738
  309POPC   C2B 8036  27.323  20.354   8.321
  309POPC   C3B 8037  27.238  20.369   7.872
  309POPC   C4B 8038  26.993  20.305   7.496
  310POPC   NC3 8039  30.020  32.322   9.762
  310POPC   PO4 8040  30.307  31.983   9.174
  310POPC   GL1 8041  29.906  32.161   9.053
  310POPC   GL2 8042  29.694  32.460   9.077
  310POPC   C1A 8043  29.930  32.325   8.635
  310POPC   D2A 8044  30.113  32.193   8.257
  310POPC   C3A 8045  29.783  31.974   8.043
  310POPC   C4A 8046  29.903  32.131   7.659
  310POPC   C1B 8047  29.701  32.760   8.753
  310POPC   C2B 8048  29.629  32.642   8.342
  310POPC   C3B 8049  29.770  32.509   7.966
  310POPC   C4B 8050  29.595  32.483   7.527
  311POPC   NC3 8051  37.819  31.758   9.517
  311POPC   PO4 8052  37.327  32.353   9.560
  311POPC   GL1 8053  37.622  32.329   9.201
  311POPC   GL2 8054  37.807  32.036   9.095
  311POPC   C1A 8055  37.813  32.473   8.799
  311POPC   D2A 8056  38.047  32.509   8.407
  311POPC   C3A 8057  37.822  32.560   8.020
  311POPC   C4A 8058  37.661  32.278   7.727
  311POPC   C1B 8059  38.031  32.020   8.705
  311POPC   C2B 8060  38.099  31.971   8.273
  311POPC   C3B 8061  37.942  31.880   7.840
  311POPC   C4B 8062  37.927  31.918   7.359
  312POPC   NC3 8063  27.956  28.769   9.497
  312POPC   PO4 8064  28.518  29.177   9.454
  312POPC   GL1 8065  28.231  29.012   9.142
  312POPC   GL2 8066  28.010  29.290   9.177
  312POPC   C1A 8067  28.368  28.874   8.721
  312POPC   D2A 8068  28.645  29.123   8.431
  312POPC   C3A 8069  28.596  28.974   8.012
  312POPC   C4A 8070  28.266  28.782   7.766
  312POPC   C1B 8071  28.299  29.378   8.803
  312POPC   C2B 8072  28.156  29.320   8.378
  312POPC   C3B 8073  28.003  29.194   7.981
  312POPC   C4B 8074  28.292  29.271   7.666
  313POPC   NC3 8075  30.476  36.452   9.439
  313POPC   PO4 8076  31.009  36.317   9.761
  313POPC   GL1 8077  30.837  36.112   9.351
  313POPC   GL2 8078  30.467  35.980   9.245
  313POPC   C1A 8079  30.769  36.173   8.877
  313POPC   D2A 8080  30.513  36.260   8.497
  313POPC   C3A 8081  30.675  36.079   8.107
  313POPC   C4A 8082  30.793  36.361   7.777
  313POPC   C1B 8083  30.378  35.847   8.798
  313POPC   C2B 8084  30.247  35.818   8.339
  313POPC   C3B 8085  30.205  35.995   7.925
  313POPC   C4B 8086  30.530  35.882   7.633
  314POPC   NC3 8087  41.015  15.789   9.533
  314POPC   PO4 8088  40.395  16.177   9.464
  314POPC   GL1 8089  40.595  15.905   9.132
  314POPC   GL2 8090  40.965  15.864   9.048
  314POPC   C1A 8091  40.623  15.989   8.698
  314POPC   D2A 8092  40.734  15.770   8.312
  314POPC   C3A 8093  40.757  16.031   7.991
  314POPC   C4A 8094  40.383  16.185   7.787
  314POPC   C1B 8095  41.121  15.920   8.659
  314POPC   C2B 8096  41.231  15.736   8.300
  314POPC   C3B 8097  41.076  15.562   7.944
  314POPC   C4B 8098  40.913  15.738   7.583
  315POPC   NC3 8099  12.926   7.010   9.452
  315POPC   PO4 8100  12.862   7.712   9.445
  315POPC   GL1 8101  13.023   7.433   9.167
  315POPC   GL2 8102  12.672   7.322   9.134
  315POPC   C1A 8103  12.982   7.407   8.734
  315POPC   D2A 8104  12.737   7.467   8.367
  315POPC   C3A 8105  12.968   7.543   7.991
  315POPC   C4A 8106  13.193   7.201   7.801
  315POPC   C1B 8107  12.533   7.167   8.789
  315POPC   C2B 8108  12.335   7.155   8.436
  315POPC   C3B 8109  12.500   7.175   8.018
  315POPC   C4B 8110  12.595   6.949   7.634
  316POPC   NC3 8111  34.056   8.231   9.419
  316POPC   PO4 8112  33.450   7.913   9.488
  316POPC   GL1 8113  33.425   8.069   9.112
  316POPC   GL2 8114  33.687   8.307   9.043
  316POPC   C1A 8115  33.471   7.927   8.722
  316POPC   D2A 8116  33.753   7.752   8.439
  316POPC   C3A 8117  33.841   8.031   8.138
  316POPC   C4A 8118  33.843   8.118   7.733
  316POPC   C1B 8119  34.063   8.422   8.790
  316POPC   C2B 8120  34.233   8.275   8.403
  316POPC   C3B 8121  34.151   8.451   7.988
  316POPC   C4B 8122  34.099   8.584   7.578
  317POPC   NC3 8123  24.208  30.331   9.591
  317POPC   PO4 8124  23.627  30.771   9.683
  317POPC   GL1 8125  23.557  30.669   9.241
  317POPC   GL2 8126  23.863  30.577   9.257
  317POPC   C1A 8127  23.432  30.569   8.799
  317POPC   D2A 8128  23.679  30.398   8.458
  317POPC   C3A 8129  23.531  30.536   8.053
  317POPC   C4A 8130  23.551  30.297   7.691
  317POPC   C1B 8131  23.944  30.656   8.837
  317POPC   C2B 8132  24.156  30.642   8.468
  317POPC   C3B 8133  24.052  30.458   8.086
  317POPC   C4B 8134  23.962  30.617   7.711
  318POPC   NC3 8135  30.663  40.640   9.528
  318POPC   PO4 8136  30.611  39.901   9.534
  318POPC   GL1 8137  30.688  40.102   9.150
  318POPC   GL2 8138  30.710  39.765   9.032
  318POPC   C1A 8139  30.862  40.172   8.746
  318POPC   D2A 8140  30.853  39.846   8.490
  318POPC   C3A 8141  30.712  39.935   8.124
  318POPC   C4A 8142  30.849  40.216   7.850
  318POPC   C1B 8143  30.414  39.860   8.742
  318POPC   C2B 8144  30.273  39.782   8.337
  318POPC   C3B 8145  30.294  39.691   7.903
  318POPC   C4B 8146  30.616  39.776   7.652
  319POPC   NC3 8147  10.445  13.935   9.583
  319POPC   PO4 8148  10.701  13.228   9.526
  319POPC   GL1 8149  10.583  13.352   9.131
  319POPC   GL2 8150  10.441  13.672   9.150
  319POPC   C1A 8151  10.679  13.492   8.706
  319POPC   D2A 8152  10.469  13.329   8.334
  319POPC   C3A 8153  10.514  13.545   7.942
  319POPC   C4A 8154  10.487  13.335   7.573
  319POPC   C1B 8155  10.403  13.911   8.780
  319POPC   C2B 8156  10.410  13.843   8.354
  319POPC   C3B 8157  10.277  13.991   7.964
  319POPC   C4B 8158  10.241  13.796   7.581
  320POPC   NC3 8159  32.722  15.819   9.475
  320POPC   PO4 8160  33.368  15.866   9.404
  320POPC   GL1 8161  33.199  16.174   9.067
  320POPC   GL2 8162  32.872  16.196   9.160
  320POPC   C1A 8163  33.146  16.240   8.609
  320POPC   D2A 8164  33.123  15.882   8.298
  320POPC   C3A 8165  33.187  15.908   7.847
  320POPC   C4A 8166  33.071  15.836   7.400
  320POPC   C1B 8167  32.777  15.934   8.794
  320POPC   C2B 8168  32.669  16.088   8.387
  320POPC   C3B 8169  32.702  15.931   7.981
  320POPC   C4B 8170  32.682  16.125   7.591
  321POPC   NC3 8171  23.472  19.217   9.283
  321POPC   PO4 8172  23.775  18.728   9.645
  321POPC   GL1 8173  23.881  18.723   9.126
  321POPC   GL2 8174  24.004  18.993   8.999
  321POPC   C1A 8175  23.976  18.732   8.599
  321POPC   D2A 8176  23.763  18.762   8.191
  321POPC   C3A 8177  23.924  18.987   7.808
  321POPC   C4A 8178  23.650  19.018   7.436
  321POPC   C1B 8179  23.736  19.179   8.644
  321POPC   C2B 8180  23.815  19.284   8.242
  321POPC   C3B 8181  24.063  19.477   7.953
  321POPC   C4B 8182  23.905  19.443   7.537
  322POPC   NC3 8183  21.565  30.270   9.679
  322POPC   PO4 8184  21.515  29.616   9.456
  322POPC   GL1 8185  21.505  29.882   9.109
  322POPC   GL2 8186  21.190  29.715   9.012
  322POPC   C1A 8187  21.574  29.822   8.672
  322POPC   D2A 8188  21.286  29.720   8.387
  322POPC   C3A 8189  21.446  29.882   8.068
  322POPC   C4A 8190  21.584  29.931   7.662
  322POPC   C1B 8191  21.138  30.061   8.746
  322POPC   C2B 8192  21.231  30.238   8.376
  322POPC   C3B 8193  21.111  30.286   7.990
  322POPC   C4B 8194  21.092  30.006   7.735
  323POPC   NC3 8195  35.835  42.795   9.469
  323POPC   PO4 8196  36.035  43.385   9.729
  323POPC   GL1 8197  36.049  43.451   9.181
  323POPC   GL2 8198  35.853  43.123   9.082
  323POPC   C1A 8199  35.890  43.440   8.714
  323POPC   D2A 8200  35.831  43.196   8.321
  323POPC   C3A 8201  35.976  43.416   7.950
  323POPC   C4A 8202  36.166  43.289   7.565
  323POPC   C1B 8203  36.069  42.925   8.713
  323POPC   C2B 8204  36.330  42.917   8.323
  323POPC   C3B 8205  36.171  42.900   7.909
  323POPC   C4B 8206  35.750  43.023   7.788
  324POPC   NC3 8207  38.681  10.548   9.807
  324POPC   PO4 8208  38.923  10.997   9.448
  324POPC   GL1 8209  38.633  10.615   9.223
  324POPC   GL2 8210  38.266  10.683   9.087
  324POPC   C1A 8211  38.521  10.327   8.814
  324POPC   D2A 8212  38.595  10.176   8.353
  324POPC   C3A 8213  38.387  10.342   7.960
  324POPC   C4A 8214  38.605  10.407   7.536
  324POPC   C1B 8215  38.493  10.843   8.743
  324POPC   C2B 8216  38.583  10.729   8.307
  324POPC   C3B 8217  38.402  10.859   7.907
  324POPC   C4B 8218  38.176  10.644   7.587
  325POPC   NC3 8219  33.642  12.561   9.785
  325POPC   PO4 8220  34.083  13.054   9.732
  325POPC   GL1 8221  34.087  12.873   9.326
  325POPC   GL2 8222  33.739  12.776   9.245
  325POPC   C1A 8223  34.091  12.844   8.866
  325POPC   D2A 8224  34.277  12.748   8.470
  325POPC   C3A 8225  33.949  12.746   8.168
  325POPC   C4A 8226  33.957  12.911   7.755
  325POPC   C1B 8227  33.566  12.821   8.803
  325POPC   C2B 8228  33.456  12.555   8.436
  325POPC   C3B 8229  33.513  12.528   8.016
  325POPC   C4B 8230  33.454  12.904   7.792
  326POPC   NC3 8231  37.921  27.147   9.779
  326POPC   PO4 8232  37.623  27.722   9.560
  326POPC   GL1 8233  37.666  27.444   9.205
  326POPC   GL2 8234  37.407  27.616   9.043
  326POPC   C1A 8235  37.642  27.284   8.767
  326POPC   D2A 8236  37.506  27.353   8.390
  326POPC   C3A 8237  37.753  27.304   8.035
  326POPC   C4A 8238  37.883  27.512   7.685
  326POPC   C1B 8239  37.830  27.737   8.772
  326POPC   C2B 8240  37.789  27.790   8.336
  326POPC   C3B 8241  37.436  27.724   8.048
  326POPC   C4B 8242  37.277  27.799   7.655
  327POPC   NC3 8243  22.800   3.303   9.435
  327POPC   PO4 8244  23.317   3.731   9.556
  327POPC   GL1 8245  23.043   3.671   9.197
  327POPC   GL2 8246  23.233   3.391   9.103
  327POPC   C1A 8247  22.876   3.556   8.754
  327POPC   D2A 8248  22.861   3.244   8.394
  327POPC   C3A 8249  22.995   3.324   7.954
  327POPC   C4A 8250  22.829   3.625   7.606
  327POPC   C1B 8251  23.310   3.789   8.805
  327POPC   C2B 8252  23.317   3.859   8.376
  327POPC   C3B 8253  23.167   3.813   7.964
  327POPC   C4B 8254  23.332   3.744   7.536
  328POPC   NC3 8255   9.603   4.759   9.493
  328POPC   PO4 8256  10.008   5.232   9.530
  328POPC   GL1 8257   9.731   5.115   9.141
  328POPC   GL2 8258   9.633   4.741   9.003
  328POPC   C1A 8259   9.863   5.162   8.712
  328POPC   D2A 8260   9.706   5.314   8.336
  328POPC   C3A 8261   9.941   5.263   7.973
  328POPC   C4A 8262   9.610   5.371   7.660
  328POPC   C1B 8263   9.849   4.661   8.638
  328POPC   C2B 8264   9.830   4.818   8.238
  328POPC   C3B 8265   9.591   4.913   7.882
  328POPC   C4B 8266   9.257   4.712   7.709
  329POPC   NC3 8267  18.841   7.194   9.564
  329POPC   PO4 8268  19.002   6.585   9.531
  329POPC   GL1 8269  19.025   6.754   9.132
  329POPC   GL2 8270  19.173   7.062   9.184
  329POPC   C1A 8271  18.903   6.548   8.760
  329POPC   D2A 8272  19.071   6.456   8.367
  329POPC   C3A 8273  18.819   6.455   8.007
  329POPC   C4A 8274  18.995   6.145   7.723
  329POPC   C1B 8275  19.022   7.179   8.804
  329POPC   C2B 8276  19.118   6.964   8.466
  329POPC   C3B 8277  19.249   6.876   8.072
  329POPC   C4B 8278  19.052   6.760   7.689
  330POPC   NC3 8279   2.081  18.591   9.317
  330POPC   PO4 8280   1.740  17.937   9.355
  330POPC   GL1 8281   1.936  17.978   8.993
  330POPC   GL2 8282   1.825  18.329   8.978
  330POPC   C1A 8283   1.958  18.084   8.565
  330POPC   D2A 8284   2.102  18.431   8.343
  330POPC   C3A 8285   2.187  18.196   8.013
  330POPC   C4A 8286   1.968  17.889   7.828
  330POPC   C1B 8287   1.623  18.564   8.648
  330POPC   C2B 8288   1.439  18.782   8.264
  330POPC   C3B 8289   1.708  18.909   7.924
  330POPC   C4B 8290   2.129  18.727   7.902
  331POPC   NC3 8291  39.933  41.870   9.476
  331POPC   PO4 8292  40.267  42.518   9.469
  331POPC   GL1 8293  39.997  42.493   9.069
  331POPC   GL2 8294  39.973  42.124   9.038
  331POPC   C1A 8295  39.980  42.373   8.597
  331POPC   D2A 8296  40.113  42.071   8.295
  331POPC   C3A 8297  40.326  42.268   7.960
  331POPC   C4A 8298  40.204  42.735   8.004
  331POPC   C1B 8299  39.817  41.831   8.729
  331POPC   C2B 8300  39.652  41.798   8.354
  331POPC   C3B 8301  39.688  41.976   7.995
  331POPC   C4B 8302  39.838  42.366   7.911
  332POPC   NC3 8303  16.603  17.102   9.557
  332POPC   PO4 8304  16.248  16.585   9.433
  332POPC   GL1 8305  16.527  16.836   9.119
  332POPC   GL2 8306  16.890  16.866   9.205
  332POPC   C1A 8307  16.766  16.988   8.722
  332POPC   D2A 8308  16.961  17.046   8.285
  332POPC   C3A 8309  16.745  16.798   7.968
  332POPC   C4A 8310  16.616  16.685   7.559
  332POPC   C1B 8311  16.920  16.534   8.885
  332POPC   C2B 8312  16.906  16.552   8.428
  332POPC   C3B 8313  17.188  16.581   8.053
  332POPC   C4B 8314  17.082  16.463   7.607
  333POPC   NC3 8315  43.346  25.022   9.580
  333POPC   PO4 8316  42.991  25.598   9.530
  333POPC   GL1 8317  43.135  25.354   9.203
  333POPC   GL2 8318  43.471  25.252   9.103
  333POPC   C1A 8319  42.931  25.249   8.840
  333POPC   D2A 8320  42.987  25.149   8.429
  333POPC   C3A 8321  42.728  25.134   8.083
  333POPC   C4A 8322  42.680  25.355   7.727
  333POPC   C1B 8323  43.417  25.385   8.646
  333POPC   C2B 8324  43.404  25.337   8.201
  333POPC   C3B 8325  43.224  25.348   7.806
  333POPC   C4B 8326  43.388  25.105   7.476
  334POPC   NC3 8327  26.299  44.360   9.723
  334POPC   PO4 8328  25.815  44.850   9.643
  334POPC   GL1 8329  25.929  44.592   9.280
  334POPC   GL2 8330  26.268  44.553   9.183
  334POPC   C1A 8331  25.902  44.614   8.831
  334POPC   D2A 8332  26.164  44.444   8.460
  334POPC   C3A 8333  25.978  44.524   8.045
  334POPC   C4A 8334  25.728  44.438   7.688
  334POPC   C1B 8335  26.500  44.675   8.798
  334POPC   C2B 8336  26.445  44.878   8.381
  334POPC   C3B 8337  26.464  44.657   7.990
  334POPC   C4B 8338  26.227  44.624   7.579
  335POPC   NC3 8339  14.164   5.351   9.436
  335POPC   PO4 8340  14.524   4.811   9.691
  335POPC   GL1 8341  14.398   4.874   9.210
  335POPC   GL2 8342  14.513   5.218   9.080
  335POPC   C1A 8343  14.239   4.935   8.754
  335POPC   D2A 8344  14.497   5.154   8.434
  335POPC   C3A 8345  14.483   5.008   8.016
  335POPC   C4A 8346  14.792   5.024   7.751
  335POPC   C1B 8347  14.214   5.432   8.770
  335POPC   C2B 8348  14.375   5.667   8.406
  335POPC   C3B 8349  14.494   5.533   7.988
  335POPC   C4B 8350  14.125   5.317   7.797
  336POPC   NC3 8351  21.468   4.046   9.327
  336POPC   PO4 8352  20.955   4.295   9.643
  336POPC   GL1 8353  21.124   4.396   9.131
  336POPC   GL2 8354  21.211   4.103   8.877
  336POPC   C1A 8355  21.288   4.577   8.741
  336POPC   D2A 8356  21.521   4.498   8.351
  336POPC   C3A 8357  21.280   4.443   7.971
  336POPC   C4A 8358  20.989   4.164   7.754
  336POPC   C1B 8359  21.647   4.198   8.741
  336POPC   C2B 8360  21.825   4.049   8.368
  336POPC   C3B 8361  21.723   4.159   7.995
  336POPC   C4B 8362  21.478   3.994   7.682
  337POPC   NC3 8363  36.808  36.518   9.296
  337POPC   PO4 8364  37.285  36.070   9.561
  337POPC   GL1 8365  37.180  35.981   9.142
  337POPC   GL2 8366  36.828  36.033   9.099
  337POPC   C1A 8367  37.160  36.174   8.716
  337POPC   D2A 8368  37.031  36.373   8.331
  337POPC   C3A 8369  37.086  36.069   8.007
  337POPC   C4A 8370  37.383  36.039   7.717
  337POPC   C1B 8371  36.654  36.268   8.720
  337POPC   C2B 8372  36.496  36.380   8.328
  337POPC   C3B 8373  36.666  36.318   7.932
  337POPC   C4B 8374  36.520  36.053   7.545
  338POPC   NC3 8375  24.967   6.453   9.518
  338POPC   PO4 8376  25.486   6.765   9.645
  338POPC   GL1 8377  25.313   6.672   9.188
  338POPC   GL2 8378  25.130   6.375   9.010
  338POPC   C1A 8379  25.320   6.775   8.745
  338POPC   D2A 8380  25.138   6.714   8.354
  338POPC   C3A 8381  25.281   6.937   8.006
  338POPC   C4A 8382  25.242   6.638   7.753
  338POPC   C1B 8383  25.605   6.372   8.848
  338POPC   C2B 8384  25.684   6.545   8.432
  338POPC   C3B 8385  25.697   6.509   7.979
  338POPC   C4B 8386  25.568   6.258   7.626
  339POPC   NC3 8387  40.244  23.452   9.416
  339POPC   PO4 8388  39.987  22.772   9.431
  339POPC   GL1 8389  40.235  23.014   9.151
  339POPC   GL2 8390  39.905  23.183   9.145
  339POPC   C1A 8391  40.289  23.052   8.708
  339POPC   D2A 8392  40.131  22.709   8.432
  339POPC   C3A 8393  40.024  22.762   7.964
  339POPC   C4A 8394  40.228  23.046   7.661
  339POPC   C1B 8395  39.786  22.954   8.794
  339POPC   C2B 8396  39.711  23.021   8.361
  339POPC   C3B 8397  39.506  22.790   8.043
  339POPC   C4B 8398  39.536  22.735   7.630
  340POPC   NC3 8399  22.054  24.852   9.404
  340POPC   PO4 8400  22.156  24.167   9.441
  340POPC   GL1 8401  21.842  24.370   9.222
  340POPC   GL2 8402  22.129  24.501   9.049
  340POPC   C1A 8403  21.753  24.337   8.781
  340POPC   D2A 8404  22.065  24.350   8.490
  340POPC   C3A 8405  21.939  24.291   8.126
  340POPC   C4A 8406  21.918  24.640   7.851
  340POPC   C1B 8407  22.455  24.472   8.782
  340POPC   C2B 8408  22.511  24.641   8.375
  340POPC   C3B 8409  22.406  24.640   7.939
  340POPC   C4B 8410  22.270  24.479   7.486
  341POPC   NC3 8411   6.959   3.833   9.351
  341POPC   PO4 8412   6.753   3.205   9.644
  341POPC   GL1 8413   6.613   3.332   9.265
  341POPC   GL2 8414   6.906   3.215   9.114
  341POPC   C1A 8415   6.383   3.325   8.869
  341POPC   D2A 8416   6.420   3.335   8.407
  341POPC   C3A 8417   6.230   3.688   8.141
  341POPC   C4A 8418   6.313   3.759   7.681
  341POPC   C1B 8419   6.887   3.397   8.703
  341POPC   C2B 8420   6.818   3.700   8.368
  341POPC   C3B 8421   6.711   3.631   7.957
  341POPC   C4B 8422   6.818   3.659   7.517
  342POPC   NC3 8423  22.664  41.876   9.404
  342POPC   PO4 8424  23.033  41.337   9.430
  342POPC   GL1 8425  22.864  41.498   9.063
  342POPC   GL2 8426  23.104  41.781   9.149
  342POPC   C1A 8427  22.864  41.447   8.589
  342POPC   D2A 8428  22.691  41.189   8.233
  342POPC   C3A 8429  22.926  41.326   7.865
  342POPC   C4A 8430  23.235  41.642   7.756
  342POPC   C1B 8431  23.004  41.888   8.790
  342POPC   C2B 8432  23.183  41.855   8.430
  342POPC   C3B 8433  22.926  41.744   8.135
  342POPC   C4B 8434  22.738  41.812   7.732
  343POPC   NC3 8435  23.078  18.840   9.629
  343POPC   PO4 8436  22.536  19.177   9.545
  343POPC   GL1 8437  22.877  19.294   9.271
  343POPC   GL2 8438  23.024  19.014   9.134
  343POPC   C1A 8439  22.840  19.322   8.804
  343POPC   D2A 8440  22.932  19.377   8.380
  343POPC   C3A 8441  22.885  19.137   8.011
  343POPC   C4A 8442  22.663  19.176   7.629
  343POPC   C1B 8443  23.247  19.036   8.716
  343POPC   C2B 8444  23.252  18.908   8.315
  343POPC   C3B 8445  23.418  19.075   7.949
  343POPC   C4B 8446  23.176  18.997   7.611
  344POPC   NC3 8447  29.583  40.727   9.418
  344POPC   PO4 8448  30.226  40.759   9.578
  344POPC   GL1 8449  30.073  40.789   9.159
  344POPC   GL2 8450  29.911  40.495   9.121
  344POPC   C1A 8451  30.142  40.784   8.718
  344POPC   D2A 8452  29.966  40.871   8.333
  344POPC   C3A 8453  30.205  40.842   7.972
  344POPC   C4A 8454  30.185  40.587   7.613
  344POPC   C1B 8455  29.747  40.404   8.741
  344POPC   C2B 8456  29.560  40.513   8.368
  344POPC   C3B 8457  29.779  40.520   8.000
  344POPC   C4B 8458  29.678  40.693   7.641
  345POPC   NC3 8459   2.271  27.191   9.588
  345POPC   PO4 8460   2.075  26.484   9.534
  345POPC   GL1 8461   1.913  26.613   9.155
  345POPC   GL2 8462   1.577  26.463   9.135
  345POPC   C1A 8463   1.955  26.907   8.811
  345POPC   D2A 8464   2.236  26.940   8.477
  345POPC   C3A 8465   2.169  26.834   8.077
  345POPC   C4A 8466   2.277  26.695   7.677
  345POPC   C1B 8467   1.673  26.451   8.731
  345POPC   C2B 8468   1.799  26.631   8.395
  345POPC   C3B 8469   1.621  26.618   8.033
  345POPC   C4B 8470   1.794  26.863   7.759
  346POPC   NC3 8471  22.074  10.161   9.482
  346POPC   PO4 8472  22.057  10.765   9.346
  346POPC   GL1 8473  22.373  10.496   9.118
  346POPC   GL2 8474  22.548  10.208   9.288
  346POPC   C1A 8475  22.364  10.404   8.665
  346POPC   D2A 8476  22.011  10.305   8.397
  346POPC   C3A 8477  21.944  10.499   7.979
  346POPC   C4A 8478  21.892  10.538   7.525
  346POPC   C1B 8479  22.462   9.970   8.936
  346POPC   C2B 8480  22.503   9.937   8.481
  346POPC   C3B 8481  22.618  10.165   8.110
  346POPC   C4B 8482  22.395  10.362   7.733
  347POPC   NC3 8483  28.724  44.937   9.494
  347POPC   PO4 8484  28.241  44.468   9.522
  347POPC   GL1 8485  28.518  44.560   9.204
  347POPC   GL2 8486  28.362  44.791   9.108
  347POPC   C1A 8487  28.495  44.457   8.723
  347POPC   D2A 8488  28.699  44.288   8.328
  347POPC   C3A 8489  28.409  44.335   7.990
  347POPC   C4A 8490  28.045  44.525   7.820
  347POPC   C1B 8491  28.448  44.986   8.740
  347POPC   C2B 8492  28.412   0.160   8.347
  347POPC   C3B 8493  28.409  44.941   7.974
  347POPC   C4B 8494  28.179  44.986   7.640
  348POPC   NC3 8495   5.896  14.265   9.448
  348POPC   PO4 8496   5.467  14.776   9.448
  348POPC   GL1 8497   5.710  14.588   9.054
  348POPC   GL2 8498   5.946  14.241   8.958
  348POPC   C1A 8499   5.761  14.522   8.604
  348POPC   D2A 8500   6.026  14.230   8.362
  348POPC   C3A 8501   6.187  14.421   7.974
  348POPC   C4A 8502   5.971  14.757   7.795
  348POPC   C1B 8503   5.534  14.104   8.810
  348POPC   C2B 8504   5.268  14.230   8.488
  348POPC   C3B 8505   5.307  14.167   8.073
  348POPC   C4B 8506   5.687  14.331   7.959
  349POPC   NC3 8507  42.887   9.066   9.569
  349POPC   PO4 8508  43.396   8.737   9.225
  349POPC   GL1 8509  43.110   9.047   9.063
  349POPC   GL2 8510  42.790   9.233   9.105
  349POPC   C1A 8511  43.155   9.037   8.631
  349POPC   D2A 8512  43.159   8.821   8.281
  349POPC   C3A 8513  43.359   9.081   7.984
  349POPC   C4A 8514  43.323   9.111   7.525
  349POPC   C1B 8515  42.843   9.414   8.716
  349POPC   C2B 8516  42.880   9.288   8.259
  349POPC   C3B 8517  42.926   9.291   7.804
  349POPC   C4B 8518  42.925   9.393   7.332
  350POPC   NC3 8519  26.225  40.177   9.375
  350POPC   PO4 8520  26.136  39.521   9.447
  350POPC   GL1 8521  25.896  39.776   9.156
  350POPC   GL2 8522  25.895  40.159   9.000
  350POPC   C1A 8523  25.893  39.789   8.700
  350POPC   D2A 8524  26.099  39.975   8.373
  350POPC   C3A 8525  25.897  39.807   8.017
  350POPC   C4A 8526  26.008  39.727   7.607
  350POPC   C1B 8527  25.768  40.354   8.602
  350POPC   C2B 8528  25.793  40.325   8.159
  350POPC   C3B 8529  26.127  40.248   7.897
  350POPC   C4B 8530  26.204  40.172   7.475
  351POPC   NC3 8531  34.092  11.528   9.990
  351POPC   PO4 8532  33.508  11.395   9.590
  351POPC   GL1 8533  33.647  11.368   9.153
  351POPC   GL2 8534  34.009  11.402   9.136
  351POPC   C1A 8535  33.646  11.486   8.757
  351POPC   D2A 8536  33.529  11.327   8.385
  351POPC   C3A 8537  33.673  11.597   8.062
  351POPC   C4A 8538  33.755  11.492   7.641
  351POPC   C1B 8539  33.871  11.040   8.845
  351POPC   C2B 8540  33.972  11.073   8.414
  351POPC   C3B 8541  33.805  11.091   8.005
  351POPC   C4B 8542  33.970  11.016   7.617
  352POPC   NC3 8543  37.262  27.402   9.529
  352POPC   PO4 8544  36.863  28.019   9.596
  352POPC   GL1 8545  36.948  27.759   9.234
  352POPC   GL2 8546  36.876  27.423   9.181
  352POPC   C1A 8547  37.012  27.831   8.782
  352POPC   D2A 8548  37.113  27.998   8.343
  352POPC   C3A 8549  36.891  27.812   7.995
  352POPC   C4A 8550  36.758  27.814   7.569
  352POPC   C1B 8551  37.041  27.335   8.773
  352POPC   C2B 8552  37.029  27.502   8.385
  352POPC   C3B 8553  37.095  27.336   8.003
  352POPC   C4B 8554  36.935  27.317   7.596
  353POPC   NC3 8555  37.850  20.360   9.402
  353POPC   PO4 8556  37.449  20.913   9.658
  353POPC   GL1 8557  37.550  20.760   9.236
  353POPC   GL2 8558  37.902  20.764   9.100
  353POPC   C1A 8559  37.468  20.793   8.795
  353POPC   D2A 8560  37.780  20.898   8.457
  353POPC   C3A 8561  37.786  20.702   8.054
  353POPC   C4A 8562  37.469  20.602   7.718
  353POPC   C1B 8563  37.861  20.419   8.751
  353POPC   C2B 8564  38.082  20.307   8.363
  353POPC   C3B 8565  38.201  20.413   7.945
  353POPC   C4B 8566  37.910  20.362   7.639
  354POPC   NC3 8567   3.110  22.722   9.646
  354POPC   PO4 8568   3.769  23.040   9.581
  354POPC   GL1 8569   3.686  23.136   9.188
  354POPC   GL2 8570   3.952  23.336   9.117
  354POPC   C1A 8571   3.480  22.909   8.896
  354POPC   D2A 8572   3.560  22.825   8.475
  354POPC   C3A 8573   3.268  22.721   8.170
  354POPC   C4A 8574   3.454  22.759   7.775
  354POPC   C1B 8575   3.929  23.096   8.727
  354POPC   C2B 8576   3.964  23.108   8.297
  354POPC   C3B 8577   3.864  23.047   7.883
  354POPC   C4B 8578   4.045  23.129   7.496
  355POPC   NC3 8579  14.047  38.630   9.499
  355POPC   PO4 8580  14.581  38.920   9.571
  355POPC   GL1 8581  14.494  38.671   9.153
  355POPC   GL2 8582  14.315  38.346   9.193
  355POPC   C1A 8583  14.374  38.773   8.716
  355POPC   D2A 8584  14.054  38.879   8.408
  355POPC   C3A 8585  14.154  38.874   7.967
  355POPC   C4A 8586  14.474  38.704   7.739
  355POPC   C1B 8587  14.117  38.348   8.813
  355POPC   C2B 8588  14.195  38.369   8.391
  355POPC   C3B 8589  14.016  38.404   8.009
  355POPC   C4B 8590  14.044  38.505   7.538
  356POPC   NC3 8591  33.365  19.433   9.321
  356POPC   PO4 8592  33.770  18.892   9.445
  356POPC   GL1 8593  33.698  19.106   9.093
  356POPC   GL2 8594  33.886  19.402   9.127
  356POPC   C1A 8595  33.551  19.224   8.681
  356POPC   D2A 8596  33.764  19.049   8.348
  356POPC   C3A 8597  33.620  18.927   7.995
  356POPC   C4A 8598  33.756  19.050   7.606
  356POPC   C1B 8599  34.062  19.252   8.741
  356POPC   C2B 8600  34.063  19.439   8.355
  356POPC   C3B 8601  34.055  19.252   7.961
  356POPC   C4B 8602  34.106  19.450   7.584
  357POPC   NC3 8603  16.688  36.645   9.590
  357POPC   PO4 8604  16.991  37.233   9.516
  357POPC   GL1 8605  16.748  36.970   9.196
  357POPC   GL2 8606  16.870  36.622   9.138
  357POPC   C1A 8607  16.671  36.931   8.776
  357POPC   D2A 8608  16.448  36.711   8.466
  357POPC   C3A 8609  16.620  36.889   8.097
  357POPC   C4A 8610  16.557  37.252   7.809
  357POPC   C1B 8611  16.807  36.447   8.756
  357POPC   C2B 8612  16.946  36.606   8.376
  357POPC   C3B 8613  17.015  36.407   8.022
  357POPC   C4B 8614  16.658  36.441   7.765
  358POPC   NC3 8615  16.461  24.441   9.587
  358POPC   PO4 8616  17.021  24.358   9.293
  358POPC   GL1 8617  16.885  24.548   9.012
  358POPC   GL2 8618  16.592  24.705   9.168
  358POPC   C1A 8619  17.121  24.551   8.654
  358POPC   D2A 8620  17.232  24.306   8.308
  358POPC   C3A 8621  17.043  24.614   8.085
  358POPC   C4A 8622  16.920  24.742   7.692
  358POPC   C1B 8623  16.460  24.568   8.769
  358POPC   C2B 8624  16.672  24.649   8.434
  358POPC   C3B 8625  16.544  24.550   8.067
  358POPC   C4B 8626  16.462  24.512   7.667
  359POPC   NC3 8627  27.089  34.818   9.599
  359POPC   PO4 8628  26.908  34.185   9.630
  359POPC   GL1 8629  26.891  34.480   9.265
  359POPC   GL2 8630  27.241  34.440   9.282
  359POPC   C1A 8631  26.733  34.470   8.823
  359POPC   D2A 8632  26.570  34.604   8.429
  359POPC   C3A 8633  26.779  34.678   8.062
  359POPC   C4A 8634  26.638  34.744   7.645
  359POPC   C1B 8635  27.199  34.303   8.907
  359POPC   C2B 8636  27.110  34.335   8.474
  359POPC   C3B 8637  27.050  34.227   8.055
  359POPC   C4B 8638  27.048  34.454   7.682
  360POPC   NC3 8639   0.653  18.253   9.668
  360POPC   PO4 8640   0.021  18.377   9.578
  360POPC   GL1 8641   0.362  18.449   9.257
  360POPC   GL2 8642   0.486  18.092   9.201
  360POPC   C1A 8643   0.327  18.389   8.799
  360POPC   D2A 8644   0.273  18.149   8.413
  360POPC   C3A 8645   0.068  18.285   8.078
  360POPC   C4A 8646   0.326  18.430   7.759
  360POPC   C1B 8647   0.541  17.914   8.784
  360POPC   C2B 8648   0.783  18.064   8.401
  360POPC   C3B 8649   0.608  18.049   7.993
  360POPC   C4B 8650   0.590  17.816   7.594
  361POPC   NC3 8651  30.166   9.926   9.445
  361POPC   PO4 8652  29.702   9.428   9.497
  361POPC   GL1 8653  29.827   9.674   9.159
  361POPC   GL2 8654  30.135   9.553   9.078
  361POPC   C1A 8655  29.871   9.971   8.813
  361POPC   D2A 8656  30.108   9.946   8.403
  361POPC   C3A 8657  29.831   9.972   8.013
  361POPC   C4A 8658  29.788   9.851   7.587
  361POPC   C1B 8659  29.952   9.498   8.667
  361POPC   C2B 8660  29.930   9.480   8.227
  361POPC   C3B 8661  30.036   9.452   7.824
  361POPC   C4B 8662  30.021   9.306   7.422
  362POPC   NC3 8663   5.446  30.506   9.435
  362POPC   PO4 8664   4.805  30.587   9.569
  362POPC   GL1 8665   4.991  30.538   9.163
  362POPC   GL2 8666   5.170  30.819   9.040
  362POPC   C1A 8667   5.066  30.300   8.778
  362POPC   D2A 8668   5.331  30.199   8.436
  362POPC   C3A 8669   5.163  30.255   8.041
  362POPC   C4A 8670   5.390  30.399   7.662
  362POPC   C1B 8671   4.939  30.932   8.705
  362POPC   C2B 8672   5.064  30.665   8.381
  362POPC   C3B 8673   5.242  30.753   7.987
  362POPC   C4B 8674   4.866  30.674   7.776
  363POPC   NC3 8675  34.497  20.084   9.496
  363POPC   PO4 8676  35.001  19.709   9.770
  363POPC   GL1 8677  34.706  19.680   9.290
  363POPC   GL2 8678  34.660  19.985   9.040
  363POPC   C1A 8679  34.449  19.574   8.874
  363POPC   D2A 8680  34.545  19.611   8.417
  363POPC   C3A 8681  34.323  19.689   8.014
  363POPC   C4A 8682  34.591  19.557   7.731
  363POPC   C1B 8683  34.654  20.083   8.632
  363POPC   C2B 8684  34.487  20.110   8.229
  363POPC   C3B 8685  34.652  20.029   7.825
  363POPC   C4B 8686  34.808  19.890   7.405
  364POPC   NC3 8687   0.158  10.178   9.540
  364POPC   PO4 8688   0.748  10.511   9.355
  364POPC   GL1 8689   0.564  10.667   9.019
  364POPC   GL2 8690   0.301  10.470   9.128
  364POPC   C1A 8691   0.420  10.532   8.634
  364POPC   D2A 8692   0.192  10.664   8.317
  364POPC   C3A 8693   0.380  10.590   7.954
  364POPC   C4A 8694   0.669  10.842   7.835
  364POPC   C1B 8695   0.096  10.196   8.874
  364POPC   C2B 8696   0.003  10.182   8.424
  364POPC   C3B 8697   0.020  10.243   7.971
  364POPC   C4B 8698   0.176  10.180   7.525
  365POPC   NC3 8699  34.469  10.657   9.562
  365POPC   PO4 8700  35.023  10.941   9.346
  365POPC   GL1 8701  34.644  10.758   9.106
  365POPC   GL2 8702  34.299  10.954   9.185
  365POPC   C1A 8703  34.634  10.516   8.749
  365POPC   D2A 8704  34.853  10.502   8.378
  365POPC   C3A 8705  34.581  10.399   8.047
  365POPC   C4A 8706  34.455  10.474   7.619
  365POPC   C1B 8707  34.369  11.040   8.764
  365POPC   C2B 8708  34.415  10.820   8.360
  365POPC   C3B 8709  34.434  10.902   7.903
  365POPC   C4B 8710  34.435  10.975   7.448
  366POPC   NC3 8711  34.140  34.732   9.368
  366POPC   PO4 8712  34.729  34.502   9.502
  366POPC   GL1 8713  34.510  34.483   9.110
  366POPC   GL2 8714  34.591  34.846   9.073
  366POPC   C1A 8715  34.401  34.427   8.669
  366POPC   D2A 8716  34.753  34.232   8.418
  366POPC   C3A 8717  34.672  34.275   7.996
  366POPC   C4A 8718  34.323  34.396   7.767
  366POPC   C1B 8719  34.800  34.718   8.677
  366POPC   C2B 8720  34.579  34.713   8.265
  366POPC   C3B 8721  34.657  34.830   7.852
  366POPC   C4B 8722  35.036  34.884   7.599
  367POPC   NC3 8723  34.120  44.538   9.529
  367POPC   PO4 8724  33.502  44.764   9.314
  367POPC   GL1 8725  33.611  44.593   9.004
  367POPC   GL2 8726  33.968  44.589   9.043
  367POPC   C1A 8727  33.437  44.575   8.602
  367POPC   D2A 8728  33.569  44.320   8.266
  367POPC   C3A 8729  33.875  44.548   7.992
  367POPC   C4A 8730  33.703  44.780   7.627
  367POPC   C1B 8731  34.112  44.680   8.644
  367POPC   C2B 8732  34.279  44.871   8.240
  367POPC   C3B 8733  34.243  44.861   7.759
  367POPC   C4B 8734  34.047   0.118   7.417
  368POPC   NC3 8735  30.170  20.472   9.547
  368POPC   PO4 8736  29.539  20.680   9.754
  368POPC   GL1 8737  29.759  20.610   9.293
  368POPC   GL2 8738  29.714  20.322   9.077
  368POPC   C1A 8739  30.018  20.703   8.914
  368POPC   D2A 8740  29.921  20.935   8.548
  368POPC   C3A 8741  30.125  20.812   8.185
  368POPC   C4A 8742  30.132  20.629   7.787
  368POPC   C1B 8743  30.035  20.185   8.842
  368POPC   C2B 8744  30.186  20.400   8.502
  368POPC   C3B 8745  30.264  20.262   8.094
  368POPC   C4B 8746  29.936  20.162   7.775
  369POPC   NC3 8747  39.132  36.330   9.552
  369POPC   PO4 8748  39.600  35.842   9.589
  369POPC   GL1 8749  39.376  35.921   9.182
  369POPC   GL2 8750  39.067  35.972   9.196
  369POPC   C1A 8751  39.340  36.137   8.745
  369POPC   D2A 8752  39.139  36.315   8.339
  369POPC   C3A 8753  39.191  36.055   7.996
  369POPC   C4A 8754  39.394  35.748   7.742
  369POPC   C1B 8755  38.813  35.840   8.887
  369POPC   C2B 8756  38.888  35.859   8.452
  369POPC   C3B 8757  38.798  35.752   8.048
  369POPC   C4B 8758  38.798  35.905   7.654
  370POPC   NC3 8759  33.297  10.797   9.625
  370POPC   PO4 8760  32.868  10.334   9.450
  370POPC   GL1 8761  33.027  10.282   9.055
  370POPC   GL2 8762  32.876   9.982   8.961
  370POPC   C1A 8763  33.267  10.492   8.708
  370POPC   D2A 8764  33.195  10.525   8.243
  370POPC   C3A 8765  33.509  10.341   7.972
  370POPC   C4A 8766  33.569  10.706   7.752
  370POPC   C1B 8767  32.858  10.220   8.559
  370POPC   C2B 8768  32.759  10.682   8.450
  370POPC   C3B 8769  32.742  10.785   8.027
  370POPC   C4B 8770  32.961  10.494   7.765
  371POPC   NC3 8771   0.190  16.639   9.371
  371POPC   PO4 8772   0.765  17.090   9.493
  371POPC   GL1 8773   0.569  16.860   9.134
  371POPC   GL2 8774   0.664  16.487   9.134
  371POPC   C1A 8775   0.406  16.983   8.726
  371POPC   D2A 8776   0.284  17.134   8.333
  371POPC   C3A 8777   0.350  16.912   7.957
  371POPC   C4A 8778   0.114  17.039   7.597
  371POPC   C1B 8779   0.486  16.488   8.715
  371POPC   C2B 8780   0.400  16.511   8.267
  371POPC   C3B 8781   0.643  16.501   7.867
  371POPC   C4B 8782   0.720  16.572   7.426
  372POPC   NC3 8783  43.171  39.198   9.610
  372POPC   PO4 8784  43.202  38.658   9.211
  372POPC   GL1 8785  42.962  39.043   9.130
  372POPC   GL2 8786  43.205  39.341   9.132
  372POPC   C1A 8787  42.867  39.318   8.757
  372POPC   D2A 8788  43.100  39.320   8.368
  372POPC   C3A 8789  42.938  39.225   7.944
  372POPC   C4A 8790  43.013  39.224   7.500
  372POPC   C1B 8791  43.339  39.111   8.774
  372POPC   C2B 8792  43.369  38.769   8.503
  372POPC   C3B 8793  43.345  38.941   8.116
  372POPC   C4B 8794  43.322  38.870   7.695
  373POPC   NC3 8795  41.317  42.535  10.010
  373POPC   PO4 8796  41.549  43.137   9.650
  373POPC   GL1 8797  41.483  43.218   9.184
  373POPC   GL2 8798  41.449  42.893   9.084
  373POPC   C1A 8799  41.546  43.232   8.719
  373POPC   D2A 8800  41.254  43.276   8.374
  373POPC   C3A 8801  41.510  43.191   8.051
  373POPC   C4A 8802  41.623  43.378   7.681
  373POPC   C1B 8803  41.573  42.731   8.698
  373POPC   C2B 8804  41.750  42.772   8.292
  373POPC   C3B 8805  41.509  42.682   7.934
  373POPC   C4B 8806  41.362  42.947   7.617
  374POPC   NC3 8807  35.468  37.974   9.409
  374POPC   PO4 8808  35.144  37.376   9.541
  374POPC   GL1 8809  35.153  37.588   9.132
  374POPC   GL2 8810  35.053  37.929   9.119
  374POPC   C1A 8811  35.458  37.658   8.783
  374POPC   D2A 8812  35.708  37.834   8.440
  374POPC   C3A 8813  35.614  37.630   8.054
  374POPC   C4A 8814  35.542  37.745   7.650
  374POPC   C1B 8815  34.972  37.805   8.680
  374POPC   C2B 8816  35.117  37.718   8.261
  374POPC   C3B 8817  35.043  37.812   7.832
  374POPC   C4B 8818  35.079  37.685   7.404
  375POPC   NC3 8819  12.563   4.790   9.350
  375POPC   PO4 8820  12.958   5.251   9.641
  375POPC   GL1 8821  12.919   5.142   9.204
  375POPC   GL2 8822  13.208   4.969   9.109
  375POPC   C1A 8823  12.856   5.305   8.790
  375POPC   D2A 8824  12.995   5.260   8.378
  375POPC   C3A 8825  12.759   5.271   8.047
  375POPC   C4A 8826  12.862   5.152   7.675
  375POPC   C1B 8827  13.036   4.838   8.715
  375POPC   C2B 8828  12.833   4.774   8.324
  375POPC   C3B 8829  12.956   4.718   7.929
  375POPC   C4B 8830  12.756   4.628   7.553
  376POPC   NC3 8831   3.072  40.081   9.642
  376POPC   PO4 8832   2.522  40.096   9.329
  376POPC   GL1 8833   2.870  39.960   9.126
  376POPC   GL2 8834   2.774  40.140   8.848
  376POPC   C1A 8835   2.813  39.650   8.763
  376POPC   D2A 8836   2.570  39.860   8.435
  376POPC   C3A 8837   2.848  39.892   8.084
  376POPC   C4A 8838   2.774  39.819   7.673
  376POPC   C1B 8839   2.512  40.480   8.745
  376POPC   C2B 8840   2.326  40.484   8.366
  376POPC   C3B 8841   2.562  40.311   8.080
  376POPC   C4B 8842   2.511  40.252   7.688
  377POPC   NC3 8843   3.280   4.255   9.355
  377POPC   PO4 8844   3.592   4.729   9.695
  377POPC   GL1 8845   3.760   4.484   9.259
  377POPC   GL2 8846   3.525   4.438   8.976
  377POPC   C1A 8847   3.961   4.499   8.768
  377POPC   D2A 8848   3.700   4.375   8.374
  377POPC   C3A 8849   3.870   4.364   7.931
  377POPC   C4A 8850   3.709   4.496   7.520
  377POPC   C1B 8851   3.323   4.142   8.706
  377POPC   C2B 8852   3.203   4.200   8.309
  377POPC   C3B 8853   3.382   4.263   7.942
  377POPC   C4B 8854   3.275   4.168   7.535
  378POPC   NC3 8855  12.060  23.954   9.596
  378POPC   PO4 8856  12.203  23.291   9.596
  378POPC   GL1 8857  12.085  23.592   9.226
  378POPC   GL2 8858  12.338  23.877   9.166
  378POPC   C1A 8859  11.816  23.672   8.833
  378POPC   D2A 8860  11.906  23.941   8.473
  378POPC   C3A 8861  11.820  23.703   8.141
  378POPC   C4A 8862  11.762  23.436   7.806
  378POPC   C1B 8863  12.304  23.717   8.733
  378POPC   C2B 8864  12.344  23.786   8.276
  378POPC   C3B 8865  12.223  23.788   7.835
  378POPC   C4B 8866  12.420  23.451   7.515
  379POPC   NC3 8867  13.628  25.660   9.395
  379POPC   PO4 8868  13.378  25.127   9.588
  379POPC   GL1 8869  13.572  25.178   9.151
  379POPC   GL2 8870  13.401  24.860   9.123
  379POPC   C1A 8871  13.758  25.398   8.741
  379POPC   D2A 8872  13.867  25.304   8.287
  379POPC   C3A 8873  13.712  25.507   7.901
  379POPC   C4A 8874  13.769  25.331   7.474
  379POPC   C1B 8875  13.330  24.785   8.704
  379POPC   C2B 8876  13.446  24.907   8.286
  379POPC   C3B 8877  13.496  25.057   7.884
  379POPC   C4B 8878  13.396  24.937   7.406
  380POPC   NC3 8879   9.276  31.649   9.548
  380POPC   PO4 8880   8.651  31.503   9.528
  380POPC   GL1 8881   8.904  31.414   9.158
  380POPC   GL2 8882   9.197  31.641   9.062
  380POPC   C1A 8883   8.997  31.331   8.722
  380POPC   D2A 8884   8.823  31.477   8.359
  380POPC   C3A 8885   8.985  31.341   7.991
  380POPC   C4A 8886   8.897  31.499   7.586
  380POPC   C1B 8887   9.291  31.854   8.688
  380POPC   C2B 8888   9.311  31.674   8.261
  380POPC   C3B 8889   9.284  31.739   7.814
  380POPC   C4B 8890   9.179  31.856   7.367
  381POPC   NC3 8891   3.969   3.157   9.418
  381POPC   PO4 8892   4.488   2.737   9.404
  381POPC   GL1 8893   4.162   2.713   9.104
  381POPC   GL2 8894   3.997   2.417   9.135
  381POPC   C1A 8895   4.270   2.557   8.691
  381POPC   D2A 8896   4.462   2.607   8.289
  381POPC   C3A 8897   4.358   2.921   8.074
  381POPC   C4A 8898   4.249   2.883   7.679
  381POPC   C1B 8899   3.824   2.326   8.716
  381POPC   C2B 8900   3.965   2.461   8.284
  381POPC   C3B 8901   4.119   2.434   7.861
  381POPC   C4B 8902   3.969   2.517   7.391
  382POPC   NC3 8903  12.234  44.757   9.694
  382POPC   PO4 8904  11.858  44.359   9.677
  382POPC   GL1 8905  11.916  44.513   9.252
  382POPC   GL2 8906  11.906  44.870   9.172
  382POPC   C1A 8907  11.857  44.472   8.771
  382POPC   D2A 8908  12.101  44.585   8.385
  382POPC   C3A 8909  12.046  44.585   7.925
  382POPC   C4A 8910  12.412  44.733   7.655
  382POPC   C1B 8911  11.882  44.970   8.682
  382POPC   C2B 8912  11.855  44.996   8.196
  382POPC   C3B 8913  11.985   0.053   7.733
  382POPC   C4B 8914  11.981  44.982   7.289
  383POPC   NC3 8915  36.768  11.756   9.518
  383POPC   PO4 8916  37.320  11.516   9.224
  383POPC   GL1 8917  37.044  11.261   9.070
  383POPC   GL2 8918  36.770  11.480   9.092
  383POPC   C1A 8919  37.005  11.256   8.639
  383POPC   D2A 8920  37.248  11.314   8.273
  383POPC   C3A 8921  36.970  11.121   8.002
  383POPC   C4A 8922  36.595  11.020   7.761
  383POPC   C1B 8923  36.740  11.711   8.714
  383POPC   C2B 8924  36.578  11.601   8.303
  383POPC   C3B 8925  36.691  11.519   7.875
  383POPC   C4B 8926  37.093  11.553   7.733
  384POPC   NC3 8927  24.747  26.246  10.081
  384POPC   PO4 8928  25.326  26.330   9.659
  384POPC   GL1 8929  25.243  26.285   9.156
  384POPC   GL2 8930  24.980  26.025   9.171
  384POPC   C1A 8931  25.124  26.185   8.687
  384POPC   D2A 8932  25.354  26.162   8.284
  384POPC   C3A 8933  25.187  26.301   7.884
  384POPC   C4A 8934  25.101  26.196   7.450
  384POPC   C1B 8935  25.236  25.744   8.889
  384POPC   C2B 8936  25.189  25.694   8.417
  384POPC   C3B 8937  25.230  25.785   7.948
  384POPC   C4B 8938  25.124  25.637   7.522
  385POPC   NC3 8939  40.839   0.509   9.434
  385POPC   PO4 8940  40.514  44.915   9.397
  385POPC   GL1 8941  40.765   0.148   9.076
  385POPC   GL2 8942  41.071   0.018   9.040
  385POPC   C1A 8943  40.897   0.536   8.781
  385POPC   D2A 8944  41.179   0.669   8.395
  385POPC   C3A 8945  40.935   0.584   7.991
  385POPC   C4A 8946  40.536   0.364   7.891
  385POPC   C1B 8947  41.005   0.076   8.611
  385POPC   C2B 8948  41.172   0.187   8.233
  385POPC   C3B 8949  40.988   0.096   7.850
  385POPC   C4B 8950  40.829   0.277   7.480
  386POPC   NC3 8951  39.837  11.576   9.881
  386POPC   PO4 8952  40.277  11.658   9.311
  386POPC   GL1 8953  40.010  11.347   9.046
  386POPC   GL2 8954  39.757  11.039   9.058
  386POPC   C1A 8955  40.038  11.240   8.635
  386POPC   D2A 8956  40.004  11.051   8.257
  386POPC   C3A 8957  39.799  11.285   7.938
  386POPC   C4A 8958  40.192  11.424   7.802
  386POPC   C1B 8959  39.693  10.825   8.638
  386POPC   C2B 8960  39.553  10.833   8.203
  386POPC   C3B 8961  39.812  10.768   7.846
  386POPC   C4B 8962  39.784  11.017   7.491
  387POPC   NC3 8963  36.638  31.436   9.530
  387POPC   PO4 8964  37.326  31.574   9.405
  387POPC   GL1 8965  36.991  31.375   9.146
  387POPC   GL2 8966  36.745  31.662   9.102
  387POPC   C1A 8967  36.813  31.230   8.740
  387POPC   D2A 8968  36.538  31.396   8.410
  387POPC   C3A 8969  36.662  31.186   8.042
  387POPC   C4A 8970  36.801  31.284   7.644
  387POPC   C1B 8971  36.957  31.738   8.747
  387POPC   C2B 8972  36.772  31.850   8.372
  387POPC   C3B 8973  36.786  31.680   7.991
  387POPC   C4B 8974  36.588  31.828   7.664
  388POPC   NC3 8975  24.792  14.341   9.131
  388POPC   PO4 8976  24.394  14.526   9.616
  388POPC   GL1 8977  24.255  14.227   9.235
  388POPC   GL2 8978  24.117  14.514   9.099
  388POPC   C1A 8979  24.266  14.036   8.770
  388POPC   D2A 8980  24.313  14.144   8.285
  388POPC   C3A 8981  24.702  14.358   8.101
  388POPC   C4A 8982  24.901  14.406   7.684
  388POPC   C1B 8983  24.109  14.485   8.661
  388POPC   C2B 8984  24.318  14.664   8.327
  388POPC   C3B 8985  24.288  14.562   7.914
  388POPC   C4B 8986  24.411  14.304   7.595
  389POPC   NC3 8987  18.139  18.867   9.448
  389POPC   PO4 8988  18.682  19.268   9.225
  389POPC   GL1 8989  18.304  19.131   9.040
  389POPC   GL2 8990  18.350  18.768   9.003
  389POPC   C1A 8991  18.315  19.086   8.598
  389POPC   D2A 8992  18.472  19.370   8.314
  389POPC   C3A 8993  18.420  19.137   7.982
  389POPC   C4A 8994  18.204  19.235   7.609
  389POPC   C1B 8995  17.963  18.766   8.801
  389POPC   C2B 8996  17.870  18.863   8.409
  389POPC   C3B 8997  17.975  18.903   7.997
  389POPC   C4B 8998  18.269  18.745   7.679
  390POPC   NC3 8999  14.144   4.653   9.886
  390POPC   PO4 9000  14.617   4.135   9.675
  390POPC   GL1 9001  14.440   4.363   9.312
  390POPC   GL2 9002  14.506   4.114   9.111
  390POPC   C1A 9003  14.287   4.445   8.828
  390POPC   D2A 9004  14.490   4.620   8.416
  390POPC   C3A 9005  14.385   4.515   7.961
  390POPC   C4A 9006  14.548   4.644   7.511
  390POPC   C1B 9007  14.506   3.999   8.740
  390POPC   C2B 9008  14.331   4.129   8.355
  390POPC   C3B 9009  14.532   4.034   7.987
  390POPC   C4B 9010  14.601   4.131   7.583
  391POPC   NC3 9011  42.987  27.719   9.537
  391POPC   PO4 9012  43.505  27.220   9.437
  391POPC   GL1 9013  43.235  27.472   9.161
  391POPC   GL2 9014  43.250  27.823   9.080
  391POPC   C1A 9015  42.946  27.435   8.814
  391POPC   D2A 9016  42.880  27.232   8.380
  391POPC   C3A 9017  43.053  27.453   8.016
  391POPC   C4A 9018  43.060  27.506   7.539
  391POPC   C1B 9019  42.983  27.934   8.696
  391POPC   C2B 9020  42.772  27.890   8.277
  391POPC   C3B 9021  42.901  27.884   7.843
  391POPC   C4B 9022  43.072  28.004   7.420
  392POPC   NC3 9023  11.510  16.637   9.600
  392POPC   PO4 9024  11.250  17.258   9.339
  392POPC   GL1 9025  11.308  16.849   9.113
  392POPC   GL2 9026  11.476  16.509   9.113
  392POPC   C1A 9027  11.398  16.758   8.664
  392POPC   D2A 9028  11.569  16.922   8.294
  392POPC   C3A 9029  11.417  16.930   7.857
  392POPC   C4A 9030  11.509  17.100   7.440
  392POPC   C1B 9031  11.726  16.386   8.741
  392POPC   C2B 9032  11.625  16.384   8.265
  392POPC   C3B 9033  11.387  16.413   7.877
  392POPC   C4B 9034  11.223  16.135   7.519
  393POPC   NC3 9035  35.849  19.379   9.291
  393POPC   PO4 9036  36.399  19.189   9.429
  393POPC   GL1 9037  36.453  19.040   9.019
  393POPC   GL2 9038  36.291  18.744   9.090
  393POPC   C1A 9039  36.409  19.035   8.568
  393POPC   D2A 9040  36.013  19.060   8.336
  393POPC   C3A 9041  35.993  18.796   7.972
  393POPC   C4A 9042  36.239  19.125   7.797
  393POPC   C1B 9043  36.084  18.648   8.719
  393POPC   C2B 9044  36.233  18.523   8.335
  393POPC   C3B 9045  36.518  18.688   8.030
  393POPC   C4B 9046  36.372  18.692   7.606
  394POPC   NC3 9047  12.644   8.130   9.383
  394POPC   PO4 9048  13.150   8.500   9.277
  394POPC   GL1 9049  13.112   8.077   9.105
  394POPC   GL2 9050  12.798   8.132   8.914
  394POPC   C1A 9051  13.158   7.884   8.695
  394POPC   D2A 9052  12.823   7.965   8.420
  394POPC   C3A 9053  12.833   8.073   7.995
  394POPC   C4A 9054  12.601   8.344   7.753
  394POPC   C1B 9055  12.939   8.445   8.607
  394POPC   C2B 9056  12.927   8.576   8.170
  394POPC   C3B 9057  13.147   8.503   7.803
  394POPC   C4B 9058  13.047   8.292   7.407
  395POPC   NC3 9059  30.883   9.282   9.476
  395POPC   PO4 9060  30.358   8.738   9.437
  395POPC   GL1 9061  30.588   9.038   9.164
  395POPC   GL2 9062  30.969   8.950   9.105
  395POPC   C1A 9063  30.682   9.165   8.751
  395POPC   D2A 9064  30.716   8.835   8.474
  395POPC   C3A 9065  30.533   8.808   8.083
  395POPC   C4A 9066  30.458   9.145   7.779
  395POPC   C1B 9067  31.190   8.833   8.734
  395POPC   C2B 9068  31.164   8.653   8.328
  395POPC   C3B 9069  31.067   8.891   7.945
  395POPC   C4B 9070  31.225   8.788   7.523
  396POPC   NC3 9071  13.934   4.497   9.383
  396POPC   PO4 9072  13.297   4.785   9.569
  396POPC   GL1 9073  13.464   4.522   9.185
  396POPC   GL2 9074  13.473   4.160   9.212
  396POPC   C1A 9075  13.728   4.396   8.794
  396POPC   D2A 9076  13.978   4.535   8.428
  396POPC   C3A 9077  13.831   4.367   8.056
  396POPC   C4A 9078  13.468   4.596   7.864
  396POPC   C1B 9079  13.466   3.951   8.802
  396POPC   C2B 9080  13.573   4.089   8.416
  396POPC   C3B 9081  13.517   3.957   8.000
  396POPC   C4B 9082  13.633   4.172   7.621
  397POPC   NC3 9083   4.190  38.825   9.457
  397POPC   PO4 9084   4.700  39.179   9.433
  397POPC   GL1 9085   4.565  39.007   9.063
  397POPC   GL2 9086   4.191  39.020   9.001
  397POPC   C1A 9087   4.553  38.979   8.642
  397POPC   D2A 9088   4.751  39.179   8.325
  397POPC   C3A 9089   4.689  39.074   7.915
  397POPC   C4A 9090   4.690  39.299   7.498
  397POPC   C1B 9091   4.080  39.163   8.611
  397POPC   C2B 9092   4.236  39.078   8.211
  397POPC   C3B 9093   4.249  39.266   7.785
  397POPC   C4B 9094   4.187  39.371   7.359
  398POPC   NC3 9095  19.492  44.672   9.556
  398POPC   PO4 9096  18.786  44.777   9.548
  398POPC   GL1 9097  19.083  44.660   9.225
  398POPC   GL2 9098  18.834  44.591   9.047
  398POPC   C1A 9099  19.258  44.801   8.818
  398POPC   D2A 9100  19.204   0.088   8.469
  398POPC   C3A 9101  19.382  44.930   8.075
  398POPC   C4A 9102  19.225  44.675   7.732
  398POPC   C1B 9103  18.861  44.617   8.614
  398POPC   C2B 9104  18.991  44.629   8.212
  398POPC   C3B 9105  18.723  44.749   7.876
  398POPC   C4B 9106  18.788  44.691   7.419
  399POPC   NC3 9107  40.480  13.355   9.323
  399POPC   PO4 9108  40.966  13.633   9.702
  399POPC   GL1 9109  40.858  13.661   9.205
  399POPC   GL2 9110  40.885  13.338   8.982
  399POPC   C1A 9111  40.873  13.774   8.748
  399POPC   D2A 9112  40.992  13.459   8.453
  399POPC   C3A 9113  40.814  13.489   8.075
  399POPC   C4A 9114  40.687  13.696   7.704
  399POPC   C1B 9115  40.535  13.372   8.671
  399POPC   C2B 9116  40.325  13.411   8.269
  399POPC   C3B 9117  40.459  13.227   7.851
  399POPC   C4B 9118  40.800  13.184   7.555
  400POPC   NC3 9119  44.906  38.924   9.327
  400POPC   PO4 9120  44.538  39.374   9.707
  400POPC   GL1 9121  44.576  39.355   9.217
  400POPC   GL2 9122  44.585  39.036   8.968
  400POPC   C1A 9123  44.719  39.484   8.799
  400POPC   D2A 9124  44.627  39.201   8.447
  400POPC   C3A 9125  44.740  39.290   8.047
  400POPC   C4A 9126  44.573  39.522   7.776
  400POPC   C1B 9127   0.035  39.065   8.724
  400POPC   C2B 9128   0.067  38.965   8.279
  400POPC   C3B 9129   0.035  38.892   7.867
  400POPC   C4B 9130  44.962  39.200   7.567
  401POPC   NC3 9131  22.427  12.585   9.526
  401POPC   PO4 9132  22.945  12.135   9.628
  401POPC   GL1 9133  22.918  12.023   9.185
  401POPC   GL2 9134  22.663  12.262   8.982
  401POPC   C1A 9135  23.087  12.035   8.738
  401POPC   D2A 9136  22.755  12.263   8.490
  401POPC   C3A 9137  22.799  12.307   8.082
  401POPC   C4A 9138  22.933  12.095   7.694
  401POPC   C1B 9139  22.639  11.821   8.840
  401POPC   C2B 9140  22.776  11.690   8.478
  401POPC   C3B 9141  22.641  11.825   8.118
  401POPC   C4B 9142  22.641  11.686   7.730
  402POPC   NC3 9143  29.814  38.990   9.536
  402POPC   PO4 9144  29.720  39.674   9.705
  402POPC   GL1 9145  29.872  39.479   9.285
  402POPC   GL2 9146  30.188  39.558   9.100
  402POPC   C1A 9147  29.742  39.398   8.836
  402POPC   D2A 9148  29.756  39.134   8.461
  402POPC   C3A 9149  29.605  39.253   8.074
  402POPC   C4A 9150  29.872  39.297   7.726
  402POPC   C1B 9151  30.222  39.381   8.653
  402POPC   C2B 9152  30.168  39.279   8.200
  402POPC   C3B 9153  30.370  39.182   7.803
  402POPC   C4B 9154  30.230  39.281   7.365
  403POPC   NC3 9155   6.501  34.252   9.354
  403POPC   PO4 9156   7.052  34.620   9.514
  403POPC   GL1 9157   6.831  34.627   9.120
  403POPC   GL2 9158   6.544  34.534   8.937
  403POPC   C1A 9159   6.928  34.879   8.758
  403POPC   D2A 9160   6.771  34.888   8.346
  403POPC   C3A 9161   6.902  34.525   8.077
  403POPC   C4A 9162   6.816  34.537   7.640
  403POPC   C1B 9163   6.261  34.641   8.633
  403POPC   C2B 9164   6.308  34.679   8.209
  403POPC   C3B 9165   6.360  34.709   7.800
  403POPC   C4B 9166   6.006  34.731   7.549
  404POPC   NC3 9167  17.906  21.376   9.333
  404POPC   PO4 9168  18.428  21.765   9.439
  404POPC   GL1 9169  18.412  21.430   9.168
  404POPC   GL2 9170  18.267  21.677   8.964
  404POPC   C1A 9171  18.532  21.319   8.739
  404POPC   D2A 9172  18.487  21.474   8.320
  404POPC   C3A 9173  18.482  21.193   7.976
  404POPC   C4A 9174  18.073  21.045   7.812
  404POPC   C1B 9175  18.015  21.465   8.676
  404POPC   C2B 9176  17.832  21.670   8.348
  404POPC   C3B 9177  18.024  21.481   8.043
  404POPC   C4B 9178  18.178  21.503   7.627
  405POPC   NC3 9179  17.881  28.153   9.543
  405POPC   PO4 9180  18.492  28.584   9.532
  405POPC   GL1 9181  18.273  28.297   9.201
  405POPC   GL2 9182  17.961  28.390   9.104
  405POPC   C1A 9183  18.224  28.188   8.737
  405POPC   D2A 9184  18.523  28.265   8.391
  405POPC   C3A 9185  18.395  28.117   7.981
  405POPC   C4A 9186  18.518  28.255   7.590
  405POPC   C1B 9187  17.854  28.747   8.810
  405POPC   C2B 9188  17.997  28.761   8.384
  405POPC   C3B 9189  17.921  28.692   7.949
  405POPC   C4B 9190  18.018  28.345   7.690
  406POPC   NC3 9191  19.663  26.775   9.823
  406POPC   PO4 9192  20.262  26.788   9.604
  406POPC   GL1 9193  19.947  26.724   9.216
  406POPC   GL2 9194  19.650  26.545   9.150
  406POPC   C1A 9195  19.842  26.885   8.795
  406POPC   D2A 9196  20.096  27.136   8.538
  406POPC   C3A 9197  20.035  27.022   8.114
  406POPC   C4A 9198  20.245  26.759   7.842
  406POPC   C1B 9199  19.429  26.602   8.733
  406POPC   C2B 9200  19.537  26.616   8.279
  406POPC   C3B 9201  19.722  26.685   7.846
  406POPC   C4B 9202  19.625  26.967   7.469
  407POPC   NC3 9203  19.408  31.333   9.488
  407POPC   PO4 9204  19.814  31.777   9.442
  407POPC   GL1 9205  19.841  31.369   9.172
  407POPC   GL2 9206  19.535  31.241   9.003
  407POPC   C1A 9207  19.970  31.191   8.749
  407POPC   D2A 9208  19.846  31.174   8.295
  407POPC   C3A 9209  20.027  31.473   7.977
  407POPC   C4A 9210  20.080  31.431   7.526
  407POPC   C1B 9211  19.692  31.618   8.752
  407POPC   C2B 9212  19.814  31.776   8.346
  407POPC   C3B 9213  19.604  31.759   7.934
  407POPC   C4B 9214  19.544  31.516   7.529
  408POPC   NC3 9215  44.393  44.935   9.455
  408POPC   PO4 9216  45.000   0.296   9.537
  408POPC   GL1 9217  44.759   0.309   9.158
  408POPC   GL2 9218  44.840   0.671   9.027
  408POPC   C1A 9219  44.629   0.299   8.714
  408POPC   D2A 9220  44.739   0.645   8.470
  408POPC   C3A 9221  44.917   0.577   8.049
  408POPC   C4A 9222  44.745   0.556   7.626
  408POPC   C1B 9223  44.411   0.695   8.911
  408POPC   C2B 9224  44.234   0.569   8.509
  408POPC   C3B 9225  44.402   0.438   8.116
  408POPC   C4B 9226  44.247   0.574   7.726
  409POPC   NC3 9227  32.580  14.327   9.572
  409POPC   PO4 9228  32.024  14.049   9.761
  409POPC   GL1 9229  32.180  14.110   9.273
  409POPC   GL2 9230  32.366  14.438   9.143
  409POPC   C1A 9231  32.155  14.192   8.770
  409POPC   D2A 9232  32.433  14.348   8.409
  409POPC   C3A 9233  32.315  14.283   7.962
  409POPC   C4A 9234  32.558  13.961   7.712
  409POPC   C1B 9235  32.338  14.687   8.775
  409POPC   C2B 9236  32.132  14.745   8.384
  409POPC   C3B 9237  31.983  14.744   7.991
  409POPC   C4B 9238  32.368  14.762   7.786
  410POPC   NC3 9239  15.621  34.707   9.372
  410POPC   PO4 9240  16.250  34.442   9.577
  410POPC   GL1 9241  16.103  34.570   9.216
  410POPC   GL2 9242  15.934  34.301   9.175
  410POPC   C1A 9243  16.165  34.656   8.803
  410POPC   D2A 9244  16.076  34.510   8.383
  410POPC   C3A 9245  15.910  34.880   8.134
  410POPC   C4A 9246  16.034  35.059   7.698
  410POPC   C1B 9247  15.711  34.429   8.810
  410POPC   C2B 9248  15.532  34.406   8.424
  410POPC   C3B 9249  15.686  34.397   8.031
  410POPC   C4B 9250  15.676  34.712   7.706
  411POPC   NC3 9251  43.804  43.204   9.463
  411POPC   PO4 9252  44.200  42.656   9.474
  411POPC   GL1 9253  43.926  42.909   9.069
  411POPC   GL2 9254  43.949  43.303   8.990
  411POPC   C1A 9255  43.562  43.073   8.755
  411POPC   D2A 9256  43.606  43.324   8.340
  411POPC   C3A 9257  43.770  43.068   7.990
  411POPC   C4A 9258  43.706  42.977   7.533
  411POPC   C1B 9259  44.038  43.068   8.594
  411POPC   C2B 9260  44.227  42.966   8.230
  411POPC   C3B 9261  44.253  43.302   7.972
  411POPC   C4B 9262  43.999  43.378   7.649
  412POPC   NC3 9263   4.328   7.275   9.520
  412POPC   PO4 9264   4.091   7.903   9.452
  412POPC   GL1 9265   4.168   7.830   9.086
  412POPC   GL2 9266   4.432   7.625   9.151
  412POPC   C1A 9267   4.060   7.528   8.794
  412POPC   D2A 9268   4.258   7.278   8.491
  412POPC   C3A 9269   4.131   7.323   8.071
  412POPC   C4A 9270   4.046   7.667   7.764
  412POPC   C1B 9271   4.654   7.334   8.913
  412POPC   C2B 9272   4.779   7.304   8.506
  412POPC   C3B 9273   4.631   7.213   8.127
  412POPC   C4B 9274   4.532   7.453   7.775
  413POPC   NC3 9275  17.300  27.199   9.439
  413POPC   PO4 9276  17.239  27.878   9.469
  413POPC   GL1 9277  17.619  27.625   9.270
  413POPC   GL2 9278  17.907  27.845   9.130
  413POPC   C1A 9279  17.649  27.277   8.910
  413POPC   D2A 9280  17.319  27.152   8.611
  413POPC   C3A 9281  17.285  27.419   8.228
  413POPC   C4A 9282  17.407  27.497   7.790
  413POPC   C1B 9283  17.565  27.777   8.800
  413POPC   C2B 9284  17.571  27.826   8.396
  413POPC   C3B 9285  17.325  27.952   8.064
  413POPC   C4B 9286  17.188  27.936   7.661
  414POPC   NC3 9287  26.963  11.786   9.844
  414POPC   PO4 9288  27.562  11.817   9.535
  414POPC   GL1 9289  27.769  11.808   9.154
  414POPC   GL2 9290  27.648  12.117   9.051
  414POPC   C1A 9291  27.897  11.815   8.741
  414POPC   D2A 9292  27.660  11.866   8.364
  414POPC   C3A 9293  27.802  11.935   7.936
  414POPC   C4A 9294  27.511  11.774   7.617
  414POPC   C1B 9295  27.645  12.309   8.621
  414POPC   C2B 9296  27.631  12.370   8.162
  414POPC   C3B 9297  27.520  12.323   7.704
  414POPC   C4B 9298  27.635  12.531   7.333
  415POPC   NC3 9299  24.805  12.568   9.565
  415POPC   PO4 9300  24.363  13.010   9.466
  415POPC   GL1 9301  24.422  12.642   9.191
  415POPC   GL2 9302  24.728  12.766   9.110
  415POPC   C1A 9303  24.526  12.483   8.754
  415POPC   D2A 9304  24.522  12.675   8.360
  415POPC   C3A 9305  24.287  12.560   8.016
  415POPC   C4A 9306  24.263  12.735   7.613
  415POPC   C1B 9307  24.532  13.042   8.797
  415POPC   C2B 9308  24.527  13.208   8.368
  415POPC   C3B 9309  24.503  13.033   7.961
  415POPC   C4B 9310  24.673  13.046   7.518
  416POPC   NC3 9311  23.649  40.304   9.124
  416POPC   PO4 9312  23.449  39.891   9.641
  416POPC   GL1 9313  23.443  39.756   9.150
  416POPC   GL2 9314  23.171  39.604   9.023
  416POPC   C1A 9315  23.662  39.845   8.702
  416POPC   D2A 9316  23.600  39.919   8.260
  416POPC   C3A 9317  23.929  40.070   7.972
  416POPC   C4A 9318  23.696  40.160   7.589
  416POPC   C1B 9319  23.400  39.443   8.684
  416POPC   C2B 9320  23.541  39.420   8.294
  416POPC   C3B 9321  23.383  39.582   7.889
  416POPC   C4B 9322  23.428  39.498   7.435
  417POPC   NC3 9323  35.062  32.116   9.457
  417POPC   PO4 9324  35.695  32.277   9.675
  417POPC   GL1 9325  35.453  32.009   9.175
  417POPC   GL2 9326  35.177  32.280   9.017
  417POPC   C1A 9327  35.411  31.953   8.700
  417POPC   D2A 9328  35.586  31.845   8.288
  417POPC   C3A 9329  35.324  31.932   7.926
  417POPC   C4A 9330  35.133  32.144   7.560
  417POPC   C1B 9331  35.251  32.449   8.657
  417POPC   C2B 9332  35.233  32.269   8.297
  417POPC   C3B 9333  35.449  32.414   7.976
  417POPC   C4B 9334  35.358  32.616   7.669
  418POPC   NC3 9335   7.911   7.730   9.501
  418POPC   PO4 9336   8.373   7.256   9.481
  418POPC   GL1 9337   8.157   7.439   9.165
  418POPC   GL2 9338   8.372   7.737   9.147
  418POPC   C1A 9339   7.957   7.697   8.843
  418POPC   D2A 9340   8.142   7.873   8.465
  418POPC   C3A 9341   8.049   7.569   8.163
  418POPC   C4A 9342   8.044   7.312   7.801
  418POPC   C1B 9343   8.408   7.512   8.724
  418POPC   C2B 9344   8.468   7.285   8.355
  418POPC   C3B 9345   8.520   7.440   7.941
  418POPC   C4B 9346   8.523   7.479   7.516
  419POPC   NC3 9347  26.267  27.373   9.669
  419POPC   PO4 9348  25.750  27.676   9.324
  419POPC   GL1 9349  26.110  27.574   9.144
  419POPC   GL2 9350  26.178  27.897   9.059
  419POPC   C1A 9351  26.096  27.476   8.707
  419POPC   D2A 9352  26.020  27.307   8.288
  419POPC   C3A 9353  26.158  27.436   7.915
  419POPC   C4A 9354  25.840  27.638   7.724
  419POPC   C1B 9355  26.396  28.068   8.776
  419POPC   C2B 9356  26.228  27.863   8.406
  419POPC   C3B 9357  26.153  27.930   8.019
  419POPC   C4B 9358  26.222  28.030   7.608
  420POPC   NC3 9359  37.505  25.967   9.675
  420POPC   PO4 9360  38.098  26.029   9.425
  420POPC   GL1 9361  37.709  26.064   9.184
  420POPC   GL2 9362  37.627  25.730   9.122
  420POPC   C1A 9363  37.667  26.093   8.728
  420POPC   D2A 9364  38.024  26.129   8.415
  420POPC   C3A 9365  37.922  26.253   7.990
  420POPC   C4A 9366  37.860  26.445   7.592
  420POPC   C1B 9367  37.766  25.611   8.699
  420POPC   C2B 9368  37.672  25.770   8.307
  420POPC   C3B 9369  37.488  25.950   7.955
  420POPC   C4B 9370  37.634  25.995   7.563
  421POPC   NC3 9371  20.587  17.029   9.876
  421POPC   PO4 9372  20.704  17.703   9.676
  421POPC   GL1 9373  20.541  17.685   9.229
  421POPC   GL2 9374  20.320  17.428   9.145
  421POPC   C1A 9375  20.671  17.796   8.793
  421POPC   D2A 9376  20.822  17.556   8.421
  421POPC   C3A 9377  20.723  17.713   7.999
  421POPC   C4A 9378  20.326  17.683   7.747
  421POPC   C1B 9379  20.344  17.422   8.705
  421POPC   C2B 9380  20.324  17.475   8.275
  421POPC   C3B 9381  20.160  17.233   7.970
  421POPC   C4B 9382  20.455  16.975   7.839
  422POPC   NC3 9383  31.988  12.178   9.553
  422POPC   PO4 9384  32.648  11.903   9.541
  422POPC   GL1 9385  32.371  11.837   9.276
  422POPC   GL2 9386  32.345  12.128   9.170
  422POPC   C1A 9387  32.408  11.774   8.812
  422POPC   D2A 9388  32.324  11.959   8.407
  422POPC   C3A 9389  32.245  11.757   8.035
  422POPC   C4A 9390  32.252  11.949   7.600
  422POPC   C1B 9391  32.152  12.234   8.806
  422POPC   C2B 9392  31.965  12.314   8.392
  422POPC   C3B 9393  31.977  12.187   7.949
  422POPC   C4B 9394  31.875  12.265   7.495
  423POPC   NC3 9395  16.522   6.196   9.334
  423POPC   PO4 9396  16.985   5.935   9.742
  423POPC   GL1 9397  17.005   5.694   9.314
  423POPC   GL2 9398  16.726   5.759   9.119
  423POPC   C1A 9399  17.126   5.655   8.838
  423POPC   D2A 9400  17.059   5.847   8.406
  423POPC   C3A 9401  16.863   5.985   7.997
  423POPC   C4A 9402  17.130   6.153   7.664
  423POPC   C1B 9403  16.826   6.064   8.796
  423POPC   C2B 9404  16.658   6.261   8.435
  423POPC   C3B 9405  16.336   6.352   8.138
  423POPC   C4B 9406  16.431   6.283   7.726
  424POPC   NC3 9407  34.529  13.014   9.691
  424POPC   PO4 9408  34.766  12.531   9.221
  424POPC   GL1 9409  34.738  12.916   8.997
  424POPC   GL2 9410  34.446  13.156   9.061
  424POPC   C1A 9411  34.752  12.945   8.569
  424POPC   D2A 9412  34.747  12.695   8.212
  424POPC   C3A 9413  34.419  12.811   7.947
  424POPC   C4A 9414  34.526  12.899   7.529
  424POPC   C1B 9415  34.630  13.418   8.718
  424POPC   C2B 9416  34.662  13.363   8.282
  424POPC   C3B 9417  34.784  13.182   7.914
  424POPC   C4B 9418  34.650  13.426   7.575
  425POPC   NC3 9419  29.511  32.753   9.505
  425POPC   PO4 9420  29.075  33.162   9.351
  425POPC   GL1 9421  28.953  32.945   9.021
  425POPC   GL2 9422  29.275  32.779   9.046
  425POPC   C1A 9423  28.802  33.103   8.614
  425POPC   D2A 9424  29.123  33.354   8.430
  425POPC   C3A 9425  29.123  33.330   8.004
  425POPC   C4A 9426  28.962  33.016   7.750
  425POPC   C1B 9427  29.237  32.860   8.611
  425POPC   C2B 9428  29.083  32.863   8.219
  425POPC   C3B 9429  29.293  32.677   7.874
  425POPC   C4B 9430  29.235  32.782   7.374
  426POPC   NC3 9431  12.506   7.462   9.596
  426POPC   PO4 9432  11.894   7.446   9.799
  426POPC   GL1 9433  12.073   7.548   9.337
  426POPC   GL2 9434  12.335   7.768   9.193
  426POPC   C1A 9435  12.082   7.408   8.921
  426POPC   D2A 9436  12.016   7.528   8.530
  426POPC   C3A 9437  11.945   7.292   8.167
  426POPC   C4A 9438  11.727   7.372   7.813
  426POPC   C1B 9439  12.479   7.699   8.754
  426POPC   C2B 9440  12.350   7.828   8.303
  426POPC   C3B 9441  12.433   7.711   7.878
  426POPC   C4B 9442  12.263   7.699   7.404
  427POPC   NC3 9443  37.136  18.077   9.444
  427POPC   PO4 9444  36.642  18.531   9.457
  427POPC   GL1 9445  36.771  18.594   9.065
  427POPC   GL2 9446  36.946  18.304   9.037
  427POPC   C1A 9447  36.620  18.575   8.699
  427POPC   D2A 9448  36.808  18.255   8.441
  427POPC   C3A 9449  36.964  18.370   8.049
  427POPC   C4A 9450  36.766  18.395   7.667
  427POPC   C1B 9451  37.229  18.114   8.761
  427POPC   C2B 9452  37.292  17.838   8.422
  427POPC   C3B 9453  37.415  17.941   7.992
  427POPC   C4B 9454  37.136  18.053   7.672
  428POPC   NC3 9455  33.136  38.392   9.641
  428POPC   PO4 9456  32.640  38.796   9.349
  428POPC   GL1 9457  32.854  38.464   9.016
  428POPC   GL2 9458  33.157  38.315   9.113
  428POPC   C1A 9459  33.075  38.548   8.649
  428POPC   D2A 9460  32.935  38.807   8.341
  428POPC   C3A 9461  32.998  38.632   7.973
  428POPC   C4A 9462  32.818  38.480   7.608
  428POPC   C1B 9463  33.443  38.191   8.791
  428POPC   C2B 9464  33.595  38.200   8.375
  428POPC   C3B 9465  33.468  38.035   7.981
  428POPC   C4B 9466  33.279  38.333   7.695
  429POPC   NC3 9467   3.685  17.166   9.506
  429POPC   PO4 9468   3.207  17.621   9.541
  429POPC   GL1 9469   3.359  17.641   9.137
  429POPC   GL2 9470   3.616  17.428   9.028
  429POPC   C1A 9471   3.229  17.663   8.701
  429POPC   D2A 9472   3.571  17.514   8.451
  429POPC   C3A 9473   3.674  17.706   8.049
  429POPC   C4A 9474   4.013  17.690   7.734
  429POPC   C1B 9475   3.217  17.196   8.893
  429POPC   C2B 9476   3.124  17.224   8.444
  429POPC   C3B 9477   3.359  17.228   8.076
  429POPC   C4B 9478   3.390  17.488   7.697
  430POPC   NC3 9479   5.472  32.792   9.498
  430POPC   PO4 9480   6.113  32.653   9.358
  430POPC   GL1 9481   5.845  32.955   9.183
  430POPC   GL2 9482   6.111  33.105   9.027
  430POPC   C1A 9483   5.626  33.096   8.826
  430POPC   D2A 9484   5.546  32.894   8.429
  430POPC   C3A 9485   5.690  33.175   8.122
  430POPC   C4A 9486   5.814  33.450   7.788
  430POPC   C1B 9487   6.028  32.828   8.682
  430POPC   C2B 9488   6.035  32.785   8.239
  430POPC   C3B 9489   5.973  32.922   7.790
  430POPC   C4B 9490   5.927  32.832   7.347
  431POPC   NC3 9491  37.552  22.107   9.423
  431POPC   PO4 9492  38.165  22.480   9.415
  431POPC   GL1 9493  37.919  22.230   9.112
  431POPC   GL2 9494  37.888  21.861   9.131
  431POPC   C1A 9495  37.675  22.121   8.720
  431POPC   D2A 9496  37.528  22.323   8.335
  431POPC   C3A 9497  37.598  22.118   7.932
  431POPC   C4A 9498  37.449  21.914   7.559
  431POPC   C1B 9499  38.067  21.790   8.755
  431POPC   C2B 9500  38.213  21.774   8.351
  431POPC   C3B 9501  37.988  21.777   7.986
  431POPC   C4B 9502  37.965  21.826   7.560
  432POPC   NC3 9503  35.984  38.881   9.374
  432POPC   PO4 9504  36.154  39.545   9.533
  432POPC   GL1 9505  36.310  39.283   9.200
  432POPC   GL2 9506  36.412  38.969   9.022
  432POPC   C1A 9507  36.134  39.322   8.779
  432POPC   D2A 9508  36.376  39.188   8.410
  432POPC   C3A 9509  36.176  39.345   8.033
  432POPC   C4A 9510  36.121  39.107   7.681
  432POPC   C1B 9511  36.050  38.824   8.753
  432POPC   C2B 9512  35.857  39.057   8.425
  432POPC   C3B 9513  35.788  38.955   8.037
  432POPC   C4B 9514  35.624  39.016   7.625
  433POPC   NC3 9515  10.697  26.723   9.537
  433POPC   PO4 9516  10.091  26.831   9.284
  433POPC   GL1 9517  10.341  27.102   9.102
  433POPC   GL2 9518  10.674  27.058   9.148
  433POPC   C1A 9519  10.409  26.973   8.703
  433POPC   D2A 9520  10.414  26.627   8.445
  433POPC   C3A 9521  10.345  26.853   8.098
  433POPC   C4A 9522  10.378  26.728   7.700
  433POPC   C1B 9523  10.823  26.700   8.883
  433POPC   C2B 9524  10.944  26.674   8.475
  433POPC   C3B 9525  10.812  26.623   8.052
  433POPC   C4B 9526  10.844  26.953   7.748
  434POPC   NC3 9527  35.532  31.006   9.472
  434POPC   PO4 9528  34.868  30.953   9.581
  434POPC   GL1 9529  35.120  30.886   9.175
  434POPC   GL2 9530  35.450  30.680   9.083
  434POPC   C1A 9531  35.242  31.005   8.753
  434POPC   D2A 9532  35.509  30.853   8.448
  434POPC   C3A 9533  35.323  30.958   8.072
  434POPC   C4A 9534  35.477  31.067   7.726
  434POPC   C1B 9535  35.247  30.490   8.695
  434POPC   C2B 9536  35.227  30.480   8.218
  434POPC   C3B 9537  35.457  30.523   7.791
  434POPC   C4B 9538  35.409  30.351   7.348
  435POPC   NC3 9539  40.533  28.158   9.299
  435POPC   PO4 9540  41.004  28.632   9.547
  435POPC   GL1 9541  40.780  28.597   9.151
  435POPC   GL2 9542  40.466  28.533   8.924
  435POPC   C1A 9543  40.960  28.574   8.753
  435POPC   D2A 9544  40.802  28.643   8.361
  435POPC   C3A 9545  40.810  28.264   8.186
  435POPC   C4A 9546  41.098  28.160   7.862
  435POPC   C1B 9547  40.248  28.221   8.666
  435POPC   C2B 9548  40.356  27.994   8.304
  435POPC   C3B 9549  40.369  28.164   7.921
  435POPC   C4B 9550  40.673  28.415   7.724
  436POPC   NC3 9551  12.326   2.361   9.507
  436POPC   PO4 9552  11.766   2.673   9.547
  436POPC   GL1 9553  11.893   2.643   9.135
  436POPC   GL2 9554  12.208   2.724   9.138
  436POPC   C1A 9555  12.014   2.673   8.685
  436POPC   D2A 9556  12.045   2.559   8.288
  436POPC   C3A 9557  11.870   2.804   8.032
  436POPC   C4A 9558  12.076   2.654   7.719
  436POPC   C1B 9559  12.415   2.960   8.811
  436POPC   C2B 9560  12.311   3.021   8.401
  436POPC   C3B 9561  12.405   2.896   8.011
  436POPC   C4B 9562  12.443   2.941   7.552
  437POPC   NC3 9563  36.278   7.667   9.423
  437POPC   PO4 9564  35.899   7.129   9.572
  437POPC   GL1 9565  35.996   7.346   9.145
  437POPC   GL2 9566  36.291   7.508   8.953
  437POPC   C1A 9567  35.849   7.534   8.711
  437POPC   D2A 9568  35.979   7.784   8.318
  437POPC   C3A 9569  36.158   7.535   7.956
  437POPC   C4A 9570  36.124   7.283   7.552
  437POPC   C1B 9571  36.351   7.455   8.517
  437POPC   C2B 9572  36.475   7.188   8.190
  437POPC   C3B 9573  36.601   7.274   7.812
  437POPC   C4B 9574  36.493   7.621   7.517
  438POPC   NC3 9575  21.224  24.331   9.602
  438POPC   PO4 9576  21.476  24.890   9.563
  438POPC   GL1 9577  21.361  24.642   9.161
  438POPC   GL2 9578  21.348  24.250   9.128
  438POPC   C1A 9579  21.494  24.800   8.737
  438POPC   D2A 9580  21.702  24.706   8.350
  438POPC   C3A 9581  21.485  24.860   7.996
  438POPC   C4A 9582  21.125  24.714   7.793
  438POPC   C1B 9583  21.252  24.348   8.723
  438POPC   C2B 9584  21.460  24.256   8.357
  438POPC   C3B 9585  21.467  24.334   7.935
  438POPC   C4B 9586  21.218  24.089   7.719
  439POPC   NC3 9587  39.694  19.088   9.460
  439POPC   PO4 9588  40.360  18.779   9.471
  439POPC   GL1 9589  40.209  18.962   9.134
  439POPC   GL2 9590  39.907  18.779   9.146
  439POPC   C1A 9591  39.992  19.147   8.790
  439POPC   D2A 9592  39.887  19.297   8.397
  439POPC   C3A 9593  40.210  19.262   8.123
  439POPC   C4A 9594  40.151  19.083   7.732
  439POPC   C1B 9595  39.607  18.836   8.871
  439POPC   C2B 9596  39.691  18.833   8.459
  439POPC   C3B 9597  39.947  18.782   8.134
  439POPC   C4B 9598  39.915  18.645   7.741
  440POPC   NC3 9599   7.524  22.230   9.586
  440POPC   PO4 9600   7.541  21.556   9.540
  440POPC   GL1 9601   7.397  21.879   9.236
  440POPC   GL2 9602   7.728  22.004   9.132
  440POPC   C1A 9603   7.266  22.138   8.864
  440POPC   D2A 9604   7.137  22.363   8.493
  440POPC   C3A 9605   7.294  22.242   8.080
  440POPC   C4A 9606   7.182  22.067   7.676
  440POPC   C1B 9607   7.766  22.124   8.680
  440POPC   C2B 9608   7.755  22.085   8.240
  440POPC   C3B 9609   7.746  22.060   7.784
  440POPC   C4B 9610   7.769  22.310   7.436
  441POPC   NC3 9611  13.480  11.133   9.903
  441POPC   PO4 9612  13.706  11.684   9.686
  441POPC   GL1 9613  13.643  11.358   9.329
  441POPC   GL2 9614  13.767  11.023   9.230
  441POPC   C1A 9615  13.665  11.438   8.870
  441POPC   D2A 9616  13.600  11.614   8.448
  441POPC   C3A 9617  13.662  11.395   8.062
  441POPC   C4A 9618  13.282  11.299   7.799
  441POPC   C1B 9619  13.491  10.963   8.861
  441POPC   C2B 9620  13.388  11.094   8.425
  441POPC   C3B 9621  13.479  10.916   8.038
  441POPC   C4B 9622  13.660  11.060   7.612
  442POPC   NC3 9623   4.142   4.131   9.338
  442POPC   PO4 9624   4.171   4.778   9.342
  442POPC   GL1 9625   4.420   4.738   8.975
  442POPC   GL2 9626   4.441   4.389   8.979
  442POPC   C1A 9627   4.421   4.738   8.563
  442POPC   D2A 9628   4.220   4.473   8.293
  442POPC   C3A 9629   4.394   4.394   7.888
  442POPC   C4A 9630   4.194   4.392   7.437
  442POPC   C1B 9631   4.704   4.135   8.704
  442POPC   C2B 9632   4.580   4.078   8.291
  442POPC   C3B 9633   4.570   3.821   7.936
  442POPC   C4B 9634   4.552   4.065   7.553
  443POPC   NC3 9635  24.301  10.810   9.605
  443POPC   PO4 9636  24.684  10.241   9.680
  443POPC   GL1 9637  24.730  10.459   9.209
  443POPC   GL2 9638  24.667  10.800   9.202
  443POPC   C1A 9639  24.516  10.562   8.766
  443POPC   D2A 9640  24.316  10.493   8.358
  443POPC   C3A 9641  24.533  10.246   8.055
  443POPC   C4A 9642  24.487  10.289   7.626
  443POPC   C1B 9643  24.766  11.015   8.775
  443POPC   C2B 9644  24.671  10.883   8.377
  443POPC   C3B 9645  24.704  10.723   7.969
  443POPC   C4B 9646  24.476  10.805   7.632
  444POPC   NC3 9647  27.821  19.678   9.388
  444POPC   PO4 9648  27.351  20.109   9.620
  444POPC   GL1 9649  27.479  19.989   9.160
  444POPC   GL2 9650  27.761  19.878   8.943
  444POPC   C1A 9651  27.336  19.971   8.715
  444POPC   D2A 9652  27.472  19.691   8.398
  444POPC   C3A 9653  27.337  19.799   7.973
  444POPC   C4A 9654  27.557  20.044   7.660
  444POPC   C1B 9655  27.954  19.649   8.639
  444POPC   C2B 9656  27.965  19.441   8.278
  444POPC   C3B 9657  27.653  19.373   8.034
  444POPC   C4B 9658  27.767  19.593   7.704
  445POPC   NC3 9659  16.364  22.218   9.427
  445POPC   PO4 9660  16.934  22.447   9.448
  445POPC   GL1 9661  16.745  22.173   9.070
  445POPC   GL2 9662  16.415  21.903   9.045
  445POPC   C1A 9663  16.584  22.169   8.654
  445POPC   D2A 9664  16.508  22.351   8.259
  445POPC   C3A 9665  16.834  22.246   7.971
  445POPC   C4A 9666  16.765  22.375   7.570
  445POPC   C1B 9667  16.487  21.651   8.686
  445POPC   C2B 9668  16.696  21.747   8.316
  445POPC   C3B 9669  16.555  21.828   7.919
  445POPC   C4B 9670  16.603  21.888   7.496
  446POPC   NC3 9671  41.196  25.312   9.410
  446POPC   PO4 9672  40.821  24.755   9.397
  446POPC   GL1 9673  40.652  25.038   9.075
  446POPC   GL2 9674  40.930  25.221   8.926
  446POPC   C1A 9675  40.485  25.123   8.635
  446POPC   D2A 9676  40.809  25.036   8.310
  446POPC   C3A 9677  40.855  25.274   7.929
  446POPC   C4A 9678  40.575  25.152   7.591
  446POPC   C1B 9679  40.733  25.574   8.678
  446POPC   C2B 9680  40.713  25.744   8.250
  446POPC   C3B 9681  40.700  25.743   7.786
  446POPC   C4B 9682  40.685  25.582   7.370
  447POPC   NC3 9683  23.130  22.705   9.701
  447POPC   PO4 9684  22.548  22.554   9.380
  447POPC   GL1 9685  22.787  22.771   9.050
  447POPC   GL2 9686  22.988  23.046   9.118
  447POPC   C1A 9687  23.123  22.760   8.712
  447POPC   D2A 9688  23.149  22.502   8.337
  447POPC   C3A 9689  22.927  22.642   7.972
  447POPC   C4A 9690  23.115  22.931   7.754
  447POPC   C1B 9691  22.855  23.188   8.720
  447POPC   C2B 9692  22.917  23.049   8.310
  447POPC   C3B 9693  22.741  23.173   7.966
  447POPC   C4B 9694  22.570  23.007   7.628
  448POPC   NC3 9695  35.944  22.022   9.832
  448POPC   PO4 9696  35.303  22.138   9.541
  448POPC   GL1 9697  35.264  22.222   9.088
  448POPC   GL2 9698  35.292  21.874   9.037
  448POPC   C1A 9699  35.156  22.122   8.619
  448POPC   D2A 9700  35.351  21.914   8.254
  448POPC   C3A 9701  35.279  22.164   7.876
  448POPC   C4A 9702  35.048  22.172   7.469
  448POPC   C1B 9703  35.630  21.990   8.715
  448POPC   C2B 9704  35.878  22.015   8.391
  448POPC   C3B 9705  35.799  22.153   8.017
  448POPC   C4B 9706  35.744  22.035   7.655
  449POPC   NC3 9707  24.444  33.362   9.461
  449POPC   PO4 9708  24.666  33.967   9.603
  449POPC   GL1 9709  24.538  33.829   9.189
  449POPC   GL2 9710  24.645  34.155   9.101
  449POPC   C1A 9711  24.563  33.595   8.753
  449POPC   D2A 9712  24.445  33.400   8.313
  449POPC   C3A 9713  24.496  33.626   7.894
  449POPC   C4A 9714  24.431  33.975   7.536
  449POPC   C1B 9715  24.878  34.003   8.743
  449POPC   C2B 9716  24.780  33.843   8.329
  449POPC   C3B 9717  24.714  34.096   7.969
  449POPC   C4B 9718  24.882  34.236   7.594
  450POPC   NC3 9719  13.239  21.495   9.229
  450POPC   PO4 9720  12.968  22.064   9.568
  450POPC   GL1 9721  12.867  22.072   9.126
  450POPC   GL2 9722  13.218  22.052   9.124
  450POPC   C1A 9723  12.752  22.234   8.713
  450POPC   D2A 9724  12.628  22.047   8.302
  450POPC   C3A 9725  12.820  22.309   7.993
  450POPC   C4A 9726  12.745  22.539   7.625
  450POPC   C1B 9727  13.278  22.331   8.784
  450POPC   C2B 9728  13.177  22.221   8.377
  450POPC   C3B 9729  13.312  22.462   8.041
  450POPC   C4B 9730  13.255  22.436   7.605
  451POPC   NC3 9731  19.547   6.992   9.535
  451POPC   PO4 9732  20.015   6.530   9.425
  451POPC   GL1 9733  19.867   6.842   9.156
  451POPC   GL2 9734  19.551   6.699   9.121
  451POPC   C1A 9735  19.955   6.840   8.747
  451POPC   D2A 9736  20.074   6.588   8.429
  451POPC   C3A 9737  20.030   6.752   8.055
  451POPC   C4A 9738  20.143   6.602   7.657
  451POPC   C1B 9739  19.430   6.626   8.709
  451POPC   C2B 9740  19.583   6.542   8.298
  451POPC   C3B 9741  19.397   6.404   7.905
  451POPC   C4B 9742  19.332   6.402   7.432
  452POPC   NC3 9743  41.911  10.934   9.494
  452POPC   PO4 9744  42.315  10.293   9.490
  452POPC   GL1 9745  42.102  10.553   9.203
  452POPC   GL2 9746  42.382  10.731   9.077
  452POPC   C1A 9747  41.989  10.679   8.781
  452POPC   D2A 9748  42.207  10.546   8.392
  452POPC   C3A 9749  41.952  10.398   8.051
  452POPC   C4A 9750  41.756  10.648   7.761
  452POPC   C1B 9751  42.418  10.348   8.826
  452POPC   C2B 9752  42.627  10.253   8.418
  452POPC   C3B 9753  42.588  10.463   8.027
  452POPC   C4B 9754  42.249  10.786   7.906
  453POPC   NC3 9755  37.421  39.680   9.383
  453POPC   PO4 9756  37.478  40.330   9.579
  453POPC   GL1 9757  37.745  40.116   9.231
  453POPC   GL2 9758  37.575  39.884   8.948
  453POPC   C1A 9759  38.006  40.157   8.835
  453POPC   D2A 9760  37.787  40.042   8.466
  453POPC   C3A 9761  37.857  39.943   8.072
  453POPC   C4A 9762  37.583  39.882   7.777
  453POPC   C1B 9763  37.534  40.305   8.805
  453POPC   C2B 9764  37.429  40.573   8.497
  453POPC   C3B 9765  37.513  40.364   8.139
  453POPC   C4B 9766  37.604  40.406   7.748
  454POPC   NC3 9767  32.207  30.859   9.423
  454POPC   PO4 9768  32.472  30.278   9.320
  454POPC   GL1 9769  32.207  30.462   9.011
  454POPC   GL2 9770  31.900  30.533   9.156
  454POPC   C1A 9771  32.299  30.600   8.586
  454POPC   D2A 9772  32.353  30.964   8.309
  454POPC   C3A 9773  32.457  30.942   7.857
  454POPC   C4A 9774  32.747  31.010   7.490
  454POPC   C1B 9775  31.849  30.806   8.781
  454POPC   C2B 9776  31.888  30.750   8.319
  454POPC   C3B 9777  32.003  30.691   7.880
  454POPC   C4B 9778  31.917  30.531   7.464
  455POPC   NC3 9779  13.912   6.970   9.614
  455POPC   PO4 9780  13.737   6.343   9.501
  455POPC   GL1 9781  13.630   6.664   9.175
  455POPC   GL2 9782  13.248   6.678   9.158
  455POPC   C1A 9783  13.806   6.846   8.755
  455POPC   D2A 9784  13.625   6.859   8.307
  455POPC   C3A 9785  13.745   6.621   7.889
  455POPC   C4A 9786  13.940   6.881   7.500
  455POPC   C1B 9787  13.345   6.535   8.749
  455POPC   C2B 9788  13.175   6.625   8.363
  455POPC   C3B 9789  13.267   6.710   7.950
  455POPC   C4B 9790  13.397   6.372   7.622
  456POPC   NC3 9791  14.250  41.422  10.281
  456POPC   PO4 9792  14.168  41.287   9.621
  456POPC   GL1 9793  14.325  41.363   9.168
  456POPC   GL2 9794  14.086  41.563   8.960
  456POPC   C1A 9795  14.538  41.472   8.744
  456POPC   D2A 9796  14.367  41.640   8.340
  456POPC   C3A 9797  14.533  41.521   7.926
  456POPC   C4A 9798  14.552  41.289   7.514
  456POPC   C1B 9799  14.098  41.242   8.619
  456POPC   C2B 9800  14.128  41.195   8.159
  456POPC   C3B 9801  14.032  41.546   7.873
  456POPC   C4B 9802  14.249  41.917   7.660
  457POPC   NC3 9803   7.579  12.486   9.500
  457POPC   PO4 9804   7.617  13.168   9.453
  457POPC   GL1 9805   7.423  12.985   9.105
  457POPC   GL2 9806   7.166  12.721   9.151
  457POPC   C1A 9807   7.342  13.003   8.653
  457POPC   D2A 9808   7.596  13.019   8.272
  457POPC   C3A 9809   7.373  13.039   7.862
  457POPC   C4A 9810   7.469  13.193   7.445
  457POPC   C1B 9811   7.451  12.547   8.843
  457POPC   C2B 9812   7.467  12.549   8.413
  457POPC   C3B 9813   7.544  12.586   7.979
  457POPC   C4B 9814   7.513  12.668   7.506
  458POPC   NC3 9815  14.207  17.549   9.487
  458POPC   PO4 9816  14.783  17.682   9.261
  458POPC   GL1 9817  14.425  17.652   9.032
  458POPC   GL2 9818  14.347  17.345   9.042
  458POPC   C1A 9819  14.408  17.623   8.598
  458POPC   D2A 9820  14.127  17.698   8.288
  458POPC   C3A 9821  14.393  17.631   7.989
  458POPC   C4A 9822  14.663  17.734   7.702
  458POPC   C1B 9823  14.354  17.106   8.682
  458POPC   C2B 9824  14.484  17.172   8.220
  458POPC   C3B 9825  14.452  17.178   7.737
  458POPC   C4B 9826  14.529  17.371   7.333
  459POPC   NC3 9827  41.259  24.563   9.420
  459POPC   PO4 9828  41.982  24.254   9.455
  459POPC   GL1 9829  41.698  24.523   9.147
  459POPC   GL2 9830  41.411  24.306   9.023
  459POPC   C1A 9831  41.559  24.744   8.739
  459POPC   D2A 9832  41.299  24.874   8.405
  459POPC   C3A 9833  41.516  24.754   8.050
  459POPC   C4A 9834  41.617  24.443   7.783
  459POPC   C1B 9835  41.154  24.229   8.681
  459POPC   C2B 9836  40.973  24.444   8.323
  459POPC   C3B 9837  41.142  24.359   7.930
  459POPC   C4B 9838  41.284  24.099   7.599
  460POPC   NC3 9839  21.855   1.581   9.505
  460POPC   PO4 9840  22.277   1.138   9.670
  460POPC   GL1 9841  22.108   1.198   9.243
  460POPC   GL2 9842  22.330   1.448   9.215
  460POPC   C1A 9843  21.963   1.466   8.848
  460POPC   D2A 9844  22.029   1.464   8.388
  460POPC   C3A 9845  22.015   1.051   8.223
  460POPC   C4A 9846  21.932   0.839   7.818
  460POPC   C1B 9847  22.438   1.221   8.806
  460POPC   C2B 9848  22.526   1.377   8.362
  460POPC   C3B 9849  22.349   1.313   7.952
  460POPC   C4B 9850  22.428   1.493   7.566
  461POPC   NC3 9851   6.509  37.985   9.586
  461POPC   PO4 9852   6.279  37.383   9.536
  461POPC   GL1 9853   6.475  37.419   9.117
  461POPC   GL2 9854   6.629  37.743   9.134
  461POPC   C1A 9855   6.820  37.406   8.808
  461POPC   D2A 9856   6.965  37.588   8.412
  461POPC   C3A 9857   6.626  37.574   8.119
  461POPC   C4A 9858   6.405  37.537   7.727
  461POPC   C1B 9859   6.705  37.921   8.716
  461POPC   C2B 9860   6.617  38.076   8.281
  461POPC   C3B 9861   6.613  38.003   7.830
  461POPC   C4B 9862   6.539  37.947   7.375
  462POPC   NC3 9863  42.856  15.490   9.495
  462POPC   PO4 9864  42.353  15.052   9.721
  462POPC   GL1 9865  42.371  15.412   9.302
  462POPC   GL2 9866  42.089  15.341   8.984
  462POPC   C1A 9867  42.522  15.560   8.860
  462POPC   D2A 9868  42.208  15.462   8.508
  462POPC   C3A 9869  42.163  15.582   8.066
  462POPC   C4A 9870  42.321  15.321   7.723
  462POPC   C1B 9871  42.142  14.964   8.627
  462POPC   C2B 9872  42.311  14.868   8.204
  462POPC   C3B 9873  42.168  14.829   7.765
  462POPC   C4B 9874  42.104  15.041   7.341
  463POPC   NC3 9875  24.177   8.797   9.532
  463POPC   PO4 9876  23.612   9.100   9.589
  463POPC   GL1 9877  23.714   8.855   9.254
  463POPC   GL2 9878  23.977   9.067   9.137
  463POPC   C1A 9879  23.583   8.839   8.831
  463POPC   D2A 9880  23.683   9.157   8.543
  463POPC   C3A 9881  23.698   9.104   8.100
  463POPC   C4A 9882  23.733   8.837   7.732
  463POPC   C1B 9883  24.102   8.883   8.757
  463POPC   C2B 9884  24.357   8.789   8.420
  463POPC   C3B 9885  24.181   8.885   8.034
  463POPC   C4B 9886  24.180   9.031   7.649
  464POPC   NC3 9887  32.022  33.934   9.432
  464POPC   PO4 9888  32.594  33.491   9.437
  464POPC   GL1 9889  32.348  33.687   9.129
  464POPC   GL2 9890  32.491  34.000   9.079
  464POPC   C1A 9891  32.067  33.563   8.779
  464POPC   D2A 9892  32.258  33.563   8.377
  464POPC   C3A 9893  32.122  33.670   7.956
  464POPC   C4A 9894  32.398  33.776   7.590
  464POPC   C1B 9895  32.380  33.968   8.681
  464POPC   C2B 9896  32.609  33.938   8.318
  464POPC   C3B 9897  32.432  34.092   7.984
  464POPC   C4B 9898  31.984  34.189   7.916
  465POPC   NC3 9899  23.970  42.087   9.387
  465POPC   PO4 9900  24.555  42.364   9.504
  465POPC   GL1 9901  24.418  42.285   9.102
  465POPC   GL2 9902  24.613  41.964   9.148
  465POPC   C1A 9903  24.338  42.542   8.712
  465POPC   D2A 9904  24.518  42.491   8.276
  465POPC   C3A 9905  24.335  42.322   7.898
  465POPC   C4A 9906  24.127  42.555   7.593
  465POPC   C1B 9907  24.901  42.011   8.828
  465POPC   C2B 9908  24.588  42.037   8.511
  465POPC   C3B 9909  24.593  41.922   8.101
  465POPC   C4B 9910  24.722  42.076   7.689
  466POPC   NC3 9911  18.095  23.414   9.524
  466POPC   PO4 9912  17.974  24.064   9.362
  466POPC   GL1 9913  18.121  23.748   9.098
  466POPC   GL2 9914  18.471  23.843   8.986
  466POPC   C1A 9915  18.087  23.761   8.644
  466POPC   D2A 9916  18.276  24.027   8.316
  466POPC   C3A 9917  18.139  23.891   7.920
  466POPC   C4A 9918  18.376  23.740   7.580
  466POPC   C1B 9919  18.418  23.417   8.849
  466POPC   C2B 9920  18.473  23.303   8.446
  466POPC   C3B 9921  18.500  23.494   8.049
  466POPC   C4B 9922  18.843  23.599   7.806
  467POPC   NC3 9923  40.609  34.888   9.453
  467POPC   PO4 9924  40.807  34.229   9.553
  467POPC   GL1 9925  41.017  34.467   9.195
  467POPC   GL2 9926  40.703  34.621   8.995
  467POPC   C1A 9927  41.162  34.615   8.772
  467POPC   D2A 9928  40.929  34.512   8.409
  467POPC   C3A 9929  41.139  34.614   8.047
  467POPC   C4A 9930  41.166  34.357   7.713
  467POPC   C1B 9931  40.409  34.437   8.650
  467POPC   C2B 9932  40.439  34.512   8.186
  467POPC   C3B 9933  40.679  34.622   7.810
  467POPC   C4B 9934  40.931  34.783   7.478
  468POPC   NC3 9935  42.135   8.418   9.451
  468POPC   PO4 9936  42.713   8.029   9.375
  468POPC   GL1 9937  42.348   8.040   9.124
  468POPC   GL2 9938  42.451   8.386   9.040
  468POPC   C1A 9939  42.366   7.976   8.676
  468POPC   D2A 9940  42.533   8.185   8.322
  468POPC   C3A 9941  42.388   7.987   7.940
  468POPC   C4A 9942  42.193   7.851   7.552
  468POPC   C1B 9943  42.095   8.372   8.780
  468POPC   C2B 9944  42.067   8.392   8.336
  468POPC   C3B 9945  42.291   8.498   7.937
  468POPC   C4B 9946  42.431   8.307   7.544
  469POPC   NC3 9947  34.564  34.078   9.444
  469POPC   PO4 9948  34.449  33.398   9.468
  469POPC   GL1 9949  34.702  33.650   9.144
  469POPC   GL2 9950  34.839  33.997   9.029
  469POPC   C1A 9951  34.794  33.538   8.738
  469POPC   D2A 9952  34.508  33.546   8.427
  469POPC   C3A 9953  34.759  33.767   8.157
  469POPC   C4A 9954  34.760  33.519   7.810
  469POPC   C1B 9955  34.467  33.942   8.769
  469POPC   C2B 9956  34.290  34.002   8.335
  469POPC   C3B 9957  34.351  33.874   7.897
  469POPC   C4B 9958  34.655  33.973   7.549
  470POPC   NC3 9959   3.729  30.058   9.363
  470POPC   PO4 9960   3.675  29.419   9.632
  470POPC   GL1 9961   3.514  29.615   9.194
  470POPC   GL2 9962   3.347  29.924   9.068
  470POPC   C1A 9963   3.525  29.593   8.733
  470POPC   D2A 9964   3.463  29.436   8.307
  470POPC   C3A 9965   3.293  29.700   7.982
  470POPC   C4A 9966   3.307  30.068   7.783
  470POPC   C1B 9967   3.360  30.107   8.686
  470POPC   C2B 9968   3.548  29.938   8.350
  470POPC   C3B 9969   3.758  30.069   8.034
  470POPC   C4B 9970   3.950  30.316   7.767
  471POPC   NC3 9971   5.159  23.049   9.433
  471POPC   PO4 9972   4.614  22.690   9.624
  471POPC   GL1 9973   4.787  22.811   9.166
  471POPC   GL2 9974   4.898  23.174   9.012
  471POPC   C1A 9975   4.962  22.725   8.745
  471POPC   D2A 9976   4.891  22.575   8.321
  471POPC   C3A 9977   4.870  22.831   7.961
  471POPC   C4A 9978   5.219  22.787   7.711
  471POPC   C1B 9979   5.220  23.176   8.673
  471POPC   C2B 9980   5.377  23.040   8.271
  471POPC   C3B 9981   5.362  23.236   7.861
  471POPC   C4B 9982   5.286  23.196   7.348
  472POPC   NC3 9983  44.894   0.780   9.525
  472POPC   PO4 9984  44.773   1.406   9.491
  472POPC   GL1 9985  44.827   1.215   9.137
  472POPC   GL2 9986  44.483   1.144   9.133
  472POPC   C1A 9987   0.030   1.272   8.734
  472POPC   D2A 9988  44.971   1.059   8.321
  472POPC   C3A 9989  44.980   1.259   7.929
  472POPC   C4A 9990  44.817   1.162   7.518
  472POPC   C1B 9991  44.564   1.115   8.699
  472POPC   C2B 9992  44.416   1.043   8.337
  472POPC   C3B 9993  44.561   0.939   7.963
  472POPC   C4B 9994  44.321   1.076   7.666
  473POPC   NC3 9995  28.464  31.303   9.498
  473POPC   PO4 9996  27.925  31.743   9.700
  473POPC   GL1 9997  28.089  31.566   9.287
  473POPC   GL2 9998  28.024  31.186   9.195
  473POPC   C1A 9999  28.276  31.687   8.896
  473POPC   D2A10000  28.234  31.825   8.461
  473POPC   C3A10001  28.285  31.619   8.055
  473POPC   C4A10002  28.634  31.519   7.785
  473POPC   C1B10003  28.337  31.182   8.871
  473POPC   C2B10004  28.364  31.251   8.439
  473POPC   C3B10005  28.410  31.104   8.014
  473POPC   C4B10006  28.125  31.202   7.733
  474POPC   NC310007  15.810  16.501   9.451
  474POPC   PO410008  15.256  16.458   9.419
  474POPC   GL110009  15.557  16.849   9.179
  474POPC   GL210010  15.962  16.968   9.185
  474POPC   C1A10011  15.720  16.977   8.744
  474POPC   D2A10012  15.928  16.798   8.395
  474POPC   C3A10013  15.752  16.739   7.982
  474POPC   C4A10014  15.846  16.667   7.516
  474POPC   C1B10015  16.237  17.071   8.768
  474POPC   C2B10016  16.411  16.921   8.338
  474POPC   C3B10017  16.243  16.949   7.908
  474POPC   C4B10018  16.255  17.019   7.473
  475POPC   NC310019  29.959   9.028   9.480
  475POPC   PO410020  29.547   8.454   9.449
  475POPC   GL110021  29.723   8.752   9.107
  475POPC   GL210022  29.733   9.162   9.055
  475POPC   C1A10023  29.767   8.875   8.657
  475POPC   D2A10024  29.580   9.208   8.490
  475POPC   C3A10025  29.555   9.090   8.093
  475POPC   C4A10026  29.663   9.052   7.677
  475POPC   C1B10027  30.171   9.087   8.865
  475POPC   C2B10028  30.257   9.124   8.435
  475POPC   C3B10029  30.046   8.973   8.067
  475POPC   C4B10030  30.156   8.761   7.692
  476POPC   NC310031  43.506  10.803   9.288
  476POPC   PO410032  43.975  10.378   9.285
  476POPC   GL110033  43.625  10.410   8.979
  476POPC   GL210034  43.589  10.104   8.870
  476POPC   C1A10035  43.683  10.534   8.541
  476POPC   D2A10036  44.096  10.694   8.348
  476POPC   C3A10037  44.030  10.668   7.913
  476POPC   C4A10038  43.995  10.830   7.495
  476POPC   C1B10039  44.005  10.153   8.659
  476POPC   C2B10040  43.990  10.214   8.221
  476POPC   C3B10041  43.684  10.287   7.907
  476POPC   C4B10042  43.798  10.365   7.496
  477POPC   NC310043   1.024  43.503   9.410
  477POPC   PO410044   1.401  44.100   9.428
  477POPC   GL110045   1.158  43.919   9.121
  477POPC   GL210046   1.408  43.646   9.100
  477POPC   C1A10047   0.992  43.931   8.682
  477POPC   D2A10048   1.059  44.134   8.259
  477POPC   C3A10049   1.011  43.832   7.941
  477POPC   C4A10050   0.908  43.757   7.521
  477POPC   C1B10051   1.520  43.929   8.757
  477POPC   C2B10052   1.583  44.027   8.344
  477POPC   C3B10053   1.564  44.259   7.992
  477POPC   C4B10054   1.458  43.963   7.728
  478POPC   NC310055  18.425  24.186   9.373
  478POPC   PO410056  19.058  24.415   9.450
  478POPC   GL110057  19.138  24.333   9.042
  478POPC   GL210058  19.163  23.961   8.970
  478POPC   C1A10059  19.260  24.628   8.734
  478POPC   D2A10060  19.432  24.526   8.337
  478POPC   C3A10061  19.161  24.420   7.970
  478POPC   C4A10062  19.185  24.614   7.535
  478POPC   C1B10063  19.075  24.180   8.554
  478POPC   C2B10064  18.734  24.289   8.254
  478POPC   C3B10065  18.684  24.119   7.841
  478POPC   C4B10066  19.046  24.123   7.563
  479POPC   NC310067   4.196  22.870   9.634
  479POPC   PO410068   4.694  23.393   9.441
  479POPC   GL110069   4.411  23.146   9.193
  479POPC   GL210070   4.178  22.871   9.136
  479POPC   C1A10071   4.431  23.123   8.750
  479POPC   D2A10072   4.467  22.877   8.370
  479POPC   C3A10073   4.389  23.107   7.980
  479POPC   C4A10074   4.510  22.966   7.561
  479POPC   C1B10075   4.142  22.637   8.765
  479POPC   C2B10076   4.036  22.619   8.348
  479POPC   C3B10077   4.190  22.642   7.907
  479POPC   C4B10078   3.907  22.648   7.561
  480POPC   NC310079  22.462  38.424   9.688
  480POPC   PO410080  21.956  37.995   9.682
  480POPC   GL110081  22.113  38.371   9.320
  480POPC   GL210082  22.489  38.443   9.199
  480POPC   C1A10083  22.163  38.707   8.921
  480POPC   D2A10084  22.148  38.928   8.486
  480POPC   C3A10085  22.118  38.777   8.104
  480POPC   C4A10086  22.353  38.693   7.789
  480POPC   C1B10087  22.258  38.210   8.860
  480POPC   C2B10088  22.165  38.375   8.475
  480POPC   C3B10089  22.184  38.250   8.067
  480POPC   C4B10090  22.281  38.189   7.648
  481POPC   NC310091  14.619  27.332   9.550
  481POPC   PO410092  14.178  27.829   9.462
  481POPC   GL110093  14.300  27.613   9.076
  481POPC   GL210094  14.328  27.298   9.122
  481POPC   C1A10095  14.213  27.575   8.647
  481POPC   D2A10096  14.544  27.596   8.391
  481POPC   C3A10097  14.630  27.686   8.002
  481POPC   C4A10098  14.657  27.607   7.596
  481POPC   C1B10099  14.152  27.081   8.763
  481POPC   C2B10100  13.926  27.225   8.389
  481POPC   C3B10101  14.030  27.588   8.148
  481POPC   C4B10102  14.160  27.600   7.730
  482POPC   NC310103  38.943  20.550   9.287
  482POPC   PO410104  38.304  20.514   9.481
  482POPC   GL110105  38.283  20.401   9.057
  482POPC   GL210106  38.502  20.670   9.038
  482POPC   C1A10107  38.531  20.354   8.634
  482POPC   D2A10108  38.877  20.452   8.326
  482POPC   C3A10109  38.685  20.614   7.922
  482POPC   C4A10110  38.728  20.548   7.459
  482POPC   C1B10111  38.220  20.779   8.707
  482POPC   C2B10112  38.306  20.766   8.307
  482POPC   C3B10113  38.272  20.930   7.923
  482POPC   C4B10114  38.267  20.727   7.526
  483POPC   NC310115  18.456   0.241   9.618
  483POPC   PO410116  17.907   0.647   9.523
  483POPC   GL110117  18.267   0.563   9.247
  483POPC   GL210118  18.312   0.216   9.105
  483POPC   C1A10119  18.419   0.620   8.816
  483POPC   D2A10120  18.308   0.329   8.484
  483POPC   C3A10121  18.172   0.490   8.080
  483POPC   C4A10122  18.110   0.423   7.641
  483POPC   C1B10123  18.608   0.027   8.797
  483POPC   C2B10124  18.708   0.050   8.326
  483POPC   C3B10125  18.566   0.232   7.901
  483POPC   C4B10126  18.471   0.083   7.470
  484POPC   NC310127  43.265  11.557   9.422
  484POPC   PO410128  43.063  10.898   9.203
  484POPC   GL110129  42.941  11.296   9.054
  484POPC   GL210130  43.197  11.529   8.926
  484POPC   C1A10131  42.825  11.272   8.616
  484POPC   D2A10132  43.077  11.129   8.279
  484POPC   C3A10133  42.955  11.428   8.003
  484POPC   C4A10134  42.819  11.534   7.613
  484POPC   C1B10135  43.255  11.574   8.496
  484POPC   C2B10136  43.469  11.495   8.099
  484POPC   C3B10137  43.322  11.646   7.699
  484POPC   C4B10138  43.416  11.531   7.268
  485POPC   NC310139   3.341  39.169   9.677
  485POPC   PO410140   3.759  38.879   9.278
  485POPC   GL110141   3.398  39.099   9.145
  485POPC   GL210142   3.649  39.268   8.934
  485POPC   C1A10143   3.189  39.157   8.743
  485POPC   D2A10144   3.193  38.932   8.368
  485POPC   C3A10145   3.277  39.121   7.973
  485POPC   C4A10146   3.354  39.037   7.557
  485POPC   C1B10147   3.638  38.902   8.632
  485POPC   C2B10148   3.720  38.878   8.190
  485POPC   C3B10149   3.778  39.117   7.818
  485POPC   C4B10150   3.790  39.566   7.712
  486POPC   NC310151  10.745  28.630   9.883
  486POPC   PO410152  10.229  28.465   9.525
  486POPC   GL110153  10.372  28.319   9.139
  486POPC   GL210154  10.056  28.157   9.108
  486POPC   C1A10155  10.610  28.406   8.754
  486POPC   D2A10156  10.586  28.674   8.391
  486POPC   C3A10157  10.747  28.489   7.994
  486POPC   C4A10158  10.538  28.414   7.597
  486POPC   C1B10159  10.193  28.098   8.703
  486POPC   C2B10160  10.381  28.215   8.327
  486POPC   C3B10161  10.401  28.070   7.939
  486POPC   C4B10162  10.032  28.113   7.712
  487POPC   NC310163  10.432  25.771   9.382
  487POPC   PO410164  10.329  26.412   9.587
  487POPC   GL110165  10.535  26.314   9.179
  487POPC   GL210166  10.361  26.527   8.940
  487POPC   C1A10167  10.619  26.093   8.762
  487POPC   D2A10168  10.585  25.871   8.339
  487POPC   C3A10169  10.719  25.999   7.897
  487POPC   C4A10170  10.806  25.996   7.424
  487POPC   C1B10171  10.125  26.217   8.665
  487POPC   C2B10172  10.124  26.125   8.283
  487POPC   C3B10173  10.365  26.331   8.014
  487POPC   C4B10174  10.368  26.205   7.593
  488POPC   NC310175  36.779  28.536   9.564
  488POPC   PO410176  37.404  28.668   9.632
  488POPC   GL110177  37.299  28.541   9.191
  488POPC   GL210178  37.172  28.215   9.119
  488POPC   C1A10179  37.387  28.544   8.715
  488POPC   D2A10180  37.150  28.529   8.308
  488POPC   C3A10181  37.161  28.297   7.896
  488POPC   C4A10182  36.897  28.556   7.627
  488POPC   C1B10183  36.909  28.313   8.718
  488POPC   C2B10184  36.627  28.109   8.347
  488POPC   C3B10185  36.581  28.202   7.870
  488POPC   C4B10186  36.556  28.253   7.398
  489POPC   NC310187  24.458  38.099   9.418
  489POPC   PO410188  24.281  37.458   9.253
  489POPC   GL110189  24.638  37.319   9.010
  489POPC   GL210190  24.784  37.563   9.216
  489POPC   C1A10191  24.721  37.341   8.577
  489POPC   D2A10192  24.498  37.652   8.321
  489POPC   C3A10193  24.508  37.585   7.888
  489POPC   C4A10194  24.224  37.496   7.563
  489POPC   C1B10195  24.635  37.824   8.814
  489POPC   C2B10196  24.399  38.122   8.525
  489POPC   C3B10197  24.087  38.031   8.181
  489POPC   C4B10198  24.184  37.994   7.759
  490POPC   NC310199  17.176  32.408   9.580
  490POPC   PO410200  17.756  32.526   9.494
  490POPC   GL110201  17.490  32.262   9.171
  490POPC   GL210202  17.126  32.136   9.146
  490POPC   C1A10203  17.500  32.136   8.749
  490POPC   D2A10204  17.478  32.384   8.374
  490POPC   C3A10205  17.648  32.245   7.986
  490POPC   C4A10206  17.503  31.937   7.749
  490POPC   C1B10207  17.101  32.433   8.824
  490POPC   C2B10208  16.998  32.218   8.448
  490POPC   C3B10209  17.112  32.117   8.027
  490POPC   C4B10210  17.267  32.416   7.718
  491POPC   NC310211  31.002  19.253   9.452
  491POPC   PO410212  31.633  19.143   9.694
  491POPC   GL110213  31.441  19.004   9.324
  491POPC   GL210214  31.380  19.284   9.088
  491POPC   C1A10215  31.372  18.826   8.918
  491POPC   D2A10216  31.323  19.019   8.511
  491POPC   C3A10217  31.468  18.793   8.171
  491POPC   C4A10218  31.412  18.762   7.746
  491POPC   C1B10219  31.564  19.455   8.732
  491POPC   C2B10220  31.396  19.517   8.373
  491POPC   C3B10221  31.248  19.294   8.063
  491POPC   C4B10222  31.281  19.446   7.672
  492POPC   NC310223  19.432  41.228   9.509
  492POPC   PO410224  19.999  41.609   9.462
  492POPC   GL110225  19.784  41.468   9.150
  492POPC   GL210226  19.923  41.192   9.060
  492POPC   C1A10227  19.916  41.596   8.748
  492POPC   D2A10228  20.110  41.406   8.396
  492POPC   C3A10229  19.878  41.468   8.021
  492POPC   C4A10230  20.130  41.488   7.664
  492POPC   C1B10231  19.832  41.095   8.703
  492POPC   C2B10232  19.564  41.186   8.400
  492POPC   C3B10233  19.439  41.101   8.009
  492POPC   C4B10234  19.456  41.354   7.679
  493POPC   NC310235  24.840  14.705   9.725
  493POPC   PO410236  24.944  15.358   9.539
  493POPC   GL110237  24.532  15.279   9.261
  493POPC   GL210238  24.414  14.932   9.219
  493POPC   C1A10239  24.438  15.414   8.829
  493POPC   D2A10240  24.560  15.298   8.384
  493POPC   C3A10241  24.686  15.331   7.947
  493POPC   C4A10242  24.404  15.277   7.553
  493POPC   C1B10243  24.286  14.948   8.783
  493POPC   C2B10244  24.082  15.111   8.385
  493POPC   C3B10245  24.270  15.055   7.986
  493POPC   C4B10246  24.661  14.864   7.745
  494POPC   NC310247   6.157  32.218   9.542
  494POPC   PO410248   5.461  32.315   9.546
  494POPC   GL110249   5.679  32.431   9.158
  494POPC   GL210250   6.019  32.253   9.051
  494POPC   C1A10251   5.684  32.469   8.722
  494POPC   D2A10252   5.726  32.316   8.319
  494POPC   C3A10253   5.611  32.591   8.001
  494POPC   C4A10254   5.865  32.413   7.696
  494POPC   C1B10255   5.946  32.008   8.675
  494POPC   C2B10256   6.017  31.769   8.302
  494POPC   C3B10257   5.985  31.949   7.909
  494POPC   C4B10258   6.374  32.067   7.708
  495POPC   NC310259  40.532  39.048   9.477
  495POPC   PO410260  41.167  39.157   9.464
  495POPC   GL110261  40.866  39.165   9.105
  495POPC   GL210262  40.654  38.889   9.002
  495POPC   C1A10263  40.746  39.358   8.709
  495POPC   D2A10264  40.702  39.313   8.240
  495POPC   C3A10265  40.986  39.510   7.905
  495POPC   C4A10266  40.867  39.655   7.444
  495POPC   C1B10267  40.960  38.884   8.651
  495POPC   C2B10268  41.059  38.925   8.196
  495POPC   C3B10269  40.847  39.008   7.801
  495POPC   C4B10270  40.765  38.793   7.412
  496POPC   NC310271  11.059  37.488   9.549
  496POPC   PO410272  11.749  37.726   9.486
  496POPC   GL110273  11.459  37.542   9.188
  496POPC   GL210274  11.140  37.735   9.132
  496POPC   C1A10275  11.418  37.482   8.755
  496POPC   D2A10276  11.234  37.659   8.357
  496POPC   C3A10277  11.528  37.717   8.013
  496POPC   C4A10278  11.439  37.632   7.586
  496POPC   C1B10279  10.912  37.625   8.779
  496POPC   C2B10280  10.669  37.725   8.454
  496POPC   C3B10281  10.806  37.691   8.068
  496POPC   C4B10282  10.959  37.553   7.710
  497POPC   NC310283  21.221   2.937   9.535
  497POPC   PO410284  21.876   2.757   9.522
  497POPC   GL110285  21.552   2.748   9.217
  497POPC   GL210286  21.636   3.096   9.183
  497POPC   C1A10287  21.293   2.690   8.873
  497POPC   D2A10288  21.336   2.538   8.485
  497POPC   C3A10289  21.119   2.604   8.126
  497POPC   C4A10290  21.245   2.524   7.728
  497POPC   C1B10291  21.464   3.188   8.800
  497POPC   C2B10292  21.315   3.037   8.434
  497POPC   C3B10293  21.367   3.137   8.021
  497POPC   C4B10294  21.283   3.012   7.613
  498POPC   NC310295  38.115  25.569   9.342
  498POPC   PO410296  37.553  25.500   9.578
  498POPC   GL110297  37.574  25.220   9.195
  498POPC   GL210298  37.876  25.252   9.022
  498POPC   C1A10299  37.496  24.929   8.854
  498POPC   D2A10300  37.701  25.139   8.503
  498POPC   C3A10301  37.519  25.316   8.140
  498POPC   C4A10302  37.609  25.481   7.741
  498POPC   C1B10303  38.156  25.272   8.663
  498POPC   C2B10304  38.130  25.521   8.286
  498POPC   C3B10305  38.005  25.753   7.914
  498POPC   C4B10306  38.019  25.685   7.454
  499POPC   NC310307   1.206   4.691   9.816
  499POPC   PO410308   1.015   4.253   9.361
  499POPC   GL110309   1.254   4.452   9.100
  499POPC   GL210310   1.593   4.294   9.163
  499POPC   C1A10311   1.034   4.472   8.722
  499POPC   D2A10312   1.051   4.099   8.521
  499POPC   C3A10313   1.060   4.139   8.099
  499POPC   C4A10314   1.064   4.505   7.829
  499POPC   C1B10315   1.578   4.459   8.727
  499POPC   C2B10316   1.367   4.528   8.339
  499POPC   C3B10317   1.527   4.353   7.980
  499POPC   C4B10318   1.495   4.187   7.602
  500POPC   NC310319   7.131   1.352   9.525
  500POPC   PO410320   7.737   1.056   9.659
  500POPC   GL110321   7.613   0.968   9.223
  500POPC   GL210322   7.297   1.133   9.084
  500POPC   C1A10323   7.780   1.092   8.827
  500POPC   D2A10324   7.671   1.264   8.431
  500POPC   C3A10325   7.449   1.007   8.139
  500POPC   C4A10326   7.580   1.008   7.723
  500POPC   C1B10327   7.374   1.480   8.797
  500POPC   C2B10328   7.273   1.590   8.372
  500POPC   C3B10329   7.411   1.490   7.969
  500POPC   C4B10330   7.265   1.343   7.533
  501POPC   NC310331  21.097  21.721   9.557
  501POPC   PO410332  21.588  21.297   9.278
  501POPC   GL110333  21.341  21.596   9.045
  501POPC   GL210334  20.962  21.587   9.100
  501POPC   C1A10335  21.387  21.581   8.589
  501POPC   D2A10336  21.272  21.172   8.395
  501POPC   C3A10337  21.455  21.062   7.997
  501POPC   C4A10338  21.675  21.425   7.794
  501POPC   C1B10339  20.907  21.476   8.672
  501POPC   C2B10340  20.964  21.549   8.223
  501POPC   C3B10341  21.178  21.471   7.829
  501POPC   C4B10342  21.045  21.526   7.374
  502POPC   NC310343  19.549  17.217   9.394
  502POPC   PO410344  19.066  17.768   9.351
  502POPC   GL110345  19.144  17.528   9.023
  502POPC   GL210346  19.459  17.732   8.983
  502POPC   C1A10347  18.965  17.612   8.595
  502POPC   D2A10348  19.182  17.845   8.247
  502POPC   C3A10349  18.911  17.935   7.899
  502POPC   C4A10350  18.765  17.575   7.734
  502POPC   C1B10351  19.465  17.498   8.598
  502POPC   C2B10352  19.228  17.331   8.221
  502POPC   C3B10353  19.200  17.266   7.759
  502POPC   C4B10354  19.455  17.281   7.374
  503POPC   NC310355  44.529   8.601   9.449
  503POPC   PO410356   0.083   9.079   9.513
  503POPC   GL110357  44.845   8.940   9.173
  503POPC   GL210358  44.508   9.064   9.108
  503POPC   C1A10359  44.836   8.802   8.755
  503POPC   D2A10360   0.151   8.719   8.434
  503POPC   C3A10361  44.977   8.562   8.059
  503POPC   C4A10362  44.753   8.848   7.767
  503POPC   C1B10363  44.273   9.246   8.739
  503POPC   C2B10364  44.288   9.235   8.287
  503POPC   C3B10365  44.233   9.020   7.880
  503POPC   C4B10366  44.118   9.106   7.455
  504POPC   NC310367  25.404   3.791   9.500
  504POPC   PO410368  25.078   4.448   9.555
  504POPC   GL110369  25.101   4.337   9.163
  504POPC   GL210370  25.399   4.174   9.139
  504POPC   C1A10371  25.194   4.515   8.765
  504POPC   D2A10372  25.008   4.659   8.393
  504POPC   C3A10373  25.186   4.526   8.042
  504POPC   C4A10374  24.968   4.384   7.740
  504POPC   C1B10375  25.551   4.134   8.728
  504POPC   C2B10376  25.417   4.099   8.284
  504POPC   C3B10377  25.519   4.027   7.825
  504POPC   C4B10378  25.329   4.190   7.408
  505POPC   NC310379  20.030   6.073   9.430
  505POPC   PO410380  19.462   5.705   9.537
  505POPC   GL110381  19.666   5.820   9.170
  505POPC   GL210382  19.591   6.191   9.194
  505POPC   C1A10383  19.765   5.717   8.751
  505POPC   D2A10384  19.648   5.564   8.344
  505POPC   C3A10385  19.910   5.744   8.031
  505POPC   C4A10386  20.044   5.775   7.569
  505POPC   C1B10387  19.819   6.307   8.816
  505POPC   C2B10388  19.890   6.106   8.429
  505POPC   C3B10389  19.996   6.243   8.028
  505POPC   C4B10390  19.793   6.220   7.640
  506POPC   NC310391  42.495   3.412   9.578
  506POPC   PO410392  42.364   4.075   9.571
  506POPC   GL110393  42.330   3.803   9.220
  506POPC   GL210394  42.608   3.628   9.129
  506POPC   C1A10395  42.167   3.635   8.812
  506POPC   D2A10396  42.034   3.938   8.477
  506POPC   C3A10397  41.988   3.810   8.047
  506POPC   C4A10398  41.935   3.410   7.815
  506POPC   C1B10399  42.585   3.912   8.771
  506POPC   C2B10400  42.481   3.694   8.400
  506POPC   C3B10401  42.401   3.517   8.028
  506POPC   C4B10402  42.458   3.408   7.649
  507POPC   NC310403  13.857  15.279   9.623
  507POPC   PO410404  13.235  15.482   9.632
  507POPC   GL110405  13.381  15.217   9.245
  507POPC   GL210406  13.713  15.319   9.142
  507POPC   C1A10407  13.453  15.069   8.790
  507POPC   D2A10408  13.684  14.985   8.421
  507POPC   C3A10409  13.657  15.096   7.985
  507POPC   C4A10410  13.305  15.367   7.908
  507POPC   C1B10411  13.681  15.512   8.744
  507POPC   C2B10412  13.627  15.499   8.315
  507POPC   C3B10413  13.974  15.576   8.081
  507POPC   C4B10414  14.042  15.344   7.728
  508POPC   NC310415  43.153  24.398   9.446
  508POPC   PO410416  42.946  24.921   9.758
  508POPC   GL110417  43.067  24.854   9.210
  508POPC   GL210418  43.406  24.735   9.151
  508POPC   C1A10419  42.984  24.541   8.828
  508POPC   D2A10420  42.921  24.629   8.400
  508POPC   C3A10421  43.143  24.374   8.131
  508POPC   C4A10422  43.007  24.244   7.733
  508POPC   C1B10423  43.302  24.906   8.763
  508POPC   C2B10424  43.404  24.816   8.369
  508POPC   C3B10425  43.173  24.889   8.031
  508POPC   C4B10426  43.244  24.692   7.733
  509POPC   NC310427  38.081   6.300   9.461
  509POPC   PO410428  38.685   6.585   9.531
  509POPC   GL110429  38.480   6.670   9.146
  509POPC   GL210430  38.110   6.722   9.128
  509POPC   C1A10431  38.488   6.814   8.746
  509POPC   D2A10432  38.194   6.757   8.436
  509POPC   C3A10433  38.295   6.864   8.028
  509POPC   C4A10434  38.626   6.719   7.779
  509POPC   C1B10435  38.139   6.405   8.798
  509POPC   C2B10436  38.146   6.251   8.349
  509POPC   C3B10437  38.193   6.367   7.901
  509POPC   C4B10438  38.370   6.310   7.492
  510POPC   NC310439  42.030  17.643   9.802
  510POPC   PO410440  42.547  17.388   9.487
  510POPC   GL110441  42.346  17.523   9.122
  510POPC   GL210442  42.116  17.292   8.934
  510POPC   C1A10443  42.365  17.726   8.755
  510POPC   D2A10444  42.231  17.511   8.409
  510POPC   C3A10445  42.431  17.549   8.041
  510POPC   C4A10446  42.213  17.693   7.705
  510POPC   C1B10447  42.311  17.053   8.649
  510POPC   C2B10448  42.463  17.085   8.249
  510POPC   C3B10449  42.189  17.132   7.875
  510POPC   C4B10450  42.126  17.255   7.429
  511POPC   NC310451  21.822  30.726   9.371
  511POPC   PO410452  21.222  30.564   9.585
  511POPC   GL110453  21.202  30.423   9.167
  511POPC   GL210454  21.425  30.684   9.049
  511POPC   C1A10455  21.060  30.557   8.733
  511POPC   D2A10456  21.406  30.706   8.440
  511POPC   C3A10457  21.309  30.770   7.985
  511POPC   C4A10458  21.231  31.035   7.602
  511POPC   C1B10459  21.579  30.338   8.805
  511POPC   C2B10460  21.738  30.284   8.388
  511POPC   C3B10461  21.622  30.360   7.956
  511POPC   C4B10462  21.933  30.346   7.639
  512POPC   NC310463  44.450  39.795   9.508
  512POPC   PO410464  44.882  40.239   9.342
  512POPC   GL110465  44.603  40.056   9.084
  512POPC   GL210466  44.240  40.160   9.154
  512POPC   C1A10467  44.751  39.974   8.677
  512POPC   D2A10468  44.618  39.732   8.326
  512POPC   C3A10469  44.883  39.856   7.990
  512POPC   C4A10470  44.834  40.226   7.744
  512POPC   C1B10471  44.232  39.955   8.724
  512POPC   C2B10472  44.134  39.983   8.295
  512POPC   C3B10473  44.369  39.971   7.902
  512POPC   C4B10474  44.488  39.899   7.448
  513POPC   NC310475  15.713  37.293   9.359
  513POPC   PO410476  16.274  36.903   9.505
  513POPC   GL110477  16.247  36.774   9.102
  513POPC   GL210478  15.864  36.833   9.105
  513POPC   C1A10479  16.193  37.084   8.788
  513POPC   D2A10480  16.285  37.225   8.389
  513POPC   C3A10481  16.104  36.929   8.139
  513POPC   C4A10482  16.245  36.840   7.764
  513POPC   C1B10483  15.688  37.073   8.726
  513POPC   C2B10484  15.614  37.034   8.281
  513POPC   C3B10485  15.734  37.148   7.854
  513POPC   C4B10486  15.728  37.261   7.396
  514POPC   NC310487  21.053   3.659   9.606
  514POPC   PO410488  21.691   3.640   9.471
  514POPC   GL110489  21.433   3.588   9.128
  514POPC   GL210490  21.180   3.360   9.185
  514POPC   C1A10491  21.541   3.703   8.725
  514POPC   D2A10492  21.478   3.526   8.341
  514POPC   C3A10493  21.228   3.671   7.989
  514POPC   C4A10494  21.284   3.526   7.553
  514POPC   C1B10495  21.063   3.516   8.745
  514POPC   C2B10496  20.932   3.357   8.318
  514POPC   C3B10497  20.923   3.285   7.844
  514POPC   C4B10498  20.859   3.202   7.389
  515POPC   NC310499   5.668   5.145   9.458
  515POPC   PO410500   6.206   4.774   9.699
  515POPC   GL110501   6.084   5.055   9.226
  515POPC   GL210502   6.171   5.364   9.241
  515POPC   C1A10503   5.976   4.946   8.764
  515POPC   D2A10504   6.065   4.978   8.305
  515POPC   C3A10505   5.668   4.990   8.082
  515POPC   C4A10506   5.536   4.641   7.846
  515POPC   C1B10507   6.119   5.428   8.800
  515POPC   C2B10508   6.108   5.486   8.359
  515POPC   C3B10509   6.301   5.296   7.977
  515POPC   C4B10510   6.199   5.290   7.549
  516POPC   NC310511  15.687  30.372   9.716
  516POPC   PO410512  16.091  30.920   9.764
  516POPC   GL110513  16.037  30.867   9.303
  516POPC   GL210514  16.120  31.160   9.142
  516POPC   C1A10515  15.955  30.742   8.842
  516POPC   D2A10516  15.765  30.735   8.413
  516POPC   C3A10517  15.996  30.670   8.018
  516POPC   C4A10518  15.866  30.850   7.633
  516POPC   C1B10519  16.292  31.148   8.757
  516POPC   C2B10520  16.272  30.914   8.390
  516POPC   C3B10521  16.369  31.016   7.971
  516POPC   C4B10522  16.258  31.207   7.634
  517POPC   NC310523  31.738  15.802   9.652
  517POPC   PO410524  32.398  16.175   9.502
  517POPC   GL110525  32.384  16.001   9.112
  517POPC   GL210526  32.414  15.640   9.112
  517POPC   C1A10527  32.289  16.123   8.714
  517POPC   D2A10528  32.153  16.298   8.362
  517POPC   C3A10529  32.049  16.156   7.941
  517POPC   C4A10530  32.078  16.116   7.485
  517POPC   C1B10531  32.283  15.621   8.686
  517POPC   C2B10532  32.286  15.775   8.243
  517POPC   C3B10533  32.269  15.725   7.800
  517POPC   C4B10534  31.981  15.611   7.477
  518POPC   NC310535  10.590  35.187   9.496
  518POPC   PO410536  10.035  34.889   9.429
  518POPC   GL110537  10.335  35.107   9.065
  518POPC   GL210538  10.488  35.456   9.067
  518POPC   C1A10539  10.416  35.219   8.610
  518POPC   D2A10540  10.410  35.636   8.360
  518POPC   C3A10541  10.432  35.477   7.962
  518POPC   C4A10542  10.492  35.438   7.527
  518POPC   C1B10543  10.800  35.533   8.681
  518POPC   C2B10544  10.828  35.336   8.281
  518POPC   C3B10545  10.895  35.281   7.871
  518POPC   C4B10546  10.969  35.606   7.582
  519POPC   NC310547   5.494  44.273   9.823
  519POPC   PO410548   5.058  44.626   9.655
  519POPC   GL110549   5.017  44.737   9.196
  519POPC   GL210550   4.706  44.831   9.093
  519POPC   C1A10551   5.114  44.869   8.737
  519POPC   D2A10552   5.196  44.887   8.280
  519POPC   C3A10553   5.301  44.575   7.949
  519POPC   C4A10554   5.362  44.449   7.504
  519POPC   C1B10555   4.637  44.690   8.642
  519POPC   C2B10556   4.799  44.589   8.222
  519POPC   C3B10557   4.886  44.859   7.869
  519POPC   C4B10558   4.680  44.901   7.488
  520POPC   NC310559  16.066  39.393   9.495
  520POPC   PO410560  15.827  38.925   9.101
  520POPC   GL110561  15.780  39.366   9.078
  520POPC   GL210562  16.119  39.573   9.008
  520POPC   C1A10563  15.671  39.544   8.728
  520POPC   D2A10564  16.033  39.465   8.451
  520POPC   C3A10565  15.919  39.206   8.131
  520POPC   C4A10566  15.861  39.414   7.755
  520POPC   C1B10567  16.361  39.253   8.823
  520POPC   C2B10568  16.264  38.959   8.495
  520POPC   C3B10569  16.405  38.924   8.096
  520POPC   C4B10570  16.167  38.988   7.725
  521POPC   NC310571  11.780  12.856   9.332
  521POPC   PO410572  12.384  12.748   9.310
  521POPC   GL110573  12.154  12.808   8.926
  521POPC   GL210574  11.854  13.047   8.874
  521POPC   C1A10575  12.120  12.772   8.484
  521POPC   D2A10576  11.775  12.999   8.318
  521POPC   C3A10577  11.808  13.147   7.887
  521POPC   C4A10578  12.073  12.976   7.577
  521POPC   C1B10579  11.685  12.641   8.715
  521POPC   C2B10580  11.706  12.472   8.320
  521POPC   C3B10581  11.816  12.629   7.926
  521POPC   C4B10582  11.682  12.653   7.511
  522POPC   NC310583  42.138   5.577   9.577
  522POPC   PO410584  42.194   6.257   9.674
  522POPC   GL110585  42.120   5.916   9.235
  522POPC   GL210586  42.450   5.784   9.213
  522POPC   C1A10587  42.157   5.934   8.780
  522POPC   D2A10588  42.233   6.134   8.401
  522POPC   C3A10589  42.262   5.883   8.001
  522POPC   C4A10590  42.139   5.672   7.612
  522POPC   C1B10591  42.560   5.615   8.830
  522POPC   C2B10592  42.488   5.637   8.406
  522POPC   C3B10593  42.768   5.618   8.065
  522POPC   C4B10594  42.650   5.634   7.653
  523POPC   NC310595   7.046  21.611   9.512
  523POPC   PO410596   6.474  21.292   9.770
  523POPC   GL110597   6.510  21.411   9.275
  523POPC   GL210598   6.789  21.541   9.085
  523POPC   C1A10599   6.378  21.437   8.815
  523POPC   D2A10600   6.416  21.280   8.372
  523POPC   C3A10601   6.474  21.546   8.006
  523POPC   C4A10602   6.610  21.468   7.583
  523POPC   C1B10603   6.991  21.562   8.699
  523POPC   C2B10604   6.896  21.432   8.280
  523POPC   C3B10605   6.974  21.570   7.882
  523POPC   C4B10606   7.051  21.261   7.472
  524POPC   NC310607   3.180  31.425   9.498
  524POPC   PO410608   3.837  31.259   9.535
  524POPC   GL110609   3.830  31.474   9.132
  524POPC   GL210610   3.497  31.602   9.128
  524POPC   C1A10611   3.665  31.464   8.676
  524POPC   D2A10612   3.397  31.625   8.325
  524POPC   C3A10613   3.540  31.766   7.896
  524POPC   C4A10614   3.533  31.667   7.412
  524POPC   C1B10615   3.173  31.442   8.824
  524POPC   C2B10616   3.023  31.269   8.411
  524POPC   C3B10617   3.198  31.312   7.969
  524POPC   C4B10618   3.303  31.245   7.522
  525POPC   NC310619  35.857  13.888   9.352
  525POPC   PO410620  36.263  13.330   9.544
  525POPC   GL110621  36.146  13.498   9.153
  525POPC   GL210622  35.819  13.379   9.132
  525POPC   C1A10623  36.002  13.691   8.743
  525POPC   D2A10624  35.867  13.780   8.325
  525POPC   C3A10625  36.226  13.779   8.083
  525POPC   C4A10626  36.285  13.808   7.671
  525POPC   C1B10627  35.886  13.194   8.740
  525POPC   C2B10628  35.762  13.255   8.311
  525POPC   C3B10629  35.955  13.377   7.917
  525POPC   C4B10630  35.659  13.319   7.606
  526POPC   NC310631  32.607  37.546   9.576
  526POPC   PO410632  31.999  37.571   9.674
  526POPC   GL110633  32.010  37.709   9.234
  526POPC   GL210634  32.318  37.727   9.169
  526POPC   C1A10635  32.054  37.567   8.775
  526POPC   D2A10636  32.019  37.516   8.300
  526POPC   C3A10637  31.959  37.783   7.919
  526POPC   C4A10638  32.110  37.929   7.534
  526POPC   C1B10639  32.454  37.893   8.717
  526POPC   C2B10640  32.463  37.904   8.226
  526POPC   C3B10641  32.472  38.144   7.804
  526POPC   C4B10642  32.519  38.159   7.312
  527POPC   NC310643  42.214   4.692   9.606
  527POPC   PO410644  42.533   5.324   9.551
  527POPC   GL110645  42.420   5.231   9.132
  527POPC   GL210646  42.437   4.916   9.178
  527POPC   C1A10647  42.370   5.178   8.654
  527POPC   D2A10648  42.201   5.192   8.260
  527POPC   C3A10649  42.360   5.351   7.956
  527POPC   C4A10650  42.460   5.129   7.601
  527POPC   C1B10651  42.568   4.738   8.808
  527POPC   C2B10652  42.593   4.783   8.379
  527POPC   C3B10653  42.387   4.781   7.997
  527POPC   C4B10654  42.558   4.497   7.734
  528POPC   NC310655   4.208  34.088   9.613
  528POPC   PO410656   4.578  33.622   9.704
  528POPC   GL110657   4.522  33.703   9.252
  528POPC   GL210658   4.530  34.042   9.189
  528POPC   C1A10659   4.477  33.613   8.785
  528POPC   D2A10660   4.637  33.763   8.364
  528POPC   C3A10661   4.401  33.735   8.014
  528POPC   C4A10662   4.507  33.873   7.626
  528POPC   C1B10663   4.228  34.074   8.864
  528POPC   C2B10664   4.141  33.894   8.463
  528POPC   C3B10665   4.032  34.097   8.053
  528POPC   C4B10666   3.989  33.849   7.685
  529POPC   NC310667  22.405   6.535   9.342
  529POPC   PO410668  21.835   6.168   9.405
  529POPC   GL110669  21.962   6.524   9.104
  529POPC   GL210670  21.915   6.896   9.152
  529POPC   C1A10671  22.185   6.537   8.695
  529POPC   D2A10672  22.390   6.340   8.333
  529POPC   C3A10673  22.264   6.568   7.951
  529POPC   C4A10674  21.977   6.571   7.603
  529POPC   C1B10675  21.736   6.811   8.729
  529POPC   C2B10676  21.979   6.883   8.344
  529POPC   C3B10677  21.915   6.968   7.919
  529POPC   C4B10678  22.255   7.004   7.600
  530POPC   NC310679   3.952  11.742   9.678
  530POPC   PO410680   4.400  12.194   9.622
  530POPC   GL110681   4.262  12.232   9.208
  530POPC   GL210682   4.157  11.882   9.147
  530POPC   C1A10683   4.321  12.202   8.769
  530POPC   D2A10684   4.027  12.400   8.486
  530POPC   C3A10685   3.939  12.178   8.125
  530POPC   C4A10686   4.153  12.160   7.747
  530POPC   C1B10687   4.134  11.678   8.730
  530POPC   C2B10688   4.301  11.879   8.352
  530POPC   C3B10689   4.557  12.096   8.039
  530POPC   C4B10690   4.601  11.991   7.582
  531POPC   NC310691  39.829  11.712   9.351
  531POPC   PO410692  40.343  12.083   9.650
  531POPC   GL110693  40.156  12.146   9.186
  531POPC   GL210694  40.021  11.903   8.922
  531POPC   C1A10695  40.012  12.415   8.833
  531POPC   D2A10696  39.928  12.185   8.448
  531POPC   C3A10697  40.009  12.341   8.016
  531POPC   C4A10698  40.231  12.321   7.587
  531POPC   C1B10699  39.572  11.829   8.758
  531POPC   C2B10700  39.487  11.705   8.354
  531POPC   C3B10701  39.822  11.798   8.093
  531POPC   C4B10702  39.786  11.791   7.699
  532POPC   NC310703  41.790   3.009   9.960
  532POPC   PO410704  41.636   2.579   9.568
  532POPC   GL110705  41.695   2.745   9.101
  532POPC   GL210706  41.999   2.945   9.017
  532POPC   C1A10707  41.664   2.768   8.616
  532POPC   D2A10708  41.845   2.846   8.171
  532POPC   C3A10709  41.636   2.584   7.844
  532POPC   C4A10710  41.770   2.443   7.407
  532POPC   C1B10711  41.892   3.220   8.639
  532POPC   C2B10712  41.634   3.310   8.252
  532POPC   C3B10713  41.490   3.145   7.843
  532POPC   C4B10714  41.588   3.294   7.410
  533POPC   NC310715  41.782  26.292   9.412
  533POPC   PO410716  41.260  25.789   9.559
  533POPC   GL110717  41.309  26.064   9.211
  533POPC   GL210718  41.609  25.878   9.176
  533POPC   C1A10719  41.478  26.203   8.794
  533POPC   D2A10720  41.674  26.080   8.396
  533POPC   C3A10721  41.660  26.271   8.018
  533POPC   C4A10722  41.379  26.179   7.718
  533POPC   C1B10723  41.746  25.720   8.804
  533POPC   C2B10724  41.670  25.574   8.416
  533POPC   C3B10725  41.674  25.687   8.031
  533POPC   C4B10726  41.834  25.867   7.730
  534POPC   NC310727  16.474  11.374   9.713
  534POPC   PO410728  16.881  10.952   9.587
  534POPC   GL110729  16.786  10.916   9.156
  534POPC   GL210730  16.500  11.135   9.212
  534POPC   C1A10731  16.923  11.022   8.746
  534POPC   D2A10732  16.986  11.310   8.374
  534POPC   C3A10733  16.985  11.212   7.922
  534POPC   C4A10734  16.807  11.531   7.646
  534POPC   C1B10735  16.392  10.989   8.801
  534POPC   C2B10736  16.553  10.981   8.377
  534POPC   C3B10737  16.491  11.208   8.011
  534POPC   C4B10738  16.213  11.140   7.713
  535POPC   NC310739   7.860   5.130   9.720
  535POPC   PO410740   8.534   4.969   9.551
  535POPC   GL110741   8.184   5.173   9.277
  535POPC   GL210742   8.429   5.117   9.077
  535POPC   C1A10743   7.966   5.231   8.828
  535POPC   D2A10744   7.713   4.998   8.448
  535POPC   C3A10745   7.828   5.108   7.998
  535POPC   C4A10746   8.013   5.465   7.752
  535POPC   C1B10747   8.370   4.970   8.713
  535POPC   C2B10748   8.214   5.087   8.365
  535POPC   C3B10749   8.394   5.055   8.001
  535POPC   C4B10750   8.189   4.912   7.660
  536POPC   NC310751  24.228  32.602   9.436
  536POPC   PO410752  24.028  33.252   9.319
  536POPC   GL110753  24.273  32.997   9.086
  536POPC   GL210754  24.555  32.927   9.234
  536POPC   C1A10755  24.344  32.725   8.744
  536POPC   D2A10756  24.253  32.635   8.309
  536POPC   C3A10757  24.241  32.970   8.056
  536POPC   C4A10758  24.308  33.091   7.663
  536POPC   C1B10759  24.708  33.099   8.816
  536POPC   C2B10760  24.662  32.927   8.370
  536POPC   C3B10761  24.745  33.046   7.929
  536POPC   C4B10762  24.889  33.222   7.505
  537POPC   NC310763  17.732  42.021   9.430
  537POPC   PO410764  17.432  42.591   9.428
  537POPC   GL110765  17.454  42.302   9.080
  537POPC   GL210766  17.785  42.385   9.065
  537POPC   C1A10767  17.567  42.308   8.629
  537POPC   D2A10768  17.598  42.618   8.282
  537POPC   C3A10769  17.325  42.599   7.929
  537POPC   C4A10770  17.201  42.695   7.503
  537POPC   C1B10771  17.965  42.056   8.803
  537POPC   C2B10772  17.986  42.147   8.369
  537POPC   C3B10773  17.659  42.163   8.071
  537POPC   C4B10774  17.690  41.869   7.782
  538POPC   NC310775  27.042  29.173   9.476
  538POPC   PO410776  26.545  28.748   9.384
  538POPC   GL110777  26.718  29.028   9.119
  538POPC   GL210778  26.629  29.361   9.184
  538POPC   C1A10779  26.981  29.147   8.803
  538POPC   D2A10780  27.050  29.029   8.397
  538POPC   C3A10781  26.997  29.294   8.067
  538POPC   C4A10782  26.945  29.114   7.677
  538POPC   C1B10783  26.437  29.474   8.792
  538POPC   C2B10784  26.599  29.400   8.389
  538POPC   C3B10785  26.466  29.261   8.004
  538POPC   C4B10786  26.526  29.406   7.614
  539POPC   NC310787  41.797  39.394   9.966
  539POPC   PO410788  41.843  38.932   9.426
  539POPC   GL110789  41.624  39.278   9.206
  539POPC   GL210790  41.365  39.055   9.016
  539POPC   C1A10791  41.439  39.527   8.853
  539POPC   D2A10792  41.249  39.315   8.513
  539POPC   C3A10793  41.536  39.129   8.213
  539POPC   C4A10794  41.368  39.188   7.815
  539POPC   C1B10795  41.690  39.072   8.720
  539POPC   C2B10796  41.831  38.735   8.421
  539POPC   C3B10797  41.952  38.807   8.006
  539POPC   C4B10798  41.792  38.980   7.611
  540POPC   NC310799  18.887   8.758   9.407
  540POPC   PO410800  19.439   9.016   9.483
  540POPC   GL110801  19.276   8.832   9.098
  540POPC   GL210802  19.059   9.155   9.097
  540POPC   C1A10803  18.985   8.800   8.726
  540POPC   D2A10804  18.861   9.011   8.332
  540POPC   C3A10805  18.794   8.793   7.916
  540POPC   C4A10806  18.886   8.892   7.465
  540POPC   C1B10807  19.206   9.273   8.675
  540POPC   C2B10808  19.103   9.457   8.246
  540POPC   C3B10809  18.910   9.279   7.889
  540POPC   C4B10810  19.250   9.025   7.772
  541POPC   NC310811   5.582  15.212   9.508
  541POPC   PO410812   5.722  15.713   9.208
  541POPC   GL110813   5.722  15.263   9.031
  541POPC   GL210814   5.396  15.074   9.045
  541POPC   C1A10815   5.991  15.069   8.732
  541POPC   D2A10816   5.898  15.252   8.326
  541POPC   C3A10817   6.058  15.246   7.915
  541POPC   C4A10818   6.025  15.546   7.562
  541POPC   C1B10819   5.518  14.985   8.623
  541POPC   C2B10820   5.665  14.822   8.225
  541POPC   C3B10821   5.569  15.054   7.892
  541POPC   C4B10822   5.626  15.158   7.495
  542POPC   NC310823   5.639   2.569   9.497
  542POPC   PO410824   6.167   2.966   9.431
  542POPC   GL110825   5.914   2.755   9.108
  542POPC   GL210826   6.019   2.434   9.121
  542POPC   C1A10827   5.697   2.547   8.743
  542POPC   D2A10828   5.841   2.707   8.325
  542POPC   C3A10829   5.636   2.745   7.939
  542POPC   C4A10830   5.787   2.883   7.549
  542POPC   C1B10831   6.199   2.616   8.693
  542POPC   C2B10832   6.391   2.739   8.331
  542POPC   C3B10833   6.293   2.598   7.929
  542POPC   C4B10834   5.958   2.428   7.725
  543POPC   NC310835  40.194  35.480   9.603
  543POPC   PO410836  40.877  35.553   9.585
  543POPC   GL110837  40.581  35.446   9.258
  543POPC   GL210838  40.583  35.773   9.140
  543POPC   C1A10839  40.606  35.172   8.885
  543POPC   D2A10840  40.599  34.895   8.524
  543POPC   C3A10841  40.802  34.992   8.140
  543POPC   C4A10842  40.653  35.136   7.731
  543POPC   C1B10843  40.853  35.617   8.836
  543POPC   C2B10844  40.771  35.391   8.463
  543POPC   C3B10845  40.829  35.505   8.051
  543POPC   C4B10846  40.900  35.576   7.640
  544POPC   NC310847   0.813  33.724   9.454
  544POPC   PO410848   1.311  34.158   9.440
  544POPC   GL110849   1.178  34.075   9.078
  544POPC   GL210850   1.204  33.725   9.132
  544POPC   C1A10851   1.386  34.064   8.681
  544POPC   D2A10852   1.310  33.805   8.313
  544POPC   C3A10853   1.033  33.920   7.970
  544POPC   C4A10854   1.109  34.022   7.525
  544POPC   C1B10855   0.990  33.714   8.745
  544POPC   C2B10856   0.909  33.458   8.392
  544POPC   C3B10857   1.142  33.355   8.040
  544POPC   C4B10858   0.973  33.499   7.672
  545POPC   NC310859  21.587  25.299   9.721
  545POPC   PO410860  20.969  25.547   9.552
  545POPC   GL110861  21.307  25.485   9.218
  545POPC   GL210862  21.447  25.160   9.123
  545POPC   C1A10863  21.506  25.512   8.756
  545POPC   D2A10864  21.549  25.232   8.366
  545POPC   C3A10865  21.453  25.413   7.938
  545POPC   C4A10866  21.514  25.525   7.499
  545POPC   C1B10867  21.073  25.253   8.828
  545POPC   C2B10868  21.048  25.358   8.437
  545POPC   C3B10869  21.062  25.121   8.108
  545POPC   C4B10870  20.903  25.164   7.735
  546POPC   NC310871  38.398  36.493   9.603
  546POPC   PO410872  38.882  35.955   9.682
  546POPC   GL110873  38.588  36.108   9.304
  546POPC   GL210874  38.737  36.399   9.191
  546POPC   C1A10875  38.363  36.252   8.877
  546POPC   D2A10876  38.144  36.113   8.475
  546POPC   C3A10877  38.206  36.290   8.060
  546POPC   C4A10878  38.288  36.193   7.634
  546POPC   C1B10879  38.877  36.333   8.790
  546POPC   C2B10880  38.619  36.313   8.416
  546POPC   C3B10881  38.711  36.285   7.990
  546POPC   C4B10882  39.007  36.414   7.683
  547POPC   NC310883   4.072  19.811   9.587
  547POPC   PO410884   3.424  20.103   9.673
  547POPC   GL110885   3.392  19.966   9.206
  547POPC   GL210886   3.485  19.628   9.153
  547POPC   C1A10887   3.525  19.911   8.753
  547POPC   D2A10888   3.704  20.061   8.391
  547POPC   C3A10889   3.429  20.191   8.115
  547POPC   C4A10890   3.341  19.948   7.793
  547POPC   C1B10891   3.628  19.421   8.793
  547POPC   C2B10892   3.603  19.549   8.385
  547POPC   C3B10893   3.457  19.487   8.010
  547POPC   C4B10894   3.618  19.557   7.636
  548POPC   NC310895  39.578  17.493   9.343
  548POPC   PO410896  40.204  16.994   9.384
  548POPC   GL110897  40.066  17.400   9.160
  548POPC   GL210898  40.101  17.766   9.270
  548POPC   C1A10899  40.020  17.464   8.727
  548POPC   D2A10900  40.250  17.205   8.436
  548POPC   C3A10901  40.208  17.381   8.047
  548POPC   C4A10902  39.968  17.748   7.918
  548POPC   C1B10903  40.396  17.787   8.906
  548POPC   C2B10904  40.353  17.786   8.441
  548POPC   C3B10905  40.547  17.794   8.019
  548POPC   C4B10906  40.387  17.619   7.628
  549POPC   NC310907  16.465  22.719   9.638
  549POPC   PO410908  16.725  23.392   9.492
  549POPC   GL110909  16.540  23.018   9.207
  549POPC   GL210910  16.593  23.159   8.901
  549POPC   C1A10911  16.650  22.669   8.855
  549POPC   D2A10912  16.761  22.842   8.430
  549POPC   C3A10913  16.691  22.740   7.982
  549POPC   C4A10914  16.947  22.845   7.626
  549POPC   C1B10915  16.217  23.305   8.717
  549POPC   C2B10916  16.094  23.188   8.333
  549POPC   C3B10917  16.431  23.169   8.074
  549POPC   C4B10918  16.600  23.201   7.674
  550POPC   NC310919  19.071   2.120   9.653
  550POPC   PO410920  19.101   1.475   9.774
  550POPC   GL110921  19.163   1.761   9.313
  550POPC   GL210922  18.904   1.854   9.084
  550POPC   C1A10923  19.323   1.892   8.825
  550POPC   D2A10924  19.262   2.217   8.424
  550POPC   C3A10925  19.177   2.080   7.975
  550POPC   C4A10926  18.882   1.733   7.877
  550POPC   C1B10927  18.848   2.049   8.705
  550POPC   C2B10928  18.787   2.016   8.321
  550POPC   C3B10929  18.760   2.362   8.102
  550POPC   C4B10930  18.550   2.349   7.730
  551POPC   NC310931   3.642  13.283   9.515
  551POPC   PO410932   3.868  13.853   9.440
  551POPC   GL110933   3.729  13.617   9.104
  551POPC   GL210934   3.907  13.271   9.071
  551POPC   C1A10935   3.471  13.794   8.723
  551POPC   D2A10936   3.478  14.036   8.327
  551POPC   C3A10937   3.434  13.784   7.934
  551POPC   C4A10938   3.295  13.945   7.515
  551POPC   C1B10939   3.603  13.298   8.760
  551POPC   C2B10940   3.369  13.362   8.413
  551POPC   C3B10941   3.579  13.265   8.066
  551POPC   C4B10942   3.771  13.361   7.740
  552POPC   NC310943   8.618  11.288   9.697
  552POPC   PO410944   7.994  11.464   9.622
  552POPC   GL110945   8.364  11.508   9.291
  552POPC   GL210946   8.392  11.250   9.117
  552POPC   C1A10947   8.454  11.610   8.780
  552POPC   D2A10948   8.542  11.500   8.291
  552POPC   C3A10949   8.203  11.456   7.913
  552POPC   C4A10950   7.733  11.342   7.868
  552POPC   C1B10951   8.142  11.203   8.757
  552POPC   C2B10952   8.190  11.118   8.321
  552POPC   C3B10953   8.466  11.025   7.963
  552POPC   C4B10954   8.486  11.139   7.533
  553POPC   NC310955  20.578  24.165   9.284
  553POPC   PO410956  20.548  23.545   9.552
  553POPC   GL110957  20.738  23.674   9.200
  553POPC   GL210958  20.995  23.913   9.304
  553POPC   C1A10959  20.629  23.579   8.777
  553POPC   D2A10960  20.556  23.702   8.363
  553POPC   C3A10961  20.712  23.378   8.125
  553POPC   C4A10962  20.615  23.273   7.727
  553POPC   C1B10963  21.000  23.931   8.853
  553POPC   C2B10964  20.976  24.034   8.432
  553POPC   C3B10965  20.941  23.837   8.043
  553POPC   C4B10966  20.631  23.774   7.732
  554POPC   NC310967  19.037  26.576   9.468
  554POPC   PO410968  19.614  27.047   9.448
  554POPC   GL110969  19.401  26.996   9.076
  554POPC   GL210970  19.086  27.078   9.178
  554POPC   C1A10971  19.323  27.124   8.635
  554POPC   D2A10972  19.105  26.904   8.270
  554POPC   C3A10973  19.243  26.860   7.817
  554POPC   C4A10974  19.250  26.626   7.379
  554POPC   C1B10975  18.951  26.816   8.840
  554POPC   C2B10976  18.658  26.867   8.525
  554POPC   C3B10977  18.622  26.913   8.079
  554POPC   C4B10978  18.765  26.700   7.713
  555POPC   NC310979  10.692  28.636   9.363
  555POPC   PO410980  10.473  29.191   9.602
  555POPC   GL110981  10.544  29.135   9.173
  555POPC   GL210982  10.300  28.882   9.166
  555POPC   C1A10983  10.767  28.961   8.793
  555POPC   D2A10984  11.025  28.941   8.406
  555POPC   C3A10985  10.776  29.023   8.059
  555POPC   C4A10986  10.617  29.124   7.657
  555POPC   C1B10987  10.270  29.061   8.721
  555POPC   C2B10988  10.312  29.091   8.263
  555POPC   C3B10989  10.345  28.790   7.897
  555POPC   C4B10990  10.291  28.826   7.403
  556POPC   NC310991  14.605  18.545   9.487
  556POPC   PO410992  14.310  17.977   9.658
  556POPC   GL110993  14.466  18.117   9.256
  556POPC   GL210994  14.243  18.413   9.164
  556POPC   C1A10995  14.504  18.101   8.802
  556POPC   D2A10996  14.670  18.333   8.476
  556POPC   C3A10997  14.566  18.131   8.071
  556POPC   C4A10998  14.538  18.269   7.644
  556POPC   C1B10999  14.091  18.397   8.751
  556POPC   C2B11000  14.119  18.236   8.320
  556POPC   C3B11001  14.133  18.536   7.920
  556POPC   C4B11002  14.150  18.539   7.439
  557POPC   NC311003  44.548  35.001   9.525
  557POPC   PO411004  44.409  35.633   9.463
  557POPC   GL111005  44.454  35.427   9.081
  557POPC   GL211006  44.741  35.240   9.100
  557POPC   C1A11007  44.595  35.460   8.640
  557POPC   D2A11008  44.634  35.158   8.273
  557POPC   C3A11009  44.527  35.284   7.855
  557POPC   C4A11010  44.495  35.150   7.417
  557POPC   C1B11011  44.861  35.018   8.726
  557POPC   C2B11012   0.046  34.884   8.310
  557POPC   C3B11013   0.059  35.136   7.935
  557POPC   C4B11014  44.970  35.305   7.513
  558POPC   NC311015  24.714  16.602   9.669
  558POPC   PO411016  25.270  16.778   9.545
  558POPC   GL111017  24.955  16.760   9.195
  558POPC   GL211018  24.850  17.068   9.051
  558POPC   C1A11019  25.036  16.694   8.724
  558POPC   D2A11020  25.294  16.953   8.376
  558POPC   C3A11021  25.326  16.840   7.923
  558POPC   C4A11022  25.155  16.478   7.666
  558POPC   C1B11023  24.847  17.145   8.588
  558POPC   C2B11024  24.823  16.797   8.267
  558POPC   C3B11025  24.827  16.860   7.848
  558POPC   C4B11026  25.021  17.227   7.765
  559POPC   NC311027  31.080  41.967   9.314
  559POPC   PO411028  30.921  42.543   9.649
  559POPC   GL111029  30.606  42.341   9.299
  559POPC   GL211030  30.340  42.569   9.143
  559POPC   C1A11031  30.535  42.118   8.901
  559POPC   D2A11032  30.504  42.042   8.461
  559POPC   C3A11033  30.776  42.153   8.122
  559POPC   C4A11034  30.633  42.208   7.707
  559POPC   C1B11035  30.613  42.673   8.827
  559POPC   C2B11036  30.614  42.546   8.406
  559POPC   C3B11037  30.629  42.650   7.957
  559POPC   C4B11038  30.479  42.948   7.677
  560POPC   NC311039  35.658  13.095   9.537
  560POPC   PO411040  34.970  12.904   9.615
  560POPC   GL111041  35.243  12.843   9.243
  560POPC   GL211042  35.334  13.182   9.141
  560POPC   C1A11043  35.387  12.824   8.802
  560POPC   D2A11044  35.219  12.829   8.385
  560POPC   C3A11045  35.299  12.634   7.980
  560POPC   C4A11046  35.609  12.822   7.722
  560POPC   C1B11047  35.125  13.255   8.743
  560POPC   C2B11048  35.178  13.353   8.330
  560POPC   C3B11049  35.318  13.149   7.981
  560POPC   C4B11050  35.132  12.935   7.599
  561POPC   NC311051  14.025  18.342   9.694
  561POPC   PO411052  13.370  18.336   9.685
  561POPC   GL111053  13.669  18.171   9.336
  561POPC   GL211054  13.982  17.975   9.265
  561POPC   C1A11055  13.630  18.197   8.879
  561POPC   D2A11056  13.663  18.431   8.485
  561POPC   C3A11057  13.676  18.329   8.074
  561POPC   C4A11058  13.438  18.235   7.743
  561POPC   C1B11059  14.015  17.893   8.804
  561POPC   C2B11060  13.680  17.900   8.456
  561POPC   C3B11061  13.720  17.824   7.995
  561POPC   C4B11062  14.105  18.035   7.836
  562POPC   NC311063  23.314  23.498   9.730
  562POPC   PO411064  23.902  23.730   9.608
  562POPC   GL111065  23.678  23.658   9.211
  562POPC   GL211066  23.314  23.727   9.253
  562POPC   C1A11067  23.716  23.700   8.739
  562POPC   D2A11068  23.874  23.784   8.301
  562POPC   C3A11069  23.645  23.679   7.900
  562POPC   C4A11070  23.801  23.545   7.483
  562POPC   C1B11071  23.270  23.459   8.869
  562POPC   C2B11072  23.163  23.490   8.404
  562POPC   C3B11073  23.157  23.470   7.919
  562POPC   C4B11074  23.292  23.690   7.534
  563POPC   NC311075  11.036  19.592   9.476
  563POPC   PO411076  11.352  20.197   9.555
  563POPC   GL111077  11.435  19.919   9.208
  563POPC   GL211078  11.239  19.634   9.017
  563POPC   C1A11079  11.306  20.087   8.825
  563POPC   D2A11080  11.073  20.038   8.494
  563POPC   C3A11081  11.256  20.038   8.114
  563POPC   C4A11082  11.393  19.815   7.749
  563POPC   C1B11083  11.370  19.611   8.585
  563POPC   C2B11084  11.077  19.585   8.250
  563POPC   C3B11085  11.061  19.460   7.831
  563POPC   C4B11086  11.100  19.601   7.396
  564POPC   NC311087  39.490  30.582   9.484
  564POPC   PO411088  39.107  31.180   9.627
  564POPC   GL111089  39.163  30.917   9.234
  564POPC   GL211090  39.222  30.584   9.040
  564POPC   C1A11091  39.341  31.007   8.812
  564POPC   D2A11092  39.246  30.698   8.518
  564POPC   C3A11093  39.317  30.754   8.097
  564POPC   C4A11094  39.124  30.687   7.711
  564POPC   C1B11095  39.531  30.331   8.771
  564POPC   C2B11096  39.635  30.380   8.304
  564POPC   C3B11097  39.527  30.342   7.856
  564POPC   C4B11098  39.396  30.417   7.374
  565POPC   NC311099  12.266   9.383   9.493
  565POPC   PO411100  11.918   9.938   9.540
  565POPC   GL111101  12.024   9.913   9.136
  565POPC   GL211102  11.745  10.138   9.085
  565POPC   C1A11103  12.029   9.588   8.794
  565POPC   D2A11104  11.883   9.590   8.335
  565POPC   C3A11105  12.266   9.638   8.038
  565POPC   C4A11106  12.324   9.856   7.631
  565POPC   C1B11107  11.757   9.981   8.675
  565POPC   C2B11108  11.955  10.114   8.317
  565POPC   C3B11109  11.938  10.012   7.921
  565POPC   C4B11110  11.840   9.981   7.507
  566POPC   NC311111  21.524  38.097   9.579
  566POPC   PO411112  21.263  38.707   9.604
  566POPC   GL111113  21.404  38.851   9.187
  566POPC   GL211114  21.684  38.626   9.141
  566POPC   C1A11115  21.281  38.749   8.739
  566POPC   D2A11116  21.211  38.489   8.350
  566POPC   C3A11117  21.324  38.653   7.931
  566POPC   C4A11118  21.717  38.820   7.802
  566POPC   C1B11119  21.733  38.502   8.703
  566POPC   C2B11120  21.715  38.513   8.242
  566POPC   C3B11121  21.721  38.285   7.826
  566POPC   C4B11122  21.822  38.098   7.389
  567POPC   NC311123  16.826  41.385   9.806
  567POPC   PO411124  17.263  41.864   9.466
  567POPC   GL111125  17.146  41.650   9.091
  567POPC   GL211126  17.161  41.296   9.084
  567POPC   C1A11127  17.077  41.773   8.639
  567POPC   D2A11128  16.777  41.925   8.364
  567POPC   C3A11129  16.813  41.722   7.977
  567POPC   C4A11130  16.564  41.467   7.780
  567POPC   C1B11131  16.830  41.344   8.798
  567POPC   C2B11132  16.792  41.396   8.362
  567POPC   C3B11133  16.961  41.221   7.969
  567POPC   C4B11134  16.901  41.201   7.497
  568POPC   NC311135   8.474  22.538   9.540
  568POPC   PO411136   7.983  22.085   9.588
  568POPC   GL111137   8.243  22.070   9.258
  568POPC   GL211138   8.116  22.393   9.153
  568POPC   C1A11139   8.212  21.932   8.841
  568POPC   D2A11140   8.261  22.010   8.416
  568POPC   C3A11141   8.135  21.785   8.079
  568POPC   C4A11142   8.244  21.900   7.711
  568POPC   C1B11143   8.215  22.463   8.735
  568POPC   C2B11144   8.083  22.471   8.313
  568POPC   C3B11145   8.176  22.406   7.897
  568POPC   C4B11146   8.055  22.701   7.586
  569POPC   NC311147  34.898   3.919   9.875
  569POPC   PO411148  35.464   4.207   9.805
  569POPC   GL111149  35.287   4.373   9.358
  569POPC   GL211150  35.056   4.651   9.419
  569POPC   C1A11151  35.428   4.375   8.884
  569POPC   D2A11152  35.585   4.563   8.481
  569POPC   C3A11153  35.518   4.340   8.087
  569POPC   C4A11154  35.416   4.218   7.656
  569POPC   C1B11155  35.034   4.678   8.945
  569POPC   C2B11156  35.057   4.497   8.489
  569POPC   C3B11157  35.031   4.446   8.009
  569POPC   C4B11158  34.948   4.062   7.756
  570POPC   NC311159   2.606  13.932   9.507
  570POPC   PO411160   3.202  13.520   9.365
  570POPC   GL111161   2.767  13.521   9.157
  570POPC   GL211162   2.491  13.783   9.043
  570POPC   C1A11163   2.698  13.450   8.710
  570POPC   D2A11164   2.512  13.503   8.313
  570POPC   C3A11165   2.693  13.333   7.982
  570POPC   C4A11166   2.992  13.587   7.786
  570POPC   C1B11167   2.888  13.950   8.837
  570POPC   C2B11168   2.984  14.150   8.417
  570POPC   C3B11169   3.018  14.091   7.960
  570POPC   C4B11170   2.661  13.976   7.680
  571POPC   NC311171  14.994  31.668   9.625
  571POPC   PO411172  15.014  32.318   9.382
  571POPC   GL111173  15.214  32.244   9.019
  571POPC   GL211174  15.208  31.885   8.968
  571POPC   C1A11175  15.171  32.479   8.649
  571POPC   D2A11176  15.157  32.715   8.276
  571POPC   C3A11177  15.177  32.501   7.869
  571POPC   C4A11178  15.559  32.375   7.689
  571POPC   C1B11179  15.325  31.993   8.583
  571POPC   C2B11180  15.211  32.168   8.230
  571POPC   C3B11181  15.126  31.979   7.833
  571POPC   C4B11182  14.908  31.750   7.454
  572POPC   NC311183  13.375  22.178   9.779
  572POPC   PO411184  14.035  22.195   9.747
  572POPC   GL111185  13.688  22.073   9.359
  572POPC   GL211186  13.696  22.309   9.119
  572POPC   C1A11187  13.612  21.920   8.858
  572POPC   D2A11188  13.679  22.129   8.440
  572POPC   C3A11189  13.536  21.988   8.053
  572POPC   C4A11190  13.681  22.166   7.704
  572POPC   C1B11191  13.858  22.476   8.764
  572POPC   C2B11192  13.827  22.628   8.331
  572POPC   C3B11193  13.761  22.635   7.891
  572POPC   C4B11194  14.015  22.548   7.571
  573POPC   NC311195  40.327   5.022   9.559
  573POPC   PO411196  40.994   5.090   9.499
  573POPC   GL111197  40.914   5.244   9.110
  573POPC   GL211198  40.572   5.205   9.157
  573POPC   C1A11199  41.026   5.378   8.707
  573POPC   D2A11200  41.145   5.191   8.324
  573POPC   C3A11201  40.876   5.379   8.009
  573POPC   C4A11202  40.750   5.213   7.610
  573POPC   C1B11203  40.588   5.000   8.795
  573POPC   C2B11204  40.637   5.114   8.385
  573POPC   C3B11205  40.673   4.898   7.993
  573POPC   C4B11206  40.749   4.722   7.560
  574POPC   NC311207  31.210  17.771   9.732
  574POPC   PO411208  31.466  17.218   9.484
  574POPC   GL111209  31.476  17.563   9.171
  574POPC   GL211210  31.685  17.835   9.303
  574POPC   C1A11211  31.382  17.631   8.709
  574POPC   D2A11212  31.412  17.876   8.308
  574POPC   C3A11213  31.416  17.599   7.966
  574POPC   C4A11214  31.375  17.420   7.551
  574POPC   C1B11215  31.789  17.889   8.863
  574POPC   C2B11216  31.919  17.818   8.431
  574POPC   C3B11217  31.880  17.857   7.994
  574POPC   C4B11218  31.781  17.720   7.607
  575POPC   NC311219  15.416  14.233   9.582
  575POPC   PO411220  14.867  14.490   9.569
  575POPC   GL111221  14.989  14.353   9.146
  575POPC   GL211222  15.356  14.358   9.056
  575POPC   C1A11223  14.955  14.459   8.694
  575POPC   D2A11224  15.253  14.440   8.360
  575POPC   C3A11225  15.106  14.462   7.968
  575POPC   C4A11226  15.240  14.847   7.725
  575POPC   C1B11227  15.314  14.059   8.689
  575POPC   C2B11228  15.204  13.943   8.230
  575POPC   C3B11229  15.320  14.034   7.805
  575POPC   C4B11230  15.205  13.925   7.411
  576POPC   NC311231  41.896   7.593   9.517
  576POPC   PO411232  41.506   7.048   9.550
  576POPC   GL111233  41.552   7.382   9.220
  576POPC   GL211234  41.859   7.227   9.137
  576POPC   C1A11235  41.556   7.685   8.843
  576POPC   D2A11236  41.301   7.853   8.475
  576POPC   C3A11237  41.466   7.785   8.070
  576POPC   C4A11238  41.266   7.556   7.758
  576POPC   C1B11239  41.672   7.199   8.742
  576POPC   C2B11240  41.640   7.425   8.380
  576POPC   C3B11241  41.666   7.307   7.964
  576POPC   C4B11242  41.946   7.392   7.606
  577POPC   NC311243   3.005  13.079   9.402
  577POPC   PO411244   2.472  12.655   9.478
  577POPC   GL111245   2.661  12.785   9.151
  577POPC   GL211246   2.482  13.098   9.019
  577POPC   C1A11247   3.010  12.544   8.961
  577POPC   D2A11248   3.044  12.481   8.521
  577POPC   C3A11249   2.685  12.613   8.267
  577POPC   C4A11250   2.707  12.792   7.860
  577POPC   C1B11251   2.827  12.955   8.714
  577POPC   C2B11252   2.961  13.045   8.310
  577POPC   C3B11253   3.146  13.069   7.889
  577POPC   C4B11254   2.899  13.157   7.530
  578POPC   NC311255   2.342  22.736   9.129
  578POPC   PO411256   1.793  23.093   9.461
  578POPC   GL111257   1.872  22.960   9.075
  578POPC   GL211258   2.133  23.223   9.073
  578POPC   C1A11259   1.778  22.647   8.757
  578POPC   D2A11260   1.777  22.847   8.358
  578POPC   C3A11261   1.994  22.675   8.005
  578POPC   C4A11262   1.834  23.014   7.787
  578POPC   C1B11263   2.154  23.210   8.626
  578POPC   C2B11264   2.416  23.295   8.255
  578POPC   C3B11265   2.360  23.061   7.882
  578POPC   C4B11266   2.236  22.822   7.546
  579POPC   NC311267  35.633  16.591   9.663
  579POPC   PO411268  35.070  16.798   9.706
  579POPC   GL111269  35.332  16.763   9.260
  579POPC   GL211270  35.387  16.478   9.149
  579POPC   C1A11271  35.569  16.830   8.829
  579POPC   D2A11272  35.465  16.984   8.425
  579POPC   C3A11273  35.625  16.878   8.008
  579POPC   C4A11274  35.429  16.783   7.596
  579POPC   C1B11275  35.291  16.375   8.709
  579POPC   C2B11276  35.261  16.547   8.259
  579POPC   C3B11277  35.211  16.356   7.818
  579POPC   C4B11278  35.282  16.351   7.347
  580POPC   NC311279  41.144  16.726   9.859
  580POPC   PO411280  41.697  16.942   9.506
  580POPC   GL111281  41.791  16.878   9.102
  580POPC   GL211282  41.820  16.540   9.009
  580POPC   C1A11283  41.813  16.925   8.674
  580POPC   D2A11284  41.559  16.863   8.302
  580POPC   C3A11285  41.688  16.929   7.871
  580POPC   C4A11286  41.405  16.843   7.524
  580POPC   C1B11287  41.816  16.253   8.741
  580POPC   C2B11288  41.755  16.372   8.380
  580POPC   C3B11289  41.647  16.435   8.015
  580POPC   C4B11290  41.733  16.390   7.643
  581POPC   NC311291  20.685  26.579   9.590
  581POPC   PO411292  20.572  27.234   9.321
  581POPC   GL111293  20.670  26.866   9.119
  581POPC   GL211294  20.420  26.547   9.170
  581POPC   C1A11295  20.729  26.993   8.668
  581POPC   D2A11296  20.523  26.928   8.267
  581POPC   C3A11297  20.789  26.926   7.888
  581POPC   C4A11298  20.574  26.923   7.465
  581POPC   C1B11299  20.324  26.703   8.780
  581POPC   C2B11300  20.509  26.467   8.472
  581POPC   C3B11301  20.480  26.344   8.069
  581POPC   C4B11302  20.642  26.474   7.702
  582POPC   NC311303  43.316  26.018   9.500
  582POPC   PO411304  42.946  26.477   9.233
  582POPC   GL111305  43.186  26.369   8.916
  582POPC   GL211306  43.499  26.288   9.065
  582POPC   C1A11307  43.039  26.103   8.593
  582POPC   D2A11308  42.918  25.676   8.531
  582POPC   C3A11309  42.826  25.649   8.110
  582POPC   C4A11310  42.952  25.786   7.687
  582POPC   C1B11311  43.444  25.885   8.802
  582POPC   C2B11312  43.382  25.825   8.324
  582POPC   C3B11313  43.511  25.818   7.870
  582POPC   C4B11314  43.341  26.078   7.527
  583POPC   NC311315   0.334   4.722   9.572
  583POPC   PO411316   0.772   5.221   9.383
  583POPC   GL111317   0.536   4.976   9.131
  583POPC   GL211318   0.227   5.147   9.271
  583POPC   C1A11319   0.714   4.904   8.693
  583POPC   D2A11320   0.820   4.689   8.278
  583POPC   C3A11321   0.536   4.902   7.993
  583POPC   C4A11322   0.645   5.321   8.053
  583POPC   C1B11323   0.182   5.149   8.816
  583POPC   C2B11324   0.230   5.209   8.365
  583POPC   C3B11325   0.146   5.293   7.941
  583POPC   C4B11326   0.230   5.060   7.586
  584POPC   NC311327  31.127  35.179   9.545
  584POPC   PO411328  30.571  35.497   9.394
  584POPC   GL111329  30.880  35.684   9.093
  584POPC   GL211330  31.208  35.662   9.221
  584POPC   C1A11331  30.884  35.706   8.650
  584POPC   D2A11332  30.592  35.415   8.437
  584POPC   C3A11333  30.522  35.521   8.000
  584POPC   C4A11334  30.444  35.372   7.575
  584POPC   C1B11335  31.168  35.310   8.904
  584POPC   C2B11336  31.185  35.324   8.456
  584POPC   C3B11337  30.944  35.254   8.100
  584POPC   C4B11338  30.949  35.310   7.689
  585POPC   NC311339  32.593  22.830   9.331
  585POPC   PO411340  32.194  23.300   9.623
  585POPC   GL111341  32.145  23.089   9.176
  585POPC   GL211342  32.008  22.746   9.152
  585POPC   C1A11343  32.335  22.938   8.735
  585POPC   D2A11344  32.549  22.758   8.309
  585POPC   C3A11345  32.516  23.062   7.929
  585POPC   C4A11346  32.185  23.127   7.602
  585POPC   C1B11347  31.863  22.706   8.715
  585POPC   C2B11348  32.028  22.897   8.326
  585POPC   C3B11349  32.079  22.750   7.925
  585POPC   C4B11350  31.815  22.763   7.574
  586POPC   NC311351  14.058  26.522   9.619
  586POPC   PO411352  13.418  26.805   9.586
  586POPC   GL111353  13.626  26.710   9.197
  586POPC   GL211354  13.329  26.618   9.050
  586POPC   C1A11355  13.690  26.846   8.736
  586POPC   D2A11356  13.483  26.783   8.360
  586POPC   C3A11357  13.758  26.692   8.025
  586POPC   C4A11358  14.011  27.006   7.836
  586POPC   C1B11359  13.483  26.368   8.708
  586POPC   C2B11360  13.527  26.287   8.272
  586POPC   C3B11361  13.270  26.487   7.950
  586POPC   C4B11362  13.196  26.679   7.569
  587POPC   NC311363   8.813   7.305   9.571
  587POPC   PO411364   9.320   7.684   9.445
  587POPC   GL111365   9.069   7.409   9.130
  587POPC   GL211366   8.702   7.344   9.089
  587POPC   C1A11367   9.032   7.223   8.718
  587POPC   D2A11368   9.024   7.447   8.343
  587POPC   C3A11369   9.266   7.287   8.018
  587POPC   C4A11370   9.001   7.432   7.694
  587POPC   C1B11371   8.555   7.018   8.805
  587POPC   C2B11372   8.762   6.862   8.435
  587POPC   C3B11373   8.824   7.043   8.044
  587POPC   C4B11374   8.830   6.884   7.643
  588POPC   NC311375  31.018  15.353   9.667
  588POPC   PO411376  30.514  15.136   9.595
  588POPC   GL111377  30.829  15.118   9.226
  588POPC   GL211378  30.986  15.436   9.127
  588POPC   C1A11379  30.848  15.069   8.744
  588POPC   D2A11380  31.022  15.017   8.296
  588POPC   C3A11381  30.682  14.933   7.979
  588POPC   C4A11382  30.639  14.977   7.513
  588POPC   C1B11383  30.991  15.555   8.674
  588POPC   C2B11384  30.883  15.507   8.219
  588POPC   C3B11385  30.786  15.386   7.799
  588POPC   C4B11386  30.565  15.495   7.448
  589POPC   NC311387  41.813  30.672   9.642
  589POPC   PO411388  41.393  31.051   9.419
  589POPC   GL111389  41.323  30.735   9.139
  589POPC   GL211390  41.650  30.611   9.102
  589POPC   C1A11391  41.312  30.880   8.729
  589POPC   D2A11392  41.538  30.845   8.353
  589POPC   C3A11393  41.317  30.873   7.969
  589POPC   C4A11394  41.570  31.026   7.658
  589POPC   C1B11395  41.538  30.420   8.685
  589POPC   C2B11396  41.718  30.356   8.253
  589POPC   C3B11397  41.749  30.523   7.810
  589POPC   C4B11398  41.912  30.416   7.363
  590POPC   NC311399  40.447   7.872   9.462
  590POPC   PO411400  40.887   8.370   9.370
  590POPC   GL111401  40.769   8.054   9.067
  590POPC   GL211402  40.432   8.110   8.986
  590POPC   C1A11403  40.839   8.112   8.604
  590POPC   D2A11404  41.038   8.316   8.219
  590POPC   C3A11405  41.040   7.999   7.901
  590POPC   C4A11406  41.155   7.926   7.448
  590POPC   C1B11407  40.470   8.476   8.723
  590POPC   C2B11408  40.414   8.390   8.286
  590POPC   C3B11409  40.599   8.400   7.879
  590POPC   C4B11410  40.586   8.524   7.405
  591POPC   NC311411  26.107   7.247   9.500
  591POPC   PO411412  26.225   7.908   9.566
  591POPC   GL111413  26.012   7.672   9.184
  591POPC   GL211414  25.837   7.322   9.079
  591POPC   C1A11415  26.178   7.559   8.784
  591POPC   D2A11416  26.154   7.281   8.443
  591POPC   C3A11417  25.899   7.479   8.138
  591POPC   C4A11418  26.091   7.431   7.771
  591POPC   C1B11419  25.835   6.980   8.725
  591POPC   C2B11420  25.720   7.019   8.284
  591POPC   C3B11421  25.766   7.022   7.844
  591POPC   C4B11422  25.701   7.293   7.497
  592POPC   NC311423  28.134   0.726   9.323
  592POPC   PO411424  28.503   1.200   9.611
  592POPC   GL111425  28.350   1.165   9.183
  592POPC   GL211426  28.085   1.253   9.158
  592POPC   C1A11427  28.230   0.957   8.740
  592POPC   D2A11428  28.428   0.950   8.361
  592POPC   C3A11429  28.211   0.952   7.986
  592POPC   C4A11430  28.450   0.845   7.601
  592POPC   C1B11431  28.043   1.416   8.789
  592POPC   C2B11432  28.085   1.365   8.383
  592POPC   C3B11433  28.190   1.467   8.001
  592POPC   C4B11434  27.972   1.335   7.696
  593POPC   NC311435  13.469  37.104   9.430
  593POPC   PO411436  13.917  36.621   9.543
  593POPC   GL111437  13.815  36.814   9.150
  593POPC   GL211438  13.790  37.195   9.047
  593POPC   C1A11439  13.506  36.791   8.823
  593POPC   D2A11440  13.526  36.999   8.440
  593POPC   C3A11441  13.294  36.997   8.065
  593POPC   C4A11442  13.598  36.925   7.755
  593POPC   C1B11443  13.989  37.043   8.715
  593POPC   C2B11444  14.198  37.128   8.359
  593POPC   C3B11445  14.050  36.974   7.988
  593POPC   C4B11446  13.932  37.322   7.765
  594POPC   NC311447  15.105   5.671   9.482
  594POPC   PO411448  15.505   6.262   9.589
  594POPC   GL111449  15.297   6.065   9.215
  594POPC   GL211450  15.495   5.760   9.124
  594POPC   C1A11451  15.065   5.960   8.835
  594POPC   D2A11452  14.850   5.852   8.439
  594POPC   C3A11453  14.942   5.960   8.013
  594POPC   C4A11454  15.056   6.056   7.577
  594POPC   C1B11455  15.548   5.986   8.712
  594POPC   C2B11456  15.465   5.850   8.284
  594POPC   C3B11457  15.390   5.801   7.846
  594POPC   C4B11458  15.386   5.733   7.362
  595POPC   NC311459  36.591  25.865   9.702
  595POPC   PO411460  37.130  26.254   9.721
  595POPC   GL111461  37.198  26.110   9.282
  595POPC   GL211462  37.169  26.459   9.193
  595POPC   C1A11463  37.211  25.905   8.856
  595POPC   D2A11464  37.245  26.029   8.404
  595POPC   C3A11465  36.975  25.857   8.063
  595POPC   C4A11466  36.640  25.978   7.759
  595POPC   C1B11467  37.240  26.419   8.747
  595POPC   C2B11468  37.093  26.525   8.315
  595POPC   C3B11469  36.908  26.394   7.929
  595POPC   C4B11470  36.448  26.461   7.785
  596POPC   NC311471  17.843  24.220   9.764
  596POPC   PO411472  18.311  24.703   9.513
  596POPC   GL111473  18.075  24.516   9.184
  596POPC   GL211474  17.920  24.710   9.004
  596POPC   C1A11475  18.085  24.280   8.765
  596POPC   D2A11476  18.024  24.561   8.403
  596POPC   C3A11477  18.297  24.487   8.040
  596POPC   C4A11478  18.239  24.315   7.646
  596POPC   C1B11479  18.370  24.697   8.787
  596POPC   C2B11480  18.434  24.896   8.386
  596POPC   C3B11481  18.209  24.990   8.017
  596POPC   C4B11482  18.404  24.890   7.608
  597POPC   NC311483  25.046  38.423   9.604
  597POPC   PO411484  25.712  38.345   9.518
  597POPC   GL111485  25.350  38.463   9.215
  597POPC   GL211486  24.981  38.328   9.130
  597POPC   C1A11487  25.260  38.623   8.823
  597POPC   D2A11488  25.137  38.710   8.420
  597POPC   C3A11489  25.396  38.604   8.091
  597POPC   C4A11490  25.297  38.664   7.681
  597POPC   C1B11491  25.050  38.135   8.756
  597POPC   C2B11492  25.293  38.193   8.404
  597POPC   C3B11493  25.171  38.147   7.990
  597POPC   C4B11494  25.127  38.182   7.578
  598POPC   NC311495  38.719  37.239   9.599
  598POPC   PO411496  38.101  36.884   9.626
  598POPC   GL111497  38.272  36.811   9.216
  598POPC   GL211498  38.574  36.961   9.187
  598POPC   C1A11499  38.100  36.884   8.797
  598POPC   D2A11500  38.158  36.619   8.454
  598POPC   C3A11501  38.450  36.765   8.148
  598POPC   C4A11502  38.342  37.100   7.835
  598POPC   C1B11503  38.591  36.742   8.797
  598POPC   C2B11504  38.885  36.754   8.467
  598POPC   C3B11505  38.961  36.753   8.051
  598POPC   C4B11506  38.825  37.071   7.775
  599POPC   NC311507  35.450  19.819   9.643
  599POPC   PO411508  34.960  20.185   9.389
  599POPC   GL111509  35.160  19.873   9.103
  599POPC   GL211510  35.494  19.776   9.144
  599POPC   C1A11511  35.095  19.722   8.657
  599POPC   D2A11512  34.992  19.959   8.246
  599POPC   C3A11513  35.142  19.842   7.808
  599POPC   C4A11514  35.312  19.991   7.399
  599POPC   C1B11515  35.688  19.720   8.751
  599POPC   C2B11516  35.617  19.406   8.442
  599POPC   C3B11517  35.542  19.611   8.060
  599POPC   C4B11518  35.588  19.638   7.623
  600POPC   NC311519   8.895  10.330   9.625
  600POPC   PO411520   8.658  10.929   9.399
  600POPC   GL111521   8.916  10.606   9.174
  600POPC   GL211522   8.967  10.211   9.140
  600POPC   C1A11523   8.813  10.507   8.750
  600POPC   D2A11524   8.949  10.649   8.369
  600POPC   C3A11525   8.905  10.574   7.958
  600POPC   C4A11526   9.186  10.611   7.588
  600POPC   C1B11527   9.189  10.159   8.807
  600POPC   C2B11528   9.388  10.415   8.489
  600POPC   C3B11529   9.395  10.411   8.043
  600POPC   C4B11530   9.168  10.147   7.784
  601POPC   NC311531  32.723   0.254   9.581
  601POPC   PO411532  33.313   0.656   9.483
  601POPC   GL111533  33.065   0.605   9.187
  601POPC   GL211534  33.074   0.272   9.187
  601POPC   C1A11535  32.991   0.653   8.761
  601POPC   D2A11536  33.190   0.609   8.385
  601POPC   C3A11537  32.990   0.623   7.987
  601POPC   C4A11538  32.820   0.313   7.770
  601POPC   C1B11539  33.348   0.307   8.839
  601POPC   C2B11540  33.304   0.082   8.465
  601POPC   C3B11541  33.348   0.251   8.038
  601POPC   C4B11542  33.251   0.029   7.663
  602POPC   NC311543  18.672  44.292   9.529
  602POPC   PO411544  19.139  43.824   9.618
  602POPC   GL111545  19.131  43.861   9.168
  602POPC   GL211546  18.897  44.093   9.104
  602POPC   C1A11547  19.195  43.703   8.761
  602POPC   D2A11548  18.957  43.510   8.436
  602POPC   C3A11549  19.049  43.674   8.017
  602POPC   C4A11550  19.126  43.826   7.600
  602POPC   C1B11551  19.174  44.229   8.762
  602POPC   C2B11552  19.217  44.066   8.338
  602POPC   C3B11553  19.095  44.206   7.931
  602POPC   C4B11554  18.697  44.275   7.717
  603POPC   NC311555  17.122  23.529   9.725
  603POPC   PO411556  16.743  24.095   9.702
  603POPC   GL111557  16.839  23.862   9.232
  603POPC   GL211558  17.156  23.879   9.093
  603POPC   C1A11559  16.912  23.555   8.826
  603POPC   D2A11560  16.724  23.371   8.460
  603POPC   C3A11561  16.872  23.447   8.047
  603POPC   C4A11562  16.582  23.700   7.837
  603POPC   C1B11563  16.897  24.068   8.728
  603POPC   C2B11564  16.710  24.134   8.321
  603POPC   C3B11565  16.821  24.168   7.877
  603POPC   C4B11566  16.930  24.154   7.440
  604POPC   NC311567  16.153  17.982   9.402
  604POPC   PO411568  16.864  18.195   9.488
  604POPC   GL111569  16.782  18.374   9.124
  604POPC   GL211570  16.442  18.327   9.135
  604POPC   C1A11571  16.959  18.336   8.726
  604POPC   D2A11572  16.775  18.326   8.332
  604POPC   C3A11573  16.929  18.286   7.937
  604POPC   C4A11574  16.678  18.120   7.589
  604POPC   C1B11575  16.460  18.508   8.732
  604POPC   C2B11576  16.475  18.704   8.326
  604POPC   C3B11577  16.452  18.483   7.906
  604POPC   C4B11578  16.346  18.482   7.452
  605POPC   NC311579  23.648  27.924   9.452
  605POPC   PO411580  23.828  28.652   9.625
  605POPC   GL111581  23.632  28.613   9.235
  605POPC   GL211582  23.507  28.940   9.160
  605POPC   C1A11583  23.648  28.343   8.843
  605POPC   D2A11584  23.901  28.194   8.507
  605POPC   C3A11585  23.719  28.094   8.114
  605POPC   C4A11586  23.903  28.339   7.812
  605POPC   C1B11587  23.560  28.829   8.716
  605POPC   C2B11588  23.418  28.543   8.367
  605POPC   C3B11589  23.425  28.493   7.909
  605POPC   C4B11590  23.599  28.817   7.676
  606POPC   NC311591  41.474  29.052   9.859
  606POPC   PO411592  41.672  29.150   9.246
  606POPC   GL111593  41.317  29.222   8.966
  606POPC   GL211594  41.055  29.011   9.018
  606POPC   C1A11595  41.481  29.392   8.583
  606POPC   D2A11596  41.793  29.286   8.275
  606POPC   C3A11597  41.586  29.468   7.921
  606POPC   C4A11598  41.684  29.316   7.532
  606POPC   C1B11599  41.080  29.049   8.547
  606POPC   C2B11600  41.299  29.138   8.181
  606POPC   C3B11601  41.605  28.948   7.882
  606POPC   C4B11602  41.467  28.821   7.442
  607POPC   NC311603  40.322  31.516   9.499
  607POPC   PO411604  39.715  31.688   9.510
  607POPC   GL111605  39.929  31.436   9.168
  607POPC   GL211606  40.152  31.704   9.077
  607POPC   C1A11607  39.819  31.222   8.768
  607POPC   D2A11608  39.679  31.419   8.359
  607POPC   C3A11609  39.780  31.300   7.928
  607POPC   C4A11610  40.032  31.068   7.615
  607POPC   C1B11611  39.969  31.686   8.711
  607POPC   C2B11612  40.145  31.681   8.299
  607POPC   C3B11613  40.264  31.819   7.888
  607POPC   C4B11614  40.074  31.574   7.592
  608POPC   NC311615  31.449  30.318   9.738
  608POPC   PO411616  31.714  30.913   9.472
  608POPC   GL111617  31.439  30.743   9.141
  608POPC   GL211618  31.397  30.403   9.187
  608POPC   C1A11619  31.331  30.794   8.722
  608POPC   D2A11620  31.522  31.087   8.426
  608POPC   C3A11621  31.540  30.944   7.996
  608POPC   C4A11622  31.504  30.829   7.521
  608POPC   C1B11623  31.575  30.362   8.746
  608POPC   C2B11624  31.435  30.519   8.298
  608POPC   C3B11625  31.534  30.436   7.848
  608POPC   C4B11626  31.608  30.105   7.522
  609POPC   NC311627  20.097  32.104   9.558
  609POPC   PO411628  20.333  32.614   9.618
  609POPC   GL111629  20.071  32.526   9.209
  609POPC   GL211630  19.824  32.249   9.140
  609POPC   C1A11631  20.017  32.521   8.735
  609POPC   D2A11632  19.941  32.282   8.368
  609POPC   C3A11633  19.772  32.445   8.028
  609POPC   C4A11634  19.758  32.464   7.591
  609POPC   C1B11635  19.635  32.128   8.736
  609POPC   C2B11636  19.439  32.121   8.295
  609POPC   C3B11637  19.321  32.256   7.855
  609POPC   C4B11638  19.137  32.259   7.398
  610POPC   NC311639  17.732  38.317   9.402
  610POPC   PO411640  17.160  38.661   9.672
  610POPC   GL111641  17.337  38.749   9.176
  610POPC   GL211642  17.628  38.608   8.990
  610POPC   C1A11643  17.269  38.808   8.705
  610POPC   D2A11644  17.338  38.606   8.313
  610POPC   C3A11645  17.496  38.661   7.918
  610POPC   C4A11646  17.230  38.609   7.591
  610POPC   C1B11647  17.454  38.281   8.690
  610POPC   C2B11648  17.463  38.094   8.285
  610POPC   C3B11649  17.247  38.190   7.899
  610POPC   C4B11650  17.482  38.076   7.528
  611POPC   NC311651  41.895  15.265   9.452
  611POPC   PO411652  41.438  14.827   9.399
  611POPC   GL111653  41.500  15.162   9.100
  611POPC   GL211654  41.339  15.504   9.180
  611POPC   C1A11655  41.692  15.175   8.697
  611POPC   D2A11656  41.879  15.171   8.259
  611POPC   C3A11657  41.709  14.894   8.001
  611POPC   C4A11658  41.675  15.020   7.604
  611POPC   C1B11659  41.247  15.424   8.726
  611POPC   C2B11660  41.382  15.263   8.307
  611POPC   C3B11661  41.567  15.417   7.921
  611POPC   C4B11662  41.348  15.396   7.501
  612POPC   NC311663  16.229  20.710   9.498
  612POPC   PO411664  16.210  20.055   9.456
  612POPC   GL111665  16.092  20.369   9.113
  612POPC   GL211666  15.824  20.635   9.162
  612POPC   C1A11667  16.143  20.649   8.737
  612POPC   D2A11668  16.327  20.539   8.333
  612POPC   C3A11669  16.167  20.516   7.923
  612POPC   C4A11670  16.119  20.608   7.498
  612POPC   C1B11671  15.628  20.581   8.773
  612POPC   C2B11672  15.773  20.518   8.369
  612POPC   C3B11673  15.711  20.728   8.004
  612POPC   C4B11674  15.685  20.460   7.698
  613POPC   NC311675  20.230  16.640   9.390
  613POPC   PO411676  20.144  17.184   9.868
  613POPC   GL111677  20.519  17.051   9.388
  613POPC   GL211678  20.703  16.719   9.252
  613POPC   C1A11679  20.462  16.950   8.866
  613POPC   D2A11680  20.396  16.976   8.385
  613POPC   C3A11681  20.434  16.568   8.129
  613POPC   C4A11682  20.346  16.360   7.690
  613POPC   C1B11683  20.973  16.680   8.868
  613POPC   C2B11684  21.105  16.506   8.459
  613POPC   C3B11685  21.042  16.675   8.069
  613POPC   C4B11686  20.785  16.619   7.732
  614POPC   NC311687  27.826  12.187   9.537
  614POPC   PO411688  28.520  12.105   9.551
  614POPC   GL111689  28.267  11.998   9.130
  614POPC   GL211690  28.130  12.281   9.044
  614POPC   C1A11691  28.478  11.871   8.720
  614POPC   D2A11692  28.732  11.933   8.344
  614POPC   C3A11693  28.585  12.117   7.969
  614POPC   C4A11694  28.249  12.088   7.721
  614POPC   C1B11695  28.160  12.238   8.590
  614POPC   C2B11696  28.132  12.306   8.165
  614POPC   C3B11697  27.976  12.520   7.793
  614POPC   C4B11698  28.153  12.488   7.367
  615POPC   NC311699  34.330  31.321   9.378
  615POPC   PO411700  34.724  31.823   9.568
  615POPC   GL111701  34.886  31.667   9.176
  615POPC   GL211702  34.822  31.313   9.178
  615POPC   C1A11703  34.716  31.746   8.744
  615POPC   D2A11704  34.569  31.556   8.362
  615POPC   C3A11705  34.529  31.756   7.964
  615POPC   C4A11706  34.873  31.761   7.739
  615POPC   C1B11707  34.736  31.246   8.759
  615POPC   C2B11708  34.963  31.206   8.368
  615POPC   C3B11709  34.723  31.257   7.985
  615POPC   C4B11710  34.352  31.110   7.868
  616POPC   NC311711   8.831  35.546   9.394
  616POPC   PO411712   9.431  35.375   9.349
  616POPC   GL111713   9.121  35.338   9.025
  616POPC   GL211714   9.053  35.666   8.942
  616POPC   C1A11715   9.147  35.316   8.597
  616POPC   D2A11716   8.980  35.589   8.269
  616POPC   C3A11717   9.116  35.497   7.872
  616POPC   C4A11718   9.160  35.098   7.664
  616POPC   C1B11719   8.684  35.536   8.700
  616POPC   C2B11720   8.700  35.181   8.411
  616POPC   C3B11721   8.745  35.083   8.016
  616POPC   C4B11722   8.703  35.317   7.662
  617POPC   NC311723  38.535  41.260   9.559
  617POPC   PO411724  38.790  41.896   9.534
  617POPC   GL111725  38.570  41.669   9.129
  617POPC   GL211726  38.572  41.321   9.077
  617POPC   C1A11727  38.333  41.555   8.725
  617POPC   D2A11728  38.514  41.483   8.324
  617POPC   C3A11729  38.283  41.480   7.939
  617POPC   C4A11730  38.313  41.769   7.583
  617POPC   C1B11731  38.729  41.201   8.695
  617POPC   C2B11732  38.996  41.305   8.332
  617POPC   C3B11733  38.856  41.516   7.938
  617POPC   C4B11734  38.652  41.222   7.653
  618POPC   NC311735  37.547  11.850   9.426
  618POPC   PO411736  37.791  12.489   9.469
  618POPC   GL111737  37.831  12.191   9.142
  618POPC   GL211738  38.063  11.923   9.269
  618POPC   C1A11739  37.532  12.025   8.805
  618POPC   D2A11740  37.383  12.142   8.390
  618POPC   C3A11741  37.347  11.814   8.088
  618POPC   C4A11742  37.514  11.823   7.664
  618POPC   C1B11743  38.032  11.814   8.836
  618POPC   C2B11744  37.906  12.035   8.460
  618POPC   C3B11745  37.783  12.065   8.034
  618POPC   C4B11746  38.001  12.065   7.666
  619POPC   NC311747  44.201   6.265   9.281
  619POPC   PO411748  43.883   6.839   9.411
  619POPC   GL111749  43.759   6.701   9.061
  619POPC   GL211750  43.684   6.379   9.170
  619POPC   C1A11751  43.862   6.884   8.680
  619POPC   D2A11752  44.072   6.925   8.310
  619POPC   C3A11753  43.997   6.600   8.025
  619POPC   C4A11754  44.138   6.820   7.695
  619POPC   C1B11755  43.809   6.251   8.753
  619POPC   C2B11756  43.583   6.159   8.346
  619POPC   C3B11757  43.537   6.319   7.925
  619POPC   C4B11758  43.850   6.346   7.577
  620POPC   NC311759  44.162  12.176   9.697
  620POPC   PO411760  43.586  11.887   9.538
  620POPC   GL111761  43.933  11.988   9.224
  620POPC   GL211762  44.039  12.307   9.201
  620POPC   C1A11763  44.051  11.907   8.789
  620POPC   D2A11764  44.186  11.950   8.353
  620POPC   C3A11765  43.951  11.771   7.966
  620POPC   C4A11766  44.005  12.068   7.604
  620POPC   C1B11767  43.849  12.364   8.806
  620POPC   C2B11768  43.705  12.411   8.395
  620POPC   C3B11769  43.879  12.475   7.982
  620POPC   C4B11770  43.702  12.470   7.577
  621POPC   NC311771  37.092  37.809   9.650
  621POPC   PO411772  36.699  37.322   9.406
  621POPC   GL111773  36.765  37.481   9.010
  621POPC   GL211774  36.938  37.784   9.119
  621POPC   C1A11775  37.058  37.587   8.655
  621POPC   D2A11776  37.223  37.765   8.278
  621POPC   C3A11777  36.953  37.596   7.963
  621POPC   C4A11778  36.523  37.610   7.861
  621POPC   C1B11779  36.700  37.939   8.749
  621POPC   C2B11780  36.728  37.931   8.295
  621POPC   C3B11781  36.979  38.124   7.956
  621POPC   C4B11782  37.178  38.218   7.541
  622POPC   NC311783   0.746  39.372   9.436
  622POPC   PO411784   0.050  39.363   9.433
  622POPC   GL111785   0.308  39.331   9.127
  622POPC   GL211786   0.404  39.016   9.155
  622POPC   C1A11787   0.366  39.473   8.726
  622POPC   D2A11788   0.077  39.490   8.385
  622POPC   C3A11789   0.241  39.424   7.966
  622POPC   C4A11790   0.359  39.556   7.555
  622POPC   C1B11791   0.620  39.023   8.776
  622POPC   C2B11792   0.548  39.130   8.341
  622POPC   C3B11793   0.520  38.987   7.914
  622POPC   C4B11794   0.804  38.857   7.603
  623POPC   NC311795  24.778  29.515   9.382
  623POPC   PO411796  24.189  29.225   9.586
  623POPC   GL111797  24.451  29.090   9.242
  623POPC   GL211798  24.365  29.385   9.121
  623POPC   C1A11799  24.636  29.076   8.797
  623POPC   D2A11800  24.421  29.147   8.381
  623POPC   C3A11801  24.687  29.105   8.024
  623POPC   C4A11802  24.833  29.141   7.612
  623POPC   C1B11803  24.390  29.514   8.740
  623POPC   C2B11804  24.204  29.614   8.391
  623POPC   C3B11805  24.305  29.511   7.975
  623POPC   C4B11806  24.029  29.543   7.625
  624POPC   NC311807  28.924  27.466   9.574
  624POPC   PO411808  29.128  28.085   9.517
  624POPC   GL111809  29.264  27.829   9.156
  624POPC   GL211810  29.245  27.450   9.187
  624POPC   C1A11811  29.303  27.754   8.700
  624POPC   D2A11812  28.949  27.776   8.418
  624POPC   C3A11813  29.068  27.697   7.984
  624POPC   C4A11814  29.396  27.807   7.684
  624POPC   C1B11815  28.984  27.399   8.820
  624POPC   C2B11816  29.155  27.319   8.376
  624POPC   C3B11817  29.051  27.162   7.974
  624POPC   C4B11818  28.820  27.288   7.679
  625POPC   NC311819  21.795  42.190   9.758
  625POPC   PO411820  22.027  41.667   9.454
  625POPC   GL111821  22.329  41.506   9.167
  625POPC   GL211822  22.304  41.835   9.062
  625POPC   C1A11823  22.396  41.323   8.744
  625POPC   D2A11824  22.192  41.174   8.387
  625POPC   C3A11825  22.237  41.358   7.969
  625POPC   C4A11826  22.057  41.140   7.603
  625POPC   C1B11827  22.504  41.809   8.729
  625POPC   C2B11828  22.472  41.652   8.332
  625POPC   C3B11829  22.329  41.898   8.022
  625POPC   C4B11830  22.134  41.863   7.615
  626POPC   NC311831  43.990  13.925   9.590
  626POPC   PO411832  43.476  13.450   9.513
  626POPC   GL111833  43.723  13.625   9.139
  626POPC   GL211834  44.069  13.594   9.195
  626POPC   C1A11835  43.889  13.609   8.680
  626POPC   D2A11836  43.763  13.796   8.266
  626POPC   C3A11837  43.563  13.591   7.925
  626POPC   C4A11838  43.755  13.771   7.607
  626POPC   C1B11839  44.207  13.294   8.928
  626POPC   C2B11840  44.188  13.228   8.487
  626POPC   C3B11841  43.971  13.358   8.126
  626POPC   C4B11842  44.116  13.404   7.714
  627POPC   NC311843  41.133  37.813   9.486
  627POPC   PO411844  40.496  37.929   9.478
  627POPC   GL111845  40.762  37.845   9.132
  627POPC   GL211846  40.964  37.524   9.106
  627POPC   C1A11847  40.987  37.854   8.731
  627POPC   D2A11848  41.184  38.028   8.360
  627POPC   C3A11849  40.960  37.901   7.997
  627POPC   C4A11850  40.705  37.908   7.598
  627POPC   C1B11851  41.221  37.390   8.775
  627POPC   C2B11852  41.140  37.511   8.347
  627POPC   C3B11853  41.055  37.394   7.910
  627POPC   C4B11854  40.826  37.419   7.524
  628POPC   NC311855  12.382  22.956   9.871
  628POPC   PO411856  11.967  22.516   9.602
  628POPC   GL111857  12.129  22.640   9.196
  628POPC   GL211858  12.296  22.979   9.181
  628POPC   C1A11859  11.937  22.791   8.827
  628POPC   D2A11860  11.904  22.635   8.444
  628POPC   C3A11861  12.010  22.837   8.085
  628POPC   C4A11862  11.874  22.630   7.709
  628POPC   C1B11863  12.127  23.249   8.847
  628POPC   C2B11864  12.092  23.352   8.422
  628POPC   C3B11865  12.224  23.316   7.999
  628POPC   C4B11866  12.077  23.086   7.618
  629POPC   NC311867  20.196  41.190   9.468
  629POPC   PO411868  20.749  41.666   9.435
  629POPC   GL111869  20.400  41.582   9.147
  629POPC   GL211870  20.425  41.246   8.997
  629POPC   C1A11871  20.399  41.710   8.730
  629POPC   D2A11872  20.648  41.662   8.385
  629POPC   C3A11873  20.466  41.622   8.008
  629POPC   C4A11874  20.535  41.861   7.618
  629POPC   C1B11875  20.829  41.369   8.796
  629POPC   C2B11876  21.059  41.351   8.398
  629POPC   C3B11877  20.880  41.310   7.998
  629POPC   C4B11878  20.665  41.384   7.587
  630POPC   NC311879  37.934  17.822   9.420
  630POPC   PO411880  37.496  18.399   9.399
  630POPC   GL111881  37.633  18.398   9.003
  630POPC   GL211882  37.951  18.225   9.097
  630POPC   C1A11883  37.635  18.488   8.550
  630POPC   D2A11884  37.416  18.612   8.173
  630POPC   C3A11885  37.545  18.430   7.762
  630POPC   C4A11886  37.552  18.139   7.416
  630POPC   C1B11887  38.098  18.507   8.781
  630POPC   C2B11888  38.173  18.521   8.331
  630POPC   C3B11889  38.096  18.489   7.878
  630POPC   C4B11890  37.983  18.095   7.689
  631POPC   NC311891  21.557  18.627   9.389
  631POPC   PO411892  21.614  17.984   9.666
  631POPC   GL111893  21.572  18.055   9.206
  631POPC   GL211894  21.753  17.837   8.974
  631POPC   C1A11895  21.323  18.147   8.816
  631POPC   D2A11896  21.184  18.384   8.443
  631POPC   C3A11897  21.478  18.353   8.114
  631POPC   C4A11898  21.432  18.442   7.687
  631POPC   C1B11899  21.623  17.793   8.547
  631POPC   C2B11900  21.199  17.895   8.343
  631POPC   C3B11901  21.168  18.014   7.914
  631POPC   C4B11902  21.581  17.948   7.715
  632POPC   NC311903  27.995  32.662   9.693
  632POPC   PO411904  27.499  32.216   9.543
  632POPC   GL111905  27.637  32.355   9.147
  632POPC   GL211906  27.845  32.615   9.209
  632POPC   C1A11907  27.440  32.374   8.786
  632POPC   D2A11908  27.231  32.320   8.430
  632POPC   C3A11909  27.476  32.221   8.111
  632POPC   C4A11910  27.515  32.014   7.753
  632POPC   C1B11911  27.916  32.611   8.777
  632POPC   C2B11912  27.673  32.631   8.416
  632POPC   C3B11913  27.772  32.600   7.993
  632POPC   C4B11914  27.690  32.464   7.580
  633POPC   NC311915  41.553  42.675   9.506
  633POPC   PO411916  41.184  42.209   9.724
  633POPC   GL111917  41.263  42.406   9.212
  633POPC   GL211918  41.633  42.396   9.086
  633POPC   C1A11919  41.332  42.265   8.724
  633POPC   D2A11920  41.488  42.323   8.328
  633POPC   C3A11921  41.238  42.256   7.928
  633POPC   C4A11922  41.023  42.555   7.660
  633POPC   C1B11923  41.918  42.370   8.708
  633POPC   C2B11924  42.020  42.297   8.296
  633POPC   C3B11925  41.781  42.184   7.946
  633POPC   C4B11926  41.791  42.381   7.560
  634POPC   NC311927  42.849  38.474   9.429
  634POPC   PO411928  43.340  38.126   9.685
  634POPC   GL111929  43.282  38.140   9.194
  634POPC   GL211930  42.968  38.243   9.000
  634POPC   C1A11931  43.404  38.236   8.751
  634POPC   D2A11932  43.125  38.337   8.380
  634POPC   C3A11933  43.331  38.444   7.976
  634POPC   C4A11934  43.243  38.377   7.543
  634POPC   C1B11935  42.767  38.573   8.745
  634POPC   C2B11936  42.875  38.844   8.435
  634POPC   C3B11937  42.878  38.723   8.041
  634POPC   C4B11938  42.779  38.795   7.634
  635POPC   NC311939  26.605  38.506   9.315
  635POPC   PO411940  27.211  38.139   9.493
  635POPC   GL111941  27.000  38.192   9.144
  635POPC   GL211942  27.041  38.504   9.063
  635POPC   C1A11943  26.842  38.087   8.740
  635POPC   D2A11944  26.892  38.274   8.362
  635POPC   C3A11945  26.585  38.228   8.072
  635POPC   C4A11946  26.907  38.201   7.783
  635POPC   C1B11947  26.745  38.613   8.722
  635POPC   C2B11948  26.616  38.703   8.348
  635POPC   C3B11949  26.794  38.671   7.999
  635POPC   C4B11950  26.552  38.536   7.661
  636POPC   NC311951   9.490  32.488   9.654
  636POPC   PO411952  10.105  32.381   9.443
  636POPC   GL111953   9.878  32.483   9.074
  636POPC   GL211954   9.558  32.678   9.155
  636POPC   C1A11955   9.929  32.240   8.681
  636POPC   D2A11956   9.722  31.959   8.410
  636POPC   C3A11957   9.775  32.063   7.984
  636POPC   C4A11958   9.711  31.919   7.569
  636POPC   C1B11959   9.431  32.377   8.822
  636POPC   C2B11960   9.319  32.306   8.392
  636POPC   C3B11961   9.484  32.523   8.069
  636POPC   C4B11962   9.774  32.509   7.730
  637POPC   NC311963  21.662  44.602   9.527
  637POPC   PO411964  21.112   0.004   9.402
  637POPC   GL111965  21.303  44.656   9.153
  637POPC   GL211966  21.575  44.865   9.105
  637POPC   C1A11967  21.437  44.497   8.739
  637POPC   D2A11968  21.383  44.801   8.384
  637POPC   C3A11969  21.198  44.704   7.979
  637POPC   C4A11970  21.326  44.393   7.711
  637POPC   C1B11971  21.757  44.918   8.724
  637POPC   C2B11972  21.912  44.854   8.314
  637POPC   C3B11973  21.719  44.571   8.058
  637POPC   C4B11974  21.805  44.509   7.650
  638POPC   NC311975   8.180  23.482   9.488
  638POPC   PO411976   8.506  23.975   9.607
  638POPC   GL111977   8.124  23.877   9.198
  638POPC   GL211978   8.096  24.075   8.859
  638POPC   C1A11979   7.991  23.560   8.829
  638POPC   D2A11980   7.854  23.528   8.358
  638POPC   C3A11981   8.011  23.816   8.042
  638POPC   C4A11982   8.194  23.746   7.624
  638POPC   C1B11983   8.327  23.850   8.564
  638POPC   C2B11984   8.527  23.857   8.213
  638POPC   C3B11985   8.603  23.932   7.856
  638POPC   C4B11986   8.536  24.193   7.615
  639POPC   NC311987  18.345  29.773   9.462
  639POPC   PO411988  17.914  30.226   9.332
  639POPC   GL111989  18.142  30.013   9.062
  639POPC   GL211990  18.118  29.650   9.007
  639POPC   C1A11991  18.189  30.081   8.680
  639POPC   D2A11992  18.315  29.960   8.311
  639POPC   C3A11993  18.110  29.984   7.922
  639POPC   C4A11994  18.400  30.182   7.659
  639POPC   C1B11995  18.534  29.730   8.799
  639POPC   C2B11996  18.780  29.705   8.396
  639POPC   C3B11997  18.548  29.679   7.973
  639POPC   C4B11998  18.363  29.665   7.559
  640POPC   NC311999   0.724  16.650   9.625
  640POPC   PO412000   1.255  16.275   9.515
  640POPC   GL112001   1.341  16.697   9.273
  640POPC   GL212002   1.068  16.806   9.168
  640POPC   C1A12003   1.425  16.788   8.795
  640POPC   D2A12004   1.249  16.816   8.363
  640POPC   C3A12005   1.338  16.615   7.971
  640POPC   C4A12006   1.592  16.691   7.595
  640POPC   C1B12007   0.918  16.942   8.769
  640POPC   C2B12008   0.746  16.894   8.348
  640POPC   C3B12009   0.917  16.940   7.943
  640POPC   C4B12010   1.109  16.866   7.563
  641POPC   NC312011  12.660  13.453   9.402
  641POPC   PO412012  13.182  13.937   9.463
  641POPC   GL112013  13.005  13.741   9.111
  641POPC   GL212014  13.121  13.431   9.108
  641POPC   C1A12015  12.785  13.596   8.732
  641POPC   D2A12016  12.663  13.558   8.312
  641POPC   C3A12017  12.958  13.696   7.975
  641POPC   C4A12018  12.676  13.737   7.622
  641POPC   C1B12019  13.128  13.200   8.751
  641POPC   C2B12020  13.149  13.359   8.389
  641POPC   C3B12021  12.984  13.170   8.094
  641POPC   C4B12022  12.675  13.276   7.887
  642POPC   NC312023   4.751  12.988   9.491
  642POPC   PO412024   4.078  13.066   9.490
  642POPC   GL112025   4.320  12.832   9.223
  642POPC   GL212026   4.048  12.710   9.027
  642POPC   C1A12027   4.515  12.696   8.837
  642POPC   D2A12028   4.347  12.828   8.444
  642POPC   C3A12029   4.265  12.604   8.051
  642POPC   C4A12030   4.526  12.725   7.709
  642POPC   C1B12031   3.846  12.851   8.677
  642POPC   C2B12032   3.960  13.164   8.409
  642POPC   C3B12033   4.232  13.209   8.078
  642POPC   C4B12034   4.112  13.012   7.732
  643POPC   NC312035  25.396  35.770   9.438
  643POPC   PO412036  25.146  36.300   9.576
  643POPC   GL112037  25.224  36.165   9.155
  643POPC   GL212038  25.584  36.222   9.187
  643POPC   C1A12039  25.138  36.011   8.742
  643POPC   D2A12040  25.251  35.714   8.422
  643POPC   C3A12041  25.091  35.815   8.023
  643POPC   C4A12042  25.196  35.985   7.627
  643POPC   C1B12043  25.649  36.012   8.791
  643POPC   C2B12044  25.553  36.126   8.400
  643POPC   C3B12045  25.471  36.183   7.998
  643POPC   C4B12046  25.401  36.476   7.677
  644POPC   NC312047  21.807  23.890   9.517
  644POPC   PO412048  22.221  23.410   9.441
  644POPC   GL112049  22.004  23.531   9.067
  644POPC   GL212050  21.929  23.887   9.028
  644POPC   C1A12051  22.131  23.467   8.632
  644POPC   D2A12052  22.407  23.226   8.355
  644POPC   C3A12053  22.240  23.288   7.953
  644POPC   C4A12054  22.074  23.694   7.844
  644POPC   C1B12055  22.263  23.963   8.758
  644POPC   C2B12056  22.297  23.901   8.299
  644POPC   C3B12057  22.362  24.120   7.901
  644POPC   C4B12058  21.929  24.149   7.641
  645POPC   NC312059  10.296  20.220   9.683
  645POPC   PO412060  10.564  19.582   9.539
  645POPC   GL112061  10.495  19.750   9.144
  645POPC   GL212062  10.223  20.002   9.163
  645POPC   C1A12063  10.654  19.842   8.730
  645POPC   D2A12064  10.599  20.079   8.333
  645POPC   C3A12065  10.763  19.871   7.980
  645POPC   C4A12066  10.545  19.470   7.872
  645POPC   C1B12067  10.136  19.781   8.765
  645POPC   C2B12068  10.324  19.608   8.396
  645POPC   C3B12069  10.253  19.849   8.037
  645POPC   C4B12070  10.124  19.902   7.648
  646POPC   NC312071  21.856  27.796   9.376
  646POPC   PO412072  22.470  27.575   9.466
  646POPC   GL112073  22.341  27.330   9.118
  646POPC   GL212074  22.693  27.273   9.043
  646POPC   C1A12075  22.033  27.331   8.735
  646POPC   D2A12076  21.762  27.299   8.315
  646POPC   C3A12077  21.985  27.503   7.945
  646POPC   C4A12078  22.233  27.880   7.932
  646POPC   C1B12079  22.528  27.509   8.676
  646POPC   C2B12080  22.401  27.494   8.249
  646POPC   C3B12081  22.525  27.326   7.848
  646POPC   C4B12082  22.479  27.196   7.399
  647POPC   NC312083   6.387  33.716   9.559
  647POPC   PO412084   6.928  33.920   9.342
  647POPC   GL112085   6.731  33.630   9.118
  647POPC   GL212086   6.442  33.833   9.071
  647POPC   C1A12087   6.641  33.502   8.720
  647POPC   D2A12088   6.436  33.740   8.394
  647POPC   C3A12089   6.643  33.667   8.016
  647POPC   C4A12090   6.844  33.496   7.653
  647POPC   C1B12091   6.687  34.044   8.756
  647POPC   C2B12092   6.594  34.294   8.424
  647POPC   C3B12093   6.526  34.186   8.003
  647POPC   C4B12094   6.721  34.031   7.637
  648POPC   NC312095  16.274  35.743   9.470
  648POPC   PO412096  15.876  35.088   9.491
  648POPC   GL112097  16.046  35.089   9.101
  648POPC   GL212098  16.026  35.466   9.084
  648POPC   C1A12099  15.920  35.159   8.677
  648POPC   D2A12100  15.877  35.509   8.412
  648POPC   C3A12101  15.783  35.382   8.042
  648POPC   C4A12102  15.796  35.490   7.629
  648POPC   C1B12103  16.304  35.592   8.735
  648POPC   C2B12104  16.323  35.719   8.299
  648POPC   C3B12105  16.253  35.539   7.870
  648POPC   C4B12106  16.255  35.566   7.419
  649POPC   NC312107  40.108  10.203   9.297
  649POPC   PO412108  39.839   9.702   9.564
  649POPC   GL112109  39.962   9.689   9.160
  649POPC   GL212110  40.258   9.493   9.136
  649POPC   C1A12111  39.850   9.476   8.796
  649POPC   D2A12112  40.067   9.412   8.436
  649POPC   C3A12113  39.962   9.513   8.086
  649POPC   C4A12114  39.918   9.442   7.703
  649POPC   C1B12115  40.274   9.804   8.755
  649POPC   C2B12116  40.158   9.954   8.325
  649POPC   C3B12117  40.223   9.883   7.858
  649POPC   C4B12118  40.399   9.640   7.546
  650POPC   NC312119   9.302  43.808   9.692
  650POPC   PO412120   8.647  43.754   9.660
  650POPC   GL112121   8.877  43.990   9.304
  650POPC   GL212122   9.242  44.078   9.232
  650POPC   C1A12123   8.863  44.080   8.845
  650POPC   D2A12124   9.135  44.076   8.464
  650POPC   C3A12125   8.922  43.912   8.069
  650POPC   C4A12126   8.839  43.593   7.735
  650POPC   C1B12127   9.303  43.774   8.869
  650POPC   C2B12128   9.398  43.649   8.413
  650POPC   C3B12129   9.324  43.619   7.959
  650POPC   C4B12130   9.200  43.930   7.630
  651POPC   NC312131  35.174  20.737   9.357
  651POPC   PO412132  35.492  20.274   9.746
  651POPC   GL112133  35.434  20.317   9.216
  651POPC   GL212134  35.713  20.211   9.028
  651POPC   C1A12135  35.431  20.624   8.770
  651POPC   D2A12136  35.275  20.881   8.391
  651POPC   C3A12137  35.144  20.754   7.941
  651POPC   C4A12138  35.247  20.716   7.461
  651POPC   C1B12139  35.384  20.139   8.699
  651POPC   C2B12140  35.358  20.347   8.268
  651POPC   C3B12141  35.445  20.348   7.817
  651POPC   C4B12142  35.639  20.398   7.414
  652POPC   NC312143  25.008   9.351   9.493
  652POPC   PO412144  24.634   8.797   9.602
  652POPC   GL112145  24.509   9.065   9.238
  652POPC   GL212146  24.428   8.747   9.104
  652POPC   C1A12147  24.548   9.209   8.793
  652POPC   D2A12148  24.758   9.160   8.378
  652POPC   C3A12149  24.589   9.197   7.951
  652POPC   C4A12150  24.632   9.201   7.481
  652POPC   C1B12151  24.701   8.709   8.802
  652POPC   C2B12152  24.770   8.470   8.455
  652POPC   C3B12153  24.764   8.701   8.092
  652POPC   C4B12154  24.569   8.713   7.720
  653POPC   NC312155  29.557  25.752   9.527
  653POPC   PO412156  29.029  26.136   9.580
  653POPC   GL112157  29.053  26.198   9.179
  653POPC   GL212158  29.354  26.401   9.199
  653POPC   C1A12159  28.934  25.984   8.798
  653POPC   D2A12160  28.787  26.093   8.378
  653POPC   C3A12161  29.009  26.129   7.976
  653POPC   C4A12162  29.065  25.803   7.680
  653POPC   C1B12163  29.467  26.100   8.867
  653POPC   C2B12164  29.315  25.988   8.436
  653POPC   C3B12165  29.458  25.894   8.012
  653POPC   C4B12166  29.462  26.163   7.673
  654POPC   NC312167   4.573  30.022   9.385
  654POPC   PO412168   4.019  29.585   9.263
  654POPC   GL112169   3.922  29.857   8.937
  654POPC   GL212170   4.226  30.048   8.992
  654POPC   C1A12171   3.880  30.212   8.645
  654POPC   D2A12172   4.087  30.402   8.279
  654POPC   C3A12173   4.293  30.067   8.091
  654POPC   C4A12174   4.320  29.890   7.716
  654POPC   C1B12175   4.426  30.148   8.588
  654POPC   C2B12176   4.657  30.393   8.239
  654POPC   C3B12177   4.725  30.181   7.783
  654POPC   C4B12178   4.603  30.063   7.307
  655POPC   NC312179  40.741   5.512   9.510
  655POPC   PO412180  40.686   6.101   9.499
  655POPC   GL112181  40.752   5.958   9.107
  655POPC   GL212182  41.061   6.129   9.101
  655POPC   C1A12183  40.727   6.067   8.667
  655POPC   D2A12184  40.836   5.758   8.372
  655POPC   C3A12185  40.607   5.869   8.019
  655POPC   C4A12186  40.722   5.724   7.644
  655POPC   C1B12187  41.187   5.893   8.728
  655POPC   C2B12188  41.272   6.027   8.318
  655POPC   C3B12189  41.097   5.939   7.944
  655POPC   C4B12190  41.185   5.942   7.535
  656POPC   NC312191  21.808  12.102   9.593
  656POPC   PO412192  22.392  12.139   9.381
  656POPC   GL112193  22.185  12.028   9.001
  656POPC   GL212194  21.905  11.828   9.158
  656POPC   C1A12195  22.294  11.998   8.525
  656POPC   D2A12196  22.241  12.226   8.143
  656POPC   C3A12197  22.425  12.257   7.750
  656POPC   C4A12198  22.353  12.470   7.360
  656POPC   C1B12199  21.761  11.886   8.740
  656POPC   C2B12200  21.906  11.712   8.385
  656POPC   C3B12201  22.140  11.745   8.046
  656POPC   C4B12202  22.048  11.927   7.670
  657POPC   NC312203  13.419  17.106   9.655
  657POPC   PO412204  13.405  16.462   9.737
  657POPC   GL112205  13.590  16.698   9.348
  657POPC   GL212206  13.493  17.019   9.159
  657POPC   C1A12207  13.586  16.538   8.922
  657POPC   D2A12208  13.525  16.319   8.533
  657POPC   C3A12209  13.503  16.447   8.106
  657POPC   C4A12210  13.682  16.483   7.693
  657POPC   C1B12211  13.675  16.999   8.753
  657POPC   C2B12212  13.500  16.893   8.368
  657POPC   C3B12213  13.643  16.923   7.961
  657POPC   C4B12214  13.556  16.933   7.510
  658POPC   NC312215  38.097  26.734   9.427
  658POPC   PO412216  37.536  27.038   9.527
  658POPC   GL112217  37.618  26.702   9.228
  658POPC   GL212218  37.802  26.945   9.084
  658POPC   C1A12219  37.732  26.578   8.764
  658POPC   D2A12220  37.590  26.427   8.336
  658POPC   C3A12221  37.446  26.485   7.887
  658POPC   C4A12222  37.569  26.840   7.529
  658POPC   C1B12223  38.030  26.978   8.730
  658POPC   C2B12224  37.835  26.920   8.373
  658POPC   C3B12225  37.849  26.790   7.975
  658POPC   C4B12226  38.062  26.933   7.611
  659POPC   NC312227  39.331  32.762   9.530
  659POPC   PO412228  39.033  33.440   9.542
  659POPC   GL112229  39.222  33.161   9.223
  659POPC   GL212230  39.457  33.407   9.111
  659POPC   C1A12231  39.243  32.837   8.850
  659POPC   D2A12232  39.441  32.823   8.413
  659POPC   C3A12233  39.299  32.950   8.008
  659POPC   C4A12234  38.935  32.963   7.769
  659POPC   C1B12235  39.204  33.340   8.742
  659POPC   C2B12236  39.010  33.190   8.366
  659POPC   C3B12237  38.935  33.423   7.988
  659POPC   C4B12238  39.287  33.392   7.759
  660POPC   NC312239  36.597  39.705   9.457
  660POPC   PO412240  36.830  40.348   9.609
  660POPC   GL112241  36.967  40.040   9.297
  660POPC   GL212242  37.217  40.207   9.161
  660POPC   C1A12243  37.007  39.809   8.881
  660POPC   D2A12244  36.808  39.944   8.498
  660POPC   C3A12245  36.872  39.933   8.059
  660POPC   C4A12246  36.773  39.897   7.619
  660POPC   C1B12247  37.050  40.300   8.740
  660POPC   C2B12248  37.007  40.385   8.281
  660POPC   C3B12249  37.098  40.339   7.820
  660POPC   C4B12250  36.929  40.330   7.406
  661POPC   NC312251  22.689  11.009   9.559
  661POPC   PO412252  22.850  10.395   9.686
  661POPC   GL112253  22.866  10.605   9.275
  661POPC   GL212254  23.130  10.469   9.097
  661POPC   C1A12255  22.753  10.702   8.820
  661POPC   D2A12256  22.962  10.580   8.417
  661POPC   C3A12257  22.922  10.785   7.985
  661POPC   C4A12258  22.740  10.713   7.539
  661POPC   C1B12259  22.921  10.159   8.827
  661POPC   C2B12260  23.060   9.961   8.442
  661POPC   C3B12261  23.194  10.226   8.116
  661POPC   C4B12262  22.935  10.291   7.739
  662POPC   NC312263   9.250   8.220   9.480
  662POPC   PO412264   8.798   8.624   9.169
  662POPC   GL112265   8.972   8.232   9.036
  662POPC   GL212266   8.917   7.903   9.178
  662POPC   C1A12267   9.198   8.150   8.677
  662POPC   D2A12268   9.050   8.022   8.321
  662POPC   C3A12269   8.936   8.347   8.052
  662POPC   C4A12270   9.289   8.403   7.794
  662POPC   C1B12271   8.840   7.769   8.744
  662POPC   C2B12272   8.624   7.772   8.315
  662POPC   C3B12273   8.797   7.877   7.865
  662POPC   C4B12274   8.873   7.846   7.386
  663POPC   NC312275   0.200  42.175   9.428
  663POPC   PO412276   0.109  42.786   9.496
  663POPC   GL112277   0.424  42.596   9.180
  663POPC   GL212278   0.599  42.250   9.120
  663POPC   C1A12279   0.422  42.582   8.726
  663POPC   D2A12280   0.614  42.506   8.345
  663POPC   C3A12281   0.424  42.398   7.973
  663POPC   C4A12282   0.602  42.554   7.590
  663POPC   C1B12283   0.325  42.077   8.802
  663POPC   C2B12284   0.445  42.009   8.403
  663POPC   C3B12285   0.572  41.903   8.013
  663POPC   C4B12286   0.507  42.018   7.591
  664POPC   NC312287   8.721  26.105   9.549
  664POPC   PO412288   9.381  26.195   9.587
  664POPC   GL112289   9.097  26.091   9.186
  664POPC   GL212290   8.748  26.047   9.069
  664POPC   C1A12291   9.102  26.274   8.765
  664POPC   D2A12292   9.224  26.092   8.364
  664POPC   C3A12293   9.118  26.340   8.008
  664POPC   C4A12294   9.092  26.243   7.590
  664POPC   C1B12295   8.847  25.860   8.700
  664POPC   C2B12296   8.810  25.779   8.304
  664POPC   C3B12297   9.011  25.837   7.931
  664POPC   C4B12298   8.710  25.942   7.657
  665POPC   NC312299  34.378  32.834   9.583
  665POPC   PO412300  33.695  33.074   9.557
  665POPC   GL112301  33.763  32.947   9.172
  665POPC   GL212302  34.109  33.051   9.217
  665POPC   C1A12303  33.863  33.188   8.792
  665POPC   D2A12304  33.622  33.341   8.449
  665POPC   C3A12305  33.572  33.049   8.124
  665POPC   C4A12306  33.567  33.204   7.716
  665POPC   C1B12307  34.143  32.749   8.874
  665POPC   C2B12308  33.959  32.815   8.448
  665POPC   C3B12309  34.065  33.128   8.154
  665POPC   C4B12310  34.036  32.993   7.752
  666POPC   NC312311   0.809  29.274   9.457
  666POPC   PO412312   0.225  28.847   9.513
  666POPC   GL112313   0.378  28.779   9.098
  666POPC   GL212314   0.720  28.928   9.065
  666POPC   C1A12315   0.199  28.772   8.687
  666POPC   D2A12316   0.093  29.118   8.430
  666POPC   C3A12317   0.342  29.172   8.093
  666POPC   C4A12318   0.259  29.396   7.718
  666POPC   C1B12319   0.624  29.063   8.681
  666POPC   C2B12320   0.666  28.774   8.378
  666POPC   C3B12321   0.870  28.860   8.019
  666POPC   C4B12322   0.635  29.016   7.700
  667POPC   NC312323   6.770  11.462   9.521
  667POPC   PO412324   6.147  11.170   9.319
  667POPC   GL112325   6.528  11.265   9.101
  667POPC   GL212326   6.850  11.104   9.160
  667POPC   C1A12327   6.646  11.523   8.754
  667POPC   D2A12328   6.390  11.650   8.395
  667POPC   C3A12329   6.590  11.538   8.015
  667POPC   C4A12330   6.956  11.493   7.727
  667POPC   C1B12331   6.775  10.987   8.729
  667POPC   C2B12332   6.589  10.879   8.319
  667POPC   C3B12333   6.761  11.060   7.943
  667POPC   C4B12334   6.843  11.081   7.476
  668POPC   NC312335  19.507  24.408   9.415
  668POPC   PO412336  20.163  24.220   9.479
  668POPC   GL112337  19.936  24.422   9.124
  668POPC   GL212338  19.646  24.201   8.973
  668POPC   C1A12339  19.772  24.652   8.753
  668POPC   D2A12340  19.967  24.579   8.367
  668POPC   C3A12341  19.800  24.604   7.987
  668POPC   C4A12342  19.820  24.708   7.594
  668POPC   C1B12343  19.970  24.133   8.673
  668POPC   C2B12344  19.964  24.081   8.229
  668POPC   C3B12345  19.595  24.143   7.998
  668POPC   C4B12346  19.545  24.259   7.586
  669POPC   NC312347  11.160  34.460   9.396
  669POPC   PO412348  11.662  34.994   9.454
  669POPC   GL112349  11.398  34.974   9.052
  669POPC   GL212350  11.111  34.772   9.036
  669POPC   C1A12351  11.412  34.658   8.685
  669POPC   D2A12352  11.305  34.363   8.354
  669POPC   C3A12353  11.421  34.480   7.919
  669POPC   C4A12354  11.261  34.473   7.499
  669POPC   C1B12355  10.932  34.486   8.734
  669POPC   C2B12356  10.697  34.414   8.360
  669POPC   C3B12357  10.933  34.434   8.004
  669POPC   C4B12358  10.917  34.763   7.731
  670POPC   NC312359  24.439  44.391   9.623
  670POPC   PO412360  24.059  44.977   9.677
  670POPC   GL112361  24.254  44.932   9.217
  670POPC   GL212362  24.398  44.602   9.158
  670POPC   C1A12363  24.261  44.895   8.723
  670POPC   D2A12364  24.516   0.019   8.316
  670POPC   C3A12365  24.397  44.851   7.912
  670POPC   C4A12366  24.147  44.471   7.804
  670POPC   C1B12367  24.448  44.412   8.740
  670POPC   C2B12368  24.428  44.494   8.306
  670POPC   C3B12369  24.679  44.398   7.963
  670POPC   C4B12370  24.585  44.298   7.580
  671POPC   NC312371  41.526   1.230   9.528
  671POPC   PO412372  41.146   0.837   9.374
  671POPC   GL112373  41.546   0.856   9.113
  671POPC   GL212374  41.742   1.187   9.073
  671POPC   C1A12375  41.546   0.963   8.666
  671POPC   D2A12376  41.691   1.251   8.324
  671POPC   C3A12377  41.688   1.039   7.936
  671POPC   C4A12378  41.382   0.734   7.805
  671POPC   C1B12379  41.993   1.503   8.826
  671POPC   C2B12380  41.980   1.682   8.369
  671POPC   C3B12381  41.738   1.663   7.964
  671POPC   C4B12382  41.700   1.560   7.500
  672POPC   NC312383  37.948   7.172   9.486
  672POPC   PO412384  37.450   7.574   9.360
  672POPC   GL112385  37.613   7.257   9.098
  672POPC   GL212386  37.913   7.448   9.059
  672POPC   C1A12387  37.717   7.192   8.652
  672POPC   D2A12388  37.845   7.047   8.241
  672POPC   C3A12389  37.758   7.222   7.848
  672POPC   C4A12390  37.531   7.072   7.517
  672POPC   C1B12391  37.894   7.663   8.662
  672POPC   C2B12392  37.794   7.556   8.238
  672POPC   C3B12393  37.672   7.714   7.832
  672POPC   C4B12394  37.881   7.619   7.449
  673POPC   NC312395  15.374  21.174   9.643
  673POPC   PO412396  15.478  21.780   9.589
  673POPC   GL112397  15.172  21.484   9.287
  673POPC   GL212398  15.389  21.228   9.136
  673POPC   C1A12399  14.923  21.410   8.870
  673POPC   D2A12400  14.824  21.362   8.404
  673POPC   C3A12401  15.036  21.619   8.114
  673POPC   C4A12402  15.217  21.465   7.743
  673POPC   C1B12403  15.434  21.435   8.741
  673POPC   C2B12404  15.451  21.392   8.305
  673POPC   C3B12405  15.606  21.674   8.004
  673POPC   C4B12406  15.735  21.592   7.634
  674POPC   NC312407  26.539  18.809   9.506
  674POPC   PO412408  27.061  19.292   9.635
  674POPC   GL112409  26.882  19.198   9.202
  674POPC   GL212410  26.531  19.104   9.090
  674POPC   C1A12411  27.011  19.185   8.744
  674POPC   D2A12412  27.013  19.460   8.351
  674POPC   C3A12413  26.728  19.402   7.991
  674POPC   C4A12414  26.842  19.246   7.590
  674POPC   C1B12415  26.603  18.894   8.675
  674POPC   C2B12416  26.822  18.977   8.295
  674POPC   C3B12417  26.916  18.750   7.940
  674POPC   C4B12418  26.712  18.726   7.570
  675POPC   NC312419  44.670   6.110   9.612
  675POPC   PO412420   0.085   5.690   9.311
  675POPC   GL112421  44.743   5.896   9.114
  675POPC   GL212422  44.535   5.649   8.986
  675POPC   C1A12423  44.749   6.003   8.670
  675POPC   D2A12424  44.590   6.079   8.292
  675POPC   C3A12425  44.824   6.189   7.974
  675POPC   C4A12426  44.775   6.023   7.562
  675POPC   C1B12427  44.574   5.498   8.588
  675POPC   C2B12428  44.395   5.626   8.207
  675POPC   C3B12429  44.610   5.579   7.814
  675POPC   C4B12430  44.720   5.158   7.687
  676POPC   NC312431  33.274  20.663   9.651
  676POPC   PO412432  32.686  20.405   9.697
  676POPC   GL112433  32.915  20.469   9.289
  676POPC   GL212434  33.075  20.790   9.213
  676POPC   C1A12435  32.906  20.504   8.817
  676POPC   D2A12436  32.752  20.786   8.494
  676POPC   C3A12437  32.907  20.780   8.031
  676POPC   C4A12438  32.791  20.706   7.571
  676POPC   C1B12439  33.381  20.654   8.934
  676POPC   C2B12440  33.284  20.771   8.506
  676POPC   C3B12441  33.414  20.737   8.085
  676POPC   C4B12442  33.293  20.742   7.638
  677POPC   NC312443   0.018  25.645   9.479
  677POPC   PO412444  44.698  26.201   9.633
  677POPC   GL112445  44.688  26.312   9.219
  677POPC   GL212446  44.782  25.969   9.157
  677POPC   C1A12447  44.559  26.259   8.774
  677POPC   D2A12448  44.797  26.191   8.397
  677POPC   C3A12449  44.537  26.145   8.044
  677POPC   C4A12450  44.385  26.276   7.649
  677POPC   C1B12451  44.902  25.819   8.772
  677POPC   C2B12452   0.053  25.648   8.389
  677POPC   C3B12453   0.004  25.860   8.009
  677POPC   C4B12454  44.700  25.844   7.681
  678POPC   NC312455  12.040  40.851   9.637
  678POPC   PO412456  11.791  40.329   9.358
  678POPC   GL112457  12.084  40.646   9.141
  678POPC   GL212458  12.032  41.006   9.152
  678POPC   C1A12459  12.312  40.672   8.754
  678POPC   D2A12460  12.148  40.680   8.321
  678POPC   C3A12461  12.274  40.876   7.929
  678POPC   C4A12462  12.328  40.758   7.483
  678POPC   C1B12463  11.861  40.884   8.737
  678POPC   C2B12464  11.710  40.955   8.325
  678POPC   C3B12465  11.801  40.711   7.941
  678POPC   C4B12466  11.847  40.660   7.508
  679POPC   NC312467  20.763   0.356   9.458
  679POPC   PO412468  20.134   0.207   9.356
  679POPC   GL112469  20.258   0.504   9.071
  679POPC   GL212470  20.474   0.743   9.258
  679POPC   C1A12471  20.476   0.349   8.687
  679POPC   D2A12472  20.711   0.309   8.290
  679POPC   C3A12473  20.529   0.278   7.888
  679POPC   C4A12474  20.634   0.267   7.408
  679POPC   C1B12475  20.706   0.775   8.869
  679POPC   C2B12476  20.689   0.814   8.427
  679POPC   C3B12477  20.867   0.821   8.055
  679POPC   C4B12478  20.858   0.631   7.673
  680POPC   NC312479  35.176  32.620   9.492
  680POPC   PO412480  35.430  33.208   9.424
  680POPC   GL112481  35.349  32.903   9.100
  680POPC   GL212482  35.616  33.066   8.960
  680POPC   C1A12483  35.212  32.951   8.686
  680POPC   D2A12484  35.246  33.220   8.403
  680POPC   C3A12485  35.272  33.067   7.999
  680POPC   C4A12486  35.350  33.337   7.635
  680POPC   C1B12487  35.703  32.753   8.690
  680POPC   C2B12488  35.538  32.753   8.339
  680POPC   C3B12489  35.814  32.850   8.082
  680POPC   C4B12490  35.684  32.978   7.704
  681POPC   NC312491   1.322  32.880   9.606
  681POPC   PO412492   0.768  33.261   9.515
  681POPC   GL112493   1.108  33.203   9.179
  681POPC   GL212494   1.435  33.000   9.131
  681POPC   C1A12495   1.150  33.150   8.730
  681POPC   D2A12496   0.880  32.902   8.468
  681POPC   C3A12497   1.034  32.822   8.093
  681POPC   C4A12498   1.012  32.967   7.692
  681POPC   C1B12499   1.627  32.804   8.782
  681POPC   C2B12500   1.447  32.884   8.379
  681POPC   C3B12501   1.498  32.981   7.945
  681POPC   C4B12502   1.516  32.740   7.579
  682POPC   NC312503  31.118  44.911   9.411
  682POPC   PO412504  31.151  44.232   9.594
  682POPC   GL112505  31.387  44.454   9.240
  682POPC   GL212506  31.274  44.688   8.989
  682POPC   C1A12507  31.561  44.287   8.830
  682POPC   D2A12508  31.737  44.369   8.400
  682POPC   C3A12509  31.471  44.426   8.021
  682POPC   C4A12510  31.374  44.432   7.548
  682POPC   C1B12511  31.603  44.783   8.695
  682POPC   C2B12512  31.958  44.847   8.457
  682POPC   C3B12513  31.946  44.722   8.057
  682POPC   C4B12514  31.657  44.814   7.725
  683POPC   NC312515   8.259  39.272   9.609
  683POPC   PO412516   7.694  39.394   9.505
  683POPC   GL112517   7.949  39.072   9.246
  683POPC   GL212518   8.325  38.901   9.260
  683POPC   C1A12519   7.995  39.086   8.805
  683POPC   D2A12520   7.853  39.227   8.401
  683POPC   C3A12521   8.078  39.221   8.003
  683POPC   C4A12522   7.884  39.296   7.607
  683POPC   C1B12523   8.445  38.843   8.810
  683POPC   C2B12524   8.372  38.939   8.347
  683POPC   C3B12525   8.622  39.115   7.978
  683POPC   C4B12526   8.576  39.482   7.672
  684POPC   NC312527  25.281  17.905   9.764
  684POPC   PO412528  25.248  18.467   9.438
  684POPC   GL112529  25.196  18.361   9.037
  684POPC   GL212530  24.859  18.529   9.025
  684POPC   C1A12531  25.157  18.286   8.636
  684POPC   D2A12532  25.197  18.703   8.487
  684POPC   C3A12533  25.306  18.764   8.055
  684POPC   C4A12534  25.106  18.523   7.734
  684POPC   C1B12535  24.706  18.585   8.600
  684POPC   C2B12536  24.847  18.391   8.253
  684POPC   C3B12537  25.042  18.113   7.995
  684POPC   C4B12538  24.918  18.077   7.544
  685POPC   NC312539  12.903  18.683   9.198
  685POPC   PO412540  12.916  19.226   9.650
  685POPC   GL112541  12.727  19.282   9.153
  685POPC   GL212542  12.495  18.998   9.058
  685POPC   C1A12543  12.804  19.163   8.682
  685POPC   D2A12544  13.224  18.990   8.524
  685POPC   C3A12545  13.213  19.082   8.090
  685POPC   C4A12546  13.045  18.978   7.712
  685POPC   C1B12547  12.530  18.722   8.697
  685POPC   C2B12548  12.836  18.685   8.425
  685POPC   C3B12549  12.729  18.873   8.090
  685POPC   C4B12550  12.621  18.701   7.705
  686POPC   NC312551  28.568  26.156   9.633
  686POPC   PO412552  28.008  25.868   9.508
  686POPC   GL112553  28.165  26.257   9.253
  686POPC   GL212554  28.521  26.356   9.177
  686POPC   C1A12555  28.081  26.304   8.791
  686POPC   D2A12556  28.257  26.163   8.401
  686POPC   C3A12557  28.047  26.111   7.993
  686POPC   C4A12558  28.103  26.000   7.567
  686POPC   C1B12559  28.600  26.414   8.759
  686POPC   C2B12560  28.585  26.556   8.358
  686POPC   C3B12561  28.532  26.324   7.981
  686POPC   C4B12562  28.610  26.033   7.616
  687POPC   NC312563  22.623  42.768   9.856
  687POPC   PO412564  22.234  43.240   9.602
  687POPC   GL112565  22.387  43.093   9.207
  687POPC   GL212566  22.067  43.066   9.064
  687POPC   C1A12567  22.437  43.152   8.740
  687POPC   D2A12568  22.160  43.081   8.364
  687POPC   C3A12569  22.348  43.141   7.950
  687POPC   C4A12570  22.568  43.090   7.545
  687POPC   C1B12571  21.758  42.835   8.852
  687POPC   C2B12572  21.654  42.839   8.408
  687POPC   C3B12573  21.813  42.974   7.993
  687POPC   C4B12574  21.889  43.207   7.628
  688POPC   NC312575  38.800  17.933   9.423
  688POPC   PO412576  39.140  17.295   9.376
  688POPC   GL112577  39.048  17.613   9.095
  688POPC   GL212578  38.719  17.555   9.099
  688POPC   C1A12579  39.041  17.697   8.651
  688POPC   D2A12580  39.410  17.587   8.387
  688POPC   C3A12581  39.472  17.427   7.967
  688POPC   C4A12582  39.500  17.763   7.690
  688POPC   C1B12583  38.789  17.270   8.763
  688POPC   C2B12584  38.748  17.389   8.349
  688POPC   C3B12585  38.963  17.289   7.970
  688POPC   C4B12586  39.068  17.474   7.600
  689POPC   NC312587  36.836   9.692   9.583
  689POPC   PO412588  36.597  10.321   9.485
  689POPC   GL112589  36.662   9.979   9.182
  689POPC   GL212590  37.024   9.936   9.174
  689POPC   C1A12591  36.640   9.707   8.807
  689POPC   D2A12592  36.505   9.755   8.373
  689POPC   C3A12593  36.743   9.632   8.014
  689POPC   C4A12594  36.721   9.723   7.569
  689POPC   C1B12595  37.185   9.704   8.852
  689POPC   C2B12596  37.050   9.677   8.442
  689POPC   C3B12597  37.219   9.818   8.063
  689POPC   C4B12598  37.375   9.763   7.701
  690POPC   NC312599   0.573   2.156   9.583
  690POPC   PO412600   0.696   1.657   9.200
  690POPC   GL112601   0.662   2.068   9.064
  690POPC   GL212602   0.327   2.068   9.127
  690POPC   C1A12603   0.517   2.119   8.633
  690POPC   D2A12604   0.598   1.851   8.308
  690POPC   C3A12605   0.639   2.052   7.928
  690POPC   C4A12606   0.686   2.273   7.539
  690POPC   C1B12607   0.171   1.782   8.782
  690POPC   C2B12608   0.023   1.934   8.412
  690POPC   C3B12609   0.136   1.910   8.013
  690POPC   C4B12610   0.042   1.678   7.634
  691POPC   NC312611  18.384   6.366   9.551
  691POPC   PO412612  18.059   6.919   9.538
  691POPC   GL112613  18.221   6.727   9.184
  691POPC   GL212614  18.021   6.439   9.140
  691POPC   C1A12615  18.472   6.856   8.806
  691POPC   D2A12616  18.644   6.792   8.389
  691POPC   C3A12617  18.448   6.886   8.016
  691POPC   C4A12618  18.358   6.664   7.661
  691POPC   C1B12619  18.382   6.351   8.860
  691POPC   C2B12620  18.500   6.300   8.431
  691POPC   C3B12621  18.325   6.317   8.028
  691POPC   C4B12622  18.494   6.165   7.671
  692POPC   NC312623  40.695  11.747   9.504
  692POPC   PO412624  40.833  11.064   9.634
  692POPC   GL112625  40.815  11.302   9.245
  692POPC   GL212626  40.525  11.156   9.094
  692POPC   C1A12627  41.027  11.364   8.841
  692POPC   D2A12628  41.141  11.140   8.453
  692POPC   C3A12629  41.040  11.334   8.072
  692POPC   C4A12630  41.107  11.246   7.666
  692POPC   C1B12631  40.565  11.127   8.647
  692POPC   C2B12632  40.525  11.235   8.202
  692POPC   C3B12633  40.635  11.163   7.774
  692POPC   C4B12634  40.788  11.018   7.361
  693POPC   NC312635  23.733  29.102   9.597
  693POPC   PO412636  23.579  29.779   9.570
  693POPC   GL112637  23.525  29.460   9.260
  693POPC   GL212638  23.858  29.359   9.157
  693POPC   C1A12639  23.464  29.325   8.826
  693POPC   D2A12640  23.742  29.360   8.468
  693POPC   C3A12641  23.637  29.167   8.074
  693POPC   C4A12642  23.576  29.312   7.667
  693POPC   C1B12643  24.047  29.103   8.810
  693POPC   C2B12644  23.970  28.859   8.411
  693POPC   C3B12645  24.035  28.828   7.970
  693POPC   C4B12646  24.291  29.073   7.709
  694POPC   NC312647  27.591   5.627   9.519
  694POPC   PO412648  27.114   6.153   9.546
  694POPC   GL112649  27.258   6.059   9.118
  694POPC   GL212650  27.617   6.034   9.027
  694POPC   C1A12651  27.293   6.347   8.784
  694POPC   D2A12652  27.254   6.394   8.322
  694POPC   C3A12653  27.388   6.047   8.074
  694POPC   C4A12654  27.498   5.922   7.665
  694POPC   C1B12655  27.592   6.004   8.565
  694POPC   C2B12656  27.864   6.043   8.252
  694POPC   C3B12657  27.926   5.773   7.913
  694POPC   C4B12658  28.051   5.351   7.844
  695POPC   NC312659  17.951  22.748   9.323
  695POPC   PO412660  18.399  23.089   9.669
  695POPC   GL112661  18.352  23.061   9.204
  695POPC   GL212662  18.009  23.164   9.030
  695POPC   C1A12663  18.334  22.888   8.768
  695POPC   D2A12664  18.194  22.882   8.349
  695POPC   C3A12665  18.424  22.944   8.006
  695POPC   C4A12666  18.213  23.233   7.735
  695POPC   C1B12667  17.789  22.862   8.688
  695POPC   C2B12668  17.743  22.693   8.231
  695POPC   C3B12669  17.940  22.794   7.829
  695POPC   C4B12670  17.723  23.134   7.606
  696POPC   NC312671  19.053  10.923   9.497
  696POPC   PO412672  19.637  11.342   9.445
  696POPC   GL112673  19.282  11.230   9.175
  696POPC   GL212674  19.259  10.877   9.037
  696POPC   C1A12675  19.005  11.417   8.889
  696POPC   D2A12676  18.942  11.488   8.455
  696POPC   C3A12677  19.247  11.319   8.186
  696POPC   C4A12678  19.318  10.979   7.920
  696POPC   C1B12679  19.196  11.013   8.626
  696POPC   C2B12680  18.913  10.959   8.298
  696POPC   C3B12681  18.810  11.056   7.883
  696POPC   C4B12682  19.003  10.916   7.489
  697POPC   NC312683  18.647  25.032   9.518
  697POPC   PO412684  18.042  25.474   9.457
  697POPC   GL112685  18.204  25.396   9.057
  697POPC   GL212686  18.279  25.063   9.115
  697POPC   C1A12687  18.486  25.335   8.683
  697POPC   D2A12688  18.793  25.261   8.330
  697POPC   C3A12689  18.594  25.315   7.942
  697POPC   C4A12690  18.567  25.703   7.718
  697POPC   C1B12691  18.043  25.068   8.690
  697POPC   C2B12692  18.073  25.357   8.369
  697POPC   C3B12693  18.159  25.561   8.018
  697POPC   C4B12694  18.169  25.350   7.644
  698POPC   NC312695  19.648   7.763   9.480
  698POPC   PO412696  19.972   7.210   9.524
  698POPC   GL112697  19.959   7.431   9.156
  698POPC   GL212698  19.622   7.353   9.155
  698POPC   C1A12699  19.864   7.496   8.703
  698POPC   D2A12700  19.821   7.624   8.276
  698POPC   C3A12701  20.085   7.475   7.937
  698POPC   C4A12702  19.722   7.524   7.659
  698POPC   C1B12703  19.535   7.115   8.832
  698POPC   C2B12704  19.597   7.125   8.428
  698POPC   C3B12705  19.701   7.156   8.040
  698POPC   C4B12706  19.863   7.018   7.668
  699POPC   NC312707  21.818   8.034   9.289
  699POPC   PO412708  22.423   7.789   9.435
  699POPC   GL112709  22.308   8.091   9.125
  699POPC   GL212710  22.239   8.421   9.256
  699POPC   C1A12711  22.215   8.017   8.722
  699POPC   D2A12712  22.455   7.933   8.369
  699POPC   C3A12713  22.217   7.961   8.000
  699POPC   C4A12714  22.010   8.314   7.784
  699POPC   C1B12715  22.283   8.566   8.824
  699POPC   C2B12716  22.218   8.416   8.391
  699POPC   C3B12717  22.444   8.438   7.998
  699POPC   C4B12718  22.433   8.523   7.549
  700POPC   NC312719  18.112   4.613   9.530
  700POPC   PO412720  18.564   4.079   9.444
  700POPC   GL112721  18.400   4.173   9.076
  700POPC   GL212722  18.590   4.479   9.048
  700POPC   C1A12723  18.179   4.112   8.686
  700POPC   D2A12724  18.127   4.245   8.240
  700POPC   C3A12725  18.089   3.980   7.854
  700POPC   C4A12726  18.131   4.198   7.450
  700POPC   C1B12727  18.703   4.325   8.643
  700POPC   C2B12728  18.667   4.393   8.197
  700POPC   C3B12729  18.527   4.276   7.772
  700POPC   C4B12730  18.557   4.417   7.327
  701POPC   NC312731   6.120  27.355   9.681
  701POPC   PO412732   5.761  27.742   9.319
  701POPC   GL112733   5.777  27.534   9.011
  701POPC   GL212734   5.994  27.270   9.167
  701POPC   C1A12735   5.812  27.750   8.608
  701POPC   D2A12736   5.929  27.945   8.224
  701POPC   C3A12737   5.768  27.663   7.947
  701POPC   C4A12738   5.625  27.550   7.556
  701POPC   C1B12739   6.151  27.365   8.720
  701POPC   C2B12740   6.160  27.505   8.277
  701POPC   C3B12741   6.192  27.423   7.832
  701POPC   C4B12742   5.972  27.205   7.482
  702POPC   NC312743  17.403   5.745   9.652
  702POPC   PO412744  17.940   6.179   9.574
  702POPC   GL112745  17.588   6.142   9.234
  702POPC   GL212746  17.512   5.785   9.167
  702POPC   C1A12747  17.395   6.080   8.779
  702POPC   D2A12748  17.562   5.962   8.371
  702POPC   C3A12749  17.373   5.829   7.988
  702POPC   C4A12750  17.533   5.809   7.570
  702POPC   C1B12751  17.664   5.633   8.784
  702POPC   C2B12752  17.481   5.461   8.414
  702POPC   C3B12753  17.610   5.373   7.997
  702POPC   C4B12754  17.365   5.340   7.649
  703POPC   NC312755  41.877  33.024   9.750
  703POPC   PO412756  42.445  33.005   9.562
  703POPC   GL112757  42.263  33.134   9.209
  703POPC   GL212758  42.175  32.788   9.155
  703POPC   C1A12759  42.414  33.218   8.802
  703POPC   D2A12760  42.579  32.957   8.504
  703POPC   C3A12761  42.520  33.033   8.087
  703POPC   C4A12762  42.742  33.049   7.766
  703POPC   C1B12763  42.003  32.913   8.763
  703POPC   C2B12764  42.104  32.918   8.342
  703POPC   C3B12765  42.041  32.873   7.906
  703POPC   C4B12766  42.248  33.167   7.595
  704POPC   NC312767   7.146  20.224   9.536
  704POPC   PO412768   7.559  20.625   9.322
  704POPC   GL112769   7.380  20.535   9.031
  704POPC   GL212770   7.191  20.852   9.047
  704POPC   C1A12771   7.549  20.601   8.634
  704POPC   D2A12772   7.400  20.856   8.331
  704POPC   C3A12773   7.605  20.786   7.962
  704POPC   C4A12774   7.603  20.366   7.829
  704POPC   C1B12775   7.042  20.620   8.691
  704POPC   C2B12776   7.085  20.434   8.322
  704POPC   C3B12777   7.149  20.600   7.951
  704POPC   C4B12778   7.202  20.798   7.579
  705POPC   NC312779  16.606   4.673   9.387
  705POPC   PO412780  16.856   4.068   9.424
  705POPC   GL112781  16.746   4.189   9.052
  705POPC   GL212782  16.426   4.247   9.114
  705POPC   C1A12783  16.871   4.447   8.735
  705POPC   D2A12784  17.105   4.456   8.372
  705POPC   C3A12785  17.009   4.173   8.065
  705POPC   C4A12786  16.816   4.395   7.753
  705POPC   C1B12787  16.373   4.303   8.707
  705POPC   C2B12788  16.587   4.164   8.385
  705POPC   C3B12789  16.475   4.092   7.999
  705POPC   C4B12790  16.674   3.917   7.657
  706POPC   NC312791  41.470  28.736   9.311
  706POPC   PO412792  41.873  28.191   9.442
  706POPC   GL112793  41.594  28.233   9.083
  706POPC   GL212794  41.220  28.288   9.129
  706POPC   C1A12795  41.638  28.369   8.673
  706POPC   D2A12796  41.528  28.758   8.445
  706POPC   C3A12797  41.260  28.625   8.102
  706POPC   C4A12798  41.508  28.446   7.784
  706POPC   C1B12799  41.133  27.973   8.795
  706POPC   C2B12800  41.174  27.926   8.348
  706POPC   C3B12801  41.537  27.940   8.057
  706POPC   C4B12802  41.680  27.998   7.614
  707POPC   NC312803  32.853  41.825   9.522
  707POPC   PO412804  33.354  41.362   9.385
  707POPC   GL112805  33.007  41.558   9.081
  707POPC   GL212806  32.692  41.775   9.068
  707POPC   C1A12807  32.907  41.598   8.614
  707POPC   D2A12808  32.865  41.245   8.320
  707POPC   C3A12809  33.192  41.248   8.083
  707POPC   C4A12810  33.195  41.414   7.691
  707POPC   C1B12811  32.699  42.046   8.721
  707POPC   C2B12812  32.609  41.915   8.312
  707POPC   C3B12813  32.907  41.725   8.038
  707POPC   C4B12814  32.814  41.734   7.607
  708POPC   NC312815   3.810  29.171   9.262
  708POPC   PO412816   3.154  28.974   9.431
  708POPC   GL112817   3.277  29.186   9.076
  708POPC   GL212818   3.558  29.089   8.841
  708POPC   C1A12819   3.125  29.259   8.681
  708POPC   D2A12820   2.999  29.050   8.335
  708POPC   C3A12821   3.346  28.996   8.101
  708POPC   C4A12822   3.363  28.977   7.671
  708POPC   C1B12823   3.883  29.235   8.554
  708POPC   C2B12824   3.859  29.134   8.102
  708POPC   C3B12825   3.642  29.378   7.794
  708POPC   C4B12826   3.388  29.601   7.470
  709POPC   NC312827  11.305  42.192   9.622
  709POPC   PO412828  11.348  42.800   9.586
  709POPC   GL112829  11.180  42.449   9.213
  709POPC   GL212830  10.981  42.093   9.234
  709POPC   C1A12831  11.069  42.521   8.788
  709POPC   D2A12832  11.262  42.607   8.410
  709POPC   C3A12833  11.312  42.416   8.028
  709POPC   C4A12834  11.259  42.639   7.635
  709POPC   C1B12835  11.202  42.024   8.839
  709POPC   C2B12836  11.270  42.071   8.425
  709POPC   C3B12837  11.218  41.917   8.013
  709POPC   C4B12838  11.153  42.156   7.620
  710POPC   NC312839   0.425  13.262   9.322
  710POPC   PO412840   0.308  13.937   9.474
  710POPC   GL112841   0.500  13.730   9.111
  710POPC   GL212842   0.806  13.691   8.896
  710POPC   C1A12843   0.342  13.826   8.725
  710POPC   D2A12844   0.258  13.753   8.334
  710POPC   C3A12845   0.566  13.623   8.045
  710POPC   C4A12846   0.487  13.783   7.642
  710POPC   C1B12847   0.601  13.421   8.551
  710POPC   C2B12848   0.731  13.055   8.298
  710POPC   C3B12849   0.792  12.981   7.858
  710POPC   C4B12850   0.761  13.354   7.629
  711POPC   NC312851  29.797  24.785   9.744
  711POPC   PO412852  30.287  24.367   9.657
  711POPC   GL112853  30.130  24.374   9.194
  711POPC   GL212854  30.164  24.686   9.049
  711POPC   C1A12855  29.834  24.405   8.774
  711POPC   D2A12856  29.600  24.319   8.369
  711POPC   C3A12857  29.766  24.350   7.944
  711POPC   C4A12858  29.556  24.379   7.510
  711POPC   C1B12859  30.327  24.413   8.712
  711POPC   C2B12860  30.212  24.410   8.297
  711POPC   C3B12861  30.169  24.668   7.957
  711POPC   C4B12862  30.008  24.597   7.562
  712POPC   NC312863  18.610   1.938   9.468
  712POPC   PO412864  18.103   1.475   9.699
  712POPC   GL112865  18.209   1.666   9.268
  712POPC   GL212866  18.124   2.002   9.222
  712POPC   C1A12867  18.403   1.776   8.829
  712POPC   D2A12868  18.201   1.912   8.493
  712POPC   C3A12869  18.315   2.069   8.117
  712POPC   C4A12870  18.408   1.839   7.790
  712POPC   C1B12871  18.010   2.246   8.844
  712POPC   C2B12872  17.929   2.311   8.386
  712POPC   C3B12873  17.818   2.118   7.934
  712POPC   C4B12874  17.845   2.220   7.443
  713POPC   NC312875   4.798  36.185   9.638
  713POPC   PO412876   5.227  35.807   9.387
  713POPC   GL112877   4.873  35.987   9.176
  713POPC   GL212878   4.969  36.330   9.137
  713POPC   C1A12879   4.708  36.016   8.762
  713POPC   D2A12880   4.958  35.855   8.413
  713POPC   C3A12881   5.012  36.074   8.046
  713POPC   C4A12882   4.885  35.997   7.639
  713POPC   C1B12883   5.207  36.107   8.786
  713POPC   C2B12884   5.490  36.063   8.466
  713POPC   C3B12885   5.510  35.957   8.053
  713POPC   C4B12886   5.390  36.062   7.649
  714POPC   NC312887  36.537  19.605   9.585
  714POPC   PO412888  35.894  19.835   9.467
  714POPC   GL112889  36.058  19.819   9.093
  714POPC   GL212890  36.324  19.582   9.099
  714POPC   C1A12891  36.175  20.041   8.741
  714POPC   D2A12892  36.469  20.170   8.444
  714POPC   C3A12893  36.272  20.089   8.059
  714POPC   C4A12894  35.835  20.045   7.880
  714POPC   C1B12895  36.169  19.501   8.681
  714POPC   C2B12896  36.004  19.718   8.318
  714POPC   C3B12897  36.080  19.606   7.901
  714POPC   C4B12898  36.474  19.562   7.708
  715POPC   NC312899  37.279  42.261   9.544
  715POPC   PO412900  36.652  42.601   9.644
  715POPC   GL112901  36.712  42.345   9.250
  715POPC   GL212902  37.030  42.483   9.160
  715POPC   C1A12903  36.647  42.099   8.831
  715POPC   D2A12904  36.473  42.174   8.383
  715POPC   C3A12905  36.643  42.208   7.964
  715POPC   C4A12906  36.833  42.568   7.733
  715POPC   C1B12907  37.096  42.347   8.759
  715POPC   C2B12908  37.024  42.119   8.400
  715POPC   C3B12909  37.136  42.227   8.015
  715POPC   C4B12910  36.982  42.081   7.598
  716POPC   NC312911   4.240  21.528   9.729
  716POPC   PO412912   3.754  21.046   9.671
  716POPC   GL112913   4.143  21.312   9.278
  716POPC   GL212914   4.318  21.630   9.236
  716POPC   C1A12915   4.376  21.278   8.864
  716POPC   D2A12916   4.439  21.084   8.447
  716POPC   C3A12917   4.302  21.292   8.064
  716POPC   C4A12918   4.578  21.525   7.751
  716POPC   C1B12919   4.123  21.735   8.851
  716POPC   C2B12920   4.249  21.633   8.451
  716POPC   C3B12921   4.241  21.796   8.038
  716POPC   C4B12922   4.093  21.561   7.669
  717POPC   NC312923  32.157  36.499   9.651
  717POPC   PO412924  32.419  35.909   9.394
  717POPC   GL112925  32.103  36.015   9.134
  717POPC   GL212926  32.018  36.353   9.120
  717POPC   C1A12927  32.193  35.969   8.730
  717POPC   D2A12928  32.447  36.137   8.427
  717POPC   C3A12929  32.230  36.129   8.069
  717POPC   C4A12930  32.194  35.899   7.705
  717POPC   C1B12931  32.114  36.476   8.695
  717POPC   C2B12932  32.030  36.679   8.298
  717POPC   C3B12933  31.994  36.535   7.879
  717POPC   C4B12934  32.373  36.396   7.644
  718POPC   NC312935  26.697   5.990   9.693
  718POPC   PO412936  26.604   5.316   9.745
  718POPC   GL112937  26.632   5.597   9.346
  718POPC   GL212938  26.340   5.810   9.274
  718POPC   C1A12939  26.802   5.865   9.000
  718POPC   D2A12940  27.003   5.992   8.601
  718POPC   C3A12941  26.863   6.006   8.191
  718POPC   C4A12942  27.019   5.807   7.815
  718POPC   C1B12943  26.377   5.625   8.850
  718POPC   C2B12944  26.387   5.880   8.499
  718POPC   C3B12945  26.389   5.838   8.077
  718POPC   C4B12946  26.594   6.071   7.734
  719POPC   NC312947  14.783  24.226   9.396
  719POPC   PO412948  14.252  24.661   9.451
  719POPC   GL112949  14.393  24.600   9.051
  719POPC   GL212950  14.360  24.234   9.035
  719POPC   C1A12951  14.224  24.513   8.621
  719POPC   D2A12952  14.021  24.255   8.277
  719POPC   C3A12953  14.326  24.281   7.957
  719POPC   C4A12954  14.436  24.681   7.768
  719POPC   C1B12955  14.728  24.344   8.766
  719POPC   C2B12956  14.865  24.308   8.391
  719POPC   C3B12957  14.805  24.418   8.008
  719POPC   C4B12958  14.739  24.238   7.620
  720POPC   NC312959  44.192   2.999   9.535
  720POPC   PO412960  43.580   2.789   9.544
  720POPC   GL112961  43.874   2.846   9.151
  720POPC   GL212962  43.826   2.555   8.934
  720POPC   C1A12963  43.811   3.004   8.687
  720POPC   D2A12964  43.603   3.066   8.245
  720POPC   C3A12965  43.672   2.722   7.972
  720POPC   C4A12966  43.887   2.606   7.601
  720POPC   C1B12967  44.190   2.655   8.737
  720POPC   C2B12968  44.220   2.786   8.325
  720POPC   C3B12969  44.296   2.529   7.962
  720POPC   C4B12970  44.322   2.341   7.545
  721POPC   NC312971   7.812   0.619   9.554
  721POPC   PO412972   7.375   0.120   9.506
  721POPC   GL112973   7.503   0.436   9.184
  721POPC   GL212974   7.225   0.617   9.143
  721POPC   C1A12975   7.675   0.592   8.772
  721POPC   D2A12976   7.861   0.767   8.366
  721POPC   C3A12977   7.698   0.573   7.972
  721POPC   C4A12978   7.474   0.522   7.594
  721POPC   C1B12979   7.187   0.378   8.754
  721POPC   C2B12980   7.308   0.456   8.316
  721POPC   C3B12981   7.070   0.432   7.917
  721POPC   C4B12982   7.056   0.123   7.565
  722POPC   NC312983  41.045   7.071   9.472
  722POPC   PO412984  40.713   7.543   9.906
  722POPC   GL112985  40.836   7.542   9.395
  722POPC   GL212986  40.593   7.536   9.099
  722POPC   C1A12987  41.078   7.523   8.965
  722POPC   D2A12988  41.163   7.362   8.542
  722POPC   C3A12989  40.965   7.481   8.160
  722POPC   C4A12990  40.707   7.617   7.829
  722POPC   C1B12991  40.672   7.282   8.714
  722POPC   C2B12992  40.436   7.102   8.391
  722POPC   C3B12993  40.419   7.209   7.996
  722POPC   C4B12994  40.580   7.201   7.575
  723POPC   NC312995  21.894   7.312   9.470
  723POPC   PO412996  22.466   7.006   9.435
  723POPC   GL112997  22.288   7.295   9.135
  723POPC   GL212998  22.068   7.614   9.085
  723POPC   C1A12999  22.103   7.219   8.741
  723POPC   D2A13000  22.140   7.540   8.430
  723POPC   C3A13001  22.169   7.363   8.050
  723POPC   C4A13002  22.017   7.450   7.675
  723POPC   C1B13003  21.742   7.575   8.749
  723POPC   C2B13004  21.675   7.311   8.398
  723POPC   C3B13005  21.712   7.544   8.062
  723POPC   C4B13006  21.745   7.881   7.815
  724POPC   NC313007  22.749   7.426   9.447
  724POPC   PO413008  23.208   6.887   9.467
  724POPC   GL113009  23.106   7.226   9.147
  724POPC   GL213010  22.784   7.129   9.035
  724POPC   C1A13011  23.084   7.562   8.813
  724POPC   D2A13012  22.914   7.664   8.389
  724POPC   C3A13013  23.024   7.327   8.073
  724POPC   C4A13014  23.136   7.219   7.626
  724POPC   C1B13015  22.604   7.375   8.730
  724POPC   C2B13016  22.581   7.286   8.321
  724POPC   C3B13017  22.590   7.599   7.996
  724POPC   C4B13018  22.561   7.452   7.608
  725POPC   NC313019   6.336   9.133   9.352
  725POPC   PO413020   5.801   8.789   9.643
  725POPC   GL113021   5.905   8.857   9.233
  725POPC   GL213022   5.821   9.177   9.195
  725POPC   C1A13023   5.954   8.738   8.810
  725POPC   D2A13024   6.080   8.900   8.420
  725POPC   C3A13025   5.839   8.922   8.051
  725POPC   C4A13026   6.015   8.924   7.661
  725POPC   C1B13027   6.008   9.256   8.789
  725POPC   C2B13028   5.843   9.350   8.387
  725POPC   C3B13029   6.032   9.387   7.953
  725POPC   C4B13030   5.773   9.367   7.587
  726POPC   NC313031   0.883   3.124   9.482
  726POPC   PO413032   0.250   3.033   9.582
  726POPC   GL113033   0.484   2.893   9.230
  726POPC   GL213034   0.598   2.560   9.245
  726POPC   C1A13035   0.657   2.926   8.827
  726POPC   D2A13036   0.507   2.728   8.434
  726POPC   C3A13037   0.568   3.001   8.078
  726POPC   C4A13038   0.690   2.887   7.677
  726POPC   C1B13039   0.362   2.510   8.893
  726POPC   C2B13040   0.065   2.450   8.579
  726POPC   C3B13041   0.136   2.400   8.159
  726POPC   C4B13042   0.428   2.521   7.908
  727POPC   NC313043  21.302  10.529   9.627
  727POPC   PO413044  20.907  10.109   9.257
  727POPC   GL113045  21.220  10.291   8.980
  727POPC   GL213046  21.460  10.550   9.123
  727POPC   C1A13047  21.170  10.437   8.540
  727POPC   D2A13048  21.521  10.344   8.237
  727POPC   C3A13049  21.485  10.270   7.782
  727POPC   C4A13050  21.109  10.366   7.548
  727POPC   C1B13051  21.453  10.844   8.756
  727POPC   C2B13052  21.216  10.914   8.366
  727POPC   C3B13053  21.177  10.649   7.999
  727POPC   C4B13054  21.455  10.749   7.647
  728POPC   NC313055  15.802  29.538   9.327
  728POPC   PO413056  16.074  30.090   9.621
  728POPC   GL113057  16.003  29.990   9.193
  728POPC   GL213058  15.632  30.055   9.222
  728POPC   C1A13059  16.022  30.156   8.769
  728POPC   D2A13060  16.167  30.371   8.403
  728POPC   C3A13061  16.119  30.052   8.068
  728POPC   C4A13062  15.915  29.742   7.761
  728POPC   C1B13063  15.481  30.049   8.795
  728POPC   C2B13064  15.598  30.228   8.398
  728POPC   C3B13065  15.577  30.066   7.977
  728POPC   C4B13066  15.860  30.285   7.692
  729POPC   NC313067   9.646  30.082   9.468
  729POPC   PO413068  10.108  29.601   9.640
  729POPC   GL113069   9.957  29.709   9.237
  729POPC   GL213070  10.248  29.856   9.079
  729POPC   C1A13071   9.774  29.941   8.850
  729POPC   D2A13072   9.532  30.284   8.625
  729POPC   C3A13073   9.742  30.262   8.224
  729POPC   C4A13074   9.793  29.892   7.942
  729POPC   C1B13075  10.109  29.545   8.789
  729POPC   C2B13076   9.937  29.683   8.402
  729POPC   C3B13077  10.168  29.555   8.059
  729POPC   C4B13078  10.150  29.545   7.630
  730POPC   NC313079  14.239  11.082   9.551
  730POPC   PO413080  14.618  11.600   9.365
  730POPC   GL113081  14.247  11.385   9.135
  730POPC   GL213082  14.270  11.005   9.065
  730POPC   C1A13083  14.143  11.354   8.707
  730POPC   D2A13084  14.455  11.313   8.405
  730POPC   C3A13085  14.264  11.220   8.057
  730POPC   C4A13086  14.109  11.418   7.754
  730POPC   C1B13087  13.979  10.862   8.768
  730POPC   C2B13088  13.898  11.003   8.352
  730POPC   C3B13089  13.958  10.818   7.931
  730POPC   C4B13090  14.135  10.966   7.534
  731POPC   NC313091  13.147   8.952   9.297
  731POPC   PO413092  12.733   9.398   9.581
  731POPC   GL113093  12.699   9.171   9.189
  731POPC   GL213094  12.448   8.941   9.264
  731POPC   C1A13095  12.941   9.165   8.749
  731POPC   D2A13096  13.203   8.905   8.478
  731POPC   C3A13097  13.131   9.046   8.051
  731POPC   C4A13098  13.072   9.232   7.637
  731POPC   C1B13099  12.629   8.757   8.886
  731POPC   C2B13100  12.587   8.863   8.452
  731POPC   C3B13101  12.471   8.780   8.019
  731POPC   C4B13102  12.781   8.828   7.718
  732POPC   NC313103  40.437   7.150   9.788
  732POPC   PO413104  39.925   7.420   9.459
  732POPC   GL113105  39.843   7.479   9.082
  732POPC   GL213106  40.115   7.711   9.066
  732POPC   C1A13107  39.680   7.284   8.755
  732POPC   D2A13108  39.923   7.041   8.461
  732POPC   C3A13109  39.843   7.130   8.034
  732POPC   C4A13110  40.050   7.351   7.703
  732POPC   C1B13111  40.174   7.453   8.692
  732POPC   C2B13112  40.040   7.543   8.260
  732POPC   C3B13113  40.209   7.788   7.900
  732POPC   C4B13114  40.349   7.662   7.458
  733POPC   NC313115  32.709  19.850   9.511
  733POPC   PO413116  33.362  19.886   9.266
  733POPC   GL113117  33.061  19.741   9.025
  733POPC   GL213118  32.790  19.976   9.027
  733POPC   C1A13119  33.055  19.504   8.648
  733POPC   D2A13120  32.775  19.486   8.290
  733POPC   C3A13121  32.911  19.647   7.883
  733POPC   C4A13122  33.302  19.861   7.713
  733POPC   C1B13123  32.899  20.025   8.598
  733POPC   C2B13124  33.057  20.356   8.330
  733POPC   C3B13125  33.148  20.329   7.918
  733POPC   C4B13126  32.786  20.147   7.805
  734POPC   NC313127  25.797  34.184   9.545
  734POPC   PO413128  26.356  34.045   9.475
  734POPC   GL113129  26.039  34.044   9.120
  734POPC   GL213130  25.712  33.851   9.155
  734POPC   C1A13131  25.928  33.934   8.703
  734POPC   D2A13132  26.201  33.798   8.447
  734POPC   C3A13133  26.074  33.807   8.059
  734POPC   C4A13134  26.282  33.744   7.716
  734POPC   C1B13135  25.653  33.522   8.828
  734POPC   C2B13136  25.763  33.532   8.377
  734POPC   C3B13137  25.608  33.606   7.939
  734POPC   C4B13138  25.795  33.753   7.536
  735POPC   NC313139  24.612  15.668   9.582
  735POPC   PO413140  24.442  16.225   9.639
  735POPC   GL113141  24.293  16.057   9.238
  735POPC   GL213142  24.576  15.848   9.096
  735POPC   C1A13143  24.147  16.304   8.880
  735POPC   D2A13144  24.319  16.428   8.487
  735POPC   C3A13145  24.388  16.096   8.204
  735POPC   C4A13146  24.266  16.056   7.825
  735POPC   C1B13147  24.396  15.902   8.680
  735POPC   C2B13148  24.188  15.632   8.381
  735POPC   C3B13149  24.251  15.572   7.944
  735POPC   C4B13150  24.594  15.737   7.624
  736POPC   NC313151  34.869  31.398   9.683
  736POPC   PO413152  35.519  31.486   9.447
  736POPC   GL113153  35.350  31.350   9.109
  736POPC   GL213154  35.656  31.173   9.013
  736POPC   C1A13155  35.169  31.511   8.747
  736POPC   D2A13156  35.091  31.707   8.348
  736POPC   C3A13157  35.185  31.452   7.988
  736POPC   C4A13158  35.044  31.290   7.605
  736POPC   C1B13159  35.688  31.488   8.738
  736POPC   C2B13160  35.516  31.357   8.373
  736POPC   C3B13161  35.678  31.445   7.977
  736POPC   C4B13162  35.480  31.605   7.575
  737POPC   NC313163  25.462  36.646   9.558
  737POPC   PO413164  25.084  37.175   9.549
  737POPC   GL113165  25.027  36.854   9.229
  737POPC   GL213166  25.311  36.661   9.079
  737POPC   C1A13167  24.996  36.935   8.781
  737POPC   D2A13168  24.931  36.832   8.341
  737POPC   C3A13169  24.888  37.205   8.097
  737POPC   C4A13170  25.012  37.233   7.678
  737POPC   C1B13171  25.385  36.546   8.657
  737POPC   C2B13172  25.441  36.844   8.307
  737POPC   C3B13173  25.428  36.976   7.875
  737POPC   C4B13174  25.713  36.863   7.566
  738POPC   NC313175   4.105  32.528   9.238
  738POPC   PO413176   4.515  31.993   9.564
  738POPC   GL113177   4.646  32.143   9.172
  738POPC   GL213178   4.606  32.485   9.073
  738POPC   C1A13179   4.432  32.053   8.770
  738POPC   D2A13180   4.138  32.139   8.432
  738POPC   C3A13181   4.233  32.351   8.031
  738POPC   C4A13182   4.056  32.191   7.623
  738POPC   C1B13183   4.852  32.315   8.705
  738POPC   C2B13184   4.772  32.032   8.331
  738POPC   C3B13185   4.671  32.066   7.894
  738POPC   C4B13186   4.537  32.369   7.579
  739POPC   NC313187  23.354  18.274   9.456
  739POPC   PO413188  22.715  18.516   9.646
  739POPC   GL113189  22.926  18.529   9.242
  739POPC   GL213190  22.956  18.208   9.145
  739POPC   C1A13191  22.946  18.636   8.794
  739POPC   D2A13192  22.871  18.459   8.395
  739POPC   C3A13193  22.789  18.640   8.021
  739POPC   C4A13194  22.834  18.437   7.655
  739POPC   C1B13195  23.124  18.157   8.756
  739POPC   C2B13196  23.046  17.944   8.401
  739POPC   C3B13197  23.045  18.101   8.008
  739POPC   C4B13198  22.946  17.882   7.689
  740POPC   NC313199   8.942  22.874   9.586
  740POPC   PO413200   8.525  23.285   9.248
  740POPC   GL113201   8.919  23.092   9.110
  740POPC   GL213202   9.014  22.729   9.105
  740POPC   C1A13203   9.056  23.096   8.696
  740POPC   D2A13204   8.821  23.063   8.327
  740POPC   C3A13205   9.030  23.080   7.937
  740POPC   C4A13206   9.064  23.246   7.532
  740POPC   C1B13207   9.062  22.552   8.695
  740POPC   C2B13208   9.181  22.690   8.275
  740POPC   C3B13209   8.944  22.559   7.909
  740POPC   C4B13210   8.610  22.615   7.628
  741POPC   NC313211   9.858  44.533   9.659
  741POPC   PO413212   9.594   0.040   9.480
  741POPC   GL113213   9.584  44.678   9.224
  741POPC   GL213214   9.940  44.743   9.198
  741POPC   C1A13215   9.634  44.697   8.781
  741POPC   D2A13216   9.584  44.944   8.444
  741POPC   C3A13217   9.424  44.776   8.113
  741POPC   C4A13218   9.468  44.542   7.763
  741POPC   C1B13219  10.025  44.417   8.935
  741POPC   C2B13220  10.054  44.418   8.502
  741POPC   C3B13221   9.907  44.572   8.096
  741POPC   C4B13222   9.936  44.365   7.703
  742POPC   NC313223  10.046   6.393   9.444
  742POPC   PO413224   9.371   6.688   9.370
  742POPC   GL113225   9.745   6.737   9.158
  742POPC   GL213226   9.979   6.970   9.290
  742POPC   C1A13227   9.880   6.517   8.802
  742POPC   D2A13228   9.727   6.321   8.454
  742POPC   C3A13229   9.694   6.549   8.082
  742POPC   C4A13230   9.809   6.484   7.668
  742POPC   C1B13231  10.060   7.004   8.846
  742POPC   C2B13232   9.842   6.897   8.438
  742POPC   C3B13233  10.005   6.941   7.988
  742POPC   C4B13234  10.097   6.890   7.548
  743POPC   NC313235  15.680  17.461   9.699
  743POPC   PO413236  15.692  18.027   9.297
  743POPC   GL113237  15.881  17.766   8.984
  743POPC   GL213238  16.134  17.525   9.077
  743POPC   C1A13239  15.709  17.521   8.636
  743POPC   D2A13240  15.459  17.667   8.259
  743POPC   C3A13241  15.689  17.470   7.952
  743POPC   C4A13242  15.795  17.151   7.681
  743POPC   C1B13243  16.205  17.608   8.618
  743POPC   C2B13244  16.141  17.373   8.198
  743POPC   C3B13245  16.216  17.498   7.733
  743POPC   C4B13246  16.265  17.847   7.361
  744POPC   NC313247  43.141  44.925   9.771
  744POPC   PO413248  43.308  44.440   9.392
  744POPC   GL113249  43.144  44.779   9.131
  744POPC   GL213250  42.855  44.638   8.941
  744POPC   C1A13251  43.176  44.935   8.712
  744POPC   D2A13252  42.954  44.696   8.403
  744POPC   C3A13253  43.178  44.756   8.059
  744POPC   C4A13254  43.154  44.959   7.696
  744POPC   C1B13255  43.236  44.423   8.765
  744POPC   C2B13256  43.383  44.354   8.366
  744POPC   C3B13257  43.074  44.249   8.068
  744POPC   C4B13258  43.109  44.421   7.664
  745POPC   NC313259  39.696  24.957   9.840
  745POPC   PO413260  40.004  25.429   9.433
  745POPC   GL113261  39.975  25.485   9.084
  745POPC   GL213262  40.338  25.447   9.018
  745POPC   C1A13263  39.950  25.295   8.701
  745POPC   D2A13264  40.044  25.101   8.336
  745POPC   C3A13265  39.884  25.296   7.967
  745POPC   C4A13266  40.078  25.131   7.613
  745POPC   C1B13267  40.211  25.759   8.724
  745POPC   C2B13268  40.178  25.630   8.327
  745POPC   C3B13269  40.369  25.416   8.009
  745POPC   C4B13270  40.232  25.592   7.630
  746POPC   NC313271   4.940  31.032   9.445
  746POPC   PO413272   5.272  31.629   9.447
  746POPC   GL113273   4.959  31.711   9.177
  746POPC   GL213274   4.896  31.367   9.056
  746POPC   C1A13275   4.893  31.794   8.767
  746POPC   D2A13276   4.949  31.509   8.432
  746POPC   C3A13277   5.132  31.625   8.041
  746POPC   C4A13278   5.073  31.810   7.662
  746POPC   C1B13279   5.279  31.318   8.788
  746POPC   C2B13280   5.281  31.118   8.364
  746POPC   C3B13281   4.945  31.148   8.049
  746POPC   C4B13282   5.104  31.281   7.658
  747POPC   NC313283  12.003   4.208   9.606
  747POPC   PO413284  12.183   4.899   9.606
  747POPC   GL113285  12.133   4.548   9.216
  747POPC   GL213286  12.170   4.137   9.143
  747POPC   C1A13287  12.200   4.473   8.764
  747POPC   D2A13288  12.348   4.612   8.360
  747POPC   C3A13289  12.058   4.621   8.008
  747POPC   C4A13290  11.799   4.489   7.655
  747POPC   C1B13291  12.403   3.996   8.787
  747POPC   C2B13292  12.225   4.043   8.392
  747POPC   C3B13293  11.978   4.125   8.036
  747POPC   C4B13294  12.211   4.212   7.676
  748POPC   NC313295  12.038  37.954   9.809
  748POPC   PO413296  11.935  38.602   9.354
  748POPC   GL113297  12.191  38.419   9.062
  748POPC   GL213298  11.879  38.350   8.913
  748POPC   C1A13299  12.316  38.228   8.691
  748POPC   D2A13300  12.503  38.415   8.382
  748POPC   C3A13301  12.219  38.421   8.094
  748POPC   C4A13302  12.162  38.255   7.720
  748POPC   C1B13303  11.837  37.989   8.695
  748POPC   C2B13304  11.884  38.043   8.285
  748POPC   C3B13305  11.720  38.182   7.918
  748POPC   C4B13306  11.813  37.955   7.495
  749POPC   NC313307  41.250  11.227   9.526
  749POPC   PO413308  41.892  11.419   9.517
  749POPC   GL113309  41.645  11.261   9.193
  749POPC   GL213310  41.491  11.547   9.118
  749POPC   C1A13311  41.777  11.173   8.765
  749POPC   D2A13312  41.858  10.928   8.357
  749POPC   C3A13313  41.503  10.999   8.086
  749POPC   C4A13314  41.588  11.139   7.684
  749POPC   C1B13315  41.389  11.781   8.766
  749POPC   C2B13316  41.347  11.650   8.349
  749POPC   C3B13317  41.472  11.578   7.915
  749POPC   C4B13318  41.403  11.565   7.439
  750POPC   NC313319  21.534  20.882   9.462
  750POPC   PO413320  20.981  20.558   9.570
  750POPC   GL113321  21.203  20.354   9.204
  750POPC   GL213322  21.522  20.511   9.105
  750POPC   C1A13323  21.128  20.491   8.774
  750POPC   D2A13324  21.178  20.677   8.384
  750POPC   C3A13325  21.296  20.454   8.028
  750POPC   C4A13326  21.239  20.679   7.685
  750POPC   C1B13327  21.585  20.733   8.698
  750POPC   C2B13328  21.731  20.560   8.297
  750POPC   C3B13329  21.735  20.631   7.843
  750POPC   C4B13330  21.722  20.712   7.395
  751POPC   NC313331  11.939  38.144   9.388
  751POPC   PO413332  12.246  37.550   9.710
  751POPC   GL113333  12.183  37.601   9.238
  751POPC   GL213334  12.190  37.892   9.051
  751POPC   C1A13335  11.967  37.491   8.835
  751POPC   D2A13336  11.805  37.527   8.404
  751POPC   C3A13337  12.035  37.631   8.016
  751POPC   C4A13338  11.932  37.482   7.640
  751POPC   C1B13339  12.499  37.751   8.820
  751POPC   C2B13340  12.320  37.763   8.424
  751POPC   C3B13341  12.462  37.947   8.034
  751POPC   C4B13342  12.355  37.789   7.623
  752POPC   NC313343  13.200  19.503   9.302
  752POPC   PO413344  13.847  19.549   9.476
  752POPC   GL113345  14.047  19.759   9.122
  752POPC   GL213346  13.966  20.141   9.098
  752POPC   C1A13347  13.949  19.828   8.674
  752POPC   D2A13348  13.581  19.794   8.388
  752POPC   C3A13349  13.641  19.433   8.097
  752POPC   C4A13350  13.497  19.272   7.697
  752POPC   C1B13351  13.638  20.207   8.790
  752POPC   C2B13352  13.874  20.236   8.381
  752POPC   C3B13353  13.975  19.928   8.083
  752POPC   C4B13354  13.668  19.872   7.782
  753POPC   NC313355  34.475  18.063   9.536
  753POPC   PO413356  35.082  18.194   9.503
  753POPC   GL113357  34.780  18.273   9.154
  753POPC   GL213358  34.403  18.362   9.114
  753POPC   C1A13359  34.721  18.319   8.713
  753POPC   D2A13360  34.773  18.123   8.323
  753POPC   C3A13361  34.912  18.251   7.948
  753POPC   C4A13362  34.598  18.059   7.725
  753POPC   C1B13363  34.184  18.202   8.695
  753POPC   C2B13364  34.255  18.044   8.255
  753POPC   C3B13365  34.110  18.191   7.871
  753POPC   C4B13366  34.253  18.326   7.456
  754POPC   NC313367  31.139  25.704   9.446
  754POPC   PO413368  30.634  26.067   9.499
  754POPC   GL113369  30.596  25.959   9.108
  754POPC   GL213370  30.759  25.652   9.107
  754POPC   C1A13371  30.440  26.101   8.705
  754POPC   D2A13372  30.346  25.849   8.312
  754POPC   C3A13373  30.481  26.034   7.905
  754POPC   C4A13374  30.860  26.298   7.807
  754POPC   C1B13375  30.656  25.655   8.699
  754POPC   C2B13376  30.921  25.700   8.373
  754POPC   C3B13377  30.965  25.714   7.951
  754POPC   C4B13378  30.626  25.550   7.775
  755POPC   NC313379   5.181  37.077   9.519
  755POPC   PO413380   4.633  36.600   9.527
  755POPC   GL113381   4.904  36.841   9.165
  755POPC   GL213382   5.273  36.944   9.061
  755POPC   C1A13383   4.908  37.029   8.743
  755POPC   D2A13384   5.229  36.989   8.429
  755POPC   C3A13385   5.070  36.869   8.030
  755POPC   C4A13386   5.147  37.124   7.681
  755POPC   C1B13387   5.238  36.616   8.789
  755POPC   C2B13388   5.158  36.443   8.387
  755POPC   C3B13389   5.367  36.456   7.986
  755POPC   C4B13390   5.341  36.661   7.589
  756POPC   NC313391   2.868   1.776   9.553
  756POPC   PO413392   2.719   2.384   9.592
  756POPC   GL113393   2.617   2.100   9.229
  756POPC   GL213394   2.894   2.016   9.099
  756POPC   C1A13395   2.518   1.875   8.797
  756POPC   D2A13396   2.716   1.914   8.382
  756POPC   C3A13397   2.579   2.006   7.956
  756POPC   C4A13398   2.852   1.864   7.613
  756POPC   C1B13399   2.843   2.298   8.769
  756POPC   C2B13400   2.998   2.331   8.352
  756POPC   C3B13401   3.057   2.235   7.921
  756POPC   C4B13402   2.819   2.383   7.550
  757POPC   NC313403   6.453   1.001   9.443
  757POPC   PO413404   6.693   1.574   9.524
  757POPC   GL113405   6.686   1.339   9.126
  757POPC   GL213406   6.324   1.361   9.064
  757POPC   C1A13407   6.849   1.512   8.723
  757POPC   D2A13408   6.712   1.527   8.308
  757POPC   C3A13409   6.960   1.296   8.045
  757POPC   C4A13410   7.037   0.937   7.800
  757POPC   C1B13411   6.460   1.221   8.640
  757POPC   C2B13412   6.620   0.982   8.287
  757POPC   C3B13413   6.524   1.093   7.856
  757POPC   C4B13414   6.359   1.203   7.445
  758POPC   NC313415  35.737  41.800   9.490
  758POPC   PO413416  35.046  41.887   9.438
  758POPC   GL113417  35.238  41.712   9.076
  758POPC   GL213418  35.581  41.655   9.031
  758POPC   C1A13419  35.224  41.447   8.744
  758POPC   D2A13420  35.075  41.536   8.371
  758POPC   C3A13421  35.200  41.383   7.999
  758POPC   C4A13422  34.906  41.438   7.721
  758POPC   C1B13423  35.550  41.835   8.657
  758POPC   C2B13424  35.521  41.726   8.261
  758POPC   C3B13425  35.226  41.884   7.979
  758POPC   C4B13426  35.456  41.976   7.641
  759POPC   NC313427  28.776  12.490   9.458
  759POPC   PO413428  28.938  13.080   9.670
  759POPC   GL113429  29.038  12.863   9.208
  759POPC   GL213430  29.108  12.509   9.075
  759POPC   C1A13431  28.858  12.800   8.755
  759POPC   D2A13432  29.031  12.803   8.328
  759POPC   C3A13433  28.768  12.872   7.979
  759POPC   C4A13434  28.470  12.621   7.760
  759POPC   C1B13435  29.331  12.601   8.706
  759POPC   C2B13436  29.511  12.632   8.291
  759POPC   C3B13437  29.351  12.763   7.891
  759POPC   C4B13438  29.549  12.893   7.511
  760POPC   NC313439  21.149   7.828   9.430
  760POPC   PO413440  21.546   8.380   9.413
  760POPC   GL113441  21.368   8.227   9.080
  760POPC   GL213442  21.069   8.363   9.193
  760POPC   C1A13443  21.538   8.073   8.702
  760POPC   D2A13444  21.829   7.974   8.373
  760POPC   C3A13445  21.625   8.268   8.140
  760POPC   C4A13446  21.502   8.342   7.745
  760POPC   C1B13447  20.936   8.062   8.861
  760POPC   C2B13448  21.061   8.124   8.449
  760POPC   C3B13449  21.096   8.151   8.009
  760POPC   C4B13450  20.996   8.332   7.620
  761POPC   NC313451   2.596   3.514   9.444
  761POPC   PO413452   2.911   4.022   9.498
  761POPC   GL113453   3.004   3.688   9.157
  761POPC   GL213454   2.844   3.340   9.028
  761POPC   C1A13455   3.153   3.634   8.739
  761POPC   D2A13456   2.931   3.778   8.384
  761POPC   C3A13457   2.997   3.555   8.036
  761POPC   C4A13458   3.050   3.724   7.658
  761POPC   C1B13459   2.595   3.625   8.752
  761POPC   C2B13460   2.445   3.598   8.308
  761POPC   C3B13461   2.551   3.824   7.931
  761POPC   C4B13462   2.566   3.610   7.537
  762POPC   NC313463  10.333  37.666   9.648
  762POPC   PO413464  10.849  37.997   9.510
  762POPC   GL113465  10.650  37.917   9.152
  762POPC   GL213466  10.652  37.576   9.213
  762POPC   C1A13467  10.459  38.067   8.769
  762POPC   D2A13468  10.199  37.945   8.403
  762POPC   C3A13469  10.335  37.856   7.996
  762POPC   C4A13470  10.665  38.024   7.708
  762POPC   C1B13471  10.375  37.578   8.882
  762POPC   C2B13472  10.248  37.421   8.507
  762POPC   C3B13473  10.319  37.198   8.151
  762POPC   C4B13474  10.467  37.383   7.808
  763POPC   NC313475  31.169  38.554   9.403
  763POPC   PO413476  31.781  38.212   9.456
  763POPC   GL113477  31.598  38.441   9.147
  763POPC   GL213478  31.556  38.110   9.017
  763POPC   C1A13479  31.330  38.494   8.773
  763POPC   D2A13480  31.528  38.480   8.377
  763POPC   C3A13481  31.663  38.768   8.048
  763POPC   C4A13482  31.462  38.840   7.630
  763POPC   C1B13483  31.788  37.975   8.672
  763POPC   C2B13484  31.873  38.118   8.288
  763POPC   C3B13485  31.626  38.251   7.926
  763POPC   C4B13486  31.664  38.149   7.507
  764POPC   NC313487   2.252   2.382   9.560
  764POPC   PO413488   1.648   1.962   9.461
  764POPC   GL113489   1.852   1.854   9.084
  764POPC   GL213490   2.129   1.997   9.193
  764POPC   C1A13491   2.016   1.888   8.686
  764POPC   D2A13492   2.191   1.901   8.290
  764POPC   C3A13493   1.964   1.919   7.899
  764POPC   C4A13494   1.734   2.239   7.812
  764POPC   C1B13495   2.249   2.311   8.886
  764POPC   C2B13496   2.407   2.341   8.464
  764POPC   C3B13497   2.186   2.375   8.072
  764POPC   C4B13498   2.303   2.349   7.660
  765POPC   NC313499  37.397  36.488   9.754
  765POPC   PO413500  37.957  36.268   9.466
  765POPC   GL113501  37.669  36.194   9.116
  765POPC   GL213502  37.798  35.865   9.009
  765POPC   C1A13503  37.672  36.198   8.647
  765POPC   D2A13504  37.534  36.193   8.219
  765POPC   C3A13505  37.744  36.352   7.853
  765POPC   C4A13506  37.791  36.122   7.411
  765POPC   C1B13507  37.437  35.738   8.785
  765POPC   C2B13508  37.274  35.776   8.373
  765POPC   C3B13509  37.491  35.665   8.025
  765POPC   C4B13510  37.842  35.855   7.848
  766POPC   NC313511  42.677  32.558   9.513
  766POPC   PO413512  42.032  32.404   9.492
  766POPC   GL113513  42.165  32.154   9.150
  766POPC   GL213514  42.460  32.318   9.125
  766POPC   C1A13515  42.298  32.068   8.703
  766POPC   D2A13516  42.536  31.922   8.361
  766POPC   C3A13517  42.359  32.045   7.987
  766POPC   C4A13518  42.500  32.197   7.577
  766POPC   C1B13519  42.408  32.556   8.765
  766POPC   C2B13520  42.592  32.459   8.363
  766POPC   C3B13521  42.453  32.550   7.945
  766POPC   C4B13522  42.305  32.664   7.518
  767POPC   NC313523   6.489  10.020   9.551
  767POPC   PO413524   6.968   9.540   9.524
  767POPC   GL113525   6.772   9.690   9.126
  767POPC   GL213526   6.743  10.057   9.075
  767POPC   C1A13527   6.524   9.463   8.794
  767POPC   D2A13528   6.355   9.349   8.385
  767POPC   C3A13529   6.593   9.534   8.046
  767POPC   C4A13530   6.434   9.662   7.626
  767POPC   C1B13531   7.012  10.013   8.715
  767POPC   C2B13532   6.927   9.913   8.271
  767POPC   C3B13533   6.809   9.969   7.833
  767POPC   C4B13534   6.984  10.230   7.467
  768POPC   NC313535  41.848  37.759   9.620
  768POPC   PO413536  41.243  37.347   9.518
  768POPC   GL113537  41.509  37.546   9.237
  768POPC   GL213538  41.809  37.338   9.318
  768POPC   C1A13539  41.502  37.820   8.861
  768POPC   D2A13540  41.663  37.707   8.462
  768POPC   C3A13541  41.491  37.761   8.049
  768POPC   C4A13542  41.540  37.497   7.719
  768POPC   C1B13543  41.866  37.444   8.883
  768POPC   C2B13544  42.081  37.390   8.510
  768POPC   C3B13545  41.961  37.468   8.080
  768POPC   C4B13546  41.912  37.185   7.745
  769POPC   NC313547  33.631  23.347   9.605
  769POPC   PO413548  33.955  23.945   9.484
  769POPC   GL113549  33.678  23.704   9.230
  769POPC   GL213550  33.506  23.916   9.045
  769POPC   C1A13551  33.662  23.496   8.802
  769POPC   D2A13552  33.812  23.601   8.356
  769POPC   C3A13553  33.597  23.561   7.950
  769POPC   C4A13554  33.941  23.584   7.628
  769POPC   C1B13555  33.621  23.992   8.624
  769POPC   C2B13556  33.505  24.000   8.186
  769POPC   C3B13557  33.671  24.036   7.762
  769POPC   C4B13558  33.444  24.186   7.366
  770POPC   NC313559   0.439  17.599   9.495
  770POPC   PO413560   0.055  17.073   9.306
  770POPC   GL113561   0.329  17.320   9.097
  770POPC   GL213562   0.208  17.659   9.063
  770POPC   C1A13563   0.671  17.403   8.827
  770POPC   D2A13564   0.694  17.580   8.429
  770POPC   C3A13565   0.695  17.368   8.097
  770POPC   C4A13566   0.382  17.396   7.840
  770POPC   C1B13567   0.092  17.475   8.673
  770POPC   C2B13568   0.210  17.654   8.282
  770POPC   C3B13569   0.124  17.819   7.896
  770POPC   C4B13570  44.887  17.533   7.659
  771POPC   NC313571  23.399  16.673   9.766
  771POPC   PO413572  23.948  17.059   9.493
  771POPC   GL113573  23.792  16.774   9.157
  771POPC   GL213574  23.408  16.636   9.179
  771POPC   C1A13575  23.984  16.769   8.728
  771POPC   D2A13576  23.902  16.956   8.302
  771POPC   C3A13577  23.845  16.756   7.931
  771POPC   C4A13578  24.032  16.472   7.687
  771POPC   C1B13579  23.618  16.404   8.829
  771POPC   C2B13580  23.682  16.499   8.403
  771POPC   C3B13581  23.606  16.314   8.022
  771POPC   C4B13582  23.517  16.469   7.627
  772POPC   NC313583  24.937  30.287   9.452
  772POPC   PO413584  24.461  30.796   9.549
  772POPC   GL113585  24.341  30.734   9.154
  772POPC   GL213586  24.304  30.370   9.080
  772POPC   C1A13587  24.393  30.984   8.793
  772POPC   D2A13588  24.627  30.914   8.443
  772POPC   C3A13589  24.414  30.857   8.078
  772POPC   C4A13590  24.561  30.928   7.683
  772POPC   C1B13591  24.587  30.495   8.735
  772POPC   C2B13592  24.613  30.417   8.263
  772POPC   C3B13593  24.470  30.435   7.794
  772POPC   C4B13594  24.286  30.371   7.359
  773POPC   NC313595  16.822  31.878   9.503
  773POPC   PO413596  16.403  31.386   9.481
  773POPC   GL113597  16.559  31.547   9.086
  773POPC   GL213598  16.896  31.596   9.094
  773POPC   C1A13599  16.686  31.501   8.654
  773POPC   D2A13600  16.823  31.742   8.334
  773POPC   C3A13601  16.657  31.551   8.028
  773POPC   C4A13602  16.750  31.379   7.711
  773POPC   C1B13603  17.108  31.801   8.762
  773POPC   C2B13604  17.343  31.817   8.363
  773POPC   C3B13605  17.178  31.618   7.970
  773POPC   C4B13606  17.048  31.770   7.563
  774POPC   NC313607  15.858  41.199   9.581
  774POPC   PO413608  16.428  41.321   9.562
  774POPC   GL113609  16.264  41.227   9.117
  774POPC   GL213610  15.893  41.280   9.067
  774POPC   C1A13611  16.203  41.299   8.650
  774POPC   D2A13612  15.894  41.535   8.381
  774POPC   C3A13613  15.794  41.374   7.979
  774POPC   C4A13614  16.100  41.330   7.708
  774POPC   C1B13615  15.558  41.330   8.713
  774POPC   C2B13616  15.383  41.485   8.277
  774POPC   C3B13617  15.490  41.803   7.921
  774POPC   C4B13618  15.824  42.080   7.691
  775POPC   NC313619  43.586  30.025   9.458
  775POPC   PO413620  43.946  29.523   9.773
  775POPC   GL113621  43.901  29.657   9.296
  775POPC   GL213622  43.756  29.448   9.106
  775POPC   C1A13623  44.012  29.828   8.867
  775POPC   D2A13624  43.899  30.095   8.522
  775POPC   C3A13625  43.949  30.067   8.071
  775POPC   C4A13626  44.286  29.908   7.844
  775POPC   C1B13627  43.531  29.684   8.774
  775POPC   C2B13628  43.698  29.669   8.361
  775POPC   C3B13629  43.771  29.581   7.940
  775POPC   C4B13630  43.440  29.460   7.646
  776POPC   NC313631  14.697  22.640   9.419
  776POPC   PO413632  15.295  22.957   9.495
  776POPC   GL113633  15.034  22.968   9.157
  776POPC   GL213634  15.103  22.645   9.029
  776POPC   C1A13635  15.146  23.145   8.766
  776POPC   D2A13636  14.970  23.270   8.375
  776POPC   C3A13637  15.216  23.122   8.034
  776POPC   C4A13638  15.334  23.031   7.632
  776POPC   C1B13639  14.844  22.721   8.655
  776POPC   C2B13640  14.879  22.757   8.190
  776POPC   C3B13641  14.958  22.536   7.784
  776POPC   C4B13642  14.939  22.726   7.354
  777POPC   NC313643  24.892  18.796   9.480
  777POPC   PO413644  25.410  19.270   9.602
  777POPC   GL113645  25.179  19.200   9.236
  777POPC   GL213646  25.269  18.869   9.073
  777POPC   C1A13647  25.286  19.341   8.819
  777POPC   D2A13648  25.319  19.180   8.399
  777POPC   C3A13649  25.137  19.268   8.036
  777POPC   C4A13650  25.409  19.250   7.707
  777POPC   C1B13651  24.925  19.001   8.823
  777POPC   C2B13652  24.795  19.081   8.400
  777POPC   C3B13653  24.816  18.856   8.035
  777POPC   C4B13654  24.970  18.993   7.628
  778POPC   NC313655  39.024  42.365   9.453
  778POPC   PO413656  39.501  41.903   9.281
  778POPC   GL113657  39.488  42.281   9.058
  778POPC   GL213658  39.210  42.505   9.009
  778POPC   C1A13659  39.505  42.231   8.631
  778POPC   D2A13660  39.254  42.282   8.321
  778POPC   C3A13661  39.336  42.450   7.941
  778POPC   C4A13662  39.452  42.190   7.595
  778POPC   C1B13663  39.024  42.187   8.784
  778POPC   C2B13664  38.805  42.397   8.515
  778POPC   C3B13665  38.820  42.429   8.093
  778POPC   C4B13666  38.901  42.439   7.684
  779POPC   NC313667   6.442  23.992   9.544
  779POPC   PO413668   6.912  24.563   9.641
  779POPC   GL113669   6.784  24.277   9.254
  779POPC   GL213670   6.469  24.372   9.094
  779POPC   C1A13671   6.741  24.086   8.805
  779POPC   D2A13672   6.482  24.009   8.436
  779POPC   C3A13673   6.562  24.277   8.086
  779POPC   C4A13674   6.641  24.255   7.645
  779POPC   C1B13675   6.484  24.508   8.654
  779POPC   C2B13676   6.321  24.710   8.277
  779POPC   C3B13677   6.452  24.726   7.854
  779POPC   C4B13678   6.347  24.615   7.430
  780POPC   NC313679  31.799  18.338   9.476
  780POPC   PO413680  32.392  18.495   9.763
  780POPC   GL113681  32.349  18.445   9.273
  780POPC   GL213682  32.123  18.195   9.098
  780POPC   C1A13683  32.516  18.369   8.827
  780POPC   D2A13684  32.532  18.024   8.506
  780POPC   C3A13685  32.265  18.168   8.164
  780POPC   C4A13686  32.383  18.480   7.854
  780POPC   C1B13687  32.007  18.404   8.717
  780POPC   C2B13688  31.943  18.662   8.366
  780POPC   C3B13689  31.966  18.768   7.957
  780POPC   C4B13690  31.849  18.519   7.616
  781POPC   NC313691  32.642  18.035   9.472
  781POPC   PO413692  32.902  18.692   9.398
  781POPC   GL113693  33.024  18.399   9.047
  781POPC   GL213694  32.854  18.052   9.004
  781POPC   C1A13695  32.976  18.447   8.583
  781POPC   D2A13696  32.823  18.284   8.187
  781POPC   C3A13697  32.909  18.413   7.779
  781POPC   C4A13698  32.730  18.755   7.579
  781POPC   C1B13699  33.158  17.979   8.708
  781POPC   C2B13700  33.272  18.048   8.289
  781POPC   C3B13701  33.120  17.946   7.892
  781POPC   C4B13702  32.984  17.961   7.434
  782POPC   NC313703  33.461   9.141   9.608
  782POPC   PO413704  33.738   8.554   9.483
  782POPC   GL113705  33.849   8.854   9.185
  782POPC   GL213706  34.173   9.090   9.228
  782POPC   C1A13707  33.667   8.767   8.795
  782POPC   D2A13708  33.586   8.972   8.429
  782POPC   C3A13709  33.753   8.757   8.075
  782POPC   C4A13710  33.773   8.977   7.704
  782POPC   C1B13711  34.189   8.934   8.798
  782POPC   C2B13712  34.151   8.795   8.385
  782POPC   C3B13713  34.227   9.004   7.967
  782POPC   C4B13714  34.227   9.075   7.497
  783POPC   NC313715  14.313  39.378   9.468
  783POPC   PO413716  14.960  39.382   9.298
  783POPC   GL113717  14.568  39.179   9.083
  783POPC   GL213718  14.169  39.044   9.123
  783POPC   C1A13719  14.414  39.276   8.669
  783POPC   D2A13720  14.521  39.064   8.280
  783POPC   C3A13721  14.464  39.279   7.890
  783POPC   C4A13722  14.656  39.674   7.860
  783POPC   C1B13723  13.919  39.211   8.789
  783POPC   C2B13724  13.934  39.377   8.363
  783POPC   C3B13725  13.927  39.313   7.913
  783POPC   C4B13726  14.125  39.455   7.505
  784POPC   NC313727  13.455  32.214   9.997
  784POPC   PO413728  14.020  32.099   9.528
  784POPC   GL113729  13.878  32.142   9.136
  784POPC   GL213730  13.537  32.084   9.044
  784POPC   C1A13731  13.887  32.318   8.731
  784POPC   D2A13732  13.840  32.487   8.304
  784POPC   C3A13733  13.811  32.343   7.839
  784POPC   C4A13734  13.917  32.418   7.380
  784POPC   C1B13735  13.396  32.231   8.633
  784POPC   C2B13736  13.438  32.096   8.200
  784POPC   C3B13737  13.270  32.172   7.802
  784POPC   C4B13738  13.458  32.202   7.409
  785POPC   NC313739  22.793  29.417   9.501
  785POPC   PO413740  22.111  29.243   9.467
  785POPC   GL113741  22.251  29.128   9.097
  785POPC   GL213742  22.536  29.350   9.074
  785POPC   C1A13743  22.071  28.946   8.721
  785POPC   D2A13744  22.229  28.881   8.312
  785POPC   C3A13745  21.982  29.013   7.974
  785POPC   C4A13746  21.777  29.119   7.604
  785POPC   C1B13747  22.358  29.419   8.663
  785POPC   C2B13748  22.307  29.387   8.241
  785POPC   C3B13749  22.243  29.420   7.826
  785POPC   C4B13750  22.315  29.122   7.532
  786POPC   NC313751  29.724  42.548   9.395
  786POPC   PO413752  29.868  41.925   9.425
  786POPC   GL113753  30.029  42.178   9.080
  786POPC   GL213754  29.768  42.361   8.936
  786POPC   C1A13755  30.172  42.397   8.666
  786POPC   D2A13756  30.044  42.243   8.277
  786POPC   C3A13757  29.926  42.416   7.894
  786POPC   C4A13758  30.221  42.532   7.588
  786POPC   C1B13759  29.613  42.241   8.570
  786POPC   C2B13760  29.653  41.902   8.254
  786POPC   C3B13761  29.565  41.969   7.833
  786POPC   C4B13762  29.730  42.133   7.494
  787POPC   NC313763  41.604  12.754   9.476
  787POPC   PO413764  41.186  13.317   9.380
  787POPC   GL113765  41.564  13.160   9.165
  787POPC   GL213766  41.560  12.794   8.986
  787POPC   C1A13767  41.814  13.191   8.794
  787POPC   D2A13768  41.687  12.898   8.472
  787POPC   C3A13769  41.766  13.083   8.067
  787POPC   C4A13770  41.787  12.790   7.756
  787POPC   C1B13771  41.255  13.030   8.770
  787POPC   C2B13772  41.141  12.967   8.387
  787POPC   C3B13773  41.337  12.772   8.054
  787POPC   C4B13774  41.233  12.928   7.657
  788POPC   NC313775  38.655   7.032   9.469
  788POPC   PO413776  38.243   7.577   9.465
  788POPC   GL113777  38.451   7.502   9.119
  788POPC   GL213778  38.347   7.176   9.079
  788POPC   C1A13779  38.646   7.488   8.744
  788POPC   D2A13780  38.652   7.151   8.406
  788POPC   C3A13781  38.653   7.226   7.994
  788POPC   C4A13782  38.682   7.561   7.738
  788POPC   C1B13783  38.212   7.251   8.651
  788POPC   C2B13784  38.313   7.578   8.333
  788POPC   C3B13785  38.189   7.610   7.901
  788POPC   C4B13786  38.257   7.257   7.659
  789POPC   NC313787  11.164  24.389   9.645
  789POPC   PO413788  11.718  24.772   9.368
  789POPC   GL113789  11.268  24.707   9.190
  789POPC   GL213790  11.113  24.346   9.130
  789POPC   C1A13791  11.266  24.678   8.751
  789POPC   D2A13792  11.120  24.647   8.349
  789POPC   C3A13793  11.298  24.635   7.977
  789POPC   C4A13794  11.601  24.475   7.746
  789POPC   C1B13795  10.904  24.315   8.697
  789POPC   C2B13796  10.815  24.262   8.216
  789POPC   C3B13797  10.832  24.490   7.804
  789POPC   C4B13798  11.075  24.483   7.389
  790POPC   NC313799   2.190  16.962   9.550
  790POPC   PO413800   2.869  16.680   9.500
  790POPC   GL113801   2.885  16.480   9.093
  790POPC   GL213802   2.626  16.743   9.045
  790POPC   C1A13803   2.815  16.565   8.622
  790POPC   D2A13804   2.779  16.864   8.314
  790POPC   C3A13805   3.031  16.847   7.948
  790POPC   C4A13806   2.875  16.624   7.642
  790POPC   C1B13807   2.362  16.854   8.689
  790POPC   C2B13808   2.244  16.807   8.238
  790POPC   C3B13809   2.515  16.919   7.872
  790POPC   C4B13810   2.519  16.899   7.399
  791POPC   NC313811  15.477  42.208   9.596
  791POPC   PO413812  15.064  42.495   9.801
  791POPC   GL113813  15.063  42.442   9.309
  791POPC   GL213814  15.366  42.478   9.109
  791POPC   C1A13815  14.939  42.232   8.859
  791POPC   D2A13816  14.909  42.308   8.367
  791POPC   C3A13817  15.102  42.171   7.958
  791POPC   C4A13818  15.322  42.208   7.554
  791POPC   C1B13819  15.164  42.665   8.725
  791POPC   C2B13820  14.984  42.810   8.322
  791POPC   C3B13821  15.173  42.696   7.924
  791POPC   C4B13822  15.015  42.707   7.473
  792POPC   NC313823  36.384  12.958   9.788
  792POPC   PO413824  35.813  12.658   9.553
  792POPC   GL113825  35.787  12.820   9.124
  792POPC   GL213826  36.025  12.563   9.100
  792POPC   C1A13827  35.848  12.694   8.660
  792POPC   D2A13828  35.754  12.648   8.231
  792POPC   C3A13829  36.026  12.883   7.979
  792POPC   C4A13830  36.049  12.983   7.536
  792POPC   C1B13831  36.269  12.909   8.981
  792POPC   C2B13832  36.330  12.890   8.559
  792POPC   C3B13833  36.479  12.875   8.171
  792POPC   C4B13834  36.510  12.817   7.740
  793POPC   NC313835  33.822  31.090   9.796
  793POPC   PO413836  34.073  31.676   9.522
  793POPC   GL113837  33.828  31.475   9.235
  793POPC   GL213838  33.995  31.208   9.024
  793POPC   C1A13839  33.745  31.599   8.819
  793POPC   D2A13840  33.633  31.349   8.471
  793POPC   C3A13841  33.639  31.398   8.019
  793POPC   C4A13842  33.618  31.580   7.581
  793POPC   C1B13843  34.226  31.482   8.729
  793POPC   C2B13844  34.057  31.654   8.317
  793POPC   C3B13845  34.090  31.538   7.864
  793POPC   C4B13846  34.118  31.333   7.436
  794POPC   NC313847  23.341  12.190   9.423
  794POPC   PO413848  23.878  11.839   9.423
  794POPC   GL113849  23.684  12.025   9.095
  794POPC   GL213850  23.382  11.766   9.109
  794POPC   C1A13851  23.842  12.306   8.756
  794POPC   D2A13852  24.169  12.248   8.450
  794POPC   C3A13853  23.946  12.187   8.081
  794POPC   C4A13854  23.803  12.580   7.832
  794POPC   C1B13855  23.571  11.754   8.701
  794POPC   C2B13856  23.534  12.057   8.418
  794POPC   C3B13857  23.274  12.068   8.081
  794POPC   C4B13858  23.558  12.152   7.754
  795POPC   NC313859  11.063   5.572   9.542
  795POPC   PO413860  11.715   5.624   9.333
  795POPC   GL113861  11.338   5.738   9.130
  795POPC   GL213862  11.152   6.026   9.265
  795POPC   C1A13863  11.367   5.698   8.701
  795POPC   D2A13864  11.179   5.828   8.354
  795POPC   C3A13865  11.461   5.799   8.037
  795POPC   C4A13866  11.373   5.638   7.657
  795POPC   C1B13867  11.180   6.174   8.832
  795POPC   C2B13868  11.091   6.327   8.403
  795POPC   C3B13869  11.141   6.190   7.965
  795POPC   C4B13870  11.491   6.196   7.676
  796POPC   NC313871   6.203  20.496   9.725
  796POPC   PO413872   5.918  19.960   9.592
  796POPC   GL113873   5.868  20.136   9.199
  796POPC   GL213874   6.024  19.844   9.069
  796POPC   C1A13875   5.702  20.069   8.760
  796POPC   D2A13876   5.545  19.782   8.414
  796POPC   C3A13877   5.639  19.913   7.973
  796POPC   C4A13878   5.913  19.923   7.614
  796POPC   C1B13879   5.984  19.638   8.658
  796POPC   C2B13880   5.999  19.614   8.196
  796POPC   C3B13881   6.068  19.477   7.761
  796POPC   C4B13882   6.015  19.514   7.285
  797POPC   NC313883  28.618  19.890   9.451
  797POPC   PO413884  27.973  20.140   9.365
  797POPC   GL113885  28.225  20.043   9.044
  797POPC   GL213886  28.310  19.746   9.014
  797POPC   C1A13887  28.240  20.066   8.612
  797POPC   D2A13888  28.360  19.766   8.334
  797POPC   C3A13889  28.443  19.952   7.980
  797POPC   C4A13890  28.109  19.977   7.713
  797POPC   C1B13891  28.664  19.805   8.754
  797POPC   C2B13892  28.841  19.646   8.370
  797POPC   C3B13893  28.712  19.496   7.982
  797POPC   C4B13894  28.387  19.543   7.678
  798POPC   NC313895  11.209  30.303   9.740
  798POPC   PO413896  11.006  29.697   9.479
  798POPC   GL113897  11.319  29.873   9.225
  798POPC   GL213898  11.171  30.169   9.088
  798POPC   C1A13899  11.481  29.877   8.800
  798POPC   D2A13900  11.370  29.727   8.424
  798POPC   C3A13901  11.566  29.881   8.084
  798POPC   C4A13902  11.444  29.887   7.661
  798POPC   C1B13903  11.008  30.007   8.687
  798POPC   C2B13904  10.790  30.022   8.338
  798POPC   C3B13905  11.032  29.875   8.039
  798POPC   C4B13906  10.938  30.003   7.676
  799POPC   NC313907  41.987  19.994   9.432
  799POPC   PO413908  42.496  19.498   9.395
  799POPC   GL113909  42.320  19.760   9.066
  799POPC   GL213910  42.530  20.038   9.004
  799POPC   C1A13911  42.050  19.667   8.689
  799POPC   D2A13912  41.997  19.495   8.262
  799POPC   C3A13913  42.305  19.709   7.980
  799POPC   C4A13914  42.141  20.066   7.736
  799POPC   C1B13915  42.276  20.184   8.682
  799POPC   C2B13916  42.307  20.183   8.239
  799POPC   C3B13917  42.635  20.131   7.934
  799POPC   C4B13918  42.595  19.918   7.536
  800POPC   NC313919  34.509   7.038   9.594
  800POPC   PO413920  35.069   7.264   9.321
  800POPC   GL113921  34.656   7.240   9.098
  800POPC   GL213922  34.339   7.090   9.097
  800POPC   C1A13923  34.530   7.504   8.762
  800POPC   D2A13924  34.742   7.483   8.373
  800POPC   C3A13925  34.590   7.540   7.956
  800POPC   C4A13926  34.741   7.805   7.647
  800POPC   C1B13927  34.371   7.030   8.638
  800POPC   C2B13928  34.285   7.234   8.236
  800POPC   C3B13929  34.256   7.177   7.785
  800POPC   C4B13930  34.298   7.055   7.299
  801POPC   NC313931   8.016  33.955   9.318
  801POPC   PO413932   8.469  34.376   9.586
  801POPC   GL113933   8.176  34.449   9.217
  801POPC   GL213934   8.078  34.237   8.919
  801POPC   C1A13935   7.983  34.772   8.936
  801POPC   D2A13936   7.982  34.835   8.504
  801POPC   C3A13937   7.971  34.493   8.231
  801POPC   C4A13938   7.965  34.628   7.813
  801POPC   C1B13939   8.360  34.510   8.720
  801POPC   C2B13940   8.560  34.688   8.402
  801POPC   C3B13941   8.451  34.635   8.001
  801POPC   C4B13942   8.428  34.584   7.555
  802POPC   NC313943  36.555  24.909   9.410
  802POPC   PO413944  35.900  24.801   9.277
  802POPC   GL113945  36.242  24.965   9.011
  802POPC   GL213946  36.334  25.293   9.092
  802POPC   C1A13947  36.363  25.087   8.594
  802POPC   D2A13948  36.178  24.918   8.259
  802POPC   C3A13949  36.089  25.122   7.865
  802POPC   C4A13950  35.901  25.001   7.478
  802POPC   C1B13951  35.946  25.308   8.778
  802POPC   C2B13952  35.867  25.335   8.316
  802POPC   C3B13953  35.896  25.607   7.944
  802POPC   C4B13954  36.121  25.935   7.680
  803POPC   NC313955  35.714  33.852   9.411
  803POPC   PO413956  35.021  33.912   9.528
  803POPC   GL113957  35.246  33.713   9.220
  803POPC   GL213958  35.339  34.067   9.143
  803POPC   C1A13959  35.329  33.525   8.824
  803POPC   D2A13960  35.177  33.750   8.468
  803POPC   C3A13961  35.238  33.594   8.071
  803POPC   C4A13962  35.563  33.771   7.860
  803POPC   C1B13963  35.562  34.013   8.766
  803POPC   C2B13964  35.798  34.260   8.441
  803POPC   C3B13965  35.675  34.253   7.992
  803POPC   C4B13966  35.513  34.144   7.518
  804POPC   NC313967  26.191  12.170   9.838
  804POPC   PO413968  26.408  11.835   9.321
  804POPC   GL113969  26.051  12.033   9.218
  804POPC   GL213970  26.197  12.335   9.350
  804POPC   C1A13971  25.877  12.082   8.788
  804POPC   D2A13972  25.914  12.200   8.335
  804POPC   C3A13973  26.061  11.944   7.969
  804POPC   C4A13974  25.848  11.957   7.564
  804POPC   C1B13975  26.273  12.408   8.911
  804POPC   C2B13976  26.419  12.298   8.484
  804POPC   C3B13977  26.319  12.418   8.060
  804POPC   C4B13978  26.158  12.351   7.660
  805POPC   NC313979  27.813   7.353   9.457
  805POPC   PO413980  27.375   7.795   9.568
  805POPC   GL113981  27.521   7.603   9.147
  805POPC   GL213982  27.421   7.233   9.153
  805POPC   C1A13983  27.718   7.478   8.759
  805POPC   D2A13984  27.706   7.102   8.517
  805POPC   C3A13985  27.908   7.060   8.132
  805POPC   C4A13986  27.727   7.088   7.753
  805POPC   C1B13987  27.186   7.310   8.800
  805POPC   C2B13988  27.135   7.587   8.491
  805POPC   C3B13989  27.493   7.572   8.255
  805POPC   C4B13990  27.409   7.475   7.847
  806POPC   NC313991  44.399  10.327   9.445
  806POPC   PO413992  44.975  10.749   9.520
  806POPC   GL113993  44.819  10.446   9.215
  806POPC   GL213994  44.640  10.701   9.112
  806POPC   C1A13995  44.582  10.259   8.817
  806POPC   D2A13996  44.487  10.112   8.390
  806POPC   C3A13997  44.447  10.373   8.013
  806POPC   C4A13998  44.322  10.434   7.579
  806POPC   C1B13999  44.906  10.649   8.750
  806POPC   C2B14000  44.694  10.625   8.374
  806POPC   C3B14001  44.836  10.720   7.957
  806POPC   C4B14002  44.833  10.539   7.574
  807POPC   NC314003  13.820   9.501   9.568
  807POPC   PO414004  13.423   8.922   9.686
  807POPC   GL114005  13.652   8.987   9.253
  807POPC   GL214006  13.975   9.090   9.243
  807POPC   C1A14007  13.628   8.778   8.842
  807POPC   D2A14008  13.821   8.732   8.447
  807POPC   C3A14009  13.609   8.813   8.075
  807POPC   C4A14010  13.486   8.924   7.690
  807POPC   C1B14011  14.110   9.012   8.815
  807POPC   C2B14012  14.094   9.164   8.376
  807POPC   C3B14013  14.069   9.009   7.946
  807POPC   C4B14014  13.911   9.178   7.524
  808POPC   NC314015  30.927  10.027   9.432
  808POPC   PO414016  30.494   9.559   9.437
  808POPC   GL114017  30.769   9.638   9.112
  808POPC   GL214018  30.536   9.940   9.044
  808POPC   C1A14019  30.947   9.841   8.751
  808POPC   D2A14020  30.659   9.976   8.402
  808POPC   C3A14021  30.807   9.863   7.984
  808POPC   C4A14022  30.845   9.466   7.782
  808POPC   C1B14023  30.457   9.615   8.691
  808POPC   C2B14024  30.444   9.554   8.224
  808POPC   C3B14025  30.317   9.879   7.925
  808POPC   C4B14026  30.265   9.812   7.513
  809POPC   NC314027  40.503  16.630   9.358
  809POPC   PO414028  41.195  16.392   9.546
  809POPC   GL114029  41.261  16.692   9.178
  809POPC   GL214030  40.938  16.901   9.093
  809POPC   C1A14031  41.308  16.869   8.755
  809POPC   D2A14032  41.072  16.742   8.381
  809POPC   C3A14033  41.192  16.667   7.963
  809POPC   C4A14034  40.927  16.904   7.723
  809POPC   C1B14035  40.857  16.525   8.805
  809POPC   C2B14036  40.697  16.383   8.386
  809POPC   C3B14037  40.674  16.551   7.976
  809POPC   C4B14038  40.507  16.639   7.544
  810POPC   NC314039  32.414  42.815   9.459
  810POPC   PO414040  32.416  42.059   9.455
  810POPC   GL114041  32.351  42.214   9.064
  810POPC   GL214042  32.180  42.546   9.107
  810POPC   C1A14043  32.207  42.172   8.660
  810POPC   D2A14044  32.018  42.286   8.306
  810POPC   C3A14045  32.291  42.242   7.995
  810POPC   C4A14046  32.386  41.884   7.840
  810POPC   C1B14047  32.134  42.695   8.703
  810POPC   C2B14048  32.393  42.615   8.356
  810POPC   C3B14049  32.581  42.672   7.969
  810POPC   C4B14050  32.508  42.502   7.571
  811POPC   NC314051  14.833  16.606   9.559
  811POPC   PO414052  15.361  17.135   9.604
  811POPC   GL114053  15.065  16.941   9.252
  811POPC   GL214054  14.814  17.146   9.102
  811POPC   C1A14055  15.136  16.736   8.825
  811POPC   D2A14056  15.396  16.713   8.436
  811POPC   C3A14057  15.228  16.596   8.030
  811POPC   C4A14058  15.364  16.764   7.644
  811POPC   C1B14059  14.847  17.119   8.676
  811POPC   C2B14060  14.935  16.940   8.293
  811POPC   C3B14061  14.906  16.964   7.837
  811POPC   C4B14062  14.928  17.000   7.373
  812POPC   NC314063  33.211  42.760   9.458
  812POPC   PO414064  33.261  42.102   9.606
  812POPC   GL114065  33.036  42.205   9.218
  812POPC   GL214066  32.760  42.455   9.236
  812POPC   C1A14067  33.180  42.220   8.799
  812POPC   D2A14068  33.190  41.985   8.416
  812POPC   C3A14069  33.289  42.198   8.032
  812POPC   C4A14070  33.238  41.990   7.640
  812POPC   C1B14071  32.683  42.548   8.774
  812POPC   C2B14072  32.846  42.378   8.320
  812POPC   C3B14073  32.802  42.202   7.859
  812POPC   C4B14074  32.823  42.169   7.347
  813POPC   NC314075  22.036   3.257   9.483
  813POPC   PO414076  22.581   3.809   9.442
  813POPC   GL114077  22.356   3.498   9.158
  813POPC   GL214078  21.975   3.515   9.051
  813POPC   C1A14079  22.415   3.346   8.743
  813POPC   D2A14080  22.499   3.617   8.393
  813POPC   C3A14081  22.497   3.455   8.002
  813POPC   C4A14082  22.183   3.408   7.693
  813POPC   C1B14083  22.052   3.688   8.648
  813POPC   C2B14084  21.989   3.467   8.240
  813POPC   C3B14085  21.712   3.504   7.856
  813POPC   C4B14086  21.760   3.532   7.380
  814POPC   NC314087  29.548   0.649   9.377
  814POPC   PO414088  30.158   0.758   9.606
  814POPC   GL114089  30.010   0.683   9.166
  814POPC   GL214090  29.869   0.342   9.114
  814POPC   C1A14091  29.987   0.604   8.715
  814POPC   D2A14092  30.251   0.572   8.375
  814POPC   C3A14093  30.050   0.642   7.999
  814POPC   C4A14094  30.213   0.837   7.682
  814POPC   C1B14095  29.763   0.149   8.712
  814POPC   C2B14096  29.846   0.161   8.294
  814POPC   C3B14097  29.993   0.141   7.880
  814POPC   C4B14098  29.930   0.417   7.505
  815POPC   NC314099  23.037  24.736   9.543
  815POPC   PO414100  22.964  24.071   9.543
  815POPC   GL114101  22.823  24.276   9.153
  815POPC   GL214102  22.768  24.630   9.140
  815POPC   C1A14103  22.931  24.337   8.701
  815POPC   D2A14104  22.738  24.157   8.341
  815POPC   C3A14105  22.834  24.390   7.986
  815POPC   C4A14106  23.234  24.423   7.801
  815POPC   C1B14107  22.839  24.855   8.745
  815POPC   C2B14108  23.014  24.739   8.324
  815POPC   C3B14109  22.945  24.891   7.884
  815POPC   C4B14110  22.691  24.782   7.529
  816POPC   NC314111  10.856  14.523   9.498
  816POPC   PO414112  10.298  14.368   9.688
  816POPC   GL114113  10.361  14.290   9.216
  816POPC   GL214114  10.687  14.152   9.123
  816POPC   C1A14115  10.473  14.432   8.778
  816POPC   D2A14116  10.715  14.256   8.432
  816POPC   C3A14117  10.562  14.410   8.017
  816POPC   C4A14118  10.306  14.762   7.817
  816POPC   C1B14119  10.969  13.956   8.806
  816POPC   C2B14120  11.107  13.880   8.386
  816POPC   C3B14121  10.838  13.934   8.050
  816POPC   C4B14122  10.705  14.033   7.664
  817POPC   NC314123  42.824   4.140   9.480
  817POPC   PO414124  43.263   4.644   9.491
  817POPC   GL114125  43.181   4.368   9.197
  817POPC   GL214126  43.405   4.120   9.264
  817POPC   C1A14127  42.906   4.341   8.816
  817POPC   D2A14128  42.757   4.260   8.393
  817POPC   C3A14129  42.977   4.463   8.028
  817POPC   C4A14130  43.209   4.389   7.618
  817POPC   C1B14131  43.422   4.195   8.795
  817POPC   C2B14132  43.261   4.182   8.390
  817POPC   C3B14133  43.277   4.027   7.969
  817POPC   C4B14134  43.682   4.034   7.809
  818POPC   NC314135  15.645  24.043   9.360
  818POPC   PO414136  15.068  24.626   9.378
  818POPC   GL114137  15.362  24.660   9.072
  818POPC   GL214138  15.367  24.311   9.053
  818POPC   C1A14139  15.278  24.564   8.635
  818POPC   D2A14140  15.129  24.765   8.304
  818POPC   C3A14141  15.264  24.590   7.935
  818POPC   C4A14142  14.991  24.688   7.607
  818POPC   C1B14143  15.247  24.062   8.698
  818POPC   C2B14144  15.324  24.166   8.274
  818POPC   C3B14145  15.165  24.060   7.917
  818POPC   C4B14146  15.237  24.251   7.545
  819POPC   NC314147  12.430  14.264   9.463
  819POPC   PO414148  11.918  14.720   9.494
  819POPC   GL114149  12.026  14.486   9.184
  819POPC   GL214150  11.705  14.500   9.024
  819POPC   C1A14151  12.318  14.482   8.859
  819POPC   D2A14152  12.180  14.404   8.444
  819POPC   C3A14153  12.375  14.358   8.091
  819POPC   C4A14154  12.298  14.245   7.690
  819POPC   C1B14155  11.856  14.690   8.704
  819POPC   C2B14156  11.720  14.563   8.314
  819POPC   C3B14157  11.865  14.258   8.036
  819POPC   C4B14158  11.700  14.259   7.649
  820POPC   NC314159  35.874  36.430   9.353
  820POPC   PO414160  36.085  37.037   9.553
  820POPC   GL114161  35.828  36.935   9.189
  820POPC   GL214162  36.072  36.746   9.022
  820POPC   C1A14163  35.692  36.994   8.740
  820POPC   D2A14164  35.768  37.244   8.346
  820POPC   C3A14165  36.049  37.143   8.014
  820POPC   C4A14166  35.992  36.849   7.662
  820POPC   C1B14167  36.049  36.495   8.679
  820POPC   C2B14168  36.092  36.720   8.313
  820POPC   C3B14169  36.358  36.725   7.976
  820POPC   C4B14170  36.443  36.570   7.553
  821POPC   NC314171   7.463  31.208   9.546
  821POPC   PO414172   7.488  30.535   9.607
  821POPC   GL114173   7.479  30.793   9.231
  821POPC   GL214174   7.192  30.986   9.174
  821POPC   C1A14175   7.669  30.866   8.822
  821POPC   D2A14176   7.578  30.586   8.484
  821POPC   C3A14177   7.670  30.629   8.064
  821POPC   C4A14178   7.709  30.803   7.673
  821POPC   C1B14179   7.185  30.677   8.811
  821POPC   C2B14180   7.074  30.665   8.364
  821POPC   C3B14181   7.196  30.810   7.958
  821POPC   C4B14182   7.208  30.730   7.501
  822POPC   NC314183  31.381  36.069   9.715
  822POPC   PO414184  31.547  35.432   9.510
  822POPC   GL114185  31.654  35.342   9.111
  822POPC   GL214186  31.710  35.671   9.049
  822POPC   C1A14187  31.625  35.168   8.695
  822POPC   D2A14188  31.669  35.308   8.281
  822POPC   C3A14189  31.410  35.061   8.039
  822POPC   C4A14190  31.388  35.024   7.612
  822POPC   C1B14191  31.418  35.717   8.736
  822POPC   C2B14192  31.325  35.829   8.316
  822POPC   C3B14193  31.337  35.578   7.944
  822POPC   C4B14194  31.413  35.623   7.505
  823POPC   NC314195  34.261  38.994   9.448
  823POPC   PO414196  34.702  39.479   9.562
  823POPC   GL114197  34.534  39.371   9.210
  823POPC   GL214198  34.705  39.045   9.226
  823POPC   C1A14199  34.459  39.267   8.805
  823POPC   D2A14200  34.503  39.502   8.468
  823POPC   C3A14201  34.532  39.294   8.116
  823POPC   C4A14202  34.372  39.381   7.731
  823POPC   C1B14203  34.753  38.813   8.862
  823POPC   C2B14204  34.763  38.993   8.468
  823POPC   C3B14205  34.891  38.878   8.104
  823POPC   C4B14206  34.818  39.068   7.768
  824POPC   NC314207  14.128  37.053   9.593
  824POPC   PO414208  14.551  36.608   9.803
  824POPC   GL114209  14.386  36.675   9.306
  824POPC   GL214210  14.300  36.999   9.130
  824POPC   C1A14211  14.319  36.618   8.814
  824POPC   D2A14212  14.096  36.633   8.405
  824POPC   C3A14213  14.227  36.476   8.003
  824POPC   C4A14214  14.431  36.622   7.644
  824POPC   C1B14215  14.515  37.112   8.774
  824POPC   C2B14216  14.721  37.096   8.390
  824POPC   C3B14217  14.560  36.970   8.022
  824POPC   C4B14218  14.425  37.138   7.668
  825POPC   NC314219  42.260  20.951   9.532
  825POPC   PO414220  42.388  20.225   9.457
  825POPC   GL114221  42.326  20.551   9.146
  825POPC   GL214222  42.011  20.744   9.136
  825POPC   C1A14223  42.287  20.716   8.718
  825POPC   D2A14224  42.502  20.711   8.357
  825POPC   C3A14225  42.364  20.596   7.936
  825POPC   C4A14226  42.523  20.413   7.539
  825POPC   C1B14227  41.829  20.940   8.748
  825POPC   C2B14228  41.984  20.929   8.332
  825POPC   C3B14229  42.211  21.081   8.017
  825POPC   C4B14230  42.054  21.007   7.623
  826POPC   NC314231  18.955   2.973   9.420
  826POPC   PO414232  18.883   2.330   9.293
  826POPC   GL114233  18.843   2.671   9.030
  826POPC   GL214234  18.580   2.907   9.063
  826POPC   C1A14235  19.104   2.934   8.764
  826POPC   D2A14236  19.096   2.752   8.368
  826POPC   C3A14237  19.304   2.914   8.062
  826POPC   C4A14238  19.409   2.564   7.829
  826POPC   C1B14239  18.634   2.825   8.595
  826POPC   C2B14240  18.668   2.930   8.154
  826POPC   C3B14241  18.905   2.744   7.801
  826POPC   C4B14242  19.123   2.845   7.450
  827POPC   NC314243  27.223  27.746   9.483
  827POPC   PO414244  27.790  27.394   9.550
  827POPC   GL114245  27.548  27.499   9.134
  827POPC   GL214246  27.313  27.261   8.995
  827POPC   C1A14247  27.437  27.740   8.741
  827POPC   D2A14248  27.289  27.918   8.330
  827POPC   C3A14249  27.522  27.753   7.956
  827POPC   C4A14250  27.853  27.487   7.799
  827POPC   C1B14251  27.646  27.224   8.698
  827POPC   C2B14252  27.787  27.218   8.267
  827POPC   C3B14253  27.479  27.201   7.955
  827POPC   C4B14254  27.235  27.436   7.682
  828POPC   NC314255   7.202  10.694   9.486
  828POPC   PO414256   7.826  10.545   9.335
  828POPC   GL114257   7.476  10.607   9.066
  828POPC   GL214258   7.279  10.309   9.108
  828POPC   C1A14259   7.190  10.678   8.727
  828POPC   D2A14260   7.088  10.777   8.294
  828POPC   C3A14261   7.467  10.680   8.035
  828POPC   C4A14262   7.944  10.780   8.028
  828POPC   C1B14263   7.494  10.208   8.733
  828POPC   C2B14264   7.279  10.298   8.359
  828POPC   C3B14265   7.262  10.198   7.944
  828POPC   C4B14266   7.433  10.394   7.608
  829POPC   NC314267  37.145  12.641   9.886
  829POPC   PO414268  37.123  12.101   9.513
  829POPC   GL114269  36.984  12.003   9.116
  829POPC   GL214270  36.727  12.254   9.167
  829POPC   C1A14271  36.954  12.179   8.700
  829POPC   D2A14272  36.622  12.115   8.379
  829POPC   C3A14273  36.849  11.971   8.025
  829POPC   C4A14274  37.116  12.155   7.742
  829POPC   C1B14275  36.583  12.514   8.825
  829POPC   C2B14276  36.799  12.612   8.447
  829POPC   C3B14277  36.777  12.478   8.015
  829POPC   C4B14278  36.587  12.262   7.673
  830POPC   NC314279  31.641  42.379   9.499
  830POPC   PO414280  31.087  42.400   9.145
  830POPC   GL114281  31.479  42.238   9.017
  830POPC   GL214282  31.848  42.162   9.089
  830POPC   C1A14283  31.706  42.432   8.685
  830POPC   D2A14284  31.683  42.652   8.286
  830POPC   C3A14285  31.430  42.375   8.003
  830POPC   C4A14286  31.395  42.044   7.685
  830POPC   C1B14287  31.768  41.919   8.744
  830POPC   C2B14288  31.579  41.981   8.349
  830POPC   C3B14289  31.788  41.990   7.981
  830POPC   C4B14290  31.879  42.277   7.691
  831POPC   NC314291  36.979  38.783   9.395
  831POPC   PO414292  37.151  38.171   9.388
  831POPC   GL114293  36.900  38.321   9.018
  831POPC   GL214294  36.834  38.673   8.929
  831POPC   C1A14295  36.954  38.347   8.551
  831POPC   D2A14296  36.652  38.473   8.242
  831POPC   C3A14297  36.762  38.589   7.876
  831POPC   C4A14298  37.170  38.614   7.883
  831POPC   C1B14299  37.228  38.766   8.755
  831POPC   C2B14300  37.279  39.029   8.443
  831POPC   C3B14301  37.001  39.014   8.156
  831POPC   C4B14302  37.088  39.146   7.773
  832POPC   NC314303  11.137  23.534   9.588
  832POPC   PO414304  11.578  24.019   9.581
  832POPC   GL114305  11.492  23.794   9.227
  832POPC   GL214306  11.139  23.827   9.178
  832POPC   C1A14307  11.387  23.435   8.943
  832POPC   D2A14308  11.600  23.208   8.602
  832POPC   C3A14309  11.398  23.339   8.211
  832POPC   C4A14310  11.341  23.686   7.924
  832POPC   C1B14311  11.255  23.944   8.801
  832POPC   C2B14312  11.412  23.822   8.443
  832POPC   C3B14313  11.457  24.133   8.137
  832POPC   C4B14314  11.212  24.149   7.762
  833POPC   NC314315  27.207  41.533   9.486
  833POPC   PO414316  27.780  41.818   9.609
  833POPC   GL114317  27.713  41.558   9.208
  833POPC   GL214318  27.412  41.519   9.008
  833POPC   C1A14319  27.850  41.414   8.750
  833POPC   D2A14320  27.637  41.474   8.384
  833POPC   C3A14321  27.782  41.363   7.996
  833POPC   C4A14322  27.939  41.579   7.677
  833POPC   C1B14323  27.675  41.876   8.806
  833POPC   C2B14324  27.787  42.038   8.413
  833POPC   C3B14325  27.640  41.874   8.061
  833POPC   C4B14326  27.515  41.910   7.702
  834POPC   NC314327  29.477  29.975   9.567
  834POPC   PO414328  28.799  29.899   9.608
  834POPC   GL114329  29.005  29.876   9.172
  834POPC   GL214330  29.374  29.757   9.127
  834POPC   C1A14331  29.124  29.986   8.725
  834POPC   D2A14332  29.364  30.102   8.325
  834POPC   C3A14333  29.136  30.095   7.927
  834POPC   C4A14334  28.819  30.324   7.681
  834POPC   C1B14335  29.339  29.517   8.775
  834POPC   C2B14336  29.399  29.580   8.340
  834POPC   C3B14337  29.420  29.640   7.917
  834POPC   C4B14338  29.239  29.563   7.537
  835POPC   NC314339   3.643   7.788   9.415
  835POPC   PO414340   3.795   7.197   9.443
  835POPC   GL114341   3.519   7.382   9.107
  835POPC   GL214342   3.224   7.630   9.140
  835POPC   C1A14343   3.550   7.459   8.676
  835POPC   D2A14344   3.814   7.629   8.340
  835POPC   C3A14345   3.638   7.384   8.002
  835POPC   C4A14346   3.832   7.174   7.666
  835POPC   C1B14347   3.028   7.409   8.820
  835POPC   C2B14348   3.028   7.135   8.470
  835POPC   C3B14349   3.084   7.220   8.028
  835POPC   C4B14350   3.230   7.555   7.760
  836POPC   NC314351  39.676  38.704   9.474
  836POPC   PO414352  39.014  38.384   9.556
  836POPC   GL114353  39.268  38.417   9.200
  836POPC   GL214354  39.451  38.155   9.082
  836POPC   C1A14355  39.381  38.590   8.811
  836POPC   D2A14356  39.172  38.811   8.493
  836POPC   C3A14357  39.322  38.698   8.120
  836POPC   C4A14358  39.197  38.628   7.726
  836POPC   C1B14359  39.167  38.110   8.754
  836POPC   C2B14360  39.113  38.297   8.392
  836POPC   C3B14361  39.283  38.193   8.023
  836POPC   C4B14362  39.294  38.164   7.606
  837POPC   NC314363  25.045  31.860   9.618
  837POPC   PO414364  25.200  31.217   9.561
  837POPC   GL114365  25.163  31.298   9.152
  837POPC   GL214366  25.113  31.649   9.124
  837POPC   C1A14367  25.373  31.272   8.756
  837POPC   D2A14368  25.490  31.511   8.403
  837POPC   C3A14369  25.371  31.599   7.985
  837POPC   C4A14370  25.423  31.260   7.722
  837POPC   C1B14371  25.161  31.787   8.674
  837POPC   C2B14372  24.958  31.687   8.272
  837POPC   C3B14373  24.904  31.767   7.805
  837POPC   C4B14374  24.785  31.739   7.357
  838POPC   NC314375  12.059  22.037   9.623
  838POPC   PO414376  11.793  21.631   9.168
  838POPC   GL114377  12.219  21.824   9.139
  838POPC   GL214378  12.352  22.171   9.186
  838POPC   C1A14379  12.347  21.922   8.728
  838POPC   D2A14380  12.097  22.109   8.383
  838POPC   C3A14381  12.160  21.936   7.998
  838POPC   C4A14382  12.035  22.085   7.613
  838POPC   C1B14383  12.259  22.402   8.778
  838POPC   C2B14384  12.395  22.510   8.338
  838POPC   C3B14385  12.304  22.428   7.907
  838POPC   C4B14386  12.288  22.490   7.424
  839POPC   NC314387   0.023  40.669   9.386
  839POPC   PO414388   0.668  40.843   9.471
  839POPC   GL114389   0.459  40.795   9.109
  839POPC   GL214390   0.735  40.944   8.975
  839POPC   C1A14391   0.284  41.032   8.764
  839POPC   D2A14392   0.191  40.894   8.357
  839POPC   C3A14393   0.343  41.021   7.976
  839POPC   C4A14394   0.297  40.748   7.618
  839POPC   C1B14395   0.666  40.657   8.638
  839POPC   C2B14396   0.666  40.657   8.193
  839POPC   C3B14397   0.795  40.830   7.806
  839POPC   C4B14398   0.622  41.104   7.501
  840POPC   NC314399  38.240  19.461   9.599
  840POPC   PO414400  38.298  18.717   9.628
  840POPC   GL114401  38.496  19.066   9.271
  840POPC   GL214402  38.411  19.412   9.137
  840POPC   C1A14403  38.661  19.125   8.829
  840POPC   D2A14404  38.412  18.964   8.470
  840POPC   C3A14405  38.513  18.804   8.078
  840POPC   C4A14406  38.462  19.012   7.740
  840POPC   C1B14407  38.281  19.459   8.716
  840POPC   C2B14408  38.587  19.447   8.417
  840POPC   C3B14409  38.574  19.426   8.021
  840POPC   C4B14410  38.231  19.476   7.744
  841POPC   NC314411  42.643   6.159   9.532
  841POPC   PO414412  43.370   6.109   9.511
  841POPC   GL114413  43.207   6.161   9.119
  841POPC   GL214414  42.853   6.172   9.074
  841POPC   C1A14415  43.246   6.042   8.721
  841POPC   D2A14416  43.177   5.742   8.418
  841POPC   C3A14417  43.170   5.956   8.054
  841POPC   C4A14418  43.135   5.694   7.726
  841POPC   C1B14419  42.691   6.095   8.672
  841POPC   C2B14420  42.700   6.082   8.246
  841POPC   C3B14421  42.719   6.112   7.833
  841POPC   C4B14422  43.071   6.312   7.693
  842POPC   NC314423   8.535   3.770   9.853
  842POPC   PO414424   9.184   3.836   9.539
  842POPC   GL114425   8.977   3.616   9.204
  842POPC   GL214426   8.931   3.278   9.252
  842POPC   C1A14427   8.862   3.686   8.788
  842POPC   D2A14428   8.784   3.806   8.414
  842POPC   C3A14429   9.001   3.721   8.091
  842POPC   C4A14430   8.783   3.705   7.718
  842POPC   C1B14431   9.102   3.232   8.842
  842POPC   C2B14432   9.240   3.392   8.465
  842POPC   C3B14433   9.098   3.225   8.095
  842POPC   C4B14434   9.051   3.259   7.700
  843POPC   NC314435   6.130   8.431   9.602
  843POPC   PO414436   5.804   7.928   9.345
  843POPC   GL114437   5.801   8.329   9.160
  843POPC   GL214438   5.503   8.536   9.272
  843POPC   C1A14439   5.886   8.234   8.732
  843POPC   D2A14440   5.920   7.874   8.464
  843POPC   C3A14441   6.122   7.944   8.115
  843POPC   C4A14442   5.974   8.211   7.827
  843POPC   C1B14443   5.465   8.522   8.809
  843POPC   C2B14444   5.652   8.554   8.374
  843POPC   C3B14445   5.567   8.503   7.891
  843POPC   C4B14446   5.783   8.486   7.441
  844POPC   NC314447  31.530  43.999   9.730
  844POPC   PO414448  32.138  44.118   9.484
  844POPC   GL114449  31.902  43.914   9.224
  844POPC   GL214450  32.036  43.599   9.196
  844POPC   C1A14451  31.968  43.954   8.801
  844POPC   D2A14452  32.246  43.993   8.488
  844POPC   C3A14453  31.996  44.008   8.159
  844POPC   C4A14454  32.020  43.899   7.744
  844POPC   C1B14455  32.372  43.541   8.860
  844POPC   C2B14456  32.524  43.561   8.433
  844POPC   C3B14457  32.352  43.650   8.059
  844POPC   C4B14458  32.225  43.437   7.722
  845POPC   NC314459  10.079  19.552   9.419
  845POPC   PO414460   9.873  20.170   9.507
  845POPC   GL114461   9.712  20.093   9.104
  845POPC   GL214462   9.736  19.731   9.067
  845POPC   C1A14463   9.671  20.075   8.646
  845POPC   D2A14464   9.813  19.775   8.314
  845POPC   C3A14465   9.653  19.817   7.867
  845POPC   C4A14466   9.676  20.075   7.476
  845POPC   C1B14467   9.474  19.617   8.691
  845POPC   C2B14468   9.281  19.857   8.321
  845POPC   C3B14469   9.140  19.850   7.881
  845POPC   C4B14470   9.271  19.772   7.436
  846POPC   NC314471  20.789   6.077   9.716
  846POPC   PO414472  20.240   5.654   9.585
  846POPC   GL114473  20.545   5.743   9.218
  846POPC   GL214474  20.849   6.013   9.206
  846POPC   C1A14475  20.546   5.853   8.761
  846POPC   D2A14476  20.401   6.081   8.393
  846POPC   C3A14477  20.397   5.900   7.975
  846POPC   C4A14478  20.348   6.149   7.635
  846POPC   C1B14479  20.843   6.270   8.814
  846POPC   C2B14480  20.922   6.212   8.356
  846POPC   C3B14481  20.835   6.138   7.904
  846POPC   C4B14482  20.805   6.106   7.437
  847POPC   NC314483  26.603   0.899   9.471
  847POPC   PO414484  26.973   1.485   9.708
  847POPC   GL114485  26.825   1.350   9.294
  847POPC   GL214486  27.128   1.210   9.244
  847POPC   C1A14487  26.627   1.389   8.882
  847POPC   D2A14488  26.740   1.638   8.534
  847POPC   C3A14489  26.759   1.431   8.154
  847POPC   C4A14490  26.501   1.192   7.859
  847POPC   C1B14491  27.017   1.051   8.860
  847POPC   C2B14492  26.655   0.916   8.626
  847POPC   C3B14493  26.699   0.887   8.198
  847POPC   C4B14494  27.034   1.074   7.899
  848POPC   NC314495  40.953  23.651   9.438
  848POPC   PO414496  40.271  23.923   9.471
  848POPC   GL114497  40.556  23.726   9.121
  848POPC   GL214498  40.882  23.851   8.992
  848POPC   C1A14499  40.586  23.511   8.711
  848POPC   D2A14500  40.779  23.476   8.285
  848POPC   C3A14501  40.498  23.571   7.941
  848POPC   C4A14502  40.548  23.514   7.484
  848POPC   C1B14503  41.083  23.703   8.643
  848POPC   C2B14504  41.066  23.935   8.259
  848POPC   C3B14505  40.889  23.892   7.841
  848POPC   C4B14506  40.972  23.763   7.408
  849POPC   NC314507  25.961   2.975   9.527
  849POPC   PO414508  26.143   2.381   9.240
  849POPC   GL114509  25.853   2.500   8.993
  849POPC   GL214510  25.906   2.862   9.038
  849POPC   C1A14511  25.771   2.669   8.617
  849POPC   D2A14512  25.916   2.918   8.338
  849POPC   C3A14513  25.830   2.709   8.000
  849POPC   C4A14514  25.916   2.495   7.645
  849POPC   C1B14515  25.675   3.173   8.740
  849POPC   C2B14516  25.660   3.351   8.318
  849POPC   C3B14517  25.569   3.136   7.918
  849POPC   C4B14518  25.820   3.027   7.504
  850POPC   NC314519  26.935   5.018   9.583
  850POPC   PO414520  26.212   4.913   9.531
  850POPC   GL114521  26.539   5.115   9.216
  850POPC   GL214522  26.907   5.056   9.087
  850POPC   C1A14523  26.515   5.107   8.760
  850POPC   D2A14524  26.850   5.042   8.463
  850POPC   C3A14525  26.797   4.870   8.046
  850POPC   C4A14526  27.157   4.860   7.811
  850POPC   C1B14527  26.902   5.405   8.854
  850POPC   C2B14528  26.768   5.552   8.474
  850POPC   C3B14529  26.795   5.408   8.056
  850POPC   C4B14530  26.563   5.526   7.697
  851POPC   NC314531  15.944  29.322   9.798
  851POPC   PO414532  16.358  29.518   9.317
  851POPC   GL114533  16.072  29.177   9.150
  851POPC   GL214534  15.928  28.869   9.135
  851POPC   C1A14535  15.727  29.196   8.791
  851POPC   D2A14536  15.756  29.006   8.381
  851POPC   C3A14537  15.780  29.247   8.015
  851POPC   C4A14538  15.978  29.232   7.619
  851POPC   C1B14539  16.172  28.983   8.705
  851POPC   C2B14540  16.471  29.074   8.371
  851POPC   C3B14541  16.361  29.050   7.936
  851POPC   C4B14542  16.294  28.808   7.553
  852POPC   NC314543  35.562  11.912   9.711
  852POPC   PO414544  35.435  11.266   9.625
  852POPC   GL114545  35.320  11.349   9.172
  852POPC   GL214546  35.080  11.634   9.106
  852POPC   C1A14547  35.459  11.283   8.767
  852POPC   D2A14548  35.656  11.133   8.388
  852POPC   C3A14549  35.379  11.106   8.033
  852POPC   C4A14550  35.450  11.373   7.713
  852POPC   C1B14551  34.982  11.487   8.742
  852POPC   C2B14552  35.125  11.367   8.390
  852POPC   C3B14553  34.933  11.458   8.038
  852POPC   C4B14554  35.018  11.614   7.662
  853POPC   NC314555  38.314  43.547   9.316
  853POPC   PO414556  38.886  43.746   9.707
  853POPC   GL114557  38.652  44.047   9.327
  853POPC   GL214558  38.280  44.068   9.284
  853POPC   C1A14559  38.664  44.135   8.887
  853POPC   D2A14560  38.702  43.973   8.488
  853POPC   C3A14561  38.556  44.000   8.060
  853POPC   C4A14562  38.531  43.719   7.673
  853POPC   C1B14563  38.170  44.048   8.839
  853POPC   C2B14564  38.169  43.898   8.414
  853POPC   C3B14565  38.145  43.690   8.030
  853POPC   C4B14566  38.063  43.883   7.622
  854POPC   NC314567  32.986  13.273   9.536
  854POPC   PO414568  32.808  13.919   9.567
  854POPC   GL114569  32.903  13.758   9.164
  854POPC   GL214570  32.803  13.422   9.089
  854POPC   C1A14571  32.982  13.720   8.720
  854POPC   D2A14572  33.035  13.862   8.305
  854POPC   C3A14573  33.343  13.642   8.078
  854POPC   C4A14574  33.285  13.446   7.693
  854POPC   C1B14575  32.623  13.331   8.689
  854POPC   C2B14576  32.715  13.446   8.268
  854POPC   C3B14577  32.763  13.465   7.846
  854POPC   C4B14578  32.567  13.223   7.497
  855POPC   NC314579  38.546  33.265   9.555
  855POPC   PO414580  38.876  32.693   9.482
  855POPC   GL114581  38.734  32.994   9.175
  855POPC   GL214582  38.373  33.155   9.090
  855POPC   C1A14583  38.757  33.019   8.770
  855POPC   D2A14584  38.518  32.885   8.447
  855POPC   C3A14585  38.530  33.180   8.194
  855POPC   C4A14586  38.500  33.209   7.784
  855POPC   C1B14587  38.126  32.955   8.740
  855POPC   C2B14588  38.012  33.013   8.301
  855POPC   C3B14589  38.261  32.803   7.985
  855POPC   C4B14590  38.244  32.764   7.547
  856POPC   NC314591   4.993  28.130   9.597
  856POPC   PO414592   5.398  28.593   9.465
  856POPC   GL114593   5.120  28.460   9.192
  856POPC   GL214594   5.154  28.131   9.111
  856POPC   C1A14595   5.173  28.582   8.768
  856POPC   D2A14596   5.147  28.533   8.342
  856POPC   C3A14597   4.756  28.356   8.169
  856POPC   C4A14598   4.696  28.324   7.733
  856POPC   C1B14599   5.189  28.059   8.685
  856POPC   C2B14600   4.917  27.906   8.375
  856POPC   C3B14601   4.979  27.910   7.949
  856POPC   C4B14602   5.353  27.926   7.754
  857POPC   NC314603   2.425  30.835   9.436
  857POPC   PO414604   1.830  31.069   9.193
  857POPC   GL114605   2.154  30.816   9.001
  857POPC   GL214606   2.420  30.541   9.006
  857POPC   C1A14607   2.058  30.691   8.610
  857POPC   D2A14608   1.802  30.768   8.262
  857POPC   C3A14609   2.138  30.831   7.976
  857POPC   C4A14610   2.150  30.989   7.571
  857POPC   C1B14611   2.347  30.271   8.649
  857POPC   C2B14612   2.522  30.303   8.243
  857POPC   C3B14613   2.217  30.310   7.936
  857POPC   C4B14614   1.803  30.494   7.812
  858POPC   NC314615  39.027  28.944   9.671
  858POPC   PO414616  39.554  29.300   9.495
  858POPC   GL114617  39.333  29.221   9.140
  858POPC   GL214618  39.015  29.152   9.219
  858POPC   C1A14619  39.342  29.271   8.727
  858POPC   D2A14620  39.603  29.050   8.478
  858POPC   C3A14621  39.323  29.017   8.162
  858POPC   C4A14622  39.170  29.186   7.790
  858POPC   C1B14623  38.961  28.913   8.860
  858POPC   C2B14624  38.863  28.942   8.408
  858POPC   C3B14625  38.896  28.792   7.982
  858POPC   C4B14626  38.917  28.840   7.514
  859POPC   NC314627  30.272  23.948   9.470
  859POPC   PO414628  29.820  23.479   9.636
  859POPC   GL114629  29.966  23.615   9.220
  859POPC   GL214630  29.694  23.492   9.019
  859POPC   C1A14631  29.971  23.899   8.842
  859POPC   D2A14632  29.693  23.837   8.484
  859POPC   C3A14633  29.779  23.835   8.027
  859POPC   C4A14634  30.011  23.948   7.669
  859POPC   C1B14635  30.055  23.388   8.752
  859POPC   C2B14636  30.061  23.518   8.339
  859POPC   C3B14637  30.075  23.409   7.933
  859POPC   C4B14638  30.328  23.363   7.598
  860POPC   NC314639  43.515  13.061   9.755
  860POPC   PO414640  43.974  12.591   9.633
  860POPC   GL114641  43.954  12.809   9.221
  860POPC   GL214642  43.784  13.121   9.222
  860POPC   C1A14643  43.976  12.864   8.771
  860POPC   D2A14644  43.844  12.889   8.347
  860POPC   C3A14645  44.161  12.908   8.023
  860POPC   C4A14646  43.989  12.890   7.626
  860POPC   C1B14647  43.580  13.223   8.815
  860POPC   C2B14648  43.514  13.300   8.366
  860POPC   C3B14649  43.596  13.085   7.927
  860POPC   C4B14650  43.683  13.273   7.482
  861POPC   NC314651  20.355   5.184   9.602
  861POPC   PO414652  20.908   4.934   9.395
  861POPC   GL114653  20.584   5.112   9.143
  861POPC   GL214654  20.333   4.870   9.159
  861POPC   C1A14655  20.569   5.059   8.704
  861POPC   D2A14656  20.805   4.878   8.378
  861POPC   C3A14657  20.792   5.091   7.992
  861POPC   C4A14658  20.862   5.533   7.832
  861POPC   C1B14659  20.109   4.853   8.794
  861POPC   C2B14660  20.288   4.736   8.400
  861POPC   C3B14661  20.320   4.859   7.987
  861POPC   C4B14662  20.406   4.644   7.586
  862POPC   NC314663  38.126   8.828   9.391
  862POPC   PO414664  38.767   9.109   9.569
  862POPC   GL114665  38.555   9.056   9.166
  862POPC   GL214666  38.285   9.277   9.184
  862POPC   C1A14667  38.458   9.043   8.702
  862POPC   D2A14668  38.273   8.836   8.312
  862POPC   C3A14669  38.643   8.786   8.030
  862POPC   C4A14670  38.690   8.906   7.596
  862POPC   C1B14671  38.179   9.461   8.807
  862POPC   C2B14672  38.100   9.342   8.380
  862POPC   C3B14673  38.324   9.264   7.977
  862POPC   C4B14674  38.177   9.267   7.570
  863POPC   NC314675  24.740  35.159   9.514
  863POPC   PO414676  24.106  35.087   9.436
  863POPC   GL114677  24.423  35.207   9.110
  863POPC   GL214678  24.615  35.528   9.132
  863POPC   C1A14679  24.419  35.344   8.663
  863POPC   D2A14680  24.339  35.577   8.271
  863POPC   C3A14681  24.210  35.308   7.918
  863POPC   C4A14682  24.495  34.987   7.740
  863POPC   C1B14683  24.859  35.574   8.749
  863POPC   C2B14684  24.847  35.405   8.324
  863POPC   C3B14685  24.701  35.436   7.912
  863POPC   C4B14686  24.881  35.604   7.560
  864POPC   NC314687  27.927  35.852   9.602
  864POPC   PO414688  27.491  36.367   9.363
  864POPC   GL114689  27.615  36.014   9.141
  864POPC   GL214690  27.689  36.224   8.891
  864POPC   C1A14691  27.407  35.817   8.774
  864POPC   D2A14692  27.303  36.003   8.387
  864POPC   C3A14693  27.521  36.078   8.011
  864POPC   C4A14694  27.352  36.033   7.627
  864POPC   C1B14695  28.053  36.451   8.776
  864POPC   C2B14696  28.102  36.651   8.367
  864POPC   C3B14697  27.767  36.568   8.076
  864POPC   C4B14698  27.830  36.391   7.664
  865POPC   NC314699  42.670  36.388   9.419
  865POPC   PO414700  43.295  36.687   9.596
  865POPC   GL114701  43.341  36.564   9.148
  865POPC   GL214702  43.064  36.330   9.057
  865POPC   C1A14703  43.251  36.684   8.697
  865POPC   D2A14704  43.271  36.719   8.236
  865POPC   C3A14705  43.275  37.040   7.915
  865POPC   C4A14706  43.433  37.427   7.732
  865POPC   C1B14707  42.786  36.452   8.696
  865POPC   C2B14708  42.885  36.381   8.283
  865POPC   C3B14709  43.011  36.508   7.872
  865POPC   C4B14710  43.406  36.595   7.693
  866POPC   NC314711  42.103  17.170   9.415
  866POPC   PO414712  42.184  16.493   9.443
  866POPC   GL114713  42.298  16.708   9.077
  866POPC   GL214714  42.532  16.991   9.145
  866POPC   C1A14715  42.213  16.558   8.649
  866POPC   D2A14716  42.061  16.766   8.260
  866POPC   C3A14717  42.160  16.624   7.873
  866POPC   C4A14718  42.390  16.800   7.540
  866POPC   C1B14719  42.713  16.760   8.780
  866POPC   C2B14720  42.654  16.573   8.368
  866POPC   C3B14721  42.694  16.751   7.958
  866POPC   C4B14722  42.683  17.164   7.761
  867POPC   NC314723   5.352   4.451   9.434
  867POPC   PO414724   4.594   4.249   9.450
  867POPC   GL114725   4.917   4.310   9.159
  867POPC   GL214726   5.251   4.195   9.012
  867POPC   C1A14727   4.959   4.553   8.806
  867POPC   D2A14728   5.198   4.552   8.413
  867POPC   C3A14729   4.955   4.386   8.082
  867POPC   C4A14730   4.918   4.452   7.659
  867POPC   C1B14731   5.246   4.010   8.602
  867POPC   C2B14732   5.056   3.874   8.225
  867POPC   C3B14733   5.014   3.966   7.781
  867POPC   C4B14734   5.069   4.099   7.335
  868POPC   NC314735  19.432  40.228   9.488
  868POPC   PO414736  20.115  40.050   9.572
  868POPC   GL114737  19.859  39.888   9.264
  868POPC   GL214738  19.844  40.207   9.133
  868POPC   C1A14739  19.913  39.788   8.822
  868POPC   D2A14740  20.075  40.017   8.449
  868POPC   C3A14741  20.193  39.778   8.067
  868POPC   C4A14742  20.050  39.825   7.619
  868POPC   C1B14743  19.645  40.229   8.746
  868POPC   C2B14744  19.551  39.978   8.402
  868POPC   C3B14745  19.764  40.070   8.023
  868POPC   C4B14746  19.615  40.094   7.626
  869POPC   NC314747   1.642  16.135   9.746
  869POPC   PO414748   2.069  16.139   9.242
  869POPC   GL114749   2.156  15.825   9.014
  869POPC   GL214750   1.849  15.703   9.068
  869POPC   C1A14751   2.225  15.928   8.600
  869POPC   D2A14752   1.978  16.106   8.290
  869POPC   C3A14753   2.241  16.068   7.961
  869POPC   C4A14754   2.225  15.927   7.565
  869POPC   C1B14755   1.728  15.842   8.683
  869POPC   C2B14756   1.800  15.617   8.325
  869POPC   C3B14757   1.868  15.689   7.919
  869POPC   C4B14758   1.531  15.676   7.696
  870POPC   NC314759  20.232  28.015   9.529
  870POPC   PO414760  20.716  28.398   9.376
  870POPC   GL114761  20.496  28.467   9.052
  870POPC   GL214762  20.206  28.334   9.132
  870POPC   C1A14763  20.685  28.571   8.693
  870POPC   D2A14764  20.486  28.610   8.329
  870POPC   C3A14765  20.623  28.293   8.095
  870POPC   C4A14766  20.872  28.442   7.769
  870POPC   C1B14767  20.150  28.057   8.827
  870POPC   C2B14768  20.238  28.057   8.408
  870POPC   C3B14769  20.148  27.964   8.029
  870POPC   C4B14770  20.369  28.154   7.682
  871POPC   NC314771  23.434  31.778   9.453
  871POPC   PO414772  23.875  32.304   9.511
  871POPC   GL114773  23.847  32.011   9.189
  871POPC   GL214774  23.537  32.106   9.062
  871POPC   C1A14775  24.003  31.908   8.787
  871POPC   D2A14776  24.159  32.168   8.454
  871POPC   C3A14777  24.107  32.216   8.033
  871POPC   C4A14778  24.033  32.384   7.640
  871POPC   C1B14779  23.799  32.379   8.773
  871POPC   C2B14780  23.760  32.482   8.307
  871POPC   C3B14781  23.585  32.413   7.871
  871POPC   C4B14782  23.558  32.435   7.403
  872POPC   NC314783  14.689   7.079   9.454
  872POPC   PO414784  14.109   7.404   9.516
  872POPC   GL114785  14.364   7.440   9.127
  872POPC   GL214786  14.701   7.342   9.030
  872POPC   C1A14787  14.295   7.309   8.699
  872POPC   D2A14788  14.026   7.173   8.370
  872POPC   C3A14789  14.154   7.382   7.987
  872POPC   C4A14790  14.380   7.708   7.782
  872POPC   C1B14791  14.747   7.075   8.673
  872POPC   C2B14792  14.544   7.060   8.275
  872POPC   C3B14793  14.667   7.279   7.919
  872POPC   C4B14794  14.815   7.406   7.546
  873POPC   NC314795   0.160  15.643   9.456
  873POPC   PO414796   0.499  16.239   9.574
  873POPC   GL114797   0.453  16.004   9.226
  873POPC   GL214798   0.229  16.203   9.056
  873POPC   C1A14799   0.657  15.988   8.842
  873POPC   D2A14800   0.476  16.042   8.454
  873POPC   C3A14801   0.685  15.938   8.090
  873POPC   C4A14802   0.544  15.663   7.771
  873POPC   C1B14803   0.025  16.250   8.631
  873POPC   C2B14804   0.049  16.138   8.187
  873POPC   C3B14805   0.288  16.117   7.817
  873POPC   C4B14806   0.308  16.237   7.355
  874POPC   NC314807   1.623   6.622   9.874
  874POPC   PO414808   1.397   6.869   9.212
  874POPC   GL114809   1.024   6.623   9.049
  874POPC   GL214810   0.734   6.868   9.079
  874POPC   C1A14811   1.252   6.492   8.667
  874POPC   D2A14812   1.576   6.606   8.330
  874POPC   C3A14813   1.320   6.788   8.008
  874POPC   C4A14814   0.915   6.588   7.827
  874POPC   C1B14815   0.942   6.941   8.691
  874POPC   C2B14816   0.928   6.769   8.336
  874POPC   C3B14817   0.827   7.038   8.031
  874POPC   C4B14818   1.086   7.075   7.671
  875POPC   NC314819  19.292  39.342   9.848
  875POPC   PO414820  18.913  39.070   9.396
  875POPC   GL114821  18.752  39.075   9.028
  875POPC   GL214822  18.503  38.839   9.078
  875POPC   C1A14823  18.960  39.233   8.683
  875POPC   D2A14824  18.929  39.379   8.291
  875POPC   C3A14825  19.251  39.586   8.096
  875POPC   C4A14826  19.330  39.336   7.754
  875POPC   C1B14827  18.609  38.844   8.611
  875POPC   C2B14828  18.621  38.979   8.188
  875POPC   C3B14829  18.888  39.088   7.823
  875POPC   C4B14830  18.735  39.178   7.384
  876POPC   NC314831  23.641  17.423   9.406
  876POPC   PO414832  24.089  17.881   9.448
  876POPC   GL114833  23.851  17.740   9.088
  876POPC   GL214834  23.947  17.346   9.006
  876POPC   C1A14835  23.572  17.576   8.759
  876POPC   D2A14836  23.768  17.419   8.408
  876POPC   C3A14837  23.668  17.577   8.007
  876POPC   C4A14838  23.598  17.668   7.598
  876POPC   C1B14839  23.575  17.073   8.795
  876POPC   C2B14840  23.390  16.954   8.387
  876POPC   C3B14841  23.480  17.111   7.960
  876POPC   C4B14842  23.866  17.232   7.702
  877POPC   NC314843  17.722   0.222   9.519
  877POPC   PO414844  17.512  44.673   9.746
  877POPC   GL114845  17.688  44.699   9.302
  877POPC   GL214846  17.830  44.966   9.092
  877POPC   C1A14847  17.722  44.531   8.852
  877POPC   D2A14848  17.772  44.694   8.417
  877POPC   C3A14849  17.752  44.636   7.948
  877POPC   C4A14850  17.469  44.711   7.584
  877POPC   C1B14851  17.824   0.160   8.677
  877POPC   C2B14852  17.811   0.161   8.217
  877POPC   C3B14853  17.674   0.167   7.782
  877POPC   C4B14854  17.439   0.178   7.393
  878POPC   NC314855   4.225  14.410   9.559
  878POPC   PO414856   4.567  13.918   9.305
  878POPC   GL114857   4.443  14.340   9.093
  878POPC   GL214858   4.500  14.709   9.248
  878POPC   C1A14859   4.337  14.471   8.656
  878POPC   D2A14860   4.328  14.498   8.176
  878POPC   C3A14861   4.214  14.174   7.820
  878POPC   C4A14862   4.189  13.983   7.353
  878POPC   C1B14863   4.715  14.782   8.871
  878POPC   C2B14864   4.634  14.883   8.460
  878POPC   C3B14865   4.760  14.795   8.034
  878POPC   C4B14866   4.489  14.657   7.722
  879POPC   NC314867  24.266  42.769   9.474
  879POPC   PO414868  23.709  43.312   9.475
  879POPC   GL114869  23.546  43.146   9.090
  879POPC   GL214870  23.898  42.988   9.097
  879POPC   C1A14871  23.614  43.001   8.663
  879POPC   D2A14872  23.607  42.877   8.229
  879POPC   C3A14873  23.409  43.172   7.996
  879POPC   C4A14874  23.462  43.556   7.807
  879POPC   C1B14875  24.132  43.039   8.687
  879POPC   C2B14876  24.119  42.969   8.223
  879POPC   C3B14877  23.909  42.991   7.802
  879POPC   C4B14878  23.919  42.915   7.313
  880POPC   NC314879  13.705  16.100   9.985
  880POPC   PO414880  14.002  15.699   9.488
  880POPC   GL114881  13.850  16.111   9.272
  880POPC   GL214882  13.474  16.192   9.297
  880POPC   C1A14883  13.939  16.184   8.814
  880POPC   D2A14884  13.830  15.935   8.451
  880POPC   C3A14885  13.819  16.059   8.002
  880POPC   C4A14886  13.634  15.713   7.750
  880POPC   C1B14887  13.504  15.945   8.927
  880POPC   C2B14888  13.304  15.861   8.538
  880POPC   C3B14889  13.325  15.935   8.115
  880POPC   C4B14890  13.333  16.127   7.711
  881POPC   NC314891  37.245  25.124   9.556
  881POPC   PO414892  36.598  25.414   9.617
  881POPC   GL114893  36.841  25.344   9.229
  881POPC   GL214894  37.157  25.521   9.199
  881POPC   C1A14895  36.818  25.228   8.772
  881POPC   D2A14896  36.870  25.356   8.331
  881POPC   C3A14897  36.598  25.168   8.023
  881POPC   C4A14898  36.398  25.514   7.818
  881POPC   C1B14899  37.301  25.381   8.755
  881POPC   C2B14900  37.211  25.005   8.422
  881POPC   C3B14901  37.110  25.080   7.937
  881POPC   C4B14902  37.273  25.166   7.509
  882POPC   NC314903  28.408  10.014   9.682
  882POPC   PO414904  27.753   9.954   9.399
  882POPC   GL114905  28.160   9.916   9.167
  882POPC   GL214906  28.501   9.801   9.226
  882POPC   C1A14907  28.364  10.077   8.790
  882POPC   D2A14908  28.375  10.267   8.365
  882POPC   C3A14909  28.448   9.924   8.080
  882POPC   C4A14910  28.250   9.703   7.744
  882POPC   C1B14911  28.482   9.577   8.824
  882POPC   C2B14912  28.579   9.538   8.393
  882POPC   C3B14913  28.610   9.411   7.956
  882POPC   C4B14914  28.615   9.387   7.502
  883POPC   NC314915  44.416  12.721   9.556
  883POPC   PO414916  44.999  13.111   9.476
  883POPC   GL114917  44.696  13.179   9.134
  883POPC   GL214918  44.456  12.885   9.084
  883POPC   C1A14919  44.640  13.125   8.689
  883POPC   D2A14920  44.546  12.842   8.383
  883POPC   C3A14921  44.688  12.920   7.963
  883POPC   C4A14922  44.465  13.034   7.568
  883POPC   C1B14923  44.345  12.524   8.837
  883POPC   C2B14924  44.203  12.472   8.423
  883POPC   C3B14925  44.419  12.463   8.038
  883POPC   C4B14926  44.320  12.497   7.626
  884POPC   NC314927  11.701   7.847   9.561
  884POPC   PO414928  12.194   8.249   9.428
  884POPC   GL114929  12.122   8.248   9.033
  884POPC   GL214930  11.803   8.337   8.987
  884POPC   C1A14931  12.362   8.193   8.686
  884POPC   D2A14932  12.490   8.365   8.336
  884POPC   C3A14933  12.187   8.281   8.076
  884POPC   C4A14934  12.085   8.044   7.749
  884POPC   C1B14935  11.883   8.276   8.531
  884POPC   C2B14936  11.672   8.262   8.128
  884POPC   C3B14937  11.670   8.329   7.673
  884POPC   C4B14938  11.644   8.479   7.250
  885POPC   NC314939  16.749   8.848   9.643
  885POPC   PO414940  16.849   9.427   9.350
  885POPC   GL114941  16.614   9.161   9.074
  885POPC   GL214942  16.623   8.818   9.138
  885POPC   C1A14943  16.646   9.015   8.643
  885POPC   D2A14944  16.613   9.219   8.269
  885POPC   C3A14945  16.985   9.136   8.034
  885POPC   C4A14946  17.028   9.211   7.624
  885POPC   C1B14947  16.341   8.638   8.792
  885POPC   C2B14948  16.442   8.592   8.362
  885POPC   C3B14949  16.654   8.758   8.018
  885POPC   C4B14950  16.524   9.137   7.766
  886POPC   NC314951  23.251  30.962   9.519
  886POPC   PO414952  23.003  31.571   9.461
  886POPC   GL114953  22.891  31.292   9.119
  886POPC   GL214954  23.212  31.242   9.082
  886POPC   C1A14955  22.772  31.382   8.675
  886POPC   D2A14956  22.924  31.490   8.246
  886POPC   C3A14957  22.687  31.473   7.847
  886POPC   C4A14958  22.731  31.353   7.395
  886POPC   C1B14959  23.293  31.396   8.649
  886POPC   C2B14960  23.445  31.347   8.230
  886POPC   C3B14961  23.277  31.484   7.855
  886POPC   C4B14962  23.023  31.870   7.867
  887POPC   NC314963   8.666  29.774   9.790
  887POPC   PO414964   9.178  29.926   9.466
  887POPC   GL114965   8.924  29.758   9.147
  887POPC   GL214966   8.593  29.818   9.216
  887POPC   C1A14967   8.917  29.895   8.708
  887POPC   D2A14968   8.703  30.002   8.305
  887POPC   C3A14969   8.928  30.088   7.948
  887POPC   C4A14970   9.290  29.882   7.748
  887POPC   C1B14971   8.483  29.643   8.838
  887POPC   C2B14972   8.720  29.471   8.487
  887POPC   C3B14973   8.703  29.531   8.071
  887POPC   C4B14974   8.829  29.649   7.687
  888POPC   NC314975   5.497  38.561   9.533
  888POPC   PO414976   6.106  38.303   9.419
  888POPC   GL114977   5.733  38.340   9.122
  888POPC   GL214978   5.617  38.681   9.039
  888POPC   C1A14979   5.751  38.183   8.709
  888POPC   D2A14980   6.075  38.270   8.382
  888POPC   C3A14981   5.879  38.384   8.013
  888POPC   C4A14982   5.646  38.090   7.828
  888POPC   C1B14983   5.973  38.635   8.734
  888POPC   C2B14984   6.071  38.801   8.314
  888POPC   C3B14985   6.014  38.866   7.869
  888POPC   C4B14986   5.969  39.058   7.423
  889POPC   NC314987  11.691  13.604   9.596
  889POPC   PO414988  12.303  13.800   9.419
  889POPC   GL114989  11.926  13.751   9.169
  889POPC   GL214990  11.766  14.056   9.267
  889POPC   C1A14991  11.864  13.560   8.760
  889POPC   D2A14992  12.148  13.305   8.544
  889POPC   C3A14993  12.174  13.409   8.138
  889POPC   C4A14994  12.252  13.420   7.696
  889POPC   C1B14995  11.980  14.101   8.814
  889POPC   C2B14996  12.256  13.890   8.471
  889POPC   C3B14997  12.342  13.859   8.011
  889POPC   C4B14998  12.000  13.843   7.683
  890POPC   NC314999   1.950   4.926   9.562
  890POPC   PO415000   1.982   5.566   9.515
  890POPC   GL115001   1.858   5.339   9.172
  890POPC   GL215002   2.095   5.063   9.108
  890POPC   C1A15003   2.007   5.412   8.762
  890POPC   D2A15004   2.044   5.196   8.388
  890POPC   C3A15005   2.010   5.360   8.011
  890POPC   C4A15006   1.866   5.117   7.683
  890POPC   C1B15007   2.332   4.986   8.753
  890POPC   C2B15008   2.333   4.774   8.342
  890POPC   C3B15009   2.391   4.869   7.912
  890POPC   C4B15010   2.246   4.882   7.437
  891POPC   NC315011  41.920  31.109   9.275
  891POPC   PO415012  42.258  30.595   9.629
  891POPC   GL115013  42.477  30.480   9.246
  891POPC   GL215014  42.166  30.599   9.104
  891POPC   C1A15015  42.654  30.622   8.819
  891POPC   D2A15016  42.504  30.765   8.421
  891POPC   C3A15017  42.595  30.537   8.043
  891POPC   C4A15018  42.256  30.463   7.736
  891POPC   C1B15019  42.002  30.687   8.682
  891POPC   C2B15020  42.049  31.015   8.347
  891POPC   C3B15021  42.119  30.966   7.910
  891POPC   C4B15022  42.018  30.891   7.483
  892POPC   NC315023  12.893   4.802   9.869
  892POPC   PO415024  12.503   4.327   9.487
  892POPC   GL115025  12.642   4.350   9.090
  892POPC   GL215026  12.950   4.514   9.134
  892POPC   C1A15027  12.710   4.407   8.674
  892POPC   D2A15028  12.720   4.209   8.330
  892POPC   C3A15029  12.586   4.364   7.975
  892POPC   C4A15030  12.704   4.086   7.652
  892POPC   C1B15031  13.205   4.373   8.774
  892POPC   C2B15032  13.207   4.427   8.326
  892POPC   C3B15033  13.102   4.236   7.932
  892POPC   C4B15034  13.168   4.347   7.471
  893POPC   NC315035   1.407  23.289   9.669
  893POPC   PO415036   1.322  23.976   9.506
  893POPC   GL115037   1.277  23.830   9.063
  893POPC   GL215038   0.961  23.669   8.986
  893POPC   C1A15039   1.354  23.663   8.628
  893POPC   D2A15040   1.324  23.436   8.237
  893POPC   C3A15041   1.359  23.732   7.883
  893POPC   C4A15042   1.451  23.843   7.430
  893POPC   C1B15043   0.957  23.301   8.674
  893POPC   C2B15044   0.887  23.179   8.254
  893POPC   C3B15045   0.886  23.440   7.905
  893POPC   C4B15046   1.017  23.536   7.487
  894POPC   NC315047  33.693  20.023   9.546
  894POPC   PO415048  34.185  19.607   9.499
  894POPC   GL115049  34.132  19.873   9.148
  894POPC   GL215050  33.821  20.051   9.076
  894POPC   C1A15051  34.001  19.789   8.709
  894POPC   D2A15052  33.973  19.971   8.287
  894POPC   C3A15053  33.812  19.727   7.918
  894POPC   C4A15054  33.827  19.918   7.508
  894POPC   C1B15055  33.732  20.323   8.753
  894POPC   C2B15056  33.591  20.333   8.338
  894POPC   C3B15057  33.659  20.221   7.920
  894POPC   C4B15058  33.539  20.313   7.502
  895POPC   NC315059   1.793  10.501   9.451
  895POPC   PO415060   2.443  10.208   9.585
  895POPC   GL115061   2.446  10.370   9.139
  895POPC   GL215062   2.222  10.665   9.174
  895POPC   C1A15063   2.195  10.307   8.752
  895POPC   D2A15064   1.768  10.350   8.572
  895POPC   C3A15065   1.763  10.189   8.144
  895POPC   C4A15066   2.102  10.282   7.853
  895POPC   C1B15067   1.938  10.779   8.833
  895POPC   C2B15068   1.857  10.906   8.416
  895POPC   C3B15069   1.950  10.714   8.045
  895POPC   C4B15070   1.727  10.562   7.664
  896POPC   NC315071  21.857  17.674   9.432
  896POPC   PO415072  22.477  17.641   9.605
  896POPC   GL115073  22.269  17.540   9.162
  896POPC   GL215074  22.018  17.248   9.160
  896POPC   C1A15075  22.186  17.503   8.697
  896POPC   D2A15076  22.138  17.710   8.250
  896POPC   C3A15077  22.513  17.705   7.929
  896POPC   C4A15078  22.665  17.523   7.508
  896POPC   C1B15079  21.716  17.351   8.815
  896POPC   C2B15080  21.818  17.288   8.404
  896POPC   C3B15081  21.935  17.301   7.996
  896POPC   C4B15082  21.684  17.427   7.646
  897POPC   NC315083  29.329  19.270   9.560
  897POPC   PO415084  28.898  18.800   9.586
  897POPC   GL115085  28.881  18.949   9.127
  897POPC   GL215086  29.056  19.237   9.135
  897POPC   C1A15087  29.056  19.050   8.669
  897POPC   D2A15088  29.111  19.244   8.237
  897POPC   C3A15089  28.961  19.067   7.826
  897POPC   C4A15090  28.896  18.884   7.403
  897POPC   C1B15091  29.492  19.235   8.920
  897POPC   C2B15092  29.555  19.228   8.484
  897POPC   C3B15093  29.565  19.323   8.038
  897POPC   C4B15094  29.410  19.284   7.642
  898POPC   NC315095  29.592  28.202   9.462
  898POPC   PO415096  29.203  28.800   9.560
  898POPC   GL115097  29.205  28.698   9.162
  898POPC   GL215098  29.172  28.364   9.112
  898POPC   C1A15099  29.082  28.694   8.737
  898POPC   D2A15100  29.335  28.635   8.370
  898POPC   C3A15101  29.045  28.665   8.080
  898POPC   C4A15102  29.122  28.739   7.690
  898POPC   C1B15103  29.326  28.246   8.714
  898POPC   C2B15104  29.310  28.101   8.259
  898POPC   C3B15105  29.363  28.295   7.866
  898POPC   C4B15106  29.090  28.237   7.533
  899POPC   NC315107  22.791   2.674   9.784
  899POPC   PO415108  22.428   3.015   9.397
  899POPC   GL115109  22.154   3.002   9.044
  899POPC   GL215110  22.003   2.699   9.004
  899POPC   C1A15111  22.266   2.881   8.606
  899POPC   D2A15112  22.454   2.998   8.221
  899POPC   C3A15113  22.184   2.949   7.900
  899POPC   C4A15114  22.121   2.558   7.741
  899POPC   C1B15115  21.761   2.794   8.662
  899POPC   C2B15116  21.815   2.689   8.244
  899POPC   C3B15117  21.682   2.784   7.842
  899POPC   C4B15118  21.834   3.045   7.511
  900POPC   NC315119  35.970  41.065   9.490
  900POPC   PO415120  36.205  41.725   9.461
  900POPC   GL115121  36.220  41.412   9.145
  900POPC   GL215122  35.949  41.324   9.051
  900POPC   C1A15123  36.399  41.419   8.731
  900POPC   D2A15124  36.648  41.706   8.466
  900POPC   C3A15125  36.406  41.740   8.091
  900POPC   C4A15126  36.218  41.470   7.756
  900POPC   C1B15127  35.862  41.441   8.632
  900POPC   C2B15128  35.966  41.480   8.212
  900POPC   C3B15129  35.706  41.450   7.851
  900POPC   C4B15130  35.791  41.259   7.465
  901POPC   NC315131  31.010  43.523   9.905
  901POPC   PO415132  30.571  43.995   9.650
  901POPC   GL115133  30.477  43.967   9.211
  901POPC   GL215134  30.547  43.591   9.181
  901POPC   C1A15135  30.493  44.221   8.816
  901POPC   D2A15136  30.695  44.166   8.409
  901POPC   C3A15137  30.556  44.334   8.032
  901POPC   C4A15138  30.646  44.062   7.721
  901POPC   C1B15139  30.704  43.737   8.784
  901POPC   C2B15140  30.903  43.716   8.408
  901POPC   C3B15141  30.767  43.621   8.007
  901POPC   C4B15142  30.865  43.538   7.599
  902POPC   NC315143   3.951  27.510   9.658
  902POPC   PO415144   3.295  27.678   9.809
  902POPC   GL115145   3.385  27.526   9.328
  902POPC   GL215146   3.720  27.596   9.200
  902POPC   C1A15147   3.248  27.517   8.874
  902POPC   D2A15148   3.417  27.452   8.435
  902POPC   C3A15149   3.308  27.673   8.075
  902POPC   C4A15150   3.571  27.690   7.783
  902POPC   C1B15151   3.792  27.380   8.808
  902POPC   C2B15152   3.866  27.195   8.414
  902POPC   C3B15153   3.699  27.252   8.002
  902POPC   C4B15154   3.850  27.325   7.581
  903POPC   NC315155  44.159  39.210   9.487
  903POPC   PO415156  43.537  38.923   9.654
  903POPC   GL115157  43.709  39.184   9.209
  903POPC   GL215158  44.076  39.180   8.999
  903POPC   C1A15159  43.712  39.444   8.777
  903POPC   D2A15160  43.561  39.531   8.338
  903POPC   C3A15161  43.671  39.342   7.928
  903POPC   C4A15162  43.656  39.518   7.484
  903POPC   C1B15163  44.210  39.449   8.629
  903POPC   C2B15164  44.201  39.478   8.168
  903POPC   C3B15165  44.193  39.168   7.855
  903POPC   C4B15166  43.868  39.041   7.546
  904POPC   NC315167  37.800  14.797   9.437
  904POPC   PO415168  37.470  15.464   9.529
  904POPC   GL115169  37.508  15.288   9.102
  904POPC   GL215170  37.817  15.106   9.033
  904POPC   C1A15171  37.664  15.476   8.694
  904POPC   D2A15172  37.814  15.450   8.262
  904POPC   C3A15173  37.526  15.355   7.939
  904POPC   C4A15174  37.320  14.950   7.852
  904POPC   C1B15175  38.021  14.873   8.709
  904POPC   C2B15176  38.036  14.800   8.269
  904POPC   C3B15177  37.881  14.981   7.878
  904POPC   C4B15178  38.039  14.831   7.468
  905POPC   NC315179  23.385  30.214   9.392
  905POPC   PO415180  22.831  29.883   9.592
  905POPC   GL115181  23.007  29.887   9.201
  905POPC   GL215182  23.053  29.575   9.081
  905POPC   C1A15183  22.993  29.984   8.756
  905POPC   D2A15184  23.192  30.188   8.425
  905POPC   C3A15185  22.927  30.042   8.099
  905POPC   C4A15186  23.068  29.940   7.711
  905POPC   C1B15187  22.871  29.464   8.686
  905POPC   C2B15188  22.866  29.543   8.237
  905POPC   C3B15189  23.170  29.480   7.920
  905POPC   C4B15190  23.198  29.544   7.424
  906POPC   NC315191  42.232   9.819   9.586
  906POPC   PO415192  41.683   9.476   9.343
  906POPC   GL115193  42.081   9.628   9.136
  906POPC   GL215194  42.133  10.011   9.101
  906POPC   C1A15195  42.333   9.433   8.806
  906POPC   D2A15196  42.389   9.247   8.394
  906POPC   C3A15197  42.354   9.510   8.024
  906POPC   C4A15198  42.166   9.654   7.631
  906POPC   C1B15199  42.208   9.928   8.660
  906POPC   C2B15200  42.219   9.984   8.212
  906POPC   C3B15201  42.314  10.110   7.811
  906POPC   C4B15202  42.379  10.053   7.410
  907POPC   NC315203  23.366  26.411   9.553
  907POPC   PO415204  22.809  26.746   9.616
  907POPC   GL115205  22.965  26.873   9.233
  907POPC   GL215206  23.119  27.177   9.355
  907POPC   C1A15207  22.890  26.741   8.803
  907POPC   D2A15208  22.590  26.618   8.447
  907POPC   C3A15209  22.643  26.849   8.075
  907POPC   C4A15210  22.759  26.869   7.656
  907POPC   C1B15211  23.170  27.221   8.891
  907POPC   C2B15212  23.182  27.021   8.477
  907POPC   C3B15213  23.124  27.048   8.012
  907POPC   C4B15214  23.254  26.934   7.567
  908POPC   NC315215   5.655  25.302   9.671
  908POPC   PO415216   6.190  25.095   9.413
  908POPC   GL115217   5.849  25.049   9.127
  908POPC   GL215218   5.589  25.318   9.138
  908POPC   C1A15219   5.861  25.203   8.699
  908POPC   D2A15220   5.612  25.289   8.352
  908POPC   C3A15221   5.847  25.102   8.063
  908POPC   C4A15222   5.819  25.264   7.671
  908POPC   C1B15223   5.576  25.619   8.773
  908POPC   C2B15224   5.864  25.750   8.437
  908POPC   C3B15225   5.982  25.600   8.041
  908POPC   C4B15226   5.576  25.677   7.915
  909POPC   NC315227   2.025  30.154  10.027
  909POPC   PO415228   2.476  30.359   9.473
  909POPC   GL115229   2.116  30.176   9.184
  909POPC   GL215230   1.978  29.820   9.263
  909POPC   C1A15231   1.860  30.208   8.796
  909POPC   D2A15232   1.895  30.274   8.336
  909POPC   C3A15233   1.837  29.969   7.990
  909POPC   C4A15234   2.220  29.840   7.728
  909POPC   C1B15235   2.089  29.750   8.867
  909POPC   C2B15236   1.971  29.754   8.450
  909POPC   C3B15237   2.043  29.513   8.079
  909POPC   C4B15238   2.142  29.315   7.703
  910POPC   NC315239  39.150   6.618   9.574
  910POPC   PO415240  39.851   6.531   9.469
  910POPC   GL115241  39.489   6.785   9.180
  910POPC   GL215242  39.064   6.762   9.096
  910POPC   C1A15243  39.403   6.853   8.722
  910POPC   D2A15244  38.984   6.785   8.514
  910POPC   C3A15245  39.044   6.853   8.058
  910POPC   C4A15246  39.378   7.040   7.774
  910POPC   C1B15247  39.190   6.407   8.809
  910POPC   C2B15248  39.299   6.424   8.343
  910POPC   C3B15249  39.251   6.357   7.880
  910POPC   C4B15250  39.359   6.181   7.461
  911POPC   NC315251  11.925  31.697   9.738
  911POPC   PO415252  12.229  31.102   9.659
  911POPC   GL115253  12.053  31.329   9.294
  911POPC   GL215254  11.959  31.703   9.226
  911POPC   C1A15255  12.053  31.332   8.851
  911POPC   D2A15256  11.884  31.393   8.459
  911POPC   C3A15257  12.095  31.377   8.074
  911POPC   C4A15258  12.012  31.093   7.736
  911POPC   C1B15259  11.740  31.775   8.826
  911POPC   C2B15260  11.549  31.770   8.393
  911POPC   C3B15261  11.718  31.705   7.987
  911POPC   C4B15262  12.071  31.721   7.681
  912POPC   NC315263  38.367  20.095   9.660
  912POPC   PO415264  38.717  19.557   9.548
  912POPC   GL115265  38.718  19.843   9.236
  912POPC   GL215266  38.375  19.918   9.186
  912POPC   C1A15267  38.681  19.782   8.798
  912POPC   D2A15268  38.809  19.950   8.421
  912POPC   C3A15269  38.586  20.105   8.089
  912POPC   C4A15270  38.565  19.887   7.724
  912POPC   C1B15271  38.207  19.968   8.746
  912POPC   C2B15272  38.250  19.815   8.317
  912POPC   C3B15273  38.070  19.929   7.905
  912POPC   C4B15274  37.967  19.884   7.460
  913POPC   NC315275  27.206  30.188   9.548
  913POPC   PO415276  27.821  29.894   9.460
  913POPC   GL115277  27.718  30.073   9.059
  913POPC   GL215278  27.389  30.035   9.092
  913POPC   C1A15279  27.672  30.052   8.619
  913POPC   D2A15280  27.827  30.283   8.267
  913POPC   C3A15281  27.737  30.061   7.944
  913POPC   C4A15282  27.545  30.075   7.555
  913POPC   C1B15283  27.185  30.094   8.707
  913POPC   C2B15284  27.298  30.198   8.298
  913POPC   C3B15285  27.239  29.921   7.930
  913POPC   C4B15286  27.179  29.572   7.664
  914POPC   NC315287  41.567  18.808   9.478
  914POPC   PO415288  41.202  19.273   9.369
  914POPC   GL115289  41.387  19.069   9.071
  914POPC   GL215290  41.206  18.736   9.120
  914POPC   C1A15291  41.732  19.159   8.753
  914POPC   D2A15292  41.964  18.990   8.398
  914POPC   C3A15293  41.759  19.069   8.034
  914POPC   C4A15294  41.611  19.444   7.846
  914POPC   C1B15295  41.492  18.698   8.763
  914POPC   C2B15296  41.390  18.902   8.401
  914POPC   C3B15297  41.214  18.721   8.050
  914POPC   C4B15298  41.453  18.814   7.710
  915POPC   NC315299   1.065  37.841   9.521
  915POPC   PO415300   0.999  37.228   9.380
  915POPC   GL115301   1.056  37.519   9.132
  915POPC   GL215302   1.343  37.679   9.094
  915POPC   C1A15303   0.912  37.603   8.789
  915POPC   D2A15304   0.794  37.391   8.462
  915POPC   C3A15305   1.016  37.488   8.161
  915POPC   C4A15306   1.085  37.822   7.914
  915POPC   C1B15307   1.404  37.639   8.667
  915POPC   C2B15308   1.432  37.777   8.282
  915POPC   C3B15309   1.601  37.778   7.867
  915POPC   C4B15310   1.612  37.948   7.474
  916POPC   NC315311   0.121  26.101   9.778
  916POPC   PO415312   0.548  25.655   9.504
  916POPC   GL115313   0.377  25.840   9.161
  916POPC   GL215314   0.520  26.169   9.180
  916POPC   C1A15315   0.410  25.839   8.735
  916POPC   D2A15316   0.416  26.011   8.349
  916POPC   C3A15317   0.524  25.736   8.016
  916POPC   C4A15318   0.365  25.912   7.642
  916POPC   C1B15319   0.743  26.211   8.759
  916POPC   C2B15320   0.764  26.414   8.367
  916POPC   C3B15321   0.671  26.231   7.945
  916POPC   C4B15322   0.648  26.322   7.505
  917POPC   NC315323  26.517  34.469   9.593
  917POPC   PO415324  25.931  34.863   9.484
  917POPC   GL115325  25.993  34.574   9.189
  917POPC   GL215326  26.331  34.481   9.131
  917POPC   C1A15327  25.927  34.757   8.784
  917POPC   D2A15328  26.099  34.778   8.380
  917POPC   C3A15329  25.809  34.694   8.050
  917POPC   C4A15330  25.769  34.689   7.606
  917POPC   C1B15331  26.224  34.343   8.730
  917POPC   C2B15332  26.187  34.282   8.306
  917POPC   C3B15333  26.286  34.509   7.968
  917POPC   C4B15334  26.021  34.233   7.784
  918POPC   NC315335  10.532  30.417   9.593
  918POPC   PO415336  10.262  30.936   9.527
  918POPC   GL115337  10.459  30.697   9.153
  918POPC   GL215338  10.835  30.588   9.174
  918POPC   C1A15339  10.575  30.864   8.722
  918POPC   D2A15340  10.356  31.127   8.418
  918POPC   C3A15341  10.451  30.999   8.020
  918POPC   C4A15342  10.659  30.835   7.706
  918POPC   C1B15343  10.950  30.500   8.726
  918POPC   C2B15344  10.817  30.572   8.292
  918POPC   C3B15345  10.676  30.371   7.916
  918POPC   C4B15346  10.357  30.436   7.567
  919POPC   NC315347  15.046  11.456   9.433
  919POPC   PO415348  15.373  10.874   9.456
  919POPC   GL115349  15.150  11.059   9.105
  919POPC   GL215350  14.772  11.112   9.152
  919POPC   C1A15351  15.358  11.149   8.713
  919POPC   D2A15352  15.500  11.316   8.353
  919POPC   C3A15353  15.348  11.076   8.046
  919POPC   C4A15354  15.053  10.869   7.873
  919POPC   C1B15355  14.865  11.349   8.749
  919POPC   C2B15356  14.964  11.390   8.287
  919POPC   C3B15357  14.742  11.378   7.888
  919POPC   C4B15358  14.583  10.974   7.747
  920POPC   NC315359  12.029   3.049   9.554
  920POPC   PO415360  12.097   3.743   9.514
  920POPC   GL115361  12.195   3.598   9.125
  920POPC   GL215362  12.321   3.271   9.188
  920POPC   C1A15363  12.078   3.603   8.709
  920POPC   D2A15364  12.161   3.501   8.296
  920POPC   C3A15365  12.329   3.765   7.948
  920POPC   C4A15366  11.968   3.752   7.681
  920POPC   C1B15367  11.942   3.149   8.911
  920POPC   C2B15368  11.804   3.118   8.464
  920POPC   C3B15369  11.756   3.306   8.055
  920POPC   C4B15370  12.146   3.287   7.820
  921POPC   NC315371  22.651   8.195   9.493
  921POPC   PO415372  23.192   7.717   9.456
  921POPC   GL115373  23.167   8.174   9.209
  921POPC   GL215374  22.947   8.518   9.203
  921POPC   C1A15375  23.261   8.337   8.775
  921POPC   D2A15376  23.200   8.082   8.381
  921POPC   C3A15377  23.311   8.059   7.930
  921POPC   C4A15378  23.102   8.114   7.506
  921POPC   C1B15379  22.737   8.321   8.834
  921POPC   C2B15380  22.767   8.354   8.388
  921POPC   C3B15381  22.812   8.075   8.038
  921POPC   C4B15382  22.622   8.042   7.667
  922POPC   NC315383  31.751  23.221   9.693
  922POPC   PO415384  31.247  22.853   9.574
  922POPC   GL115385  31.450  22.806   9.172
  922POPC   GL215386  31.633  23.117   9.134
  922POPC   C1A15387  31.384  22.910   8.733
  922POPC   D2A15388  31.552  23.056   8.381
  922POPC   C3A15389  31.562  22.759   8.070
  922POPC   C4A15390  31.367  22.943   7.709
  922POPC   C1B15391  31.893  23.240   8.745
  922POPC   C2B15392  31.912  23.400   8.281
  922POPC   C3B15393  31.776  23.181   7.890
  922POPC   C4B15394  31.701  23.223   7.382
  923POPC   NC315395  18.906  21.639   9.493
  923POPC   PO415396  19.233  21.043   9.660
  923POPC   GL115397  19.246  21.201   9.224
  923POPC   GL215398  18.904  21.238   9.171
  923POPC   C1A15399  19.382  21.276   8.766
  923POPC   D2A15400  19.253  21.165   8.376
  923POPC   C3A15401  18.982  21.453   8.132
  923POPC   C4A15402  19.154  21.707   7.804
  923POPC   C1B15403  18.938  21.018   8.798
  923POPC   C2B15404  18.766  20.988   8.401
  923POPC   C3B15405  18.967  20.959   8.009
  923POPC   C4B15406  18.948  21.156   7.652
  924POPC   NC315407  26.101   3.684   9.472
  924POPC   PO415408  26.456   3.094   9.539
  924POPC   GL115409  26.285   3.207   9.138
  924POPC   GL215410  25.980   3.355   9.115
  924POPC   C1A15411  26.178   3.211   8.692
  924POPC   D2A15412  26.182   3.462   8.361
  924POPC   C3A15413  26.082   3.256   7.981
  924POPC   C4A15414  26.263   3.291   7.579
  924POPC   C1B15415  25.936   3.694   8.809
  924POPC   C2B15416  25.837   3.851   8.409
  924POPC   C3B15417  25.887   3.719   8.007
  924POPC   C4B15418  25.747   3.526   7.662
  925POPC   NC315419  10.715   2.158   9.363
  925POPC   PO415420  11.262   1.842   9.660
  925POPC   GL115421  11.218   2.083   9.230
  925POPC   GL215422  11.406   2.407   9.209
  925POPC   C1A15423  11.100   2.008   8.768
  925POPC   D2A15424  11.330   1.807   8.443
  925POPC   C3A15425  11.317   1.963   8.044
  925POPC   C4A15426  11.120   1.816   7.676
  925POPC   C1B15427  11.165   2.501   8.777
  925POPC   C2B15428  11.074   2.343   8.351
  925POPC   C3B15429  10.997   2.351   7.910
  925POPC   C4B15430  11.145   2.315   7.488
  926POPC   NC315431   4.275  11.102   9.921
  926POPC   PO415432   4.235  10.549   9.606
  926POPC   GL115433   4.378  10.408   9.202
  926POPC   GL215434   4.120  10.502   9.107
  926POPC   C1A15435   4.472  10.606   8.774
  926POPC   D2A15436   4.460  10.851   8.383
  926POPC   C3A15437   4.334  10.625   8.010
  926POPC   C4A15438   4.097  10.793   7.677
  926POPC   C1B15439   4.050  10.321   8.752
  926POPC   C2B15440   4.006  10.586   8.430
  926POPC   C3B15441   3.840  10.466   8.042
  926POPC   C4B15442   4.033  10.274   7.720
  927POPC   NC315443  13.049  29.468   9.527
  927POPC   PO415444  12.672  28.861   9.499
  927POPC   GL115445  12.641  29.027   9.117
  927POPC   GL215446  13.000  29.127   9.124
  927POPC   C1A15447  12.731  28.873   8.704
  927POPC   D2A15448  13.019  28.863   8.408
  927POPC   C3A15449  12.768  28.872   8.035
  927POPC   C4A15450  12.768  29.089   7.642
  927POPC   C1B15451  12.837  29.375   8.781
  927POPC   C2B15452  12.696  29.275   8.372
  927POPC   C3B15453  12.868  29.438   7.973
  927POPC   C4B15454  13.191  29.402   7.634
  928POPC   NC315455  42.860  30.011   9.461
  928POPC   PO415456  43.390  29.584   9.424
  928POPC   GL115457  43.088  29.664   9.124
  928POPC   GL215458  43.228  29.989   9.086
  928POPC   C1A15459  43.015  29.764   8.687
  928POPC   D2A15460  43.237  30.004   8.388
  928POPC   C3A15461  43.303  29.789   8.039
  928POPC   C4A15462  42.977  29.699   7.780
  928POPC   C1B15463  43.000  30.256   8.835
  928POPC   C2B15464  42.721  30.174   8.520
  928POPC   C3B15465  42.763  29.983   8.161
  928POPC   C4B15466  43.036  30.220   7.889
  929POPC   NC315467   8.428  44.139   9.543
  929POPC   PO415468   7.867  44.503   9.454
  929POPC   GL115469   8.078  44.725   9.099
  929POPC   GL215470   8.409  44.657   9.081
  929POPC   C1A15471   8.130  44.772   8.650
  929POPC   D2A15472   8.286  44.577   8.288
  929POPC   C3A15473   8.060  44.551   7.909
  929POPC   C4A15474   7.916  44.959   7.818
  929POPC   C1B15475   8.650  44.568   8.703
  929POPC   C2B15476   8.692  44.296   8.335
  929POPC   C3B15477   8.608  44.465   7.904
  929POPC   C4B15478   8.423  44.891   7.868
  930POPC   NC315479  26.211   5.146   9.918
  930POPC   PO415480  25.676   5.163   9.443
  930POPC   GL115481  25.836   5.065   9.042
  930POPC   GL215482  26.129   4.877   9.032
  930POPC   C1A15483  26.028   5.253   8.672
  930POPC   D2A15484  26.321   5.349   8.338
  930POPC   C3A15485  26.110   5.384   7.943
  930POPC   C4A15486  26.167   5.200   7.525
  930POPC   C1B15487  26.177   4.743   8.617
  930POPC   C2B15488  25.999   4.907   8.236
  930POPC   C3B15489  26.029   4.793   7.791
  930POPC   C4B15490  25.835   4.820   7.350
  931POPC   NC315491  43.715  22.311   9.582
  931POPC   PO415492  44.081  21.685   9.710
  931POPC   GL115493  44.215  21.854   9.248
  931POPC   GL215494  44.160  22.238   9.251
  931POPC   C1A15495  44.145  21.851   8.749
  931POPC   D2A15496  44.046  21.643   8.345
  931POPC   C3A15497  43.713  21.798   8.065
  931POPC   C4A15498  43.872  21.969   7.691
  931POPC   C1B15499  43.890  22.275   8.868
  931POPC   C2B15500  43.768  22.146   8.462
  931POPC   C3B15501  43.999  22.210   8.105
  931POPC   C4B15502  43.970  22.482   7.758
  932POPC   NC315503  39.275  43.507   9.349
  932POPC   PO415504  39.185  42.809   9.531
  932POPC   GL115505  39.320  42.982   9.137
  932POPC   GL215506  39.012  43.115   9.119
  932POPC   C1A15507  39.328  43.161   8.702
  932POPC   D2A15508  39.120  43.266   8.290
  932POPC   C3A15509  39.408  43.265   7.920
  932POPC   C4A15510  39.558  43.158   7.485
  932POPC   C1B15511  38.892  42.867   8.753
  932POPC   C2B15512  39.108  42.772   8.344
  932POPC   C3B15513  39.045  42.897   7.888
  932POPC   C4B15514  39.097  42.885   7.414
  933POPC   NC315515  43.597   5.670   9.532
  933POPC   PO415516  44.318   5.801   9.431
  933POPC   GL115517  44.056   5.829   9.056
  933POPC   GL215518  43.686   5.876   9.087
  933POPC   C1A15519  44.226   5.924   8.655
  933POPC   D2A15520  44.106   6.224   8.348
  933POPC   C3A15521  43.983   6.062   7.989
  933POPC   C4A15522  44.081   5.687   7.799
  933POPC   C1B15523  43.711   5.763   8.674
  933POPC   C2B15524  43.894   5.702   8.336
  933POPC   C3B15525  43.604   5.696   8.077
  933POPC   C4B15526  43.598   5.853   7.728
  934POPC   NC315527  42.760  23.338   9.539
  934POPC   PO415528  42.943  23.982   9.415
  934POPC   GL115529  42.998  23.605   9.158
  934POPC   GL215530  42.659  23.490   9.075
  934POPC   C1A15531  43.248  23.594   8.779
  934POPC   D2A15532  43.237  23.963   8.486
  934POPC   C3A15533  43.155  23.858   8.048
  934POPC   C4A15534  43.252  23.792   7.633
  934POPC   C1B15535  42.741  23.423   8.659
  934POPC   C2B15536  42.790  23.550   8.237
  934POPC   C3B15537  42.932  23.378   7.864
  934POPC   C4B15538  43.081  23.329   7.445
  935POPC   NC315539   7.386  39.062   9.468
  935POPC   PO415540   6.753  39.051   9.270
  935POPC   GL115541   7.170  39.091   9.017
  935POPC   GL215542   7.524  38.892   9.009
  935POPC   C1A15543   7.439  39.292   8.706
  935POPC   D2A15544   7.451  39.539   8.327
  935POPC   C3A15545   7.478  39.321   7.916
  935POPC   C4A15546   7.367  39.466   7.494
  935POPC   C1B15547   7.305  38.796   8.641
  935POPC   C2B15548   7.388  38.973   8.275
  935POPC   C3B15549   7.398  38.800   7.880
  935POPC   C4B15550   7.498  38.973   7.494
  936POPC   NC315551  22.835  40.890   9.399
  936POPC   PO415552  23.484  40.703   9.265
  936POPC   GL115553  23.111  40.677   9.033
  936POPC   GL215554  22.742  40.522   9.063
  936POPC   C1A15555  22.967  40.968   8.724
  936POPC   D2A15556  23.185  41.122   8.334
  936POPC   C3A15557  23.135  40.872   7.941
  936POPC   C4A15558  23.095  40.988   7.509
  936POPC   C1B15559  22.875  40.443   8.664
  936POPC   C2B15560  22.861  40.668   8.313
  936POPC   C3B15561  22.811  40.477   7.933
  936POPC   C4B15562  22.762  40.625   7.495
  937POPC   NC315563  23.554  42.876   9.509
  937POPC   PO415564  22.894  42.996   9.540
  937POPC   GL115565  22.976  42.999   9.115
  937POPC   GL215566  23.187  42.758   9.183
  937POPC   C1A15567  22.958  43.198   8.699
  937POPC   D2A15568  22.705  43.292   8.326
  937POPC   C3A15569  22.884  43.122   7.952
  937POPC   C4A15570  23.094  43.288   7.570
  937POPC   C1B15571  23.206  42.727   8.756
  937POPC   C2B15572  23.104  42.803   8.331
  937POPC   C3B15573  23.175  42.712   7.902
  937POPC   C4B15574  22.971  42.790   7.500
  938POPC   NC315575  30.159  10.651   9.574
  938POPC   PO415576  29.722  10.130   9.510
  938POPC   GL115577  29.989  10.349   9.171
  938POPC   GL215578  30.005  10.731   9.118
  938POPC   C1A15579  29.822  10.477   8.744
  938POPC   D2A15580  29.730  10.288   8.399
  938POPC   C3A15581  29.599  10.479   8.039
  938POPC   C4A15582  29.628  10.318   7.632
  938POPC   C1B15583  30.320  10.561   8.818
  938POPC   C2B15584  30.214  10.621   8.396
  938POPC   C3B15585  30.104  10.436   8.025
  938POPC   C4B15586  29.921  10.707   7.699
  939POPC   NC315587  25.946  17.958   9.335
  939POPC   PO415588  26.367  18.362   9.637
  939POPC   GL115589  26.109  18.520   9.293
  939POPC   GL215590  25.747  18.443   9.251
  939POPC   C1A15591  26.120  18.582   8.829
  939POPC   D2A15592  26.186  18.736   8.395
  939POPC   C3A15593  26.066  18.513   8.050
  939POPC   C4A15594  25.952  18.177   7.781
  939POPC   C1B15595  25.612  18.530   8.832
  939POPC   C2B15596  25.682  18.585   8.389
  939POPC   C3B15597  25.529  18.309   8.045
  939POPC   C4B15598  25.433  18.140   7.631
  940POPC   NC315599  35.323   0.118   9.293
  940POPC   PO415600  35.323  44.428   9.469
  940POPC   GL115601  35.162  44.440   9.103
  940POPC   GL215602  35.005  44.772   9.064
  940POPC   C1A15603  35.293  44.528   8.692
  940POPC   D2A15604  35.651  44.525   8.411
  940POPC   C3A15605  35.490  44.457   8.002
  940POPC   C4A15606  35.053  44.328   7.850
  940POPC   C1B15607  35.114   0.006   8.680
  940POPC   C2B15608  35.317  44.898   8.279
  940POPC   C3B15609  35.255  44.874   7.840
  940POPC   C4B15610  35.644  44.970   7.574
  941POPC   NC315611  12.187  10.335   9.545
  941POPC   PO415612  11.914  10.931   9.417
  941POPC   GL115613  12.008  10.578   9.136
  941POPC   GL215614  12.348  10.393   9.086
  941POPC   C1A15615  11.961  10.457   8.723
  941POPC   D2A15616  11.827  10.669   8.373
  941POPC   C3A15617  12.098  10.563   8.060
  941POPC   C4A15618  12.049  10.442   7.662
  941POPC   C1B15619  12.345  10.101   8.774
  941POPC   C2B15620  12.408  10.322   8.411
  941POPC   C3B15621  12.449  10.163   8.020
  941POPC   C4B15622  12.550  10.324   7.634
  942POPC   NC315623  34.882  14.784   9.420
  942POPC   PO415624  34.723  14.114   9.370
  942POPC   GL115625  34.564  14.314   9.016
  942POPC   GL215626  34.581  14.657   9.041
  942POPC   C1A15627  34.380  14.416   8.632
  942POPC   D2A15628  34.375  14.539   8.204
  942POPC   C3A15629  34.596  14.255   7.985
  942POPC   C4A15630  34.241  14.168   7.727
  942POPC   C1B15631  34.861  14.853   8.749
  942POPC   C2B15632  34.619  14.906   8.438
  942POPC   C3B15633  34.702  14.890   8.011
  942POPC   C4B15634  34.479  14.653   7.708
  943POPC   NC315635  21.657  14.668   9.366
  943POPC   PO415636  21.421  14.058   9.472
  943POPC   GL115637  21.671  14.199   9.098
  943POPC   GL215638  21.836  14.511   8.908
  943POPC   C1A15639  21.518  14.175   8.692
  943POPC   D2A15640  21.625  14.303   8.293
  943POPC   C3A15641  21.347  14.111   7.992
  943POPC   C4A15642  21.314  14.213   7.558
  943POPC   C1B15643  21.446  14.675   8.692
  943POPC   C2B15644  21.240  14.644   8.272
  943POPC   C3B15645  21.306  14.662   7.823
  943POPC   C4B15646  21.091  14.649   7.411
  944POPC   NC315647  24.223  10.124   9.624
  944POPC   PO415648  24.582   9.560   9.417
  944POPC   GL115649  24.430   9.727   9.026
  944POPC   GL215650  24.261   9.995   9.124
  944POPC   C1A15651  24.526  10.038   8.680
  944POPC   D2A15652  24.516   9.662   8.467
  944POPC   C3A15653  24.534   9.716   8.073
  944POPC   C4A15654  24.530   9.674   7.682
  944POPC   C1B15655  24.036   9.976   8.729
  944POPC   C2B15656  24.123   9.996   8.264
  944POPC   C3B15657  24.101   9.920   7.797
  944POPC   C4B15658  24.268   9.956   7.333
  945POPC   NC315659  17.363  36.142   9.800
  945POPC   PO415660  17.337  35.694   9.451
  945POPC   GL115661  17.456  36.147   9.233
  945POPC   GL215662  17.197  36.253   9.000
  945POPC   C1A15663  17.614  36.427   8.817
  945POPC   D2A15664  17.436  36.484   8.381
  945POPC   C3A15665  17.676  36.506   7.969
  945POPC   C4A15666  17.890  36.186   7.697
  945POPC   C1B15667  17.477  35.941   8.770
  945POPC   C2B15668  17.499  35.813   8.323
  945POPC   C3B15669  17.413  36.075   7.978
  945POPC   C4B15670  17.368  35.995   7.566
  946POPC   NC315671  44.165  19.115   9.294
  946POPC   PO415672  44.794  19.277   9.550
  946POPC   GL115673  44.717  19.200   9.109
  946POPC   GL215674  44.424  19.343   8.925
  946POPC   C1A15675  44.594  18.902   8.753
  946POPC   D2A15676  44.738  18.912   8.363
  946POPC   C3A15677  44.529  18.993   8.004
  946POPC   C4A15678  44.697  18.922   7.611
  946POPC   C1B15679  44.808  19.357   8.640
  946POPC   C2B15680  44.937  19.395   8.211
  946POPC   C3B15681  44.767  19.425   7.807
  946POPC   C4B15682  44.807  19.404   7.380
  947POPC   NC315683  17.706   1.671   9.801
  947POPC   PO415684  17.321   2.096   9.651
  947POPC   GL115685  17.560   2.077   9.219
  947POPC   GL215686  17.691   1.727   9.266
  947POPC   C1A15687  17.510   2.196   8.724
  947POPC   D2A15688  17.459   2.377   8.269
  947POPC   C3A15689  17.277   2.163   7.915
  947POPC   C4A15690  17.181   2.300   7.486
  947POPC   C1B15691  17.809   1.784   8.819
  947POPC   C2B15692  17.693   1.848   8.365
  947POPC   C3B15693  17.572   1.670   7.942
  947POPC   C4B15694  17.493   1.867   7.558
  948POPC   NC315695  42.936  43.320   9.377
  948POPC   PO415696  43.433  42.906   9.425
  948POPC   GL115697  43.157  42.973   9.067
  948POPC   GL215698  42.881  42.796   9.169
  948POPC   C1A15699  43.008  43.232   8.715
  948POPC   D2A15700  43.098  43.516   8.390
  948POPC   C3A15701  43.161  43.391   7.998
  948POPC   C4A15702  43.521  43.445   7.765
  948POPC   C1B15703  42.626  42.890   8.824
  948POPC   C2B15704  42.757  42.902   8.400
  948POPC   C3B15705  42.847  42.942   7.957
  948POPC   C4B15706  42.887  42.655   7.557
  949POPC   NC315707  29.462  44.764   9.608
  949POPC   PO415708  28.910  44.487   9.586
  949POPC   GL115709  29.112  44.678   9.251
  949POPC   GL215710  29.381  44.443   9.178
  949POPC   C1A15711  28.888  44.712   8.895
  949POPC   D2A15712  28.982  44.692   8.473
  949POPC   C3A15713  28.914  44.859   8.084
  949POPC   C4A15714  29.188  44.742   7.769
  949POPC   C1B15715  29.631  44.472   8.817
  949POPC   C2B15716  29.606  44.329   8.429
  949POPC   C3B15717  29.347  44.407   8.109
  949POPC   C4B15718  29.515  44.352   7.696
  950POPC   NC315719   3.425  18.817   9.498
  950POPC   PO415720   3.756  19.454   9.550
  950POPC   GL115721   3.692  19.144   9.209
  950POPC   GL215722   3.343  19.143   9.097
  950POPC   C1A15723   3.693  18.912   8.803
  950POPC   D2A15724   3.417  19.081   8.482
  950POPC   C3A15725   3.517  18.927   8.100
  950POPC   C4A15726   3.441  19.077   7.716
  950POPC   C1B15727   3.189  18.786   8.851
  950POPC   C2B15728   3.250  18.606   8.421
  950POPC   C3B15729   3.082  18.676   8.001
  950POPC   C4B15730   3.331  18.561   7.702
  951POPC   NC315731  43.639   4.709   9.756
  951POPC   PO415732  44.144   4.591   9.345
  951POPC   GL115733  43.959   5.004   9.158
  951POPC   GL215734  43.958   5.362   9.256
  951POPC   C1A15735  43.907   4.944   8.721
  951POPC   D2A15736  43.736   4.786   8.371
  951POPC   C3A15737  43.965   4.758   8.008
  951POPC   C4A15738  43.972   4.947   7.598
  951POPC   C1B15739  43.629   5.330   8.908
  951POPC   C2B15740  43.586   5.291   8.435
  951POPC   C3B15741  43.735   5.227   7.968
  951POPC   C4B15742  43.767   5.392   7.517
  952POPC   NC315743  11.554   9.562   9.489
  952POPC   PO415744  10.920   9.870   9.525
  952POPC   GL115745  11.281   9.985   9.289
  952POPC   GL215746  11.252   9.670   9.099
  952POPC   C1A15747  11.301  10.097   8.846
  952POPC   D2A15748  11.239   9.853   8.485
  952POPC   C3A15749  11.457   9.891   8.085
  952POPC   C4A15750  11.323  10.049   7.663
  952POPC   C1B15751  11.513   9.483   8.782
  952POPC   C2B15752  11.390   9.367   8.373
  952POPC   C3B15753  11.054   9.534   8.122
  952POPC   C4B15754  11.234   9.567   7.739
  953POPC   NC315755  42.005  40.218   9.569
  953POPC   PO415756  42.460  39.703   9.451
  953POPC   GL115757  42.398  40.150   9.223
  953POPC   GL215758  42.113  40.210   9.031
  953POPC   C1A15759  42.607  40.262   8.809
  953POPC   D2A15760  42.644  40.003   8.413
  953POPC   C3A15761  42.641  40.133   7.953
  953POPC   C4A15762  42.232  40.254   7.758
  953POPC   C1B15763  42.358  39.823   8.830
  953POPC   C2B15764  42.259  39.644   8.452
  953POPC   C3B15765  42.101  39.823   8.102
  953POPC   C4B15766  42.330  39.763   7.750
  954POPC   NC315767  37.471  23.668   9.659
  954POPC   PO415768  36.794  23.745   9.886
  954POPC   GL115769  36.956  23.878   9.420
  954POPC   GL215770  37.245  23.748   9.188
  954POPC   C1A15771  36.803  23.941   8.977
  954POPC   D2A15772  36.843  23.710   8.569
  954POPC   C3A15773  36.812  23.875   8.141
  954POPC   C4A15774  36.700  23.804   7.685
  954POPC   C1B15775  37.267  23.954   8.740
  954POPC   C2B15776  37.315  23.808   8.278
  954POPC   C3B15777  37.161  23.560   7.905
  954POPC   C4B15778  37.166  23.629   7.450
  955POPC   NC315779   0.813  11.828   9.863
  955POPC   PO415780   1.388  11.919   9.576
  955POPC   GL115781   1.278  11.812   9.206
  955POPC   GL215782   1.308  12.164   9.123
  955POPC   C1A15783   1.262  11.676   8.796
  955POPC   D2A15784   1.079  11.912   8.453
  955POPC   C3A15785   1.182  11.799   8.027
  955POPC   C4A15786   0.995  12.075   7.709
  955POPC   C1B15787   1.516  12.127   8.740
  955POPC   C2B15788   1.593  12.312   8.348
  955POPC   C3B15789   1.367  12.284   7.999
  955POPC   C4B15790   1.470  12.257   7.591
  956POPC   NC315791   3.422  24.079   9.357
  956POPC   PO415792   3.750  24.705   9.391
  956POPC   GL115793   3.693  24.425   9.095
  956POPC   GL215794   3.844  24.635   8.857
  956POPC   C1A15795   3.393  24.398   8.762
  956POPC   D2A15796   3.637  24.404   8.433
  956POPC   C3A15797   3.432  24.254   8.105
  956POPC   C4A15798   3.396  24.416   7.695
  956POPC   C1B15799   3.513  24.884   8.640
  956POPC   C2B15800   3.505  24.893   8.210
  956POPC   C3B15801   3.763  24.631   7.995
  956POPC   C4B15802   3.895  24.587   7.622
  957POPC   NC315803  25.319  20.338   9.406
  957POPC   PO415804  25.576  20.883   9.318
  957POPC   GL115805  25.564  20.560   8.968
  957POPC   GL215806  25.506  20.180   8.954
  957POPC   C1A15807  25.370  20.628   8.567
  957POPC   D2A15808  24.988  20.542   8.294
  957POPC   C3A15809  25.157  20.523   7.873
  957POPC   C4A15810  25.604  20.542   7.668
  957POPC   C1B15811  25.173  20.168   8.609
  957POPC   C2B15812  25.173  20.090   8.149
  957POPC   C3B15813  25.413  20.078   7.748
  957POPC   C4B15814  25.622  20.126   7.327
  958POPC   NC315815  11.790  39.029   9.482
  958POPC   PO415816  12.505  39.016   9.619
  958POPC   GL115817  12.226  39.176   9.238
  958POPC   GL215818  12.266  38.925   9.036
  958POPC   C1A15819  11.952  39.287   8.833
  958POPC   D2A15820  12.112  39.150   8.378
  958POPC   C3A15821  12.062  39.247   7.928
  958POPC   C4A15822  12.405  39.192   7.639
  958POPC   C1B15823  12.143  38.721   8.656
  958POPC   C2B15824  11.802  38.550   8.422
  958POPC   C3B15825  11.821  38.752   8.037
  958POPC   C4B15826  12.092  38.770   7.733
  959POPC   NC315827  16.260   9.279   9.426
  959POPC   PO415828  16.343   8.593   9.575
  959POPC   GL115829  16.118   8.842   9.207
  959POPC   GL215830  15.773   9.016   9.109
  959POPC   C1A15831  16.161   9.105   8.812
  959POPC   D2A15832  15.951   8.919   8.480
  959POPC   C3A15833  16.165   8.993   8.127
  959POPC   C4A15834  15.968   9.080   7.775
  959POPC   C1B15835  15.704   9.337   8.710
  959POPC   C2B15836  15.680   9.366   8.213
  959POPC   C3B15837  15.645   9.458   7.740
  959POPC   C4B15838  15.749   9.256   7.336
  960POPC   NC315839  40.315  25.784   9.405
  960POPC   PO415840  39.851  26.262   9.606
  960POPC   GL115841  39.781  26.361   9.190
  960POPC   GL215842  40.004  26.073   9.110
  960POPC   C1A15843  39.688  26.263   8.771
  960POPC   D2A15844  39.878  26.061   8.425
  960POPC   C3A15845  39.810  26.217   8.010
  960POPC   C4A15846  39.806  25.873   7.704
  960POPC   C1B15847  40.233  26.277   8.753
  960POPC   C2B15848  40.387  26.145   8.345
  960POPC   C3B15849  40.281  25.987   7.938
  960POPC   C4B15850  40.419  26.024   7.457
  961POPC   NC315851  25.826  39.782   9.700
  961POPC   PO415852  25.171  39.854   9.396
  961POPC   GL115853  25.415  39.913   9.049
  961POPC   GL215854  25.469  39.588   8.899
  961POPC   C1A15855  25.402  40.002   8.613
  961POPC   D2A15856  25.299  40.357   8.366
  961POPC   C3A15857  25.275  40.235   7.956
  961POPC   C4A15858  24.988  39.994   7.755
  961POPC   C1B15859  25.081  39.565   8.636
  961POPC   C2B15860  24.981  39.631   8.176
  961POPC   C3B15861  25.089  39.509   7.739
  961POPC   C4B15862  25.506  39.680   7.671
  962POPC   NC315863  44.811  23.603   9.657
  962POPC   PO415864  44.629  24.256   9.501
  962POPC   GL115865  44.788  23.994   9.151
  962POPC   GL215866  44.453  24.026   9.007
  962POPC   C1A15867  44.833  23.734   8.734
  962POPC   D2A15868  44.645  23.757   8.282
  962POPC   C3A15869  44.846  23.720   7.856
  962POPC   C4A15870  44.760  23.560   7.405
  962POPC   C1B15871  44.284  23.740   8.672
  962POPC   C2B15872  44.126  23.698   8.247
  962POPC   C3B15873  44.333  23.583   7.858
  962POPC   C4B15874  44.381  23.887   7.516
  963POPC   NC315875   2.526   6.840   9.503
  963POPC   PO415876   3.022   6.403   9.372
  963POPC   GL115877   2.740   6.520   9.098
  963POPC   GL215878   2.443   6.386   9.239
  963POPC   C1A15879   2.840   6.573   8.669
  963POPC   D2A15880   2.733   6.753   8.284
  963POPC   C3A15881   2.906   6.502   7.952
  963POPC   C4A15882   2.925   6.397   7.511
  963POPC   C1B15883   2.363   6.403   8.775
  963POPC   C2B15884   2.516   6.279   8.351
  963POPC   C3B15885   2.413   6.442   7.911
  963POPC   C4B15886   2.555   6.887   7.828
  964POPC   NC315887   7.721  13.593   9.275
  964POPC   PO415888   7.123  13.578   9.522
  964POPC   GL115889   7.236  13.470   9.040
  964POPC   GL215890   7.585  13.408   8.842
  964POPC   C1A15891   7.199  13.486   8.568
  964POPC   D2A15892   7.577  13.519   8.290
  964POPC   C3A15893   7.394  13.530   7.906
  964POPC   C4A15894   7.161  13.881   7.833
  964POPC   C1B15895   7.625  13.852   8.671
  964POPC   C2B15896   7.867  13.964   8.295
  964POPC   C3B15897   7.700  13.919   7.914
  964POPC   C4B15898   7.774  13.599   7.584
  965POPC   NC315899  22.602  27.143   9.537
  965POPC   PO415900  22.116  26.630   9.561
  965POPC   GL115901  22.396  26.787   9.220
  965POPC   GL215902  22.038  26.853   9.087
  965POPC   C1A15903  22.420  26.948   8.786
  965POPC   D2A15904  22.106  26.882   8.507
  965POPC   C3A15905  22.153  27.032   8.125
  965POPC   C4A15906  22.225  26.911   7.747
  965POPC   C1B15907  21.742  26.641   8.795
  965POPC   C2B15908  21.632  26.766   8.355
  965POPC   C3B15909  21.818  26.606   7.964
  965POPC   C4B15910  21.904  26.612   7.497
  966POPC   NC315911  30.286  18.982   9.538
  966POPC   PO415912  30.955  18.795   9.612
  966POPC   GL115913  30.782  18.770   9.202
  966POPC   GL215914  30.574  19.049   9.127
  966POPC   C1A15915  30.894  18.945   8.775
  966POPC   D2A15916  30.844  19.101   8.370
  966POPC   C3A15917  30.977  18.863   8.045
  966POPC   C4A15918  30.977  19.025   7.663
  966POPC   C1B15919  30.392  19.020   8.726
  966POPC   C2B15920  30.361  19.215   8.327
  966POPC   C3B15921  30.511  19.085   7.944
  966POPC   C4B15922  30.565  18.686   7.823
  967POPC   NC315923   7.744   9.265   9.394
  967POPC   PO415924   7.197   8.770   9.495
  967POPC   GL115925   7.342   8.977   9.140
  967POPC   GL215926   7.652   8.854   9.139
  967POPC   C1A15927   7.476   9.150   8.726
  967POPC   D2A15928   7.325   8.981   8.334
  967POPC   C3A15929   7.407   9.169   7.904
  967POPC   C4A15930   7.293   9.023   7.451
  967POPC   C1B15931   7.652   8.651   8.791
  967POPC   C2B15932   7.539   8.466   8.417
  967POPC   C3B15933   7.472   8.604   8.038
  967POPC   C4B15934   7.655   8.774   7.703
  968POPC   NC315935  38.935  24.429   9.371
  968POPC   PO415936  38.337  24.684   9.485
  968POPC   GL115937  38.502  24.563   9.100
  968POPC   GL215938  38.820  24.786   9.054
  968POPC   C1A15939  38.273  24.399   8.740
  968POPC   D2A15940  38.171  24.227   8.342
  968POPC   C3A15941  38.330  24.354   7.952
  968POPC   C4A15942  38.164  24.712   7.782
  968POPC   C1B15943  38.853  24.497   8.719
  968POPC   C2B15944  38.627  24.496   8.369
  968POPC   C3B15945  38.616  24.782   8.065
  968POPC   C4B15946  38.871  24.610   7.768
  969POPC   NC315947   4.684  27.386   9.276
  969POPC   PO415948   5.257  27.744   9.618
  969POPC   GL115949   5.175  27.617   9.152
  969POPC   GL215950   4.906  27.708   8.917
  969POPC   C1A15951   5.347  27.546   8.727
  969POPC   D2A15952   5.390  27.714   8.298
  969POPC   C3A15953   5.296  27.444   7.950
  969POPC   C4A15954   5.124  27.482   7.524
  969POPC   C1B15955   4.785  27.447   8.603
  969POPC   C2B15956   4.840  27.413   8.169
  969POPC   C3B15957   4.689  27.518   7.792
  969POPC   C4B15958   4.737  27.846   7.470
  970POPC   NC315959  23.871   1.740   9.569
  970POPC   PO415960  23.241   2.007   9.522
  970POPC   GL115961  23.564   2.029   9.182
  970POPC   GL215962  23.636   1.679   9.114
  970POPC   C1A15963  23.760   2.236   8.799
  970POPC   D2A15964  23.988   2.136   8.411
  970POPC   C3A15965  23.727   2.142   8.013
  970POPC   C4A15966  23.610   2.304   7.575
  970POPC   C1B15967  23.904   1.736   8.770
  970POPC   C2B15968  23.860   1.637   8.354
  970POPC   C3B15969  23.786   1.649   7.924
  970POPC   C4B15970  23.619   1.797   7.566
  971POPC   NC315971  35.009  38.689   9.487
  971POPC   PO415972  34.362  38.539   9.530
  971POPC   GL115973  34.369  38.333   9.162
  971POPC   GL215974  34.733  38.368   9.163
  971POPC   C1A15975  34.433  38.430   8.738
  971POPC   D2A15976  34.322  38.746   8.476
  971POPC   C3A15977  34.472  38.601   8.136
  971POPC   C4A15978  34.238  38.495   7.808
  971POPC   C1B15979  34.920  38.295   8.797
  971POPC   C2B15980  34.941  38.510   8.446
  971POPC   C3B15981  34.974  38.362   8.036
  971POPC   C4B15982  34.757  38.536   7.722
  972POPC   NC315983  11.900  37.273   9.514
  972POPC   PO415984  12.229  36.628   9.353
  972POPC   GL115985  12.209  37.001   9.065
  972POPC   GL215986  12.521  37.233   9.102
  972POPC   C1A15987  11.971  36.902   8.656
  972POPC   D2A15988  11.896  36.471   8.421
  972POPC   C3A15989  11.931  36.572   7.977
  972POPC   C4A15990  11.906  36.981   7.768
  972POPC   C1B15991  12.395  37.264   8.647
  972POPC   C2B15992  12.248  37.199   8.212
  972POPC   C3B15993  12.398  37.269   7.772
  972POPC   C4B15994  12.197  37.128   7.366
  973POPC   NC315995  39.558  35.452   9.333
  973POPC   PO415996  40.151  35.014   9.486
  973POPC   GL115997  40.076  35.278   9.135
  973POPC   GL215998  40.061  35.636   9.138
  973POPC   C1A15999  39.891  35.302   8.735
  973POPC   D2A16000  40.057  35.412   8.351
  973POPC   C3A16001  39.813  35.574   8.024
  973POPC   C4A16002  39.875  35.217   7.812
  973POPC   C1B16003  40.331  35.588   8.753
  973POPC   C2B16004  40.442  35.740   8.333
  973POPC   C3B16005  40.343  35.519   7.932
  973POPC   C4B16006  40.255  35.386   7.506
  974POPC   NC316007  27.393   8.262   9.558
  974POPC   PO416008  27.972   8.219   9.367
  974POPC   GL116009  27.642   8.263   9.064
  974POPC   GL216010  27.321   8.061   9.120
  974POPC   C1A16011  27.725   8.328   8.610
  974POPC   D2A16012  27.881   8.021   8.294
  974POPC   C3A16013  27.651   7.931   7.923
  974POPC   C4A16014  27.512   8.277   7.738
  974POPC   C1B16015  27.448   7.912   8.731
  974POPC   C2B16016  27.341   8.068   8.340
  974POPC   C3B16017  27.153   7.918   7.975
  974POPC   C4B16018  27.294   7.865   7.507
  975POPC   NC316019   5.619   6.812   9.602
  975POPC   PO416020   5.628   7.431   9.646
  975POPC   GL116021   5.761   7.423   9.237
  975POPC   GL216022   5.604   7.119   9.168
  975POPC   C1A16023   5.712   7.570   8.813
  975POPC   D2A16024   5.601   7.468   8.392
  975POPC   C3A16025   5.846   7.486   8.056
  975POPC   C4A16026   5.955   7.701   7.706
  975POPC   C1B16027   5.703   7.070   8.736
  975POPC   C2B16028   5.786   6.991   8.306
  975POPC   C3B16029   5.622   7.050   7.901
  975POPC   C4B16030   5.805   7.087   7.462
  976POPC   NC316031   1.774   7.065   9.394
  976POPC   PO416032   2.141   7.630   9.397
  976POPC   GL116033   1.906   7.535   9.097
  976POPC   GL216034   2.118   7.243   9.026
  976POPC   C1A16035   2.049   7.700   8.721
  976POPC   D2A16036   2.251   7.689   8.330
  976POPC   C3A16037   2.076   7.455   7.967
  976POPC   C4A16038   1.866   7.566   7.578
  976POPC   C1B16039   1.853   7.238   8.665
  976POPC   C2B16040   1.726   7.142   8.249
  976POPC   C3B16041   1.628   7.157   7.805
  976POPC   C4B16042   1.834   7.085   7.395
  977POPC   NC316043  40.264   6.286   9.585
  977POPC   PO416044  40.249   5.494   9.535
  977POPC   GL116045  40.263   5.869   9.291
  977POPC   GL216046  39.916   5.939   9.202
  977POPC   C1A16047  40.270   5.949   8.843
  977POPC   D2A16048  40.223   6.104   8.414
  977POPC   C3A16049  40.091   5.853   8.061
  977POPC   C4A16050  40.084   5.773   7.641
  977POPC   C1B16051  39.788   6.104   8.757
  977POPC   C2B16052  39.688   6.081   8.291
  977POPC   C3B16053  39.645   5.990   7.842
  977POPC   C4B16054  39.594   5.676   7.511
  978POPC   NC316055  24.700  36.158   9.551
  978POPC   PO416056  24.126  36.045   9.723
  978POPC   GL116057  24.350  35.977   9.228
  978POPC   GL216058  24.692  36.172   9.056
  978POPC   C1A16059  24.441  35.870   8.751
  978POPC   D2A16060  24.743  35.920   8.396
  978POPC   C3A16061  24.592  35.934   7.976
  978POPC   C4A16062  24.285  36.153   7.751
  978POPC   C1B16063  24.872  36.436   8.726
  978POPC   C2B16064  25.065  36.308   8.315
  978POPC   C3B16065  24.922  36.335   7.898
  978POPC   C4B16066  24.922  36.739   7.748
  979POPC   NC316067  44.325  29.639   9.548
  979POPC   PO416068  44.794  30.063   9.558
  979POPC   GL116069  44.734  30.038   9.125
  979POPC   GL216070  44.644  29.673   9.151
  979POPC   C1A16071  44.830  30.221   8.705
  979POPC   D2A16072  44.858  30.314   8.256
  979POPC   C3A16073  44.792  29.982   7.956
  979POPC   C4A16074   0.021  29.894   7.533
  979POPC   C1B16075  44.509  29.768   8.752
  979POPC   C2B16076  44.742  29.731   8.403
  979POPC   C3B16077  44.850  29.490   8.037
  979POPC   C4B16078  44.633  29.594   7.653
  980POPC   NC316079  42.033   9.172   9.389
  980POPC   PO416080  42.550   8.728   9.434
  980POPC   GL116081  42.405   8.913   9.087
  980POPC   GL216082  42.102   8.792   9.054
  980POPC   C1A16083  42.658   8.932   8.710
  980POPC   D2A16084  42.625   8.739   8.290
  980POPC   C3A16085  42.481   9.000   7.953
  980POPC   C4A16086  42.482   9.247   7.570
  980POPC   C1B16087  42.174   8.844   8.617
  980POPC   C2B16088  41.994   8.885   8.225
  980POPC   C3B16089  41.838   8.716   7.823
  980POPC   C4B16090  42.111   8.789   7.465
  981POPC   NC316091  20.923  27.527   9.375
  981POPC   PO416092  21.548  27.437   9.397
  981POPC   GL116093  21.337  27.541   9.052
  981POPC   GL216094  21.108  27.270   8.978
  981POPC   C1A16095  21.446  27.601   8.639
  981POPC   D2A16096  21.226  27.646   8.273
  981POPC   C3A16097  21.475  27.545   7.933
  981POPC   C4A16098  21.501  27.419   7.511
  981POPC   C1B16099  20.926  27.481   8.661
  981POPC   C2B16100  20.820  27.342   8.236
  981POPC   C3B16101  20.986  27.431   7.820
  981POPC   C4B16102  21.041  27.561   7.380
  982POPC   NC316103  32.516  40.886   9.439
  982POPC   PO416104  31.909  40.539   9.578
  982POPC   GL116105  32.086  40.645   9.193
  982POPC   GL216106  32.344  40.388   9.262
  982POPC   C1A16107  32.153  40.940   8.824
  982POPC   D2A16108  32.008  41.021   8.385
  982POPC   C3A16109  32.197  40.990   7.958
  982POPC   C4A16110  32.007  40.806   7.578
  982POPC   C1B16111  32.383  40.452   8.820
  982POPC   C2B16112  32.464  40.675   8.432
  982POPC   C3B16113  32.407  40.525   8.018
  982POPC   C4B16114  32.468  40.613   7.611
  983POPC   NC316115  11.482  27.039   9.895
  983POPC   PO416116  11.127  26.515   9.565
  983POPC   GL116117  11.151  26.825   9.247
  983POPC   GL216118  11.430  27.031   9.264
  983POPC   C1A16119  11.366  26.720   8.855
  983POPC   D2A16120  11.444  26.529   8.475
  983POPC   C3A16121  11.323  26.757   8.115
  983POPC   C4A16122  11.240  26.611   7.740
  983POPC   C1B16123  11.612  27.191   8.869
  983POPC   C2B16124  11.683  27.269   8.417
  983POPC   C3B16125  11.533  27.232   7.990
  983POPC   C4B16126  11.327  27.111   7.603
  984POPC   NC316127   5.644  29.490   9.257
  984POPC   PO416128   5.678  30.105   9.505
  984POPC   GL116129   5.799  29.961   9.090
  984POPC   GL216130   6.094  29.759   9.097
  984POPC   C1A16131   5.908  29.922   8.641
  984POPC   D2A16132   5.943  30.274   8.372
  984POPC   C3A16133   5.680  30.235   8.056
  984POPC   C4A16134   5.702  30.005   7.667
  984POPC   C1B16135   6.316  29.576   8.760
  984POPC   C2B16136   6.251  29.568   8.342
  984POPC   C3B16137   5.951  29.725   8.057
  984POPC   C4B16138   6.148  29.777   7.676
  985POPC   NC316139  35.550  37.153   9.587
  985POPC   PO416140  35.415  36.579   9.365
  985POPC   GL116141  35.153  36.761   9.063
  985POPC   GL216142  35.302  37.081   9.125
  985POPC   C1A16143  35.218  36.707   8.618
  985POPC   D2A16144  35.585  36.626   8.374
  985POPC   C3A16145  35.588  36.860   8.010
  985POPC   C4A16146  35.319  36.836   7.632
  985POPC   C1B16147  35.169  37.239   8.734
  985POPC   C2B16148  35.261  37.224   8.301
  985POPC   C3B16149  35.255  37.313   7.858
  985POPC   C4B16150  35.661  37.238   7.678
  986POPC   NC316151  39.710  25.058   9.316
  986POPC   PO416152  39.899  24.487   9.676
  986POPC   GL116153  39.964  24.581   9.199
  986POPC   GL216154  40.133  24.917   9.048
  986POPC   C1A16155  40.185  24.430   8.814
  986POPC   D2A16156  40.108  24.218   8.431
  986POPC   C3A16157  40.140  24.398   8.040
  986POPC   C4A16158  39.939  24.315   7.672
  986POPC   C1B16159  39.827  24.783   8.713
  986POPC   C2B16160  39.767  24.625   8.294
  986POPC   C3B16161  39.818  24.779   7.861
  986POPC   C4B16162  39.767  24.835   7.379
  987POPC   NC316163   3.698  15.483   9.444
  987POPC   PO416164   4.307  15.329   9.764
  987POPC   GL116165   4.149  15.123   9.362
  987POPC   GL216166   4.136  15.417   9.180
  987POPC   C1A16167   4.202  14.971   8.898
  987POPC   D2A16168   4.183  15.175   8.471
  987POPC   C3A16169   4.305  15.011   8.085
  987POPC   C4A16170   4.193  15.089   7.671
  987POPC   C1B16171   4.003  15.547   8.807
  987POPC   C2B16172   3.806  15.500   8.413
  987POPC   C3B16173   4.070  15.477   8.044
  987POPC   C4B16174   3.930  15.560   7.687
  988POPC   NC316175  21.412  39.842   9.644
  988POPC   PO416176  21.058  40.327   9.317
  988POPC   GL116177  21.215  39.914   9.151
  988POPC   GL216178  21.529  39.897   9.062
  988POPC   C1A16179  21.217  39.689   8.738
  988POPC   D2A16180  21.093  39.836   8.323
  988POPC   C3A16181  21.302  40.063   7.981
  988POPC   C4A16182  21.240  40.041   7.517
  988POPC   C1B16183  21.368  40.156   8.694
  988POPC   C2B16184  21.533  40.441   8.428
  988POPC   C3B16185  21.549  40.522   8.030
  988POPC   C4B16186  21.632  40.314   7.654
  989POPC   NC316187  41.869  23.789   9.481
  989POPC   PO416188  41.348  23.401   9.395
  989POPC   GL116189  41.446  23.777   9.071
  989POPC   GL216190  41.792  23.982   9.032
  989POPC   C1A16191  41.569  23.847   8.605
  989POPC   D2A16192  41.661  23.554   8.285
  989POPC   C3A16193  41.272  23.527   8.041
  989POPC   C4A16194  41.439  23.631   7.668
  989POPC   C1B16195  41.781  24.296   8.687
  989POPC   C2B16196  41.508  24.323   8.334
  989POPC   C3B16197  41.527  24.003   8.046
  989POPC   C4B16198  41.841  23.984   7.745
  990POPC   NC316199  36.202  17.880   9.405
  990POPC   PO416200  36.268  17.220   9.446
  990POPC   GL116201  36.333  17.464   9.110
  990POPC   GL216202  36.099  17.214   8.949
  990POPC   C1A16203  36.197  17.664   8.736
  990POPC   D2A16204  36.256  17.384   8.399
  990POPC   C3A16205  36.342  17.587   8.017
  990POPC   C4A16206  36.058  17.767   7.737
  990POPC   C1B16207  35.792  17.324   8.661
  990POPC   C2B16208  35.780  17.316   8.211
  990POPC   C3B16209  35.984  17.259   7.840
  990POPC   C4B16210  35.900  17.010   7.504
  991POPC   NC316211  35.612  14.854   9.435
  991POPC   PO416212  35.055  15.208   9.415
  991POPC   GL116213  35.158  15.373   9.039
  991POPC   GL216214  35.481  15.237   9.105
  991POPC   C1A16215  35.274  15.271   8.613
  991POPC   D2A16216  35.223  14.900   8.351
  991POPC   C3A16217  35.172  15.074   7.941
  991POPC   C4A16218  35.322  15.479   7.787
  991POPC   C1B16219  35.616  14.946   8.776
  991POPC   C2B16220  35.738  15.109   8.361
  991POPC   C3B16221  35.684  15.075   7.917
  991POPC   C4B16222  35.461  14.695   7.773
  992POPC   NC316223  35.654  43.414   9.469
  992POPC   PO416224  35.336  42.809   9.449
  992POPC   GL116225  35.333  42.998   9.091
  992POPC   GL216226  35.390  43.347   9.035
  992POPC   C1A16227  35.536  42.996   8.703
  992POPC   D2A16228  35.599  42.719   8.413
  992POPC   C3A16229  35.405  42.775   8.043
  992POPC   C4A16230  35.251  43.102   7.746
  992POPC   C1B16231  35.085  43.241   8.721
  992POPC   C2B16232  35.256  43.190   8.300
  992POPC   C3B16233  35.466  43.449   8.069
  992POPC   C4B16234  35.553  43.539   7.689
  993POPC   NC316235  35.319   9.159   9.583
  993POPC   PO416236  35.911   8.913   9.518
  993POPC   GL116237  35.593   9.025   9.139
  993POPC   GL216238  35.208   9.027   9.108
  993POPC   C1A16239  35.485   9.025   8.673
  993POPC   D2A16240  35.499   8.808   8.263
  993POPC   C3A16241  35.437   8.985   7.850
  993POPC   C4A16242  35.525   8.735   7.497
  993POPC   C1B16243  35.038   8.721   8.846
  993POPC   C2B16244  34.992   8.835   8.416
  993POPC   C3B16245  35.037   8.710   7.987
  993POPC   C4B16246  35.039   8.697   7.552
  994POPC   NC316247   1.473  37.289   9.405
  994POPC   PO416248   2.146  36.976   9.398
  994POPC   GL116249   1.812  37.006   9.084
  994POPC   GL216250   1.688  37.315   8.943
  994POPC   C1A16251   1.834  36.933   8.624
  994POPC   D2A16252   1.805  36.547   8.367
  994POPC   C3A16253   1.976  36.599   7.952
  994POPC   C4A16254   1.944  36.760   7.527
  994POPC   C1B16255   2.133  37.316   8.817
  994POPC   C2B16256   2.308  37.285   8.427
  994POPC   C3B16257   2.074  37.066   8.129
  994POPC   C4B16258   2.274  37.067   7.745
  995POPC   NC316259  19.313  38.831   9.439
  995POPC   PO416260  18.872  38.550   9.782
  995POPC   GL116261  18.907  38.554   9.279
  995POPC   GL216262  19.149  38.316   9.146
  995POPC   C1A16263  19.066  38.730   8.833
  995POPC   D2A16264  19.075  38.819   8.382
  995POPC   C3A16265  18.977  38.593   8.003
  995POPC   C4A16266  18.944  38.592   7.552
  995POPC   C1B16267  19.257  38.287   8.698
  995POPC   C2B16268  19.203  38.208   8.279
  995POPC   C3B16269  19.395  38.243   7.903
  995POPC   C4B16270  19.198  38.162   7.601
  996POPC   NC316271  11.150  40.472   9.386
  996POPC   PO416272  11.583  40.823   9.662
  996POPC   GL116273  11.570  40.778   9.205
  996POPC   GL216274  11.522  41.103   9.054
  996POPC   C1A16275  11.445  40.596   8.786
  996POPC   D2A16276  11.506  40.483   8.348
  996POPC   C3A16277  11.319  40.790   8.046
  996POPC   C4A16278  11.355  40.675   7.634
  996POPC   C1B16279  11.195  41.047   8.692
  996POPC   C2B16280  10.955  41.116   8.291
  996POPC   C3B16281  10.980  41.105   7.823
  996POPC   C4B16282  11.134  41.095   7.388
  997POPC   NC316283  10.302   5.595   9.476
  997POPC   PO416284  10.837   5.944   9.689
  997POPC   GL116285  10.683   5.840   9.248
  997POPC   GL216286  10.355   6.012   9.179
  997POPC   C1A16287  10.863   5.715   8.842
  997POPC   D2A16288  10.671   5.762   8.422
  997POPC   C3A16289  10.851   5.562   8.051
  997POPC   C4A16290  10.896   5.803   7.711
  997POPC   C1B16291  10.169   6.088   8.767
  997POPC   C2B16292  10.139   6.022   8.329
  997POPC   C3B16293  10.138   6.143   7.883
  997POPC   C4B16294  10.425   5.962   7.547
  998POPC   NC316295  14.992   4.208   9.930
  998POPC   PO416296  15.447   4.538   9.597
  998POPC   GL116297  15.264   4.442   9.196
  998POPC   GL216298  14.973   4.253   9.253
  998POPC   C1A16299  15.330   4.521   8.752
  998POPC   D2A16300  15.529   4.763   8.394
  998POPC   C3A16301  15.478   4.468   8.053
  998POPC   C4A16302  15.457   4.021   7.921
  998POPC   C1B16303  14.818   4.420   8.842
  998POPC   C2B16304  14.836   4.226   8.431
  998POPC   C3B16305  15.002   4.232   8.048
  998POPC   C4B16306  14.966   4.520   7.769
  999POPC   NC316307   2.575  43.566   9.398
  999POPC   PO416308   3.010  43.062   9.581
  999POPC   GL116309   2.812  43.040   9.184
  999POPC   GL216310   2.911  43.353   9.073
  999POPC   C1A16311   2.604  42.970   8.794
  999POPC   D2A16312   2.710  42.939   8.377
  999POPC   C3A16313   2.498  43.069   8.014
  999POPC   C4A16314   2.594  43.005   7.586
  999POPC   C1B16315   2.840  43.382   8.638
  999POPC   C2B16316   2.706  43.483   8.213
  999POPC   C3B16317   2.830  43.400   7.776
  999POPC   C4B16318   2.620  43.499   7.342
 1000POPC   NC316319  34.828   8.581   9.520
 1000POPC   PO416320  34.781   9.236   9.568
 1000POPC   GL116321  34.687   8.951   9.189
 1000POPC   GL216322  34.438   8.659   9.133
 1000POPC   C1A16323  34.686   9.092   8.777
 1000POPC   D2A16324  34.491   9.183   8.402
 1000POPC   C3A16325  34.755   9.228   8.037
 1000POPC   C4A16326  34.779   9.119   7.594
 1000POPC   C1B16327  34.565   8.594   8.679
 1000POPC   C2B16328  34.597   8.580   8.219
 1000POPC   C3B16329  34.567   8.678   7.765
 1000POPC   C4B16330  34.596   8.761   7.289
 1001POPC   NC316331   4.450  30.746   9.806
 1001POPC   PO416332   4.119  30.301   9.475
 1001POPC   GL116333   4.428  30.530   9.223
 1001POPC   GL216334   4.288  30.823   9.035
 1001POPC   C1A16335   4.620  30.555   8.801
 1001POPC   D2A16336   4.375  30.803   8.514
 1001POPC   C3A16337   4.508  30.870   8.110
 1001POPC   C4A16338   4.377  30.534   7.854
 1001POPC   C1B16339   4.025  31.109   8.815
 1001POPC   C2B16340   4.029  31.165   8.397
 1001POPC   C3B16341   4.001  30.878   8.030
 1001POPC   C4B16342   4.244  30.954   7.637
 1002POPC   NC316343   0.892  15.939   9.500
 1002POPC   PO416344   1.583  15.712   9.546
 1002POPC   GL116345   1.351  15.865   9.139
 1002POPC   GL216346   1.104  16.161   9.062
 1002POPC   C1A16347   1.215  15.844   8.668
 1002POPC   D2A16348   1.351  15.824   8.196
 1002POPC   C3A16349   1.057  15.602   7.897
 1002POPC   C4A16350   0.892  15.405   7.497
 1002POPC   C1B16351   1.007  16.436   8.727
 1002POPC   C2B16352   0.917  16.380   8.284
 1002POPC   C3B16353   1.109  16.170   7.901
 1002POPC   C4B16354   1.554  16.181   7.753
 1003POPC   NC316355  26.944  19.745   9.525
 1003POPC   PO416356  27.448  19.438   9.183
 1003POPC   GL116357  27.057  19.643   9.004
 1003POPC   GL216358  26.965  19.991   9.097
 1003POPC   C1A16359  26.664  19.582   8.722
 1003POPC   D2A16360  26.469  19.869   8.390
 1003POPC   C3A16361  26.391  19.805   7.936
 1003POPC   C4A16362  26.475  19.585   7.530
 1003POPC   C1B16363  26.823  20.074   8.713
 1003POPC   C2B16364  26.982  19.976   8.335
 1003POPC   C3B16365  26.852  20.033   7.948
 1003POPC   C4B16366  26.925  19.797   7.613
 1004POPC   NC316367  22.197  19.272   9.825
 1004POPC   PO416368  22.282  19.946   9.605
 1004POPC   GL116369  22.250  19.819   9.201
 1004POPC   GL216370  22.529  19.675   9.097
 1004POPC   C1A16371  22.218  19.993   8.802
 1004POPC   D2A16372  21.971  20.073   8.437
 1004POPC   C3A16373  22.191  19.929   8.074
 1004POPC   C4A16374  22.414  19.927   7.685
 1004POPC   C1B16375  22.400  19.525   8.670
 1004POPC   C2B16376  22.129  19.401   8.323
 1004POPC   C3B16377  21.825  19.573   8.028
 1004POPC   C4B16378  21.915  19.732   7.644
 1005POPC   NC316379   1.720  11.628   9.492
 1005POPC   PO416380   1.833  10.992   9.470
 1005POPC   GL116381   2.073  11.176   9.140
 1005POPC   GL216382   2.070  11.523   9.122
 1005POPC   C1A16383   2.161  11.232   8.703
 1005POPC   D2A16384   1.974  11.460   8.384
 1005POPC   C3A16385   1.967  11.232   8.019
 1005POPC   C4A16386   1.949  11.035   7.641
 1005POPC   C1B16387   1.818  11.726   8.807
 1005POPC   C2B16388   1.574  11.781   8.393
 1005POPC   C3B16389   1.721  11.908   8.016
 1005POPC   C4B16390   2.091  11.716   7.912
 1006POPC   NC316391  37.250  26.712   9.762
 1006POPC   PO416392  36.835  27.222   9.661
 1006POPC   GL116393  37.046  26.952   9.316
 1006POPC   GL216394  37.299  27.074   9.087
 1006POPC   C1A16395  36.918  26.827   8.860
 1006POPC   D2A16396  36.914  27.005   8.405
 1006POPC   C3A16397  36.699  26.850   8.053
 1006POPC   C4A16398  36.651  26.892   7.602
 1006POPC   C1B16399  37.364  26.901   8.624
 1006POPC   C2B16400  37.372  26.922   8.156
 1006POPC   C3B16401  37.131  26.867   7.785
 1006POPC   C4B16402  37.095  26.859   7.342
 1007POPC   NC316403  13.768  19.093   9.486
 1007POPC   PO416404  13.182  19.049   9.173
 1007POPC   GL116405  13.584  19.015   9.019
 1007POPC   GL216406  13.722  19.342   9.029
 1007POPC   C1A16407  13.757  18.891   8.654
 1007POPC   D2A16408  13.658  18.864   8.204
 1007POPC   C3A16409  13.529  18.755   7.801
 1007POPC   C4A16410  13.793  18.880   7.511
 1007POPC   C1B16411  14.026  19.323   8.718
 1007POPC   C2B16412  14.082  19.119   8.333
 1007POPC   C3B16413  14.027  19.105   7.901
 1007POPC   C4B16414  13.983  19.491   7.696
 1008POPC   NC316415  34.936  35.336   9.402
 1008POPC   PO416416  34.263  35.213   9.375
 1008POPC   GL116417  34.519  35.520   9.113
 1008POPC   GL216418  34.857  35.575   8.959
 1008POPC   C1A16419  34.435  35.502   8.676
 1008POPC   D2A16420  34.507  35.666   8.274
 1008POPC   C3A16421  34.428  35.279   8.067
 1008POPC   C4A16422  34.244  35.123   7.711
 1008POPC   C1B16423  34.975  35.201   8.738
 1008POPC   C2B16424  34.993  35.030   8.316
 1008POPC   C3B16425  34.931  35.263   7.956
 1008POPC   C4B16426  34.738  35.292   7.584
 1009POPC   NC316427  43.584   3.665   9.530
 1009POPC   PO416428  42.959   3.504   9.497
 1009POPC   GL116429  43.182   3.637   9.192
 1009POPC   GL216430  43.012   3.904   9.055
 1009POPC   C1A16431  43.479   3.710   8.895
 1009POPC   D2A16432  43.509   3.458   8.552
 1009POPC   C3A16433  43.414   3.578   8.166
 1009POPC   C4A16434  43.304   3.280   7.861
 1009POPC   C1B16435  43.015   3.674   8.692
 1009POPC   C2B16436  42.954   3.788   8.282
 1009POPC   C3B16437  42.902   3.602   7.899
 1009POPC   C4B16438  42.907   3.589   7.442
 1010POPC   NC316439   8.801   5.356   9.465
 1010POPC   PO416440   8.638   6.011   9.432
 1010POPC   GL116441   8.897   5.901   9.093
 1010POPC   GL216442   9.091   5.592   9.135
 1010POPC   C1A16443   8.866   5.804   8.669
 1010POPC   D2A16444   8.905   5.813   8.228
 1010POPC   C3A16445   8.988   6.057   7.910
 1010POPC   C4A16446   8.715   5.883   7.646
 1010POPC   C1B16447   9.381   5.569   8.833
 1010POPC   C2B16448   9.232   5.481   8.435
 1010POPC   C3B16449   9.344   5.611   8.040
 1010POPC   C4B16450   9.136   5.611   7.685
 1011POPC   NC316451   2.359  20.309   9.529
 1011POPC   PO416452   1.987  20.871   9.397
 1011POPC   GL116453   2.097  20.725   9.037
 1011POPC   GL216454   2.170  20.391   9.057
 1011POPC   C1A16455   2.054  20.677   8.612
 1011POPC   D2A16456   1.969  20.624   8.220
 1011POPC   C3A16457   2.238  20.677   7.931
 1011POPC   C4A16458   2.110  20.918   7.623
 1011POPC   C1B16459   1.856  20.244   8.755
 1011POPC   C2B16460   2.005  20.134   8.365
 1011POPC   C3B16461   1.766  20.178   8.004
 1011POPC   C4B16462   1.761  20.532   7.760
 1012POPC   NC316463  11.443  15.372   9.541
 1012POPC   PO416464  11.137  14.876   9.493
 1012POPC   GL116465  11.291  15.097   9.130
 1012POPC   GL216466  11.616  14.996   9.172
 1012POPC   C1A16467  11.284  15.338   8.701
 1012POPC   D2A16468  11.586  15.467   8.348
 1012POPC   C3A16469  11.450  15.416   7.920
 1012POPC   C4A16470  11.129  15.114   7.838
 1012POPC   C1B16471  11.751  15.192   8.787
 1012POPC   C2B16472  11.923  15.091   8.389
 1012POPC   C3B16473  11.814  15.064   7.956
 1012POPC   C4B16474  11.592  15.045   7.543
 1013POPC   NC316475  18.823  19.803   9.382
 1013POPC   PO416476  19.484  20.114   9.530
 1013POPC   GL116477  19.342  19.985   9.100
 1013POPC   GL216478  19.070  20.195   9.129
 1013POPC   C1A16479  19.450  19.876   8.634
 1013POPC   D2A16480  19.232  19.581   8.285
 1013POPC   C3A16481  19.250  19.509   7.816
 1013POPC   C4A16482  19.018  19.711   7.441
 1013POPC   C1B16483  18.988  20.120   8.709
 1013POPC   C2B16484  19.148  20.111   8.299
 1013POPC   C3B16485  19.122  19.983   7.893
 1013POPC   C4B16486  19.195  20.174   7.515
 1014POPC   NC316487   7.608  31.819   9.390
 1014POPC   PO416488   7.020  31.406   9.500
 1014POPC   GL116489   7.200  31.521   9.143
 1014POPC   GL216490   7.537  31.402   9.081
 1014POPC   C1A16491   7.279  31.739   8.755
 1014POPC   D2A16492   7.338  31.592   8.390
 1014POPC   C3A16493   7.163  31.812   8.096
 1014POPC   C4A16494   7.487  31.654   7.864
 1014POPC   C1B16495   7.301  31.220   8.750
 1014POPC   C2B16496   7.418  31.057   8.375
 1014POPC   C3B16497   7.624  31.171   8.022
 1014POPC   C4B16498   7.400  31.197   7.653
 1015POPC   NC316499   3.373  36.508   9.761
 1015POPC   PO416500   3.569  36.030   9.406
 1015POPC   GL116501   3.826  35.832   9.077
 1015POPC   GL216502   3.500  35.855   8.920
 1015POPC   C1A16503   3.834  35.707   8.602
 1015POPC   D2A16504   3.501  35.938   8.399
 1015POPC   C3A16505   3.592  36.101   7.975
 1015POPC   C4A16506   3.686  36.484   7.754
 1015POPC   C1B16507   3.256  36.280   8.800
 1015POPC   C2B16508   3.265  36.435   8.355
 1015POPC   C3B16509   3.182  36.396   7.889
 1015POPC   C4B16510   3.364  36.177   7.488
 1016POPC   NC316511  12.200  28.780   9.538
 1016POPC   PO416512  11.833  29.388   9.619
 1016POPC   GL116513  12.097  29.360   9.231
 1016POPC   GL216514  12.019  29.033   9.136
 1016POPC   C1A16515  12.305  29.278   8.805
 1016POPC   D2A16516  12.203  29.113   8.410
 1016POPC   C3A16517  12.356  29.211   8.007
 1016POPC   C4A16518  12.062  29.252   7.699
 1016POPC   C1B16519  11.809  28.990   8.734
 1016POPC   C2B16520  11.777  28.831   8.308
 1016POPC   C3B16521  11.693  28.937   7.881
 1016POPC   C4B16522  11.912  28.807   7.487
 1017POPC   NC316523  39.224  19.606   9.499
 1017POPC   PO416524  39.283  20.308   9.470
 1017POPC   GL116525  39.258  20.014   9.145
 1017POPC   GL216526  39.608  19.920   9.092
 1017POPC   C1A16527  39.192  19.709   8.821
 1017POPC   D2A16528  39.087  19.525   8.420
 1017POPC   C3A16529  39.016  19.688   8.013
 1017POPC   C4A16530  39.082  19.762   7.589
 1017POPC   C1B16531  39.691  19.720   8.669
 1017POPC   C2B16532  39.577  19.663   8.222
 1017POPC   C3B16533  39.526  19.665   7.791
 1017POPC   C4B16534  39.467  19.479   7.370
 1018POPC   NC316535  12.570  41.203   9.514
 1018POPC   PO416536  13.201  41.247   9.366
 1018POPC   GL116537  12.851  41.190   9.050
 1018POPC   GL216538  12.547  40.994   9.060
 1018POPC   C1A16539  12.921  41.227   8.607
 1018POPC   D2A16540  13.191  41.232   8.215
 1018POPC   C3A16541  12.954  41.414   7.854
 1018POPC   C4A16542  12.664  41.777   7.947
 1018POPC   C1B16543  12.334  41.212   8.761
 1018POPC   C2B16544  12.489  41.475   8.436
 1018POPC   C3B16545  12.487  41.311   8.053
 1018POPC   C4B16546  12.419  41.404   7.639
 1019POPC   NC316547   2.464  42.048   9.464
 1019POPC   PO416548   1.832  41.892   9.499
 1019POPC   GL116549   2.074  42.115   9.157
 1019POPC   GL216550   1.932  42.406   9.023
 1019POPC   C1A16551   2.203  42.019   8.737
 1019POPC   D2A16552   1.954  42.249   8.452
 1019POPC   C3A16553   2.041  42.357   8.041
 1019POPC   C4A16554   2.009  42.184   7.679
 1019POPC   C1B16555   1.835  42.680   8.668
 1019POPC   C2B16556   1.626  42.619   8.237
 1019POPC   C3B16557   1.681  42.627   7.742
 1019POPC   C4B16558   1.794  42.850   7.303
 1020POPC   NC316559  44.161  34.524   9.327
 1020POPC   PO416560  43.585  34.218   9.592
 1020POPC   GL116561  43.661  34.420   9.139
 1020POPC   GL216562  43.806  34.770   9.083
 1020POPC   C1A16563  43.907  34.449   8.704
 1020POPC   D2A16564  44.078  34.168   8.444
 1020POPC   C3A16565  44.207  34.306   8.058
 1020POPC   C4A16566  43.903  34.495   7.825
 1020POPC   C1B16567  43.824  34.945   8.674
 1020POPC   C2B16568  43.692  34.733   8.265
 1020POPC   C3B16569  43.622  34.897   7.858
 1020POPC   C4B16570  43.683  35.086   7.439
 1021POPC   NC316571  20.087  38.814   9.550
 1021POPC   PO416572  19.588  38.334   9.453
 1021POPC   GL116573  19.840  38.554   9.175
 1021POPC   GL216574  19.545  38.635   9.010
 1021POPC   C1A16575  19.949  38.423   8.757
 1021POPC   D2A16576  19.706  38.227   8.417
 1021POPC   C3A16577  19.899  38.257   8.021
 1021POPC   C4A16578  19.844  38.577   7.738
 1021POPC   C1B16579  19.555  38.709   8.583
 1021POPC   C2B16580  19.513  38.646   8.168
 1021POPC   C3B16581  19.387  38.750   7.748
 1021POPC   C4B16582  19.575  38.670   7.296
 1022POPC   NC316583  32.392  34.832   9.652
 1022POPC   PO416584  32.406  34.178   9.537
 1022POPC   GL116585  32.396  34.496   9.210
 1022POPC   GL216586  32.041  34.619   9.214
 1022POPC   C1A16587  32.488  34.485   8.756
 1022POPC   D2A16588  32.208  34.368   8.390
 1022POPC   C3A16589  32.260  34.615   8.052
 1022POPC   C4A16590  32.652  34.537   7.874
 1022POPC   C1B16591  31.914  34.581   8.745
 1022POPC   C2B16592  31.850  34.819   8.334
 1022POPC   C3B16593  31.905  35.000   7.904
 1022POPC   C4B16594  31.860  34.858   7.494
 1023POPC   NC316595  20.139  42.937   9.519
 1023POPC   PO416596  19.597  43.387   9.352
 1023POPC   GL116597  19.965  43.190   9.108
 1023POPC   GL216598  20.032  42.813   9.048
 1023POPC   C1A16599  20.100  43.176   8.691
 1023POPC   D2A16600  19.861  43.128   8.327
 1023POPC   C3A16601  19.894  43.430   8.006
 1023POPC   C4A16602  20.058  43.329   7.610
 1023POPC   C1B16603  19.656  42.853   8.796
 1023POPC   C2B16604  19.626  42.655   8.384
 1023POPC   C3B16605  19.673  42.783   7.940
 1023POPC   C4B16606  20.009  42.821   7.611
 1024POPC   NC316607  44.325  36.078   9.414
 1024POPC   PO416608  43.705  36.145   9.499
 1024POPC   GL116609  43.909  36.126   9.117
 1024POPC   GL216610  44.061  35.789   9.088
 1024POPC   C1A16611  44.005  36.275   8.699
 1024POPC   D2A16612  43.859  36.118   8.316
 1024POPC   C3A16613  43.721  36.349   8.010
 1024POPC   C4A16614  43.975  36.559   7.725
 1024POPC   C1B16615  43.768  35.812   8.735
 1024POPC   C2B16616  43.743  35.627   8.341
 1024POPC   C3B16617  43.748  35.771   7.944
 1024POPC   C4B16618  43.994  35.999   7.676
 1025POPC   NC316619  16.381  14.489   9.520
 1025POPC   PO416620  15.851  14.317   9.522
 1025POPC   GL116621  15.886  14.436   9.073
 1025POPC   GL216622  16.203  14.608   9.038
 1025POPC   C1A16623  15.725  14.391   8.624
 1025POPC   D2A16624  15.670  14.165   8.218
 1025POPC   C3A16625  15.594  14.437   7.893
 1025POPC   C4A16626  15.750  14.701   7.616
 1025POPC   C1B16627  16.253  14.481   8.603
 1025POPC   C2B16628  16.184  14.177   8.268
 1025POPC   C3B16629  16.058  14.231   7.839
 1025POPC   C4B16630  16.189  14.368   7.433
 1026POPC   NC316631  42.513  11.572   9.115
 1026POPC   PO416632  42.371  11.026   9.518
 1026POPC   GL116633  42.161  11.191   9.108
 1026POPC   GL216634  42.022  11.569   9.059
 1026POPC   C1A16635  42.282  11.111   8.647
 1026POPC   D2A16636  42.372  11.390   8.271
 1026POPC   C3A16637  42.487  11.232   7.874
 1026POPC   C4A16638  42.249  11.099   7.478
 1026POPC   C1B16639  42.049  11.590   8.625
 1026POPC   C2B16640  41.808  11.420   8.295
 1026POPC   C3B16641  41.984  11.345   7.897
 1026POPC   C4B16642  42.255  11.598   7.643
 1027POPC   NC316643  24.800   0.280   9.341
 1027POPC   PO416644  25.437   0.679   9.505
 1027POPC   GL116645  25.582   0.452   9.177
 1027POPC   GL216646  25.292   0.239   9.120
 1027POPC   C1A16647  25.696   0.255   8.791
 1027POPC   D2A16648  25.532   0.234   8.398
 1027POPC   C3A16649  25.689   0.371   8.013
 1027POPC   C4A16650  25.498   0.489   7.647
 1027POPC   C1B16651  25.069   0.255   8.712
 1027POPC   C2B16652  25.050   0.174   8.272
 1027POPC   C3B16653  24.980   0.367   7.850
 1027POPC   C4B16654  24.675   0.150   7.539
 1028POPC   NC316655  39.969  16.606   9.589
 1028POPC   PO416656  39.810  17.229   9.632
 1028POPC   GL116657  39.752  16.993   9.202
 1028POPC   GL216658  39.979  16.645   9.078
 1028POPC   C1A16659  39.758  16.948   8.753
 1028POPC   D2A16660  39.724  17.169   8.362
 1028POPC   C3A16661  39.860  16.975   7.991
 1028POPC   C4A16662  39.644  16.875   7.615
 1028POPC   C1B16663  40.191  16.445   8.674
 1028POPC   C2B16664  40.173  16.528   8.178
 1028POPC   C3B16665  40.027  16.537   7.712
 1028POPC   C4B16666  40.172  16.320   7.326
 1029POPC   NC316667   0.409  38.092   9.546
 1029POPC   PO416668   0.264  38.816   9.615
 1029POPC   GL116669   0.387  38.517   9.269
 1029POPC   GL216670   0.135  38.578   9.031
 1029POPC   C1A16671   0.587  38.499   8.853
 1029POPC   D2A16672   0.335  38.649   8.546
 1029POPC   C3A16673   0.392  38.550   8.140
 1029POPC   C4A16674   0.476  38.498   7.727
 1029POPC   C1B16675   0.131  38.220   8.731
 1029POPC   C2B16676   0.323  38.085   8.372
 1029POPC   C3B16677   0.218  38.075   7.963
 1029POPC   C4B16678  44.982  38.347   7.736
 1030POPC   NC316679  37.398  39.216   9.778
 1030POPC   PO416680  37.862  39.506   9.443
 1030POPC   GL116681  37.702  39.250   9.146
 1030POPC   GL216682  38.050  39.231   9.043
 1030POPC   C1A16683  37.689  39.025   8.751
 1030POPC   D2A16684  37.774  38.894   8.317
 1030POPC   C3A16685  37.540  38.992   7.966
 1030POPC   C4A16686  37.575  39.354   7.722
 1030POPC   C1B16687  38.011  39.631   8.822
 1030POPC   C2B16688  38.098  39.639   8.407
 1030POPC   C3B16689  37.878  39.406   8.132
 1030POPC   C4B16690  38.029  39.155   7.817
 1031POPC   NC316691  17.844  18.141   9.532
 1031POPC   PO416692  18.460  18.491   9.471
 1031POPC   GL116693  18.180  18.318   9.183
 1031POPC   GL216694  18.118  17.961   9.146
 1031POPC   C1A16695  18.157  18.313   8.754
 1031POPC   D2A16696  18.338  18.533   8.434
 1031POPC   C3A16697  18.172  18.415   8.059
 1031POPC   C4A16698  18.183  18.247   7.620
 1031POPC   C1B16699  17.897  17.867   8.772
 1031POPC   C2B16700  17.791  18.116   8.418
 1031POPC   C3B16701  17.824  18.064   7.979
 1031POPC   C4B16702  17.925  17.784   7.683
 1032POPC   NC316703  34.366   9.461   9.561
 1032POPC   PO416704  34.489  10.180   9.569
 1032POPC   GL116705  34.487   9.831   9.209
 1032POPC   GL216706  34.648   9.471   9.144
 1032POPC   C1A16707  34.686   9.808   8.787
 1032POPC   D2A16708  34.708  10.019   8.419
 1032POPC   C3A16709  34.707   9.769   8.080
 1032POPC   C4A16710  34.630   9.994   7.717
 1032POPC   C1B16711  34.300   9.453   8.860
 1032POPC   C2B16712  34.262   9.699   8.484
 1032POPC   C3B16713  34.268   9.528   8.088
 1032POPC   C4B16714  34.456   9.502   7.693
 1033POPC   NC316715  11.274   7.540  10.002
 1033POPC   PO416716  11.575   7.446   9.362
 1033POPC   GL116717  11.268   7.407   9.054
 1033POPC   GL216718  11.546   7.441   8.830
 1033POPC   C1A16719  11.142   7.183   8.677
 1033POPC   D2A16720  11.457   7.272   8.337
 1033POPC   C3A16721  11.377   7.057   7.939
 1033POPC   C4A16722  11.316   7.251   7.539
 1033POPC   C1B16723  11.191   7.737   8.698
 1033POPC   C2B16724  10.997   7.589   8.347
 1033POPC   C3B16725  11.224   7.576   7.990
 1033POPC   C4B16726  11.090   7.710   7.629
 1034POPC   NC316727  15.501   6.657   9.884
 1034POPC   PO416728  15.051   6.780   9.428
 1034POPC   GL116729  15.148   7.028   9.075
 1034POPC   GL216730  15.489   6.872   9.068
 1034POPC   C1A16731  15.241   6.935   8.641
 1034POPC   D2A16732  15.392   6.741   8.283
 1034POPC   C3A16733  15.144   6.867   7.908
 1034POPC   C4A16734  14.974   6.508   7.773
 1034POPC   C1B16735  15.390   6.466   8.843
 1034POPC   C2B16736  15.209   6.271   8.447
 1034POPC   C3B16737  15.346   6.283   8.028
 1034POPC   C4B16738  15.560   6.586   7.815
 1035POPC   NC316739  23.395  41.926   9.557
 1035POPC   PO416740  23.830  42.516   9.464
 1035POPC   GL116741  23.500  42.340   9.224
 1035POPC   GL216742  23.625  42.584   8.986
 1035POPC   C1A16743  23.403  42.189   8.803
 1035POPC   D2A16744  23.496  42.427   8.447
 1035POPC   C3A16745  23.304  42.254   8.094
 1035POPC   C4A16746  23.448  42.079   7.706
 1035POPC   C1B16747  23.899  42.283   8.777
 1035POPC   C2B16748  24.095  42.223   8.389
 1035POPC   C3B16749  23.909  42.483   8.096
 1035POPC   C4B16750  23.644  42.539   7.773
 1036POPC   NC316751  30.516  30.687   9.535
 1036POPC   PO416752  31.117  30.606   9.678
 1036POPC   GL116753  30.942  30.650   9.265
 1036POPC   GL216754  30.960  30.940   9.072
 1036POPC   C1A16755  30.855  30.441   8.900
 1036POPC   D2A16756  30.938  30.421   8.455
 1036POPC   C3A16757  30.658  30.616   8.165
 1036POPC   C4A16758  30.680  30.484   7.731
 1036POPC   C1B16759  30.844  30.884   8.649
 1036POPC   C2B16760  31.072  30.901   8.267
 1036POPC   C3B16761  31.103  30.730   7.875
 1036POPC   C4B16762  30.981  30.806   7.473
 1037POPC   NC316763   2.359  14.691   9.404
 1037POPC   PO416764   2.962  14.277   9.463
 1037POPC   GL116765   2.627  14.301   9.148
 1037POPC   GL216766   2.717  14.630   9.043
 1037POPC   C1A16767   2.559  14.335   8.689
 1037POPC   D2A16768   2.821  14.682   8.517
 1037POPC   C3A16769   2.973  14.605   8.116
 1037POPC   C4A16770   2.795  14.479   7.716
 1037POPC   C1B16771   2.399  14.834   8.782
 1037POPC   C2B16772   2.438  15.085   8.408
 1037POPC   C3B16773   2.500  14.871   8.022
 1037POPC   C4B16774   2.369  14.716   7.626
 1038POPC   NC316775  28.656   4.204   9.549
 1038POPC   PO416776  28.036   4.252   9.586
 1038POPC   GL116777  28.174   4.417   9.172
 1038POPC   GL216778  28.531   4.515   9.150
 1038POPC   C1A16779  28.224   4.548   8.707
 1038POPC   D2A16780  28.045   4.516   8.287
 1038POPC   C3A16781  28.282   4.352   7.952
 1038POPC   C4A16782  28.322   4.510   7.537
 1038POPC   C1B16783  28.514   4.159   8.863
 1038POPC   C2B16784  28.519   4.018   8.434
 1038POPC   C3B16785  28.727   4.047   8.033
 1038POPC   C4B16786  28.619   4.096   7.607
 1039POPC   NC316787  19.562  25.214   9.477
 1039POPC   PO416788  18.969  25.403   9.572
 1039POPC   GL116789  19.160  25.394   9.203
 1039POPC   GL216790  18.896  25.380   8.980
 1039POPC   C1A16791  19.341  25.158   8.849
 1039POPC   D2A16792  19.360  25.057   8.426
 1039POPC   C3A16793  19.336  25.353   8.093
 1039POPC   C4A16794  19.067  25.283   7.824
 1039POPC   C1B16795  18.854  24.968   8.751
 1039POPC   C2B16796  18.942  24.759   8.333
 1039POPC   C3B16797  18.825  24.814   7.892
 1039POPC   C4B16798  18.861  25.000   7.455
 1040POPC   NC316799  24.375   7.981   9.379
 1040POPC   PO416800  25.046   8.246   9.196
 1040POPC   GL116801  24.659   8.235   9.025
 1040POPC   GL216802  24.749   7.881   8.982
 1040POPC   C1A16803  24.310   8.367   8.759
 1040POPC   D2A16804  24.155   8.187   8.391
 1040POPC   C3A16805  24.303   8.399   8.075
 1040POPC   C4A16806  24.139   8.454   7.675
 1040POPC   C1B16807  24.617   7.969   8.558
 1040POPC   C2B16808  24.373   7.716   8.259
 1040POPC   C3B16809  24.283   7.915   7.884
 1040POPC   C4B16810  24.639   8.157   7.784
 1041POPC   NC316811  20.493   2.888   9.525
 1041POPC   PO416812  21.123   2.489   9.565
 1041POPC   GL116813  20.922   2.589   9.198
 1041POPC   GL216814  20.859   2.914   9.182
 1041POPC   C1A16815  20.590   2.539   8.900
 1041POPC   D2A16816  20.373   2.343   8.545
 1041POPC   C3A16817  20.530   2.442   8.133
 1041POPC   C4A16818  20.316   2.633   7.792
 1041POPC   C1B16819  20.944   3.037   8.830
 1041POPC   C2B16820  20.851   2.808   8.515
 1041POPC   C3B16821  20.691   2.928   8.143
 1041POPC   C4B16822  20.811   2.788   7.744
 1042POPC   NC316823   3.047  20.262   9.450
 1042POPC   PO416824   2.772  20.859   9.630
 1042POPC   GL116825   2.591  20.725   9.230
 1042POPC   GL216826   2.680  20.390   9.123
 1042POPC   C1A16827   2.529  20.736   8.775
 1042POPC   D2A16828   2.502  20.483   8.400
 1042POPC   C3A16829   2.712  20.721   8.097
 1042POPC   C4A16830   2.662  20.954   7.762
 1042POPC   C1B16831   2.869  20.232   8.751
 1042POPC   C2B16832   2.990  20.094   8.347
 1042POPC   C3B16833   2.942  20.282   7.954
 1042POPC   C4B16834   2.629  20.436   7.666
 1043POPC   NC316835  11.766  42.982   9.650
 1043POPC   PO416836  11.977  42.361   9.793
 1043POPC   GL116837  11.940  42.363   9.301
 1043POPC   GL216838  11.668  42.599   9.220
 1043POPC   C1A16839  12.066  42.292   8.820
 1043POPC   D2A16840  12.198  42.468   8.383
 1043POPC   C3A16841  12.166  42.223   7.972
 1043POPC   C4A16842  12.336  41.996   7.610
 1043POPC   C1B16843  11.562  42.397   8.818
 1043POPC   C2B16844  11.713  42.321   8.399
 1043POPC   C3B16845  11.793  42.563   8.020
 1043POPC   C4B16846  11.698  42.364   7.656
 1044POPC   NC316847  12.705  38.626   9.488
 1044POPC   PO416848  12.391  38.022   9.485
 1044POPC   GL116849  12.664  38.227   9.137
 1044POPC   GL216850  12.962  38.511   9.079
 1044POPC   C1A16851  12.823  38.195   8.724
 1044POPC   D2A16852  13.030  38.310   8.349
 1044POPC   C3A16853  12.798  38.374   7.978
 1044POPC   C4A16854  12.635  38.245   7.614
 1044POPC   C1B16855  12.662  38.690   8.807
 1044POPC   C2B16856  12.608  38.919   8.432
 1044POPC   C3B16857  12.450  38.888   8.067
 1044POPC   C4B16858  12.604  38.745   7.684
 1045POPC   NC316859  37.014  30.389   9.401
 1045POPC   PO416860  36.686  30.969   9.488
 1045POPC   GL116861  36.820  30.825   9.080
 1045POPC   GL216862  37.141  30.879   9.103
 1045POPC   C1A16863  36.855  30.506   8.720
 1045POPC   D2A16864  36.572  30.406   8.363
 1045POPC   C3A16865  36.759  30.499   7.967
 1045POPC   C4A16866  36.652  30.778   7.656
 1045POPC   C1B16867  37.224  30.864   8.689
 1045POPC   C2B16868  36.976  30.879   8.320
 1045POPC   C3B16869  37.087  30.898   7.889
 1045POPC   C4B16870  37.245  30.498   7.701
 1046POPC   NC316871  18.185   1.036   9.549
 1046POPC   PO416872  18.670   1.483   9.329
 1046POPC   GL116873  18.617   1.158   9.052
 1046POPC   GL216874  18.319   1.047   9.070
 1046POPC   C1A16875  18.513   1.275   8.618
 1046POPC   D2A16876  18.542   1.576   8.272
 1046POPC   C3A16877  18.509   1.335   7.886
 1046POPC   C4A16878  18.343   0.902   7.800
 1046POPC   C1B16879  18.087   1.361   8.892
 1046POPC   C2B16880  18.026   1.451   8.472
 1046POPC   C3B16881  18.061   1.610   8.076
 1046POPC   C4B16882  17.978   1.279   7.828
 1047POPC   NC316883  29.427  39.750   9.342
 1047POPC   PO416884  28.813  39.992   9.550
 1047POPC   GL116885  29.030  40.127   9.128
 1047POPC   GL216886  29.360  40.044   8.942
 1047POPC   C1A16887  28.904  39.911   8.702
 1047POPC   D2A16888  28.749  39.688   8.329
 1047POPC   C3A16889  28.724  39.987   8.020
 1047POPC   C4A16890  29.056  40.123   7.769
 1047POPC   C1B16891  29.183  40.330   8.676
 1047POPC   C2B16892  29.119  40.206   8.284
 1047POPC   C3B16893  29.471  40.102   8.038
 1047POPC   C4B16894  29.520  40.218   7.613
 1048POPC   NC316895  17.025  34.346   9.607
 1048POPC   PO416896  16.829  34.899   9.254
 1048POPC   GL116897  16.621  34.557   9.067
 1048POPC   GL216898  16.593  34.235   9.243
 1048POPC   C1A16899  16.639  34.554   8.624
 1048POPC   D2A16900  16.720  34.861   8.312
 1048POPC   C3A16901  16.824  34.679   7.931
 1048POPC   C4A16902  16.504  34.671   7.558
 1048POPC   C1B16903  16.348  34.158   8.829
 1048POPC   C2B16904  16.551  34.095   8.403
 1048POPC   C3B16905  16.472  34.332   8.048
 1048POPC   C4B16906  16.133  34.534   7.846
 1049POPC   NC316907   4.939  38.778   9.362
 1049POPC   PO416908   5.289  38.161   9.452
 1049POPC   GL116909   5.182  38.393   9.114
 1049POPC   GL216910   4.873  38.242   9.042
 1049POPC   C1A16911   5.293  38.465   8.687
 1049POPC   D2A16912   5.458  38.294   8.297
 1049POPC   C3A16913   5.225  38.393   7.923
 1049POPC   C4A16914   5.271  38.553   7.503
 1049POPC   C1B16915   4.759  38.521   8.698
 1049POPC   C2B16916   4.553  38.630   8.281
 1049POPC   C3B16917   4.717  38.564   7.876
 1049POPC   C4B16918   4.816  38.797   7.506
 1050POPC   NC316919  42.802  17.731   9.275
 1050POPC   PO416920  43.272  18.068   9.641
 1050POPC   GL116921  43.167  18.133   9.182
 1050POPC   GL216922  42.871  18.262   9.128
 1050POPC   C1A16923  43.107  18.014   8.735
 1050POPC   D2A16924  43.268  18.213   8.358
 1050POPC   C3A16925  43.127  17.998   7.969
 1050POPC   C4A16926  42.732  17.866   7.804
 1050POPC   C1B16927  43.006  18.509   8.764
 1050POPC   C2B16928  42.838  18.479   8.335
 1050POPC   C3B16929  43.060  18.501   7.944
 1050POPC   C4B16930  43.041  18.672   7.539
 1051POPC   NC316931  31.856  11.426   9.347
 1051POPC   PO416932  31.416  11.021   9.551
 1051POPC   GL116933  31.379  11.244   9.160
 1051POPC   GL216934  31.420  11.604   9.115
 1051POPC   C1A16935  31.593  11.278   8.761
 1051POPC   D2A16936  31.424  11.460   8.422
 1051POPC   C3A16937  31.460  11.227   8.058
 1051POPC   C4A16938  31.678  11.220   7.703
 1051POPC   C1B16939  31.355  11.857   8.762
 1051POPC   C2B16940  31.167  11.901   8.363
 1051POPC   C3B16941  31.207  11.701   8.028
 1051POPC   C4B16942  31.284  11.553   7.678
 1052POPC   NC316943  20.502   3.793   9.382
 1052POPC   PO416944  20.867   3.235   9.576
 1052POPC   GL116945  20.677   3.393   9.130
 1052POPC   GL216946  20.626   3.735   8.910
 1052POPC   C1A16947  20.548   3.312   8.690
 1052POPC   D2A16948  20.315   3.477   8.378
 1052POPC   C3A16949  20.482   3.413   8.038
 1052POPC   C4A16950  20.441   3.138   7.738
 1052POPC   C1B16951  20.198   3.844   8.741
 1052POPC   C2B16952  19.982   3.867   8.355
 1052POPC   C3B16953  20.207   3.840   7.983
 1052POPC   C4B16954  20.339   3.638   7.602
 1053POPC   NC316955   6.437  24.712   9.468
 1053POPC   PO416956   6.732  25.390   9.422
 1053POPC   GL116957   6.793  25.172   9.059
 1053POPC   GL216958   6.737  24.818   9.039
 1053POPC   C1A16959   6.952  25.357   8.736
 1053POPC   D2A16960   6.735  25.462   8.366
 1053POPC   C3A16961   6.793  25.199   8.021
 1053POPC   C4A16962   6.942  25.438   7.701
 1053POPC   C1B16963   6.433  25.035   8.709
 1053POPC   C2B16964   6.286  25.237   8.290
 1053POPC   C3B16965   6.308  25.221   7.810
 1053POPC   C4B16966   6.186  25.096   7.370
 1054POPC   NC316967  13.470   3.663   9.683
 1054POPC   PO416968  13.926   4.045   9.457
 1054POPC   GL116969  13.763   3.716   9.179
 1054POPC   GL216970  13.416   3.631   9.177
 1054POPC   C1A16971  13.731   3.515   8.757
 1054POPC   D2A16972  13.501   3.565   8.369
 1054POPC   C3A16973  13.688   3.480   7.957
 1054POPC   C4A16974  13.662   3.676   7.557
 1054POPC   C1B16975  13.204   3.502   8.810
 1054POPC   C2B16976  13.023   3.389   8.445
 1054POPC   C3B16977  13.230   3.221   8.091
 1054POPC   C4B16978  13.267   3.341   7.665
 1055POPC   NC316979  20.374   8.446   9.562
 1055POPC   PO416980  20.728   7.840   9.611
 1055POPC   GL116981  20.648   8.138   9.295
 1055POPC   GL216982  20.377   8.055   9.171
 1055POPC   C1A16983  20.583   8.429   8.911
 1055POPC   D2A16984  20.557   8.175   8.522
 1055POPC   C3A16985  20.684   8.409   8.180
 1055POPC   C4A16986  20.520   8.353   7.797
 1055POPC   C1B16987  20.273   7.770   8.847
 1055POPC   C2B16988  20.322   7.650   8.410
 1055POPC   C3B16989  20.397   7.902   8.026
 1055POPC   C4B16990  20.308   7.809   7.590
 1056POPC   NC316991  22.558  25.510   9.539
 1056POPC   PO416992  21.929  25.296   9.426
 1056POPC   GL116993  22.296  25.270   9.173
 1056POPC   GL216994  22.408  24.962   9.037
 1056POPC   C1A16995  22.270  25.371   8.754
 1056POPC   D2A16996  22.369  25.527   8.366
 1056POPC   C3A16997  21.944  25.564   8.187
 1056POPC   C4A16998  21.938  25.612   7.764
 1056POPC   C1B16999  22.113  24.865   8.696
 1056POPC   C2B17000  22.065  25.067   8.316
 1056POPC   C3B17001  22.229  25.198   7.949
 1056POPC   C4B17002  22.235  24.976   7.607
 1057POPC   NC317003  39.393  18.268   9.947
 1057POPC   PO417004  38.832  18.310   9.701
 1057POPC   GL117005  38.959  18.380   9.217
 1057POPC   GL217006  39.311  18.535   9.193
 1057POPC   C1A17007  38.932  18.198   8.775
 1057POPC   D2A17008  39.209  18.100   8.393
 1057POPC   C3A17009  39.108  17.901   8.012
 1057POPC   C4A17010  39.224  18.187   7.687
 1057POPC   C1B17011  39.396  18.409   8.749
 1057POPC   C2B17012  39.264  18.613   8.352
 1057POPC   C3B17013  39.442  18.718   7.969
 1057POPC   C4B17014  39.238  18.711   7.604
 1058POPC   NC317015  14.464  28.820   9.548
 1058POPC   PO417016  14.160  29.300   9.450
 1058POPC   GL117017  14.324  29.211   9.096
 1058POPC   GL217018  14.198  28.882   9.110
 1058POPC   C1A17019  14.579  29.078   8.776
 1058POPC   D2A17020  14.816  29.255   8.429
 1058POPC   C3A17021  14.631  29.094   8.064
 1058POPC   C4A17022  14.483  29.132   7.677
 1058POPC   C1B17023  14.052  28.952   8.736
 1058POPC   C2B17024  14.225  29.071   8.375
 1058POPC   C3B17025  14.115  28.933   7.980
 1058POPC   C4B17026  14.054  28.911   7.529
 1059POPC   NC317027   9.461  33.254   9.505
 1059POPC   PO417028  10.127  33.266   9.509
 1059POPC   GL117029   9.900  33.221   9.190
 1059POPC   GL217030  10.034  33.536   9.052
 1059POPC   C1A17031   9.913  32.934   8.851
 1059POPC   D2A17032   9.745  32.675   8.517
 1059POPC   C3A17033   9.926  32.788   8.140
 1059POPC   C4A17034   9.636  32.984   7.886
 1059POPC   C1B17035   9.713  33.399   8.771
 1059POPC   C2B17036   9.760  33.190   8.404
 1059POPC   C3B17037   9.977  33.321   8.065
 1059POPC   C4B17038   9.806  33.439   7.695
 1060POPC   NC317039   5.032  39.464   9.538
 1060POPC   PO417040   5.366  38.976   9.415
 1060POPC   GL117041   5.119  39.143   9.066
 1060POPC   GL217042   4.918  39.434   9.046
 1060POPC   C1A17043   5.061  38.949   8.678
 1060POPC   D2A17044   5.047  38.715   8.292
 1060POPC   C3A17045   5.156  38.891   7.899
 1060POPC   C4A17046   5.547  38.947   7.701
 1060POPC   C1B17047   5.062  39.467   8.637
 1060POPC   C2B17048   5.260  39.234   8.285
 1060POPC   C3B17049   5.291  39.382   7.863
 1060POPC   C4B17050   5.100  39.636   7.537
 1061POPC   NC317051   4.093  19.119   9.521
 1061POPC   PO417052   4.610  18.656   9.426
 1061POPC   GL117053   4.411  18.733   9.027
 1061POPC   GL217054   4.131  18.907   9.076
 1061POPC   C1A17055   4.185  18.725   8.610
 1061POPC   D2A17056   4.343  18.852   8.213
 1061POPC   C3A17057   4.398  19.247   8.021
 1061POPC   C4A17058   4.287  19.013   7.674
 1061POPC   C1B17059   4.118  19.217   8.747
 1061POPC   C2B17060   3.934  19.154   8.345
 1061POPC   C3B17061   3.895  19.225   7.904
 1061POPC   C4B17062   3.865  19.171   7.424
 1062POPC   NC317063  12.626  23.486   9.550
 1062POPC   PO417064  13.151  23.451   9.261
 1062POPC   GL117065  12.803  23.632   9.094
 1062POPC   GL217066  12.551  23.406   9.068
 1062POPC   C1A17067  12.785  23.825   8.716
 1062POPC   D2A17068  13.124  23.765   8.515
 1062POPC   C3A17069  13.131  23.796   8.110
 1062POPC   C4A17070  13.259  23.506   7.792
 1062POPC   C1B17071  12.698  23.304   8.691
 1062POPC   C2B17072  12.763  23.450   8.305
 1062POPC   C3B17073  12.685  23.598   7.943
 1062POPC   C4B17074  12.683  24.030   7.883
 1063POPC   NC317075  43.684  33.742   9.652
 1063POPC   PO417076  44.042  34.098   9.222
 1063POPC   GL117077  43.690  33.866   9.163
 1063POPC   GL217078  43.806  33.510   9.220
 1063POPC   C1A17079  43.530  33.945   8.787
 1063POPC   D2A17080  43.681  33.779   8.396
 1063POPC   C3A17081  43.777  34.010   8.037
 1063POPC   C4A17082  43.811  33.783   7.678
 1063POPC   C1B17083  43.979  33.526   8.805
 1063POPC   C2B17084  44.212  33.682   8.444
 1063POPC   C3B17085  44.199  33.663   8.000
 1063POPC   C4B17086  44.095  33.360   7.663
 1064POPC   NC317087  40.735  14.005   9.552
 1064POPC   PO417088  40.467  14.616   9.514
 1064POPC   GL117089  40.667  14.516   9.130
 1064POPC   GL217090  40.769  14.176   9.054
 1064POPC   C1A17091  40.785  14.594   8.729
 1064POPC   D2A17092  40.889  14.402   8.365
 1064POPC   C3A17093  40.789  14.725   8.106
 1064POPC   C4A17094  40.838  14.757   7.716
 1064POPC   C1B17095  40.478  14.130   8.746
 1064POPC   C2B17096  40.585  13.958   8.347
 1064POPC   C3B17097  40.652  14.145   7.943
 1064POPC   C4B17098  40.313  14.067   7.645
 1065POPC   NC317099  42.857  21.702   9.813
 1065POPC   PO417100  43.268  22.254   9.681
 1065POPC   GL117101  43.120  22.320   9.250
 1065POPC   GL217102  43.457  22.343   9.142
 1065POPC   C1A17103  42.849  22.223   8.874
 1065POPC   D2A17104  42.888  22.360   8.450
 1065POPC   C3A17105  42.815  22.086   8.099
 1065POPC   C4A17106  43.139  22.036   7.754
 1065POPC   C1B17107  43.338  22.361   8.731
 1065POPC   C2B17108  43.383  22.511   8.320
 1065POPC   C3B17109  43.509  22.352   7.944
 1065POPC   C4B17110  43.309  22.510   7.590
 1066POPC   NC317111  15.964  31.326   9.603
 1066POPC   PO417112  15.560  31.799   9.826
 1066POPC   GL117113  15.786  31.692   9.349
 1066POPC   GL217114  16.096  31.717   9.209
 1066POPC   C1A17115  15.759  31.417   8.914
 1066POPC   D2A17116  15.777  31.461   8.469
 1066POPC   C3A17117  15.890  31.183   8.114
 1066POPC   C4A17118  15.742  31.336   7.722
 1066POPC   C1B17119  16.188  31.663   8.751
 1066POPC   C2B17120  16.274  31.465   8.342
 1066POPC   C3B17121  16.142  31.615   7.929
 1066POPC   C4B17122  16.057  31.663   7.456
 1067POPC   NC317123  23.291  38.819   9.291
 1067POPC   PO417124  22.904  38.284   9.550
 1067POPC   GL117125  23.078  38.344   9.157
 1067POPC   GL217126  22.861  38.161   8.962
 1067POPC   C1A17127  23.162  38.503   8.740
 1067POPC   D2A17128  23.014  38.392   8.369
 1067POPC   C3A17129  23.132  38.605   8.021
 1067POPC   C4A17130  23.330  38.667   7.650
 1067POPC   C1B17131  22.651  38.506   8.730
 1067POPC   C2B17132  22.565  38.619   8.306
 1067POPC   C3B17133  22.681  38.366   7.978
 1067POPC   C4B17134  22.803  38.477   7.611
 1068POPC   NC317135  43.481   6.663   9.563
 1068POPC   PO417136  42.943   6.916   9.744
 1068POPC   GL117137  42.961   6.627   9.301
 1068POPC   GL217138  43.245   6.666   9.124
 1068POPC   C1A17139  42.908   6.576   8.782
 1068POPC   D2A17140  43.081   6.397   8.359
 1068POPC   C3A17141  43.123   6.693   8.005
 1068POPC   C4A17142  42.975   6.865   7.573
 1068POPC   C1B17143  43.413   6.541   8.716
 1068POPC   C2B17144  43.566   6.688   8.299
 1068POPC   C3B17145  43.597   6.831   7.847
 1068POPC   C4B17146  43.421   6.629   7.514
 1069POPC   NC317147   1.471  19.905   9.521
 1069POPC   PO417148   1.300  19.330   9.697
 1069POPC   GL117149   1.211  19.541   9.259
 1069POPC   GL217150   0.936  19.367   9.153
 1069POPC   C1A17151   1.316  19.880   8.877
 1069POPC   D2A17152   1.477  20.028   8.444
 1069POPC   C3A17153   1.385  19.832   8.058
 1069POPC   C4A17154   1.499  19.884   7.623
 1069POPC   C1B17155   0.883  19.618   8.815
 1069POPC   C2B17156   1.100  19.630   8.453
 1069POPC   C3B17157   0.913  19.643   8.072
 1069POPC   C4B17158   1.020  19.628   7.709
 1070POPC   NC317159   9.551  33.967   9.557
 1070POPC   PO417160  10.171  33.989   9.414
 1070POPC   GL117161   9.806  33.996   9.119
 1070POPC   GL217162   9.551  33.694   9.150
 1070POPC   C1A17163   9.801  33.991   8.693
 1070POPC   D2A17164   9.889  33.699   8.399
 1070POPC   C3A17165   9.674  33.771   8.049
 1070POPC   C4A17166   9.774  33.948   7.695
 1070POPC   C1B17167   9.340  33.734   8.780
 1070POPC   C2B17168   9.366  33.524   8.408
 1070POPC   C3B17169   9.336  33.377   8.004
 1070POPC   C4B17170   9.284  33.643   7.667
 1071POPC   NC317171  27.307   0.189   9.487
 1071POPC   PO417172  27.961   0.361   9.568
 1071POPC   GL117173  27.677   0.481   9.242
 1071POPC   GL217174  27.628   0.168   9.038
 1071POPC   C1A17175  27.608   0.670   8.847
 1071POPC   D2A17176  27.552   0.459   8.474
 1071POPC   C3A17177  27.613   0.546   8.043
 1071POPC   C4A17178  27.750   0.339   7.677
 1071POPC   C1B17179  27.293   0.014   8.733
 1071POPC   C2B17180  27.175   0.169   8.316
 1071POPC   C3B17181  27.293   0.146   7.890
 1071POPC   C4B17182  27.293   0.511   7.593
 1072POPC   NC317183  23.397   6.433   9.286
 1072POPC   PO417184  23.850   6.922   9.494
 1072POPC   GL117185  23.626   6.850   9.095
 1072POPC   GL217186  23.909   6.648   8.983
 1072POPC   C1A17187  23.495   6.656   8.681
 1072POPC   D2A17188  23.479   6.473   8.281
 1072POPC   C3A17189  23.598   6.632   7.877
 1072POPC   C4A17190  23.502   6.364   7.486
 1072POPC   C1B17191  23.887   6.969   8.627
 1072POPC   C2B17192  23.864   6.998   8.187
 1072POPC   C3B17193  24.120   6.786   7.928
 1072POPC   C4B17194  24.083   6.552   7.594
 1073POPC   NC317195  11.812  20.170   9.508
 1073POPC   PO417196  12.134  19.551   9.627
 1073POPC   GL117197  12.003  19.748   9.217
 1073POPC   GL217198  12.184  20.045   9.167
 1073POPC   C1A17199  11.787  19.904   8.839
 1073POPC   D2A17200  11.688  20.126   8.459
 1073POPC   C3A17201  11.745  19.888   8.105
 1073POPC   C4A17202  11.898  19.759   7.687
 1073POPC   C1B17203  12.292  19.950   8.787
 1073POPC   C2B17204  12.243  20.096   8.405
 1073POPC   C3B17205  12.236  19.945   8.043
 1073POPC   C4B17206  12.325  20.071   7.651
 1074POPC   NC317207  40.206  30.526   9.419
 1074POPC   PO417208  39.779  30.982   9.429
 1074POPC   GL117209  39.737  30.747   9.065
 1074POPC   GL217210  40.071  30.821   9.015
 1074POPC   C1A17211  39.780  30.752   8.616
 1074POPC   D2A17212  40.006  30.978   8.305
 1074POPC   C3A17213  39.816  30.777   7.966
 1074POPC   C4A17214  39.839  30.581   7.558
 1074POPC   C1B17215  40.366  30.808   8.693
 1074POPC   C2B17216  40.550  30.754   8.310
 1074POPC   C3B17217  40.352  30.746   7.924
 1074POPC   C4B17218  40.533  30.966   7.594
 1075POPC   NC317219  21.709  29.281   9.700
 1075POPC   PO417220  21.149  28.975   9.529
 1075POPC   GL117221  21.362  29.201   9.151
 1075POPC   GL217222  21.720  29.211   9.139
 1075POPC   C1A17223  21.366  29.323   8.703
 1075POPC   D2A17224  21.254  29.236   8.256
 1075POPC   C3A17225  21.464  28.942   7.984
 1075POPC   C4A17226  21.334  28.876   7.557
 1075POPC   C1B17227  21.860  29.404   8.741
 1075POPC   C2B17228  21.764  29.369   8.310
 1075POPC   C3B17229  21.757  29.519   7.894
 1075POPC   C4B17230  21.797  29.561   7.394
 1076POPC   NC317231  32.786  12.325   9.378
 1076POPC   PO417232  33.185  12.648   9.845
 1076POPC   GL117233  33.105  12.780   9.383
 1076POPC   GL217234  33.286  12.538   9.227
 1076POPC   C1A17235  33.104  13.029   8.949
 1076POPC   D2A17236  33.130  12.945   8.502
 1076POPC   C3A17237  33.109  13.148   8.101
 1076POPC   C4A17238  32.998  13.035   7.674
 1076POPC   C1B17239  33.098  12.540   8.824
 1076POPC   C2B17240  32.951  12.466   8.397
 1076POPC   C3B17241  33.005  12.612   8.007
 1076POPC   C4B17242  33.160  12.392   7.660
 1077POPC   NC317243  20.592  20.858   9.552
 1077POPC   PO417244  20.446  20.263   9.310
 1077POPC   GL117245  20.714  20.278   9.042
 1077POPC   GL217246  20.767  20.607   9.101
 1077POPC   C1A17247  20.647  20.338   8.639
 1077POPC   D2A17248  20.687  20.555   8.283
 1077POPC   C3A17249  20.427  20.449   7.941
 1077POPC   C4A17250  20.719  20.648   7.698
 1077POPC   C1B17251  20.450  20.773   8.831
 1077POPC   C2B17252  20.254  20.756   8.418
 1077POPC   C3B17253  20.392  20.949   8.026
 1077POPC   C4B17254  20.342  21.017   7.599
 1078POPC   NC317255  29.385  20.909   9.393
 1078POPC   PO417256  28.918  20.355   9.516
 1078POPC   GL117257  28.955  20.586   9.149
 1078POPC   GL217258  29.258  20.505   9.130
 1078POPC   C1A17259  29.062  20.504   8.675
 1078POPC   D2A17260  28.975  20.731   8.312
 1078POPC   C3A17261  29.211  20.707   7.927
 1078POPC   C4A17262  29.014  20.686   7.545
 1078POPC   C1B17263  29.510  20.700   8.808
 1078POPC   C2B17264  29.490  20.699   8.380
 1078POPC   C3B17265  29.690  20.540   8.041
 1078POPC   C4B17266  29.685  20.842   7.713
 1079POPC   NC317267  40.473  19.265   9.519
 1079POPC   PO417268  40.565  20.018   9.568
 1079POPC   GL117269  40.858  19.992   9.224
 1079POPC   GL217270  40.911  19.636   9.130
 1079POPC   C1A17271  40.782  20.006   8.787
 1079POPC   D2A17272  40.556  19.888   8.434
 1079POPC   C3A17273  40.776  20.013   8.080
 1079POPC   C4A17274  40.733  19.903   7.670
 1079POPC   C1B17275  40.746  19.481   8.785
 1079POPC   C2B17276  40.935  19.573   8.419
 1079POPC   C3B17277  40.732  19.490   8.062
 1079POPC   C4B17278  40.757  19.415   7.650
 1080POPC   NC317279  16.104  36.459   9.504
 1080POPC   PO417280  15.779  35.888   9.412
 1080POPC   GL117281  16.022  36.000   9.094
 1080POPC   GL217282  15.978  36.334   9.030
 1080POPC   C1A17283  15.939  35.943   8.683
 1080POPC   D2A17284  16.053  36.142   8.326
 1080POPC   C3A17285  15.907  35.891   8.015
 1080POPC   C4A17286  16.016  35.961   7.616
 1080POPC   C1B17287  15.968  36.611   8.653
 1080POPC   C2B17288  15.767  36.554   8.255
 1080POPC   C3B17289  16.013  36.405   7.888
 1080POPC   C4B17290  16.237  36.422   7.487
 1081POPC   NC317291   0.447  10.828   9.498
 1081POPC   PO417292   0.236  11.513   9.423
 1081POPC   GL117293   0.382  11.200   9.147
 1081POPC   GL217294   0.132  10.949   9.093
 1081POPC   C1A17295   0.573  11.131   8.743
 1081POPC   D2A17296   0.641  11.014   8.323
 1081POPC   C3A17297   0.595  11.337   8.009
 1081POPC   C4A17298   0.507  11.252   7.574
 1081POPC   C1B17299   0.052  11.144   8.750
 1081POPC   C2B17300   0.164  11.348   8.418
 1081POPC   C3B17301   0.150  11.116   8.066
 1081POPC   C4B17302  44.941  11.165   7.709
 1082POPC   NC317303  41.334  43.519   9.833
 1082POPC   PO417304  41.902  43.781   9.630
 1082POPC   GL117305  41.634  43.760   9.217
 1082POPC   GL217306  41.302  43.686   9.326
 1082POPC   C1A17307  41.614  44.021   8.818
 1082POPC   D2A17308  41.856  44.019   8.438
 1082POPC   C3A17309  41.757  44.141   8.035
 1082POPC   C4A17310  41.755  43.953   7.629
 1082POPC   C1B17311  41.264  43.608   8.873
 1082POPC   C2B17312  41.428  43.734   8.452
 1082POPC   C3B17313  41.433  43.719   8.014
 1082POPC   C4B17314  41.290  43.754   7.573
 1083POPC   NC317315  42.883   4.971   9.509
 1083POPC   PO417316  43.550   5.155   9.572
 1083POPC   GL117317  43.322   5.017   9.158
 1083POPC   GL217318  42.999   4.810   9.060
 1083POPC   C1A17319  43.360   4.901   8.714
 1083POPC   D2A17320  43.208   4.906   8.287
 1083POPC   C3A17321  43.234   5.316   8.064
 1083POPC   C4A17322  43.314   5.222   7.632
 1083POPC   C1B17323  42.863   5.165   8.841
 1083POPC   C2B17324  42.829   5.253   8.411
 1083POPC   C3B17325  42.798   5.083   7.987
 1083POPC   C4B17326  42.936   4.855   7.619
 1084POPC   NC317327  17.818  28.984   9.503
 1084POPC   PO417328  17.202  29.215   9.484
 1084POPC   GL117329  17.416  29.076   9.153
 1084POPC   GL217330  17.652  29.327   9.147
 1084POPC   C1A17331  17.278  29.238   8.779
 1084POPC   D2A17332  17.396  29.463   8.431
 1084POPC   C3A17333  17.229  29.242   8.095
 1084POPC   C4A17334  17.279  29.390   7.711
 1084POPC   C1B17335  17.795  29.278   8.764
 1084POPC   C2B17336  17.882  29.251   8.351
 1084POPC   C3B17337  17.723  29.333   7.969
 1084POPC   C4B17338  17.594  28.989   7.693
 1085POPC   NC317339  32.058  41.773   9.391
 1085POPC   PO417340  31.645  41.290   9.456
 1085POPC   GL117341  31.908  41.376   9.091
 1085POPC   GL217342  32.284  41.417   9.088
 1085POPC   C1A17343  31.924  41.442   8.669
 1085POPC   D2A17344  32.046  41.750   8.338
 1085POPC   C3A17345  32.017  41.532   7.927
 1085POPC   C4A17346  31.930  41.769   7.553
 1085POPC   C1B17347  32.386  41.629   8.708
 1085POPC   C2B17348  32.380  41.388   8.341
 1085POPC   C3B17349  32.522  41.397   7.938
 1085POPC   C4B17350  32.784  41.129   7.767
 1086POPC   NC317351  29.860  27.242   9.389
 1086POPC   PO417352  29.960  27.907   9.376
 1086POPC   GL117353  29.741  27.943   9.000
 1086POPC   GL217354  29.707  27.587   9.034
 1086POPC   C1A17355  29.790  27.772   8.569
 1086POPC   D2A17356  29.718  27.794   8.125
 1086POPC   C3A17357  30.023  27.502   7.900
 1086POPC   C4A17358  30.202  27.488   7.457
 1086POPC   C1B17359  29.525  27.294   8.761
 1086POPC   C2B17360  29.675  27.308   8.335
 1086POPC   C3B17361  29.509  27.372   7.941
 1086POPC   C4B17362  29.695  27.404   7.531
 1087POPC   NC317363  30.620  34.706   9.675
 1087POPC   PO417364  31.198  34.727   9.412
 1087POPC   GL117365  30.840  34.559   9.222
 1087POPC   GL217366  30.542  34.767   9.163
 1087POPC   C1A17367  30.801  34.514   8.794
 1087POPC   D2A17368  30.959  34.361   8.426
 1087POPC   C3A17369  30.623  34.379   8.174
 1087POPC   C4A17370  30.579  34.467   7.764
 1087POPC   C1B17371  30.492  34.976   8.764
 1087POPC   C2B17372  30.448  34.883   8.332
 1087POPC   C3B17373  30.514  34.985   7.904
 1087POPC   C4B17374  30.357  34.854   7.486
 1088POPC   NC317375  11.953  11.416   9.422
 1088POPC   PO417376  12.502  11.786   9.293
 1088POPC   GL117377  12.325  11.440   9.080
 1088POPC   GL217378  12.356  11.117   9.214
 1088POPC   C1A17379  12.063  11.265   8.757
 1088POPC   D2A17380  11.757  11.438   8.471
 1088POPC   C3A17381  11.975  11.610   8.132
 1088POPC   C4A17382  12.161  11.481   7.727
 1088POPC   C1B17383  12.340  10.836   8.843
 1088POPC   C2B17384  12.287  10.900   8.427
 1088POPC   C3B17385  12.005  11.089   8.132
 1088POPC   C4B17386  12.092  10.964   7.731
 1089POPC   NC317387   5.077  26.577   9.712
 1089POPC   PO417388   5.056  27.183   9.509
 1089POPC   GL117389   5.068  26.836   9.223
 1089POPC   GL217390   4.761  26.648   9.279
 1089POPC   C1A17391   5.224  26.887   8.793
 1089POPC   D2A17392   5.195  27.156   8.443
 1089POPC   C3A17393   5.222  26.953   8.091
 1089POPC   C4A17394   5.439  26.642   7.911
 1089POPC   C1B17395   4.711  26.778   8.848
 1089POPC   C2B17396   4.813  26.706   8.418
 1089POPC   C3B17397   4.680  26.918   8.065
 1089POPC   C4B17398   4.898  27.064   7.723
 1090POPC   NC317399   9.436   7.156   9.404
 1090POPC   PO417400  10.011   7.445   9.467
 1090POPC   GL117401   9.899   7.450   9.063
 1090POPC   GL217402   9.576   7.496   9.063
 1090POPC   C1A17403   9.774   7.380   8.627
 1090POPC   D2A17404   9.965   7.369   8.273
 1090POPC   C3A17405   9.765   7.399   7.889
 1090POPC   C4A17406  10.160   7.376   7.644
 1090POPC   C1B17407   9.341   7.643   8.722
 1090POPC   C2B17408   9.514   7.735   8.329
 1090POPC   C3B17409   9.309   7.786   7.959
 1090POPC   C4B17410   9.402   7.866   7.591
 1091POPC   NC317411  17.070  20.310   9.598
 1091POPC   PO417412  16.668  20.884   9.480
 1091POPC   GL117413  16.571  20.747   9.093
 1091POPC   GL217414  16.927  20.621   9.089
 1091POPC   C1A17415  16.658  20.760   8.663
 1091POPC   D2A17416  16.903  20.802   8.309
 1091POPC   C3A17417  16.685  20.693   7.956
 1091POPC   C4A17418  16.653  20.760   7.516
 1091POPC   C1B17419  17.197  20.719   8.738
 1091POPC   C2B17420  17.286  20.443   8.370
 1091POPC   C3B17421  17.123  20.403   7.957
 1091POPC   C4B17422  17.138  20.706   7.644
 1092POPC   NC317423  18.534  22.121   9.164
 1092POPC   PO417424  19.043  22.109   9.537
 1092POPC   GL117425  19.027  22.072   9.061
 1092POPC   GL217426  18.830  21.733   9.004
 1092POPC   C1A17427  18.908  22.253   8.637
 1092POPC   D2A17428  19.017  22.485   8.270
 1092POPC   C3A17429  18.825  22.592   7.869
 1092POPC   C4A17430  19.050  22.518   7.441
 1092POPC   C1B17431  18.963  21.712   8.595
 1092POPC   C2B17432  18.734  21.919   8.272
 1092POPC   C3B17433  18.771  22.065   7.896
 1092POPC   C4B17434  19.173  22.233   7.855
 1093POPC   NC317435   7.487  37.359   9.498
 1093POPC   PO417436   6.903  37.716   9.561
 1093POPC   GL117437   7.203  37.707   9.226
 1093POPC   GL217438   7.244  37.430   9.067
 1093POPC   C1A17439   7.221  37.855   8.773
 1093POPC   D2A17440   7.368  37.964   8.343
 1093POPC   C3A17441   7.275  37.718   7.998
 1093POPC   C4A17442   7.401  37.712   7.579
 1093POPC   C1B17443   7.566  37.472   8.753
 1093POPC   C2B17444   7.732  37.570   8.345
 1093POPC   C3B17445   7.670  37.380   7.943
 1093POPC   C4B17446   7.299  37.253   7.722
 1094POPC   NC317447  25.144   7.835   9.369
 1094POPC   PO417448  25.497   8.338   9.660
 1094POPC   GL117449  25.557   8.337   9.158
 1094POPC   GL217450  25.530   7.963   9.054
 1094POPC   C1A17451  25.498   8.293   8.674
 1094POPC   D2A17452  25.148   8.104   8.445
 1094POPC   C3A17453  25.060   8.285   8.040
 1094POPC   C4A17454  25.346   8.571   7.830
 1094POPC   C1B17455  25.499   7.761   8.645
 1094POPC   C2B17456  25.644   7.940   8.249
 1094POPC   C3B17457  25.445   8.024   7.845
 1094POPC   C4B17458  25.551   8.276   7.456
 1095POPC   NC317459  42.772  10.149   9.411
 1095POPC   PO417460  42.626   9.484   9.535
 1095POPC   GL117461  42.929   9.701   9.227
 1095POPC   GL217462  42.591   9.776   9.116
 1095POPC   C1A17463  43.234   9.727   8.849
 1095POPC   D2A17464  43.118   9.738   8.405
 1095POPC   C3A17465  43.243   9.982   8.034
 1095POPC   C4A17466  43.181   9.754   7.645
 1095POPC   C1B17467  42.740   9.913   8.772
 1095POPC   C2B17468  42.611   9.734   8.411
 1095POPC   C3B17469  42.730   9.873   8.041
 1095POPC   C4B17470  42.669   9.711   7.657
 1096POPC   NC317471  40.250  15.722   9.462
 1096POPC   PO417472  39.781  16.268   9.356
 1096POPC   GL117473  40.022  16.036   9.103
 1096POPC   GL217474  39.814  15.760   9.099
 1096POPC   C1A17475  40.130  15.889   8.690
 1096POPC   D2A17476  40.291  16.041   8.297
 1096POPC   C3A17477  40.323  15.711   7.987
 1096POPC   C4A17478  40.105  15.657   7.612
 1096POPC   C1B17479  39.622  15.884   8.699
 1096POPC   C2B17480  39.799  15.818   8.276
 1096POPC   C3B17481  39.915  16.066   7.940
 1096POPC   C4B17482  39.803  16.069   7.516
 1097POPC   NC317483  30.079   8.327   9.438
 1097POPC   PO417484  29.689   7.803   9.288
 1097POPC   GL117485  29.784   8.146   9.064
 1097POPC   GL217486  30.161   8.006   9.041
 1097POPC   C1A17487  29.974   8.414   8.767
 1097POPC   D2A17488  30.193   8.613   8.440
 1097POPC   C3A17489  30.093   8.410   8.064
 1097POPC   C4A17490  30.238   8.269   7.677
 1097POPC   C1B17491  29.955   7.887   8.645
 1097POPC   C2B17492  29.794   8.011   8.265
 1097POPC   C3B17493  29.826   8.003   7.833
 1097POPC   C4B17494  29.678   7.973   7.407
 1098POPC   NC317495  41.650  16.480   9.457
 1098POPC   PO417496  41.723  15.760   9.510
 1098POPC   GL117497  41.696  16.017   9.174
 1098POPC   GL217498  41.391  16.187   9.102
 1098POPC   C1A17499  41.591  15.797   8.815
 1098POPC   D2A17500  41.723  15.635   8.448
 1098POPC   C3A17501  41.660  15.923   8.138
 1098POPC   C4A17502  41.697  15.877   7.743
 1098POPC   C1B17503  41.334  16.375   8.688
 1098POPC   C2B17504  41.214  16.249   8.264
 1098POPC   C3B17505  41.254  16.139   7.824
 1098POPC   C4B17506  41.303  16.356   7.409
 1099POPC   NC317507   4.325  32.393   9.671
 1099POPC   PO417508   4.357  32.919   9.220
 1099POPC   GL117509   4.118  33.048   8.931
 1099POPC   GL217510   4.029  32.745   8.768
 1099POPC   C1A17511   4.174  33.203   8.557
 1099POPC   D2A17512   4.252  32.917   8.234
 1099POPC   C3A17513   4.366  33.209   7.936
 1099POPC   C4A17514   4.279  33.426   7.579
 1099POPC   C1B17515   4.379  32.540   8.603
 1099POPC   C2B17516   4.665  32.540   8.274
 1099POPC   C3B17517   4.658  32.773   7.899
 1099POPC   C4B17518   4.244  32.771   7.720
 1100POPC   NC317519   5.350   6.086   9.575
 1100POPC   PO417520   5.924   6.477   9.600
 1100POPC   GL117521   5.893   6.663   9.189
 1100POPC   GL217522   5.597   6.461   9.204
 1100POPC   C1A17523   6.113   6.770   8.770
 1100POPC   D2A17524   6.281   6.772   8.332
 1100POPC   C3A17525   6.215   6.449   8.042
 1100POPC   C4A17526   5.964   6.705   7.824
 1100POPC   C1B17527   5.775   6.365   8.802
 1100POPC   C2B17528   5.835   6.487   8.394
 1100POPC   C3B17529   5.694   6.305   8.000
 1100POPC   C4B17530   5.949   6.222   7.652
 1101POPC   NC317531  17.874   8.078   9.563
 1101POPC   PO417532  18.505   8.223   9.548
 1101POPC   GL117533  18.392   8.225   9.102
 1101POPC   GL217534  18.022   8.197   9.101
 1101POPC   C1A17535  18.239   8.156   8.665
 1101POPC   D2A17536  18.388   8.075   8.307
 1101POPC   C3A17537  18.511   8.443   8.154
 1101POPC   C4A17538  18.495   8.439   7.710
 1101POPC   C1B17539  17.834   8.454   8.752
 1101POPC   C2B17540  18.033   8.509   8.357
 1101POPC   C3B17541  18.039   8.369   7.969
 1101POPC   C4B17542  17.703   8.552   7.819
 1102POPC   NC317543   5.963  35.364   9.653
 1102POPC   PO417544   5.446  34.907   9.493
 1102POPC   GL117545   5.778  35.085   9.238
 1102POPC   GL217546   5.797  35.421   9.178
 1102POPC   C1A17547   5.922  35.095   8.791
 1102POPC   D2A17548   5.729  35.062   8.385
 1102POPC   C3A17549   5.977  35.068   7.998
 1102POPC   C4A17550   5.625  35.078   7.704
 1102POPC   C1B17551   6.106  35.544   8.891
 1102POPC   C2B17552   5.938  35.518   8.475
 1102POPC   C3B17553   5.767  35.527   8.073
 1102POPC   C4B17554   5.907  35.494   7.671
 1103POPC   NC317555  19.654  10.169   9.375
 1103POPC   PO417556  20.100   9.616   9.507
 1103POPC   GL117557  19.977   9.594   9.111
 1103POPC   GL217558  19.654   9.743   9.115
 1103POPC   C1A17559  20.032   9.878   8.780
 1103POPC   D2A17560  20.051  10.061   8.378
 1103POPC   C3A17561  19.915   9.816   8.026
 1103POPC   C4A17562  20.091   9.884   7.640
 1103POPC   C1B17563  19.539   9.672   8.719
 1103POPC   C2B17564  19.621   9.490   8.334
 1103POPC   C3B17565  19.573   9.395   7.908
 1103POPC   C4B17566  19.632   9.636   7.534
 1104POPC   NC317567  25.639  12.688   9.306
 1104POPC   PO417568  26.108  12.663   9.795
 1104POPC   GL117569  26.149  12.840   9.334
 1104POPC   GL217570  26.454  12.939   9.166
 1104POPC   C1A17571  26.052  12.907   8.862
 1104POPC   D2A17572  26.050  12.660   8.485
 1104POPC   C3A17573  25.968  12.798   8.064
 1104POPC   C4A17574  25.749  12.610   7.751
 1104POPC   C1B17575  26.510  12.798   8.686
 1104POPC   C2B17576  26.457  12.882   8.238
 1104POPC   C3B17577  26.372  12.976   7.781
 1104POPC   C4B17578  26.417  13.161   7.336
 1105POPC   NC317579  14.334   3.835   9.470
 1105POPC   PO417580  14.410   3.171   9.506
 1105POPC   GL117581  14.487   3.427   9.157
 1105POPC   GL217582  14.242   3.655   9.008
 1105POPC   C1A17583  14.726   3.532   8.789
 1105POPC   D2A17584  14.688   3.716   8.372
 1105POPC   C3A17585  14.372   3.565   8.095
 1105POPC   C4A17586  14.433   3.628   7.671
 1105POPC   C1B17587  13.999   3.946   8.732
 1105POPC   C2B17588  13.954   3.797   8.293
 1105POPC   C3B17589  14.032   3.921   7.868
 1105POPC   C4B17590  14.084   3.928   7.425
 1106POPC   NC317591  32.355  13.757   9.631
 1106POPC   PO417592  32.512  13.177   9.449
 1106POPC   GL117593  32.312  13.476   9.199
 1106POPC   GL217594  31.996  13.601   9.154
 1106POPC   C1A17595  32.443  13.787   8.912
 1106POPC   D2A17596  32.546  13.870   8.484
 1106POPC   C3A17597  32.284  13.803   8.123
 1106POPC   C4A17598  32.250  13.514   7.781
 1106POPC   C1B17599  32.113  13.340   8.754
 1106POPC   C2B17600  32.195  13.342   8.297
 1106POPC   C3B17601  31.929  13.154   7.949
 1106POPC   C4B17602  32.050  13.086   7.540
 1107POPC   NC317603  17.495  37.108   9.570
 1107POPC   PO417604  17.169  36.460   9.544
 1107POPC   GL117605  17.415  36.696   9.219
 1107POPC   GL217606  17.248  36.981   9.155
 1107POPC   C1A17607  17.648  36.929   8.838
 1107POPC   D2A17608  17.812  36.859   8.389
 1107POPC   C3A17609  17.765  37.011   7.971
 1107POPC   C4A17610  17.493  36.832   7.586
 1107POPC   C1B17611  17.175  36.803   8.776
 1107POPC   C2B17612  17.315  37.010   8.430
 1107POPC   C3B17613  17.289  36.861   8.052
 1107POPC   C4B17614  16.990  36.847   7.761
 1108POPC   NC317615  12.033  34.223   9.399
 1108POPC   PO417616  12.298  33.605   9.369
 1108POPC   GL117617  12.208  33.899   9.035
 1108POPC   GL217618  12.439  34.223   9.097
 1108POPC   C1A17619  11.912  33.787   8.690
 1108POPC   D2A17620  12.016  33.580   8.307
 1108POPC   C3A17621  12.033  33.738   7.892
 1108POPC   C4A17622  11.960  33.434   7.578
 1108POPC   C1B17623  12.229  34.286   8.690
 1108POPC   C2B17624  12.196  34.453   8.271
 1108POPC   C3B17625  12.362  34.175   7.968
 1108POPC   C4B17626  12.234  34.210   7.566
 1109POPC   NC317627   1.909   1.513   9.449
 1109POPC   PO417628   2.277   0.863   9.409
 1109POPC   GL117629   2.079   1.154   9.100
 1109POPC   GL217630   2.209   1.490   9.027
 1109POPC   C1A17631   1.770   1.197   8.769
 1109POPC   D2A17632   1.933   1.450   8.448
 1109POPC   C3A17633   1.827   1.374   8.043
 1109POPC   C4A17634   1.896   0.966   7.876
 1109POPC   C1B17635   2.482   1.343   8.729
 1109POPC   C2B17636   2.442   1.457   8.333
 1109POPC   C3B17637   2.283   1.540   7.943
 1109POPC   C4B17638   2.434   1.583   7.567
 1110POPC   NC317639  39.465  23.142   9.466
 1110POPC   PO417640  39.119  22.562   9.645
 1110POPC   GL117641  39.299  22.648   9.221
 1110POPC   GL217642  39.134  22.954   9.130
 1110POPC   C1A17643  39.204  22.649   8.748
 1110POPC   D2A17644  38.851  22.649   8.427
 1110POPC   C3A17645  38.998  22.659   7.968
 1110POPC   C4A17646  39.074  22.972   7.662
 1110POPC   C1B17647  39.305  23.152   8.759
 1110POPC   C2B17648  39.195  23.025   8.376
 1110POPC   C3B17649  39.247  23.248   8.041
 1110POPC   C4B17650  39.562  23.251   7.745
 1111POPC   NC317651  31.931  23.579   9.352
 1111POPC   PO417652  32.588  23.327   9.267
 1111POPC   GL117653  32.319  23.554   9.020
 1111POPC   GL217654  32.113  23.838   8.946
 1111POPC   C1A17655  32.300  23.523   8.605
 1111POPC   D2A17656  32.268  23.804   8.306
 1111POPC   C3A17657  32.297  23.599   7.923
 1111POPC   C4A17658  32.229  23.904   7.657
 1111POPC   C1B17659  31.815  23.766   8.722
 1111POPC   C2B17660  31.611  23.793   8.415
 1111POPC   C3B17661  31.822  23.875   8.062
 1111POPC   C4B17662  31.810  23.641   7.732
 1112POPC   NC317663   3.869   5.058   9.530
 1112POPC   PO417664   4.581   5.238   9.516
 1112POPC   GL117665   4.275   5.197   9.144
 1112POPC   GL217666   4.183   5.415   8.996
 1112POPC   C1A17667   4.015   5.035   8.739
 1112POPC   D2A17668   4.095   5.283   8.366
 1112POPC   C3A17669   4.305   5.058   8.077
 1112POPC   C4A17670   4.094   4.787   7.750
 1112POPC   C1B17671   4.483   5.253   8.692
 1112POPC   C2B17672   4.740   5.390   8.343
 1112POPC   C3B17673   4.778   5.277   7.940
 1112POPC   C4B17674   4.627   4.859   7.757
 1113POPC   NC317675   5.662  31.408   9.363
 1113POPC   PO417676   6.134  30.966   9.321
 1113POPC   GL117677   6.058  31.282   9.015
 1113POPC   GL217678   5.994  31.667   9.053
 1113POPC   C1A17679   5.875  31.368   8.618
 1113POPC   D2A17680   5.558  31.531   8.358
 1113POPC   C3A17681   5.563  31.328   7.948
 1113POPC   C4A17682   5.595  31.651   7.645
 1113POPC   C1B17683   6.311  31.635   8.735
 1113POPC   C2B17684   6.386  31.253   8.503
 1113POPC   C3B17685   6.101  31.215   8.141
 1113POPC   C4B17686   6.095  31.467   7.755
 1114POPC   NC317687  18.872   1.127   9.533
 1114POPC   PO417688  19.466   0.917   9.351
 1114POPC   GL117689  19.139   1.033   9.081
 1114POPC   GL217690  19.087   1.345   9.057
 1114POPC   C1A17691  18.945   0.999   8.677
 1114POPC   D2A17692  18.958   1.247   8.274
 1114POPC   C3A17693  18.973   1.049   7.878
 1114POPC   C4A17694  18.725   1.048   7.491
 1114POPC   C1B17695  18.938   1.555   8.678
 1114POPC   C2B17696  19.199   1.701   8.322
 1114POPC   C3B17697  19.308   1.491   7.922
 1114POPC   C4B17698  19.112   1.353   7.489
 1115POPC   NC317699  24.706  11.587   9.400
 1115POPC   PO417700  24.524  11.175   9.800
 1115POPC   GL117701  24.388  11.197   9.294
 1115POPC   GL217702  24.237  11.467   9.147
 1115POPC   C1A17703  24.265  11.024   8.866
 1115POPC   D2A17704  24.190  11.210   8.430
 1115POPC   C3A17705  24.382  11.139   8.028
 1115POPC   C4A17706  24.400  11.316   7.637
 1115POPC   C1B17707  24.513  11.465   8.746
 1115POPC   C2B17708  24.731  11.398   8.311
 1115POPC   C3B17709  24.699  11.631   7.884
 1115POPC   C4B17710  24.756  11.643   7.405
 1116POPC   NC317711  18.176   8.626   9.382
 1116POPC   PO417712  18.550   9.111   9.340
 1116POPC   GL117713  18.224   9.039   9.074
 1116POPC   GL217714  18.065   9.305   9.160
 1116POPC   C1A17715  18.083   8.917   8.677
 1116POPC   D2A17716  18.353   8.924   8.316
 1116POPC   C3A17717  18.201   8.838   7.927
 1116POPC   C4A17718  18.402   8.904   7.542
 1116POPC   C1B17719  18.042   9.452   8.762
 1116POPC   C2B17720  17.992   9.286   8.341
 1116POPC   C3B17721  18.123   9.346   7.937
 1116POPC   C4B17722  18.247   9.364   7.529
 1117POPC   NC317723  30.602  12.323   9.435
 1117POPC   PO417724  31.099  11.928   9.406
 1117POPC   GL117725  30.901  12.074   9.069
 1117POPC   GL217726  30.570  11.925   9.079
 1117POPC   C1A17727  31.024  12.279   8.694
 1117POPC   D2A17728  31.033  12.515   8.304
 1117POPC   C3A17729  31.028  12.235   7.969
 1117POPC   C4A17730  30.965  12.061   7.569
 1117POPC   C1B17731  30.501  12.172   8.722
 1117POPC   C2B17732  30.690  12.097   8.335
 1117POPC   C3B17733  30.543  12.124   7.912
 1117POPC   C4B17734  30.338  12.451   7.710
 1118POPC   NC317735   7.299   4.318   9.558
 1118POPC   PO417736   7.826   4.343   9.225
 1118POPC   GL117737   7.448   4.383   9.069
 1118POPC   GL217738   7.324   4.073   9.068
 1118POPC   C1A17739   7.251   4.352   8.681
 1118POPC   D2A17740   7.446   4.532   8.373
 1118POPC   C3A17741   7.338   4.330   8.052
 1118POPC   C4A17742   7.324   4.376   7.644
 1118POPC   C1B17743   7.664   4.049   8.710
 1118POPC   C2B17744   7.870   3.913   8.350
 1118POPC   C3B17745   7.764   4.082   7.955
 1118POPC   C4B17746   7.541   3.934   7.571
 1119POPC   NC317747  21.884  26.233   9.523
 1119POPC   PO417748  22.423  25.924   9.748
 1119POPC   GL117749  22.301  25.955   9.298
 1119POPC   GL217750  22.248  26.292   9.181
 1119POPC   C1A17751  22.331  25.915   8.820
 1119POPC   D2A17752  22.445  26.076   8.403
 1119POPC   C3A17753  22.266  25.937   8.053
 1119POPC   C4A17754  22.093  26.127   7.732
 1119POPC   C1B17755  22.236  26.444   8.790
 1119POPC   C2B17756  22.040  26.391   8.399
 1119POPC   C3B17757  22.290  26.468   8.065
 1119POPC   C4B17758  22.475  26.455   7.690
 1120POPC   NC317759  18.597  40.204   9.289
 1120POPC   PO417760  19.134  39.934   9.724
 1120POPC   GL117761  19.047  39.931   9.259
 1120POPC   GL217762  19.368  39.929   9.072
 1120POPC   C1A17763  18.877  39.778   8.827
 1120POPC   D2A17764  18.967  39.905   8.384
 1120POPC   C3A17765  18.771  40.265   8.154
 1120POPC   C4A17766  18.674  40.385   7.729
 1120POPC   C1B17767  19.136  40.226   8.824
 1120POPC   C2B17768  19.208  40.371   8.423
 1120POPC   C3B17769  19.274  40.204   8.021
 1120POPC   C4B17770  19.173  40.345   7.615
 1121POPC   NC317771  11.726  32.272   9.519
 1121POPC   PO417772  11.075  32.434   9.677
 1121POPC   GL117773  11.209  32.387   9.203
 1121POPC   GL217774  11.491  32.159   9.077
 1121POPC   C1A17775  11.125  32.305   8.733
 1121POPC   D2A17776  10.809  32.019   8.494
 1121POPC   C3A17777  10.765  31.961   8.056
 1121POPC   C4A17778  11.104  32.194   7.867
 1121POPC   C1B17779  11.616  32.237   8.623
 1121POPC   C2B17780  11.536  32.256   8.163
 1121POPC   C3B17781  11.597  32.146   7.722
 1121POPC   C4B17782  11.879  32.106   7.334
 1122POPC   NC317783  33.301  33.307   9.603
 1122POPC   PO417784  32.945  32.728   9.620
 1122POPC   GL117785  33.203  32.933   9.268
 1122POPC   GL217786  32.908  32.968   9.069
 1122POPC   C1A17787  33.347  33.099   8.841
 1122POPC   D2A17788  33.120  33.037   8.427
 1122POPC   C3A17789  33.111  33.222   8.000
 1122POPC   C4A17790  33.081  33.088   7.555
 1122POPC   C1B17791  32.612  32.841   8.770
 1122POPC   C2B17792  32.612  32.929   8.332
 1122POPC   C3B17793  32.722  32.909   7.903
 1122POPC   C4B17794  32.581  32.721   7.525
 1123POPC   NC317795   1.804   0.816   9.357
 1123POPC   PO417796   1.626   0.201   9.279
 1123POPC   GL117797   2.009   0.384   9.178
 1123POPC   GL217798   2.189   0.065   9.211
 1123POPC   C1A17799   2.072   0.636   8.791
 1123POPC   D2A17800   2.016   0.333   8.461
 1123POPC   C3A17801   1.898   0.478   8.061
 1123POPC   C4A17802   1.845   0.471   7.630
 1123POPC   C1B17803   2.376   0.247   8.854
 1123POPC   C2B17804   2.498   0.153   8.473
 1123POPC   C3B17805   2.354   0.243   8.079
 1123POPC   C4B17806   2.510   0.216   7.681
 1124POPC   NC317807  37.850  17.277   9.446
 1124POPC   PO417808  37.490  17.816   9.559
 1124POPC   GL117809  37.525  17.884   9.109
 1124POPC   GL217810  37.712  17.597   9.032
 1124POPC   C1A17811  37.738  17.987   8.688
 1124POPC   D2A17812  37.890  18.071   8.242
 1124POPC   C3A17813  37.903  17.675   7.964
 1124POPC   C4A17814  37.644  17.662   7.582
 1124POPC   C1B17815  37.608  17.437   8.655
 1124POPC   C2B17816  37.813  17.126   8.434
 1124POPC   C3B17817  37.743  17.079   8.012
 1124POPC   C4B17818  37.827  17.196   7.607
 1125POPC   NC317819  17.917  24.955   9.479
 1125POPC   PO417820  17.326  25.264   9.584
 1125POPC   GL117821  17.419  25.334   9.152
 1125POPC   GL217822  17.725  25.209   9.094
 1125POPC   C1A17823  17.200  25.289   8.755
 1125POPC   D2A17824  17.090  25.010   8.412
 1125POPC   C3A17825  17.223  25.088   7.995
 1125POPC   C4A17826  17.319  25.360   7.651
 1125POPC   C1B17827  17.685  25.426   8.715
 1125POPC   C2B17828  17.562  25.254   8.339
 1125POPC   C3B17829  17.732  25.237   7.937
 1125POPC   C4B17830  17.750  25.645   7.738
 1126POPC   NC317831  12.280  15.023   9.532
 1126POPC   PO417832  11.848  15.574   9.585
 1126POPC   GL117833  12.051  15.345   9.204
 1126POPC   GL217834  12.113  14.970   9.054
 1126POPC   C1A17835  12.209  15.398   8.791
 1126POPC   D2A17836  12.083  15.577   8.439
 1126POPC   C3A17837  12.178  15.434   8.034
 1126POPC   C4A17838  12.275  15.125   7.737
 1126POPC   C1B17839  12.351  14.931   8.636
 1126POPC   C2B17840  12.308  14.853   8.169
 1126POPC   C3B17841  12.066  14.673   7.764
 1126POPC   C4B17842  12.306  14.615   7.324
 1127POPC   NC317843  41.996  23.019   9.571
 1127POPC   PO417844  42.672  22.861   9.510
 1127POPC   GL117845  42.408  23.062   9.218
 1127POPC   GL217846  42.146  22.847   9.130
 1127POPC   C1A17847  42.424  23.031   8.758
 1127POPC   D2A17848  42.420  23.120   8.320
 1127POPC   C3A17849  42.605  22.979   7.904
 1127POPC   C4A17850  42.574  23.231   7.494
 1127POPC   C1B17851  41.903  22.852   8.790
 1127POPC   C2B17852  41.877  23.027   8.410
 1127POPC   C3B17853  42.035  22.825   8.067
 1127POPC   C4B17854  42.136  23.003   7.689
 1128POPC   NC317855   3.199  27.251   9.692
 1128POPC   PO417856   2.653  26.919   9.686
 1128POPC   GL117857   2.516  26.856   9.259
 1128POPC   GL217858   2.859  26.737   9.203
 1128POPC   C1A17859   2.553  26.738   8.810
 1128POPC   D2A17860   2.886  26.641   8.515
 1128POPC   C3A17861   2.786  26.776   8.089
 1128POPC   C4A17862   2.872  26.650   7.645
 1128POPC   C1B17863   2.906  27.086   8.876
 1128POPC   C2B17864   2.972  27.141   8.455
 1128POPC   C3B17865   3.030  27.262   8.077
 1128POPC   C4B17866   2.826  27.148   7.727
 1129POPC   NC317867  38.467   5.563  10.016
 1129POPC   PO417868  37.986   5.882   9.661
 1129POPC   GL117869  38.182   5.885   9.191
 1129POPC   GL217870  38.460   6.159   9.135
 1129POPC   C1A17871  38.298   5.906   8.719
 1129POPC   D2A17872  38.576   5.979   8.345
 1129POPC   C3A17873  38.358   5.882   7.961
 1129POPC   C4A17874  38.228   5.510   7.733
 1129POPC   C1B17875  38.648   6.339   8.723
 1129POPC   C2B17876  38.624   6.488   8.263
 1129POPC   C3B17877  38.727   6.236   7.870
 1129POPC   C4B17878  38.861   6.232   7.417
 1130POPC   NC317879   8.697  33.710  10.008
 1130POPC   PO417880   9.207  33.655   9.567
 1130POPC   GL117881   8.995  33.744   9.204
 1130POPC   GL217882   9.078  34.062   9.091
 1130POPC   C1A17883   8.850  33.597   8.808
 1130POPC   D2A17884   8.928  33.883   8.480
 1130POPC   C3A17885   8.980  33.762   8.075
 1130POPC   C4A17886   8.773  33.742   7.686
 1130POPC   C1B17887   9.352  34.232   8.781
 1130POPC   C2B17888   9.387  34.053   8.351
 1130POPC   C3B17889   9.289  34.125   7.889
 1130POPC   C4B17890   9.310  34.091   7.425
 1131POPC   NC317891  28.542  43.422   9.575
 1131POPC   PO417892  28.309  42.845   9.385
 1131POPC   GL117893  28.220  43.032   9.049
 1131POPC   GL217894  28.163  43.352   9.158
 1131POPC   C1A17895  28.424  43.076   8.674
 1131POPC   D2A17896  28.568  42.769   8.348
 1131POPC   C3A17897  28.473  43.035   8.032
 1131POPC   C4A17898  28.337  42.973   7.630
 1131POPC   C1B17899  27.960  43.400   8.761
 1131POPC   C2B17900  28.172  43.415   8.367
 1131POPC   C3B17901  28.052  43.345   7.937
 1131POPC   C4B17902  28.233  43.456   7.526
 1132POPC   NC317903  30.716  39.430   9.427
 1132POPC   PO417904  30.363  38.916   9.597
 1132POPC   GL117905  30.611  38.889   9.204
 1132POPC   GL217906  30.519  39.162   9.025
 1132POPC   C1A17907  30.921  38.851   8.843
 1132POPC   D2A17908  31.067  39.041   8.466
 1132POPC   C3A17909  30.802  38.955   8.108
 1132POPC   C4A17910  30.883  38.904   7.706
 1132POPC   C1B17911  30.747  39.375   8.702
 1132POPC   C2B17912  30.656  39.428   8.278
 1132POPC   C3B17913  30.857  39.416   7.907
 1132POPC   C4B17914  30.738  39.330   7.482
 1133POPC   NC317915   1.098  24.437   9.524
 1133POPC   PO417916   1.725  24.720   9.383
 1133POPC   GL117917   1.335  24.680   9.105
 1133POPC   GL217918   0.951  24.654   9.070
 1133POPC   C1A17919   1.265  24.437   8.700
 1133POPC   D2A17920   1.432  24.116   8.369
 1133POPC   C3A17921   1.410  24.280   7.944
 1133POPC   C4A17922   1.148  24.657   7.937
 1133POPC   C1B17923   0.832  24.210   8.957
 1133POPC   C2B17924   0.965  24.003   8.584
 1133POPC   C3B17925   0.941  24.145   8.138
 1133POPC   C4B17926   0.961  23.992   7.715
 1134POPC   NC317927  37.090  31.989   9.402
 1134POPC   PO417928  36.415  31.929   9.426
 1134POPC   GL117929  36.726  32.220   9.133
 1134POPC   GL217930  37.098  32.397   9.103
 1134POPC   C1A17931  36.881  32.238   8.691
 1134POPC   D2A17932  36.698  32.368   8.328
 1134POPC   C3A17933  36.878  32.192   7.954
 1134POPC   C4A17934  36.688  32.350   7.561
 1134POPC   C1B17935  37.387  32.135   8.792
 1134POPC   C2B17936  37.571  32.245   8.374
 1134POPC   C3B17937  37.312  32.481   8.049
 1134POPC   C4B17938  37.181  32.469   7.621
 1135POPC   NC317939  41.432   9.350   9.703
 1135POPC   PO417940  41.798   8.769   9.479
 1135POPC   GL117941  41.637   9.017   9.131
 1135POPC   GL217942  41.307   9.177   9.179
 1135POPC   C1A17943  41.803   9.184   8.755
 1135POPC   D2A17944  41.540   9.146   8.431
 1135POPC   C3A17945  41.645   9.179   8.017
 1135POPC   C4A17946  42.020   9.194   7.791
 1135POPC   C1B17947  41.254   8.826   8.874
 1135POPC   C2B17948  41.202   8.776   8.434
 1135POPC   C3B17949  41.115   9.135   8.139
 1135POPC   C4B17950  41.265   9.156   7.701
 1136POPC   NC317951  14.208  37.782   9.465
 1136POPC   PO417952  14.541  37.252   9.492
 1136POPC   GL117953  14.459  37.512   9.112
 1136POPC   GL217954  14.452  37.887   9.013
 1136POPC   C1A17955  14.703  37.575   8.723
 1136POPC   D2A17956  14.851  37.684   8.368
 1136POPC   C3A17957  14.658  37.495   8.017
 1136POPC   C4A17958  14.366  37.638   7.715
 1136POPC   C1B17959  14.570  38.074   8.613
 1136POPC   C2B17960  14.533  38.041   8.142
 1136POPC   C3B17961  14.362  38.154   7.751
 1136POPC   C4B17962  14.244  37.975   7.348
 1137POPC   NC317963  19.797  30.398   9.397
 1137POPC   PO417964  19.351  30.892   9.389
 1137POPC   GL117965  19.584  30.728   9.047
 1137POPC   GL217966  19.605  30.369   8.934
 1137POPC   C1A17967  19.684  30.774   8.626
 1137POPC   D2A17968  19.621  30.472   8.310
 1137POPC   C3A17969  19.707  30.673   7.920
 1137POPC   C4A17970  19.725  31.098   7.772
 1137POPC   C1B17971  20.022  30.388   8.712
 1137POPC   C2B17972  20.121  30.634   8.324
 1137POPC   C3B17973  20.190  30.500   7.894
 1137POPC   C4B17974  20.074  30.087   7.823
 1138POPC   NC317975  26.252  35.229   9.511
 1138POPC   PO417976  25.752  35.538   9.297
 1138POPC   GL117977  25.989  35.244   9.037
 1138POPC   GL217978  26.270  34.994   9.081
 1138POPC   C1A17979  26.128  35.238   8.608
 1138POPC   D2A17980  25.972  35.225   8.164
 1138POPC   C3A17981  26.125  35.512   7.844
 1138POPC   C4A17982  26.172  35.463   7.383
 1138POPC   C1B17983  26.577  34.976   8.786
 1138POPC   C2B17984  26.610  35.205   8.404
 1138POPC   C3B17985  26.503  35.124   7.980
 1138POPC   C4B17986  26.169  34.986   7.743
 1139POPC   NC317987  13.745  27.207   9.343
 1139POPC   PO417988  13.395  27.825   9.454
 1139POPC   GL117989  13.525  27.736   9.069
 1139POPC   GL217990  13.812  27.678   9.148
 1139POPC   C1A17991  13.672  27.591   8.664
 1139POPC   D2A17992  13.504  27.652   8.273
 1139POPC   C3A17993  13.577  27.324   8.000
 1139POPC   C4A17994  13.657  27.555   7.657
 1139POPC   C1B17995  13.950  27.977   8.849
 1139POPC   C2B17996  13.919  28.047   8.385
 1139POPC   C3B17997  13.795  27.986   7.926
 1139POPC   C4B17998  13.980  28.037   7.505
 1140POPC   NC317999  20.427  21.831   9.390
 1140POPC   PO418000  20.814  21.324   9.610
 1140POPC   GL118001  20.535  21.296   9.276
 1140POPC   GL218002  20.800  21.105   9.143
 1140POPC   C1A18003  20.449  21.291   8.822
 1140POPC   D2A18004  20.448  21.565   8.487
 1140POPC   C3A18005  20.470  21.468   8.049
 1140POPC   C4A18006  20.723  21.680   7.759
 1140POPC   C1B18007  20.931  20.971   8.769
 1140POPC   C2B18008  20.733  21.055   8.410
 1140POPC   C3B18009  20.928  20.985   8.040
 1140POPC   C4B18010  20.803  21.174   7.707
 1141POPC   NC318011   1.613  21.134   9.476
 1141POPC   PO418012   0.986  21.245   9.410
 1141POPC   GL118013   1.310  21.323   9.120
 1141POPC   GL218014   1.455  21.629   9.072
 1141POPC   C1A18015   1.285  21.250   8.719
 1141POPC   D2A18016   1.253  21.209   8.310
 1141POPC   C3A18017   1.043  21.144   7.966
 1141POPC   C4A18018   0.869  21.489   7.746
 1141POPC   C1B18019   1.684  21.564   8.683
 1141POPC   C2B18020   1.658  21.502   8.231
 1141POPC   C3B18021   1.399  21.489   7.847
 1141POPC   C4B18022   1.504  21.646   7.412
 1142POPC   NC318023   5.443   9.061   9.564
 1142POPC   PO418024   4.854   9.130   9.621
 1142POPC   GL118025   5.059   8.966   9.216
 1142POPC   GL218026   5.295   9.224   9.086
 1142POPC   C1A18027   5.046   8.829   8.766
 1142POPC   D2A18028   4.883   8.677   8.356
 1142POPC   C3A18029   4.739   8.974   8.073
 1142POPC   C4A18030   5.137   8.962   7.886
 1142POPC   C1B18031   5.534   9.044   8.772
 1142POPC   C2B18032   5.423   9.034   8.349
 1142POPC   C3B18033   5.485   9.332   8.017
 1142POPC   C4B18034   5.279   9.371   7.636
 1143POPC   NC318035   1.316  27.486   9.550
 1143POPC   PO418036   0.813  28.033   9.440
 1143POPC   GL118037   1.127  27.744   9.158
 1143POPC   GL218038   1.282  27.385   9.051
 1143POPC   C1A18039   1.267  27.803   8.741
 1143POPC   D2A18040   1.490  27.888   8.382
 1143POPC   C3A18041   1.493  27.596   8.124
 1143POPC   C4A18042   1.292  27.562   7.753
 1143POPC   C1B18043   1.123  27.327   8.611
 1143POPC   C2B18044   0.998  27.430   8.176
 1143POPC   C3B18045   0.944  27.192   7.771
 1143POPC   C4B18046   1.097  27.122   7.354
 1144POPC   NC318047  28.921  34.568   9.549
 1144POPC   PO418048  29.500  34.217   9.384
 1144POPC   GL118049  29.182  34.402   9.136
 1144POPC   GL218050  28.962  34.712   9.079
 1144POPC   C1A18051  29.254  34.467   8.731
 1144POPC   D2A18052  29.568  34.605   8.487
 1144POPC   C3A18053  29.320  34.667   8.148
 1144POPC   C4A18054  29.371  34.690   7.716
 1144POPC   C1B18055  28.743  34.456   8.820
 1144POPC   C2B18056  28.838  34.619   8.422
 1144POPC   C3B18057  28.818  34.713   8.006
 1144POPC   C4B18058  28.929  34.467   7.672
 1145POPC   NC318059   1.820  36.506   9.428
 1145POPC   PO418060   2.224  35.979   9.440
 1145POPC   GL118061   1.956  36.139   9.085
 1145POPC   GL218062   1.935  36.513   8.936
 1145POPC   C1A18063   2.035  36.106   8.632
 1145POPC   D2A18064   2.253  36.282   8.274
 1145POPC   C3A18065   2.120  36.117   7.878
 1145POPC   C4A18066   1.966  36.262   7.466
 1145POPC   C1B18067   1.576  36.276   8.775
 1145POPC   C2B18068   1.560  36.070   8.404
 1145POPC   C3B18069   1.608  36.139   7.980
 1145POPC   C4B18070   1.548  36.454   7.745
 1146POPC   NC318071   0.948  36.819   9.566
 1146POPC   PO418072   1.549  36.859   9.529
 1146POPC   GL118073   1.428  36.662   9.120
 1146POPC   GL218074   1.147  36.859   9.074
 1146POPC   C1A18075   1.371  36.713   8.647
 1146POPC   D2A18076   1.029  36.839   8.372
 1146POPC   C3A18077   1.237  36.804   7.992
 1146POPC   C4A18078   1.500  36.939   7.659
 1146POPC   C1B18079   1.208  37.175   8.763
 1146POPC   C2B18080   1.431  37.189   8.399
 1146POPC   C3B18081   1.456  37.310   7.996
 1146POPC   C4B18082   1.090  37.234   7.719
 1147POPC   NC318083  22.540  26.359   9.611
 1147POPC   PO418084  22.801  25.814   9.294
 1147POPC   GL118085  22.752  26.204   9.156
 1147POPC   GL218086  23.058  26.366   9.155
 1147POPC   C1A18087  22.761  26.240   8.743
 1147POPC   D2A18088  22.952  26.279   8.335
 1147POPC   C3A18089  22.751  26.164   7.987
 1147POPC   C4A18090  22.665  25.824   7.751
 1147POPC   C1B18091  23.253  26.370   8.740
 1147POPC   C2B18092  23.350  26.574   8.296
 1147POPC   C3B18093  23.105  26.535   7.883
 1147POPC   C4B18094  23.049  26.508   7.397
 1148POPC   NC318095  10.050   9.673   9.353
 1148POPC   PO418096   9.472   9.321   9.412
 1148POPC   GL118097   9.617   9.543   9.104
 1148POPC   GL218098   9.520   9.876   9.117
 1148POPC   C1A18099   9.803   9.490   8.729
 1148POPC   D2A18100   9.634   9.585   8.346
 1148POPC   C3A18101   9.927   9.611   8.037
 1148POPC   C4A18102   9.909   9.505   7.624
 1148POPC   C1B18103   9.660   9.996   8.701
 1148POPC   C2B18104   9.711  10.075   8.253
 1148POPC   C3B18105   9.659   9.983   7.807
 1148POPC   C4B18106   9.873   9.999   7.406
 1149POPC   NC318107  40.350  17.387   9.583
 1149POPC   PO418108  40.917  17.020   9.594
 1149POPC   GL118109  40.845  17.397   9.321
 1149POPC   GL218110  41.150  17.609   9.238
 1149POPC   C1A18111  40.677  17.355   8.919
 1149POPC   D2A18112  40.752  17.085   8.587
 1149POPC   C3A18113  40.721  17.284   8.181
 1149POPC   C4A18114  40.822  17.386   7.768
 1149POPC   C1B18115  40.907  17.817   8.932
 1149POPC   C2B18116  40.862  17.673   8.510
 1149POPC   C3B18117  41.076  17.683   8.100
 1149POPC   C4B18118  41.050  17.815   7.676
 1150POPC   NC318119  10.447  21.191   9.497
 1150POPC   PO418120  10.608  20.563   9.729
 1150POPC   GL118121  10.611  20.657   9.258
 1150POPC   GL218122  10.800  20.934   9.123
 1150POPC   C1A18123  10.368  20.800   8.867
 1150POPC   D2A18124  10.197  20.772   8.430
 1150POPC   C3A18125  10.350  20.495   8.094
 1150POPC   C4A18126  10.495  20.247   7.764
 1150POPC   C1B18127  10.832  20.576   8.750
 1150POPC   C2B18128  10.907  20.471   8.279
 1150POPC   C3B18129  10.974  20.385   7.865
 1150POPC   C4B18130  10.728  20.737   7.809
 1151POPC   NC318131   0.592  14.318   9.478
 1151POPC   PO418132   0.057  14.594   9.729
 1151POPC   GL118133   0.126  14.427   9.258
 1151POPC   GL218134   0.305  14.214   9.056
 1151POPC   C1A18135   0.038  14.518   8.775
 1151POPC   D2A18136   0.308  14.291   8.476
 1151POPC   C3A18137   0.114  14.193   8.109
 1151POPC   C4A18138   0.256  14.260   7.685
 1151POPC   C1B18139   0.688  14.172   8.833
 1151POPC   C2B18140   0.735  13.950   8.434
 1151POPC   C3B18141   0.648  14.134   8.032
 1151POPC   C4B18142   0.755  14.192   7.597
 1152POPC   NC318143  31.777   9.967   9.451
 1152POPC   PO418144  31.226   9.607   9.442
 1152POPC   GL118145  31.339   9.409   9.085
 1152POPC   GL218146  31.718   9.510   9.080
 1152POPC   C1A18147  31.160   9.353   8.689
 1152POPC   D2A18148  31.000   9.552   8.340
 1152POPC   C3A18149  31.269   9.897   8.176
 1152POPC   C4A18150  31.241   9.809   7.735
 1152POPC   C1B18151  31.543   9.731   8.747
 1152POPC   C2B18152  31.574   9.535   8.377
 1152POPC   C3B18153  31.716   9.665   7.997
 1152POPC   C4B18154  31.697   9.971   7.699
 1153POPC   NC318155  15.778   6.686   9.433
 1153POPC   PO418156  16.231   6.331   9.684
 1153POPC   GL118157  16.062   6.345   9.208
 1153POPC   GL218158  15.776   6.210   9.134
 1153POPC   C1A18159  15.917   6.628   8.816
 1153POPC   D2A18160  16.163   6.750   8.470
 1153POPC   C3A18161  15.978   6.751   8.087
 1153POPC   C4A18162  16.056   6.634   7.684
 1153POPC   C1B18163  16.022   6.144   8.734
 1153POPC   C2B18164  15.827   6.288   8.332
 1153POPC   C3B18165  15.840   6.167   7.894
 1153POPC   C4B18166  15.544   6.180   7.516
 1154POPC   NC318167  29.491  23.222   9.464
 1154POPC   PO418168  29.844  22.698   9.641
 1154POPC   GL118169  30.112  22.821   9.318
 1154POPC   GL218170  29.940  23.090   9.216
 1154POPC   C1A18171  30.291  22.854   8.899
 1154POPC   D2A18172  30.393  22.839   8.476
 1154POPC   C3A18173  30.173  22.632   8.141
 1154POPC   C4A18174  30.182  22.888   7.793
 1154POPC   C1B18175  29.805  22.948   8.772
 1154POPC   C2B18176  29.880  23.038   8.283
 1154POPC   C3B18177  29.697  23.096   7.818
 1154POPC   C4B18178  29.524  23.022   7.363
 1155POPC   NC318179  22.953  21.733   9.549
 1155POPC   PO418180  22.826  21.092   9.307
 1155POPC   GL118181  22.912  21.312   8.938
 1155POPC   GL218182  23.153  21.485   9.122
 1155POPC   C1A18183  22.791  21.654   8.612
 1155POPC   D2A18184  22.692  21.731   8.141
 1155POPC   C3A18185  22.772  21.392   7.884
 1155POPC   C4A18186  23.124  21.137   7.839
 1155POPC   C1B18187  23.284  21.571   8.699
 1155POPC   C2B18188  23.284  21.405   8.289
 1155POPC   C3B18189  23.303  21.612   7.901
 1155POPC   C4B18190  23.007  21.780   7.657
 1156POPC   NC318191  31.224  31.024   9.502
 1156POPC   PO418192  31.413  31.685   9.588
 1156POPC   GL118193  31.556  31.624   9.197
 1156POPC   GL218194  31.556  31.268   9.132
 1156POPC   C1A18195  31.474  31.721   8.809
 1156POPC   D2A18196  31.560  31.609   8.437
 1156POPC   C3A18197  31.617  31.893   8.139
 1156POPC   C4A18198  31.690  31.564   7.884
 1156POPC   C1B18199  31.238  31.273   8.817
 1156POPC   C2B18200  31.069  31.364   8.472
 1156POPC   C3B18201  31.243  31.380   8.095
 1156POPC   C4B18202  31.245  31.240   7.702
 1157POPC   NC318203  19.661   3.698   9.498
 1157POPC   PO418204  20.221   3.277   9.440
 1157POPC   GL118205  20.165   3.485   9.091
 1157POPC   GL218206  19.846   3.637   9.047
 1157POPC   C1A18207  20.012   3.294   8.724
 1157POPC   D2A18208  19.756   3.276   8.363
 1157POPC   C3A18209  19.957   3.398   8.005
 1157POPC   C4A18210  19.879   3.441   7.608
 1157POPC   C1B18211  19.611   3.675   8.692
 1157POPC   C2B18212  19.481   3.795   8.290
 1157POPC   C3B18213  19.694   3.843   7.894
 1157POPC   C4B18214  19.951   3.992   7.572
 1158POPC   NC318215  20.585  18.411   9.484
 1158POPC   PO418216  20.238  18.872   9.231
 1158POPC   GL118217  20.424  18.523   9.015
 1158POPC   GL218218  20.409  18.164   9.079
 1158POPC   C1A18219  20.748  18.395   8.721
 1158POPC   D2A18220  20.709  18.261   8.278
 1158POPC   C3A18221  20.872  18.448   7.891
 1158POPC   C4A18222  20.633  18.509   7.471
 1158POPC   C1B18223  20.294  18.156   8.639
 1158POPC   C2B18224  20.285  17.986   8.224
 1158POPC   C3B18225  20.436  18.160   7.832
 1158POPC   C4B18226  20.784  18.043   7.572
 1159POPC   NC318227   2.646  10.624   9.542
 1159POPC   PO418228   3.312  10.580   9.495
 1159POPC   GL118229   2.990  10.570   9.153
 1159POPC   GL218230   2.706  10.821   9.069
 1159POPC   C1A18231   2.868  10.452   8.726
 1159POPC   D2A18232   2.907  10.276   8.311
 1159POPC   C3A18233   2.893  10.472   7.889
 1159POPC   C4A18234   2.972  10.293   7.475
 1159POPC   C1B18235   2.449  10.762   8.679
 1159POPC   C2B18236   2.441  10.572   8.245
 1159POPC   C3B18237   2.430  10.734   7.802
 1159POPC   C4B18238   2.688  10.714   7.404
 1160POPC   NC318239   4.436  18.229   9.369
 1160POPC   PO418240   3.867  18.618   9.449
 1160POPC   GL118241   4.051  18.383   9.059
 1160POPC   GL218242   4.069  18.035   9.014
 1160POPC   C1A18243   4.431  18.295   8.732
 1160POPC   D2A18244   4.674  18.521   8.420
 1160POPC   C3A18245   4.678  18.349   7.993
 1160POPC   C4A18246   4.625  18.343   7.534
 1160POPC   C1B18247   3.957  18.215   8.579
 1160POPC   C2B18248   4.207  18.352   8.235
 1160POPC   C3B18249   4.226  18.529   7.831
 1160POPC   C4B18250   3.833  18.734   7.726
 1161POPC   NC318251  41.260   4.663   9.531
 1161POPC   PO418252  41.489   4.131   9.506
 1161POPC   GL118253  41.620   4.382   9.145
 1161POPC   GL218254  41.351   4.571   9.014
 1161POPC   C1A18255  41.798   4.419   8.723
 1161POPC   D2A18256  41.559   4.679   8.427
 1161POPC   C3A18257  41.387   4.547   8.029
 1161POPC   C4A18258  41.567   4.266   7.737
 1161POPC   C1B18259  41.329   4.269   8.657
 1161POPC   C2B18260  41.592   4.142   8.282
 1161POPC   C3B18261  41.487   3.815   7.966
 1161POPC   C4B18262  41.658   3.775   7.558
 1162POPC   NC318263   7.877  38.278   9.439
 1162POPC   PO418264   8.523  38.176   9.531
 1162POPC   GL118265   8.293  38.373   9.146
 1162POPC   GL218266   7.967  38.588   9.052
 1162POPC   C1A18267   8.155  38.263   8.722
 1162POPC   D2A18268   8.289  38.435   8.346
 1162POPC   C3A18269   8.156  38.330   7.930
 1162POPC   C4A18270   8.088  38.413   7.477
 1162POPC   C1B18271   7.837  38.650   8.618
 1162POPC   C2B18272   7.905  38.765   8.184
 1162POPC   C3B18273   7.909  38.797   7.743
 1162POPC   C4B18274   7.947  38.868   7.272
 1163POPC   NC318275  21.030  11.631   9.337
 1163POPC   PO418276  21.308  10.997   9.483
 1163POPC   GL118277  21.425  11.236   9.108
 1163POPC   GL218278  21.438  11.589   9.015
 1163POPC   C1A18279  21.744  11.278   8.757
 1163POPC   D2A18280  21.647  11.289   8.324
 1163POPC   C3A18281  21.442  11.148   7.971
 1163POPC   C4A18282  21.073  11.060   7.729
 1163POPC   C1B18283  21.239  11.338   8.669
 1163POPC   C2B18284  21.151  11.520   8.317
 1163POPC   C3B18285  21.461  11.739   8.170
 1163POPC   C4B18286  21.707  11.581   7.814
 1164POPC   NC318287  23.033  39.728   9.487
 1164POPC   PO418288  23.020  40.432   9.488
 1164POPC   GL118289  23.125  40.156   9.158
 1164POPC   GL218290  22.820  39.998   9.097
 1164POPC   C1A18291  23.164  40.013   8.702
 1164POPC   D2A18292  23.179  40.232   8.288
 1164POPC   C3A18293  23.043  39.996   7.922
 1164POPC   C4A18294  22.817  40.140   7.549
 1164POPC   C1B18295  22.751  39.695   8.760
 1164POPC   C2B18296  22.980  39.562   8.395
 1164POPC   C3B18297  22.828  39.476   7.992
 1164POPC   C4B18298  22.834  39.638   7.594
 1165POPC   NC318299   9.857  32.022   9.299
 1165POPC   PO418300   9.727  31.455   9.582
 1165POPC   GL118301   9.935  31.284   9.220
 1165POPC   GL218302   9.752  31.566   9.042
 1165POPC   C1A18303   9.966  31.152   8.774
 1165POPC   D2A18304  10.014  31.536   8.513
 1165POPC   C3A18305   9.912  31.570   8.074
 1165POPC   C4A18306   9.998  31.171   7.880
 1165POPC   C1B18307   9.513  31.381   8.706
 1165POPC   C2B18308   9.631  31.209   8.313
 1165POPC   C3B18309   9.507  31.312   7.888
 1165POPC   C4B18310   9.496  31.456   7.442
 1166POPC   NC318311  40.141  10.978   9.385
 1166POPC   PO418312  39.715  10.435   9.423
 1166POPC   GL118313  39.907  10.560   9.018
 1166POPC   GL218314  40.170  10.817   8.888
 1166POPC   C1A18315  40.019  10.385   8.650
 1166POPC   D2A18316  40.067  10.551   8.289
 1166POPC   C3A18317  39.968  10.297   7.987
 1166POPC   C4A18318  39.872  10.266   7.566
 1166POPC   C1B18319  40.479  10.616   8.656
 1166POPC   C2B18320  40.547  10.731   8.297
 1166POPC   C3B18321  40.336  10.808   7.943
 1166POPC   C4B18322  40.259  10.553   7.660
 1167POPC   NC318323  24.621   4.412   9.493
 1167POPC   PO418324  24.288   3.906   9.717
 1167POPC   GL118325  24.490   3.960   9.253
 1167POPC   GL218326  24.265   3.852   9.007
 1167POPC   C1A18327  24.562   4.267   8.853
 1167POPC   D2A18328  24.522   4.653   8.547
 1167POPC   C3A18329  24.618   4.631   8.062
 1167POPC   C4A18330  24.497   4.494   7.615
 1167POPC   C1B18331  24.215   4.006   8.582
 1167POPC   C2B18332  24.418   4.220   8.269
 1167POPC   C3B18333  24.520   4.060   7.857
 1167POPC   C4B18334  24.222   4.014   7.499
 1168POPC   NC318335  32.066  37.208   9.370
 1168POPC   PO418336  32.548  36.752   9.505
 1168POPC   GL118337  32.324  36.798   9.082
 1168POPC   GL218338  31.987  36.852   9.033
 1168POPC   C1A18339  32.422  36.893   8.639
 1168POPC   D2A18340  32.361  37.113   8.232
 1168POPC   C3A18341  32.423  36.859   7.832
 1168POPC   C4A18342  32.593  36.766   7.357
 1168POPC   C1B18343  31.922  37.089   8.677
 1168POPC   C2B18344  31.732  37.100   8.307
 1168POPC   C3B18345  31.954  37.069   7.938
 1168POPC   C4B18346  32.217  37.343   7.702
 1169POPC   NC318347  31.016  10.771   9.491
 1169POPC   PO418348  30.487  10.279   9.492
 1169POPC   GL118349  30.675  10.449   9.185
 1169POPC   GL218350  30.530  10.775   9.221
 1169POPC   C1A18351  30.801  10.331   8.769
 1169POPC   D2A18352  30.977  10.345   8.340
 1169POPC   C3A18353  30.632  10.332   8.029
 1169POPC   C4A18354  30.897  10.473   7.725
 1169POPC   C1B18355  30.816  10.832   8.881
 1169POPC   C2B18356  30.706  10.748   8.481
 1169POPC   C3B18357  30.710  10.822   8.073
 1169POPC   C4B18358  30.419  10.741   7.741
 1170POPC   NC318359   4.522  15.693   9.555
 1170POPC   PO418360   5.150  15.370   9.422
 1170POPC   GL118361   4.937  15.305   9.084
 1170POPC   GL218362   4.627  15.286   9.215
 1170POPC   C1A18363   5.026  15.155   8.680
 1170POPC   D2A18364   5.245  15.309   8.311
 1170POPC   C3A18365   5.073  15.192   7.931
 1170POPC   C4A18366   5.146  14.921   7.566
 1170POPC   C1B18367   4.543  15.332   8.764
 1170POPC   C2B18368   4.688  15.364   8.291
 1170POPC   C3B18369   4.600  15.369   7.819
 1170POPC   C4B18370   4.729  15.172   7.415
 1171POPC   NC318371   7.414  26.492   9.413
 1171POPC   PO418372   7.259  27.160   9.528
 1171POPC   GL118373   7.210  26.916   9.196
 1171POPC   GL218374   7.581  26.919   9.166
 1171POPC   C1A18375   7.169  26.969   8.774
 1171POPC   D2A18376   7.455  27.076   8.452
 1171POPC   C3A18377   7.304  26.866   8.099
 1171POPC   C4A18378   7.246  26.896   7.679
 1171POPC   C1B18379   7.624  26.678   8.803
 1171POPC   C2B18380   7.679  26.442   8.433
 1171POPC   C3B18381   7.491  26.380   8.040
 1171POPC   C4B18382   7.666  26.634   7.726
 1172POPC   NC318383   8.883  32.557   9.346
 1172POPC   PO418384   9.400  32.094   9.426
 1172POPC   GL118385   9.058  32.133   9.101
 1172POPC   GL218386   8.755  31.928   9.229
 1172POPC   C1A18387   8.920  32.397   8.718
 1172POPC   D2A18388   8.882  32.637   8.318
 1172POPC   C3A18389   8.967  32.395   7.939
 1172POPC   C4A18390   9.301  32.214   7.722
 1172POPC   C1B18391   8.776  31.804   8.795
 1172POPC   C2B18392   8.887  31.991   8.398
 1172POPC   C3B18393   8.832  31.856   8.000
 1172POPC   C4B18394   8.757  32.009   7.616
 1173POPC   NC318395  31.639  39.320   9.554
 1173POPC   PO418396  31.015  38.986   9.505
 1173POPC   GL118397  31.407  38.965   9.151
 1173POPC   GL218398  31.691  39.243   9.055
 1173POPC   C1A18399  31.580  38.922   8.692
 1173POPC   D2A18400  31.612  39.195   8.337
 1173POPC   C3A18401  31.285  39.120   8.006
 1173POPC   C4A18402  31.230  39.268   7.576
 1173POPC   C1B18403  31.313  39.376   8.764
 1173POPC   C2B18404  31.187  39.507   8.317
 1173POPC   C3B18405  31.507  39.582   8.006
 1173POPC   C4B18406  31.767  39.248   7.807
 1174POPC   NC318407   9.617   5.491   9.490
 1174POPC   PO418408   9.934   5.948   9.468
 1174POPC   GL118409   9.907   5.725   9.117
 1174POPC   GL218410   9.693   6.020   8.998
 1174POPC   C1A18411   9.865   5.669   8.693
 1174POPC   D2A18412   9.627   5.830   8.402
 1174POPC   C3A18413   9.839   5.745   8.025
 1174POPC   C4A18414  10.013   5.666   7.631
 1174POPC   C1B18415   9.308   6.099   8.751
 1174POPC   C2B18416   9.241   6.222   8.324
 1174POPC   C3B18417   9.497   6.103   7.975
 1174POPC   C4B18418   9.554   5.894   7.589
 1175POPC   NC318419  27.426  31.763   9.613
 1175POPC   PO418420  27.144  31.324   9.238
 1175POPC   GL118421  27.593  31.477   9.112
 1175POPC   GL218422  27.687  31.847   9.177
 1175POPC   C1A18423  27.845  31.505   8.685
 1175POPC   D2A18424  27.878  31.304   8.235
 1175POPC   C3A18425  27.476  31.430   8.013
 1175POPC   C4A18426  27.168  31.337   7.697
 1175POPC   C1B18427  27.414  31.864   8.839
 1175POPC   C2B18428  27.445  31.818   8.422
 1175POPC   C3B18429  27.795  31.807   8.162
 1175POPC   C4B18430  27.871  31.651   7.753
 1176POPC   NC318431   5.041   5.400   9.494
 1176POPC   PO418432   4.694   6.014   9.485
 1176POPC   GL118433   4.856   5.968   9.074
 1176POPC   GL218434   5.139   5.821   9.162
 1176POPC   C1A18435   4.941   6.010   8.615
 1176POPC   D2A18436   5.110   5.762   8.315
 1176POPC   C3A18437   4.977   5.790   7.919
 1176POPC   C4A18438   4.853   5.856   7.503
 1176POPC   C1B18439   5.256   6.233   8.920
 1176POPC   C2B18440   5.404   6.213   8.477
 1176POPC   C3B18441   5.194   6.216   8.090
 1176POPC   C4B18442   5.279   6.210   7.653
 1177POPC   NC318443   2.649  32.270   9.558
 1177POPC   PO418444   3.057  32.766   9.640
 1177POPC   GL118445   2.991  32.470   9.256
 1177POPC   GL218446   3.241  32.602   9.127
 1177POPC   C1A18447   2.705  32.345   8.890
 1177POPC   D2A18448   2.532  32.131   8.505
 1177POPC   C3A18449   2.696  32.235   8.095
 1177POPC   C4A18450   2.672  32.070   7.672
 1177POPC   C1B18451   3.179  32.448   8.714
 1177POPC   C2B18452   3.342  32.563   8.303
 1177POPC   C3B18453   3.261  32.578   7.844
 1177POPC   C4B18454   2.901  32.504   7.562
 1178POPC   NC318455  37.972  38.855   9.374
 1178POPC   PO418456  38.454  39.202   9.689
 1178POPC   GL118457  38.547  39.232   9.228
 1178POPC   GL218458  38.469  38.918   9.167
 1178POPC   C1A18459  38.460  39.394   8.790
 1178POPC   D2A18460  38.597  39.528   8.391
 1178POPC   C3A18461  38.411  39.420   8.029
 1178POPC   C4A18462  38.539  39.392   7.615
 1178POPC   C1B18463  38.276  38.886   8.740
 1178POPC   C2B18464  38.269  39.006   8.313
 1178POPC   C3B18465  38.447  38.905   7.914
 1178POPC   C4B18466  38.337  38.911   7.475
 1179POPC   NC318467  22.427  36.953   9.510
 1179POPC   PO418468  21.919  37.096   9.799
 1179POPC   GL118469  22.044  37.249   9.304
 1179POPC   GL218470  22.397  37.274   9.098
 1179POPC   C1A18471  22.018  37.181   8.794
 1179POPC   D2A18472  22.166  36.961   8.381
 1179POPC   C3A18473  22.122  37.137   7.957
 1179POPC   C4A18474  21.765  37.384   7.797
 1179POPC   C1B18475  22.507  36.945   8.761
 1179POPC   C2B18476  22.689  36.918   8.305
 1179POPC   C3B18477  22.726  36.909   7.827
 1179POPC   C4B18478  22.778  36.958   7.364
 1180POPC   NC318479  25.644  43.702   9.352
 1180POPC   PO418480  26.111  43.941   9.800
 1180POPC   GL118481  26.073  44.080   9.356
 1180POPC   GL218482  26.160  43.782   9.237
 1180POPC   C1A18483  26.067  44.140   8.883
 1180POPC   D2A18484  25.881  43.948   8.501
 1180POPC   C3A18485  25.711  44.083   8.080
 1180POPC   C4A18486  25.801  43.930   7.669
 1180POPC   C1B18487  26.379  43.715   8.882
 1180POPC   C2B18488  26.313  43.662   8.453
 1180POPC   C3B18489  26.180  43.874   8.076
 1180POPC   C4B18490  26.288  43.767   7.667
 1181POPC   NC318491  10.577   0.635   9.535
 1181POPC   PO418492  10.893   0.079   9.581
 1181POPC   GL118493  10.600   0.166   9.154
 1181POPC   GL218494  10.434   0.508   9.064
 1181POPC   C1A18495  10.506   0.195   8.659
 1181POPC   D2A18496  10.314   0.454   8.315
 1181POPC   C3A18497  10.406   0.364   7.864
 1181POPC   C4A18498  10.804   0.201   7.731
 1181POPC   C1B18499  10.718   0.664   8.735
 1181POPC   C2B18500  10.809   0.637   8.264
 1181POPC   C3B18501  10.772   0.760   7.814
 1181POPC   C4B18502  10.703   0.592   7.388
 1182POPC   NC318503  42.367  29.235   9.448
 1182POPC   PO418504  41.900  28.912   9.725
 1182POPC   GL118505  42.086  28.897   9.189
 1182POPC   GL218506  42.420  28.976   9.023
 1182POPC   C1A18507  42.064  29.148   8.742
 1182POPC   D2A18508  42.389  29.073   8.459
 1182POPC   C3A18509  42.215  28.945   8.077
 1182POPC   C4A18510  42.259  29.060   7.657
 1182POPC   C1B18511  42.621  29.372   8.828
 1182POPC   C2B18512  42.757  29.444   8.400
 1182POPC   C3B18513  42.660  29.248   8.029
 1182POPC   C4B18514  42.536  29.478   7.685
 1183POPC   NC318515   8.932  37.967   9.451
 1183POPC   PO418516   8.639  37.456   9.508
 1183POPC   GL118517   8.821  37.596   9.108
 1183POPC   GL218518   9.156  37.760   9.038
 1183POPC   C1A18519   8.826  37.612   8.674
 1183POPC   D2A18520   8.933  37.429   8.302
 1183POPC   C3A18521   8.686  37.567   7.955
 1183POPC   C4A18522   8.790  37.477   7.548
 1183POPC   C1B18523   9.288  37.785   8.607
 1183POPC   C2B18524   9.029  37.914   8.249
 1183POPC   C3B18525   9.051  37.913   7.775
 1183POPC   C4B18526   9.237  38.089   7.370
 1184POPC   NC318527  40.039  44.824   9.414
 1184POPC   PO418528  40.323  44.222   9.305
 1184POPC   GL118529  40.001  44.409   9.039
 1184POPC   GL218530  39.746  44.703   9.026
 1184POPC   C1A18531  40.086  44.577   8.620
 1184POPC   D2A18532  40.401  44.520   8.291
 1184POPC   C3A18533  40.169  44.401   7.931
 1184POPC   C4A18534  40.068  44.655   7.590
 1184POPC   C1B18535  39.607  44.443   8.728
 1184POPC   C2B18536  39.682  44.355   8.303
 1184POPC   C3B18537  39.660  44.499   7.891
 1184POPC   C4B18538  39.607  44.446   7.462
 1185POPC   NC318539   6.910  36.543   9.477
 1185POPC   PO418540   7.564  36.108   9.419
 1185POPC   GL118541   7.280  36.330   9.148
 1185POPC   GL218542   7.501  36.488   9.010
 1185POPC   C1A18543   7.118  36.201   8.732
 1185POPC   D2A18544   7.088  35.822   8.478
 1185POPC   C3A18545   7.131  35.915   8.002
 1185POPC   C4A18546   7.364  36.171   7.612
 1185POPC   C1B18547   7.641  36.235   8.696
 1185POPC   C2B18548   7.485  36.169   8.313
 1185POPC   C3B18549   7.704  36.251   7.964
 1185POPC   C4B18550   7.831  36.525   7.624
 1186POPC   NC318551  24.169  31.959   9.592
 1186POPC   PO418552  24.681  32.529   9.544
 1186POPC   GL118553  24.513  32.205   9.299
 1186POPC   GL218554  24.743  31.999   9.235
 1186POPC   C1A18555  24.432  32.236   8.874
 1186POPC   D2A18556  24.680  32.408   8.523
 1186POPC   C3A18557  24.618  32.334   8.109
 1186POPC   C4A18558  24.507  32.605   7.761
 1186POPC   C1B18559  24.695  31.805   8.879
 1186POPC   C2B18560  24.561  31.887   8.504
 1186POPC   C3B18561  24.478  31.845   8.087
 1186POPC   C4B18562  24.475  32.067   7.691
 1187POPC   NC318563  10.082  43.190   9.594
 1187POPC   PO418564  10.682  42.881   9.535
 1187POPC   GL118565  10.406  42.986   9.193
 1187POPC   GL218566  10.254  43.301   9.134
 1187POPC   C1A18567  10.286  42.896   8.769
 1187POPC   D2A18568  10.166  43.018   8.338
 1187POPC   C3A18569  10.484  42.991   8.027
 1187POPC   C4A18570  10.493  42.859   7.598
 1187POPC   C1B18571  10.227  43.406   8.718
 1187POPC   C2B18572  10.269  43.683   8.382
 1187POPC   C3B18573  10.248  43.454   8.030
 1187POPC   C4B18574  10.472  43.377   7.675
 1188POPC   NC318575  10.299  36.106   9.762
 1188POPC   PO418576  10.768  36.395   9.438
 1188POPC   GL118577  10.491  36.272   9.185
 1188POPC   GL218578  10.419  35.928   9.276
 1188POPC   C1A18579  10.509  36.391   8.772
 1188POPC   D2A18580  10.235  36.290   8.457
 1188POPC   C3A18581  10.406  36.183   8.072
 1188POPC   C4A18582  10.351  36.364   7.639
 1188POPC   C1B18583  10.501  35.901   8.822
 1188POPC   C2B18584  10.744  36.026   8.445
 1188POPC   C3B18585  10.811  35.818   8.039
 1188POPC   C4B18586  10.523  35.892   7.679
 1189POPC   NC318587  22.021  16.160   9.703
 1189POPC   PO418588  22.670  16.293   9.575
 1189POPC   GL118589  22.357  16.038   9.281
 1189POPC   GL218590  21.980  15.956   9.239
 1189POPC   C1A18591  22.311  15.858   8.856
 1189POPC   D2A18592  22.423  15.960   8.424
 1189POPC   C3A18593  22.298  15.836   7.993
 1189POPC   C4A18594  21.970  15.805   7.718
 1189POPC   C1B18595  22.069  16.310   8.961
 1189POPC   C2B18596  22.144  16.400   8.559
 1189POPC   C3B18597  22.092  16.317   8.144
 1189POPC   C4B18598  22.163  16.309   7.728
 1190POPC   NC318599  37.358  21.365   9.730
 1190POPC   PO418600  36.677  21.546   9.597
 1190POPC   GL118601  36.788  21.279   9.240
 1190POPC   GL218602  36.542  20.997   9.115
 1190POPC   C1A18603  37.091  21.336   8.903
 1190POPC   D2A18604  37.299  21.205   8.516
 1190POPC   C3A18605  37.106  21.404   8.175
 1190POPC   C4A18606  37.012  21.489   7.737
 1190POPC   C1B18607  36.515  21.346   8.829
 1190POPC   C2B18608  36.674  21.311   8.441
 1190POPC   C3B18609  36.683  21.161   8.019
 1190POPC   C4B18610  36.527  21.317   7.652
 1191POPC   NC318611   9.042  11.783   9.564
 1191POPC   PO418612   9.058  12.447   9.467
 1191POPC   GL118613   8.902  12.190   9.120
 1191POPC   GL218614   8.623  12.358   8.970
 1191POPC   C1A18615   8.785  11.980   8.705
 1191POPC   D2A18616   8.939  12.114   8.338
 1191POPC   C3A18617   8.723  11.997   8.026
 1191POPC   C4A18618   9.007  12.024   7.686
 1191POPC   C1B18619   8.913  12.483   8.687
 1191POPC   C2B18620   8.968  12.649   8.305
 1191POPC   C3B18621   8.906  12.480   7.943
 1191POPC   C4B18622   8.606  12.345   7.662
 1192POPC   NC318623  26.566   1.704   9.547
 1192POPC   PO418624  27.014   2.173   9.473
 1192POPC   GL118625  26.903   2.151   9.100
 1192POPC   GL218626  26.741   1.852   9.066
 1192POPC   C1A18627  26.869   2.325   8.727
 1192POPC   D2A18628  26.982   2.059   8.373
 1192POPC   C3A18629  26.785   2.023   7.964
 1192POPC   C4A18630  26.989   2.013   7.571
 1192POPC   C1B18631  26.476   2.025   8.739
 1192POPC   C2B18632  26.389   1.950   8.293
 1192POPC   C3B18633  26.412   1.699   7.887
 1192POPC   C4B18634  26.558   1.751   7.447
 1193POPC   NC318635  19.480  18.041   9.431
 1193POPC   PO418636  20.121  18.326   9.522
 1193POPC   GL118637  19.907  18.266   9.120
 1193POPC   GL218638  19.905  18.573   8.940
 1193POPC   C1A18639  19.776  18.158   8.686
 1193POPC   D2A18640  19.644  18.104   8.257
 1193POPC   C3A18641  19.902  18.172   7.884
 1193POPC   C4A18642  19.751  17.998   7.494
 1193POPC   C1B18643  20.166  18.671   8.603
 1193POPC   C2B18644  20.194  18.486   8.231
 1193POPC   C3B18645  20.348  18.656   7.881
 1193POPC   C4B18646  20.127  18.487   7.525
 1194POPC   NC318647  11.931   7.091   9.513
 1194POPC   PO418648  11.898   6.509   9.257
 1194POPC   GL118649  11.817   6.903   9.056
 1194POPC   GL218650  12.171   6.945   9.069
 1194POPC   C1A18651  11.835   7.046   8.642
 1194POPC   D2A18652  11.820   6.793   8.297
 1194POPC   C3A18653  11.987   6.875   7.891
 1194POPC   C4A18654  12.146   6.779   7.491
 1194POPC   C1B18655  12.314   6.711   8.696
 1194POPC   C2B18656  12.328   6.673   8.242
 1194POPC   C3B18657  12.290   6.439   7.869
 1194POPC   C4B18658  12.525   6.457   7.496
 1195POPC   NC318659  26.276  41.173   9.432
 1195POPC   PO418660  26.092  41.725   9.567
 1195POPC   GL118661  26.035  41.548   9.193
 1195POPC   GL218662  26.398  41.564   9.151
 1195POPC   C1A18663  25.861  41.645   8.815
 1195POPC   D2A18664  25.773  41.397   8.453
 1195POPC   C3A18665  25.662  41.659   8.102
 1195POPC   C4A18666  25.806  41.648   7.692
 1195POPC   C1B18667  26.379  41.716   8.784
 1195POPC   C2B18668  26.221  41.616   8.422
 1195POPC   C3B18669  26.317  41.676   8.035
 1195POPC   C4B18670  26.309  41.568   7.653
 1196POPC   NC318671   4.208  37.246   9.357
 1196POPC   PO418672   4.223  37.924   9.563
 1196POPC   GL118673   4.226  37.717   9.197
 1196POPC   GL218674   3.881  37.579   9.159
 1196POPC   C1A18675   4.538  37.627   8.893
 1196POPC   D2A18676   4.839  37.577   8.581
 1196POPC   C3A18677   4.720  37.710   8.153
 1196POPC   C4A18678   4.736  38.048   7.845
 1196POPC   C1B18679   4.034  37.516   8.746
 1196POPC   C2B18680   4.294  37.633   8.436
 1196POPC   C3B18681   4.295  37.457   8.059
 1196POPC   C4B18682   4.022  37.436   7.779
 1197POPC   NC318683   3.574   3.445   9.680
 1197POPC   PO418684   3.752   3.888   9.205
 1197POPC   GL118685   3.711   3.455   9.082
 1197POPC   GL218686   3.386   3.329   9.189
 1197POPC   C1A18687   3.716   3.441   8.633
 1197POPC   D2A18688   3.504   3.776   8.344
 1197POPC   C3A18689   3.551   3.788   7.880
 1197POPC   C4A18690   3.767   3.507   7.613
 1197POPC   C1B18691   3.312   3.113   8.802
 1197POPC   C2B18692   3.312   3.280   8.388
 1197POPC   C3B18693   3.490   3.291   8.016
 1197POPC   C4B18694   3.267   3.259   7.664
 1198POPC   NC318695  28.138  27.057   9.589
 1198POPC   PO418696  28.587  26.611   9.640
 1198POPC   GL118697  28.498  26.860   9.286
 1198POPC   GL218698  28.731  27.129   9.212
 1198POPC   C1A18699  28.252  26.770   8.923
 1198POPC   D2A18700  28.230  26.919   8.464
 1198POPC   C3A18701  28.108  26.622   8.141
 1198POPC   C4A18702  28.160  26.511   7.696
 1198POPC   C1B18703  28.660  27.010   8.772
 1198POPC   C2B18704  28.717  27.035   8.322
 1198POPC   C3B18705  28.515  26.898   7.906
 1198POPC   C4B18706  28.461  26.987   7.434
 1199POPC   NC318707  25.744  26.525   9.584
 1199POPC   PO418708  26.337  26.927   9.496
 1199POPC   GL118709  26.042  27.029   9.141
 1199POPC   GL218710  25.913  26.687   9.091
 1199POPC   C1A18711  25.879  26.997   8.684
 1199POPC   D2A18712  25.991  26.803   8.289
 1199POPC   C3A18713  25.907  26.942   7.872
 1199POPC   C4A18714  26.055  26.729   7.501
 1199POPC   C1B18715  25.544  26.596   8.804
 1199POPC   C2B18716  25.523  26.625   8.361
 1199POPC   C3B18717  25.725  26.447   7.983
 1199POPC   C4B18718  25.673  26.408   7.525
 1200POPC   NC318719  10.925  39.500   9.309
 1200POPC   PO418720  10.371  39.027   9.509
 1200POPC   GL118721  10.496  39.030   9.086
 1200POPC   GL218722  10.459  39.370   9.066
 1200POPC   C1A18723  10.263  38.952   8.655
 1200POPC   D2A18724  10.119  38.857   8.201
 1200POPC   C3A18725  10.500  38.928   7.978
 1200POPC   C4A18726  10.649  39.279   7.725
 1200POPC   C1B18727  10.544  39.491   8.630
 1200POPC   C2B18728  10.564  39.530   8.169
 1200POPC   C3B18729  10.495  39.752   7.783
 1200POPC   C4B18730  10.866  39.761   7.533
 1201POPC   NC318731  30.494  22.490   9.433
 1201POPC   PO418732  30.910  22.004   9.584
 1201POPC   GL118733  31.050  22.080   9.136
 1201POPC   GL218734  30.879  22.354   9.088
 1201POPC   C1A18735  30.969  22.021   8.672
 1201POPC   D2A18736  30.997  22.374   8.329
 1201POPC   C3A18737  30.992  22.328   7.855
 1201POPC   C4A18738  31.150  22.061   7.505
 1201POPC   C1B18739  30.536  22.218   8.837
 1201POPC   C2B18740  30.497  22.333   8.413
 1201POPC   C3B18741  30.554  22.160   8.020
 1201POPC   C4B18742  30.447  22.097   7.570
 1202POPC   NC318743   2.870  33.232   9.718
 1202POPC   PO418744   2.539  32.723   9.454
 1202POPC   GL118745   2.798  32.921   9.213
 1202POPC   GL218746   2.775  33.208   9.223
 1202POPC   C1A18747   2.882  32.866   8.814
 1202POPC   D2A18748   2.687  32.991   8.428
 1202POPC   C3A18749   2.844  32.738   8.108
 1202POPC   C4A18750   2.798  32.953   7.728
 1202POPC   C1B18751   2.828  33.396   8.819
 1202POPC   C2B18752   2.898  33.491   8.366
 1202POPC   C3B18753   2.725  33.418   7.925
 1202POPC   C4B18754   2.778  33.382   7.430
 1203POPC   NC318755  24.654  13.359   9.441
 1203POPC   PO418756  24.112  13.732   9.495
 1203POPC   GL118757  24.243  13.420   9.169
 1203POPC   GL218758  24.445  13.681   9.085
 1203POPC   C1A18759  24.122  13.351   8.748
 1203POPC   D2A18760  24.076  13.671   8.453
 1203POPC   C3A18761  24.174  13.486   8.076
 1203POPC   C4A18762  24.517  13.490   7.783
 1203POPC   C1B18763  24.557  13.618   8.665
 1203POPC   C2B18764  24.610  13.733   8.221
 1203POPC   C3B18765  24.731  13.941   7.804
 1203POPC   C4B18766  24.750  14.013   7.336
 1204POPC   NC318767  19.564  43.850   9.435
 1204POPC   PO418768  20.012  44.308   9.314
 1204POPC   GL118769  19.782  44.054   9.037
 1204POPC   GL218770  19.879  43.693   9.032
 1204POPC   C1A18771  19.628  43.959   8.657
 1204POPC   D2A18772  19.926  43.776   8.403
 1204POPC   C3A18773  20.004  44.010   8.049
 1204POPC   C4A18774  20.169  43.836   7.700
 1204POPC   C1B18775  19.650  43.439   8.703
 1204POPC   C2B18776  19.460  43.582   8.323
 1204POPC   C3B18777  19.529  43.829   7.961
 1204POPC   C4B18778  19.686  43.676   7.585
 1205POPC   NC318779   4.080  34.754   9.471
 1205POPC   PO418780   4.608  34.348   9.583
 1205POPC   GL118781   4.436  34.541   9.190
 1205POPC   GL218782   4.690  34.733   9.087
 1205POPC   C1A18783   4.058  34.566   8.869
 1205POPC   D2A18784   3.949  34.382   8.490
 1205POPC   C3A18785   4.123  34.640   8.189
 1205POPC   C4A18786   4.055  34.553   7.791
 1205POPC   C1B18787   4.537  34.581   8.685
 1205POPC   C2B18788   4.480  34.263   8.378
 1205POPC   C3B18789   4.507  34.278   7.947
 1205POPC   C4B18790   4.592  34.676   7.801
 1206POPC   NC318791   5.334  35.364   9.430
 1206POPC   PO418792   4.692  35.057   9.500
 1206POPC   GL118793   4.978  35.175   9.144
 1206POPC   GL218794   5.342  35.144   8.984
 1206POPC   C1A18795   4.958  35.462   8.777
 1206POPC   D2A18796   4.887  35.314   8.353
 1206POPC   C3A18797   4.825  35.572   7.988
 1206POPC   C4A18798   4.887  35.496   7.552
 1206POPC   C1B18799   5.514  35.463   8.765
 1206POPC   C2B18800   5.374  35.556   8.400
 1206POPC   C3B18801   5.300  35.339   8.043
 1206POPC   C4B18802   5.372  35.560   7.698
 1207POPC   NC318803  38.034  12.880   9.495
 1207POPC   PO418804  37.302  13.015   9.621
 1207POPC   GL118805  37.600  13.023   9.259
 1207POPC   GL218806  37.777  12.759   9.054
 1207POPC   C1A18807  37.672  13.199   8.848
 1207POPC   D2A18808  37.379  13.183   8.459
 1207POPC   C3A18809  37.484  13.000   8.094
 1207POPC   C4A18810  37.473  13.073   7.690
 1207POPC   C1B18811  37.745  12.486   8.714
 1207POPC   C2B18812  37.765  12.503   8.281
 1207POPC   C3B18813  37.757  12.600   7.870
 1207POPC   C4B18814  37.567  12.335   7.628
 1208POPC   NC318815   0.988  19.018   9.545
 1208POPC   PO418816   1.625  18.686   9.378
 1208POPC   GL118817   1.360  19.014   9.161
 1208POPC   GL218818   1.041  18.861   9.078
 1208POPC   C1A18819   1.174  19.169   8.724
 1208POPC   D2A18820   0.967  18.938   8.416
 1208POPC   C3A18821   0.983  19.141   8.031
 1208POPC   C4A18822   1.291  19.185   7.733
 1208POPC   C1B18823   0.707  18.722   8.841
 1208POPC   C2B18824   0.647  18.544   8.427
 1208POPC   C3B18825   0.676  18.722   8.010
 1208POPC   C4B18826   1.060  18.739   7.716
 1209POPC   NC318827  37.701  35.843   9.507
 1209POPC   PO418828  38.042  35.306   9.686
 1209POPC   GL118829  37.972  35.306   9.230
 1209POPC   GL218830  37.625  35.403   9.206
 1209POPC   C1A18831  37.949  35.434   8.797
 1209POPC   D2A18832  37.839  35.707   8.459
 1209POPC   C3A18833  37.964  35.445   8.140
 1209POPC   C4A18834  37.812  35.323   7.776
 1209POPC   C1B18835  37.498  35.235   8.801
 1209POPC   C2B18836  37.517  35.310   8.402
 1209POPC   C3B18837  37.414  35.151   8.036
 1209POPC   C4B18838  37.316  34.972   7.683
 1210POPC   NC318839  13.381   2.296   9.666
 1210POPC   PO418840  13.351   1.765   9.532
 1210POPC   GL118841  13.384   2.119   9.171
 1210POPC   GL218842  13.216   2.455   9.196
 1210POPC   C1A18843  13.546   2.229   8.726
 1210POPC   D2A18844  13.498   2.109   8.276
 1210POPC   C3A18845  13.720   2.332   7.915
 1210POPC   C4A18846  13.972   2.453   7.537
 1210POPC   C1B18847  13.048   2.324   8.785
 1210POPC   C2B18848  13.074   2.459   8.344
 1210POPC   C3B18849  13.195   2.300   7.900
 1210POPC   C4B18850  13.417   1.890   7.811
 1211POPC   NC318851  30.238  34.118   9.402
 1211POPC   PO418852  29.832  33.577   9.491
 1211POPC   GL118853  30.009  33.735   9.130
 1211POPC   GL218854  30.360  33.670   9.136
 1211POPC   C1A18855  30.091  33.936   8.734
 1211POPC   D2A18856  29.981  33.712   8.362
 1211POPC   C3A18857  29.986  33.936   7.983
 1211POPC   C4A18858  29.669  33.952   7.653
 1211POPC   C1B18859  30.249  33.454   8.747
 1211POPC   C2B18860  30.366  33.265   8.343
 1211POPC   C3B18861  30.222  33.483   7.967
 1211POPC   C4B18862  29.793  33.479   7.848
 1212POPC   NC318863  16.761  38.403   9.674
 1212POPC   PO418864  17.280  38.292   9.306
 1212POPC   GL118865  16.860  38.195   9.174
 1212POPC   GL218866  16.604  38.446   9.190
 1212POPC   C1A18867  16.762  38.260   8.730
 1212POPC   D2A18868  16.974  38.243   8.343
 1212POPC   C3A18869  16.717  38.266   7.986
 1212POPC   C4A18870  16.558  38.237   7.589
 1212POPC   C1B18871  16.570  38.721   8.827
 1212POPC   C2B18872  16.808  38.729   8.430
 1212POPC   C3B18873  16.939  38.726   8.004
 1212POPC   C4B18874  16.635  38.724   7.682
 1213POPC   NC318875  10.769  39.191   9.695
 1213POPC   PO418876  11.376  39.423   9.440
 1213POPC   GL118877  11.344  39.185   9.107
 1213POPC   GL218878  11.364  38.838   9.197
 1213POPC   C1A18879  11.241  39.235   8.686
 1213POPC   D2A18880  11.320  39.515   8.332
 1213POPC   C3A18881  11.066  39.481   7.952
 1213POPC   C4A18882  11.192  39.339   7.547
 1213POPC   C1B18883  11.648  38.890   8.805
 1213POPC   C2B18884  11.625  39.083   8.392
 1213POPC   C3B18885  11.454  39.119   7.980
 1213POPC   C4B18886  11.650  39.043   7.596
 1214POPC   NC318887  28.499  35.688   9.201
 1214POPC   PO418888  28.309  36.170   9.612
 1214POPC   GL118889  28.409  36.277   9.217
 1214POPC   GL218890  28.128  36.074   9.145
 1214POPC   C1A18891  28.529  36.207   8.800
 1214POPC   D2A18892  28.353  36.189   8.420
 1214POPC   C3A18893  28.542  35.976   8.086
 1214POPC   C4A18894  28.450  36.206   7.723
 1214POPC   C1B18895  28.066  35.914   8.764
 1214POPC   C2B18896  27.836  36.013   8.421
 1214POPC   C3B18897  28.031  36.101   8.036
 1214POPC   C4B18898  28.040  35.918   7.645
 1215POPC   NC318899  34.890  19.285   9.556
 1215POPC   PO418900  35.504  19.076   9.392
 1215POPC   GL118901  35.205  19.071   9.077
 1215POPC   GL218902  35.383  19.333   8.912
 1215POPC   C1A18903  35.165  18.932   8.628
 1215POPC   D2A18904  34.863  18.791   8.291
 1215POPC   C3A18905  35.028  18.864   7.889
 1215POPC   C4A18906  35.229  19.272   7.789
 1215POPC   C1B18907  35.678  18.988   8.771
 1215POPC   C2B18908  35.636  18.735   8.434
 1215POPC   C3B18909  35.507  18.988   8.124
 1215POPC   C4B18910  35.749  19.212   7.830
 1216POPC   NC318911  25.696  11.468   9.326
 1216POPC   PO418912  25.017  11.195   9.341
 1216POPC   GL118913  25.363  11.169   9.104
 1216POPC   GL218914  25.301  11.508   9.038
 1216POPC   C1A18915  25.458  11.114   8.721
 1216POPC   D2A18916  25.174  11.019   8.413
 1216POPC   C3A18917  25.278  11.175   8.018
 1216POPC   C4A18918  25.140  10.895   7.753
 1216POPC   C1B18919  25.052  11.462   8.721
 1216POPC   C2B18920  25.263  11.530   8.388
 1216POPC   C3B18921  25.161  11.723   8.053
 1216POPC   C4B18922  25.131  11.872   7.672
 1217POPC   NC318923   9.228  11.044   9.304
 1217POPC   PO418924   9.034  11.417   9.871
 1217POPC   GL118925   8.879  11.397   9.303
 1217POPC   GL218926   8.873  11.678   9.102
 1217POPC   C1A18927   8.820  11.247   8.848
 1217POPC   D2A18928   8.664  11.051   8.512
 1217POPC   C3A18929   8.918  11.121   8.167
 1217POPC   C4A18930   8.964  11.050   7.718
 1217POPC   C1B18931   9.156  11.610   8.727
 1217POPC   C2B18932   9.039  11.620   8.280
 1217POPC   C3B18933   8.830  11.531   7.860
 1217POPC   C4B18934   8.827  11.516   7.417
 1218POPC   NC318935  17.841  32.965   9.568
 1218POPC   PO418936  17.279  33.245   9.612
 1218POPC   GL118937  17.388  33.063   9.203
 1218POPC   GL218938  17.395  33.383   9.067
 1218POPC   C1A18939  17.394  32.890   8.743
 1218POPC   D2A18940  17.192  32.808   8.312
 1218POPC   C3A18941  17.533  32.759   7.990
 1218POPC   C4A18942  17.791  32.976   7.683
 1218POPC   C1B18943  17.235  33.408   8.660
 1218POPC   C2B18944  17.238  33.334   8.213
 1218POPC   C3B18945  17.328  33.197   7.796
 1218POPC   C4B18946  17.470  33.331   7.384
 1219POPC   NC318947  38.231  44.903   9.981
 1219POPC   PO418948  38.740  44.447   9.710
 1219POPC   GL118949  38.487  44.538   9.305
 1219POPC   GL218950  38.780  44.536   9.162
 1219POPC   C1A18951  38.377  44.547   8.809
 1219POPC   D2A18952  38.225  44.732   8.398
 1219POPC   C3A18953  38.311  44.677   7.927
 1219POPC   C4A18954  38.234   0.028   7.637
 1219POPC   C1B18955  38.828  44.804   8.763
 1219POPC   C2B18956  38.983  44.988   8.362
 1219POPC   C3B18957  38.875  44.854   7.914
 1219POPC   C4B18958  38.680  44.759   7.515
 1220POPC   NC318959  18.133  41.122   9.588
 1220POPC   PO418960  18.326  40.429   9.595
 1220POPC   GL118961  18.162  40.498   9.185
 1220POPC   GL218962  18.105  40.849   9.128
 1220POPC   C1A18963  18.327  40.563   8.764
 1220POPC   D2A18964  18.113  40.669   8.398
 1220POPC   C3A18965  18.352  40.648   8.042
 1220POPC   C4A18966  18.238  40.628   7.608
 1220POPC   C1B18967  18.130  41.068   8.711
 1220POPC   C2B18968  18.198  41.146   8.265
 1220POPC   C3B18969  18.115  41.062   7.838
 1220POPC   C4B18970  18.026  41.073   7.409
 1221POPC   NC318971   7.880  30.281   9.535
 1221POPC   PO418972   8.469  30.631   9.430
 1221POPC   GL118973   8.247  30.761   9.100
 1221POPC   GL218974   7.954  30.607   9.158
 1221POPC   C1A18975   8.267  30.841   8.692
 1221POPC   D2A18976   8.381  30.573   8.385
 1221POPC   C3A18977   8.158  30.778   8.091
 1221POPC   C4A18978   8.198  31.063   7.793
 1221POPC   C1B18979   7.965  30.405   8.766
 1221POPC   C2B18980   7.969  30.255   8.339
 1221POPC   C3B18981   8.203  30.290   7.964
 1221POPC   C4B18982   8.167  30.588   7.607
 1222POPC   NC318983  41.041  39.595   9.368
 1222POPC   PO418984  40.931  40.204   9.676
 1222POPC   GL118985  40.905  40.233   9.216
 1222POPC   GL218986  40.559  40.317   9.195
 1222POPC   C1A18987  40.968  40.039   8.793
 1222POPC   D2A18988  40.947  39.754   8.424
 1222POPC   C3A18989  41.046  39.987   8.060
 1222POPC   C4A18990  40.754  40.058   7.731
 1222POPC   C1B18991  40.621  40.438   8.771
 1222POPC   C2B18992  40.662  40.215   8.388
 1222POPC   C3B18993  40.396  40.251   8.060
 1222POPC   C4B18994  40.386  40.573   7.759
 1223POPC   NC318995  20.253  29.630   9.457
 1223POPC   PO418996  19.624  29.965   9.453
 1223POPC   GL118997  19.864  29.959   9.107
 1223POPC   GL218998  20.210  30.086   9.135
 1223POPC   C1A18999  19.724  29.921   8.695
 1223POPC   D2A19000  19.870  29.630   8.397
 1223POPC   C3A19001  19.743  29.734   8.000
 1223POPC   C4A19002  19.342  29.920   7.852
 1223POPC   C1B19003  20.220  29.770   8.790
 1223POPC   C2B19004  20.376  29.612   8.392
 1223POPC   C3B19005  20.386  29.696   7.958
 1223POPC   C4B19006  20.119  29.621   7.593
 1224POPC   NC319007  15.749  10.823   9.759
 1224POPC   PO419008  16.166  10.389   9.361
 1224POPC   GL119009  16.140  10.556   8.961
 1224POPC   GL219010  15.877  10.300   8.928
 1224POPC   C1A19011  15.828  10.652   8.600
 1224POPC   D2A19012  15.771  10.881   8.276
 1224POPC   C3A19013  16.123  10.850   8.117
 1224POPC   C4A19014  16.250  10.629   7.811
 1224POPC   C1B19015  16.113  10.219   8.581
 1224POPC   C2B19016  15.957  10.354   8.179
 1224POPC   C3B19017  16.137  10.133   7.861
 1224POPC   C4B19018  16.204  10.285   7.416
 1225POPC   NC319019  43.556  30.729   9.441
 1225POPC   PO419020  44.039  30.230   9.418
 1225POPC   GL119021  43.864  30.451   9.105
 1225POPC   GL219022  43.549  30.385   9.077
 1225POPC   C1A19023  43.902  30.604   8.693
 1225POPC   D2A19024  44.103  30.509   8.316
 1225POPC   C3A19025  43.966  30.667   7.941
 1225POPC   C4A19026  44.071  31.066   7.835
 1225POPC   C1B19027  43.484  30.300   8.699
 1225POPC   C2B19028  43.582  30.414   8.269
 1225POPC   C3B19029  43.576  30.344   7.816
 1225POPC   C4B19030  43.674  30.344   7.350
 1226POPC   NC319031  14.843   3.282   9.585
 1226POPC   PO419032  15.402   3.538   9.506
 1226POPC   GL119033  15.115   3.536   9.163
 1226POPC   GL219034  14.851   3.764   9.246
 1226POPC   C1A19035  15.279   3.477   8.730
 1226POPC   D2A19036  15.610   3.399   8.399
 1226POPC   C3A19037  15.449   3.507   7.986
 1226POPC   C4A19038  15.333   3.273   7.621
 1226POPC   C1B19039  15.036   3.939   8.820
 1226POPC   C2B19040  15.183   3.836   8.351
 1226POPC   C3B19041  14.974   3.734   7.921
 1226POPC   C4B19042  14.925   3.599   7.478
 1227POPC   NC319043  39.631  27.369   9.527
 1227POPC   PO419044  40.315  27.732   9.415
 1227POPC   GL119045  40.079  27.420   9.214
 1227POPC   GL219046  39.840  27.679   9.183
 1227POPC   C1A19047  39.849  27.282   8.839
 1227POPC   D2A19048  39.953  27.267   8.401
 1227POPC   C3A19049  40.216  27.529   8.116
 1227POPC   C4A19050  40.086  27.481   7.684
 1227POPC   C1B19051  40.052  27.752   8.782
 1227POPC   C2B19052  39.883  27.840   8.390
 1227POPC   C3B19053  39.905  27.908   7.962
 1227POPC   C4B19054  40.023  28.013   7.562
 1228POPC   NC319055  35.324  38.611  10.074
 1228POPC   PO419056  35.062  38.233   9.549
 1228POPC   GL119057  35.265  38.404   9.183
 1228POPC   GL219058  35.624  38.394   9.148
 1228POPC   C1A19059  35.271  38.661   8.830
 1228POPC   D2A19060  35.564  38.656   8.554
 1228POPC   C3A19061  35.413  38.614   8.142
 1228POPC   C4A19062  35.696  38.535   7.782
 1228POPC   C1B19063  35.443  38.164   8.789
 1228POPC   C2B19064  35.304  38.169   8.420
 1228POPC   C3B19065  35.419  38.096   8.032
 1228POPC   C4B19066  35.327  38.215   7.661
 1229POPC   NC319067  18.845   7.953   9.359
 1229POPC   PO419068  19.263   7.412   9.534
 1229POPC   GL119069  19.165   7.584   9.163
 1229POPC   GL219070  18.815   7.495   9.143
 1229POPC   C1A19071  19.358   7.590   8.748
 1229POPC   D2A19072  19.143   7.483   8.363
 1229POPC   C3A19073  19.325   7.521   7.971
 1229POPC   C4A19074  19.356   7.174   7.663
 1229POPC   C1B19075  18.866   7.690   8.745
 1229POPC   C2B19076  18.626   7.633   8.395
 1229POPC   C3B19077  18.731   7.677   7.976
 1229POPC   C4B19078  18.935   7.462   7.636
 1230POPC   NC319079  30.447  24.769   9.451
 1230POPC   PO419080  30.841  25.346   9.508
 1230POPC   GL119081  30.634  25.161   9.178
 1230POPC   GL219082  30.905  25.006   9.087
 1230POPC   C1A19083  30.547  25.174   8.734
 1230POPC   D2A19084  30.519  25.364   8.302
 1230POPC   C3A19085  30.421  25.107   7.985
 1230POPC   C4A19086  30.571  25.074   7.611
 1230POPC   C1B19087  31.031  25.321   8.788
 1230POPC   C2B19088  30.965  25.149   8.398
 1230POPC   C3B19089  30.936  25.193   7.985
 1230POPC   C4B19090  31.075  25.307   7.571
 1231POPC   NC319091  43.633  37.850   9.458
 1231POPC   PO419092  44.346  37.732   9.563
 1231POPC   GL119093  44.029  37.587   9.187
 1231POPC   GL219094  43.639  37.497   9.099
 1231POPC   C1A19095  43.997  37.403   8.758
 1231POPC   D2A19096  43.705  37.440   8.399
 1231POPC   C3A19097  43.888  37.349   8.002
 1231POPC   C4A19098  43.903  37.550   7.594
 1231POPC   C1B19099  43.754  37.848   8.780
 1231POPC   C2B19100  43.975  37.896   8.399
 1231POPC   C3B19101  43.774  37.838   8.014
 1231POPC   C4B19102  43.599  38.041   7.688
 1232POPC   NC319103   2.788  34.849   9.700
 1232POPC   PO419104   2.877  35.460   9.291
 1232POPC   GL119105   2.859  35.193   8.960
 1232POPC   GL219106   2.911  34.883   9.113
 1232POPC   C1A19107   2.941  35.118   8.552
 1232POPC   D2A19108   3.005  35.467   8.302
 1232POPC   C3A19109   2.819  35.459   7.911
 1232POPC   C4A19110   2.726  35.537   7.515
 1232POPC   C1B19111   2.567  34.839   8.767
 1232POPC   C2B19112   2.536  34.866   8.304
 1232POPC   C3B19113   2.415  35.113   7.920
 1232POPC   C4B19114   2.391  35.171   7.443
 1233POPC   NC319115  39.519  24.141   9.439
 1233POPC   PO419116  39.204  24.798   9.452
 1233POPC   GL119117  39.387  24.605   9.121
 1233POPC   GL219118  39.252  24.272   9.004
 1233POPC   C1A19119  39.306  24.757   8.735
 1233POPC   D2A19120  39.270  24.548   8.378
 1233POPC   C3A19121  39.330  24.756   8.016
 1233POPC   C4A19122  39.370  24.628   7.626
 1233POPC   C1B19123  39.602  24.296   8.722
 1233POPC   C2B19124  39.617  24.091   8.326
 1233POPC   C3B19125  39.493  24.251   7.944
 1233POPC   C4B19126  39.459  24.150   7.493
 1234POPC   NC319127  24.825  32.601   9.988
 1234POPC   PO419128  25.325  32.232   9.678
 1234POPC   GL119129  25.197  32.226   9.269
 1234POPC   GL219130  25.485  32.373   9.175
 1234POPC   C1A19131  25.017  32.244   8.870
 1234POPC   D2A19132  25.181  32.325   8.465
 1234POPC   C3A19133  25.111  32.131   8.078
 1234POPC   C4A19134  25.294  32.189   7.660
 1234POPC   C1B19135  25.507  32.624   8.848
 1234POPC   C2B19136  25.599  32.625   8.444
 1234POPC   C3B19137  25.488  32.475   8.061
 1234POPC   C4B19138  25.538  32.679   7.680
 1235POPC   NC319139  34.997  41.395   9.383
 1235POPC   PO419140  34.277  41.406   9.320
 1235POPC   GL119141  34.590  41.451   9.028
 1235POPC   GL219142  34.684  41.761   9.118
 1235POPC   C1A19143  34.589  41.409   8.584
 1235POPC   D2A19144  34.643  41.416   8.153
 1235POPC   C3A19145  34.315  41.450   7.892
 1235POPC   C4A19146  34.135  41.790   7.685
 1235POPC   C1B19147  34.867  41.821   8.729
 1235POPC   C2B19148  34.745  41.943   8.291
 1235POPC   C3B19149  34.682  41.873   7.823
 1235POPC   C4B19150  34.955  41.830   7.396
 1236POPC   NC319151   7.260  29.498   9.484
 1236POPC   PO419152   7.792  29.207   9.494
 1236POPC   GL119153   7.459  29.080   9.179
 1236POPC   GL219154   7.325  28.736   9.136
 1236POPC   C1A19155   7.242  29.079   8.761
 1236POPC   D2A19156   7.153  29.227   8.349
 1236POPC   C3A19157   7.395  29.398   8.001
 1236POPC   C4A19158   7.321  29.217   7.618
 1236POPC   C1B19159   7.627  28.745   8.770
 1236POPC   C2B19160   7.477  28.810   8.333
 1236POPC   C3B19161   7.633  28.966   7.942
 1236POPC   C4B19162   7.770  28.891   7.501
 1237POPC   NC319163  16.611  18.585   9.586
 1237POPC   PO419164  17.064  18.886   9.378
 1237POPC   GL119165  16.715  19.107   9.204
 1237POPC   GL219166  16.529  18.830   9.131
 1237POPC   C1A19167  16.711  19.345   8.818
 1237POPC   D2A19168  16.724  19.174   8.378
 1237POPC   C3A19169  16.517  19.318   8.002
 1237POPC   C4A19170  16.857  19.283   7.760
 1237POPC   C1B19171  16.847  18.837   8.768
 1237POPC   C2B19172  17.059  18.757   8.365
 1237POPC   C3B19173  16.837  18.814   7.977
 1237POPC   C4B19174  16.887  18.617   7.552
 1238POPC   NC319175  22.011  37.542   9.820
 1238POPC   PO419176  22.593  37.376   9.555
 1238POPC   GL119177  22.297  37.688   9.385
 1238POPC   GL219178  22.467  37.932   9.234
 1238POPC   C1A19179  22.092  37.695   8.942
 1238POPC   D2A19180  22.146  37.848   8.460
 1238POPC   C3A19181  22.153  37.664   8.005
 1238POPC   C4A19182  22.108  37.697   7.545
 1238POPC   C1B19183  22.562  37.807   8.791
 1238POPC   C2B19184  22.603  38.081   8.454
 1238POPC   C3B19185  22.592  37.891   8.088
 1238POPC   C4B19186  22.583  37.783   7.683
 1239POPC   NC319187  37.923  40.532   9.530
 1239POPC   PO419188  38.492  40.861   9.788
 1239POPC   GL119189  38.370  40.878   9.269
 1239POPC   GL219190  38.651  40.769   9.017
 1239POPC   C1A19191  38.247  41.028   8.815
 1239POPC   D2A19192  38.254  41.059   8.335
 1239POPC   C3A19193  38.655  40.993   8.113
 1239POPC   C4A19194  38.759  40.675   7.781
 1239POPC   C1B19195  38.757  40.383   8.736
 1239POPC   C2B19196  38.726  40.446   8.292
 1239POPC   C3B19197  38.360  40.578   8.082
 1239POPC   C4B19198  38.080  40.347   7.874
 1240POPC   NC319199  44.889  11.842   9.495
 1240POPC   PO419200  44.585  12.328   9.708
 1240POPC   GL119201  44.513  12.164   9.310
 1240POPC   GL219202  44.706  12.435   9.180
 1240POPC   C1A19203  44.538  12.028   8.878
 1240POPC   D2A19204  44.669  12.257   8.511
 1240POPC   C3A19205  44.715  12.069   8.130
 1240POPC   C4A19206  44.416  11.953   7.882
 1240POPC   C1B19207  44.857  12.666   8.798
 1240POPC   C2B19208   0.008  12.609   8.360
 1240POPC   C3B19209  44.967  12.458   7.931
 1240POPC   C4B19210  44.795  12.168   7.627
 1241POPC   NC319211  33.054  11.754   9.728
 1241POPC   PO419212  32.901  11.063   9.597
 1241POPC   GL119213  33.160  11.191   9.249
 1241POPC   GL219214  33.168  11.544   9.167
 1241POPC   C1A19215  33.302  11.096   8.820
 1241POPC   D2A19216  33.064  11.103   8.412
 1241POPC   C3A19217  33.225  11.027   7.993
 1241POPC   C4A19218  32.973  10.985   7.603
 1241POPC   C1B19219  33.130  11.565   8.681
 1241POPC   C2B19220  33.156  11.599   8.192
 1241POPC   C3B19221  33.223  11.491   7.744
 1241POPC   C4B19222  33.354  11.580   7.280
 1242POPC   NC319223  38.860  32.237   9.578
 1242POPC   PO419224  38.237  31.962   9.421
 1242POPC   GL119225  38.478  32.100   9.059
 1242POPC   GL219226  38.812  32.014   9.141
 1242POPC   C1A19227  38.461  32.301   8.644
 1242POPC   D2A19228  38.525  32.431   8.223
 1242POPC   C3A19229  38.251  32.294   7.909
 1242POPC   C4A19230  38.277  32.236   7.495
 1242POPC   C1B19231  38.937  31.870   8.777
 1242POPC   C2B19232  38.856  32.073   8.388
 1242POPC   C3B19233  38.721  32.044   7.950
 1242POPC   C4B19234  38.769  32.049   7.495
 1243POPC   NC319235  23.746  20.007   9.491
 1243POPC   PO419236  23.890  19.405   9.227
 1243POPC   GL119237  23.814  19.767   9.057
 1243POPC   GL219238  23.516  19.741   9.052
 1243POPC   C1A19239  23.744  20.044   8.735
 1243POPC   D2A19240  23.825  19.779   8.401
 1243POPC   C3A19241  23.781  20.024   8.060
 1243POPC   C4A19242  23.956  19.958   7.687
 1243POPC   C1B19243  23.326  19.584   8.687
 1243POPC   C2B19244  23.382  19.548   8.248
 1243POPC   C3B19245  23.552  19.589   7.862
 1243POPC   C4B19246  23.280  19.653   7.517
 1244POPC   NC319247  13.157  35.713   9.272
 1244POPC   PO419248  12.610  35.305   9.525
 1244POPC   GL119249  12.598  35.290   9.053
 1244POPC   GL219250  12.937  35.403   8.865
 1244POPC   C1A19251  12.512  35.358   8.599
 1244POPC   D2A19252  12.835  35.270   8.254
 1244POPC   C3A19253  12.714  35.303   7.815
 1244POPC   C4A19254  12.633  35.584   7.433
 1244POPC   C1B19255  13.310  35.178   8.663
 1244POPC   C2B19256  13.412  35.129   8.216
 1244POPC   C3B19257  13.274  35.362   7.873
 1244POPC   C4B19258  13.048  35.693   7.700
 1245POPC   NC319259  14.577  28.083   9.545
 1245POPC   PO419260  14.072  28.556   9.538
 1245POPC   GL119261  14.350  28.416   9.217
 1245POPC   GL219262  14.391  28.110   9.079
 1245POPC   C1A19263  14.426  28.556   8.797
 1245POPC   D2A19264  14.228  28.556   8.394
 1245POPC   C3A19265  14.462  28.552   8.054
 1245POPC   C4A19266  14.534  28.622   7.650
 1245POPC   C1B19267  14.406  28.042   8.666
 1245POPC   C2B19268  14.437  28.091   8.277
 1245POPC   C3B19269  14.316  28.058   7.894
 1245POPC   C4B19270  14.457  28.146   7.491
 1246POPC   NC319271  38.672   7.860   9.427
 1246POPC   PO419272  38.387   8.456   9.308
 1246POPC   GL119273  38.394   8.066   9.049
 1246POPC   GL219274  38.127   7.907   9.042
 1246POPC   C1A19275  38.548   7.993   8.628
 1246POPC   D2A19276  38.557   8.366   8.356
 1246POPC   C3A19277  38.377   8.325   7.970
 1246POPC   C4A19278  38.452   7.996   7.675
 1246POPC   C1B19279  38.046   8.145   8.652
 1246POPC   C2B19280  38.036   8.026   8.193
 1246POPC   C3B19281  37.969   8.099   7.725
 1246POPC   C4B19282  38.106   8.089   7.306
 1247POPC   NC319283  34.748   7.586   9.453
 1247POPC   PO419284  34.519   8.257   9.431
 1247POPC   GL119285  34.804   8.293   9.100
 1247POPC   GL219286  34.496   8.155   8.920
 1247POPC   C1A19287  34.953   8.205   8.711
 1247POPC   D2A19288  34.728   8.046   8.356
 1247POPC   C3A19289  34.855   8.223   7.945
 1247POPC   C4A19290  34.755   8.289   7.491
 1247POPC   C1B19291  34.174   7.890   8.749
 1247POPC   C2B19292  34.257   7.745   8.327
 1247POPC   C3B19293  34.387   8.010   7.976
 1247POPC   C4B19294  34.302   8.057   7.545
 1248POPC   NC319295  27.754   4.624   9.642
 1248POPC   PO419296  27.424   5.203   9.579
 1248POPC   GL119297  27.395   5.296   9.144
 1248POPC   GL219298  27.690   5.522   9.035
 1248POPC   C1A19299  27.341   5.146   8.705
 1248POPC   D2A19300  27.327   5.031   8.259
 1248POPC   C3A19301  27.649   5.022   7.922
 1248POPC   C4A19302  27.564   4.932   7.503
 1248POPC   C1B19303  27.330   5.655   8.798
 1248POPC   C2B19304  27.252   5.594   8.344
 1248POPC   C3B19305  27.434   5.492   7.939
 1248POPC   C4B19306  27.643   5.436   7.524
 1249POPC   NC319307  42.599  31.645   9.510
 1249POPC   PO419308  42.372  31.071   9.217
 1249POPC   GL119309  42.281  31.520   9.105
 1249POPC   GL219310  42.541  31.806   9.049
 1249POPC   C1A19311  42.253  31.563   8.674
 1249POPC   D2A19312  42.480  31.384   8.370
 1249POPC   C3A19313  42.269  31.497   8.018
 1249POPC   C4A19314  41.878  31.416   7.815
 1249POPC   C1B19315  42.770  31.649   8.728
 1249POPC   C2B19316  42.947  31.600   8.336
 1249POPC   C3B19317  42.759  31.658   7.923
 1249POPC   C4B19318  42.648  31.731   7.480
 1250POPC   NC319319  40.735  12.314   9.489
 1250POPC   PO419320  41.169  11.722   9.473
 1250POPC   GL119321  41.009  12.009   9.150
 1250POPC   GL219322  40.634  12.003   9.077
 1250POPC   C1A19323  40.970  12.071   8.702
 1250POPC   D2A19324  40.773  12.047   8.301
 1250POPC   C3A19325  41.029  11.850   8.003
 1250POPC   C4A19326  40.937  11.716   7.589
 1250POPC   C1B19327  40.554  12.360   8.807
 1250POPC   C2B19328  40.405  12.517   8.448
 1250POPC   C3B19329  40.528  12.425   8.032
 1250POPC   C4B19330  40.648  12.092   7.769
 1251POPC   NC319331  30.416  25.646   9.511
 1251POPC   PO419332  30.036  25.064   9.484
 1251POPC   GL119333  30.139  25.196   9.049
 1251POPC   GL219334  30.258  25.553   9.041
 1251POPC   C1A19335  30.119  24.951   8.616
 1251POPC   D2A19336  29.826  24.773   8.328
 1251POPC   C3A19337  29.760  24.959   7.911
 1251POPC   C4A19338  30.057  25.090   7.602
 1251POPC   C1B19339  30.138  25.494   8.630
 1251POPC   C2B19340  30.009  25.315   8.246
 1251POPC   C3B19341  30.130  25.514   7.885
 1251POPC   C4B19342  30.243  25.534   7.450
 1252POPC   NC319343  35.153  13.954   9.453
 1252POPC   PO419344  35.675  14.400   9.480
 1252POPC   GL119345  35.438  14.356   9.145
 1252POPC   GL219346  35.273  14.695   9.074
 1252POPC   C1A19347  35.466  14.132   8.763
 1252POPC   D2A19348  35.374  14.363   8.385
 1252POPC   C3A19349  35.525  14.215   7.976
 1252POPC   C4A19350  35.650  14.278   7.516
 1252POPC   C1B19351  35.030  14.390   8.827
 1252POPC   C2B19352  34.853  14.426   8.423
 1252POPC   C3B19353  35.041  14.529   8.042
 1252POPC   C4B19354  35.060  14.371   7.681
 1253POPC   NC319355  20.613  27.079   9.754
 1253POPC   PO419356  20.594  27.731   9.621
 1253POPC   GL119357  20.441  27.703   9.179
 1253POPC   GL219358  20.607  27.967   9.121
 1253POPC   C1A19359  20.432  27.578   8.721
 1253POPC   D2A19360  20.309  27.512   8.253
 1253POPC   C3A19361  20.432  27.290   7.892
 1253POPC   C4A19362  20.575  27.441   7.508
 1253POPC   C1B19363  20.642  28.065   8.711
 1253POPC   C2B19364  20.714  27.834   8.346
 1253POPC   C3B19365  20.627  27.777   7.934
 1253POPC   C4B19366  20.831  27.951   7.603
 1254POPC   NC319367  41.850  10.249   9.574
 1254POPC   PO419368  41.432  10.759   9.535
 1254POPC   GL119369  41.577  10.762   9.123
 1254POPC   GL219370  41.601  10.436   9.134
 1254POPC   C1A19371  41.470  10.784   8.685
 1254POPC   D2A19372  41.555  10.508   8.363
 1254POPC   C3A19373  41.328  10.509   7.998
 1254POPC   C4A19374  41.254  10.758   7.634
 1254POPC   C1B19375  41.751  10.234   8.772
 1254POPC   C2B19376  41.738  10.040   8.366
 1254POPC   C3B19377  41.561  10.059   7.948
 1254POPC   C4B19378  41.833  10.068   7.602
 1255POPC   NC319379   0.261  43.235   9.407
 1255POPC   PO419380   0.863  43.171   9.136
 1255POPC   GL119381   0.494  43.067   8.948
 1255POPC   GL219382   0.212  43.309   8.887
 1255POPC   C1A19383   0.533  43.093   8.508
 1255POPC   D2A19384   0.392  43.403   8.214
 1255POPC   C3A19385   0.653  43.413   7.855
 1255POPC   C4A19386   0.824  43.012   7.704
 1255POPC   C1B19387   0.057  42.945   8.666
 1255POPC   C2B19388   0.185  42.801   8.263
 1255POPC   C3B19389   0.326  42.892   7.871
 1255POPC   C4B19390   0.141  42.738   7.465
 1256POPC   NC319391  36.591  29.485   9.455
 1256POPC   PO419392  37.120  29.949   9.498
 1256POPC   GL119393  36.883  29.849   9.186
 1256POPC   GL219394  36.560  29.995   9.216
 1256POPC   C1A19395  36.983  29.972   8.795
 1256POPC   D2A19396  37.246  29.895   8.477
 1256POPC   C3A19397  37.063  30.165   8.196
 1256POPC   C4A19398  36.972  30.060   7.779
 1256POPC   C1B19399  36.521  29.778   8.802
 1256POPC   C2B19400  36.658  29.913   8.380
 1256POPC   C3B19401  36.505  29.978   7.953
 1256POPC   C4B19402  36.600  29.832   7.518
 1257POPC   NC319403   4.690  33.232   9.425
 1257POPC   PO419404   5.434  33.260   9.515
 1257POPC   GL119405   5.230  33.044   9.131
 1257POPC   GL219406   4.871  32.939   9.065
 1257POPC   C1A19407   5.137  33.125   8.664
 1257POPC   D2A19408   5.017  32.903   8.293
 1257POPC   C3A19409   5.237  33.000   7.949
 1257POPC   C4A19410   5.311  33.430   7.837
 1257POPC   C1B19411   4.661  32.945   8.664
 1257POPC   C2B19412   4.650  33.257   8.373
 1257POPC   C3B19413   4.828  33.428   8.007
 1257POPC   C4B19414   4.770  33.268   7.611
 1258POPC   NC319415  13.795  10.234   9.598
 1258POPC   PO419416  13.519  10.774   9.621
 1258POPC   GL119417  13.453  10.569   9.224
 1258POPC   GL219418  13.797  10.472   9.086
 1258POPC   C1A19419  13.364  10.463   8.789
 1258POPC   D2A19420  13.607  10.589   8.443
 1258POPC   C3A19421  13.463  10.413   8.070
 1258POPC   C4A19422  13.385  10.571   7.674
 1258POPC   C1B19423  13.864  10.208   8.686
 1258POPC   C2B19424  13.895  10.184   8.210
 1258POPC   C3B19425  13.885  10.322   7.760
 1258POPC   C4B19426  13.798  10.147   7.333
 1259POPC   NC319427  22.706  39.090   9.587
 1259POPC   PO419428  22.522  39.740   9.425
 1259POPC   GL119429  22.701  39.348   9.129
 1259POPC   GL219430  22.740  38.919   9.126
 1259POPC   C1A19431  23.001  39.192   8.785
 1259POPC   D2A19432  23.258  38.956   8.488
 1259POPC   C3A19433  23.230  39.102   8.068
 1259POPC   C4A19434  23.117  39.187   7.665
 1259POPC   C1B19435  22.567  38.993   8.731
 1259POPC   C2B19436  22.770  39.078   8.334
 1259POPC   C3B19437  22.760  38.943   7.911
 1259POPC   C4B19438  22.619  39.158   7.525
 1260POPC   NC319439   2.623  34.159   9.479
 1260POPC   PO419440   2.578  33.580   9.757
 1260POPC   GL119441   2.671  33.689   9.287
 1260POPC   GL219442   2.935  33.905   9.164
 1260POPC   C1A19443   2.512  33.825   8.854
 1260POPC   D2A19444   2.359  33.948   8.440
 1260POPC   C3A19445   2.642  33.895   8.104
 1260POPC   C4A19446   2.681  33.890   7.667
 1260POPC   C1B19447   2.935  34.068   8.730
 1260POPC   C2B19448   3.091  33.976   8.328
 1260POPC   C3B19449   3.092  34.267   8.009
 1260POPC   C4B19450   3.140  34.151   7.622
 1261POPC   NC319451  36.398  39.233   9.777
 1261POPC   PO419452  37.027  39.438   9.555
 1261POPC   GL119453  36.850  39.242   9.188
 1261POPC   GL219454  37.194  39.140   9.095
 1261POPC   C1A19455  36.830  39.161   8.733
 1261POPC   D2A19456  36.918  39.458   8.416
 1261POPC   C3A19457  36.714  39.438   8.029
 1261POPC   C4A19458  36.577  39.056   7.873
 1261POPC   C1B19459  37.345  39.429   8.775
 1261POPC   C2B19460  37.340  39.748   8.437
 1261POPC   C3B19461  37.234  39.585   8.015
 1261POPC   C4B19462  37.196  39.644   7.544
 1262POPC   NC319463  31.799  19.455   9.343
 1262POPC   PO419464  32.125  20.004   9.678
 1262POPC   GL119465  32.300  19.918   9.200
 1262POPC   GL219466  32.187  19.625   9.078
 1262POPC   C1A19467  32.424  19.814   8.703
 1262POPC   D2A19468  32.503  19.925   8.265
 1262POPC   C3A19469  32.195  19.989   7.956
 1262POPC   C4A19470  32.437  19.834   7.631
 1262POPC   C1B19471  32.091  19.393   8.713
 1262POPC   C2B19472  32.292  19.261   8.339
 1262POPC   C3B19473  32.382  19.461   7.971
 1262POPC   C4B19474  32.046  19.537   7.714
 1263POPC   NC319475  20.854  20.090   9.504
 1263POPC   PO419476  20.787  19.406   9.698
 1263POPC   GL119477  20.605  19.684   9.300
 1263POPC   GL219478  20.897  19.741   9.087
 1263POPC   C1A19479  20.491  19.857   8.818
 1263POPC   D2A19480  20.644  19.876   8.388
 1263POPC   C3A19481  20.402  19.924   8.029
 1263POPC   C4A19482  20.162  19.672   7.782
 1263POPC   C1B19483  21.041  19.993   8.778
 1263POPC   C2B19484  21.044  20.178   8.375
 1263POPC   C3B19485  20.861  20.196   7.971
 1263POPC   C4B19486  21.078  20.176   7.591
 1264POPC   NC319487  14.023  22.527   9.430
 1264POPC   PO419488  14.425  23.085   9.509
 1264POPC   GL119489  14.440  22.965   9.115
 1264POPC   GL219490  14.078  22.884   9.047
 1264POPC   C1A19491  14.615  23.166   8.772
 1264POPC   D2A19492  14.377  23.230   8.409
 1264POPC   C3A19493  14.569  23.212   8.035
 1264POPC   C4A19494  14.820  23.034   7.738
 1264POPC   C1B19495  14.284  22.754   8.672
 1264POPC   C2B19496  14.389  22.707   8.282
 1264POPC   C3B19497  14.451  22.652   7.891
 1264POPC   C4B19498  14.329  22.952   7.649
 1265POPC   NC319499  43.125  41.816   9.428
 1265POPC   PO419500  43.143  41.144   9.505
 1265POPC   GL119501  43.204  41.386   9.125
 1265POPC   GL219502  42.843  41.433   9.154
 1265POPC   C1A19503  43.081  41.711   8.792
 1265POPC   D2A19504  42.923  41.806   8.393
 1265POPC   C3A19505  43.155  41.992   8.040
 1265POPC   C4A19506  43.229  42.196   7.611
 1265POPC   C1B19507  42.872  41.225   8.752
 1265POPC   C2B19508  43.156  41.345   8.425
 1265POPC   C3B19509  43.096  41.486   8.016
 1265POPC   C4B19510  43.052  41.711   7.646
 1266POPC   NC319511  22.201  13.209   9.421
 1266POPC   PO419512  21.974  12.538   9.647
 1266POPC   GL119513  22.069  12.508   9.170
 1266POPC   GL219514  22.285  12.811   9.095
 1266POPC   C1A19515  22.212  12.472   8.722
 1266POPC   D2A19516  22.397  12.654   8.344
 1266POPC   C3A19517  22.191  12.702   7.915
 1266POPC   C4A19518  22.070  12.895   7.513
 1266POPC   C1B19519  22.195  13.012   8.699
 1266POPC   C2B19520  21.980  12.951   8.312
 1266POPC   C3B19521  21.944  13.189   7.967
 1266POPC   C4B19522  21.780  13.308   7.612
 1267POPC   NC319523  21.910  41.228   9.510
 1267POPC   PO419524  22.375  40.729   9.417
 1267POPC   GL119525  22.391  40.952   9.076
 1267POPC   GL219526  22.041  41.087   9.030
 1267POPC   C1A19527  22.476  40.791   8.675
 1267POPC   D2A19528  22.389  40.493   8.362
 1267POPC   C3A19529  22.407  40.780   8.041
 1267POPC   C4A19530  22.554  41.020   7.731
 1267POPC   C1B19531  21.955  40.799   8.696
 1267POPC   C2B19532  21.941  40.733   8.259
 1267POPC   C3B19533  21.979  40.670   7.800
 1267POPC   C4B19534  21.788  40.726   7.393
 1268POPC   NC319535  37.402  16.758   9.434
 1268POPC   PO419536  38.011  16.616   9.786
 1268POPC   GL119537  37.845  16.582   9.283
 1268POPC   GL219538  37.763  16.872   9.085
 1268POPC   C1A19539  37.701  16.448   8.806
 1268POPC   D2A19540  37.668  16.622   8.380
 1268POPC   C3A19541  37.843  16.345   8.107
 1268POPC   C4A19542  37.558  16.331   7.791
 1268POPC   C1B19543  37.463  16.909   8.744
 1268POPC   C2B19544  37.293  17.001   8.333
 1268POPC   C3B19545  37.348  16.752   7.979
 1268POPC   C4B19546  37.504  16.798   7.560
 1269POPC   NC319547  12.214  42.007   9.936
 1269POPC   PO419548  12.127  41.338   9.630
 1269POPC   GL119549  12.203  41.474   9.209
 1269POPC   GL219550  11.856  41.536   9.156
 1269POPC   C1A19551  12.216  41.728   8.813
 1269POPC   D2A19552  12.156  41.944   8.418
 1269POPC   C3A19553  12.162  41.711   8.025
 1269POPC   C4A19554  11.969  41.644   7.628
 1269POPC   C1B19555  11.841  41.389   8.748
 1269POPC   C2B19556  12.008  41.365   8.360
 1269POPC   C3B19557  11.926  41.247   7.946
 1269POPC   C4B19558  11.562  41.125   7.711
 1270POPC   NC319559  27.486  42.157   9.668
 1270POPC   PO419560  27.385  42.719   9.430
 1270POPC   GL119561  27.573  42.366   9.192
 1270POPC   GL219562  27.397  42.009   9.193
 1270POPC   C1A19563  27.739  42.393   8.766
 1270POPC   D2A19564  27.724  42.592   8.380
 1270POPC   C3A19565  27.710  42.382   8.004
 1270POPC   C4A19566  27.522  42.433   7.601
 1270POPC   C1B19567  27.277  42.214   8.808
 1270POPC   C2B19568  27.304  42.341   8.377
 1270POPC   C3B19569  27.203  42.243   7.969
 1270POPC   C4B19570  27.006  41.983   7.658
 1271POPC   NC319571   2.214  28.447   9.431
 1271POPC   PO419572   1.647  28.075   9.445
 1271POPC   GL119573   1.997  28.100   9.111
 1271POPC   GL219574   2.365  28.018   9.202
 1271POPC   C1A19575   2.049  28.457   8.803
 1271POPC   D2A19576   1.931  28.614   8.396
 1271POPC   C3A19577   2.100  28.509   8.001
 1271POPC   C4A19578   1.773  28.457   7.716
 1271POPC   C1B19579   2.461  28.160   8.796
 1271POPC   C2B19580   2.359  28.318   8.399
 1271POPC   C3B19581   2.429  28.119   8.000
 1271POPC   C4B19582   2.142  28.091   7.669
 1272POPC   NC319583  11.939   5.227   9.234
 1272POPC   PO419584  11.449   5.140   9.704
 1272POPC   GL119585  11.173   5.116   9.319
 1272POPC   GL219586  10.872   4.880   9.295
 1272POPC   C1A19587  11.158   5.258   8.898
 1272POPC   D2A19588  11.011   5.348   8.488
 1272POPC   C3A19589  11.301   5.310   8.116
 1272POPC   C4A19590  11.363   5.074   7.714
 1272POPC   C1B19591  10.905   4.792   8.877
 1272POPC   C2B19592  11.191   4.839   8.547
 1272POPC   C3B19593  11.200   4.792   8.119
 1272POPC   C4B19594  10.882   4.825   7.789
 1273POPC   NC319595  23.146  25.575   9.477
 1273POPC   PO419596  22.666  25.025   9.507
 1273POPC   GL119597  22.834  25.282   9.153
 1273POPC   GL219598  23.185  25.396   9.012
 1273POPC   C1A19599  22.769  25.383   8.720
 1273POPC   D2A19600  22.949  25.255   8.338
 1273POPC   C3A19601  22.724  25.374   7.987
 1273POPC   C4A19602  22.555  25.365   7.572
 1273POPC   C1B19603  23.103  25.782   8.736
 1273POPC   C2B19604  22.869  25.779   8.355
 1273POPC   C3B19605  23.110  25.781   7.992
 1273POPC   C4B19606  23.070  25.524   7.622
 1274POPC   NC319607  32.788  24.769   9.473
 1274POPC   PO419608  32.911  24.083   9.552
 1274POPC   GL119609  32.923  24.352   9.225
 1274POPC   GL219610  33.231  24.334   9.065
 1274POPC   C1A19611  32.797  24.349   8.810
 1274POPC   D2A19612  32.798  24.509   8.415
 1274POPC   C3A19613  33.072  24.348   8.102
 1274POPC   C4A19614  32.844  24.484   7.760
 1274POPC   C1B19615  33.270  24.371   8.607
 1274POPC   C2B19616  33.280  24.749   8.334
 1274POPC   C3B19617  33.230  24.866   7.909
 1274POPC   C4B19618  33.261  24.653   7.517
 1275POPC   NC319619  39.905  36.320   9.687
 1275POPC   PO419620  40.315  35.919   9.530
 1275POPC   GL119621  40.102  36.146   9.219
 1275POPC   GL219622  39.766  36.233   9.200
 1275POPC   C1A19623  40.059  36.024   8.803
 1275POPC   D2A19624  39.948  35.907   8.410
 1275POPC   C3A19625  40.172  36.084   8.067
 1275POPC   C4A19626  40.097  35.874   7.679
 1275POPC   C1B19627  39.764  36.433   8.799
 1275POPC   C2B19628  39.647  36.320   8.364
 1275POPC   C3B19629  39.694  36.091   7.971
 1275POPC   C4B19630  39.921  36.366   7.680
 1276POPC   NC319631  29.393  33.744   9.438
 1276POPC   PO419632  28.895  34.114   9.600
 1276POPC   GL119633  28.925  33.938   9.178
 1276POPC   GL219634  29.077  33.595   9.074
 1276POPC   C1A19635  29.040  34.010   8.761
 1276POPC   D2A19636  29.162  33.861   8.362
 1276POPC   C3A19637  29.175  34.033   7.944
 1276POPC   C4A19638  29.247  33.676   7.650
 1276POPC   C1B19639  28.700  33.551   8.861
 1276POPC   C2B19640  28.664  33.611   8.431
 1276POPC   C3B19641  28.774  33.695   8.030
 1276POPC   C4B19642  28.790  33.464   7.639
 1277POPC   NC319643   3.726   8.534   9.477
 1277POPC   PO419644   3.257   8.045   9.432
 1277POPC   GL119645   3.439   8.278   9.142
 1277POPC   GL219646   3.175   8.343   8.934
 1277POPC   C1A19647   3.661   8.384   8.768
 1277POPC   D2A19648   3.589   8.208   8.363
 1277POPC   C3A19649   3.650   8.427   7.995
 1277POPC   C4A19650   3.464   8.502   7.600
 1277POPC   C1B19651   3.374   7.937   8.749
 1277POPC   C2B19652   3.317   7.743   8.315
 1277POPC   C3B19653   3.570   7.890   7.962
 1277POPC   C4B19654   3.727   8.059   7.600
 1278POPC   NC319655  38.336  41.990   9.478
 1278POPC   PO419656  38.550  42.619   9.430
 1278POPC   GL119657  38.642  42.511   9.039
 1278POPC   GL219658  38.654  42.180   9.116
 1278POPC   C1A19659  38.355  42.489   8.700
 1278POPC   D2A19660  38.352  42.351   8.289
 1278POPC   C3A19661  38.150  42.112   7.970
 1278POPC   C4A19662  38.340  42.352   7.634
 1278POPC   C1B19663  38.517  42.023   8.719
 1278POPC   C2B19664  38.669  41.958   8.278
 1278POPC   C3B19665  38.664  42.010   7.833
 1278POPC   C4B19666  38.682  42.116   7.350
 1279POPC   NC319667  14.928  17.330   9.560
 1279POPC   PO419668  15.412  17.838   9.716
 1279POPC   GL119669  15.480  17.579   9.239
 1279POPC   GL219670  15.233  17.437   9.193
 1279POPC   C1A19671  15.255  17.695   8.754
 1279POPC   D2A19672  14.909  17.555   8.449
 1279POPC   C3A19673  15.015  17.485   8.019
 1279POPC   C4A19674  15.303  17.740   7.750
 1279POPC   C1B19675  15.307  17.210   8.885
 1279POPC   C2B19676  15.325  17.221   8.463
 1279POPC   C3B19677  15.374  17.092   8.056
 1279POPC   C4B19678  15.295  17.248   7.652
 1280POPC   NC319679  31.304  24.533  10.332
 1280POPC   PO419680  31.463  24.581   9.670
 1280POPC   GL119681  31.363  24.604   9.221
 1280POPC   GL219682  31.685  24.729   9.090
 1280POPC   C1A19683  31.180  24.448   8.840
 1280POPC   D2A19684  31.400  24.484   8.452
 1280POPC   C3A19685  31.164  24.548   8.102
 1280POPC   C4A19686  31.403  24.464   7.717
 1280POPC   C1B19687  31.687  24.327   8.864
 1280POPC   C2B19688  31.858  24.232   8.468
 1280POPC   C3B19689  31.777  24.402   8.065
 1280POPC   C4B19690  31.814  24.185   7.659
 1281POPC   NC319691  10.207  40.976  10.012
 1281POPC   PO419692  10.611  40.629   9.527
 1281POPC   GL119693  10.596  40.732   9.092
 1281POPC   GL219694  10.484  40.486   8.852
 1281POPC   C1A19695  10.650  40.958   8.706
 1281POPC   D2A19696  10.461  40.784   8.358
 1281POPC   C3A19697  10.512  41.059   8.042
 1281POPC   C4A19698  10.500  41.036   7.618
 1281POPC   C1B19699  10.911  40.512   8.764
 1281POPC   C2B19700  11.003  40.612   8.389
 1281POPC   C3B19701  10.810  40.645   7.980
 1281POPC   C4B19702  10.855  40.684   7.533
 1282POPC   NC319703  10.643  11.033   9.831
 1282POPC   PO419704  10.358  11.536   9.539
 1282POPC   GL119705  10.321  11.199   9.258
 1282POPC   GL219706  10.105  11.326   9.047
 1282POPC   C1A19707  10.494  11.170   8.812
 1282POPC   D2A19708  10.234  11.191   8.445
 1282POPC   C3A19709  10.403  11.117   8.060
 1282POPC   C4A19710  10.740  11.328   7.818
 1282POPC   C1B19711  10.184  11.631   8.697
 1282POPC   C2B19712  10.087  11.679   8.246
 1282POPC   C3B19713  10.270  11.574   7.838
 1282POPC   C4B19714  10.348  11.575   7.402
 1283POPC   NC319715  41.768  44.206   9.413
 1283POPC   PO419716  41.906  44.823   9.610
 1283POPC   GL119717  41.527  44.843   9.244
 1283POPC   GL219718  41.576  44.529   9.083
 1283POPC   C1A19719  41.394  44.790   8.726
 1283POPC   D2A19720  41.583  44.488   8.424
 1283POPC   C3A19721  41.562  44.610   7.968
 1283POPC   C4A19722  41.551  44.425   7.541
 1283POPC   C1B19723  41.866  44.872   8.863
 1283POPC   C2B19724  41.971  44.836   8.439
 1283POPC   C3B19725  41.917  44.998   8.031
 1283POPC   C4B19726  41.838  44.838   7.602
 1284POPC   NC319727  11.637   6.145   9.379
 1284POPC   PO419728  12.196   5.899   9.609
 1284POPC   GL119729  12.076   5.950   9.151
 1284POPC   GL219730  12.189   5.656   9.074
 1284POPC   C1A19731  11.923   5.915   8.692
 1284POPC   D2A19732  12.105   5.948   8.232
 1284POPC   C3A19733  11.906   5.916   7.797
 1284POPC   C4A19734  11.694   5.880   7.345
 1284POPC   C1B19735  12.257   5.522   8.669
 1284POPC   C2B19736  12.448   5.584   8.297
 1284POPC   C3B19737  12.319   5.572   7.892
 1284POPC   C4B19738  12.073   5.548   7.492
 1285POPC   NC319739  14.955   8.031   9.600
 1285POPC   PO419740  15.421   8.428   9.489
 1285POPC   GL119741  15.435   8.256   9.108
 1285POPC   GL219742  15.114   8.105   9.120
 1285POPC   C1A19743  15.324   8.227   8.675
 1285POPC   D2A19744  15.134   7.902   8.382
 1285POPC   C3A19745  15.354   7.914   7.966
 1285POPC   C4A19746  15.546   8.309   7.901
 1285POPC   C1B19747  14.838   8.226   8.767
 1285POPC   C2B19748  14.773   8.286   8.326
 1285POPC   C3B19749  14.992   8.286   7.922
 1285POPC   C4B19750  14.831   8.422   7.530
 1286POPC   NC319751   8.832  24.251   9.413
 1286POPC   PO419752   9.395  24.465   9.633
 1286POPC   GL119753   9.178  24.572   9.203
 1286POPC   GL219754   8.826  24.726   9.176
 1286POPC   C1A19755   9.009  24.462   8.761
 1286POPC   D2A19756   8.706  24.302   8.436
 1286POPC   C3A19757   8.980  24.186   8.072
 1286POPC   C4A19758   9.033  24.396   7.669
 1286POPC   C1B19759   8.833  24.937   8.737
 1286POPC   C2B19760   8.849  24.789   8.314
 1286POPC   C3B19761   8.648  24.573   7.971
 1286POPC   C4B19762   8.599  24.685   7.552
 1287POPC   NC319763  31.934  21.226   9.555
 1287POPC   PO419764  32.414  21.700   9.457
 1287POPC   GL119765  32.017  21.630   9.194
 1287POPC   GL219766  32.093  21.298   9.074
 1287POPC   C1A19767  31.833  21.610   8.783
 1287POPC   D2A19768  32.065  21.422   8.459
 1287POPC   C3A19769  31.932  21.263   8.074
 1287POPC   C4A19770  32.135  21.392   7.712
 1287POPC   C1B19771  32.403  21.199   8.767
 1287POPC   C2B19772  32.513  21.194   8.323
 1287POPC   C3B19773  32.441  20.973   7.983
 1287POPC   C4B19774  32.475  21.089   7.554
 1288POPC   NC319775  31.153  22.412   9.524
 1288POPC   PO419776  31.607  21.930   9.444
 1288POPC   GL119777  31.523  22.279   9.157
 1288POPC   GL219778  31.531  21.992   8.937
 1288POPC   C1A19779  31.340  22.398   8.737
 1288POPC   D2A19780  31.401  22.050   8.416
 1288POPC   C3A19781  31.404  22.051   7.976
 1288POPC   C4A19782  31.454  22.428   7.694
 1288POPC   C1B19783  31.842  22.138   8.637
 1288POPC   C2B19784  32.021  21.906   8.312
 1288POPC   C3B19785  31.848  21.764   7.916
 1288POPC   C4B19786  31.618  21.857   7.544
 1289POPC   NC319787  29.742  12.340   9.511
 1289POPC   PO419788  30.246  11.994   9.447
 1289POPC   GL119789  29.952  12.122   9.079
 1289POPC   GL219790  29.548  12.180   9.078
 1289POPC   C1A19791  29.965  12.040   8.633
 1289POPC   D2A19792  30.170  12.093   8.248
 1289POPC   C3A19793  29.974  12.116   7.832
 1289POPC   C4A19794  30.009  11.939   7.416
 1289POPC   C1B19795  29.453  12.107   8.655
 1289POPC   C2B19796  29.613  12.131   8.230
 1289POPC   C3B19797  29.472  12.269   7.817
 1289POPC   C4B19798  29.723  12.377   7.413
 1290POPC   NC319799  38.676  21.236   9.383
 1290POPC   PO419800  38.068  21.484   9.426
 1290POPC   GL119801  38.330  21.508   9.113
 1290POPC   GL219802  38.305  21.151   9.050
 1290POPC   C1A19803  38.498  21.514   8.702
 1290POPC   D2A19804  38.374  21.271   8.332
 1290POPC   C3A19805  38.401  21.455   7.924
 1290POPC   C4A19806  38.189  21.357   7.529
 1290POPC   C1B19807  38.651  21.035   8.740
 1290POPC   C2B19808  38.798  20.950   8.343
 1290POPC   C3B19809  38.829  21.110   7.939
 1290POPC   C4B19810  38.608  21.095   7.589
 1291POPC   NC319811  37.499  19.717   9.338
 1291POPC   PO419812  36.923  19.822   9.732
 1291POPC   GL119813  36.918  19.743   9.235
 1291POPC   GL219814  36.809  19.416   9.138
 1291POPC   C1A19815  36.700  19.749   8.765
 1291POPC   D2A19816  36.527  19.682   8.310
 1291POPC   C3A19817  36.773  19.902   7.965
 1291POPC   C4A19818  37.101  20.232   7.814
 1291POPC   C1B19819  37.184  19.499   8.812
 1291POPC   C2B19820  37.374  19.548   8.394
 1291POPC   C3B19821  37.191  19.472   7.975
 1291POPC   C4B19822  37.310  19.510   7.543
 1292POPC   NC319823  43.991  27.125   9.501
 1292POPC   PO419824  43.788  26.475   9.506
 1292POPC   GL119825  43.884  26.713   9.144
 1292POPC   GL219826  44.183  26.536   9.037
 1292POPC   C1A19827  44.006  26.972   8.773
 1292POPC   D2A19828  44.210  27.045   8.348
 1292POPC   C3A19829  43.916  27.107   8.033
 1292POPC   C4A19830  43.954  27.107   7.620
 1292POPC   C1B19831  43.991  26.479   8.673
 1292POPC   C2B19832  43.872  26.624   8.274
 1292POPC   C3B19833  44.074  26.632   7.889
 1292POPC   C4B19834  44.139  26.687   7.447
 1293POPC   NC319835  41.752  25.602   9.615
 1293POPC   PO419836  41.513  24.966   9.439
 1293POPC   GL119837  41.544  25.095   9.084
 1293POPC   GL219838  41.718  25.369   9.155
 1293POPC   C1A19839  41.398  25.283   8.727
 1293POPC   D2A19840  41.154  25.432   8.388
 1293POPC   C3A19841  41.362  25.280   8.047
 1293POPC   C4A19842  41.273  25.022   7.713
 1293POPC   C1B19843  41.921  25.223   8.747
 1293POPC   C2B19844  41.790  25.092   8.333
 1293POPC   C3B19845  41.828  25.140   7.869
 1293POPC   C4B19846  41.944  25.156   7.422
 1294POPC   NC319847  31.918  17.347   9.421
 1294POPC   PO419848  32.106  17.983   9.554
 1294POPC   GL119849  32.290  17.710   9.230
 1294POPC   GL219850  32.362  17.331   9.182
 1294POPC   C1A19851  32.263  17.704   8.801
 1294POPC   D2A19852  32.372  17.520   8.403
 1294POPC   C3A19853  32.159  17.421   8.025
 1294POPC   C4A19854  32.289  17.658   7.700
 1294POPC   C1B19855  32.201  17.191   8.783
 1294POPC   C2B19856  32.244  17.026   8.376
 1294POPC   C3B19857  32.434  16.977   8.014
 1294POPC   C4B19858  32.590  17.244   7.748
 1295POPC   NC319859  44.419  37.299   9.410
 1295POPC   PO419860   0.080  37.053   9.532
 1295POPC   GL119861  44.793  36.993   9.197
 1295POPC   GL219862  44.856  36.677   9.051
 1295POPC   C1A19863  44.646  37.191   8.801
 1295POPC   D2A19864  44.607  37.010   8.382
 1295POPC   C3A19865  44.620  37.279   8.014
 1295POPC   C4A19866  44.847  37.263   7.642
 1295POPC   C1B19867  44.935  36.443   8.691
 1295POPC   C2B19868   0.082  36.544   8.277
 1295POPC   C3B19869  44.958  36.648   7.826
 1295POPC   C4B19870  44.946  36.825   7.379
 1296POPC   NC319871  34.949   3.101   9.606
 1296POPC   PO419872  34.873   2.487   9.420
 1296POPC   GL119873  34.758   2.661   9.040
 1296POPC   GL219874  34.439   2.702   9.139
 1296POPC   C1A19875  34.794   2.842   8.610
 1296POPC   D2A19876  35.003   3.046   8.297
 1296POPC   C3A19877  34.818   2.902   7.942
 1296POPC   C4A19878  34.736   2.525   7.790
 1296POPC   C1B19879  34.380   2.574   8.692
 1296POPC   C2B19880  34.459   2.501   8.240
 1296POPC   C3B19881  34.297   2.720   7.863
 1296POPC   C4B19882  34.079   2.995   7.577
 1297POPC   NC319883  40.737  43.244   9.609
 1297POPC   PO419884  41.102  42.731   9.656
 1297POPC   GL119885  40.926  42.797   9.265
 1297POPC   GL219886  40.996  43.130   9.194
 1297POPC   C1A19887  40.624  42.878   8.944
 1297POPC   D2A19888  40.682  42.922   8.486
 1297POPC   C3A19889  40.566  43.253   8.241
 1297POPC   C4A19890  40.573  43.167   7.825
 1297POPC   C1B19891  41.095  42.984   8.768
 1297POPC   C2B19892  41.183  42.772   8.365
 1297POPC   C3B19893  41.034  42.970   8.003
 1297POPC   C4B19894  41.079  43.366   7.834
 1298POPC   NC319895  41.284  20.483   9.496
 1298POPC   PO419896  41.752  20.922   9.540
 1298POPC   GL119897  41.501  20.799   9.165
 1298POPC   GL219898  41.583  20.428   9.082
 1298POPC   C1A19899  41.292  20.827   8.772
 1298POPC   D2A19900  41.140  20.781   8.335
 1298POPC   C3A19901  41.502  20.734   8.022
 1298POPC   C4A19902  41.541  20.512   7.619
 1298POPC   C1B19903  41.184  20.313   8.867
 1298POPC   C2B19904  41.011  20.299   8.447
 1298POPC   C3B19905  41.238  20.270   8.073
 1298POPC   C4B19906  41.072  20.284   7.696
 1299POPC   NC319907  10.417   7.259   9.570
 1299POPC   PO419908  11.108   7.332   9.576
 1299POPC   GL119909  10.774   7.305   9.191
 1299POPC   GL219910  10.444   7.502   9.126
 1299POPC   C1A19911  10.602   7.079   8.808
 1299POPC   D2A19912  10.334   7.039   8.407
 1299POPC   C3A19913  10.485   7.160   7.998
 1299POPC   C4A19914  10.903   7.190   7.844
 1299POPC   C1B19915  10.278   7.473   8.712
 1299POPC   C2B19916  10.473   7.564   8.322
 1299POPC   C3B19917  10.664   7.668   7.928
 1299POPC   C4B19918  10.647   7.474   7.518
 1300POPC   NC319919   6.355  19.931   9.445
 1300POPC   PO419920   6.260  20.561   9.283
 1300POPC   GL119921   6.525  20.197   9.053
 1300POPC   GL219922   6.534  19.834   8.965
 1300POPC   C1A19923   6.762  20.144   8.636
 1300POPC   D2A19924   6.539  20.017   8.244
 1300POPC   C3A19925   6.743  19.785   7.936
 1300POPC   C4A19926   7.095  19.576   7.750
 1300POPC   C1B19927   6.237  20.080   8.673
 1300POPC   C2B19928   5.974  20.118   8.326
 1300POPC   C3B19929   6.135  20.238   7.953
 1300POPC   C4B19930   6.437  20.120   7.673
 1301POPC   NC319931   1.855  13.977   9.524
 1301POPC   PO419932   2.327  13.504   9.478
 1301POPC   GL119933   2.076  13.448   9.123
 1301POPC   GL219934   1.828  13.736   9.073
 1301POPC   C1A19935   2.180  13.533   8.708
 1301POPC   D2A19936   2.019  13.403   8.316
 1301POPC   C3A19937   2.168  13.545   7.910
 1301POPC   C4A19938   2.048  13.453   7.476
 1301POPC   C1B19939   1.661  13.531   8.700
 1301POPC   C2B19940   1.520  13.429   8.294
 1301POPC   C3B19941   1.591  13.629   7.913
 1301POPC   C4B19942   1.854  13.869   7.638
 1302POPC   NC319943  39.014  12.990   9.329
 1302POPC   PO419944  39.465  12.483   9.492
 1302POPC   GL119945  39.392  12.664   9.126
 1302POPC   GL219946  39.076  12.535   9.102
 1302POPC   C1A19947  39.581  12.839   8.736
 1302POPC   D2A19948  39.371  12.949   8.340
 1302POPC   C3A19949  39.478  13.067   7.940
 1302POPC   C4A19950  39.776  12.777   7.778
 1302POPC   C1B19951  39.090  12.729   8.711
 1302POPC   C2B19952  39.030  12.557   8.322
 1302POPC   C3B19953  39.180  12.655   7.938
 1302POPC   C4B19954  38.950  13.059   7.929
 1303POPC   NC319955  35.681   6.105   9.456
 1303POPC   PO419956  36.338   5.798   9.557
 1303POPC   GL119957  36.238   5.814   9.156
 1303POPC   GL219958  35.910   5.753   9.140
 1303POPC   C1A19959  36.234   6.066   8.798
 1303POPC   D2A19960  36.219   6.325   8.437
 1303POPC   C3A19961  36.328   6.073   8.097
 1303POPC   C4A19962  36.251   5.883   7.724
 1303POPC   C1B19963  35.996   5.594   8.737
 1303POPC   C2B19964  35.972   5.862   8.392
 1303POPC   C3B19965  35.828   5.913   8.000
 1303POPC   C4B19966  35.774   5.576   7.724
 1304POPC   NC319967  28.965  29.207   9.563
 1304POPC   PO419968  29.569  29.519   9.555
 1304POPC   GL119969  29.386  29.218   9.235
 1304POPC   GL219970  29.015  29.179   9.069
 1304POPC   C1A19971  29.435  29.032   8.853
 1304POPC   D2A19972  29.164  29.128   8.494
 1304POPC   C3A19973  29.315  29.118   8.087
 1304POPC   C4A19974  29.024  29.214   7.828
 1304POPC   C1B19975  28.832  29.485   8.789
 1304POPC   C2B19976  28.886  29.587   8.334
 1304POPC   C3B19977  28.636  29.508   7.959
 1304POPC   C4B19978  28.736  29.469   7.494
 1305POPC   NC319979  38.884  34.717   9.412
 1305POPC   PO419980  39.426  35.124   9.622
 1305POPC   GL119981  39.320  34.912   9.180
 1305POPC   GL219982  39.406  34.529   9.139
 1305POPC   C1A19983  39.123  34.742   8.777
 1305POPC   D2A19984  39.364  34.708   8.393
 1305POPC   C3A19985  39.135  34.659   8.023
 1305POPC   C4A19986  39.036  34.814   7.627
 1305POPC   C1B19987  39.373  34.294   8.747
 1305POPC   C2B19988  39.265  34.201   8.360
 1305POPC   C3B19989  39.471  34.281   7.991
 1305POPC   C4B19990  39.235  34.335   7.631
 1306POPC   NC319991  40.516  39.985   9.599
 1306POPC   PO419992  39.829  39.936   9.520
 1306POPC   GL119993  39.814  39.993   9.100
 1306POPC   GL219994  40.060  40.251   9.064
 1306POPC   C1A19995  39.707  40.140   8.702
 1306POPC   D2A19996  39.878  40.099   8.292
 1306POPC   C3A19997  39.641  40.166   7.958
 1306POPC   C4A19998  39.651  39.861   7.656
 1306POPC   C1B19999  40.230  40.127   8.660
 1306POPC   C2B20000  40.319  39.804   8.330
 1306POPC   C3B20001  40.127  39.778   7.917
 1306POPC   C4B20002  40.068  40.166   7.675
 1307POPC   NC320003  20.132  25.462   9.431
 1307POPC   PO420004  19.787  24.825   9.412
 1307POPC   GL120005  20.083  24.966   9.057
 1307POPC   GL220006  20.205  25.321   8.969
 1307POPC   C1A20007  20.103  25.036   8.573
 1307POPC   D2A20008  20.130  25.009   8.124
 1307POPC   C3A20009  19.756  25.122   7.909
 1307POPC   C4A20010  19.364  24.876   7.940
 1307POPC   C1B20011  19.799  25.405   8.821
 1307POPC   C2B20012  19.713  25.447   8.412
 1307POPC   C3B20013  19.891  25.625   8.053
 1307POPC   C4B20014  20.065  25.499   7.680
 1308POPC   NC320015   1.837  31.634   9.315
 1308POPC   PO420016   2.108  31.126   9.619
 1308POPC   GL120017   2.245  31.332   9.140
 1308POPC   GL220018   1.927  31.450   8.874
 1308POPC   C1A20019   2.299  31.212   8.693
 1308POPC   D2A20020   2.025  31.208   8.353
 1308POPC   C3A20021   2.162  31.355   7.945
 1308POPC   C4A20022   1.958  31.456   7.527
 1308POPC   C1B20023   1.780  31.798   8.631
 1308POPC   C2B20024   1.558  31.935   8.245
 1308POPC   C3B20025   1.830  31.836   7.879
 1308POPC   C4B20026   1.716  31.880   7.438
 1309POPC   NC320027  35.882   9.990   9.560
 1309POPC   PO420028  36.357   9.531   9.486
 1309POPC   GL120029  36.184   9.761   9.131
 1309POPC   GL220030  35.832   9.734   9.061
 1309POPC   C1A20031  36.143   9.917   8.699
 1309POPC   D2A20032  36.094  10.107   8.266
 1309POPC   C3A20033  36.365   9.974   7.912
 1309POPC   C4A20034  36.238   9.885   7.465
 1309POPC   C1B20035  35.896   9.446   8.698
 1309POPC   C2B20036  36.214   9.301   8.413
 1309POPC   C3B20037  36.243   9.471   8.003
 1309POPC   C4B20038  35.904   9.596   7.741
 1310POPC   NC320039  44.706  17.080   9.602
 1310POPC   PO420040  44.986  17.714   9.559
 1310POPC   GL120041  44.748  17.508   9.209
 1310POPC   GL220042  44.465  17.252   9.184
 1310POPC   C1A20043  44.543  17.667   8.832
 1310POPC   D2A20044  44.356  17.497   8.473
 1310POPC   C3A20045  44.530  17.451   8.080
 1310POPC   C4A20046  44.383  17.562   7.685
 1310POPC   C1B20047  44.661  17.168   8.803
 1310POPC   C2B20048  44.603  17.042   8.406
 1310POPC   C3B20049  44.851  17.060   8.043
 1310POPC   C4B20050  44.639  17.084   7.693
 1311POPC   NC320051  23.842  21.300   9.733
 1311POPC   PO420052  23.282  21.298   9.609
 1311POPC   GL120053  23.570  21.224   9.272
 1311POPC   GL220054  23.892  21.037   9.269
 1311POPC   C1A20055  23.678  21.292   8.846
 1311POPC   D2A20056  23.712  21.089   8.437
 1311POPC   C3A20057  23.766  21.390   8.081
 1311POPC   C4A20058  23.708  21.424   7.637
 1311POPC   C1B20059  24.071  20.981   8.833
 1311POPC   C2B20060  24.224  20.996   8.387
 1311POPC   C3B20061  24.089  20.996   7.937
 1311POPC   C4B20062  24.213  21.336   7.629
 1312POPC   NC320063  24.911  18.101   9.325
 1312POPC   PO420064  24.451  18.604   9.435
 1312POPC   GL120065  24.424  18.269   9.168
 1312POPC   GL220066  24.334  18.541   8.948
 1312POPC   C1A20067  24.570  18.115   8.762
 1312POPC   D2A20068  24.378  18.206   8.387
 1312POPC   C3A20069  24.490  18.064   8.010
 1312POPC   C4A20070  24.618  18.415   7.811
 1312POPC   C1B20071  24.064  18.278   8.778
 1312POPC   C2B20072  23.877  18.292   8.356
 1312POPC   C3B20073  24.052  18.316   7.944
 1312POPC   C4B20074  24.133  18.544   7.553
 1313POPC   NC320075  29.538  34.710   9.434
 1313POPC   PO420076  30.215  34.568   9.502
 1313POPC   GL120077  29.980  34.710   9.118
 1313POPC   GL220078  29.711  34.477   9.000
 1313POPC   C1A20079  30.097  34.589   8.687
 1313POPC   D2A20080  30.127  34.305   8.333
 1313POPC   C3A20081  30.147  34.617   8.006
 1313POPC   C4A20082  29.892  34.775   7.659
 1313POPC   C1B20083  29.614  34.117   8.722
 1313POPC   C2B20084  29.608  34.118   8.276
 1313POPC   C3B20085  29.693  34.373   7.919
 1313POPC   C4B20086  29.662  34.412   7.407
 1314POPC   NC320087  17.634  19.969   9.555
 1314POPC   PO420088  17.889  19.306   9.516
 1314POPC   GL120089  17.795  19.643   9.168
 1314POPC   GL220090  17.468  19.887   9.098
 1314POPC   C1A20091  17.850  19.889   8.781
 1314POPC   D2A20092  17.641  19.732   8.444
 1314POPC   C3A20093  17.764  19.815   8.047
 1314POPC   C4A20094  17.596  19.944   7.684
 1314POPC   C1B20095  17.337  19.548   8.842
 1314POPC   C2B20096  17.127  19.663   8.468
 1314POPC   C3B20097  17.266  19.923   8.121
 1314POPC   C4B20098  17.269  19.585   7.837
 1315POPC   NC320099  22.872  17.412   9.636
 1315POPC   PO420100  23.384  17.813   9.405
 1315POPC   GL120101  23.166  17.446   9.166
 1315POPC   GL220102  22.786  17.428   9.144
 1315POPC   C1A20103  23.082  17.399   8.717
 1315POPC   D2A20104  23.255  17.457   8.331
 1315POPC   C3A20105  22.965  17.415   8.022
 1315POPC   C4A20106  23.144  17.389   7.659
 1315POPC   C1B20107  22.607  17.199   8.810
 1315POPC   C2B20108  22.575  17.371   8.388
 1315POPC   C3B20109  22.479  17.204   8.006
 1315POPC   C4B20110  22.735  17.052   7.668
 1316POPC   NC320111  43.638  10.074   9.372
 1316POPC   PO420112  43.857   9.517   9.528
 1316POPC   GL120113  43.997   9.716   9.168
 1316POPC   GL220114  44.337   9.560   9.161
 1316POPC   C1A20115  43.819   9.674   8.755
 1316POPC   D2A20116  43.612   9.901   8.407
 1316POPC   C3A20117  43.744   9.792   7.991
 1316POPC   C4A20118  43.681   9.873   7.552
 1316POPC   C1B20119  44.324   9.767   8.774
 1316POPC   C2B20120  44.131   9.735   8.366
 1316POPC   C3B20121  44.263   9.850   7.980
 1316POPC   C4B20122  44.207   9.524   7.738
 1317POPC   NC320123   4.933  23.836   9.390
 1317POPC   PO420124   5.516  23.400   9.436
 1317POPC   GL120125   5.329  23.524   9.048
 1317POPC   GL220126   5.341  23.855   9.059
 1317POPC   C1A20127   4.989  23.681   8.740
 1317POPC   D2A20128   4.977  23.937   8.315
 1317POPC   C3A20129   4.993  23.661   7.931
 1317POPC   C4A20130   4.894  23.292   7.654
 1317POPC   C1B20131   5.328  24.117   8.693
 1317POPC   C2B20132   5.430  24.220   8.252
 1317POPC   C3B20133   5.298  24.099   7.834
 1317POPC   C4B20134   5.225  24.081   7.391
 1318POPC   NC320135  37.354  19.630   9.805
 1318POPC   PO420136  37.954  19.934   9.553
 1318POPC   GL120137  37.878  19.955   9.116
 1318POPC   GL220138  37.947  19.624   9.092
 1318POPC   C1A20139  37.685  19.904   8.716
 1318POPC   D2A20140  37.751  19.905   8.308
 1318POPC   C3A20141  37.623  20.199   8.036
 1318POPC   C4A20142  37.527  19.963   7.687
 1318POPC   C1B20143  37.767  19.393   8.744
 1318POPC   C2B20144  37.912  19.426   8.315
 1318POPC   C3B20145  37.735  19.528   7.899
 1318POPC   C4B20146  37.813  19.396   7.461
 1319POPC   NC320147  20.248  17.593   9.657
 1319POPC   PO420148  19.562  17.604   9.653
 1319POPC   GL120149  19.865  17.624   9.301
 1319POPC   GL220150  19.828  17.370   9.006
 1319POPC   C1A20151  20.064  17.806   8.934
 1319POPC   D2A20152  19.932  17.697   8.516
 1319POPC   C3A20153  19.907  17.692   8.067
 1319POPC   C4A20154  19.667  17.525   7.772
 1319POPC   C1B20155  19.911  17.175   8.619
 1319POPC   C2B20156  19.729  17.248   8.250
 1319POPC   C3B20157  19.629  17.038   7.911
 1319POPC   C4B20158  19.902  17.108   7.549
 1320POPC   NC320159  34.011   1.054   9.495
 1320POPC   PO420160  33.497   1.468   9.646
 1320POPC   GL120161  33.670   1.313   9.219
 1320POPC   GL220162  33.423   1.192   9.029
 1320POPC   C1A20163  33.899   1.133   8.806
 1320POPC   D2A20164  34.139   1.161   8.382
 1320POPC   C3A20165  33.893   1.119   8.011
 1320POPC   C4A20166  33.722   1.324   7.632
 1320POPC   C1B20167  33.475   0.825   8.801
 1320POPC   C2B20168  33.573   0.936   8.362
 1320POPC   C3B20169  33.403   0.933   7.892
 1320POPC   C4B20170  33.401   0.985   7.401
 1321POPC   NC320171   1.639  16.306   9.228
 1321POPC   PO420172   2.166  16.519   9.645
 1321POPC   GL120173   2.133  16.636   9.158
 1321POPC   GL220174   1.842  16.794   9.119
 1321POPC   C1A20175   2.003  16.503   8.705
 1321POPC   D2A20176   1.728  16.582   8.360
 1321POPC   C3A20177   1.928  16.501   7.940
 1321POPC   C4A20178   2.309  16.498   7.677
 1321POPC   C1B20179   1.876  17.028   8.735
 1321POPC   C2B20180   1.636  17.169   8.415
 1321POPC   C3B20181   1.696  16.961   8.031
 1321POPC   C4B20182   2.032  16.982   7.735
 1322POPC   NC320183  11.986  25.535   9.519
 1322POPC   PO420184  12.097  26.176   9.440
 1322POPC   GL120185  12.172  25.843   9.139
 1322POPC   GL220186  11.854  25.756   9.083
 1322POPC   C1A20187  12.260  25.718   8.700
 1322POPC   D2A20188  11.976  25.634   8.313
 1322POPC   C3A20189  12.024  25.943   7.993
 1322POPC   C4A20190  12.331  26.229   7.871
 1322POPC   C1B20191  11.743  26.136   8.860
 1322POPC   C2B20192  11.787  26.138   8.429
 1322POPC   C3B20193  11.679  26.341   8.058
 1322POPC   C4B20194  11.644  26.186   7.678
 1323POPC   NC320195  29.137  39.690   9.762
 1323POPC   PO420196  29.432  39.221   9.398
 1323POPC   GL120197  29.087  39.283   9.159
 1323POPC   GL220198  28.980  39.619   9.144
 1323POPC   C1A20199  28.983  39.056   8.790
 1323POPC   D2A20200  29.215  39.130   8.402
 1323POPC   C3A20201  29.074  39.107   7.972
 1323POPC   C4A20202  29.338  39.255   7.634
 1323POPC   C1B20203  29.233  39.527   8.740
 1323POPC   C2B20204  29.292  39.653   8.296
 1323POPC   C3B20205  29.082  39.624   7.899
 1323POPC   C4B20206  29.165  39.727   7.461
 1324POPC   NC320207  11.112  21.566   9.777
 1324POPC   PO420208  10.433  21.579   9.750
 1324POPC   GL120209  10.414  21.634   9.234
 1324POPC   GL220210  10.440  21.306   9.013
 1324POPC   C1A20211  10.546  21.733   8.785
 1324POPC   D2A20212  10.446  21.519   8.380
 1324POPC   C3A20213  10.533  21.683   7.951
 1324POPC   C4A20214  10.537  21.530   7.498
 1324POPC   C1B20215  10.813  21.300   8.718
 1324POPC   C2B20216  10.938  21.418   8.278
 1324POPC   C3B20217  10.803  21.267   7.863
 1324POPC   C4B20218  10.841  21.071   7.446
 1325POPC   NC320219   5.502  27.373   9.433
 1325POPC   PO420220   6.100  26.876   9.576
 1325POPC   GL120221   5.840  26.737   9.233
 1325POPC   GL220222   5.575  26.950   9.166
 1325POPC   C1A20223   5.750  26.613   8.810
 1325POPC   D2A20224   5.602  26.750   8.394
 1325POPC   C3A20225   5.915  26.641   8.053
 1325POPC   C4A20226   5.868  26.709   7.623
 1325POPC   C1B20227   5.686  27.120   8.760
 1325POPC   C2B20228   5.701  27.283   8.354
 1325POPC   C3B20229   5.741  27.129   7.947
 1325POPC   C4B20230   5.435  27.063   7.623
 1326POPC   NC320231  26.769  18.246   9.824
 1326POPC   PO420232  26.997  18.669   9.453
 1326POPC   GL120233  26.892  18.713   9.045
 1326POPC   GL220234  26.577  18.560   9.074
 1326POPC   C1A20235  27.039  18.632   8.614
 1326POPC   D2A20236  27.045  18.226   8.396
 1326POPC   C3A20237  27.003  18.219   7.946
 1326POPC   C4A20238  27.154  18.406   7.569
 1326POPC   C1B20239  26.587  18.382   8.677
 1326POPC   C2B20240  26.617  18.503   8.262
 1326POPC   C3B20241  26.518  18.351   7.867
 1326POPC   C4B20242  26.401  17.949   7.657
 1327POPC   NC320243  27.333  19.005   9.390
 1327POPC   PO420244  27.978  18.852   9.523
 1327POPC   GL120245  27.816  19.069   9.095
 1327POPC   GL220246  27.983  19.358   9.037
 1327POPC   C1A20247  27.630  19.218   8.630
 1327POPC   D2A20248  27.334  19.035   8.336
 1327POPC   C3A20249  27.208  19.174   7.930
 1327POPC   C4A20250  27.206  18.907   7.555
 1327POPC   C1B20251  28.128  19.126   8.644
 1327POPC   C2B20252  27.870  18.943   8.263
 1327POPC   C3B20253  27.646  18.880   7.864
 1327POPC   C4B20254  27.637  19.139   7.496
 1328POPC   NC320255   4.550   8.624   9.569
 1328POPC   PO420256   3.950   8.878   9.280
 1328POPC   GL120257   4.180   8.757   8.991
 1328POPC   GL220258   4.552   8.806   9.098
 1328POPC   C1A20259   4.242   9.041   8.699
 1328POPC   D2A20260   4.417   9.221   8.388
 1328POPC   C3A20261   4.194   9.082   8.044
 1328POPC   C4A20262   4.314   8.993   7.671
 1328POPC   C1B20263   4.570   8.572   8.736
 1328POPC   C2B20264   4.370   8.688   8.335
 1328POPC   C3B20265   4.430   8.552   7.904
 1328POPC   C4B20266   4.756   8.744   7.623
 1329POPC   NC320267  37.570  29.865   9.518
 1329POPC   PO420268  38.149  29.977   9.339
 1329POPC   GL120269  37.817  29.784   9.081
 1329POPC   GL220270  37.419  29.856   9.042
 1329POPC   C1A20271  37.788  29.926   8.674
 1329POPC   D2A20272  37.748  29.770   8.288
 1329POPC   C3A20273  37.931  29.852   7.909
 1329POPC   C4A20274  37.668  29.577   7.662
 1329POPC   C1B20275  37.413  30.263   8.787
 1329POPC   C2B20276  37.555  30.264   8.335
 1329POPC   C3B20277  37.453  30.001   7.927
 1329POPC   C4B20278  37.407  30.065   7.467
 1330POPC   NC320279   4.676   3.831   9.633
 1330POPC   PO420280   4.032   3.546   9.667
 1330POPC   GL120281   4.207   3.622   9.238
 1330POPC   GL220282   4.487   3.860   9.086
 1330POPC   C1A20283   4.222   3.496   8.810
 1330POPC   D2A20284   4.408   3.615   8.411
 1330POPC   C3A20285   4.244   3.433   8.028
 1330POPC   C4A20286   4.586   3.274   7.772
 1330POPC   C1B20287   4.209   4.009   8.694
 1330POPC   C2B20288   4.041   3.978   8.258
 1330POPC   C3B20289   4.091   3.911   7.810
 1330POPC   C4B20290   4.275   3.593   7.534
 1331POPC   NC320291   2.684  35.852   9.451
 1331POPC   PO420292   2.972  36.535   9.512
 1331POPC   GL120293   2.893  36.254   9.175
 1331POPC   GL220294   3.075  35.934   9.151
 1331POPC   C1A20295   2.692  36.263   8.775
 1331POPC   D2A20296   2.748  36.457   8.377
 1331POPC   C3A20297   2.668  36.263   7.961
 1331POPC   C4A20298   2.518  35.999   7.597
 1331POPC   C1B20299   3.020  35.855   8.676
 1331POPC   C2B20300   3.024  35.991   8.221
 1331POPC   C3B20301   3.000  35.931   7.764
 1331POPC   C4B20302   2.970  35.902   7.283
 1332POPC   NC320303  21.148  28.497   9.464
 1332POPC   PO420304  21.800  28.298   9.365
 1332POPC   GL120305  21.412  28.201   9.131
 1332POPC   GL220306  21.112  28.004   9.257
 1332POPC   C1A20307  21.210  28.483   8.819
 1332POPC   D2A20308  21.428  28.753   8.506
 1332POPC   C3A20309  21.442  28.462   8.176
 1332POPC   C4A20310  21.390  28.415   7.761
 1332POPC   C1B20311  21.117  27.960   8.799
 1332POPC   C2B20312  21.048  28.213   8.412
 1332POPC   C3B20313  21.112  28.055   8.001
 1332POPC   C4B20314  21.343  27.918   7.610
 1333POPC   NC320315  21.780  11.115   9.435
 1333POPC   PO420316  22.379  11.354   9.650
 1333POPC   GL120317  22.356  11.224   9.211
 1333POPC   GL220318  22.362  11.574   9.176
 1333POPC   C1A20319  22.242  11.029   8.777
 1333POPC   D2A20320  21.916  10.852   8.486
 1333POPC   C3A20321  21.975  11.001   8.062
 1333POPC   C4A20322  22.276  10.882   7.732
 1333POPC   C1B20323  22.182  11.554   8.800
 1333POPC   C2B20324  22.336  11.439   8.427
 1333POPC   C3B20325  22.396  11.294   8.047
 1333POPC   C4B20326  22.227  11.399   7.683
 1334POPC   NC320327   9.487  36.995   9.438
 1334POPC   PO420328   8.885  36.799   9.422
 1334POPC   GL120329   8.903  37.084   9.088
 1334POPC   GL220330   9.061  36.841   8.904
 1334POPC   C1A20331   8.706  37.116   8.656
 1334POPC   D2A20332   8.529  37.146   8.208
 1334POPC   C3A20333   8.895  37.090   7.908
 1334POPC   C4A20334   8.932  36.834   7.514
 1334POPC   C1B20335   9.225  37.210   8.665
 1334POPC   C2B20336   9.405  37.233   8.234
 1334POPC   C3B20337   9.408  37.072   7.796
 1334POPC   C4B20338   9.474  36.714   7.561
 1335POPC   NC320339  39.410  21.407   9.367
 1335POPC   PO420340  38.777  21.689   9.441
 1335POPC   GL120341  39.003  21.487   9.082
 1335POPC   GL220342  39.340  21.647   8.933
 1335POPC   C1A20343  39.044  21.337   8.672
 1335POPC   D2A20344  38.861  21.457   8.310
 1335POPC   C3A20345  39.171  21.500   7.971
 1335POPC   C4A20346  39.034  21.404   7.547
 1335POPC   C1B20347  39.578  21.265   8.747
 1335POPC   C2B20348  39.809  21.069   8.408
 1335POPC   C3B20349  39.741  20.926   8.000
 1335POPC   C4B20350  39.407  21.104   7.738
 1336POPC   NC320351  44.434  42.423  10.021
 1336POPC   PO420352  44.713  42.241   9.419
 1336POPC   GL120353  44.534  42.274   9.018
 1336POPC   GL220354  44.345  42.577   9.000
 1336POPC   C1A20355  44.631  42.268   8.592
 1336POPC   D2A20356   0.046  42.326   8.394
 1336POPC   C3A20357   0.059  42.046   8.059
 1336POPC   C4A20358  44.744  42.031   7.752
 1336POPC   C1B20359  44.176  42.557   8.636
 1336POPC   C2B20360  44.256  42.451   8.256
 1336POPC   C3B20361  44.495  42.472   7.911
 1336POPC   C4B20362  44.934  42.520   7.874
 1337POPC   NC320363  35.308   6.759   9.410
 1337POPC   PO420364  35.135   6.056   9.491
 1337POPC   GL120365  35.338   6.320   9.157
 1337POPC   GL220366  35.639   6.265   8.951
 1337POPC   C1A20367  35.352   6.654   8.787
 1337POPC   D2A20368  35.201   6.712   8.383
 1337POPC   C3A20369  35.424   6.914   8.057
 1337POPC   C4A20370  35.559   6.657   7.732
 1337POPC   C1B20371  35.192   6.181   8.723
 1337POPC   C2B20372  35.020   6.235   8.332
 1337POPC   C3B20373  35.209   6.371   7.971
 1337POPC   C4B20374  35.049   6.343   7.588
 1338POPC   NC320375  28.445  39.701   9.523
 1338POPC   PO420376  28.108  40.273   9.407
 1338POPC   GL120377  28.229  39.989   9.123
 1338POPC   GL220378  28.565  39.927   9.083
 1338POPC   C1A20379  28.214  39.845   8.722
 1338POPC   D2A20380  28.366  40.049   8.388
 1338POPC   C3A20381  28.201  39.894   8.014
 1338POPC   C4A20382  28.163  40.043   7.597
 1338POPC   C1B20383  28.603  40.316   8.812
 1338POPC   C2B20384  28.665  40.462   8.368
 1338POPC   C3B20385  28.745  40.489   7.926
 1338POPC   C4B20386  28.628  40.213   7.547
 1339POPC   NC320387  10.678  44.085   9.524
 1339POPC   PO420388  10.400  43.529   9.599
 1339POPC   GL120389  10.373  43.781   9.221
 1339POPC   GL220390  10.270  44.094   9.218
 1339POPC   C1A20391  10.565  43.775   8.803
 1339POPC   D2A20392  10.757  43.593   8.412
 1339POPC   C3A20393  10.667  43.833   8.018
 1339POPC   C4A20394  10.867  44.039   7.642
 1339POPC   C1B20395  10.504  44.273   8.854
 1339POPC   C2B20396  10.487  44.150   8.402
 1339POPC   C3B20397  10.370  44.359   8.013
 1339POPC   C4B20398  10.427  44.276   7.578
 1340POPC   NC320399  27.169  44.230   9.450
 1340POPC   PO420400  26.613  44.670   9.535
 1340POPC   GL120401  26.778  44.446   9.208
 1340POPC   GL220402  26.596  44.143   9.300
 1340POPC   C1A20403  27.009  44.564   8.822
 1340POPC   D2A20404  26.929  44.759   8.428
 1340POPC   C3A20405  27.023  44.658   7.999
 1340POPC   C4A20406  26.783  44.689   7.596
 1340POPC   C1B20407  26.614  44.161   8.828
 1340POPC   C2B20408  26.672  44.325   8.425
 1340POPC   C3B20409  26.620  44.151   8.033
 1340POPC   C4B20410  26.547  44.234   7.628
 1341POPC   NC320411  20.439   1.323   9.456
 1341POPC   PO420412  21.038   1.533   9.284
 1341POPC   GL120413  20.812   1.234   9.051
 1341POPC   GL220414  20.416   1.171   8.986
 1341POPC   C1A20415  20.713   1.269   8.616
 1341POPC   D2A20416  20.485   1.463   8.308
 1341POPC   C3A20417  20.558   1.245   7.951
 1341POPC   C4A20418  20.837   1.145   7.637
 1341POPC   C1B20419  20.229   0.840   8.695
 1341POPC   C2B20420  20.257   0.600   8.298
 1341POPC   C3B20421  20.375   0.760   7.939
 1341POPC   C4B20422  20.395   0.905   7.554
 1342POPC   NC320423  43.242  12.237   9.564
 1342POPC   PO420424  42.817  11.777   9.380
 1342POPC   GL120425  43.159  12.011   9.116
 1342POPC   GL220426  43.488  12.231   9.136
 1342POPC   C1A20427  43.169  12.318   8.759
 1342POPC   D2A20428  43.228  12.277   8.334
 1342POPC   C3A20429  43.122  11.916   8.135
 1342POPC   C4A20430  42.965  12.046   7.781
 1342POPC   C1B20431  43.535  11.941   8.787
 1342POPC   C2B20432  43.628  11.916   8.341
 1342POPC   C3B20433  43.536  12.088   7.891
 1342POPC   C4B20434  43.541  12.013   7.408
 1343POPC   NC320435   5.383   7.782   9.456
 1343POPC   PO420436   4.891   8.306   9.498
 1343POPC   GL120437   5.012   8.434   9.106
 1343POPC   GL220438   5.205   8.126   9.114
 1343POPC   C1A20439   5.007   8.287   8.674
 1343POPC   D2A20440   4.877   8.090   8.301
 1343POPC   C3A20441   4.911   8.365   7.933
 1343POPC   C4A20442   4.758   8.265   7.500
 1343POPC   C1B20443   5.432   7.995   8.769
 1343POPC   C2B20444   5.418   8.087   8.358
 1343POPC   C3B20445   5.583   7.938   7.999
 1343POPC   C4B20446   5.562   8.035   7.557
 1344POPC   NC320447  26.588   2.431   9.399
 1344POPC   PO420448  27.202   2.795   9.473
 1344POPC   GL120449  26.959   2.711   9.104
 1344POPC   GL220450  26.731   2.953   9.135
 1344POPC   C1A20451  26.975   2.989   8.694
 1344POPC   D2A20452  26.921   3.142   8.269
 1344POPC   C3A20453  26.989   2.853   7.904
 1344POPC   C4A20454  26.714   2.508   7.841
 1344POPC   C1B20455  26.493   2.824   8.763
 1344POPC   C2B20456  26.428   2.968   8.298
 1344POPC   C3B20457  26.338   2.846   7.844
 1344POPC   C4B20458  26.625   2.883   7.480
 1345POPC   NC320459  10.399  23.578   9.676
 1345POPC   PO420460  10.877  24.016   9.561
 1345POPC   GL120461  10.618  23.799   9.229
 1345POPC   GL220462  10.733  23.444   9.250
 1345POPC   C1A20463  10.393  23.686   8.802
 1345POPC   D2A20464  10.453  23.490   8.359
 1345POPC   C3A20465  10.296  23.607   7.905
 1345POPC   C4A20466  10.207  23.914   7.557
 1345POPC   C1B20467  10.889  23.541   8.833
 1345POPC   C2B20468  10.877  23.784   8.447
 1345POPC   C3B20469  10.856  23.578   8.035
 1345POPC   C4B20470  10.992  23.542   7.585
 1346POPC   NC320471   6.078  21.362   9.528
 1346POPC   PO420472   5.515  21.745   9.472
 1346POPC   GL120473   5.623  21.652   9.065
 1346POPC   GL220474   5.785  21.355   9.063
 1346POPC   C1A20475   5.830  21.686   8.666
 1346POPC   D2A20476   6.205  21.788   8.438
 1346POPC   C3A20477   6.001  21.783   8.058
 1346POPC   C4A20478   5.661  21.560   7.915
 1346POPC   C1B20479   5.570  21.234   8.664
 1346POPC   C2B20480   5.652  21.155   8.216
 1346POPC   C3B20481   6.047  21.270   7.976
 1346POPC   C4B20482   6.229  21.152   7.593
 1347POPC   NC320483  43.422  42.457   9.529
 1347POPC   PO420484  42.755  42.172   9.474
 1347POPC   GL120485  43.036  42.281   9.136
 1347POPC   GL220486  43.307  42.491   9.060
 1347POPC   C1A20487  42.947  42.495   8.723
 1347POPC   D2A20488  42.860  42.306   8.339
 1347POPC   C3A20489  43.073  42.494   8.010
 1347POPC   C4A20490  43.457  42.646   7.853
 1347POPC   C1B20491  43.361  42.162   8.764
 1347POPC   C2B20492  43.403  42.290   8.354
 1347POPC   C3B20493  43.635  42.184   7.967
 1347POPC   C4B20494  43.723  42.304   7.529
 1348POPC   NC320495   0.003   6.813   9.521
 1348POPC   PO420496  44.677   7.422   9.583
 1348POPC   GL120497  44.736   7.516   9.189
 1348POPC   GL220498  44.733   7.185   9.117
 1348POPC   C1A20499  44.595   7.686   8.818
 1348POPC   D2A20500  44.756   7.829   8.446
 1348POPC   C3A20501  44.649   7.638   8.091
 1348POPC   C4A20502  44.782   7.774   7.704
 1348POPC   C1B20503  44.926   7.302   8.722
 1348POPC   C2B20504  44.896   7.169   8.292
 1348POPC   C3B20505  44.823   7.187   7.845
 1348POPC   C4B20506   0.014   6.966   7.481
 1349POPC   NC320507  35.635  27.453   9.588
 1349POPC   PO420508  35.220  27.218   9.340
 1349POPC   GL120509  35.538  27.409   9.056
 1349POPC   GL220510  35.581  27.762   9.121
 1349POPC   C1A20511  35.472  27.451   8.597
 1349POPC   D2A20512  35.111  27.659   8.369
 1349POPC   C3A20513  35.125  27.544   7.947
 1349POPC   C4A20514  35.521  27.427   7.816
 1349POPC   C1B20515  35.595  27.927   8.663
 1349POPC   C2B20516  35.569  27.820   8.191
 1349POPC   C3B20517  35.803  27.896   7.801
 1349POPC   C4B20518  35.860  28.244   7.500
 1350POPC   NC320519  17.538  29.655   9.554
 1350POPC   PO420520  17.706  30.211   9.828
 1350POPC   GL120521  17.462  30.049   9.271
 1350POPC   GL220522  17.300  29.687   9.107
 1350POPC   C1A20523  17.690  29.862   8.856
 1350POPC   D2A20524  17.881  29.729   8.491
 1350POPC   C3A20525  17.653  29.834   8.138
 1350POPC   C4A20526  17.616  29.791   7.702
 1350POPC   C1B20527  17.205  29.966   8.775
 1350POPC   C2B20528  17.027  29.859   8.399
 1350POPC   C3B20529  17.165  29.820   7.978
 1350POPC   C4B20530  17.286  30.213   7.719
 1351POPC   NC320531  17.407  19.191   9.454
 1351POPC   PO420532  17.740  18.580   9.421
 1351POPC   GL120533  17.537  18.816   9.100
 1351POPC   GL220534  17.745  19.111   9.078
 1351POPC   C1A20535  17.357  19.026   8.727
 1351POPC   D2A20536  17.436  19.272   8.340
 1351POPC   C3A20537  17.302  19.089   7.979
 1351POPC   C4A20538  17.297  18.700   7.830
 1351POPC   C1B20539  17.812  19.296   8.694
 1351POPC   C2B20540  17.953  19.353   8.261
 1351POPC   C3B20541  17.755  19.348   7.855
 1351POPC   C4B20542  17.667  19.001   7.592
 1352POPC   NC320543  19.040   6.120   9.561
 1352POPC   PO420544  18.703   5.607   9.273
 1352POPC   GL120545  18.864   5.828   9.005
 1352POPC   GL220546  19.163   5.909   9.121
 1352POPC   C1A20547  18.874   6.030   8.641
 1352POPC   D2A20548  18.892   6.002   8.212
 1352POPC   C3A20549  18.898   5.644   7.972
 1352POPC   C4A20550  18.923   5.671   7.555
 1352POPC   C1B20551  19.371   6.061   8.735
 1352POPC   C2B20552  19.402   6.039   8.288
 1352POPC   C3B20553  19.391   5.808   7.900
 1352POPC   C4B20554  19.441   5.896   7.452
 1353POPC   NC320555  30.939  32.714   9.794
 1353POPC   PO420556  30.430  32.891   9.394
 1353POPC   GL120557  30.718  33.003   9.112
 1353POPC   GL220558  30.772  33.350   9.209
 1353POPC   C1A20559  30.665  32.864   8.701
 1353POPC   D2A20560  30.788  32.928   8.316
 1353POPC   C3A20561  30.511  32.795   8.011
 1353POPC   C4A20562  30.430  33.102   7.741
 1353POPC   C1B20563  30.747  33.386   8.755
 1353POPC   C2B20564  31.009  33.400   8.406
 1353POPC   C3B20565  30.908  33.290   7.995
 1353POPC   C4B20566  30.917  33.007   7.660
 1354POPC   NC320567  31.563   7.866   9.505
 1354POPC   PO420568  31.330   8.504   9.394
 1354POPC   GL120569  31.609   8.274   9.116
 1354POPC   GL220570  31.858   7.976   9.092
 1354POPC   C1A20571  31.435   8.379   8.744
 1354POPC   D2A20572  31.186   8.171   8.466
 1354POPC   C3A20573  31.353   8.178   8.050
 1354POPC   C4A20574  31.294   8.290   7.623
 1354POPC   C1B20575  31.939   8.190   8.701
 1354POPC   C2B20576  31.907   8.101   8.264
 1354POPC   C3B20577  31.834   8.267   7.841
 1354POPC   C4B20578  31.797   8.198   7.390
 1355POPC   NC320579   7.311   5.308   9.420
 1355POPC   PO420580   7.638   4.754   9.608
 1355POPC   GL120581   7.669   4.995   9.180
 1355POPC   GL220582   7.812   4.758   8.921
 1355POPC   C1A20583   7.471   5.321   8.808
 1355POPC   D2A20584   7.248   5.510   8.464
 1355POPC   C3A20585   7.384   5.389   8.088
 1355POPC   C4A20586   7.155   5.312   7.748
 1355POPC   C1B20587   7.369   4.832   8.799
 1355POPC   C2B20588   7.173   4.965   8.384
 1355POPC   C3B20589   7.345   4.873   7.994
 1355POPC   C4B20590   7.205   4.843   7.601
 1356POPC   NC320591   1.042   7.521   9.557
 1356POPC   PO420592   1.423   7.009   9.711
 1356POPC   GL120593   1.402   7.366   9.238
 1356POPC   GL220594   1.176   7.658   9.088
 1356POPC   C1A20595   1.353   7.332   8.746
 1356POPC   D2A20596   1.219   7.200   8.332
 1356POPC   C3A20597   1.130   7.472   7.994
 1356POPC   C4A20598   1.341   7.519   7.602
 1356POPC   C1B20599   1.516   7.816   8.810
 1356POPC   C2B20600   1.653   7.653   8.423
 1356POPC   C3B20601   1.607   7.628   8.031
 1356POPC   C4B20602   1.550   7.950   7.764
 1357POPC   NC320603  24.292  17.402   9.522
 1357POPC   PO420604  24.939  17.691   9.533
 1357POPC   GL120605  24.662  17.510   9.221
 1357POPC   GL220606  24.409  17.744   9.087
 1357POPC   C1A20607  24.433  17.301   8.854
 1357POPC   D2A20608  24.427  17.470   8.419
 1357POPC   C3A20609  24.585  17.250   8.064
 1357POPC   C4A20610  24.559  17.383   7.606
 1357POPC   C1B20611  24.148  17.789   8.697
 1357POPC   C2B20612  24.063  17.823   8.264
 1357POPC   C3B20613  24.199  17.584   7.937
 1357POPC   C4B20614  24.153  17.663   7.519
 1358POPC   NC320615  22.384  18.121   9.641
 1358POPC   PO420616  21.952  18.418   9.259
 1358POPC   GL120617  22.191  18.088   9.139
 1358POPC   GL220618  22.457  18.340   9.165
 1358POPC   C1A20619  22.144  18.007   8.701
 1358POPC   D2A20620  21.871  18.226   8.436
 1358POPC   C3A20621  21.943  18.171   8.017
 1358POPC   C4A20622  21.926  18.587   7.871
 1358POPC   C1B20623  22.467  18.405   8.707
 1358POPC   C2B20624  22.348  18.464   8.244
 1358POPC   C3B20625  22.416  18.228   7.845
 1358POPC   C4B20626  22.497  17.997   7.462
 1359POPC   NC320627   1.158  38.725   9.351
 1359POPC   PO420628   0.827  38.213   9.394
 1359POPC   GL120629   1.097  38.146   9.080
 1359POPC   GL220630   1.416  38.162   9.279
 1359POPC   C1A20631   1.045  38.344   8.674
 1359POPC   D2A20632   0.844  38.694   8.431
 1359POPC   C3A20633   0.904  38.620   8.025
 1359POPC   C4A20634   1.082  38.331   7.731
 1359POPC   C1B20635   1.558  38.083   8.869
 1359POPC   C2B20636   1.510  38.260   8.485
 1359POPC   C3B20637   1.459  38.245   8.052
 1359POPC   C4B20638   1.576  38.420   7.652
 1360POPC   NC320639  39.794   5.415   9.441
 1360POPC   PO420640  39.934   4.839   9.447
 1360POPC   GL120641  40.075   5.104   9.082
 1360POPC   GL220642  40.140   5.454   9.039
 1360POPC   C1A20643  40.140   5.172   8.611
 1360POPC   D2A20644  40.175   5.062   8.154
 1360POPC   C3A20645  39.907   5.290   7.816
 1360POPC   C4A20646  39.496   5.183   7.624
 1360POPC   C1B20647  40.514   5.516   8.763
 1360POPC   C2B20648  40.380   5.543   8.336
 1360POPC   C3B20649  40.384   5.428   7.885
 1360POPC   C4B20650  40.334   5.388   7.416
 1361POPC   NC320651  32.752  32.282   9.537
 1361POPC   PO420652  32.132  31.983   9.603
 1361POPC   GL120653  32.246  32.276   9.239
 1361POPC   GL220654  32.486  32.574   9.218
 1361POPC   C1A20655  32.099  32.400   8.836
 1361POPC   D2A20656  31.870  32.187   8.500
 1361POPC   C3A20657  32.102  32.249   8.129
 1361POPC   C4A20658  32.158  32.293   7.698
 1361POPC   C1B20659  32.613  32.323   8.860
 1361POPC   C2B20660  32.453  32.442   8.469
 1361POPC   C3B20661  32.600  32.449   8.079
 1361POPC   C4B20662  32.660  32.247   7.748
 1362POPC   NC320663   6.294  36.033   9.584
 1362POPC   PO420664   6.856  36.102   9.341
 1362POPC   GL120665   6.628  36.416   9.090
 1362POPC   GL220666   6.276  36.412   9.136
 1362POPC   C1A20667   6.550  36.419   8.666
 1362POPC   D2A20668   6.747  36.183   8.355
 1362POPC   C3A20669   6.478  36.063   8.056
 1362POPC   C4A20670   6.720  36.022   7.736
 1362POPC   C1B20671   6.375  35.996   8.917
 1362POPC   C2B20672   6.396  35.772   8.513
 1362POPC   C3B20673   6.258  35.600   8.098
 1362POPC   C4B20674   6.384  35.661   7.688
 1363POPC   NC320675  37.629  38.197   9.421
 1363POPC   PO420676  37.452  38.876   9.475
 1363POPC   GL120677  37.599  38.646   9.105
 1363POPC   GL220678  37.399  38.379   9.016
 1363POPC   C1A20679  37.720  38.513   8.674
 1363POPC   D2A20680  37.414  38.517   8.336
 1363POPC   C3A20681  37.647  38.481   7.970
 1363POPC   C4A20682  37.942  38.671   7.740
 1363POPC   C1B20683  37.400  38.096   8.692
 1363POPC   C2B20684  37.639  38.061   8.308
 1363POPC   C3B20685  37.486  38.009   7.885
 1363POPC   C4B20686  37.688  38.262   7.507
 1364POPC   NC320687  44.502   7.867   9.517
 1364POPC   PO420688   0.036   8.323   9.452
 1364POPC   GL120689  44.843   8.387   9.078
 1364POPC   GL220690  44.578   8.132   9.091
 1364POPC   C1A20691  44.713   8.317   8.653
 1364POPC   D2A20692  44.454   8.253   8.338
 1364POPC   C3A20693  44.672   8.149   8.043
 1364POPC   C4A20694  44.581   8.372   7.740
 1364POPC   C1B20695  44.243   8.051   8.762
 1364POPC   C2B20696  44.164   7.839   8.323
 1364POPC   C3B20697  44.277   7.900   7.841
 1364POPC   C4B20698  44.357   7.718   7.403
 1365POPC   NC320699  31.154  24.972   9.518
 1365POPC   PO420700  31.572  25.546   9.433
 1365POPC   GL120701  31.688  25.284   9.080
 1365POPC   GL220702  31.393  25.146   9.094
 1365POPC   C1A20703  31.690  25.251   8.621
 1365POPC   D2A20704  31.364  25.454   8.352
 1365POPC   C3A20705  31.433  25.440   7.915
 1365POPC   C4A20706  31.606  25.246   7.508
 1365POPC   C1B20707  31.328  24.915   8.715
 1365POPC   C2B20708  31.429  24.965   8.264
 1365POPC   C3B20709  31.362  24.946   7.841
 1365POPC   C4B20710  30.987  24.785   7.670
 1366POPC   NC320711   6.773  31.821   9.436
 1366POPC   PO420712   6.580  32.390   9.678
 1366POPC   GL120713   6.556  32.288   9.232
 1366POPC   GL220714   6.484  32.558   9.026
 1366POPC   C1A20715   6.633  32.057   8.846
 1366POPC   D2A20716   6.960  32.091   8.549
 1366POPC   C3A20717   6.800  32.259   8.147
 1366POPC   C4A20718   6.909  32.073   7.746
 1366POPC   C1B20719   6.311  32.407   8.648
 1366POPC   C2B20720   6.233  32.282   8.239
 1366POPC   C3B20721   6.308  32.524   7.895
 1366POPC   C4B20722   6.667  32.519   7.686
 1367POPC   NC320723  22.635  42.659   9.307
 1367POPC   PO420724  23.026  42.178   9.466
 1367POPC   GL120725  22.969  42.328   9.039
 1367POPC   GL220726  22.627  42.289   8.937
 1367POPC   C1A20727  22.987  42.325   8.561
 1367POPC   D2A20728  22.693  42.129   8.397
 1367POPC   C3A20729  22.770  42.222   8.054
 1367POPC   C4A20730  22.964  42.296   7.699
 1367POPC   C1B20731  22.703  42.708   8.686
 1367POPC   C2B20732  22.590  42.800   8.280
 1367POPC   C3B20733  22.639  42.673   7.867
 1367POPC   C4B20734  22.434  42.293   7.694
 1368POPC   NC320735  15.426  32.561   9.392
 1368POPC   PO420736  15.297  33.271   9.492
 1368POPC   GL120737  15.400  33.024   9.129
 1368POPC   GL220738  15.116  32.793   9.053
 1368POPC   C1A20739  15.433  32.936   8.672
 1368POPC   D2A20740  15.531  33.130   8.259
 1368POPC   C3A20741  15.349  32.968   7.883
 1368POPC   C4A20742  14.998  33.179   7.819
 1368POPC   C1B20743  14.785  32.839   8.700
 1368POPC   C2B20744  14.701  32.947   8.254
 1368POPC   C3B20745  14.723  32.718   7.887
 1368POPC   C4B20746  14.789  32.831   7.488
 1369POPC   NC320747   6.460  38.706   9.345
 1369POPC   PO420748   6.813  38.320   9.669
 1369POPC   GL120749   6.677  38.262   9.203
 1369POPC   GL220750   6.982  38.145   9.125
 1369POPC   C1A20751   6.424  38.337   8.784
 1369POPC   D2A20752   6.525  38.571   8.393
 1369POPC   C3A20753   6.377  38.476   7.961
 1369POPC   C4A20754   6.256  38.635   7.505
 1369POPC   C1B20755   6.943  38.414   8.780
 1369POPC   C2B20756   7.019  38.389   8.356
 1369POPC   C3B20757   6.966  38.384   7.916
 1369POPC   C4B20758   6.687  38.420   7.558
 1370POPC   NC320759  23.640  27.312   9.686
 1370POPC   PO420760  24.058  27.711   9.393
 1370POPC   GL120761  23.889  27.412   9.177
 1370POPC   GL220762  23.545  27.451   9.205
 1370POPC   C1A20763  24.030  27.452   8.763
 1370POPC   D2A20764  23.878  27.681   8.426
 1370POPC   C3A20765  23.991  27.418   8.111
 1370POPC   C4A20766  23.923  27.473   7.684
 1370POPC   C1B20767  23.520  27.635   8.818
 1370POPC   C2B20768  23.418  27.474   8.413
 1370POPC   C3B20769  23.532  27.611   8.012
 1370POPC   C4B20770  23.409  27.530   7.612
 1371POPC   NC320771  22.281   4.153   9.524
 1371POPC   PO420772  21.730   4.460   9.418
 1371POPC   GL120773  22.064   4.416   9.149
 1371POPC   GL220774  21.981   4.041   9.110
 1371POPC   C1A20775  22.412   4.607   8.866
 1371POPC   D2A20776  22.697   4.506   8.517
 1371POPC   C3A20777  22.503   4.543   8.136
 1371POPC   C4A20778  22.196   4.339   7.901
 1371POPC   C1B20779  22.163   4.193   8.720
 1371POPC   C2B20780  22.340   4.110   8.357
 1371POPC   C3B20781  22.207   3.862   8.018
 1371POPC   C4B20782  21.985   3.888   7.651
 1372POPC   NC320783  40.924  26.471   9.327
 1372POPC   PO420784  40.594  26.931   9.608
 1372POPC   GL120785  40.664  26.882   9.133
 1372POPC   GL220786  40.679  26.548   8.900
 1372POPC   C1A20787  40.797  27.025   8.718
 1372POPC   D2A20788  40.967  26.912   8.334
 1372POPC   C3A20789  40.753  26.753   7.983
 1372POPC   C4A20790  40.658  26.801   7.546
 1372POPC   C1B20791  41.113  26.571   8.734
 1372POPC   C2B20792  41.382  26.525   8.395
 1372POPC   C3B20793  41.228  26.567   8.009
 1372POPC   C4B20794  41.124  26.643   7.600
 1373POPC   NC320795   8.788  33.328   9.417
 1373POPC   PO420796   9.221  32.842   9.525
 1373POPC   GL120797   9.084  32.992   9.134
 1373POPC   GL220798   9.230  33.300   9.046
 1373POPC   C1A20799   8.905  33.028   8.696
 1373POPC   D2A20800   8.902  33.334   8.350
 1373POPC   C3A20801   8.808  33.274   7.912
 1373POPC   C4A20802   8.761  32.921   7.607
 1373POPC   C1B20803   9.408  32.989   8.753
 1373POPC   C2B20804   9.311  32.949   8.330
 1373POPC   C3B20805   9.143  32.891   7.937
 1373POPC   C4B20806   9.314  32.698   7.585
 1374POPC   NC320807  36.678  13.349   9.357
 1374POPC   PO420808  37.103  13.870   9.482
 1374POPC   GL120809  37.001  13.718   9.101
 1374POPC   GL220810  36.627  13.703   9.005
 1374POPC   C1A20811  36.958  13.925   8.704
 1374POPC   D2A20812  36.649  13.728   8.444
 1374POPC   C3A20813  36.791  13.780   8.068
 1374POPC   C4A20814  36.778  13.677   7.676
 1374POPC   C1B20815  36.419  13.370   8.752
 1374POPC   C2B20816  36.273  13.349   8.356
 1374POPC   C3B20817  36.525  13.350   8.009
 1374POPC   C4B20818  36.427  13.312   7.621
 1375POPC   NC320819  22.236  22.267   9.611
 1375POPC   PO420820  22.202  21.851   9.069
 1375POPC   GL120821  22.090  22.306   9.064
 1375POPC   GL220822  22.362  22.495   8.913
 1375POPC   C1A20823  21.905  22.468   8.680
 1375POPC   D2A20824  21.773  22.223   8.294
 1375POPC   C3A20825  21.911  22.374   7.896
 1375POPC   C4A20826  22.139  22.170   7.535
 1375POPC   C1B20827  22.349  22.245   8.566
 1375POPC   C2B20828  22.240  21.880   8.371
 1375POPC   C3B20829  22.251  21.946   7.965
 1375POPC   C4B20830  22.482  21.792   7.641
 1376POPC   NC320831  34.656   6.285   9.611
 1376POPC   PO420832  34.941   6.862   9.677
 1376POPC   GL120833  34.739   6.742   9.271
 1376POPC   GL220834  34.904   6.538   9.086
 1376POPC   C1A20835  34.427   6.621   8.939
 1376POPC   D2A20836  34.262   6.495   8.532
 1376POPC   C3A20837  34.297   6.730   8.152
 1376POPC   C4A20838  34.427   6.718   7.709
 1376POPC   C1B20839  34.867   6.887   8.776
 1376POPC   C2B20840  34.758   6.957   8.341
 1376POPC   C3B20841  34.792   6.646   8.066
 1376POPC   C4B20842  35.008   6.803   7.761
 1377POPC   NC320843  19.989  38.094   9.412
 1377POPC   PO420844  19.538  37.633   9.584
 1377POPC   GL120845  19.701  37.747   9.151
 1377POPC   GL220846  19.615  38.093   9.026
 1377POPC   C1A20847  19.813  37.802   8.670
 1377POPC   D2A20848  20.036  37.792   8.234
 1377POPC   C3A20849  20.042  37.518   7.835
 1377POPC   C4A20850  20.264  37.544   7.403
 1377POPC   C1B20851  19.276  37.829   8.907
 1377POPC   C2B20852  19.315  37.746   8.486
 1377POPC   C3B20853  19.538  37.816   8.138
 1377POPC   C4B20854  19.559  37.781   7.718
 1378POPC   NC320855  27.445  29.634   9.423
 1378POPC   PO420856  27.503  28.949   9.478
 1378POPC   GL120857  27.626  28.950   9.092
 1378POPC   GL220858  27.476  29.283   9.053
 1378POPC   C1A20859  27.466  28.944   8.684
 1378POPC   D2A20860  27.580  29.104   8.298
 1378POPC   C3A20861  27.344  28.931   7.974
 1378POPC   C4A20862  27.450  29.122   7.625
 1378POPC   C1B20863  27.761  29.410   8.714
 1378POPC   C2B20864  27.732  29.627   8.290
 1378POPC   C3B20865  27.653  29.560   7.841
 1378POPC   C4B20866  27.840  29.390   7.459
 1379POPC   NC320867  43.353   1.502   9.656
 1379POPC   PO420868  42.717   1.255   9.559
 1379POPC   GL120869  42.939   1.506   9.243
 1379POPC   GL220870  43.207   1.327   9.086
 1379POPC   C1A20871  42.917   1.598   8.790
 1379POPC   D2A20872  43.080   1.333   8.460
 1379POPC   C3A20873  43.061   1.481   8.022
 1379POPC   C4A20874  43.089   1.304   7.630
 1379POPC   C1B20875  43.017   0.967   8.838
 1379POPC   C2B20876  42.910   0.833   8.437
 1379POPC   C3B20877  43.040   0.979   8.059
 1379POPC   C4B20878  42.945   0.831   7.696
 1380POPC   NC320879   1.806  43.826   9.403
 1380POPC   PO420880   2.358  44.264   9.520
 1380POPC   GL120881   2.169  44.035   9.108
 1380POPC   GL220882   2.285  43.728   8.975
 1380POPC   C1A20883   2.048  44.014   8.629
 1380POPC   D2A20884   2.263  43.809   8.279
 1380POPC   C3A20885   1.988  43.828   7.929
 1380POPC   C4A20886   1.925  44.130   7.636
 1380POPC   C1B20887   1.869  43.552   8.797
 1380POPC   C2B20888   1.793  43.563   8.372
 1380POPC   C3B20889   2.075  43.354   8.112
 1380POPC   C4B20890   2.284  43.438   7.727
 1381POPC   NC320891  42.637  14.822   9.439
 1381POPC   PO420892  43.221  14.995   9.228
 1381POPC   GL120893  43.044  15.308   9.052
 1381POPC   GL220894  42.736  15.141   9.052
 1381POPC   C1A20895  43.001  15.449   8.642
 1381POPC   D2A20896  43.066  15.167   8.332
 1381POPC   C3A20897  43.317  15.285   8.032
 1381POPC   C4A20898  43.191  15.511   7.687
 1381POPC   C1B20899  42.622  15.106   8.618
 1381POPC   C2B20900  42.590  15.299   8.205
 1381POPC   C3B20901  42.724  15.026   7.887
 1381POPC   C4B20902  43.113  14.979   7.681
 1382POPC   NC320903   1.624   9.590   9.253
 1382POPC   PO420904   0.952   9.533   9.321
 1382POPC   GL120905   0.967   9.783   8.967
 1382POPC   GL220906   1.284   9.965   9.045
 1382POPC   C1A20907   1.120   9.549   8.617
 1382POPC   D2A20908   1.407   9.291   8.422
 1382POPC   C3A20909   1.501   9.621   8.170
 1382POPC   C4A20910   1.345   9.759   7.793
 1382POPC   C1B20911   1.403   9.970   8.614
 1382POPC   C2B20912   1.085   9.947   8.290
 1382POPC   C3B20913   0.971  10.072   7.881
 1382POPC   C4B20914   1.126  10.075   7.440
 1383POPC   NC320915   6.119   4.277   9.663
 1383POPC   PO420916   5.757   4.686   9.313
 1383POPC   GL120917   5.921   4.332   9.153
 1383POPC   GL220918   5.684   4.077   9.267
 1383POPC   C1A20919   6.021   4.381   8.710
 1383POPC   D2A20920   5.791   4.546   8.349
 1383POPC   C3A20921   5.957   4.396   7.977
 1383POPC   C4A20922   5.903   4.015   7.807
 1383POPC   C1B20923   5.713   3.958   8.829
 1383POPC   C2B20924   5.752   4.011   8.380
 1383POPC   C3B20925   5.459   4.194   8.107
 1383POPC   C4B20926   5.438   4.186   7.675
 1384POPC   NC320927  28.595  44.152   9.528
 1384POPC   PO420928  28.095  43.739   9.559
 1384POPC   GL120929  28.409  43.790   9.214
 1384POPC   GL220930  28.393  44.101   9.070
 1384POPC   C1A20931  28.339  43.703   8.766
 1384POPC   D2A20932  28.304  43.949   8.380
 1384POPC   C3A20933  28.319  43.762   8.035
 1384POPC   C4A20934  28.370  43.924   7.702
 1384POPC   C1B20935  28.724  43.995   8.744
 1384POPC   C2B20936  28.752  43.718   8.371
 1384POPC   C3B20937  28.808  43.903   7.969
 1384POPC   C4B20938  28.910  44.331   7.845
 1385POPC   NC320939  21.306   8.809   9.545
 1385POPC   PO420940  21.459   9.359   9.231
 1385POPC   GL120941  21.519   9.063   8.936
 1385POPC   GL220942  21.346   8.769   9.045
 1385POPC   C1A20943  21.294   9.006   8.581
 1385POPC   D2A20944  21.026   9.203   8.312
 1385POPC   C3A20945  21.320   9.421   8.041
 1385POPC   C4A20946  21.507   9.153   7.730
 1385POPC   C1B20947  21.099   8.559   8.723
 1385POPC   C2B20948  21.195   8.593   8.269
 1385POPC   C3B20949  21.197   8.750   7.848
 1385POPC   C4B20950  21.327   8.652   7.400
 1386POPC   NC320951   1.619  26.666   9.596
 1386POPC   PO420952   1.098  27.077   9.510
 1386POPC   GL120953   1.152  26.837   9.155
 1386POPC   GL220954   1.050  26.475   9.246
 1386POPC   C1A20955   1.425  26.919   8.802
 1386POPC   D2A20956   1.594  27.138   8.431
 1386POPC   C3A20957   1.388  27.091   8.029
 1386POPC   C4A20958   1.269  26.807   7.707
 1386POPC   C1B20959   1.172  26.464   8.820
 1386POPC   C2B20960   1.266  26.619   8.415
 1386POPC   C3B20961   1.147  26.424   8.033
 1386POPC   C4B20962   1.135  26.290   7.627
 1387POPC   NC320963  43.492  31.582   9.372
 1387POPC   PO420964  42.938  31.322   9.544
 1387POPC   GL120965  42.976  31.486   9.153
 1387POPC   GL220966  43.063  31.807   9.157
 1387POPC   C1A20967  43.247  31.476   8.765
 1387POPC   D2A20968  43.367  31.279   8.371
 1387POPC   C3A20969  43.139  31.284   7.951
 1387POPC   C4A20970  42.867  31.291   7.566
 1387POPC   C1B20971  43.303  31.987   8.831
 1387POPC   C2B20972  43.437  31.833   8.420
 1387POPC   C3B20973  43.270  31.805   8.010
 1387POPC   C4B20974  43.382  31.622   7.648
 1388POPC   NC320975  21.859   5.713   9.523
 1388POPC   PO420976  22.469   5.471   9.741
 1388POPC   GL120977  22.338   5.775   9.275
 1388POPC   GL220978  22.010   5.837   9.065
 1388POPC   C1A20979  22.375   6.016   8.802
 1388POPC   D2A20980  22.057   5.930   8.423
 1388POPC   C3A20981  22.167   6.043   7.980
 1388POPC   C4A20982  22.524   6.124   7.695
 1388POPC   C1B20983  22.169   5.545   8.738
 1388POPC   C2B20984  22.127   5.411   8.308
 1388POPC   C3B20985  22.122   5.526   7.870
 1388POPC   C4B20986  22.013   5.582   7.430
 1389POPC   NC320987  42.646  16.420   9.398
 1389POPC   PO420988  43.166  16.825   9.616
 1389POPC   GL120989  43.052  16.759   9.187
 1389POPC   GL220990  43.397  16.801   9.062
 1389POPC   C1A20991  43.075  16.401   8.891
 1389POPC   D2A20992  43.378  16.351   8.577
 1389POPC   C3A20993  43.159  16.506   8.225
 1389POPC   C4A20994  43.131  16.522   7.798
 1389POPC   C1B20995  43.222  16.835   8.659
 1389POPC   C2B20996  42.958  17.008   8.369
 1389POPC   C3B20997  43.137  17.010   7.975
 1389POPC   C4B20998  43.315  17.032   7.595
 1390POPC   NC320999  34.649  15.474   9.464
 1390POPC   PO421000  34.441  14.827   9.525
 1390POPC   GL121001  34.356  15.108   9.209
 1390POPC   GL221002  34.671  15.169   9.076
 1390POPC   C1A21003  34.267  15.229   8.783
 1390POPC   D2A21004  34.363  15.347   8.370
 1390POPC   C3A21005  34.243  15.060   8.044
 1390POPC   C4A21006  34.433  15.152   7.641
 1390POPC   C1B21007  34.772  15.360   8.697
 1390POPC   C2B21008  34.868  15.297   8.280
 1390POPC   C3B21009  34.796  15.431   7.874
 1390POPC   C4B21010  34.865  15.352   7.422
 1391POPC   NC321011  15.410  39.576   9.359
 1391POPC   PO421012  15.131  40.155   9.600
 1391POPC   GL121013  15.181  40.130   9.161
 1391POPC   GL221014  15.166  39.821   8.998
 1391POPC   C1A21015  15.028  40.210   8.717
 1391POPC   D2A21016  15.074  39.965   8.328
 1391POPC   C3A21017  14.940  40.106   7.905
 1391POPC   C4A21018  15.190  40.180   7.502
 1391POPC   C1B21019  15.090  39.532   8.672
 1391POPC   C2B21020  14.905  39.443   8.288
 1391POPC   C3B21021  15.156  39.600   7.960
 1391POPC   C4B21022  15.058  39.710   7.570
 1392POPC   NC321023  10.504  24.300   9.475
 1392POPC   PO421024  10.927  24.777   9.594
 1392POPC   GL121025  10.667  24.590   9.115
 1392POPC   GL221026  10.474  24.254   8.989
 1392POPC   C1A21027  10.427  24.663   8.684
 1392POPC   D2A21028  10.637  24.773   8.292
 1392POPC   C3A21029  10.427  24.795   7.910
 1392POPC   C4A21030  10.333  24.466   7.673
 1392POPC   C1B21031  10.438  24.157   8.571
 1392POPC   C2B21032  10.280  24.383   8.234
 1392POPC   C3B21033  10.373  24.091   7.995
 1392POPC   C4B21034  10.720  23.977   7.742
 1393POPC   NC321035  18.258   2.873   9.491
 1393POPC   PO421036  18.604   2.341   9.727
 1393POPC   GL121037  18.386   2.453   9.245
 1393POPC   GL221038  18.496   2.267   8.982
 1393POPC   C1A21039  18.184   2.720   8.818
 1393POPC   D2A21040  18.227   3.080   8.452
 1393POPC   C3A21041  18.110   3.002   8.017
 1393POPC   C4A21042  18.424   2.851   7.712
 1393POPC   C1B21043  18.449   2.351   8.547
 1393POPC   C2B21044  18.302   2.580   8.196
 1393POPC   C3B21045  18.076   2.517   7.797
 1393POPC   C4B21046  18.271   2.533   7.337
 1394POPC   NC321047  44.421  38.201   9.436
 1394POPC   PO421048  44.996  37.858   9.513
 1394POPC   GL121049  44.760  37.642   9.228
 1394POPC   GL221050   0.044  37.434   9.150
 1394POPC   C1A21051  44.436  37.674   8.869
 1394POPC   D2A21052  44.395  37.499   8.438
 1394POPC   C3A21053  44.292  37.681   8.034
 1394POPC   C4A21054  44.428  37.588   7.602
 1394POPC   C1B21055  44.940  37.715   8.764
 1394POPC   C2B21056  44.841  37.873   8.332
 1394POPC   C3B21057  44.803  37.782   7.885
 1394POPC   C4B21058  44.707  38.005   7.481
 1395POPC   NC321059  35.298  22.636   9.433
 1395POPC   PO421060  35.386  23.239   9.683
 1395POPC   GL121061  35.540  23.057   9.243
 1395POPC   GL221062  35.250  22.942   9.025
 1395POPC   C1A21063  35.702  23.037   8.805
 1395POPC   D2A21064  35.460  22.999   8.476
 1395POPC   C3A21065  35.637  23.075   8.132
 1395POPC   C4A21066  35.409  23.119   7.766
 1395POPC   C1B21067  35.401  22.576   8.760
 1395POPC   C2B21068  35.520  22.403   8.366
 1395POPC   C3B21069  35.556  22.599   7.961
 1395POPC   C4B21070  35.132  22.661   7.844
 1396POPC   NC321071  11.418  21.640   9.403
 1396POPC   PO421072  10.834  21.431   9.414
 1396POPC   GL121073  11.164  21.350   9.082
 1396POPC   GL221074  11.278  21.699   8.952
 1396POPC   C1A21075  11.359  21.322   8.654
 1396POPC   D2A21076  11.660  21.422   8.372
 1396POPC   C3A21077  11.390  21.377   8.056
 1396POPC   C4A21078  11.258  21.287   7.651
 1396POPC   C1B21079  11.061  21.778   8.632
 1396POPC   C2B21080  11.295  21.836   8.261
 1396POPC   C3B21081  11.308  21.810   7.810
 1396POPC   C4B21082  10.925  21.837   7.677
 1397POPC   NC321083  40.060   6.959   9.339
 1397POPC   PO421084  40.549   6.679   9.704
 1397POPC   GL121085  40.468   6.592   9.225
 1397POPC   GL221086  40.178   6.388   9.093
 1397POPC   C1A21087  40.344   6.765   8.787
 1397POPC   D2A21088  40.365   6.590   8.363
 1397POPC   C3A21089  40.166   6.737   7.996
 1397POPC   C4A21090  40.315   6.776   7.576
 1397POPC   C1B21091  39.860   6.605   8.815
 1397POPC   C2B21092  39.810   6.558   8.398
 1397POPC   C3B21093  39.646   6.655   8.014
 1397POPC   C4B21094  39.808   6.447   7.682
 1398POPC   NC321095  26.956  10.971   9.916
 1398POPC   PO421096  26.640  10.490   9.503
 1398POPC   GL121097  26.933  10.386   9.198
 1398POPC   GL221098  26.665  10.221   9.018
 1398POPC   C1A21099  27.047  10.601   8.831
 1398POPC   D2A21100  26.762  10.635   8.531
 1398POPC   C3A21101  26.949  10.542   8.164
 1398POPC   C4A21102  27.174  10.708   7.851
 1398POPC   C1B21103  26.393  10.142   8.665
 1398POPC   C2B21104  26.384  10.370   8.308
 1398POPC   C3B21105  26.540  10.269   7.899
 1398POPC   C4B21106  26.745  10.358   7.526
 1399POPC   NC321107  30.300  13.039   9.370
 1399POPC   PO421108  30.940  12.699   9.378
 1399POPC   GL121109  30.733  12.570   9.008
 1399POPC   GL221110  30.361  12.566   9.048
 1399POPC   C1A21111  30.637  12.663   8.592
 1399POPC   D2A21112  30.514  12.546   8.189
 1399POPC   C3A21113  30.785  12.667   7.863
 1399POPC   C4A21114  30.932  13.062   7.797
 1399POPC   C1B21115  30.180  12.871   8.736
 1399POPC   C2B21116  30.316  13.013   8.324
 1399POPC   C3B21117  30.333  12.940   7.881
 1399POPC   C4B21118  30.530  12.950   7.466
 1400POPC   NC321119  21.064   1.949   9.508
 1400POPC   PO421120  20.417   1.780   9.582
 1400POPC   GL121121  20.600   1.761   9.170
 1400POPC   GL221122  20.770   2.091   9.116
 1400POPC   C1A21123  20.687   1.771   8.724
 1400POPC   D2A21124  20.687   1.985   8.334
 1400POPC   C3A21125  20.673   1.768   7.930
 1400POPC   C4A21126  20.594   2.143   7.701
 1400POPC   C1B21127  21.004   2.229   8.749
 1400POPC   C2B21128  21.192   2.065   8.365
 1400POPC   C3B21129  21.076   2.083   7.921
 1400POPC   C4B21130  21.186   2.116   7.437
 1401POPC   NC321131  35.449  44.021   9.672
 1401POPC   PO421132  35.150  43.462   9.458
 1401POPC   GL121133  35.279  43.840   9.188
 1401POPC   GL221134  35.588  43.811   8.932
 1401POPC   C1A21135  35.138  44.001   8.770
 1401POPC   D2A21136  35.308  44.136   8.362
 1401POPC   C3A21137  35.471  43.954   7.985
 1401POPC   C4A21138  35.362  43.992   7.540
 1401POPC   C1B21139  35.428  43.604   8.580
 1401POPC   C2B21140  35.084  43.666   8.338
 1401POPC   C3B21141  35.002  43.771   7.906
 1401POPC   C4B21142  35.081  43.549   7.524
 1402POPC   NC321143   0.326   8.690   9.629
 1402POPC   PO421144   0.820   8.555   9.161
 1402POPC   GL121145   0.432   8.851   9.134
 1402POPC   GL221146   0.619   9.095   9.028
 1402POPC   C1A21147   0.231   9.124   8.748
 1402POPC   D2A21148   0.425   9.160   8.305
 1402POPC   C3A21149   0.212   9.019   7.968
 1402POPC   C4A21150   0.261   8.691   7.657
 1402POPC   C1B21151   0.642   8.852   8.641
 1402POPC   C2B21152   0.630   8.569   8.322
 1402POPC   C3B21153   0.683   8.775   7.952
 1402POPC   C4B21154   0.876   8.969   7.623
 1403POPC   NC321155   1.014  25.717   9.542
 1403POPC   PO421156   1.391  26.259   9.567
 1403POPC   GL121157   1.300  26.006   9.169
 1403POPC   GL221158   0.941  25.898   9.091
 1403POPC   C1A21159   1.291  25.989   8.705
 1403POPC   D2A21160   1.479  26.172   8.312
 1403POPC   C3A21161   1.536  26.068   7.850
 1403POPC   C4A21162   1.512  26.042   7.358
 1403POPC   C1B21163   0.892  25.662   8.715
 1403POPC   C2B21164   0.923  25.903   8.343
 1403POPC   C3B21165   1.065  25.890   7.948
 1403POPC   C4B21166   0.864  25.708   7.609
 1404POPC   NC321167  12.526  26.010   9.478
 1404POPC   PO421168  13.168  25.842   9.485
 1404POPC   GL121169  12.922  25.953   9.154
 1404POPC   GL221170  12.667  25.693   9.111
 1404POPC   C1A21171  12.886  26.146   8.764
 1404POPC   D2A21172  12.661  26.077   8.367
 1404POPC   C3A21173  12.852  26.147   7.965
 1404POPC   C4A21174  12.633  26.044   7.521
 1404POPC   C1B21175  12.845  25.626   8.726
 1404POPC   C2B21176  12.795  25.559   8.320
 1404POPC   C3B21177  12.586  25.718   7.976
 1404POPC   C4B21178  12.939  25.727   7.717
 1405POPC   NC321179  36.770  14.147   9.283
 1405POPC   PO421180  37.031  14.637   9.614
 1405POPC   GL121181  36.963  14.591   9.166
 1405POPC   GL221182  37.214  14.315   9.116
 1405POPC   C1A21183  36.862  14.670   8.723
 1405POPC   D2A21184  37.002  14.796   8.304
 1405POPC   C3A21185  36.925  14.519   7.982
 1405POPC   C4A21186  37.037  14.594   7.589
 1405POPC   C1B21187  37.269  14.340   8.650
 1405POPC   C2B21188  37.203  14.131   8.232
 1405POPC   C3B21189  37.113  14.067   7.785
 1405POPC   C4B21190  36.759  14.174   7.521
 1406POPC   NC321191  13.420   5.237   9.519
 1406POPC   PO421192  14.013   4.924   9.535
 1406POPC   GL121193  13.735   4.960   9.207
 1406POPC   GL221194  13.672   5.303   9.067
 1406POPC   C1A21195  13.721   4.900   8.777
 1406POPC   D2A21196  13.812   5.259   8.517
 1406POPC   C3A21197  14.028   5.076   8.237
 1406POPC   C4A21198  13.951   4.823   7.890
 1406POPC   C1B21199  13.363   5.250   8.737
 1406POPC   C2B21200  13.401   4.954   8.364
 1406POPC   C3B21201  13.297   5.086   7.961
 1406POPC   C4B21202  13.274   5.454   7.721
 1407POPC   NC321203  20.404  44.201   9.542
 1407POPC   PO421204  20.398  43.640   9.895
 1407POPC   GL121205  20.381  43.725   9.341
 1407POPC   GL221206  20.706  43.800   9.123
 1407POPC   C1A21207  20.292  43.955   8.885
 1407POPC   D2A21208  20.638  44.000   8.588
 1407POPC   C3A21209  20.529  43.935   8.155
 1407POPC   C4A21210  20.419  44.259   7.862
 1407POPC   C1B21211  20.493  43.524   8.781
 1407POPC   C2B21212  20.339  43.476   8.338
 1407POPC   C3B21213  20.460  43.490   7.893
 1407POPC   C4B21214  20.479  43.492   7.403
 1408POPC   NC321215  29.263  10.207   9.538
 1408POPC   PO421216  29.080  10.879   9.348
 1408POPC   GL121217  29.140  10.500   9.083
 1408POPC   GL221218  29.477  10.336   9.094
 1408POPC   C1A21219  29.307  10.585   8.665
 1408POPC   D2A21220  29.597  10.821   8.423
 1408POPC   C3A21221  29.304  10.898   8.099
 1408POPC   C4A21222  29.165  10.561   7.778
 1408POPC   C1B21223  29.363  10.094   8.733
 1408POPC   C2B21224  29.245  10.187   8.318
 1408POPC   C3B21225  29.319  10.062   7.931
 1408POPC   C4B21226  29.283   9.882   7.570
 1409POPC   NC321227  27.035  38.524   9.667
 1409POPC   PO421228  27.735  38.569   9.626
 1409POPC   GL121229  27.541  38.519   9.202
 1409POPC   GL221230  27.446  38.819   9.088
 1409POPC   C1A21231  27.683  38.548   8.721
 1409POPC   D2A21232  27.699  38.761   8.266
 1409POPC   C3A21233  27.531  38.476   7.935
 1409POPC   C4A21234  27.686  38.068   7.809
 1409POPC   C1B21235  27.220  38.809   8.709
 1409POPC   C2B21236  27.200  38.679   8.302
 1409POPC   C3B21237  27.256  38.904   7.902
 1409POPC   C4B21238  27.472  38.824   7.434
 1410POPC   NC321239  23.472  40.370   9.618
 1410POPC   PO421240  23.923  40.904   9.572
 1410POPC   GL121241  23.947  40.853   9.104
 1410POPC   GL221242  23.730  41.129   8.994
 1410POPC   C1A21243  23.789  40.745   8.658
 1410POPC   D2A21244  23.633  40.851   8.249
 1410POPC   C3A21245  23.866  40.622   7.936
 1410POPC   C4A21246  23.555  40.739   7.670
 1410POPC   C1B21247  24.091  41.157   8.700
 1410POPC   C2B21248  24.127  40.951   8.303
 1410POPC   C3B21249  23.978  41.125   7.905
 1410POPC   C4B21250  23.882  41.059   7.455
 1411POPC   NC321251  29.349  12.870   9.629
 1411POPC   PO421252  29.967  12.757   9.497
 1411POPC   GL121253  29.860  12.635   9.110
 1411POPC   GL221254  29.550  12.708   9.168
 1411POPC   C1A21255  29.822  12.513   8.695
 1411POPC   D2A21256  30.025  12.578   8.305
 1411POPC   C3A21257  29.862  12.607   7.886
 1411POPC   C4A21258  30.031  12.780   7.494
 1411POPC   C1B21259  29.641  12.996   8.820
 1411POPC   C2B21260  29.805  13.051   8.393
 1411POPC   C3B21261  29.829  13.105   7.924
 1411POPC   C4B21262  29.913  13.274   7.489
 1412POPC   NC321263  17.360  41.332   9.550
 1412POPC   PO421264  17.990  41.627   9.454
 1412POPC   GL121265  17.662  41.561   9.195
 1412POPC   GL221266  17.734  41.215   9.200
 1412POPC   C1A21267  17.545  41.774   8.817
 1412POPC   D2A21268  17.628  41.761   8.389
 1412POPC   C3A21269  17.291  41.782   8.104
 1412POPC   C4A21270  17.225  41.598   7.688
 1412POPC   C1B21271  17.566  41.241   8.811
 1412POPC   C2B21272  17.307  41.343   8.470
 1412POPC   C3B21273  17.470  41.309   8.059
 1412POPC   C4B21274  17.365  41.067   7.710
 1413POPC   NC321275   1.419   9.010   9.580
 1413POPC   PO421276   0.772   8.829   9.652
 1413POPC   GL121277   1.033   9.000   9.276
 1413POPC   GL221278   1.303   8.782   9.111
 1413POPC   C1A21279   1.073   9.085   8.808
 1413POPC   D2A21280   1.120   8.841   8.428
 1413POPC   C3A21281   0.990   9.142   8.136
 1413POPC   C4A21282   1.272   9.255   7.821
 1413POPC   C1B21283   1.567   8.917   8.775
 1413POPC   C2B21284   1.802   8.745   8.432
 1413POPC   C3B21285   1.630   8.925   8.071
 1413POPC   C4B21286   1.232   8.741   7.899
 1414POPC   NC321287  39.633  28.196   9.732
 1414POPC   PO421288  38.980  28.492   9.629
 1414POPC   GL121289  39.287  28.493   9.302
 1414POPC   GL221290  39.478  28.783   9.377
 1414POPC   C1A21291  39.251  28.275   8.872
 1414POPC   D2A21292  39.175  27.970   8.496
 1414POPC   C3A21293  39.392  27.997   8.082
 1414POPC   C4A21294  39.133  28.241   7.758
 1414POPC   C1B21295  39.471  28.782   8.916
 1414POPC   C2B21296  39.283  28.654   8.538
 1414POPC   C3B21297  39.367  28.509   8.149
 1414POPC   C4B21298  39.341  28.702   7.759
 1415POPC   NC321299  39.363  10.840   9.497
 1415POPC   PO421300  39.069  10.299   9.764
 1415POPC   GL121301  39.144  10.434   9.265
 1415POPC   GL221302  39.403  10.652   9.050
 1415POPC   C1A21303  38.970  10.574   8.822
 1415POPC   D2A21304  39.136  10.588   8.395
 1415POPC   C3A21305  38.926  10.460   8.021
 1415POPC   C4A21306  38.883  10.786   7.715
 1415POPC   C1B21307  39.461  10.362   8.745
 1415POPC   C2B21308  39.594  10.343   8.336
 1415POPC   C3B21309  39.460  10.378   7.906
 1415POPC   C4B21310  39.483  10.580   7.492
 1416POPC   NC321311  37.618  41.658   9.536
 1416POPC   PO421312  38.191  41.562   9.433
 1416POPC   GL121313  37.868  41.329   9.182
 1416POPC   GL221314  37.467  41.378   9.132
 1416POPC   C1A21315  37.838  41.335   8.749
 1416POPC   D2A21316  37.962  41.515   8.373
 1416POPC   C3A21317  37.802  41.266   8.080
 1416POPC   C4A21318  37.760  41.332   7.673
 1416POPC   C1B21319  37.598  41.754   8.886
 1416POPC   C2B21320  37.570  41.878   8.441
 1416POPC   C3B21321  37.641  41.757   8.007
 1416POPC   C4B21322  37.326  41.642   7.700
 1417POPC   NC321323   0.177  21.982   9.458
 1417POPC   PO421324   0.626  22.476   9.685
 1417POPC   GL121325   0.736  22.389   9.215
 1417POPC   GL221326   0.430  22.217   9.076
 1417POPC   C1A21327   0.791  22.266   8.755
 1417POPC   D2A21328   0.694  21.910   8.467
 1417POPC   C3A21329   0.717  21.910   8.004
 1417POPC   C4A21330   0.675  22.131   7.577
 1417POPC   C1B21331   0.244  21.923   8.748
 1417POPC   C2B21332   0.209  21.774   8.325
 1417POPC   C3B21333   0.174  21.982   7.940
 1417POPC   C4B21334   0.125  22.036   7.461
 1418POPC   NC321335   3.698   2.304   9.559
 1418POPC   PO421336   3.530   2.987   9.544
 1418POPC   GL121337   3.648   2.860   9.151
 1418POPC   GL221338   3.505   2.558   9.130
 1418POPC   C1A21339   3.783   2.841   8.742
 1418POPC   D2A21340   3.575   2.830   8.354
 1418POPC   C3A21341   3.836   2.895   7.999
 1418POPC   C4A21342   3.646   2.880   7.609
 1418POPC   C1B21343   3.341   2.526   8.719
 1418POPC   C2B21344   3.494   2.308   8.319
 1418POPC   C3B21345   3.530   2.484   7.940
 1418POPC   C4B21346   3.332   2.453   7.537
 1419POPC   NC321347  13.554   8.540   9.488
 1419POPC   PO421348  13.826   7.976   9.414
 1419POPC   GL121349  13.619   8.202   9.123
 1419POPC   GL221350  13.935   8.374   9.052
 1419POPC   C1A21351  13.472   8.291   8.721
 1419POPC   D2A21352  13.394   8.440   8.336
 1419POPC   C3A21353  13.555   8.259   7.984
 1419POPC   C4A21354  13.285   7.994   7.741
 1419POPC   C1B21355  13.889   7.994   8.756
 1419POPC   C2B21356  13.904   8.230   8.385
 1419POPC   C3B21357  14.043   8.433   8.036
 1419POPC   C4B21358  13.979   8.157   7.691
 1420POPC   NC321359  22.200   0.703   9.456
 1420POPC   PO421360  21.867   0.035   9.497
 1420POPC   GL121361  22.053   0.112   9.091
 1420POPC   GL221362  22.329   0.329   9.130
 1420POPC   C1A21363  22.088   0.296   8.648
 1420POPC   D2A21364  22.019   0.546   8.275
 1420POPC   C3A21365  22.030   0.317   7.896
 1420POPC   C4A21366  22.094  44.914   7.727
 1420POPC   C1B21367  22.452   0.640   8.805
 1420POPC   C2B21368  22.522   0.516   8.369
 1420POPC   C3B21369  22.477   0.584   7.927
 1420POPC   C4B21370  22.513   0.309   7.568
 1421POPC   NC321371  15.128  19.080   9.538
 1421POPC   PO421372  14.538  18.988   9.420
 1421POPC   GL121373  14.862  18.969   9.116
 1421POPC   GL221374  15.267  18.901   9.091
 1421POPC   C1A21375  15.009  19.236   8.796
 1421POPC   D2A21376  15.333  19.124   8.531
 1421POPC   C3A21377  15.283  19.207   8.094
 1421POPC   C4A21378  14.961  19.031   7.821
 1421POPC   C1B21379  15.519  18.637   8.799
 1421POPC   C2B21380  15.462  18.482   8.366
 1421POPC   C3B21381  15.341  18.703   7.990
 1421POPC   C4B21382  15.527  18.990   7.684
 1422POPC   NC321383  14.066  20.102   9.583
 1422POPC   PO421384  14.635  19.669   9.588
 1422POPC   GL121385  14.579  19.721   9.168
 1422POPC   GL221386  14.474  20.032   9.211
 1422POPC   C1A21387  14.425  19.684   8.754
 1422POPC   D2A21388  14.274  19.583   8.333
 1422POPC   C3A21389  14.464  19.776   7.986
 1422POPC   C4A21390  14.268  19.944   7.637
 1422POPC   C1B21391  14.414  20.221   8.832
 1422POPC   C2B21392  14.379  20.083   8.415
 1422POPC   C3B21393  14.361  20.281   8.017
 1422POPC   C4B21394  14.471  20.408   7.593
 1423POPC   NC321395  38.013  30.692   9.588
 1423POPC   PO421396  37.399  30.627   9.461
 1423POPC   GL121397  37.603  30.633   9.084
 1423POPC   GL221398  37.889  30.792   9.110
 1423POPC   C1A21399  37.720  30.681   8.650
 1423POPC   D2A21400  37.622  31.030   8.394
 1423POPC   C3A21401  37.512  30.717   8.100
 1423POPC   C4A21402  37.799  30.372   7.897
 1423POPC   C1B21403  38.019  31.063   8.777
 1423POPC   C2B21404  38.180  30.946   8.392
 1423POPC   C3B21405  38.010  31.074   8.055
 1423POPC   C4B21406  37.846  30.860   7.766
 1424POPC   NC321407  13.416  34.159   9.598
 1424POPC   PO421408  13.761  34.720   9.770
 1424POPC   GL121409  13.716  34.503   9.302
 1424POPC   GL221410  13.467  34.235   9.090
 1424POPC   C1A21411  13.727  34.605   8.848
 1424POPC   D2A21412  13.636  34.378   8.468
 1424POPC   C3A21413  13.549  34.631   8.113
 1424POPC   C4A21414  13.760  34.652   7.746
 1424POPC   C1B21415  13.206  34.149   8.676
 1424POPC   C2B21416  13.146  34.335   8.239
 1424POPC   C3B21417  13.231  34.410   7.763
 1424POPC   C4B21418  13.110  34.209   7.348
 1425POPC   NC321419  16.920  21.275   9.462
 1425POPC   PO421420  16.683  21.884   9.472
 1425POPC   GL121421  16.798  21.584   9.093
 1425POPC   GL221422  16.534  21.328   9.100
 1425POPC   C1A21423  16.832  21.235   8.709
 1425POPC   D2A21424  17.005  21.314   8.286
 1425POPC   C3A21425  16.709  21.333   7.977
 1425POPC   C4A21426  16.661  21.258   7.570
 1425POPC   C1B21427  16.321  21.161   8.693
 1425POPC   C2B21428  16.417  21.025   8.269
 1425POPC   C3B21429  16.298  20.997   7.816
 1425POPC   C4B21430  16.285  21.034   7.306
 1426POPC   NC321431   9.614  24.130   9.393
 1426POPC   PO421432   9.952  23.607   9.643
 1426POPC   GL121433   9.710  23.594   9.226
 1426POPC   GL221434   9.443  23.274   9.216
 1426POPC   C1A21435   9.858  23.783   8.790
 1426POPC   D2A21436  10.078  23.842   8.359
 1426POPC   C3A21437   9.829  23.828   7.962
 1426POPC   C4A21438   9.410  23.960   7.799
 1426POPC   C1B21439   9.628  23.311   8.806
 1426POPC   C2B21440   9.961  23.332   8.487
 1426POPC   C3B21441   9.865  23.312   8.065
 1426POPC   C4B21442   9.453  23.408   7.876
 1427POPC   NC321443  34.736  37.163   9.528
 1427POPC   PO421444  34.422  36.583   9.433
 1427POPC   GL121445  34.605  36.864   9.130
 1427POPC   GL221446  34.371  37.123   9.185
 1427POPC   C1A21447  34.766  36.935   8.704
 1427POPC   D2A21448  34.832  36.964   8.240
 1427POPC   C3A21449  34.545  36.690   7.948
 1427POPC   C4A21450  34.788  36.900   7.654
 1427POPC   C1B21451  34.269  37.047   8.782
 1427POPC   C2B21452  34.350  36.892   8.384
 1427POPC   C3B21453  34.420  37.161   8.006
 1427POPC   C4B21454  34.307  37.100   7.587
 1428POPC   NC321455  36.259  37.357   9.271
 1428POPC   PO421456  35.940  37.972   9.435
 1428POPC   GL121457  35.903  37.873   9.022
 1428POPC   GL221458  36.283  37.828   9.036
 1428POPC   C1A21459  35.944  37.495   8.752
 1428POPC   D2A21460  36.260  37.395   8.449
 1428POPC   C3A21461  36.118  37.659   8.144
 1428POPC   C4A21462  36.035  37.570   7.721
 1428POPC   C1B21463  36.210  37.908   8.604
 1428POPC   C2B21464  36.272  38.148   8.273
 1428POPC   C3B21465  36.461  38.137   7.885
 1428POPC   C4B21466  36.298  37.967   7.548
 1429POPC   NC321467  23.182   6.523   9.756
 1429POPC   PO421468  22.810   6.293   9.286
 1429POPC   GL121469  23.045   6.384   8.908
 1429POPC   GL221470  23.100   6.730   8.991
 1429POPC   C1A21471  23.003   6.629   8.502
 1429POPC   D2A21472  22.671   6.766   8.260
 1429POPC   C3A21473  22.772   6.478   7.944
 1429POPC   C4A21474  23.180   6.318   7.907
 1429POPC   C1B21475  23.181   7.068   8.680
 1429POPC   C2B21476  23.366   6.989   8.301
 1429POPC   C3B21477  23.132   6.835   7.981
 1429POPC   C4B21478  22.719   6.982   7.808
 1430POPC   NC321479  41.116  22.990   9.441
 1430POPC   PO421480  41.705  22.645   9.644
 1430POPC   GL121481  41.597  22.884   9.244
 1430POPC   GL221482  41.753  23.208   9.137
 1430POPC   C1A21483  41.391  22.858   8.827
 1430POPC   D2A21484  41.557  22.578   8.502
 1430POPC   C3A21485  41.478  22.673   8.083
 1430POPC   C4A21486  41.699  22.723   7.694
 1430POPC   C1B21487  41.529  23.340   8.747
 1430POPC   C2B21488  41.377  23.123   8.365
 1430POPC   C3B21489  41.577  23.143   7.944
 1430POPC   C4B21490  41.620  23.175   7.470
 1431POPC   NC321491  20.385  28.769   9.466
 1431POPC   PO421492  20.569  29.376   9.223
 1431POPC   GL121493  20.509  29.013   9.031
 1431POPC   GL221494  20.814  28.860   9.147
 1431POPC   C1A21495  20.561  29.053   8.620
 1431POPC   D2A21496  20.648  29.205   8.244
 1431POPC   C3A21497  20.469  28.951   7.936
 1431POPC   C4A21498  20.530  29.283   7.680
 1431POPC   C1B21499  21.025  28.952   8.758
 1431POPC   C2B21500  20.968  28.806   8.299
 1431POPC   C3B21501  20.966  29.021   7.883
 1431POPC   C4B21502  20.818  28.866   7.506
 1432POPC   NC321503  19.638   4.490   9.534
 1432POPC   PO421504  20.054   3.924   9.421
 1432POPC   GL121505  19.799   4.163   9.139
 1432POPC   GL221506  19.925   4.522   9.134
 1432POPC   C1A21507  19.728   4.191   8.695
 1432POPC   D2A21508  19.891   4.401   8.324
 1432POPC   C3A21509  19.752   4.358   7.884
 1432POPC   C4A21510  19.906   4.508   7.475
 1432POPC   C1B21511  19.609   4.682   8.866
 1432POPC   C2B21512  19.625   4.819   8.445
 1432POPC   C3B21513  19.469   4.761   8.040
 1432POPC   C4B21514  19.406   4.678   7.615
 1433POPC   NC321515  44.682  18.075   9.508
 1433POPC   PO421516  44.551  18.812   9.378
 1433POPC   GL121517  44.839  18.562   9.088
 1433POPC   GL221518  44.948  18.199   9.102
 1433POPC   C1A21519  44.845  18.453   8.653
 1433POPC   D2A21520  44.536  18.422   8.371
 1433POPC   C3A21521  44.627  18.499   7.961
 1433POPC   C4A21522  44.359  18.562   7.645
 1433POPC   C1B21523  44.960  17.966   8.761
 1433POPC   C2B21524  44.756  17.915   8.389
 1433POPC   C3B21525  44.619  17.948   7.986
 1433POPC   C4B21526  44.792  18.128   7.648
 1434POPC   NC321527   3.129  28.496   9.541
 1434POPC   PO421528   3.435  28.022   9.308
 1434POPC   GL121529   3.330  28.369   9.079
 1434POPC   GL221530   3.451  28.684   9.142
 1434POPC   C1A21531   3.466  28.366   8.675
 1434POPC   D2A21532   3.367  28.024   8.432
 1434POPC   C3A21533   3.510  28.145   8.048
 1434POPC   C4A21534   3.330  28.104   7.653
 1434POPC   C1B21535   3.144  28.748   8.782
 1434POPC   C2B21536   3.073  28.550   8.360
 1434POPC   C3B21537   3.220  28.547   7.924
 1434POPC   C4B21538   3.679  28.646   7.928
 1435POPC   NC321539   6.913   8.370   9.394
 1435POPC   PO421540   6.388   8.038   9.725
 1435POPC   GL121541   6.547   8.020   9.318
 1435POPC   GL221542   6.314   8.226   9.164
 1435POPC   C1A21543   6.670   8.005   8.860
 1435POPC   D2A21544   6.523   8.039   8.419
 1435POPC   C3A21545   6.793   7.982   8.044
 1435POPC   C4A21546   7.037   7.913   7.644
 1435POPC   C1B21547   6.365   8.429   8.763
 1435POPC   C2B21548   6.171   8.406   8.347
 1435POPC   C3B21549   6.429   8.373   7.998
 1435POPC   C4B21550   6.296   8.507   7.595
 1436POPC   NC321551  34.326  36.129   9.351
 1436POPC   PO421552  34.882  35.814   9.419
 1436POPC   GL121553  34.738  36.048   9.086
 1436POPC   GL221554  34.789  36.379   9.132
 1436POPC   C1A21555  34.577  35.987   8.687
 1436POPC   D2A21556  34.333  36.201   8.356
 1436POPC   C3A21557  34.503  36.129   7.959
 1436POPC   C4A21558  34.452  35.701   7.753
 1436POPC   C1B21559  34.541  36.482   8.777
 1436POPC   C2B21560  34.741  36.505   8.396
 1436POPC   C3B21561  34.980  36.463   8.005
 1436POPC   C4B21562  34.768  36.372   7.582
 1437POPC   NC321563  31.357   0.630   9.162
 1437POPC   PO421564  31.594  44.942   9.329
 1437POPC   GL121565  31.561   0.192   8.998
 1437POPC   GL221566  31.207   0.182   8.971
 1437POPC   C1A21567  31.680   0.282   8.569
 1437POPC   D2A21568  31.558   0.029   8.194
 1437POPC   C3A21569  31.495   0.264   7.832
 1437POPC   C4A21570  31.681   0.637   7.691
 1437POPC   C1B21571  31.196   0.089   8.556
 1437POPC   C2B21572  31.250   0.454   8.244
 1437POPC   C3B21573  31.181   0.651   7.802
 1437POPC   C4B21574  31.314   0.441   7.386
 1438POPC   NC321575  40.801  32.379   9.338
 1438POPC   PO421576  41.259  32.007   9.682
 1438POPC   GL121577  40.995  31.928   9.224
 1438POPC   GL221578  40.685  31.990   9.020
 1438POPC   C1A21579  41.028  32.238   8.776
 1438POPC   D2A21580  40.955  32.366   8.360
 1438POPC   C3A21581  41.068  32.124   8.009
 1438POPC   C4A21582  40.980  32.396   7.637
 1438POPC   C1B21583  40.503  31.798   8.668
 1438POPC   C2B21584  40.616  31.932   8.254
 1438POPC   C3B21585  40.556  32.291   7.975
 1438POPC   C4B21586  40.475  32.324   7.538
 1439POPC   NC321587   9.472  42.822   9.689
 1439POPC   PO421588   9.693  43.480   9.670
 1439POPC   GL121589   9.731  43.290   9.231
 1439POPC   GL221590   9.883  42.949   9.159
 1439POPC   C1A21591   9.723  43.468   8.801
 1439POPC   D2A21592   9.845  43.428   8.359
 1439POPC   C3A21593   9.753  43.331   7.922
 1439POPC   C4A21594  10.054  43.042   7.768
 1439POPC   C1B21595   9.790  42.966   8.699
 1439POPC   C2B21596   9.623  42.973   8.269
 1439POPC   C3B21597   9.632  42.787   7.856
 1439POPC   C4B21598   9.456  42.622   7.477
 1440POPC   NC321599  38.672  30.990   9.594
 1440POPC   PO421600  38.331  30.415   9.754
 1440POPC   GL121601  38.297  30.489   9.218
 1440POPC   GL221602  38.662  30.633   9.187
 1440POPC   C1A21603  38.310  30.622   8.770
 1440POPC   D2A21604  38.503  30.523   8.344
 1440POPC   C3A21605  38.321  30.690   7.946
 1440POPC   C4A21606  38.175  30.500   7.569
 1440POPC   C1B21607  38.814  30.860   8.818
 1440POPC   C2B21608  38.754  30.976   8.374
 1440POPC   C3B21609  38.748  30.976   7.929
 1440POPC   C4B21610  38.634  30.902   7.461
 1441POPC   NC321611  16.503  30.933   9.573
 1441POPC   PO421612  17.098  30.775   9.513
 1441POPC   GL121613  16.776  30.741   9.171
 1441POPC   GL221614  16.655  31.062   9.113
 1441POPC   C1A21615  16.478  30.644   8.811
 1441POPC   D2A21616  16.677  30.590   8.403
 1441POPC   C3A21617  16.494  30.504   8.010
 1441POPC   C4A21618  16.771  30.427   7.643
 1441POPC   C1B21619  16.816  31.018   8.717
 1441POPC   C2B21620  16.760  31.099   8.286
 1441POPC   C3B21621  16.855  30.883   7.902
 1441POPC   C4B21622  16.703  30.963   7.472
 1442POPC   NC321623   9.101   1.504   9.449
 1442POPC   PO421624   8.580   1.155   9.519
 1442POPC   GL121625   8.865   1.082   9.130
 1442POPC   GL221626   9.136   0.802   9.087
 1442POPC   C1A21627   9.035   1.388   8.807
 1442POPC   D2A21628   9.245   1.447   8.387
 1442POPC   C3A21629   9.023   1.310   8.002
 1442POPC   C4A21630   9.060   1.021   7.677
 1442POPC   C1B21631   9.115   0.923   8.626
 1442POPC   C2B21632   8.785   1.157   8.422
 1442POPC   C3B21633   8.471   1.041   8.143
 1442POPC   C4B21634   8.565   0.755   7.799
 1443POPC   NC321635  13.516  33.494   9.539
 1443POPC   PO421636  13.885  33.982   9.494
 1443POPC   GL121637  13.767  33.779   9.149
 1443POPC   GL221638  13.866  33.428   9.171
 1443POPC   C1A21639  13.648  33.868   8.740
 1443POPC   D2A21640  13.477  33.774   8.348
 1443POPC   C3A21641  13.527  34.089   8.027
 1443POPC   C4A21642  13.683  34.190   7.583
 1443POPC   C1B21643  13.735  33.351   8.748
 1443POPC   C2B21644  13.899  33.463   8.346
 1443POPC   C3B21645  13.843  33.699   7.961
 1443POPC   C4B21646  13.850  33.734   7.491
 1444POPC   NC321647  37.791  33.415   9.450
 1444POPC   PO421648  37.684  34.065   9.460
 1444POPC   GL121649  37.865  33.825   9.121
 1444POPC   GL221650  37.835  34.098   8.961
 1444POPC   C1A21651  37.805  33.712   8.652
 1444POPC   D2A21652  37.482  33.681   8.361
 1444POPC   C3A21653  37.738  33.476   8.056
 1444POPC   C4A21654  37.984  33.192   7.794
 1444POPC   C1B21655  37.439  34.003   8.810
 1444POPC   C2B21656  37.436  34.204   8.405
 1444POPC   C3B21657  37.704  34.026   8.082
 1444POPC   C4B21658  37.563  33.819   7.706
 1445POPC   NC321659  13.439   7.728   9.355
 1445POPC   PO421660  13.376   7.066   9.475
 1445POPC   GL121661  13.520   7.181   9.093
 1445POPC   GL221662  13.803   7.436   9.091
 1445POPC   C1A21663  13.333   7.041   8.719
 1445POPC   D2A21664  13.202   7.182   8.331
 1445POPC   C3A21665  13.546   7.362   8.183
 1445POPC   C4A21666  13.727   7.132   7.869
 1445POPC   C1B21667  13.546   7.541   8.708
 1445POPC   C2B21668  13.553   7.861   8.370
 1445POPC   C3B21669  13.783   7.793   7.994
 1445POPC   C4B21670  13.534   7.565   7.715
 1446POPC   NC321671  13.025  22.488   9.377
 1446POPC   PO421672  12.800  23.062   9.687
 1446POPC   GL121673  12.809  22.955   9.202
 1446POPC   GL221674  12.635  22.610   9.080
 1446POPC   C1A21675  12.987  22.805   8.780
 1446POPC   D2A21676  12.885  22.632   8.388
 1446POPC   C3A21677  12.950  22.828   7.987
 1446POPC   C4A21678  12.875  23.185   7.700
 1446POPC   C1B21679  12.468  22.857   8.718
 1446POPC   C2B21680  12.517  23.002   8.288
 1446POPC   C3B21681  12.474  22.901   7.845
 1446POPC   C4B21682  12.529  22.952   7.376
 1447POPC   NC321683  39.328  31.605   9.765
 1447POPC   PO421684  39.350  32.307   9.688
 1447POPC   GL121685  39.353  32.139   9.308
 1447POPC   GL221686  39.182  32.408   9.178
 1447POPC   C1A21687  39.384  32.082   8.853
 1447POPC   D2A21688  39.324  32.319   8.511
 1447POPC   C3A21689  39.297  32.144   8.157
 1447POPC   C4A21690  39.208  32.123   7.768
 1447POPC   C1B21691  38.925  32.424   8.822
 1447POPC   C2B21692  38.957  32.648   8.429
 1447POPC   C3B21693  38.990  32.523   8.016
 1447POPC   C4B21694  38.672  32.520   7.703
 1448POPC   NC321695  38.492  35.233   9.554
 1448POPC   PO421696  38.115  34.735   9.348
 1448POPC   GL121697  38.398  35.042   9.079
 1448POPC   GL221698  38.496  35.439   9.101
 1448POPC   C1A21699  38.430  35.227   8.656
 1448POPC   D2A21700  38.744  35.327   8.341
 1448POPC   C3A21701  38.536  35.310   7.934
 1448POPC   C4A21702  38.637  35.133   7.546
 1448POPC   C1B21703  38.339  35.735   8.778
 1448POPC   C2B21704  38.375  35.683   8.344
 1448POPC   C3B21705  38.323  35.778   7.920
 1448POPC   C4B21706  38.333  35.634   7.502
 1449POPC   NC321707  39.646   9.310   9.398
 1449POPC   PO421708  40.271   9.091   9.478
 1449POPC   GL121709  40.019   8.989   9.175
 1449POPC   GL221710  40.131   8.644   9.076
 1449POPC   C1A21711  40.072   9.023   8.765
 1449POPC   D2A21712  40.207   8.844   8.427
 1449POPC   C3A21713  39.970   8.996   8.116
 1449POPC   C4A21714  39.987   8.955   7.708
 1449POPC   C1B21715  39.721   8.669   8.881
 1449POPC   C2B21716  39.641   8.896   8.525
 1449POPC   C3B21717  39.473   8.880   8.122
 1449POPC   C4B21718  39.620   8.611   7.744
 1450POPC   NC321719  33.504  22.496   9.574
 1450POPC   PO421720  34.033  23.076   9.512
 1450POPC   GL121721  33.844  22.774   9.257
 1450POPC   GL221722  34.039  22.495   9.085
 1450POPC   C1A21723  33.827  22.867   8.836
 1450POPC   D2A21724  33.942  23.140   8.554
 1450POPC   C3A21725  33.672  23.106   8.220
 1450POPC   C4A21726  33.801  23.129   7.799
 1450POPC   C1B21727  33.929  22.401   8.669
 1450POPC   C2B21728  33.880  22.632   8.316
 1450POPC   C3B21729  33.985  22.652   7.912
 1450POPC   C4B21730  33.808  22.714   7.490
 1451POPC   NC321731   3.335  14.560   9.576
 1451POPC   PO421732   3.347  15.198   9.515
 1451POPC   GL121733   3.586  14.978   9.210
 1451POPC   GL221734   3.610  15.266   8.985
 1451POPC   C1A21735   3.720  14.783   8.806
 1451POPC   D2A21736   3.945  14.734   8.429
 1451POPC   C3A21737   3.800  15.045   8.130
 1451POPC   C4A21738   3.677  15.123   7.705
 1451POPC   C1B21739   3.224  15.482   8.799
 1451POPC   C2B21740   3.291  15.744   8.423
 1451POPC   C3B21741   3.192  15.733   7.994
 1451POPC   C4B21742   3.234  15.435   7.660
 1452POPC   NC321743  27.627   2.985   9.530
 1452POPC   PO421744  27.319   3.600   9.524
 1452POPC   GL121745  27.446   3.722   9.113
 1452POPC   GL221746  27.601   3.412   9.069
 1452POPC   C1A21747  27.599   3.774   8.657
 1452POPC   D2A21748  27.783   3.550   8.272
 1452POPC   C3A21749  27.665   3.649   7.834
 1452POPC   C4A21750  27.550   4.032   7.575
 1452POPC   C1B21751  27.397   3.305   8.677
 1452POPC   C2B21752  27.282   3.484   8.274
 1452POPC   C3B21753  27.321   3.253   7.864
 1452POPC   C4B21754  27.048   3.191   7.490
 1453POPC   NC321755  15.624   4.888   9.345
 1453POPC   PO421756  16.253   4.916   9.580
 1453POPC   GL121757  16.058   5.096   9.179
 1453POPC   GL221758  15.797   5.339   9.162
 1453POPC   C1A21759  16.208   5.203   8.709
 1453POPC   D2A21760  16.433   5.223   8.302
 1453POPC   C3A21761  16.173   5.176   7.930
 1453POPC   C4A21762  16.107   5.347   7.507
 1453POPC   C1B21763  15.706   5.120   8.753
 1453POPC   C2B21764  15.846   5.193   8.347
 1453POPC   C3B21765  15.679   5.071   7.963
 1453POPC   C4B21766  15.462   5.333   7.704
 1454POPC   NC321767   5.408  33.696   9.356
 1454POPC   PO421768   6.059  34.036   9.427
 1454POPC   GL121769   5.809  33.904   9.083
 1454POPC   GL221770   5.810  33.529   9.108
 1454POPC   C1A21771   5.741  33.813   8.638
 1454POPC   D2A21772   5.922  33.638   8.274
 1454POPC   C3A21773   6.136  33.822   7.909
 1454POPC   C4A21774   5.875  33.911   7.529
 1454POPC   C1B21775   6.132  33.558   8.808
 1454POPC   C2B21776   6.211  33.276   8.508
 1454POPC   C3B21777   6.217  33.265   8.103
 1454POPC   C4B21778   6.333  33.368   7.723
 1455POPC   NC321779  13.586  20.929   9.497
 1455POPC   PO421780  13.605  21.558   9.521
 1455POPC   GL121781  13.797  21.508   9.180
 1455POPC   GL221782  13.666  21.222   9.085
 1455POPC   C1A21783  13.908  21.537   8.770
 1455POPC   D2A21784  13.636  21.609   8.428
 1455POPC   C3A21785  13.740  21.520   8.014
 1455POPC   C4A21786  13.436  21.355   7.721
 1455POPC   C1B21787  13.560  21.130   8.660
 1455POPC   C2B21788  13.534  21.101   8.214
 1455POPC   C3B21789  13.803  21.033   7.862
 1455POPC   C4B21790  13.822  21.171   7.410
 1456POPC   NC321791  23.135  14.609   9.306
 1456POPC   PO421792  22.961  15.349   9.419
 1456POPC   GL121793  22.690  15.359   9.069
 1456POPC   GL221794  22.810  15.000   8.996
 1456POPC   C1A21795  22.651  15.293   8.600
 1456POPC   D2A21796  22.934  15.002   8.354
 1456POPC   C3A21797  22.825  14.987   7.921
 1456POPC   C4A21798  22.551  15.380   7.884
 1456POPC   C1B21799  23.112  15.332   8.783
 1456POPC   C2B21800  23.167  15.535   8.433
 1456POPC   C3B21801  23.188  15.363   8.058
 1456POPC   C4B21802  23.019  15.402   7.681
 1457POPC   NC321803  19.606   8.587   9.496
 1457POPC   PO421804  20.031   8.034   9.541
 1457POPC   GL121805  19.885   8.126   9.159
 1457POPC   GL221806  20.022   8.460   9.180
 1457POPC   C1A21807  20.107   8.243   8.752
 1457POPC   D2A21808  20.069   8.091   8.374
 1457POPC   C3A21809  20.047   8.290   8.011
 1457POPC   C4A21810  19.880   7.952   7.846
 1457POPC   C1B21811  19.689   8.486   8.882
 1457POPC   C2B21812  19.729   8.472   8.457
 1457POPC   C3B21813  19.555   8.245   8.123
 1457POPC   C4B21814  19.658   8.384   7.669
 1458POPC   NC321815   3.153   6.033   9.614
 1458POPC   PO421816   2.583   5.834   9.762
 1458POPC   GL121817   2.721   5.942   9.320
 1458POPC   GL221818   2.848   5.646   9.177
 1458POPC   C1A21819   2.741   6.048   8.856
 1458POPC   D2A21820   2.680   5.804   8.477
 1458POPC   C3A21821   2.768   5.915   8.111
 1458POPC   C4A21822   2.661   6.016   7.730
 1458POPC   C1B21823   3.045   5.622   8.793
 1458POPC   C2B21824   3.189   5.729   8.393
 1458POPC   C3B21825   3.101   5.545   7.998
 1458POPC   C4B21826   2.849   5.504   7.624
 1459POPC   NC321827  11.956  36.210   9.428
 1459POPC   PO421828  12.528  36.104   9.863
 1459POPC   GL121829  12.432  36.161   9.339
 1459POPC   GL221830  12.221  35.899   9.115
 1459POPC   C1A21831  12.392  36.253   8.831
 1459POPC   D2A21832  12.292  35.929   8.474
 1459POPC   C3A21833  12.207  36.120   8.093
 1459POPC   C4A21834  12.158  36.241   7.655
 1459POPC   C1B21835  11.904  36.076   8.774
 1459POPC   C2B21836  11.720  35.955   8.368
 1459POPC   C3B21837  11.718  36.063   7.941
 1459POPC   C4B21838  11.651  36.324   7.608
 1460POPC   NC321839  25.854   0.854   9.371
 1460POPC   PO421840  26.294   1.334   9.442
 1460POPC   GL121841  25.988   1.268   9.117
 1460POPC   GL221842  26.188   0.960   8.996
 1460POPC   C1A21843  25.873   1.228   8.682
 1460POPC   D2A21844  26.105   1.088   8.286
 1460POPC   C3A21845  26.008   1.352   7.905
 1460POPC   C4A21846  26.130   1.267   7.500
 1460POPC   C1B21847  25.872   0.731   8.727
 1460POPC   C2B21848  25.691   0.786   8.313
 1460POPC   C3B21849  25.785   0.881   7.849
 1460POPC   C4B21850  25.838   0.832   7.375
 1461POPC   NC321851  37.592  32.732   9.522
 1461POPC   PO421852  38.093  33.105   9.620
 1461POPC   GL121853  37.887  33.000   9.179
 1461POPC   GL221854  37.867  33.325   8.965
 1461POPC   C1A21855  37.618  32.937   8.775
 1461POPC   D2A21856  37.540  32.760   8.409
 1461POPC   C3A21857  37.521  32.988   8.023
 1461POPC   C4A21858  37.566  32.805   7.606
 1461POPC   C1B21859  37.409  33.408   8.785
 1461POPC   C2B21860  37.139  33.296   8.411
 1461POPC   C3B21861  37.233  33.442   7.984
 1461POPC   C4B21862  37.516  33.330   7.617
 1462POPC   NC321863  33.987  13.471   9.555
 1462POPC   PO421864  33.342  13.528   9.393
 1462POPC   GL121865  33.693  13.648   9.151
 1462POPC   GL221866  33.819  13.286   9.113
 1462POPC   C1A21867  33.852  13.815   8.750
 1462POPC   D2A21868  33.794  13.604   8.366
 1462POPC   C3A21869  33.907  13.779   7.975
 1462POPC   C4A21870  33.594  13.905   7.680
 1462POPC   C1B21871  33.558  13.328   8.743
 1462POPC   C2B21872  33.596  13.108   8.340
 1462POPC   C3B21873  33.717  13.297   7.969
 1462POPC   C4B21874  33.770  13.449   7.572
 1463POPC   NC321875  18.888  10.192   9.510
 1463POPC   PO421876  19.414  10.611   9.459
 1463POPC   GL121877  19.215  10.351   9.125
 1463POPC   GL221878  18.895  10.487   9.092
 1463POPC   C1A21879  19.222  10.488   8.680
 1463POPC   D2A21880  19.381  10.652   8.288
 1463POPC   C3A21881  19.262  10.470   7.846
 1463POPC   C4A21882  19.023  10.407   7.412
 1463POPC   C1B21883  18.752  10.700   8.754
 1463POPC   C2B21884  18.619  10.560   8.351
 1463POPC   C3B21885  18.767  10.552   7.922
 1463POPC   C4B21886  18.572  10.629   7.513
 1464POPC   NC321887  16.858  33.368   9.731
 1464POPC   PO421888  16.286  33.137   9.554
 1464POPC   GL121889  16.536  33.134   9.162
 1464POPC   GL221890  16.899  33.241   9.222
 1464POPC   C1A21891  16.414  33.044   8.714
 1464POPC   D2A21892  16.281  32.900   8.253
 1464POPC   C3A21893  16.449  32.790   7.834
 1464POPC   C4A21894  16.890  32.771   7.569
 1464POPC   C1B21895  16.912  33.029   8.815
 1464POPC   C2B21896  16.790  33.129   8.378
 1464POPC   C3B21897  16.844  33.121   7.931
 1464POPC   C4B21898  16.929  33.365   7.530
 1465POPC   NC321899  27.019   4.047   9.533
 1465POPC   PO421900  26.711   4.662   9.363
 1465POPC   GL121901  26.760   4.248   9.136
 1465POPC   GL221902  27.111   4.117   9.039
 1465POPC   C1A21903  26.654   3.993   8.774
 1465POPC   D2A21904  26.746   4.249   8.435
 1465POPC   C3A21905  26.601   4.352   8.058
 1465POPC   C4A21906  26.670   4.038   7.778
 1465POPC   C1B21907  27.115   4.450   8.738
 1465POPC   C2B21908  27.131   4.542   8.283
 1465POPC   C3B21909  27.093   4.352   7.882
 1465POPC   C4B21910  27.301   4.476   7.501
 1466POPC   NC321911  10.268  36.688   9.451
 1466POPC   PO421912  10.597  37.282   9.619
 1466POPC   GL121913  10.445  37.096   9.208
 1466POPC   GL221914  10.698  36.818   9.113
 1466POPC   C1A21915  10.292  36.837   8.824
 1466POPC   D2A21916  10.524  36.784   8.442
 1466POPC   C3A21917  10.300  36.687   8.096
 1466POPC   C4A21918  10.381  36.864   7.704
 1466POPC   C1B21919  10.653  37.175   8.760
 1466POPC   C2B21920  10.805  37.247   8.343
 1466POPC   C3B21921  10.845  37.061   7.939
 1466POPC   C4B21922  10.759  37.126   7.482
 1467POPC   NC321923   8.285   9.562   9.817
 1467POPC   PO421924   8.036   8.909   9.528
 1467POPC   GL121925   8.166   9.070   9.155
 1467POPC   GL221926   8.411   8.906   8.986
 1467POPC   C1A21927   7.991   9.065   8.755
 1467POPC   D2A21928   7.843   8.879   8.371
 1467POPC   C3A21929   7.945   9.077   7.996
 1467POPC   C4A21930   8.331   9.056   7.777
 1467POPC   C1B21931   8.563   9.218   8.668
 1467POPC   C2B21932   8.505   9.169   8.247
 1467POPC   C3B21933   8.388   8.738   8.172
 1467POPC   C4B21934   8.405   8.525   7.760
 1468POPC   NC321935  11.375  22.531   9.675
 1468POPC   PO421936  11.556  21.883   9.766
 1468POPC   GL121937  11.508  22.137   9.328
 1468POPC   GL221938  11.833  22.193   9.183
 1468POPC   C1A21939  11.262  22.202   8.893
 1468POPC   D2A21940  11.088  22.392   8.478
 1468POPC   C3A21941  11.112  22.264   8.037
 1468POPC   C4A21942  11.157  22.308   7.596
 1468POPC   C1B21943  11.757  22.229   8.744
 1468POPC   C2B21944  11.569  22.282   8.305
 1468POPC   C3B21945  11.602  22.223   7.836
 1468POPC   C4B21946  11.671  22.307   7.346
 1469POPC   NC321947   2.948  17.135   9.553
 1469POPC   PO421948   3.542  16.736   9.608
 1469POPC   GL121949   3.331  16.761   9.242
 1469POPC   GL221950   3.603  16.917   9.076
 1469POPC   C1A21951   3.261  16.683   8.816
 1469POPC   D2A21952   3.267  16.737   8.388
 1469POPC   C3A21953   3.545  16.716   8.056
 1469POPC   C4A21954   3.662  16.362   7.834
 1469POPC   C1B21955   3.631  17.011   8.649
 1469POPC   C2B21956   3.847  17.088   8.302
 1469POPC   C3B21957   3.924  17.218   7.924
 1469POPC   C4B21958   3.636  17.053   7.694
 1470POPC   NC321959  14.031  21.780   9.573
 1470POPC   PO421960  14.594  21.421   9.466
 1470POPC   GL121961  14.310  21.410   9.123
 1470POPC   GL221962  14.140  21.111   9.257
 1470POPC   C1A21963  14.385  21.419   8.660
 1470POPC   D2A21964  14.414  21.792   8.356
 1470POPC   C3A21965  14.557  21.727   7.971
 1470POPC   C4A21966  14.684  21.368   7.794
 1470POPC   C1B21967  14.047  21.047   8.813
 1470POPC   C2B21968  14.003  21.223   8.391
 1470POPC   C3B21969  14.269  21.318   8.112
 1470POPC   C4B21970  14.141  21.397   7.728
 1471POPC   NC321971  12.919  15.793   9.546
 1471POPC   PO421972  12.535  16.310   9.594
 1471POPC   GL121973  12.740  16.191   9.221
 1471POPC   GL221974  12.863  15.863   9.053
 1471POPC   C1A21975  12.641  16.245   8.797
 1471POPC   D2A21976  12.737  15.893   8.538
 1471POPC   C3A21977  12.736  16.007   8.118
 1471POPC   C4A21978  12.629  16.138   7.747
 1471POPC   C1B21979  13.173  15.543   8.917
 1471POPC   C2B21980  13.168  15.380   8.508
 1471POPC   C3B21981  12.959  15.571   8.190
 1471POPC   C4B21982  12.996  15.756   7.756
 1472POPC   NC321983  14.912  30.168   9.566
 1472POPC   PO421984  15.388  29.683   9.491
 1472POPC   GL121985  15.173  29.771   9.129
 1472POPC   GL221986  15.061  30.113   9.085
 1472POPC   C1A21987  15.026  29.713   8.714
 1472POPC   D2A21988  15.177  29.935   8.350
 1472POPC   C3A21989  15.139  29.749   7.963
 1472POPC   C4A21990  15.453  29.521   7.702
 1472POPC   C1B21991  14.865  30.200   8.671
 1472POPC   C2B21992  14.781  30.230   8.213
 1472POPC   C3B21993  15.079  30.270   7.856
 1472POPC   C4B21994  15.101  30.246   7.412
 1473POPC   NC321995  16.316  27.025   9.492
 1473POPC   PO421996  17.019  26.742   9.470
 1473POPC   GL121997  16.804  26.723   9.098
 1473POPC   GL221998  16.431  26.686   9.100
 1473POPC   C1A21999  16.734  27.016   8.801
 1473POPC   D2A22000  16.823  27.334   8.514
 1473POPC   C3A22001  16.836  27.162   8.117
 1473POPC   C4A22002  16.974  26.954   7.771
 1473POPC   C1B22003  16.214  26.873   8.751
 1473POPC   C2B22004  16.428  26.977   8.377
 1473POPC   C3B22005  16.625  26.693   8.086
 1473POPC   C4B22006  16.604  26.632   7.653
 1474POPC   NC322007  41.256  36.925   9.306
 1474POPC   PO422008  41.889  36.701   9.228
 1474POPC   GL122009  41.661  37.004   8.978
 1474POPC   GL222010  41.506  36.788   8.861
 1474POPC   C1A22011  41.604  37.150   8.525
 1474POPC   D2A22012  41.516  36.767   8.287
 1474POPC   C3A22013  41.631  36.778   7.852
 1474POPC   C4A22014  41.929  36.668   7.554
 1474POPC   C1B22015  41.171  36.881   8.665
 1474POPC   C2B22016  41.026  37.015   8.305
 1474POPC   C3B22017  41.134  36.874   7.930
 1474POPC   C4B22018  41.201  37.019   7.537
 1475POPC   NC322019   8.184  44.800   9.594
 1475POPC   PO422020   8.181   0.435   9.782
 1475POPC   GL122021   8.030   0.203   9.349
 1475POPC   GL222022   8.383   0.149   9.247
 1475POPC   C1A22023   8.042   0.209   8.873
 1475POPC   D2A22024   8.251   0.480   8.578
 1475POPC   C3A22025   8.175   0.406   8.140
 1475POPC   C4A22026   8.135   0.407   7.714
 1475POPC   C1B22027   8.550   0.094   8.816
 1475POPC   C2B22028   8.485   0.054   8.370
 1475POPC   C3B22029   8.665   0.300   8.024
 1475POPC   C4B22030   8.618   0.286   7.582
 1476POPC   NC322031  28.471   6.051   9.585
 1476POPC   PO422032  27.847   6.012   9.485
 1476POPC   GL122033  28.131   6.083   9.183
 1476POPC   GL222034  28.302   5.783   9.169
 1476POPC   C1A22035  28.083   6.032   8.749
 1476POPC   D2A22036  28.262   5.767   8.440
 1476POPC   C3A22037  28.348   6.023   8.117
 1476POPC   C4A22038  28.322   6.053   7.702
 1476POPC   C1B22039  28.579   6.058   8.909
 1476POPC   C2B22040  28.730   6.000   8.490
 1476POPC   C3B22041  28.761   5.739   8.116
 1476POPC   C4B22042  28.781   5.801   7.674
 1477POPC   NC322043  32.061  22.004   9.520
 1477POPC   PO422044  32.560  22.383   9.468
 1477POPC   GL122045  32.373  22.115   9.144
 1477POPC   GL222046  32.041  22.231   9.078
 1477POPC   C1A22047  32.267  21.858   8.782
 1477POPC   D2A22048  32.540  21.659   8.491
 1477POPC   C3A22049  32.410  21.649   8.067
 1477POPC   C4A22050  32.278  22.024   7.873
 1477POPC   C1B22051  32.300  22.405   8.731
 1477POPC   C2B22052  32.160  22.408   8.313
 1477POPC   C3B22053  31.849  22.303   8.022
 1477POPC   C4B22054  31.933  22.263   7.593
 1478POPC   NC322055  22.516  31.383   9.474
 1478POPC   PO422056  22.056  31.803   9.683
 1478POPC   GL122057  22.089  31.532   9.249
 1478POPC   GL222058  21.868  31.621   8.992
 1478POPC   C1A22059  22.278  31.344   8.817
 1478POPC   D2A22060  22.368  31.290   8.338
 1478POPC   C3A22061  22.409  31.052   7.935
 1478POPC   C4A22062  22.238  31.317   7.584
 1478POPC   C1B22063  21.803  31.163   8.841
 1478POPC   C2B22064  21.844  31.010   8.411
 1478POPC   C3B22065  21.914  31.196   7.985
 1478POPC   C4B22066  21.718  31.201   7.559
 1479POPC   NC322067   4.227  28.286   9.472
 1479POPC   PO422068   4.756  27.832   9.364
 1479POPC   GL122069   4.649  28.292   9.132
 1479POPC   GL222070   4.286  28.391   8.968
 1479POPC   C1A22071   4.679  28.494   8.683
 1479POPC   D2A22072   4.302  28.466   8.415
 1479POPC   C3A22073   4.243  28.425   7.955
 1479POPC   C4A22074   4.252  28.605   7.524
 1479POPC   C1B22075   4.027  28.051   8.710
 1479POPC   C2B22076   3.900  27.771   8.337
 1479POPC   C3B22077   3.961  27.970   7.918
 1479POPC   C4B22078   3.824  28.285   7.625
 1480POPC   NC322079   3.288  19.623   9.612
 1480POPC   PO422080   2.677  19.973   9.452
 1480POPC   GL122081   2.892  19.872   9.111
 1480POPC   GL222082   2.945  19.541   9.174
 1480POPC   C1A22083   3.061  19.728   8.713
 1480POPC   D2A22084   3.061  19.536   8.316
 1480POPC   C3A22085   2.908  19.765   7.930
 1480POPC   C4A22086   2.929  20.051   7.511
 1480POPC   C1B22087   2.596  19.559   8.813
 1480POPC   C2B22088   2.577  19.393   8.395
 1480POPC   C3B22089   2.490  19.506   8.002
 1480POPC   C4B22090   2.491  19.759   7.623
 1481POPC   NC322091  16.156  25.311   9.434
 1481POPC   PO422092  15.719  24.844   9.430
 1481POPC   GL122093  15.761  25.020   9.016
 1481POPC   GL222094  15.939  25.348   8.971
 1481POPC   C1A22095  15.746  25.057   8.582
 1481POPC   D2A22096  15.839  25.109   8.163
 1481POPC   C3A22097  16.169  25.413   8.030
 1481POPC   C4A22098  16.356  25.622   7.669
 1481POPC   C1B22099  16.218  25.013   8.801
 1481POPC   C2B22100  16.187  24.817   8.386
 1481POPC   C3B22101  16.220  24.896   7.926
 1481POPC   C4B22102  16.402  25.072   7.565
 1482POPC   NC322103  10.382  38.565   9.457
 1482POPC   PO422104  10.989  38.785   9.621
 1482POPC   GL122105  10.864  38.597   9.211
 1482POPC   GL222106  11.025  38.277   9.122
 1482POPC   C1A22107  10.560  38.575   8.839
 1482POPC   D2A22108  10.311  38.452   8.466
 1482POPC   C3A22109  10.392  38.372   8.034
 1482POPC   C4A22110  10.506  38.545   7.637
 1482POPC   C1B22111  10.930  38.272   8.685
 1482POPC   C2B22112  10.801  38.193   8.280
 1482POPC   C3B22113  10.889  38.449   7.919
 1482POPC   C4B22114  10.933  38.383   7.440
 1483POPC   NC322115   7.897  20.422   9.544
 1483POPC   PO422116   8.515  20.391   9.500
 1483POPC   GL122117   8.205  20.653   9.184
 1483POPC   GL222118   7.949  20.435   9.020
 1483POPC   C1A22119   7.992  20.870   8.777
 1483POPC   D2A22120   7.970  20.675   8.313
 1483POPC   C3A22121   8.085  20.829   7.849
 1483POPC   C4A22122   8.037  21.034   7.416
 1483POPC   C1B22123   8.346  20.504   8.729
 1483POPC   C2B22124   8.492  20.459   8.304
 1483POPC   C3B22125   8.570  20.694   7.925
 1483POPC   C4B22126   8.781  20.577   7.544
 1484POPC   NC322127  19.960  44.766   9.377
 1484POPC   PO422128  19.387  44.282   9.369
 1484POPC   GL122129  19.601  44.530   9.068
 1484POPC   GL222130  19.714  44.882   8.967
 1484POPC   C1A22131  19.793  44.454   8.686
 1484POPC   D2A22132  19.781  44.702   8.338
 1484POPC   C3A22133  19.672  44.496   7.963
 1484POPC   C4A22134  19.741  44.829   7.700
 1484POPC   C1B22135  20.108  44.865   8.749
 1484POPC   C2B22136  20.291  44.627   8.409
 1484POPC   C3B22137  20.179  44.701   7.955
 1484POPC   C4B22138  20.241  44.976   7.601
 1485POPC   NC322139  26.700  33.755   9.568
 1485POPC   PO422140  27.329  33.540   9.496
 1485POPC   GL122141  27.186  33.831   9.149
 1485POPC   GL222142  26.858  33.987   9.153
 1485POPC   C1A22143  27.090  33.853   8.713
 1485POPC   D2A22144  26.931  33.678   8.363
 1485POPC   C3A22145  27.081  33.726   7.980
 1485POPC   C4A22146  26.754  33.587   7.754
 1485POPC   C1B22147  26.555  33.945   8.842
 1485POPC   C2B22148  26.642  34.090   8.457
 1485POPC   C3B22149  26.578  33.993   8.053
 1485POPC   C4B22150  26.562  34.204   7.669
 1486POPC   NC322151  20.083   2.119   9.601
 1486POPC   PO422152  19.472   1.845   9.722
 1486POPC   GL122153  19.701   1.765   9.286
 1486POPC   GL222154  19.819   2.099   9.158
 1486POPC   C1A22155  19.794   1.712   8.821
 1486POPC   D2A22156  19.725   1.991   8.465
 1486POPC   C3A22157  19.669   1.868   8.045
 1486POPC   C4A22158  19.620   2.108   7.706
 1486POPC   C1B22159  20.212   2.004   8.923
 1486POPC   C2B22160  20.216   1.844   8.506
 1486POPC   C3B22161  20.219   1.996   8.080
 1486POPC   C4B22162  20.085   1.917   7.656
 1487POPC   NC322163  30.441  41.143   9.410
 1487POPC   PO422164  31.039  40.907   9.653
 1487POPC   GL122165  30.884  41.005   9.161
 1487POPC   GL222166  30.578  40.796   9.057
 1487POPC   C1A22167  30.885  40.790   8.663
 1487POPC   D2A22168  30.659  40.727   8.241
 1487POPC   C3A22169  30.931  40.740   7.856
 1487POPC   C4A22170  31.008  40.870   7.384
 1487POPC   C1B22171  30.514  41.139   8.766
 1487POPC   C2B22172  30.383  41.192   8.344
 1487POPC   C3B22173  30.650  41.188   8.006
 1487POPC   C4B22174  30.568  40.990   7.636
 1488POPC   NC322175  30.272  17.992   9.542
 1488POPC   PO422176  29.655  18.030   9.614
 1488POPC   GL122177  29.914  18.162   9.215
 1488POPC   GL222178  30.081  17.894   9.075
 1488POPC   C1A22179  30.091  18.328   8.809
 1488POPC   D2A22180  30.079  18.472   8.378
 1488POPC   C3A22181  30.102  18.459   7.919
 1488POPC   C4A22182  29.842  18.386   7.519
 1488POPC   C1B22183  30.038  17.851   8.629
 1488POPC   C2B22184  30.113  17.986   8.213
 1488POPC   C3B22185  30.161  17.967   7.791
 1488POPC   C4B22186  30.298  18.080   7.412
 1489POPC   NC322187  34.971  11.388   9.534
 1489POPC   PO422188  34.258  11.226   9.637
 1489POPC   GL122189  34.509  11.438   9.275
 1489POPC   GL222190  34.729  11.247   9.080
 1489POPC   C1A22191  34.469  11.580   8.816
 1489POPC   D2A22192  34.574  11.347   8.421
 1489POPC   C3A22193  34.281  11.361   8.095
 1489POPC   C4A22194  34.515  11.397   7.746
 1489POPC   C1B22195  34.863  10.991   8.668
 1489POPC   C2B22196  34.872  10.971   8.177
 1489POPC   C3B22197  34.931  11.070   7.723
 1489POPC   C4B22198  35.188  11.150   7.330
 1490POPC   NC322199  17.153  37.932   9.553
 1490POPC   PO422200  17.643  37.548   9.538
 1490POPC   GL122201  17.656  37.696   9.134
 1490POPC   GL222202  17.573  37.365   9.065
 1490POPC   C1A22203  17.379  37.747   8.738
 1490POPC   D2A22204  17.111  37.715   8.352
 1490POPC   C3A22205  17.346  37.689   7.944
 1490POPC   C4A22206  17.455  37.317   7.705
 1490POPC   C1B22207  17.787  37.410   8.697
 1490POPC   C2B22208  17.636  37.412   8.284
 1490POPC   C3B22209  17.871  37.533   7.923
 1490POPC   C4B22210  17.880  37.689   7.506
 1491POPC   NC322211  44.968  26.919   9.552
 1491POPC   PO422212  44.332  26.833   9.410
 1491POPC   GL122213  44.624  26.802   9.083
 1491POPC   GL222214  44.957  26.963   9.032
 1491POPC   C1A22215  44.454  26.763   8.685
 1491POPC   D2A22216  44.382  26.528   8.340
 1491POPC   C3A22217  44.567  26.651   7.978
 1491POPC   C4A22218  44.424  27.012   7.777
 1491POPC   C1B22219  44.939  26.716   8.662
 1491POPC   C2B22220  44.776  26.977   8.321
 1491POPC   C3B22221  44.938  26.989   7.902
 1491POPC   C4B22222  44.809  26.754   7.529
 1492POPC   NC322223  31.900  20.438   9.498
 1492POPC   PO422224  31.249  20.431   9.455
 1492POPC   GL122225  31.361  20.693   9.117
 1492POPC   GL222226  31.721  20.832   9.132
 1492POPC   C1A22227  31.170  20.556   8.752
 1492POPC   D2A22228  31.113  20.679   8.365
 1492POPC   C3A22229  31.334  20.482   8.067
 1492POPC   C4A22230  31.221  20.594   7.682
 1492POPC   C1B22231  31.678  20.665   8.701
 1492POPC   C2B22232  31.599  20.875   8.315
 1492POPC   C3B22233  31.564  20.936   7.892
 1492POPC   C4B22234  31.616  20.811   7.454
 1493POPC   NC322235  12.613  17.601   9.430
 1493POPC   PO422236  13.128  17.421   9.791
 1493POPC   GL122237  13.141  17.399   9.302
 1493POPC   GL222238  13.098  17.708   9.127
 1493POPC   C1A22239  12.958  17.306   8.852
 1493POPC   D2A22240  12.751  17.150   8.456
 1493POPC   C3A22241  12.743  17.404   8.056
 1493POPC   C4A22242  12.911  17.517   7.654
 1493POPC   C1B22243  13.186  17.911   8.730
 1493POPC   C2B22244  12.966  17.850   8.329
 1493POPC   C3B22245  13.101  17.912   7.923
 1493POPC   C4B22246  13.369  17.737   7.608
 1494POPC   NC322247  30.509   0.454   9.664
 1494POPC   PO422248  31.111   0.373   9.442
 1494POPC   GL122249  30.754   0.247   9.210
 1494POPC   GL222250  30.387   0.319   9.192
 1494POPC   C1A22251  30.730   0.318   8.793
 1494POPC   D2A22252  30.769   0.289   8.385
 1494POPC   C3A22253  30.760   0.649   8.148
 1494POPC   C4A22254  30.686   0.669   7.714
 1494POPC   C1B22255  30.261   0.115   8.814
 1494POPC   C2B22256  30.321   0.079   8.382
 1494POPC   C3B22257  30.443   0.289   7.982
 1494POPC   C4B22258  30.377   0.188   7.546
 1495POPC   NC322259  33.526  18.470   9.402
 1495POPC   PO422260  34.056  18.048   9.361
 1495POPC   GL122261  33.846  18.253   9.069
 1495POPC   GL222262  33.938  18.565   9.107
 1495POPC   C1A22263  33.614  18.250   8.708
 1495POPC   D2A22264  33.765  18.121   8.334
 1495POPC   C3A22265  33.590  18.391   8.036
 1495POPC   C4A22266  33.402  18.290   7.646
 1495POPC   C1B22267  33.814  18.739   8.757
 1495POPC   C2B22268  33.945  18.586   8.387
 1495POPC   C3B22269  34.062  18.692   7.999
 1495POPC   C4B22270  33.848  18.566   7.637
 1496POPC   NC322271   8.515  28.368   9.150
 1496POPC   PO422272   7.916  28.475   9.396
 1496POPC   GL122273   8.072  28.604   9.003
 1496POPC   GL222274   8.374  28.768   8.855
 1496POPC   C1A22275   8.029  28.378   8.635
 1496POPC   D2A22276   7.708  28.356   8.346
 1496POPC   C3A22277   7.851  28.513   7.977
 1496POPC   C4A22278   8.136  28.524   7.623
 1496POPC   C1B22279   8.490  28.542   8.454
 1496POPC   C2B22280   8.277  28.265   8.147
 1496POPC   C3B22281   8.247  28.049   7.731
 1496POPC   C4B22282   8.520  27.970   7.383
 1497POPC   NC322283  44.556   4.421   9.479
 1497POPC   PO422284   0.052   3.983   9.342
 1497POPC   GL122285  44.914   4.301   9.065
 1497POPC   GL222286  44.613   4.513   9.000
 1497POPC   C1A22287  44.982   4.487   8.659
 1497POPC   D2A22288  44.709   4.463   8.327
 1497POPC   C3A22289  44.804   4.320   7.933
 1497POPC   C4A22290  44.610   4.219   7.530
 1497POPC   C1B22291  44.338   4.656   8.701
 1497POPC   C2B22292  44.358   4.817   8.306
 1497POPC   C3B22293  44.472   4.733   7.883
 1497POPC   C4B22294  44.208   4.507   7.614
 1498POPC   NC322295  31.814  10.714   9.515
 1498POPC   PO422296  31.261  10.347   9.469
 1498POPC   GL122297  31.183  10.455   9.088
 1498POPC   GL222298  31.402  10.726   9.120
 1498POPC   C1A22299  31.320  10.246   8.716
 1498POPC   D2A22300  31.509  10.398   8.336
 1498POPC   C3A22301  31.253  10.689   8.074
 1498POPC   C4A22302  31.404  10.410   7.749
 1498POPC   C1B22303  31.311  10.787   8.689
 1498POPC   C2B22304  31.625  10.892   8.397
 1498POPC   C3B22305  31.745  10.798   7.969
 1498POPC   C4B22306  31.652  10.765   7.481
 1499POPC   NC322307   7.739  19.485   9.856
 1499POPC   PO422308   7.586  20.048   9.640
 1499POPC   GL122309   7.423  20.041   9.145
 1499POPC   GL222310   7.030  20.043   9.072
 1499POPC   C1A22311   7.326  20.132   8.668
 1499POPC   D2A22312   7.091  19.930   8.301
 1499POPC   C3A22313   7.188  20.074   7.895
 1499POPC   C4A22314   7.476  19.894   7.574
 1499POPC   C1B22315   7.114  19.681   8.764
 1499POPC   C2B22316   7.430  19.559   8.406
 1499POPC   C3B22317   7.565  19.528   7.948
 1499POPC   C4B22318   7.521  19.378   7.516
 1500POPC   NC322319   8.299  37.749   9.586
 1500POPC   PO422320   7.653  37.877   9.542
 1500POPC   GL122321   7.792  37.649   9.196
 1500POPC   GL222322   8.060  37.897   9.144
 1500POPC   C1A22323   8.064  37.442   8.894
 1500POPC   D2A22324   8.347  37.500   8.554
 1500POPC   C3A22325   8.223  37.684   8.183
 1500POPC   C4A22326   8.176  37.428   7.845
 1500POPC   C1B22327   8.447  37.891   8.903
 1500POPC   C2B22328   8.548  37.987   8.463
 1500POPC   C3B22329   8.584  38.063   8.027
 1500POPC   C4B22330   8.320  37.900   7.694
 1501POPC   NC322331  35.875  20.359   9.489
 1501POPC   PO422332  36.489  20.704   9.548
 1501POPC   GL122333  36.402  20.496   9.179
 1501POPC   GL222334  36.088  20.627   9.122
 1501POPC   C1A22335  36.451  20.585   8.742
 1501POPC   D2A22336  36.500  20.832   8.374
 1501POPC   C3A22337  36.273  20.825   7.964
 1501POPC   C4A22338  36.085  20.480   7.711
 1501POPC   C1B22339  35.951  20.515   8.719
 1501POPC   C2B22340  36.083  20.503   8.322
 1501POPC   C3B22341  35.765  20.665   8.089
 1501POPC   C4B22342  35.661  20.814   7.713
 1502POPC   NC322343  31.773   8.618   9.472
 1502POPC   PO422344  31.213   8.981   9.569
 1502POPC   GL122345  31.488   8.927   9.144
 1502POPC   GL222346  31.825   9.001   9.141
 1502POPC   C1A22347  31.613   9.131   8.710
 1502POPC   D2A22348  31.465   9.051   8.278
 1502POPC   C3A22349  31.308   9.352   7.972
 1502POPC   C4A22350  31.279   9.339   7.509
 1502POPC   C1B22351  31.874   8.696   8.778
 1502POPC   C2B22352  31.687   8.559   8.349
 1502POPC   C3B22353  31.531   8.662   7.940
 1502POPC   C4B22354  31.625   9.038   7.733
 1503POPC   NC322355  44.268  14.389   9.433
 1503POPC   PO422356  43.573  14.205   9.571
 1503POPC   GL122357  43.773  14.367   9.226
 1503POPC   GL222358  43.954  14.102   9.109
 1503POPC   C1A22359  43.917  14.585   8.856
 1503POPC   D2A22360  44.065  14.698   8.440
 1503POPC   C3A22361  43.829  14.515   8.098
 1503POPC   C4A22362  43.836  14.461   7.675
 1503POPC   C1B22363  43.840  14.114   8.695
 1503POPC   C2B22364  44.103  14.177   8.349
 1503POPC   C3B22365  44.046  14.057   7.914
 1503POPC   C4B22366  44.123  14.076   7.448
 1504POPC   NC322367  42.787  37.880   9.522
 1504POPC   PO422368  42.237  37.435   9.582
 1504POPC   GL122369  42.159  37.709   9.209
 1504POPC   GL222370  42.372  37.514   9.033
 1504POPC   C1A22371  42.110  37.869   8.739
 1504POPC   D2A22372  42.291  37.823   8.293
 1504POPC   C3A22373  42.481  37.412   8.160
 1504POPC   C4A22374  42.392  37.359   7.726
 1504POPC   C1B22375  42.559  37.589   8.656
 1504POPC   C2B22376  42.818  37.803   8.356
 1504POPC   C3B22377  42.691  37.806   7.897
 1504POPC   C4B22378  42.715  37.836   7.419
 1505POPC   NC322379   9.020  28.651   9.496
 1505POPC   PO422380   8.822  28.036   9.246
 1505POPC   GL122381   9.065  28.354   9.087
 1505POPC   GL222382   9.239  28.117   8.906
 1505POPC   C1A22383   9.168  28.613   8.718
 1505POPC   D2A22384   8.992  28.654   8.273
 1505POPC   C3A22385   9.145  28.488   7.862
 1505POPC   C4A22386   9.154  28.117   7.570
 1505POPC   C1B22387   8.883  28.225   8.617
 1505POPC   C2B22388   8.819  28.136   8.224
 1505POPC   C3B22389   8.719  28.157   7.849
 1505POPC   C4B22390   8.732  28.410   7.518
 1506POPC   NC322391  21.183   5.324   9.322
 1506POPC   PO422392  21.206   5.911   9.609
 1506POPC   GL122393  21.413   5.906   9.208
 1506POPC   GL222394  21.556   5.599   9.124
 1506POPC   C1A22395  21.279   6.007   8.796
 1506POPC   D2A22396  21.451   6.010   8.389
 1506POPC   C3A22397  21.227   5.830   8.069
 1506POPC   C4A22398  21.240   5.966   7.664
 1506POPC   C1B22399  21.668   5.687   8.735
 1506POPC   C2B22400  21.568   5.481   8.402
 1506POPC   C3B22401  21.714   5.686   8.099
 1506POPC   C4B22402  21.749   5.869   7.752
 1507POPC   NC322403  32.974   6.875   9.467
 1507POPC   PO422404  33.289   6.329   9.531
 1507POPC   GL122405  33.268   6.579   9.161
 1507POPC   GL222406  33.512   6.785   9.131
 1507POPC   C1A22407  33.065   6.654   8.752
 1507POPC   D2A22408  32.888   6.791   8.339
 1507POPC   C3A22409  32.909   6.676   7.885
 1507POPC   C4A22410  32.643   6.814   7.543
 1507POPC   C1B22411  33.472   6.941   8.755
 1507POPC   C2B22412  33.330   7.031   8.380
 1507POPC   C3B22413  33.367   6.782   8.065
 1507POPC   C4B22414  33.490   6.641   7.681
 1508POPC   NC322415  32.525  39.283   9.420
 1508POPC   PO422416  31.911  38.935   9.470
 1508POPC   GL122417  32.190  38.981   9.143
 1508POPC   GL222418  32.223  39.352   9.018
 1508POPC   C1A22419  32.104  38.953   8.736
 1508POPC   D2A22420  32.104  39.285   8.482
 1508POPC   C3A22421  32.120  39.056   8.108
 1508POPC   C4A22422  32.277  39.080   7.704
 1508POPC   C1B22423  32.572  39.527   8.763
 1508POPC   C2B22424  32.547  39.691   8.355
 1508POPC   C3B22425  32.368  39.515   7.988
 1508POPC   C4B22426  32.609  39.512   7.641
 1509POPC   NC322427  41.089  40.618   9.520
 1509POPC   PO422428  40.750  41.172   9.504
 1509POPC   GL122429  40.686  41.094   9.100
 1509POPC   GL222430  40.813  40.760   9.124
 1509POPC   C1A22431  40.822  40.992   8.694
 1509POPC   D2A22432  40.770  40.746   8.389
 1509POPC   C3A22433  40.906  40.973   8.074
 1509POPC   C4A22434  40.754  40.966   7.721
 1509POPC   C1B22435  41.115  40.560   8.826
 1509POPC   C2B22436  41.141  40.390   8.391
 1509POPC   C3B22437  40.892  40.473   7.984
 1509POPC   C4B22438  40.882  40.536   7.539
 1510POPC   NC322439  12.205  15.894   9.574
 1510POPC   PO422440  11.894  16.444   9.423
 1510POPC   GL122441  12.212  16.182   9.146
 1510POPC   GL222442  12.345  15.807   9.092
 1510POPC   C1A22443  12.172  16.135   8.687
 1510POPC   D2A22444  12.273  16.014   8.292
 1510POPC   C3A22445  12.222  16.323   8.022
 1510POPC   C4A22446  11.858  16.296   7.782
 1510POPC   C1B22447  11.896  15.782   8.916
 1510POPC   C2B22448  11.730  15.932   8.496
 1510POPC   C3B22449  11.831  15.843   8.043
 1510POPC   C4B22450  12.187  15.873   7.749
 1511POPC   NC322451   1.937  38.116   9.499
 1511POPC   PO422452   1.601  38.624   9.424
 1511POPC   GL122453   1.837  38.429   9.088
 1511POPC   GL222454   2.021  38.682   9.047
 1511POPC   C1A22455   1.997  38.252   8.646
 1511POPC   D2A22456   1.899  38.002   8.265
 1511POPC   C3A22457   1.938  38.171   7.889
 1511POPC   C4A22458   2.158  38.441   7.651
 1511POPC   C1B22459   1.797  38.702   8.650
 1511POPC   C2B22460   1.858  38.555   8.230
 1511POPC   C3B22461   1.884  38.798   7.863
 1511POPC   C4B22462   1.677  38.873   7.454
 1512POPC   NC322463   1.044   3.801   9.389
 1512POPC   PO422464   1.640   3.519   9.462
 1512POPC   GL122465   1.448   3.390   9.062
 1512POPC   GL222466   1.081   3.349   9.079
 1512POPC   C1A22467   1.341   3.208   8.644
 1512POPC   D2A22468   1.483   3.123   8.219
 1512POPC   C3A22469   1.416   3.386   7.838
 1512POPC   C4A22470   1.156   3.790   7.741
 1512POPC   C1B22471   1.111   3.656   8.754
 1512POPC   C2B22472   1.207   3.632   8.329
 1512POPC   C3B22473   0.983   3.344   8.107
 1512POPC   C4B22474   0.934   3.336   7.669
 1513POPC   NC322475  28.622  40.456   9.472
 1513POPC   PO422476  29.148  40.924   9.411
 1513POPC   GL122477  29.070  40.657   9.104
 1513POPC   GL222478  29.392  40.706   8.947
 1513POPC   C1A22479  28.912  40.747   8.706
 1513POPC   D2A22480  29.045  40.820   8.270
 1513POPC   C3A22481  29.253  40.580   7.945
 1513POPC   C4A22482  29.117  40.609   7.529
 1513POPC   C1B22483  29.535  40.978   8.605
 1513POPC   C2B22484  29.509  40.995   8.133
 1513POPC   C3B22485  29.346  41.052   7.715
 1513POPC   C4B22486  29.402  40.997   7.275
 1514POPC   NC322487  18.379  41.881   9.377
 1514POPC   PO422488  18.551  41.341   9.725
 1514POPC   GL122489  18.524  41.363   9.263
 1514POPC   GL222490  18.223  41.338   9.129
 1514POPC   C1A22491  18.531  41.509   8.782
 1514POPC   D2A22492  18.623  41.416   8.358
 1514POPC   C3A22493  18.458  41.470   7.953
 1514POPC   C4A22494  18.625  41.783   7.695
 1514POPC   C1B22495  18.010  41.551   8.791
 1514POPC   C2B22496  18.131  41.645   8.380
 1514POPC   C3B22497  17.947  41.511   7.996
 1514POPC   C4B22498  17.707  41.407   7.596
 1515POPC   NC322499  36.179  38.261   9.692
 1515POPC   PO422500  36.423  38.843   9.522
 1515POPC   GL122501  36.431  38.491   9.195
 1515POPC   GL222502  36.130  38.348   9.121
 1515POPC   C1A22503  36.417  38.446   8.698
 1515POPC   D2A22504  36.180  38.665   8.293
 1515POPC   C3A22505  36.227  38.596   7.828
 1515POPC   C4A22506  36.457  38.794   7.459
 1515POPC   C1B22507  35.920  38.315   8.708
 1515POPC   C2B22508  35.806  38.311   8.270
 1515POPC   C3B22509  35.914  38.072   7.898
 1515POPC   C4B22510  35.815  38.155   7.483
 1516POPC   NC322511   5.579  22.143   9.212
 1516POPC   PO422512   5.085  21.912   9.712
 1516POPC   GL122513   5.054  22.101   9.302
 1516POPC   GL222514   4.730  21.938   9.307
 1516POPC   C1A22515   5.028  22.169   8.810
 1516POPC   D2A22516   5.168  22.041   8.361
 1516POPC   C3A22517   5.085  22.262   7.964
 1516POPC   C4A22518   5.291  22.286   7.574
 1516POPC   C1B22519   4.681  21.751   8.892
 1516POPC   C2B22520   4.678  21.911   8.486
 1516POPC   C3B22521   4.749  21.889   8.061
 1516POPC   C4B22522   4.894  21.912   7.611
 1517POPC   NC322523  44.950  16.126   9.778
 1517POPC   PO422524  44.539  16.313   9.319
 1517POPC   GL122525  44.715  16.074   9.032
 1517POPC   GL222526  44.900  15.817   9.069
 1517POPC   C1A22527  44.565  16.000   8.646
 1517POPC   D2A22528  44.530  16.247   8.298
 1517POPC   C3A22529  44.531  16.042   7.905
 1517POPC   C4A22530  44.315  16.177   7.536
 1517POPC   C1B22531   0.021  15.744   8.651
 1517POPC   C2B22532  44.777  15.731   8.258
 1517POPC   C3B22533  44.943  15.753   7.824
 1517POPC   C4B22534   0.153  15.768   7.436
 1518POPC   NC322535  37.157  15.056   9.439
 1518POPC   PO422536  36.733  15.565   9.390
 1518POPC   GL122537  37.009  15.434   9.115
 1518POPC   GL222538  36.863  15.093   9.037
 1518POPC   C1A22539  37.153  15.389   8.723
 1518POPC   D2A22540  37.328  15.188   8.378
 1518POPC   C3A22541  37.014  15.277   8.060
 1518POPC   C4A22542  36.782  15.007   7.791
 1518POPC   C1B22543  36.608  15.352   8.785
 1518POPC   C2B22544  36.733  15.496   8.413
 1518POPC   C3B22545  36.515  15.441   8.025
 1518POPC   C4B22546  36.664  15.502   7.625
 1519POPC   NC322547  17.924  30.574   9.637
 1519POPC   PO422548  18.448  31.007   9.550
 1519POPC   GL122549  18.146  30.838   9.232
 1519POPC   GL222550  18.254  30.999   8.978
 1519POPC   C1A22551  18.069  30.571   8.801
 1519POPC   D2A22552  18.262  30.476   8.381
 1519POPC   C3A22553  18.172  30.667   8.010
 1519POPC   C4A22554  18.399  30.691   7.656
 1519POPC   C1B22555  18.544  30.752   8.726
 1519POPC   C2B22556  18.492  30.941   8.317
 1519POPC   C3B22557  18.717  31.053   7.944
 1519POPC   C4B22558  18.813  30.999   7.525
 1520POPC   NC322559  18.135  43.452   9.611
 1520POPC   PO422560  18.228  44.089   9.633
 1520POPC   GL122561  18.421  43.912   9.263
 1520POPC   GL222562  18.675  43.660   9.367
 1520POPC   C1A22563  18.292  43.918   8.825
 1520POPC   D2A22564  18.187  44.070   8.391
 1520POPC   C3A22565  18.193  43.890   7.944
 1520POPC   C4A22566  18.264  44.107   7.523
 1520POPC   C1B22567  18.712  43.652   8.908
 1520POPC   C2B22568  18.747  43.983   8.576
 1520POPC   C3B22569  18.664  43.975   8.132
 1520POPC   C4B22570  18.629  43.766   7.708
 1521POPC   NC322571   1.788   3.941   9.502
 1521POPC   PO422572   2.022   4.472   9.581
 1521POPC   GL122573   2.097   4.537   9.180
 1521POPC   GL222574   2.097   4.186   9.121
 1521POPC   C1A22575   2.094   4.539   8.734
 1521POPC   D2A22576   1.914   4.416   8.323
 1521POPC   C3A22577   1.947   4.632   7.916
 1521POPC   C4A22578   1.941   4.485   7.487
 1521POPC   C1B22579   2.025   4.034   8.678
 1521POPC   C2B22580   2.029   3.914   8.241
 1521POPC   C3B22581   1.957   4.091   7.830
 1521POPC   C4B22582   2.253   4.040   7.531
 1522POPC   NC322583  23.779  44.795   9.344
 1522POPC   PO422584  23.493   0.390   9.540
 1522POPC   GL122585  23.671   0.568   9.218
 1522POPC   GL222586  23.859   0.273   9.158
 1522POPC   C1A22587  23.687   0.768   8.817
 1522POPC   D2A22588  23.696   0.569   8.420
 1522POPC   C3A22589  23.711   0.801   8.066
 1522POPC   C4A22590  23.617   0.666   7.687
 1522POPC   C1B22591  24.003   0.345   8.762
 1522POPC   C2B22592  24.169   0.421   8.342
 1522POPC   C3B22593  23.982   0.384   7.927
 1522POPC   C4B22594  24.135   0.469   7.495
 1523POPC   NC322595  24.800  39.037   9.468
 1523POPC   PO422596  24.384  39.540   9.578
 1523POPC   GL122597  24.459  39.354   9.178
 1523POPC   GL222598  24.364  39.011   9.183
 1523POPC   C1A22599  24.568  39.377   8.738
 1523POPC   D2A22600  24.366  39.368   8.344
 1523POPC   C3A22601  24.605  39.367   7.979
 1523POPC   C4A22602  24.633  39.355   7.549
 1523POPC   C1B22603  24.249  38.843   8.787
 1523POPC   C2B22604  24.441  38.863   8.390
 1523POPC   C3B22605  24.582  38.865   7.962
 1523POPC   C4B22606  24.815  38.521   7.814
 1524POPC   NC322607   8.044  33.084   9.582
 1524POPC   PO422608   8.594  32.912   9.299
 1524POPC   GL122609   8.112  32.894   9.105
 1524POPC   GL222610   7.881  33.219   9.117
 1524POPC   C1A22611   8.005  32.704   8.682
 1524POPC   D2A22612   8.343  32.729   8.342
 1524POPC   C3A22613   8.307  32.881   7.905
 1524POPC   C4A22614   8.363  33.245   7.655
 1524POPC   C1B22615   7.964  33.202   8.682
 1524POPC   C2B22616   7.749  33.275   8.279
 1524POPC   C3B22617   7.847  33.327   7.819
 1524POPC   C4B22618   7.966  33.326   7.343
 1525POPC   NC322619  38.089  42.719   9.438
 1525POPC   PO422620  37.737  42.128   9.562
 1525POPC   GL122621  37.711  42.384   9.229
 1525POPC   GL222622  38.068  42.319   9.104
 1525POPC   C1A22623  37.603  42.258   8.828
 1525POPC   D2A22624  37.881  42.272   8.473
 1525POPC   C3A22625  37.650  42.279   8.099
 1525POPC   C4A22626  37.494  42.135   7.691
 1525POPC   C1B22627  37.914  42.659   8.826
 1525POPC   C2B22628  38.006  42.755   8.399
 1525POPC   C3B22629  38.046  42.616   7.998
 1525POPC   C4B22630  37.859  42.474   7.671
 1526POPC   NC322631  34.475  21.308   9.788
 1526POPC   PO422632  35.028  21.179   9.474
 1526POPC   GL122633  34.697  21.345   9.184
 1526POPC   GL222634  34.613  21.708   9.237
 1526POPC   C1A22635  34.572  21.277   8.731
 1526POPC   D2A22636  34.791  21.049   8.385
 1526POPC   C3A22637  34.849  21.232   7.969
 1526POPC   C4A22638  34.515  21.451   7.769
 1526POPC   C1B22639  34.843  21.722   8.828
 1526POPC   C2B22640  34.753  21.874   8.403
 1526POPC   C3B22641  34.904  21.793   7.978
 1526POPC   C4B22642  34.878  21.717   7.528
 1527POPC   NC322643  44.588   5.365   9.399
 1527POPC   PO422644  44.882   4.760   9.501
 1527POPC   GL122645  44.759   4.993   9.089
 1527POPC   GL222646  44.414   5.129   8.992
 1527POPC   C1A22647  44.732   4.989   8.626
 1527POPC   D2A22648  44.730   5.152   8.210
 1527POPC   C3A22649  44.974   4.817   7.987
 1527POPC   C4A22650  44.888   4.667   7.560
 1527POPC   C1B22651  44.115   5.403   8.755
 1527POPC   C2B22652  44.087   5.238   8.340
 1527POPC   C3B22653  44.263   5.203   7.935
 1527POPC   C4B22654  44.272   5.333   7.492
 1528POPC   NC322655   2.043  27.889   9.587
 1528POPC   PO422656   1.748  27.279   9.596
 1528POPC   GL122657   1.736  27.595   9.239
 1528POPC   GL222658   2.079  27.564   9.184
 1528POPC   C1A22659   1.737  27.588   8.758
 1528POPC   D2A22660   2.029  27.415   8.418
 1528POPC   C3A22661   1.884  27.307   7.992
 1528POPC   C4A22662   1.815  27.673   7.707
 1528POPC   C1B22663   2.236  27.709   8.810
 1528POPC   C2B22664   2.388  27.799   8.400
 1528POPC   C3B22665   2.244  27.660   7.989
 1528POPC   C4B22666   2.451  27.709   7.584
 1529POPC   NC322667  33.481  32.627   9.586
 1529POPC   PO422668  33.132  32.008   9.582
 1529POPC   GL122669  33.264  32.168   9.210
 1529POPC   GL222670  33.053  32.459   9.164
 1529POPC   C1A22671  33.083  32.119   8.786
 1529POPC   D2A22672  32.975  32.288   8.397
 1529POPC   C3A22673  33.252  32.166   8.060
 1529POPC   C4A22674  33.126  32.058   7.660
 1529POPC   C1B22675  33.145  32.627   8.747
 1529POPC   C2B22676  33.417  32.598   8.342
 1529POPC   C3B22677  33.424  32.622   7.866
 1529POPC   C4B22678  33.054  32.572   7.645
 1530POPC   NC322679  32.574  33.024   9.447
 1530POPC   PO422680  31.970  32.722   9.397
 1530POPC   GL122681  32.118  32.887   9.015
 1530POPC   GL222682  32.275  33.184   9.076
 1530POPC   C1A22683  32.165  33.074   8.587
 1530POPC   D2A22684  32.184  33.129   8.146
 1530POPC   C3A22685  32.207  32.758   7.976
 1530POPC   C4A22686  32.073  32.787   7.603
 1530POPC   C1B22687  32.586  33.367   8.772
 1530POPC   C2B22688  32.770  33.433   8.369
 1530POPC   C3B22689  32.581  33.415   7.964
 1530POPC   C4B22690  32.411  33.196   7.621
 1531POPC   NC322691  27.214  36.720   9.230
 1531POPC   PO422692  26.800  37.228   9.521
 1531POPC   GL122693  26.812  37.197   9.101
 1531POPC   GL222694  27.166  37.237   9.137
 1531POPC   C1A22695  26.634  37.003   8.707
 1531POPC   D2A22696  26.486  37.021   8.268
 1531POPC   C3A22697  26.695  36.860   7.943
 1531POPC   C4A22698  26.836  36.485   7.802
 1531POPC   C1B22699  27.146  37.154   8.711
 1531POPC   C2B22700  27.033  36.916   8.376
 1531POPC   C3B22701  27.218  36.932   8.004
 1531POPC   C4B22702  27.066  36.911   7.587
 1532POPC   NC322703   1.231  39.907   9.621
 1532POPC   PO422704   1.183  39.178   9.461
 1532POPC   GL122705   1.303  39.181   9.068
 1532POPC   GL222706   1.522  38.907   9.020
 1532POPC   C1A22707   1.087  39.270   8.700
 1532POPC   D2A22708   1.297  39.213   8.324
 1532POPC   C3A22709   0.995  39.134   8.039
 1532POPC   C4A22710   0.788  39.366   7.716
 1532POPC   C1B22711   1.292  38.801   8.677
 1532POPC   C2B22712   1.362  38.704   8.269
 1532POPC   C3B22713   1.350  38.814   7.862
 1532POPC   C4B22714   1.256  39.158   7.590
 1533POPC   NC322715  10.761  41.687   9.579
 1533POPC   PO422716  10.321  41.295   9.715
 1533POPC   GL122717  10.523  41.369   9.249
 1533POPC   GL222718  10.579  41.722   9.107
 1533POPC   C1A22719  10.342  41.385   8.810
 1533POPC   D2A22720  10.466  41.449   8.387
 1533POPC   C3A22721  10.412  41.814   8.098
 1533POPC   C4A22722  10.401  41.497   7.801
 1533POPC   C1B22723  10.845  41.642   8.792
 1533POPC   C2B22724  10.828  41.804   8.398
 1533POPC   C3B22725  10.855  41.566   8.041
 1533POPC   C4B22726  10.783  41.824   7.703
 1534POPC   NC322727  14.043   6.029   9.407
 1534POPC   PO422728  14.679   5.852   9.420
 1534POPC   GL122729  14.374   5.749   9.124
 1534POPC   GL222730  14.621   5.695   8.886
 1534POPC   C1A22731  14.122   5.931   8.764
 1534POPC   D2A22732  14.026   6.067   8.346
 1534POPC   C3A22733  14.039   5.775   8.030
 1534POPC   C4A22734  14.233   5.798   7.616
 1534POPC   C1B22735  14.584   6.138   8.824
 1534POPC   C2B22736  14.492   6.271   8.460
 1534POPC   C3B22737  14.449   6.076   8.071
 1534POPC   C4B22738  14.583   6.187   7.702
 1535POPC   NC322739   2.458  31.422   9.595
 1535POPC   PO422740   3.026  31.867   9.553
 1535POPC   GL122741   2.782  31.606   9.217
 1535POPC   GL222742   2.482  31.797   9.222
 1535POPC   C1A22743   2.686  31.538   8.753
 1535POPC   D2A22744   2.785  31.714   8.321
 1535POPC   C3A22745   2.712  31.449   7.959
 1535POPC   C4A22746   2.792  31.299   7.531
 1535POPC   C1B22747   2.271  31.816   8.833
 1535POPC   C2B22748   2.268  31.661   8.416
 1535POPC   C3B22749   2.368  31.813   8.011
 1535POPC   C4B22750   2.408  31.658   7.589
 1536POPC   NC322751  18.821  28.826   9.783
 1536POPC   PO422752  19.265  29.209   9.650
 1536POPC   GL122753  19.093  29.261   9.224
 1536POPC   GL222754  19.124  28.929   9.179
 1536POPC   C1A22755  18.821  29.300   8.794
 1536POPC   D2A22756  18.946  29.205   8.394
 1536POPC   C3A22757  18.777  29.072   8.020
 1536POPC   C4A22758  18.660  29.271   7.673
 1536POPC   C1B22759  19.253  29.037   8.787
 1536POPC   C2B22760  19.325  28.842   8.400
 1536POPC   C3B22761  19.285  29.121   8.029
 1536POPC   C4B22762  19.137  29.062   7.648
 1537POPC   NC322763   3.298  43.427   9.555
 1537POPC   PO422764   3.925  43.444   9.653
 1537POPC   GL122765   3.644  43.340   9.198
 1537POPC   GL222766   3.350  43.082   9.177
 1537POPC   C1A22767   3.355  43.425   8.778
 1537POPC   D2A22768   3.216  43.303   8.303
 1537POPC   C3A22769   3.512  43.049   8.032
 1537POPC   C4A22770   3.700  42.874   7.656
 1537POPC   C1B22771   3.136  42.967   8.779
 1537POPC   C2B22772   3.183  42.794   8.358
 1537POPC   C3B22773   3.006  42.925   7.953
 1537POPC   C4B22774   3.182  42.911   7.558
 1538POPC   NC322775  21.120   7.072   9.479
 1538POPC   PO422776  21.578   7.642   9.364
 1538POPC   GL122777  21.464   7.293   9.112
 1538POPC   GL222778  21.100   7.377   9.079
 1538POPC   C1A22779  21.318   7.125   8.705
 1538POPC   D2A22780  21.138   7.290   8.322
 1538POPC   C3A22781  21.369   7.186   7.949
 1538POPC   C4A22782  21.519   7.431   7.605
 1538POPC   C1B22783  21.239   7.651   8.754
 1538POPC   C2B22784  21.362   7.742   8.350
 1538POPC   C3B22785  21.218   7.674   7.946
 1538POPC   C4B22786  21.302   7.907   7.577
 1539POPC   NC322787   7.274   3.198   9.594
 1539POPC   PO422788   7.411   3.832   9.491
 1539POPC   GL122789   7.603   3.655   9.133
 1539POPC   GL222790   7.322   3.496   9.015
 1539POPC   C1A22791   7.757   3.556   8.725
 1539POPC   D2A22792   7.834   3.374   8.319
 1539POPC   C3A22793   7.735   3.579   7.955
 1539POPC   C4A22794   7.705   3.442   7.548
 1539POPC   C1B22795   7.248   3.777   8.659
 1539POPC   C2B22796   7.350   3.825   8.210
 1539POPC   C3B22797   7.226   3.619   7.818
 1539POPC   C4B22798   6.967   3.230   7.794
 1540POPC   NC322799  23.338   0.905   9.436
 1540POPC   PO422800  23.918   1.271   9.523
 1540POPC   GL122801  23.719   1.159   9.152
 1540POPC   GL222802  23.350   1.250   9.043
 1540POPC   C1A22803  23.971   1.220   8.806
 1540POPC   D2A22804  23.907   1.060   8.451
 1540POPC   C3A22805  24.012   1.234   8.080
 1540POPC   C4A22806  23.762   1.181   7.710
 1540POPC   C1B22807  23.497   1.370   8.632
 1540POPC   C2B22808  23.517   1.273   8.184
 1540POPC   C3B22809  23.330   1.432   7.810
 1540POPC   C4B22810  23.407   1.384   7.360
 1541POPC   NC322811  18.282  36.550   9.833
 1541POPC   PO422812  17.962  37.064   9.684
 1541POPC   GL122813  18.037  37.182   9.210
 1541POPC   GL222814  18.415  37.195   9.136
 1541POPC   C1A22815  18.134  37.013   8.754
 1541POPC   D2A22816  18.328  36.809   8.350
 1541POPC   C3A22817  18.170  36.689   7.914
 1541POPC   C4A22818  17.958  36.656   7.500
 1541POPC   C1B22819  18.629  37.116   8.706
 1541POPC   C2B22820  18.676  37.160   8.254
 1541POPC   C3B22821  18.730  36.924   7.869
 1541POPC   C4B22822  18.877  37.073   7.449
 1542POPC   NC322823  20.707  23.174   9.331
 1542POPC   PO422824  20.195  22.962   9.650
 1542POPC   GL122825  20.419  22.749   9.266
 1542POPC   GL222826  20.815  22.686   9.198
 1542POPC   C1A22827  20.473  22.667   8.815
 1542POPC   D2A22828  20.644  22.835   8.435
 1542POPC   C3A22829  20.597  22.610   8.100
 1542POPC   C4A22830  20.529  22.790   7.708
 1542POPC   C1B22831  20.953  22.943   8.817
 1542POPC   C2B22832  21.103  23.078   8.414
 1542POPC   C3B22833  20.980  22.960   7.992
 1542POPC   C4B22834  21.001  23.007   7.554
 1543POPC   NC322835   7.184  33.534   9.490
 1543POPC   PO422836   7.615  32.957   9.499
 1543POPC   GL122837   7.433  32.902   9.108
 1543POPC   GL222838   7.362  33.244   9.088
 1543POPC   C1A22839   7.504  32.966   8.665
 1543POPC   D2A22840   7.625  32.725   8.308
 1543POPC   C3A22841   7.526  32.930   7.953
 1543POPC   C4A22842   7.821  32.836   7.667
 1543POPC   C1B22843   7.155  33.538   8.820
 1543POPC   C2B22844   7.258  33.408   8.419
 1543POPC   C3B22845   7.375  33.528   8.018
 1543POPC   C4B22846   7.356  33.363   7.622
 1544POPC   NC322847  26.590  12.589   9.600
 1544POPC   PO422848  26.944  13.022   9.381
 1544POPC   GL122849  26.934  12.838   9.009
 1544POPC   GL222850  26.753  12.549   9.060
 1544POPC   C1A22851  26.970  13.012   8.614
 1544POPC   D2A22852  26.846  13.215   8.262
 1544POPC   C3A22853  26.878  12.940   7.915
 1544POPC   C4A22854  26.884  12.989   7.477
 1544POPC   C1B22855  26.904  12.497   8.631
 1544POPC   C2B22856  26.807  12.504   8.212
 1544POPC   C3B22857  27.061  12.471   7.874
 1544POPC   C4B22858  27.122  12.525   7.423
 1545POPC   NC322859  16.997  39.759   9.509
 1545POPC   PO422860  16.657  40.406   9.435
 1545POPC   GL122861  16.808  40.130   9.165
 1545POPC   GL222862  16.533  39.898   9.159
 1545POPC   C1A22863  16.970  40.079   8.766
 1545POPC   D2A22864  16.835  40.070   8.339
 1545POPC   C3A22865  17.060  39.995   7.953
 1545POPC   C4A22866  16.904  40.241   7.650
 1545POPC   C1B22867  16.442  40.048   8.746
 1545POPC   C2B22868  16.368  39.860   8.320
 1545POPC   C3B22869  16.546  39.916   7.884
 1545POPC   C4B22870  16.605  39.922   7.393
 1546POPC   NC322871   2.707  29.014   9.294
 1546POPC   PO422872   2.667  28.396   9.509
 1546POPC   GL122873   2.808  28.490   9.128
 1546POPC   GL222874   2.868  28.141   9.109
 1546POPC   C1A22875   2.654  28.623   8.733
 1546POPC   D2A22876   2.570  28.778   8.352
 1546POPC   C3A22877   2.692  28.538   8.020
 1546POPC   C4A22878   2.476  28.499   7.630
 1546POPC   C1B22879   2.980  28.200   8.733
 1546POPC   C2B22880   2.811  28.119   8.382
 1546POPC   C3B22881   2.993  28.108   8.036
 1546POPC   C4B22882   2.813  28.119   7.653
 1547POPC   NC322883  17.019  25.531   9.783
 1547POPC   PO422884  16.605  25.071   9.538
 1547POPC   GL122885  16.886  25.207   9.192
 1547POPC   GL222886  16.972  25.581   9.190
 1547POPC   C1A22887  16.773  25.015   8.806
 1547POPC   D2A22888  16.564  25.171   8.442
 1547POPC   C3A22889  16.699  25.045   8.055
 1547POPC   C4A22890  16.831  25.275   7.714
 1547POPC   C1B22891  16.832  25.654   8.716
 1547POPC   C2B22892  16.790  25.609   8.213
 1547POPC   C3B22893  16.838  25.771   7.746
 1547POPC   C4B22894  17.050  25.644   7.342
 1548POPC   NC322895  12.281  16.706   9.448
 1548POPC   PO422896  11.690  17.060   9.629
 1548POPC   GL122897  11.824  16.898   9.174
 1548POPC   GL222898  12.094  16.651   8.994
 1548POPC   C1A22899  11.878  16.968   8.703
 1548POPC   D2A22900  12.029  16.636   8.405
 1548POPC   C3A22901  11.920  16.748   7.991
 1548POPC   C4A22902  11.912  16.784   7.566
 1548POPC   C1B22903  12.391  16.835   8.680
 1548POPC   C2B22904  12.344  16.982   8.200
 1548POPC   C3B22905  12.383  16.765   7.783
 1548POPC   C4B22906  12.350  16.877   7.327
 1549POPC   NC322907  25.477  39.513   9.397
 1549POPC   PO422908  25.226  38.870   9.545
 1549POPC   GL122909  25.282  39.075   9.198
 1549POPC   GL222910  25.044  39.362   9.132
 1549POPC   C1A22911  25.463  39.098   8.834
 1549POPC   D2A22912  25.373  39.150   8.429
 1549POPC   C3A22913  25.446  39.388   8.093
 1549POPC   C4A22914  25.485  39.176   7.719
 1549POPC   C1B22915  24.946  39.048   8.796
 1549POPC   C2B22916  24.866  39.147   8.364
 1549POPC   C3B22917  25.061  39.036   7.975
 1549POPC   C4B22918  25.031  39.047   7.503
 1550POPC   NC322919  35.815  30.115   9.466
 1550POPC   PO422920  36.173  29.666   9.391
 1550POPC   GL122921  36.077  29.970   9.031
 1550POPC   GL222922  36.081  30.321   9.063
 1550POPC   C1A22923  36.158  30.071   8.587
 1550POPC   D2A22924  36.210  29.694   8.340
 1550POPC   C3A22925  36.079  29.686   7.930
 1550POPC   C4A22926  36.094  29.902   7.557
 1550POPC   C1B22927  35.718  30.280   8.797
 1550POPC   C2B22928  35.657  30.241   8.358
 1550POPC   C3B22929  35.830  30.168   7.931
 1550POPC   C4B22930  35.889  30.365   7.509
 1551POPC   NC322931  12.692  36.577   9.467
 1551POPC   PO422932  13.020  37.234   9.440
 1551POPC   GL122933  13.031  36.935   9.090
 1551POPC   GL222934  12.716  36.758   9.010
 1551POPC   C1A22935  13.019  36.899   8.624
 1551POPC   D2A22936  12.716  36.992   8.301
 1551POPC   C3A22937  12.820  36.897   7.878
 1551POPC   C4A22938  13.138  36.861   7.566
 1551POPC   C1B22939  12.464  36.744   8.681
 1551POPC   C2B22940  12.363  36.602   8.297
 1551POPC   C3B22941  12.534  36.477   7.935
 1551POPC   C4B22942  12.366  36.762   7.703
 1552POPC   NC322943  36.156  32.292   9.592
 1552POPC   PO422944  35.592  32.466   9.236
 1552POPC   GL122945  35.964  32.252   9.125
 1552POPC   GL222946  36.266  32.525   9.132
 1552POPC   C1A22947  35.913  32.009   8.760
 1552POPC   D2A22948  35.763  32.287   8.437
 1552POPC   C3A22949  35.885  32.170   8.026
 1552POPC   C4A22950  35.914  32.508   7.738
 1552POPC   C1B22951  36.368  32.242   8.781
 1552POPC   C2B22952  36.274  32.094   8.387
 1552POPC   C3B22953  36.378  32.218   7.968
 1552POPC   C4B22954  36.217  32.157   7.589
 1553POPC   NC322955   6.372  22.311   9.280
 1553POPC   PO422956   6.984  22.128   9.565
 1553POPC   GL122957   6.871  22.054   9.179
 1553POPC   GL222958   6.896  22.406   9.131
 1553POPC   C1A22959   6.762  22.038   8.741
 1553POPC   D2A22960   6.767  21.919   8.312
 1553POPC   C3A22961   6.417  22.062   8.051
 1553POPC   C4A22962   6.572  22.024   7.656
 1553POPC   C1B22963   6.708  22.563   8.750
 1553POPC   C2B22964   6.646  22.417   8.361
 1553POPC   C3B22965   6.817  22.351   7.998
 1553POPC   C4B22966   6.805  22.533   7.657
 1554POPC   NC322967   3.931  12.546   9.493
 1554POPC   PO422968   3.388  12.916   9.587
 1554POPC   GL122969   3.533  12.918   9.164
 1554POPC   GL222970   3.559  12.577   9.126
 1554POPC   C1A22971   3.333  12.882   8.759
 1554POPC   D2A22972   3.421  12.845   8.341
 1554POPC   C3A22973   3.760  12.768   8.073
 1554POPC   C4A22974   3.608  12.873   7.645
 1554POPC   C1B22975   3.550  12.416   8.710
 1554POPC   C2B22976   3.475  12.351   8.278
 1554POPC   C3B22977   3.242  12.548   7.922
 1554POPC   C4B22978   3.241  12.488   7.441
 1555POPC   NC322979  20.869  44.592   9.430
 1555POPC   PO422980  20.273  44.614   9.693
 1555POPC   GL122981  20.412  44.619   9.213
 1555POPC   GL222982  20.591  44.320   9.080
 1555POPC   C1A22983  20.608  44.838   8.857
 1555POPC   D2A22984  20.865  44.839   8.480
 1555POPC   C3A22985  20.691  44.681   8.091
 1555POPC   C4A22986  20.746  44.847   7.693
 1555POPC   C1B22987  20.923  44.415   8.786
 1555POPC   C2B22988  21.071  44.370   8.358
 1555POPC   C3B22989  20.924  44.226   7.975
 1555POPC   C4B22990  20.829  44.361   7.555
 1556POPC   NC322991  44.434  19.554   9.593
 1556POPC   PO422992  44.887  19.931   9.342
 1556POPC   GL122993  44.733  19.723   9.056
 1556POPC   GL222994  44.379  19.807   9.137
 1556POPC   C1A22995  44.860  19.860   8.669
 1556POPC   D2A22996   0.105  19.880   8.343
 1556POPC   C3A22997  44.904  19.932   7.951
 1556POPC   C4A22998  44.759  19.872   7.532
 1556POPC   C1B22999  44.400  20.058   8.742
 1556POPC   C2B23000  44.482  19.937   8.283
 1556POPC   C3B23001  44.345  19.925   7.832
 1556POPC   C4B23002  44.309  20.140   7.396
 1557POPC   NC323003  20.389   9.208   9.514
 1557POPC   PO423004  20.807   8.664   9.535
 1557POPC   GL123005  20.716   8.919   9.175
 1557POPC   GL223006  20.352   8.886   9.105
 1557POPC   C1A23007  20.690   8.975   8.717
 1557POPC   D2A23008  20.493   9.143   8.339
 1557POPC   C3A23009  20.663   8.940   7.969
 1557POPC   C4A23010  20.621   9.046   7.533
 1557POPC   C1B23011  20.126   8.771   8.727
 1557POPC   C2B23012  20.236   8.661   8.294
 1557POPC   C3B23013  20.201   8.739   7.821
 1557POPC   C4B23014  20.370   8.648   7.380
 1558POPC   NC323015  33.305  13.997   9.431
 1558POPC   PO423016  32.950  14.619   9.461
 1558POPC   GL123017  32.914  14.286   9.196
 1558POPC   GL223018  33.225  14.362   9.057
 1558POPC   C1A23019  32.777  14.205   8.803
 1558POPC   D2A23020  33.003  14.356   8.453
 1558POPC   C3A23021  32.812  14.279   8.067
 1558POPC   C4A23022  32.815  14.449   7.672
 1558POPC   C1B23023  33.384  14.055   8.768
 1558POPC   C2B23024  33.534  14.058   8.349
 1558POPC   C3B23025  33.298  14.166   7.990
 1558POPC   C4B23026  33.057  13.919   7.726
 1559POPC   NC323027  14.185  12.829   9.408
 1559POPC   PO423028  13.498  12.990   9.392
 1559POPC   GL123029  13.530  12.747   9.064
 1559POPC   GL223030  13.783  12.575   9.192
 1559POPC   C1A23031  13.616  12.882   8.658
 1559POPC   D2A23032  13.373  12.894   8.277
 1559POPC   C3A23033  13.473  12.805   7.834
 1559POPC   C4A23034  13.494  13.013   7.385
 1559POPC   C1B23035  13.942  12.505   8.774
 1559POPC   C2B23036  13.875  12.610   8.329
 1559POPC   C3B23037  14.044  12.696   7.942
 1559POPC   C4B23038  13.862  12.646   7.554
 1560POPC   NC323039  40.061  43.824   9.393
 1560POPC   PO423040  39.683  43.274   9.331
 1560POPC   GL123041  39.909  43.556   9.000
 1560POPC   GL223042  40.311  43.652   8.981
 1560POPC   C1A23043  39.915  43.950   8.742
 1560POPC   D2A23044  40.115  44.096   8.357
 1560POPC   C3A23045  39.978  43.919   7.944
 1560POPC   C4A23046  39.802  43.991   7.548
 1560POPC   C1B23047  40.247  43.352   8.672
 1560POPC   C2B23048  40.128  43.587   8.368
 1560POPC   C3B23049  40.421  43.736   8.091
 1560POPC   C4B23050  40.400  43.629   7.693
 1561POPC   NC323051  14.581  12.853   9.793
 1561POPC   PO423052  14.512  12.537   9.240
 1561POPC   GL123053  14.298  12.810   8.923
 1561POPC   GL223054  13.968  13.041   9.017
 1561POPC   C1A23055  14.343  12.723   8.479
 1561POPC   D2A23056  14.573  12.910   8.131
 1561POPC   C3A23057  14.517  12.784   7.709
 1561POPC   C4A23058  14.320  12.618   7.361
 1561POPC   C1B23059  14.117  13.203   8.653
 1561POPC   C2B23060  14.088  13.108   8.248
 1561POPC   C3B23061  14.228  13.185   7.866
 1561POPC   C4B23062  13.854  13.123   7.728
 1562POPC   NC323063  20.706  11.065   9.837
 1562POPC   PO423064  20.595  11.695   9.549
 1562POPC   GL123065  20.564  11.465   9.168
 1562POPC   GL223066  20.728  11.150   9.203
 1562POPC   C1A23067  20.775  11.498   8.745
 1562POPC   D2A23068  20.785  11.189   8.423
 1562POPC   C3A23069  20.765  11.343   8.031
 1562POPC   C4A23070  20.585  11.146   7.715
 1562POPC   C1B23071  20.462  11.105   8.804
 1562POPC   C2B23072  20.281  11.045   8.342
 1562POPC   C3B23073  20.307  10.797   7.970
 1562POPC   C4B23074  20.254  10.837   7.503
 1563POPC   NC323075  20.304   7.646   9.550
 1563POPC   PO423076  20.691   7.179   9.361
 1563POPC   GL123077  20.479   7.381   9.126
 1563POPC   GL223078  20.685   7.657   9.137
 1563POPC   C1A23079  20.295   7.245   8.772
 1563POPC   D2A23080  20.129   7.158   8.376
 1563POPC   C3A23081  20.477   7.007   8.139
 1563POPC   C4A23082  20.411   7.058   7.715
 1563POPC   C1B23083  20.740   7.576   8.715
 1563POPC   C2B23084  20.821   7.693   8.303
 1563POPC   C3B23085  20.697   7.511   7.915
 1563POPC   C4B23086  20.806   7.842   7.616
 1564POPC   NC323087   3.640   0.762   9.459
 1564POPC   PO423088   3.177   1.267   9.570
 1564POPC   GL123089   3.425   1.160   9.205
 1564POPC   GL223090   3.783   1.181   9.222
 1564POPC   C1A23091   3.480   1.350   8.789
 1564POPC   D2A23092   3.351   1.180   8.416
 1564POPC   C3A23093   3.489   1.286   8.032
 1564POPC   C4A23094   3.384   1.395   7.623
 1564POPC   C1B23095   3.906   1.053   8.830
 1564POPC   C2B23096   3.785   0.908   8.438
 1564POPC   C3B23097   3.852   0.905   7.996
 1564POPC   C4B23098   3.794   1.102   7.598
 1565POPC   NC323099  38.409  39.647   9.536
 1565POPC   PO423100  38.363  40.371   9.395
 1565POPC   GL123101  38.371  39.974   9.129
 1565POPC   GL223102  38.656  39.745   9.105
 1565POPC   C1A23103  38.437  39.922   8.680
 1565POPC   D2A23104  38.317  40.109   8.293
 1565POPC   C3A23105  38.344  39.909   7.879
 1565POPC   C4A23106  38.038  39.644   7.694
 1565POPC   C1B23107  38.918  39.725   8.754
 1565POPC   C2B23108  38.862  39.944   8.369
 1565POPC   C3B23109  38.828  39.752   7.949
 1565POPC   C4B23110  38.842  39.781   7.469
 1566POPC   NC323111   0.001  18.844   9.488
 1566POPC   PO423112   0.545  19.182   9.423
 1566POPC   GL123113   0.233  19.105   9.126
 1566POPC   GL223114   0.200  19.397   8.942
 1566POPC   C1A23115   0.114  18.902   8.753
 1566POPC   D2A23116   0.190  18.690   8.358
 1566POPC   C3A23117   0.053  18.824   7.963
 1566POPC   C4A23118   0.158  19.087   7.622
 1566POPC   C1B23119   0.581  19.215   8.769
 1566POPC   C2B23120   0.644  19.316   8.390
 1566POPC   C3B23121   0.419  19.190   8.069
 1566POPC   C4B23122   0.597  19.323   7.725
 1567POPC   NC323123  16.401   2.993   9.604
 1567POPC   PO423124  17.030   2.904   9.518
 1567POPC   GL123125  16.709   2.874   9.203
 1567POPC   GL223126  16.627   3.203   9.205
 1567POPC   C1A23127  16.522   2.792   8.800
 1567POPC   D2A23128  16.647   2.815   8.378
 1567POPC   C3A23129  16.451   2.742   7.987
 1567POPC   C4A23130  16.678   2.524   7.668
 1567POPC   C1B23131  16.555   3.303   8.786
 1567POPC   C2B23132  16.737   3.323   8.386
 1567POPC   C3B23133  16.840   3.108   8.003
 1567POPC   C4B23134  16.651   3.042   7.601
 1568POPC   NC323135  44.920  39.079   9.813
 1568POPC   PO423136  44.484  38.711   9.411
 1568POPC   GL123137  44.635  38.508   9.063
 1568POPC   GL223138  44.825  38.170   9.127
 1568POPC   C1A23139  44.801  38.611   8.650
 1568POPC   D2A23140  44.911  38.422   8.270
 1568POPC   C3A23141  44.628  38.629   7.992
 1568POPC   C4A23142  44.663  38.688   7.541
 1568POPC   C1B23143  44.608  38.130   8.722
 1568POPC   C2B23144  44.420  38.235   8.326
 1568POPC   C3B23145  44.431  38.171   7.889
 1568POPC   C4B23146  44.121  37.996   7.659
 1569POPC   NC323147  36.778  34.980   9.402
 1569POPC   PO423148  36.761  34.274   9.514
 1569POPC   GL123149  36.832  34.492   9.132
 1569POPC   GL223150  37.133  34.683   9.150
 1569POPC   C1A23151  36.748  34.606   8.696
 1569POPC   D2A23152  36.984  34.483   8.335
 1569POPC   C3A23153  36.749  34.451   7.975
 1569POPC   C4A23154  36.761  34.137   7.702
 1569POPC   C1B23155  37.095  34.943   8.800
 1569POPC   C2B23156  37.067  34.988   8.375
 1569POPC   C3B23157  36.906  34.939   7.984
 1569POPC   C4B23158  36.844  35.107   7.584
 1570POPC   NC323159  11.062  31.259   9.486
 1570POPC   PO423160  11.540  31.823   9.532
 1570POPC   GL123161  11.331  31.664   9.187
 1570POPC   GL223162  11.531  31.358   9.231
 1570POPC   C1A23163  11.187  31.785   8.749
 1570POPC   D2A23164  11.070  31.627   8.285
 1570POPC   C3A23165  11.238  31.672   7.810
 1570POPC   C4A23166  11.601  31.712   7.479
 1570POPC   C1B23167  11.451  31.358   8.798
 1570POPC   C2B23168  11.397  31.258   8.391
 1570POPC   C3B23169  11.590  31.165   8.034
 1570POPC   C4B23170  11.520  31.229   7.607
 1571POPC   NC323171  33.347  39.368   9.602
 1571POPC   PO423172  33.971  39.340   9.407
 1571POPC   GL123173  33.811  39.053   9.179
 1571POPC   GL223174  33.476  39.145   9.168
 1571POPC   C1A23175  34.004  38.994   8.788
 1571POPC   D2A23176  34.088  39.214   8.400
 1571POPC   C3A23177  34.127  38.986   8.017
 1571POPC   C4A23178  33.866  38.892   7.682
 1571POPC   C1B23179  33.598  39.324   8.784
 1571POPC   C2B23180  33.483  39.245   8.371
 1571POPC   C3B23181  33.664  39.274   7.969
 1571POPC   C4B23182  33.583  39.281   7.519
 1572POPC   NC323183  10.039  39.408   9.556
 1572POPC   PO423184   9.550  38.955   9.671
 1572POPC   GL123185   9.658  39.179   9.291
 1572POPC   GL223186   9.990  39.111   9.137
 1572POPC   C1A23187   9.559  39.141   8.873
 1572POPC   D2A23188   9.769  39.042   8.524
 1572POPC   C3A23189   9.656  39.209   8.143
 1572POPC   C4A23190   9.764  39.027   7.784
 1572POPC   C1B23191  10.050  39.390   8.772
 1572POPC   C2B23192  10.109  39.379   8.326
 1572POPC   C3B23193  10.109  39.412   7.874
 1572POPC   C4B23194   9.959  39.771   7.611
 1573POPC   NC323195   4.609  44.660   9.565
 1573POPC   PO423196   4.146  44.939   9.889
 1573POPC   GL123197   4.201  44.933   9.396
 1573POPC   GL223198   4.049  44.635   9.249
 1573POPC   C1A23199   4.267  44.942   8.897
 1573POPC   D2A23200   4.258   0.011   8.453
 1573POPC   C3A23201   4.373  44.823   8.059
 1573POPC   C4A23202   4.237  44.995   7.692
 1573POPC   C1B23203   3.903  44.587   8.794
 1573POPC   C2B23204   3.977  44.588   8.316
 1573POPC   C3B23205   3.972  44.551   7.844
 1573POPC   C4B23206   3.856  44.279   7.463
 1574POPC   NC323207  17.810  32.035   9.480
 1574POPC   PO423208  18.370  31.793   9.674
 1574POPC   GL123209  18.268  32.020   9.215
 1574POPC   GL223210  18.059  32.328   9.133
 1574POPC   C1A23211  18.022  31.959   8.791
 1574POPC   D2A23212  17.836  31.982   8.380
 1574POPC   C3A23213  18.129  32.078   8.023
 1574POPC   C4A23214  18.547  31.990   7.810
 1574POPC   C1B23215  17.887  32.461   8.713
 1574POPC   C2B23216  17.962  32.538   8.258
 1574POPC   C3B23217  18.095  32.595   7.818
 1574POPC   C4B23218  18.170  32.683   7.355
 1575POPC   NC323219  11.379   7.030   9.345
 1575POPC   PO423220  11.305   6.428   9.567
 1575POPC   GL123221  11.220   6.564   9.171
 1575POPC   GL223222  10.942   6.817   9.188
 1575POPC   C1A23223  11.410   6.676   8.771
 1575POPC   D2A23224  11.289   6.790   8.364
 1575POPC   C3A23225  11.472   6.574   8.003
 1575POPC   C4A23226  11.639   6.678   7.579
 1575POPC   C1B23227  10.891   6.649   8.776
 1575POPC   C2B23228  10.765   6.764   8.366
 1575POPC   C3B23229  10.944   6.671   7.980
 1575POPC   C4B23230  11.129   6.729   7.589
 1576POPC   NC323231  36.214   0.170   9.389
 1576POPC   PO423232  36.780  44.994   9.606
 1576POPC   GL123233  36.862   0.253   9.241
 1576POPC   GL223234  36.615   0.105   9.070
 1576POPC   C1A23235  36.914   0.447   8.813
 1576POPC   D2A23236  36.784   0.301   8.379
 1576POPC   C3A23237  36.985   0.408   7.961
 1576POPC   C4A23238  36.943   0.470   7.479
 1576POPC   C1B23239  36.519  44.910   8.703
 1576POPC   C2B23240  36.335  44.977   8.311
 1576POPC   C3B23241  36.525   0.132   7.947
 1576POPC   C4B23242  36.850   0.002   7.673
 1577POPC   NC323243  30.570   7.608   9.521
 1577POPC   PO423244  31.226   7.514   9.482
 1577POPC   GL123245  30.917   7.550   9.157
 1577POPC   GL223246  31.090   7.335   8.976
 1577POPC   C1A23247  30.597   7.479   8.808
 1577POPC   D2A23248  30.704   7.341   8.384
 1577POPC   C3A23249  30.567   7.485   7.960
 1577POPC   C4A23250  30.382   7.299   7.553
 1577POPC   C1B23251  31.051   7.691   8.674
 1577POPC   C2B23252  30.923   7.804   8.257
 1577POPC   C3B23253  31.040   7.800   7.829
 1577POPC   C4B23254  31.038   7.799   7.372
 1578POPC   NC323255  32.163  38.484   9.430
 1578POPC   PO423256  32.794  38.127   9.433
 1578POPC   GL123257  32.444  38.214   9.109
 1578POPC   GL223258  32.085  38.174   9.032
 1578POPC   C1A23259  32.432  38.460   8.709
 1578POPC   D2A23260  32.567  38.414   8.266
 1578POPC   C3A23261  32.503  38.707   7.944
 1578POPC   C4A23262  32.367  38.617   7.487
 1578POPC   C1B23263  31.904  38.473   8.744
 1578POPC   C2B23264  32.064  38.601   8.350
 1578POPC   C3B23265  32.085  38.445   7.942
 1578POPC   C4B23266  31.895  38.615   7.607
 1579POPC   NC323267  20.108  40.484   9.783
 1579POPC   PO423268  19.795  40.928   9.476
 1579POPC   GL123269  19.765  40.704   9.094
 1579POPC   GL223270  19.411  40.572   9.091
 1579POPC   C1A23271  20.005  40.612   8.700
 1579POPC   D2A23272  20.112  40.885   8.331
 1579POPC   C3A23273  20.060  40.736   7.933
 1579POPC   C4A23274  19.866  41.033   7.696
 1579POPC   C1B23275  19.503  40.714   8.656
 1579POPC   C2B23276  19.610  40.638   8.207
 1579POPC   C3B23277  19.597  40.600   7.733
 1579POPC   C4B23278  19.533  40.468   7.272
 1580POPC   NC323279  30.541  42.774   9.554
 1580POPC   PO423280  30.988  43.323   9.480
 1580POPC   GL123281  30.725  43.094   9.164
 1580POPC   GL223282  30.353  43.094   9.158
 1580POPC   C1A23283  30.690  43.191   8.723
 1580POPC   D2A23284  30.649  43.048   8.293
 1580POPC   C3A23285  30.905  43.111   7.894
 1580POPC   C4A23286  30.899  43.059   7.417
 1580POPC   C1B23287  30.228  43.405   8.828
 1580POPC   C2B23288  30.396  43.494   8.410
 1580POPC   C3B23289  30.346  43.322   7.995
 1580POPC   C4B23290  30.369  43.424   7.566
 1581POPC   NC323291  21.132  13.927   9.791
 1581POPC   PO423292  21.425  13.373   9.660
 1581POPC   GL123293  21.406  13.278   9.207
 1581POPC   GL223294  21.107  13.084   9.186
 1581POPC   C1A23295  21.650  13.389   8.782
 1581POPC   D2A23296  21.638  13.740   8.456
 1581POPC   C3A23297  21.702  13.651   8.030
 1581POPC   C4A23298  21.547  13.763   7.635
 1581POPC   C1B23299  21.195  13.185   8.726
 1581POPC   C2B23300  21.440  13.269   8.296
 1581POPC   C3B23301  21.296  13.363   7.852
 1581POPC   C4B23302  20.918  13.291   7.553
 1582POPC   NC323303   1.241  13.091   9.627
 1582POPC   PO423304   0.837  13.237   9.123
 1582POPC   GL123305   1.244  13.018   9.123
 1582POPC   GL223306   1.366  12.676   9.159
 1582POPC   C1A23307   1.482  13.050   8.768
 1582POPC   D2A23308   1.232  12.964   8.383
 1582POPC   C3A23309   1.379  12.787   8.039
 1582POPC   C4A23310   1.456  12.910   7.642
 1582POPC   C1B23311   1.326  12.582   8.733
 1582POPC   C2B23312   1.071  12.430   8.415
 1582POPC   C3B23313   0.884  12.503   8.036
 1582POPC   C4B23314   1.084  12.577   7.655
 1583POPC   NC323315  15.156  17.935   9.343
 1583POPC   PO423316  15.092  18.590   9.544
 1583POPC   GL123317  15.072  18.417   9.138
 1583POPC   GL223318  14.761  18.476   9.009
 1583POPC   C1A23319  15.128  18.213   8.716
 1583POPC   D2A23320  15.035  18.022   8.298
 1583POPC   C3A23321  15.225  18.204   7.959
 1583POPC   C4A23322  15.645  18.127   7.886
 1583POPC   C1B23323  14.986  18.715   8.703
 1583POPC   C2B23324  14.927  18.861   8.325
 1583POPC   C3B23325  14.839  18.561   8.032
 1583POPC   C4B23326  14.963  18.544   7.638
 1584POPC   NC323327  25.289  10.806   9.452
 1584POPC   PO423328  25.189  10.126   9.236
 1584POPC   GL123329  25.309  10.493   9.045
 1584POPC   GL223330  25.114  10.731   8.978
 1584POPC   C1A23331  25.448  10.603   8.621
 1584POPC   D2A23332  25.556  10.418   8.243
 1584POPC   C3A23333  25.588  10.677   7.930
 1584POPC   C4A23334  25.451  10.530   7.522
 1584POPC   C1B23335  24.975  10.381   8.685
 1584POPC   C2B23336  25.022  10.485   8.297
 1584POPC   C3B23337  25.146  10.398   7.913
 1584POPC   C4B23338  24.948  10.486   7.532
 1585POPC   NC323339  43.117   0.991   9.459
 1585POPC   PO423340  43.030   0.366   9.844
 1585POPC   GL123341  43.160   0.350   9.404
 1585POPC   GL223342  43.442   0.607   9.288
 1585POPC   C1A23343  43.060   0.418   8.968
 1585POPC   D2A23344  43.196   0.422   8.547
 1585POPC   C3A23345  42.911   0.226   8.251
 1585POPC   C4A23346  42.844   0.352   7.847
 1585POPC   C1B23347  43.478   0.811   8.858
 1585POPC   C2B23348  43.417   0.865   8.397
 1585POPC   C3B23349  43.319   0.553   8.047
 1585POPC   C4B23350  43.268   0.466   7.590
 1586POPC   NC323351   9.627  13.385   9.413
 1586POPC   PO423352  10.022  13.929   9.391
 1586POPC   GL123353   9.935  13.709   9.005
 1586POPC   GL223354   9.990  13.348   9.031
 1586POPC   C1A23355   9.931  13.746   8.551
 1586POPC   D2A23356   9.764  14.013   8.228
 1586POPC   C3A23357   9.714  13.810   7.842
 1586POPC   C4A23358  10.004  13.578   8.035
 1586POPC   C1B23359   9.604  13.378   8.741
 1586POPC   C2B23360   9.496  13.525   8.304
 1586POPC   C3B23361   9.270  13.395   7.920
 1586POPC   C4B23362   9.440  13.473   7.519
 1587POPC   NC323363  40.276  38.328   9.471
 1587POPC   PO423364  40.076  38.968   9.482
 1587POPC   GL123365  40.189  38.720   9.146
 1587POPC   GL223366  39.937  38.451   9.097
 1587POPC   C1A23367  40.242  38.584   8.717
 1587POPC   D2A23368  40.195  38.306   8.357
 1587POPC   C3A23369  40.144  38.507   7.934
 1587POPC   C4A23370  39.743  38.680   7.832
 1587POPC   C1B23371  39.826  38.214   8.744
 1587POPC   C2B23372  39.645  38.359   8.381
 1587POPC   C3B23373  39.793  38.148   8.041
 1587POPC   C4B23374  39.772  38.175   7.647
 1588POPC   NC323375  34.821  17.139   9.862
 1588POPC   PO423376  34.527  16.761   9.391
 1588POPC   GL123377  34.540  16.551   9.018
 1588POPC   GL223378  34.889  16.505   9.066
 1588POPC   C1A23379  34.574  16.704   8.585
 1588POPC   D2A23380  34.450  17.014   8.244
 1588POPC   C3A23381  34.387  16.756   7.895
 1588POPC   C4A23382  34.220  16.328   7.821
 1588POPC   C1B23383  35.057  16.824   8.751
 1588POPC   C2B23384  34.957  17.021   8.364
 1588POPC   C3B23385  34.891  16.779   7.988
 1588POPC   C4B23386  34.878  16.629   7.527
 1589POPC   NC323387  42.879  35.412   9.490
 1589POPC   PO423388  43.505  35.207   9.488
 1589POPC   GL123389  43.189  35.292   9.128
 1589POPC   GL223390  42.865  35.031   9.165
 1589POPC   C1A23391  43.058  35.502   8.733
 1589POPC   D2A23392  43.151  35.610   8.274
 1589POPC   C3A23393  42.773  35.558   7.942
 1589POPC   C4A23394  42.804  35.622   7.441
 1589POPC   C1B23395  43.043  34.995   8.755
 1589POPC   C2B23396  42.884  35.140   8.413
 1589POPC   C3B23397  43.060  35.158   8.054
 1589POPC   C4B23398  42.908  35.152   7.667
 1590POPC   NC323399  26.456   0.086   9.404
 1590POPC   PO423400  26.978   0.514   9.467
 1590POPC   GL123401  26.914   0.232   9.142
 1590POPC   GL223402  27.187   0.413   9.013
 1590POPC   C1A23403  26.755   0.155   8.730
 1590POPC   D2A23404  26.684   0.373   8.342
 1590POPC   C3A23405  26.742   0.092   8.004
 1590POPC   C4A23406  26.443   0.083   7.653
 1590POPC   C1B23407  27.074   0.583   8.653
 1590POPC   C2B23408  27.222   0.822   8.327
 1590POPC   C3B23409  27.053   0.577   8.015
 1590POPC   C4B23410  26.666   0.542   7.801
 1591POPC   NC323411  41.232  31.506   9.576
 1591POPC   PO423412  41.919  31.526   9.497
 1591POPC   GL123413  41.583  31.476   9.197
 1591POPC   GL223414  41.475  31.755   9.195
 1591POPC   C1A23415  41.481  31.409   8.765
 1591POPC   D2A23416  41.670  31.390   8.335
 1591POPC   C3A23417  41.400  31.407   7.961
 1591POPC   C4A23418  41.426  31.513   7.513
 1591POPC   C1B23419  41.864  31.793   8.905
 1591POPC   C2B23420  41.861  31.906   8.477
 1591POPC   C3B23421  41.526  31.876   8.178
 1591POPC   C4B23422  41.662  31.898   7.784
 1592POPC   NC323423  43.277   3.125   9.456
 1592POPC   PO423424  43.200   2.573   9.159
 1592POPC   GL123425  43.411   2.838   8.978
 1592POPC   GL223426  43.520   3.213   9.037
 1592POPC   C1A23427  43.420   2.716   8.563
 1592POPC   D2A23428  43.078   2.781   8.329
 1592POPC   C3A23429  43.162   2.792   7.930
 1592POPC   C4A23430  43.027   2.459   7.743
 1592POPC   C1B23431  43.133   3.183   8.770
 1592POPC   C2B23432  43.027   3.286   8.360
 1592POPC   C3B23433  42.765   3.135   8.083
 1592POPC   C4B23434  42.856   3.116   7.684
 1593POPC   NC323435   0.064  31.127   9.381
 1593POPC   PO423436  44.648  31.643   9.617
 1593POPC   GL123437  44.754  31.502   9.158
 1593POPC   GL223438  44.464  31.339   8.954
 1593POPC   C1A23439  44.792  31.629   8.698
 1593POPC   D2A23440  44.494  31.500   8.416
 1593POPC   C3A23441  44.627  31.599   8.033
 1593POPC   C4A23442  44.528  31.249   7.787
 1593POPC   C1B23443  44.790  31.115   8.696
 1593POPC   C2B23444  44.840  31.140   8.257
 1593POPC   C3B23445   0.034  31.275   7.901
 1593POPC   C4B23446   0.135  31.693   7.921
 1594POPC   NC323447   1.983  15.443   9.465
 1594POPC   PO423448   1.887  14.734   9.410
 1594POPC   GL123449   1.974  15.033   9.142
 1594POPC   GL223450   2.217  15.273   9.050
 1594POPC   C1A23451   1.922  14.968   8.740
 1594POPC   D2A23452   1.707  15.017   8.400
 1594POPC   C3A23453   1.988  15.173   8.111
 1594POPC   C4A23454   2.098  15.119   7.714
 1594POPC   C1B23455   2.118  15.423   8.653
 1594POPC   C2B23456   2.304  15.562   8.253
 1594POPC   C3B23457   2.340  15.532   7.820
 1594POPC   C4B23458   2.414  15.534   7.316
 1595POPC   NC323459  15.976   2.227   9.611
 1595POPC   PO423460  16.124   1.692   9.490
 1595POPC   GL123461  16.218   2.070   9.188
 1595POPC   GL223462  15.931   2.300   9.104
 1595POPC   C1A23463  16.290   2.209   8.751
 1595POPC   D2A23464  16.143   1.985   8.380
 1595POPC   C3A23465  16.164   2.134   7.941
 1595POPC   C4A23466  16.049   2.018   7.483
 1595POPC   C1B23467  15.771   2.244   8.669
 1595POPC   C2B23468  15.718   2.218   8.227
 1595POPC   C3B23469  15.664   2.168   7.798
 1595POPC   C4B23470  15.632   2.402   7.433
 1596POPC   NC323471  20.447  19.176   9.503
 1596POPC   PO423472  21.002  18.638   9.481
 1596POPC   GL123473  20.776  18.898   9.168
 1596POPC   GL223474  20.867  19.237   9.227
 1596POPC   C1A23475  20.657  18.901   8.717
 1596POPC   D2A23476  20.864  18.778   8.353
 1596POPC   C3A23477  20.794  18.950   7.961
 1596POPC   C4A23478  21.038  18.814   7.571
 1596POPC   C1B23479  20.605  19.369   8.880
 1596POPC   C2B23480  20.719  19.354   8.449
 1596POPC   C3B23481  20.632  19.448   8.041
 1596POPC   C4B23482  20.296  19.201   7.909
 1597POPC   NC323483  23.023   0.099   9.486
 1597POPC   PO423484  22.665   0.633   9.570
 1597POPC   GL123485  22.813   0.525   9.164
 1597POPC   GL223486  23.159   0.493   9.158
 1597POPC   C1A23487  22.929   0.453   8.703
 1597POPC   D2A23488  23.217   0.717   8.460
 1597POPC   C3A23489  23.252   0.560   8.042
 1597POPC   C4A23490  22.959   0.555   7.724
 1597POPC   C1B23491  23.431   0.325   8.832
 1597POPC   C2B23492  23.329   0.205   8.422
 1597POPC   C3B23493  23.376   0.038   8.031
 1597POPC   C4B23494  23.401   0.203   7.621
 1598POPC   NC323495  15.367   9.558   9.422
 1598POPC   PO423496  14.878  10.006   9.501
 1598POPC   GL123497  15.038   9.855   9.159
 1598POPC   GL223498  14.969   9.519   9.035
 1598POPC   C1A23499  15.226   9.887   8.816
 1598POPC   D2A23500  15.052   9.927   8.446
 1598POPC   C3A23501  15.259   9.699   8.122
 1598POPC   C4A23502  15.245   9.773   7.691
 1598POPC   C1B23503  15.123   9.394   8.645
 1598POPC   C2B23504  15.023   9.256   8.237
 1598POPC   C3B23505  14.940   9.391   7.817
 1598POPC   C4B23506  14.915   9.517   7.401
 1599POPC   NC323507   2.545  35.141   9.353
 1599POPC   PO423508   3.014  34.491   9.493
 1599POPC   GL123509   3.062  34.402   9.091
 1599POPC   GL223510   2.697  34.427   9.067
 1599POPC   C1A23511   3.008  34.591   8.672
 1599POPC   D2A23512   3.156  34.767   8.267
 1599POPC   C3A23513   2.890  34.742   7.927
 1599POPC   C4A23514   2.909  34.559   7.495
 1599POPC   C1B23515   2.495  34.345   8.722
 1599POPC   C2B23516   2.676  34.364   8.313
 1599POPC   C3B23517   2.576  34.349   7.868
 1599POPC   C4B23518   2.464  34.710   7.628
 1600POPC   NC323519   0.191   6.140   9.213
 1600POPC   PO423520  44.556   6.531   9.428
 1600POPC   GL123521  44.697   6.680   9.082
 1600POPC   GL223522  44.836   6.400   8.968
 1600POPC   C1A23523  44.838   6.797   8.663
 1600POPC   D2A23524  44.951   6.481   8.380
 1600POPC   C3A23525  44.971   6.700   8.015
 1600POPC   C4A23526  44.648   6.725   7.743
 1600POPC   C1B23527  44.476   6.440   8.654
 1600POPC   C2B23528  44.471   6.563   8.195
 1600POPC   C3B23529  44.362   6.321   7.783
 1600POPC   C4B23530  44.293   6.092   7.392
 1601POPC   NC323531  10.930  16.983   9.485
 1601POPC   PO423532  11.024  16.409   9.754
 1601POPC   GL123533  10.964  16.500   9.280
 1601POPC   GL223534  10.618  16.614   9.193
 1601POPC   C1A23535  10.936  16.614   8.802
 1601POPC   D2A23536  10.806  16.548   8.333
 1601POPC   C3A23537  10.865  16.821   7.938
 1601POPC   C4A23538  10.555  17.005   7.644
 1601POPC   C1B23539  10.443  16.454   8.759
 1601POPC   C2B23540  10.315  16.372   8.304
 1601POPC   C3B23541  10.426  16.544   7.906
 1601POPC   C4B23542  10.637  16.532   7.508
 1602POPC   NC323543  41.393  13.722   9.500
 1602POPC   PO423544  41.852  14.139   9.722
 1602POPC   GL123545  41.489  14.095   9.174
 1602POPC   GL223546  41.243  13.940   9.047
 1602POPC   C1A23547  41.634  13.956   8.694
 1602POPC   D2A23548  41.901  13.664   8.414
 1602POPC   C3A23549  41.681  13.625   8.006
 1602POPC   C4A23550  41.224  13.810   8.063
 1602POPC   C1B23551  41.369  13.541   8.812
 1602POPC   C2B23552  41.487  13.361   8.417
 1602POPC   C3B23553  41.291  13.286   8.025
 1602POPC   C4B23554  41.174  13.491   7.675
 1603POPC   NC323555  34.662  30.559   9.683
 1603POPC   PO423556  34.229  30.956   9.632
 1603POPC   GL123557  34.517  30.864   9.227
 1603POPC   GL223558  34.483  30.516   9.148
 1603POPC   C1A23559  34.774  30.758   8.818
 1603POPC   D2A23560  34.590  30.872   8.403
 1603POPC   C3A23561  34.819  30.765   8.038
 1603POPC   C4A23562  34.598  30.705   7.668
 1603POPC   C1B23563  34.375  30.469   8.665
 1603POPC   C2B23564  34.479  30.392   8.203
 1603POPC   C3B23565  34.241  30.372   7.787
 1603POPC   C4B23566  34.311  30.426   7.300
 1604POPC   NC323567   2.109   8.748   9.473
 1604POPC   PO423568   1.750   9.316   9.597
 1604POPC   GL123569   1.862   9.150   9.167
 1604POPC   GL223570   2.007   8.869   9.004
 1604POPC   C1A23571   2.084   9.338   8.789
 1604POPC   D2A23572   1.928   9.258   8.384
 1604POPC   C3A23573   2.203   9.138   8.064
 1604POPC   C4A23574   2.086   9.103   7.651
 1604POPC   C1B23575   2.228   8.595   8.739
 1604POPC   C2B23576   2.321   8.688   8.303
 1604POPC   C3B23577   2.105   8.632   7.900
 1604POPC   C4B23578   2.071   8.636   7.435
 1605POPC   NC323579  18.084  10.312   9.477
 1605POPC   PO423580  18.701  10.631   9.540
 1605POPC   GL123581  18.355  10.641   9.165
 1605POPC   GL223582  18.019  10.439   9.006
 1605POPC   C1A23583  18.237  10.761   8.707
 1605POPC   D2A23584  18.102  10.584   8.315
 1605POPC   C3A23585  18.333  10.821   7.977
 1605POPC   C4A23586  18.110  11.174   7.784
 1605POPC   C1B23587  18.385  10.269   8.835
 1605POPC   C2B23588  18.355  10.137   8.404
 1605POPC   C3B23589  18.340  10.271   7.968
 1605POPC   C4B23590  18.439  10.145   7.560
 1606POPC   NC323591  36.515  23.608   9.521
 1606POPC   PO423592  35.869  23.881   9.347
 1606POPC   GL123593  36.055  23.649   9.092
 1606POPC   GL223594  35.751  23.494   9.006
 1606POPC   C1A23595  36.327  23.726   8.741
 1606POPC   D2A23596  36.401  23.587   8.324
 1606POPC   C3A23597  36.294  23.901   8.026
 1606POPC   C4A23598  36.017  23.755   7.720
 1606POPC   C1B23599  35.806  23.567   8.627
 1606POPC   C2B23600  35.858  23.696   8.247
 1606POPC   C3B23601  35.632  23.544   7.953
 1606POPC   C4B23602  35.521  23.665   7.612
 1607POPC   NC323603   4.786  29.099   9.463
 1607POPC   PO423604   5.445  29.289   9.617
 1607POPC   GL123605   5.186  29.302   9.239
 1607POPC   GL223606   5.163  28.964   9.125
 1607POPC   C1A23607   5.179  29.367   8.805
 1607POPC   D2A23608   5.248  29.084   8.452
 1607POPC   C3A23609   5.159  29.270   8.072
 1607POPC   C4A23610   5.210  29.164   7.668
 1607POPC   C1B23611   4.850  28.984   8.765
 1607POPC   C2B23612   4.771  28.887   8.310
 1607POPC   C3B23613   4.957  28.756   7.895
 1607POPC   C4B23614   4.731  28.753   7.490
 1608POPC   NC323615  14.852   6.349   9.389
 1608POPC   PO423616  14.330   6.766   9.459
 1608POPC   GL123617  14.389   6.917   9.058
 1608POPC   GL223618  14.694   6.752   9.061
 1608POPC   C1A23619  14.363   6.739   8.651
 1608POPC   D2A23620  14.084   6.622   8.347
 1608POPC   C3A23621  14.156   6.858   7.987
 1608POPC   C4A23622  14.192   6.491   7.706
 1608POPC   C1B23623  14.887   6.561   8.741
 1608POPC   C2B23624  14.879   6.653   8.335
 1608POPC   C3B23625  14.572   6.581   8.071
 1608POPC   C4B23626  14.585   6.815   7.743
 1609POPC   NC323627  13.327  11.758   9.424
 1609POPC   PO423628  12.873  12.237   9.595
 1609POPC   GL123629  12.941  12.038   9.188
 1609POPC   GL223630  13.131  12.241   8.979
 1609POPC   C1A23631  12.765  11.980   8.753
 1609POPC   D2A23632  12.637  12.156   8.384
 1609POPC   C3A23633  12.817  12.050   8.003
 1609POPC   C4A23634  12.640  12.310   7.694
 1609POPC   C1B23635  13.269  11.879   8.756
 1609POPC   C2B23636  13.230  11.957   8.322
 1609POPC   C3B23637  13.348  11.840   7.934
 1609POPC   C4B23638  13.125  11.695   7.572
 1610POPC   NC323639   4.753  20.621   9.579
 1610POPC   PO423640   5.377  20.959   9.530
 1610POPC   GL123641   5.090  20.935   9.217
 1610POPC   GL223642   5.021  20.584   9.142
 1610POPC   C1A23643   5.230  20.885   8.803
 1610POPC   D2A23644   5.101  20.660   8.433
 1610POPC   C3A23645   5.254  20.819   8.073
 1610POPC   C4A23646   4.977  20.696   7.761
 1610POPC   C1B23647   5.311  20.385   8.818
 1610POPC   C2B23648   5.437  20.264   8.365
 1610POPC   C3B23649   5.337  20.327   7.940
 1610POPC   C4B23650   5.456  20.176   7.538
 1611POPC   NC323651  24.079  29.708   9.508
 1611POPC   PO423652  23.752  30.266   9.661
 1611POPC   GL123653  23.890  30.072   9.234
 1611POPC   GL223654  23.700  30.193   8.968
 1611POPC   C1A23655  23.982  29.801   8.849
 1611POPC   D2A23656  23.756  29.884   8.460
 1611POPC   C3A23657  23.910  29.843   8.045
 1611POPC   C4A23658  24.038  30.090   7.709
 1611POPC   C1B23659  23.459  29.825   8.870
 1611POPC   C2B23660  23.299  29.677   8.461
 1611POPC   C3B23661  23.417  29.899   8.068
 1611POPC   C4B23662  23.572  29.806   7.646
 1612POPC   NC323663   6.944  22.582   9.664
 1612POPC   PO423664   6.429  22.882   9.389
 1612POPC   GL123665   6.736  22.910   9.126
 1612POPC   GL223666   7.040  22.900   9.272
 1612POPC   C1A23667   6.807  23.086   8.738
 1612POPC   D2A23668   6.709  22.951   8.338
 1612POPC   C3A23669   6.728  23.259   8.019
 1612POPC   C4A23670   6.524  22.954   7.776
 1612POPC   C1B23671   7.168  22.744   8.879
 1612POPC   C2B23672   7.206  22.870   8.488
 1612POPC   C3B23673   7.127  22.758   8.075
 1612POPC   C4B23674   7.047  22.996   7.702
 1613POPC   NC323675  38.455  31.574   9.532
 1613POPC   PO423676  38.291  30.966   9.352
 1613POPC   GL123677  38.540  31.205   9.097
 1613POPC   GL223678  38.524  31.589   9.041
 1613POPC   C1A23679  38.463  31.267   8.667
 1613POPC   D2A23680  38.111  31.457   8.440
 1613POPC   C3A23681  38.253  31.519   8.057
 1613POPC   C4A23682  38.360  31.241   7.717
 1613POPC   C1B23683  38.477  31.769   8.619
 1613POPC   C2B23684  38.739  31.563   8.300
 1613POPC   C3B23685  38.747  31.537   7.867
 1613POPC   C4B23686  38.383  31.753   7.635
 1614POPC   NC323687  34.006  14.727   9.633
 1614POPC   PO423688  33.792  14.069   9.465
 1614POPC   GL123689  33.747  14.315   9.114
 1614POPC   GL223690  33.663  14.668   9.229
 1614POPC   C1A23691  33.865  14.339   8.677
 1614POPC   D2A23692  34.046  14.158   8.301
 1614POPC   C3A23693  33.794  14.291   7.949
 1614POPC   C4A23694  33.459  14.613   7.820
 1614POPC   C1B23695  34.056  14.738   8.967
 1614POPC   C2B23696  34.100  14.822   8.532
 1614POPC   C3B23697  33.868  14.743   8.166
 1614POPC   C4B23698  33.971  14.722   7.727
 1615POPC   NC323699  21.166  41.422   9.398
 1615POPC   PO423700  21.439  41.999   9.525
 1615POPC   GL123701  21.481  41.754   9.144
 1615POPC   GL223702  21.629  41.432   9.158
 1615POPC   C1A23703  21.358  41.566   8.756
 1615POPC   D2A23704  21.457  41.737   8.371
 1615POPC   C3A23705  21.334  41.551   8.000
 1615POPC   C4A23706  21.019  41.734   7.726
 1615POPC   C1B23707  21.915  41.549   8.830
 1615POPC   C2B23708  21.990  41.735   8.448
 1615POPC   C3B23709  21.846  41.705   8.035
 1615POPC   C4B23710  21.725  41.527   7.680
 1616POPC   NC323711  36.729  44.563   9.448
 1616POPC   PO423712  37.310  44.212   9.277
 1616POPC   GL123713  37.066  44.459   9.031
 1616POPC   GL223714  37.020  44.783   9.104
 1616POPC   C1A23715  36.853  44.540   8.639
 1616POPC   D2A23716  36.832  44.810   8.283
 1616POPC   C3A23717  36.973  44.602   7.958
 1616POPC   C4A23718  36.780  44.456   7.595
 1616POPC   C1B23719  37.073  44.981   8.720
 1616POPC   C2B23720  37.276   0.118   8.347
 1616POPC   C3B23721  37.314   0.003   7.930
 1616POPC   C4B23722  37.371   0.194   7.532
 1617POPC   NC323723   6.733  34.978   9.476
 1617POPC   PO423724   6.355  35.443   9.903
 1617POPC   GL123725   6.384  35.513   9.410
 1617POPC   GL223726   6.284  35.193   9.252
 1617POPC   C1A23727   6.617  35.538   8.997
 1617POPC   D2A23728   6.742  35.387   8.575
 1617POPC   C3A23729   6.747  35.614   8.170
 1617POPC   C4A23730   6.871  35.474   7.786
 1617POPC   C1B23731   6.432  35.074   8.842
 1617POPC   C2B23732   6.312  35.161   8.406
 1617POPC   C3B23733   6.495  35.167   7.978
 1617POPC   C4B23734   6.286  35.170   7.564
 1618POPC   NC323735   9.093  12.941   9.504
 1618POPC   PO423736   9.807  12.958   9.496
 1618POPC   GL123737   9.633  12.968   9.101
 1618POPC   GL223738   9.678  12.636   9.084
 1618POPC   C1A23739   9.860  12.933   8.698
 1618POPC   D2A23740   9.954  13.225   8.393
 1618POPC   C3A23741   9.704  13.146   8.010
 1618POPC   C4A23742   9.784  12.730   7.893
 1618POPC   C1B23743   9.613  12.494   8.702
 1618POPC   C2B23744   9.874  12.464   8.347
 1618POPC   C3B23745   9.807  12.226   7.969
 1618POPC   C4B23746   9.393  12.343   7.861
 1619POPC   NC323747  38.890  39.069   9.620
 1619POPC   PO423748  39.551  39.159   9.530
 1619POPC   GL123749  39.202  39.176   9.229
 1619POPC   GL223750  39.002  38.870   9.153
 1619POPC   C1A23751  39.227  39.238   8.803
 1619POPC   D2A23752  39.132  39.419   8.403
 1619POPC   C3A23753  39.363  39.205   8.099
 1619POPC   C4A23754  39.390  39.070   7.649
 1619POPC   C1B23755  38.781  39.014   8.770
 1619POPC   C2B23756  38.773  39.072   8.318
 1619POPC   C3B23757  38.889  39.204   7.934
 1619POPC   C4B23758  38.838  38.955   7.582
 1620POPC   NC323759   6.466   4.786   9.310
 1620POPC   PO423760   6.824   4.259   9.484
 1620POPC   GL123761   6.876   4.332   9.076
 1620POPC   GL223762   7.025   4.646   9.161
 1620POPC   C1A23763   6.570   4.293   8.718
 1620POPC   D2A23764   6.354   4.374   8.304
 1620POPC   C3A23765   6.542   4.169   7.942
 1620POPC   C4A23766   6.958   4.064   7.808
 1620POPC   C1B23767   6.891   4.704   8.729
 1620POPC   C2B23768   6.892   4.460   8.342
 1620POPC   C3B23769   6.904   4.573   7.944
 1620POPC   C4B23770   6.784   4.519   7.550
 1621POPC   NC323771  19.586  28.854   9.599
 1621POPC   PO423772  20.172  29.174   9.600
 1621POPC   GL123773  19.969  29.301   9.185
 1621POPC   GL223774  19.621  29.129   9.153
 1621POPC   C1A23775  20.104  29.270   8.738
 1621POPC   D2A23776  20.158  29.047   8.341
 1621POPC   C3A23777  20.073  29.292   7.998
 1621POPC   C4A23778  20.071  29.071   7.618
 1621POPC   C1B23779  19.729  28.941   8.728
 1621POPC   C2B23780  19.684  29.167   8.334
 1621POPC   C3B23781  19.718  28.916   7.941
 1621POPC   C4B23782  19.593  28.946   7.448
 1622POPC   NC323783  16.426  34.891   9.449
 1622POPC   PO423784  16.727  35.570   9.433
 1622POPC   GL123785  16.832  35.423   9.040
 1622POPC   GL223786  16.527  35.265   9.061
 1622POPC   C1A23787  16.930  35.159   8.678
 1622POPC   D2A23788  16.706  35.444   8.430
 1622POPC   C3A23789  16.736  35.485   7.994
 1622POPC   C4A23790  16.972  35.158   7.837
 1622POPC   C1B23791  16.422  35.082   8.690
 1622POPC   C2B23792  16.287  35.193   8.279
 1622POPC   C3B23793  16.475  35.055   7.907
 1622POPC   C4B23794  16.575  35.169   7.483
 1623POPC   NC323795  14.315  13.845   9.524
 1623POPC   PO423796  14.457  13.218   9.551
 1623POPC   GL123797  14.278  13.481   9.132
 1623POPC   GL223798  14.155  13.862   9.054
 1623POPC   C1A23799  14.441  13.615   8.699
 1623POPC   D2A23800  14.490  13.404   8.289
 1623POPC   C3A23801  14.470  13.649   7.915
 1623POPC   C4A23802  14.863  13.807   7.787
 1623POPC   C1B23803  13.947  13.681   8.709
 1623POPC   C2B23804  14.041  13.665   8.273
 1623POPC   C3B23805  13.940  13.601   7.844
 1623POPC   C4B23806  14.185  13.546   7.469
 1624POPC   NC323807  13.209  12.620   9.466
 1624POPC   PO423808  13.006  13.228   9.590
 1624POPC   GL123809  12.996  12.941   9.157
 1624POPC   GL223810  12.826  12.606   9.126
 1624POPC   C1A23811  13.152  12.690   8.740
 1624POPC   D2A23812  13.079  12.447   8.344
 1624POPC   C3A23813  12.990  12.649   7.922
 1624POPC   C4A23814  13.042  13.014   7.621
 1624POPC   C1B23815  12.679  12.866   8.748
 1624POPC   C2B23816  12.558  13.058   8.373
 1624POPC   C3B23817  12.308  12.940   8.030
 1624POPC   C4B23818  12.552  12.820   7.695
 1625POPC   NC323819  38.166  10.435   9.508
 1625POPC   PO423820  37.535  10.670   9.486
 1625POPC   GL123821  37.438  10.676   9.102
 1625POPC   GL223822  37.762  10.581   9.001
 1625POPC   C1A23823  37.337  10.455   8.754
 1625POPC   D2A23824  37.586  10.466   8.413
 1625POPC   C3A23825  37.321  10.342   8.106
 1625POPC   C4A23826  37.382  10.275   7.703
 1625POPC   C1B23827  37.968  10.779   8.657
 1625POPC   C2B23828  38.057  10.634   8.245
 1625POPC   C3B23829  37.793  10.546   7.894
 1625POPC   C4B23830  37.720  10.875   7.524
 1626POPC   NC323831  34.482  12.314   9.507
 1626POPC   PO423832  35.027  11.905   9.608
 1626POPC   GL123833  34.719  11.953   9.239
 1626POPC   GL223834  34.333  11.917   9.213
 1626POPC   C1A23835  34.803  11.994   8.802
 1626POPC   D2A23836  34.781  11.810   8.395
 1626POPC   C3A23837  34.567  11.834   7.995
 1626POPC   C4A23838  34.651  11.907   7.523
 1626POPC   C1B23839  34.307  12.135   8.792
 1626POPC   C2B23840  34.415  12.256   8.332
 1626POPC   C3B23841  34.580  12.324   7.887
 1626POPC   C4B23842  34.414  12.355   7.472
 1627POPC   NC323843   5.536  24.634   9.370
 1627POPC   PO423844   6.125  24.327   9.478
 1627POPC   GL123845   5.974  24.508   9.122
 1627POPC   GL223846   5.741  24.227   9.053
 1627POPC   C1A23847   5.983  24.697   8.712
 1627POPC   D2A23848   5.639  24.747   8.408
 1627POPC   C3A23849   5.720  24.592   8.006
 1627POPC   C4A23850   5.958  24.776   7.695
 1627POPC   C1B23851   6.070  24.177   8.717
 1627POPC   C2B23852   6.055  24.253   8.248
 1627POPC   C3B23853   6.137  24.315   7.787
 1627POPC   C4B23854   6.220  24.127   7.356
 1628POPC   NC323855  28.029  36.550   9.456
 1628POPC   PO423856  28.452  37.151   9.480
 1628POPC   GL123857  28.464  36.810   9.205
 1628POPC   GL223858  28.149  36.900   9.117
 1628POPC   C1A23859  28.499  36.720   8.762
 1628POPC   D2A23860  28.744  36.808   8.401
 1628POPC   C3A23861  28.582  36.698   7.998
 1628POPC   C4A23862  28.591  37.044   7.719
 1628POPC   C1B23863  28.033  36.970   8.758
 1628POPC   C2B23864  28.078  37.195   8.456
 1628POPC   C3B23865  28.278  37.091   8.126
 1628POPC   C4B23866  28.122  36.842   7.782
 1629POPC   NC323867  19.207  25.820   9.553
 1629POPC   PO423868  19.518  26.391   9.622
 1629POPC   GL123869  19.256  26.215   9.209
 1629POPC   GL223870  19.071  25.898   9.094
 1629POPC   C1A23871  19.028  26.290   8.806
 1629POPC   D2A23872  19.230  26.202   8.423
 1629POPC   C3A23873  19.110  26.404   8.045
 1629POPC   C4A23874  19.059  26.269   7.644
 1629POPC   C1B23875  19.322  25.680   8.824
 1629POPC   C2B23876  19.149  25.597   8.482
 1629POPC   C3B23877  18.952  25.702   8.107
 1629POPC   C4B23878  19.097  25.786   7.737
 1630POPC   NC323879   0.924  34.411   9.429
 1630POPC   PO423880   1.481  34.627   9.737
 1630POPC   GL123881   1.324  34.661   9.251
 1630POPC   GL223882   1.008  34.877   9.169
 1630POPC   C1A23883   1.141  34.509   8.811
 1630POPC   D2A23884   0.986  34.264   8.434
 1630POPC   C3A23885   1.203  34.405   8.048
 1630POPC   C4A23886   1.176  34.519   7.588
 1630POPC   C1B23887   0.878  34.930   8.743
 1630POPC   C2B23888   0.967  34.771   8.355
 1630POPC   C3B23889   1.053  34.893   7.945
 1630POPC   C4B23890   1.466  34.852   7.823
 1631POPC   NC323891  13.235  23.885   9.390
 1631POPC   PO423892  13.702  23.493   9.677
 1631POPC   GL123893  13.674  23.529   9.223
 1631POPC   GL223894  13.682  23.888   9.157
 1631POPC   C1A23895  13.655  23.523   8.752
 1631POPC   D2A23896  13.483  23.459   8.327
 1631POPC   C3A23897  13.724  23.422   8.009
 1631POPC   C4A23898  13.741  23.563   7.615
 1631POPC   C1B23899  13.469  24.001   8.783
 1631POPC   C2B23900  13.602  23.948   8.353
 1631POPC   C3B23901  13.588  23.952   7.909
 1631POPC   C4B23902  13.667  24.038   7.450
 1632POPC   NC323903   9.908  23.178   9.487
 1632POPC   PO423904   9.389  22.794   9.498
 1632POPC   GL123905   9.611  22.746   9.142
 1632POPC   GL223906   9.983  22.743   9.218
 1632POPC   C1A23907   9.480  22.832   8.725
 1632POPC   D2A23908   9.447  23.129   8.347
 1632POPC   C3A23909   9.537  22.915   7.956
 1632POPC   C4A23910   9.389  22.618   7.682
 1632POPC   C1B23911   9.994  22.938   8.821
 1632POPC   C2B23912   9.858  22.806   8.403
 1632POPC   C3B23913  10.004  22.721   8.022
 1632POPC   C4B23914   9.989  23.004   7.657
 1633POPC   NC323915  40.982  14.794   9.440
 1633POPC   PO423916  40.675  15.463   9.511
 1633POPC   GL123917  40.763  15.393   9.126
 1633POPC   GL223918  40.972  15.111   9.036
 1633POPC   C1A23919  40.743  15.481   8.720
 1633POPC   D2A23920  40.881  15.208   8.381
 1633POPC   C3A23921  40.683  15.228   7.977
 1633POPC   C4A23922  40.851  15.240   7.565
 1633POPC   C1B23923  41.204  14.904   8.693
 1633POPC   C2B23924  41.274  14.766   8.262
 1633POPC   C3B23925  41.221  15.031   7.870
 1633POPC   C4B23926  41.216  14.923   7.387
 1634POPC   NC323927   8.088  10.193   9.489
 1634POPC   PO423928   8.703   9.933   9.479
 1634POPC   GL123929   8.362   9.850   9.151
 1634POPC   GL223930   8.010   9.954   9.065
 1634POPC   C1A23931   8.246   9.572   8.806
 1634POPC   D2A23932   8.053   9.422   8.396
 1634POPC   C3A23933   8.220   9.512   7.964
 1634POPC   C4A23934   7.995   9.575   7.572
 1634POPC   C1B23935   7.928   9.926   8.647
 1634POPC   C2B23936   8.067   9.915   8.243
 1634POPC   C3B23937   8.225  10.007   7.839
 1634POPC   C4B23938   8.666  10.115   7.752
 1635POPC   NC323939   1.312  18.078   9.428
 1635POPC   PO423940   0.993  18.571   9.705
 1635POPC   GL123941   0.950  18.395   9.271
 1635POPC   GL223942   1.311  18.428   9.068
 1635POPC   C1A23943   0.900  18.252   8.863
 1635POPC   D2A23944   1.129  18.475   8.569
 1635POPC   C3A23945   1.067  18.422   8.144
 1635POPC   C4A23946   1.250  18.201   7.841
 1635POPC   C1B23947   1.435  18.099   8.748
 1635POPC   C2B23948   1.525  18.211   8.294
 1635POPC   C3B23949   1.723  18.361   7.908
 1635POPC   C4B23950   1.691  18.137   7.489
 1636POPC   NC323951  39.562   8.315   9.445
 1636POPC   PO423952  40.227   8.273   9.425
 1636POPC   GL123953  39.914   8.188   9.062
 1636POPC   GL223954  39.646   7.938   9.110
 1636POPC   C1A23955  39.972   8.319   8.614
 1636POPC   D2A23956  39.822   8.504   8.228
 1636POPC   C3A23957  40.097   8.492   7.881
 1636POPC   C4A23958  40.208   8.195   7.573
 1636POPC   C1B23959  39.797   7.836   8.678
 1636POPC   C2B23960  39.630   8.020   8.288
 1636POPC   C3B23961  39.746   8.091   7.850
 1636POPC   C4B23962  39.881   7.811   7.507
 1637POPC   NC323963   3.380  38.600   9.332
 1637POPC   PO423964   3.887  38.721   9.791
 1637POPC   GL123965   3.897  38.417   9.288
 1637POPC   GL223966   3.815  38.082   9.296
 1637POPC   C1A23967   3.699  38.410   8.790
 1637POPC   D2A23968   3.316  38.406   8.457
 1637POPC   C3A23969   3.330  38.597   8.019
 1637POPC   C4A23970   3.667  38.623   7.722
 1637POPC   C1B23971   3.989  38.014   8.879
 1637POPC   C2B23972   3.967  38.064   8.459
 1637POPC   C3B23973   3.664  38.186   8.121
 1637POPC   C4B23974   3.243  38.115   7.941
 1638POPC   NC323975  29.450  11.165   9.411
 1638POPC   PO423976  28.908  11.481   9.598
 1638POPC   GL123977  29.072  11.464   9.188
 1638POPC   GL223978  29.387  11.664   9.196
 1638POPC   C1A23979  29.029  11.303   8.759
 1638POPC   D2A23980  28.719  11.425   8.434
 1638POPC   C3A23981  28.926  11.354   8.062
 1638POPC   C4A23982  28.980  11.029   7.720
 1638POPC   C1B23983  29.496  11.577   8.770
 1638POPC   C2B23984  29.452  11.314   8.398
 1638POPC   C3B23985  29.425  11.409   7.964
 1638POPC   C4B23986  29.160  11.503   7.633
 1639POPC   NC323987  26.118   5.338   9.380
 1639POPC   PO423988  25.775   5.808   9.622
 1639POPC   GL123989  25.820   5.894   9.198
 1639POPC   GL223990  25.746   5.577   9.117
 1639POPC   C1A23991  25.926   5.896   8.758
 1639POPC   D2A23992  25.928   5.681   8.346
 1639POPC   C3A23993  25.859   5.891   7.941
 1639POPC   C4A23994  26.166   5.844   7.625
 1639POPC   C1B23995  25.594   5.508   8.731
 1639POPC   C2B23996  25.596   5.288   8.355
 1639POPC   C3B23997  25.574   5.464   7.960
 1639POPC   C4B23998  25.785   5.535   7.566
 1640POPC   NC323999  40.533  20.497   9.690
 1640POPC   PO424000  41.030  20.898   9.465
 1640POPC   GL124001  40.860  20.580   9.176
 1640POPC   GL224002  40.534  20.396   9.208
 1640POPC   C1A24003  40.799  20.662   8.738
 1640POPC   D2A24004  40.603  20.854   8.370
 1640POPC   C3A24005  40.786  20.758   7.968
 1640POPC   C4A24006  41.121  20.800   7.692
 1640POPC   C1B24007  40.401  20.381   8.846
 1640POPC   C2B24008  40.480  20.371   8.444
 1640POPC   C3B24009  40.318  20.244   8.074
 1640POPC   C4B24010  40.557  20.386   7.720
 1641POPC   NC324011   2.417  21.212   9.407
 1641POPC   PO424012   1.757  21.576   9.476
 1641POPC   GL124013   1.971  21.409   9.137
 1641POPC   GL224014   2.287  21.617   9.107
 1641POPC   C1A24015   2.083  21.172   8.774
 1641POPC   D2A24016   2.295  21.064   8.370
 1641POPC   C3A24017   2.028  21.195   8.037
 1641POPC   C4A24018   1.900  21.557   7.782
 1641POPC   C1B24019   2.189  21.671   8.653
 1641POPC   C2B24020   2.258  21.658   8.187
 1641POPC   C3B24021   2.373  21.753   7.764
 1641POPC   C4B24022   2.370  21.345   7.689
 1642POPC   NC324023  26.374  39.268   9.765
 1642POPC   PO424024  25.702  39.317   9.746
 1642POPC   GL124025  25.813  39.175   9.265
 1642POPC   GL224026  26.146  39.037   9.271
 1642POPC   C1A24027  25.934  39.287   8.820
 1642POPC   D2A24028  25.858  39.411   8.376
 1642POPC   C3A24029  25.962  39.292   7.940
 1642POPC   C4A24030  26.330  39.361   7.705
 1642POPC   C1B24031  26.217  38.875   8.823
 1642POPC   C2B24032  26.246  39.059   8.384
 1642POPC   C3B24033  26.274  38.861   7.964
 1642POPC   C4B24034  26.236  38.902   7.493
 1643POPC   NC324035  43.612  21.553   9.787
 1643POPC   PO424036  43.797  20.982   9.556
 1643POPC   GL124037  43.954  21.150   9.182
 1643POPC   GL224038  44.170  20.941   9.103
 1643POPC   C1A24039  43.889  21.392   8.813
 1643POPC   D2A24040  43.573  21.513   8.513
 1643POPC   C3A24041  43.701  21.290   8.146
 1643POPC   C4A24042  43.842  21.417   7.744
 1643POPC   C1B24043  44.286  20.877   8.721
 1643POPC   C2B24044  44.133  21.125   8.399
 1643POPC   C3B24045  44.088  20.992   7.979
 1643POPC   C4B24046  44.216  21.125   7.575
 1644POPC   NC324047  37.698  44.319   9.477
 1644POPC   PO424048  37.834  44.865   9.782
 1644POPC   GL124049  37.756  44.764   9.252
 1644POPC   GL224050  37.944  44.467   9.067
 1644POPC   C1A24051  37.496  44.668   8.820
 1644POPC   D2A24052  37.295  44.606   8.384
 1644POPC   C3A24053  37.504  44.535   7.945
 1644POPC   C4A24054  37.737  44.820   7.623
 1644POPC   C1B24055  37.895  44.426   8.608
 1644POPC   C2B24056  38.020  44.322   8.171
 1644POPC   C3B24057  37.930  44.356   7.735
 1644POPC   C4B24058  37.627  44.391   7.384
 1645POPC   NC324059  23.693  13.919   9.420
 1645POPC   PO424060  23.471  13.318   9.462
 1645POPC   GL124061  23.718  13.468   9.120
 1645POPC   GL224062  23.921  13.756   9.012
 1645POPC   C1A24063  23.617  13.422   8.726
 1645POPC   D2A24064  23.730  13.308   8.353
 1645POPC   C3A24065  23.450  13.457   8.103
 1645POPC   C4A24066  23.586  13.344   7.735
 1645POPC   C1B24067  23.717  13.950   8.734
 1645POPC   C2B24068  23.817  14.138   8.371
 1645POPC   C3B24069  23.779  13.838   8.055
 1645POPC   C4B24070  23.409  13.895   7.838
 1646POPC   NC324071  38.371  11.462   9.545
 1646POPC   PO424072  38.357  10.829   9.634
 1646POPC   GL124073  38.500  11.104   9.227
 1646POPC   GL224074  38.239  11.204   9.118
 1646POPC   C1A24075  38.652  11.329   8.840
 1646POPC   D2A24076  38.567  11.233   8.406
 1646POPC   C3A24077  38.803  11.163   8.053
 1646POPC   C4A24078  38.619  11.269   7.650
 1646POPC   C1B24079  38.130  11.275   8.718
 1646POPC   C2B24080  38.075  11.159   8.303
 1646POPC   C3B24081  38.175  11.345   7.930
 1646POPC   C4B24082  38.135  11.149   7.551
 1647POPC   NC324083  30.055  29.842   9.469
 1647POPC   PO424084  29.553  30.281   9.245
 1647POPC   GL124085  29.824  30.067   9.025
 1647POPC   GL224086  30.060  29.781   8.975
 1647POPC   C1A24087  29.682  29.866   8.668
 1647POPC   D2A24088  29.913  29.654   8.391
 1647POPC   C3A24089  29.986  29.984   8.128
 1647POPC   C4A24090  29.680  30.144   7.881
 1647POPC   C1B24091  30.182  30.068   8.633
 1647POPC   C2B24092  30.460  30.131   8.258
 1647POPC   C3B24093  30.408  30.016   7.805
 1647POPC   C4B24094  30.286  29.800   7.419
 1648POPC   NC324095  39.019  44.807   9.605
 1648POPC   PO424096  39.582  44.868   9.491
 1648POPC   GL124097  39.315  44.523   9.258
 1648POPC   GL224098  39.201  44.806   9.120
 1648POPC   C1A24099  39.117  44.388   8.826
 1648POPC   D2A24100  39.208  44.535   8.402
 1648POPC   C3A24101  39.140  44.413   7.973
 1648POPC   C4A24102  39.051  44.422   7.517
 1648POPC   C1B24103  39.356  44.901   8.750
 1648POPC   C2B24104  39.618  44.863   8.419
 1648POPC   C3B24105  39.395  44.905   8.056
 1648POPC   C4B24106  39.302  44.824   7.659
 1649POPC   NC324107  34.971   1.333   9.526
 1649POPC   PO424108  34.460   0.976   9.548
 1649POPC   GL124109  34.533   1.178   9.185
 1649POPC   GL224110  34.838   0.995   9.147
 1649POPC   C1A24111  34.426   1.003   8.782
 1649POPC   D2A24112  34.480   0.759   8.387
 1649POPC   C3A24113  34.499   0.983   7.978
 1649POPC   C4A24114  34.281   1.303   7.755
 1649POPC   C1B24115  34.874   1.269   8.798
 1649POPC   C2B24116  34.636   1.294   8.407
 1649POPC   C3B24117  34.679   1.494   8.029
 1649POPC   C4B24118  35.031   1.668   7.848
 1650POPC   NC324119   3.765  21.982   9.794
 1650POPC   PO424120   3.180  22.260   9.795
 1650POPC   GL124121   3.412  22.273   9.360
 1650POPC   GL224122   3.497  21.939   9.187
 1650POPC   C1A24123   3.365  22.333   8.870
 1650POPC   D2A24124   3.616  22.311   8.475
 1650POPC   C3A24125   3.455  22.242   8.065
 1650POPC   C4A24126   3.606  22.258   7.653
 1650POPC   C1B24127   3.599  21.854   8.737
 1650POPC   C2B24128   3.757  21.815   8.318
 1650POPC   C3B24129   3.717  21.829   7.884
 1650POPC   C4B24130   3.739  21.800   7.424
 1651POPC   NC324131  10.170  31.343   9.700
 1651POPC   PO424132  10.727  31.612   9.499
 1651POPC   GL124133  10.498  31.321   9.261
 1651POPC   GL224134  10.751  31.118   9.121
 1651POPC   C1A24135  10.398  31.418   8.843
 1651POPC   D2A24136  10.579  31.579   8.452
 1651POPC   C3A24137  10.414  31.523   8.050
 1651POPC   C4A24138  10.349  31.771   7.685
 1651POPC   C1B24139  10.905  31.338   8.759
 1651POPC   C2B24140  10.877  31.145   8.339
 1651POPC   C3B24141  10.863  31.311   7.928
 1651POPC   C4B24142  10.990  31.182   7.554
 1652POPC   NC324143   5.744  28.851   9.612
 1652POPC   PO424144   6.055  29.373   9.412
 1652POPC   GL124145   5.887  29.056   9.153
 1652POPC   GL224146   5.942  29.270   8.898
 1652POPC   C1A24147   5.576  28.937   8.811
 1652POPC   D2A24148   5.698  28.803   8.365
 1652POPC   C3A24149   5.623  28.909   7.911
 1652POPC   C4A24150   5.961  28.757   7.615
 1652POPC   C1B24151   5.667  29.441   8.618
 1652POPC   C2B24152   5.647  29.335   8.236
 1652POPC   C3B24153   6.004  29.195   8.085
 1652POPC   C4B24154   5.979  29.280   7.696
 1653POPC   NC324155  43.586   2.384   9.338
 1653POPC   PO424156  44.132   1.959   9.474
 1653POPC   GL124157  43.885   2.047   9.075
 1653POPC   GL224158  43.748   1.753   8.866
 1653POPC   C1A24159  43.999   2.158   8.668
 1653POPC   D2A24160  43.821   2.441   8.383
 1653POPC   C3A24161  43.900   2.215   8.016
 1653POPC   C4A24162  44.264   1.970   7.897
 1653POPC   C1B24163  44.144   1.573   8.667
 1653POPC   C2B24164  44.220   1.550   8.221
 1653POPC   C3B24165  43.864   1.685   7.952
 1653POPC   C4B24166  43.440   1.829   7.965
 1654POPC   NC324167  30.575  29.046   9.781
 1654POPC   PO424168  30.996  28.864   9.313
 1654POPC   GL124169  30.636  28.957   9.054
 1654POPC   GL224170  30.354  29.029   9.275
 1654POPC   C1A24171  30.636  29.056   8.601
 1654POPC   D2A24172  30.687  29.257   8.189
 1654POPC   C3A24173  30.720  29.051   7.761
 1654POPC   C4A24174  30.914  28.983   7.328
 1654POPC   C1B24175  30.362  29.377   8.933
 1654POPC   C2B24176  30.415  29.612   8.534
 1654POPC   C3B24177  30.315  29.592   8.092
 1654POPC   C4B24178  30.347  29.396   7.722
 1655POPC   NC324179  15.826  19.791   9.510
 1655POPC   PO424180  16.321  19.345   9.460
 1655POPC   GL124181  16.114  19.659   9.140
 1655POPC   GL224182  16.333  19.853   8.970
 1655POPC   C1A24183  15.854  19.934   8.837
 1655POPC   D2A24184  16.108  20.097   8.477
 1655POPC   C3A24185  15.908  20.089   8.048
 1655POPC   C4A24186  15.760  19.963   7.630
 1655POPC   C1B24187  16.153  19.548   8.653
 1655POPC   C2B24188  16.118  19.627   8.218
 1655POPC   C3B24189  16.170  19.683   7.797
 1655POPC   C4B24190  16.091  19.650   7.338
 1656POPC   NC324191  44.250  16.672   9.423
 1656POPC   PO424192  44.872  16.639   9.708
 1656POPC   GL124193  44.694  16.764   9.203
 1656POPC   GL224194  44.870  16.564   9.006
 1656POPC   C1A24195  44.445  16.691   8.786
 1656POPC   D2A24196  44.207  16.645   8.428
 1656POPC   C3A24197  44.396  16.721   8.061
 1656POPC   C4A24198  44.356  16.671   7.631
 1656POPC   C1B24199  44.963  16.765   8.655
 1656POPC   C2B24200  44.878  16.618   8.280
 1656POPC   C3B24201  44.796  16.478   7.889
 1656POPC   C4B24202   0.099  16.551   7.680
 1657POPC   NC324203  32.795  31.413   9.919
 1657POPC   PO424204  33.457  31.336   9.673
 1657POPC   GL124205  33.289  31.561   9.220
 1657POPC   GL224206  32.951  31.754   9.158
 1657POPC   C1A24207  33.241  31.633   8.746
 1657POPC   D2A24208  33.045  31.770   8.339
 1657POPC   C3A24209  33.213  31.641   7.924
 1657POPC   C4A24210  33.226  31.259   7.629
 1657POPC   C1B24211  32.704  31.789   8.739
 1657POPC   C2B24212  32.565  31.969   8.316
 1657POPC   C3B24213  32.702  31.768   7.935
 1657POPC   C4B24214  32.808  31.319   7.924
 1658POPC   NC324215  30.751  44.407   9.771
 1658POPC   PO424216  30.498  44.989   9.579
 1658POPC   GL124217  30.665  44.736   9.226
 1658POPC   GL224218  30.837  44.396   9.221
 1658POPC   C1A24219  30.713  44.796   8.800
 1658POPC   D2A24220  30.518  44.630   8.459
 1658POPC   C3A24221  30.687  44.858   8.104
 1658POPC   C4A24222  30.939   0.210   7.913
 1658POPC   C1B24223  30.986  44.356   8.779
 1658POPC   C2B24224  31.040  44.574   8.351
 1658POPC   C3B24225  30.989  44.527   7.873
 1658POPC   C4B24226  30.862  44.436   7.438
 1659POPC   NC324227  44.998  37.468   9.738
 1659POPC   PO424228   0.644  37.642   9.618
 1659POPC   GL124229   0.561  37.691   9.193
 1659POPC   GL224230   0.283  37.898   9.092
 1659POPC   C1A24231   0.424  37.456   8.816
 1659POPC   D2A24232   0.289  37.568   8.425
 1659POPC   C3A24233   0.532  37.671   8.099
 1659POPC   C4A24234   0.254  37.467   7.876
 1659POPC   C1B24235   0.602  37.990   8.787
 1659POPC   C2B24236   0.850  37.942   8.409
 1659POPC   C3B24237   0.725  38.149   8.051
 1659POPC   C4B24238   0.626  38.024   7.643
 1660POPC   NC324239  31.524  40.860   9.555
 1660POPC   PO424240  31.020  40.535   9.261
 1660POPC   GL124241  31.519  40.589   9.132
 1660POPC   GL224242  31.657  40.933   9.076
 1660POPC   C1A24243  31.704  40.607   8.702
 1660POPC   D2A24244  31.357  40.445   8.444
 1660POPC   C3A24245  31.327  40.499   8.047
 1660POPC   C4A24246  31.592  40.630   7.785
 1660POPC   C1B24247  31.532  41.089   8.669
 1660POPC   C2B24248  31.531  40.934   8.243
 1660POPC   C3B24249  31.698  41.120   7.851
 1660POPC   C4B24250  31.509  40.997   7.437
 1661POPC   NC324251  35.765  39.855   9.317
 1661POPC   PO424252  36.106  40.267   9.487
 1661POPC   GL124253  36.401  40.122   9.158
 1661POPC   GL224254  36.255  39.784   9.097
 1661POPC   C1A24255  36.322  40.049   8.694
 1661POPC   D2A24256  36.000  40.134   8.414
 1661POPC   C3A24257  35.870  39.923   8.063
 1661POPC   C4A24258  35.950  40.101   7.689
 1661POPC   C1B24259  36.544  39.599   8.777
 1661POPC   C2B24260  36.402  39.698   8.339
 1661POPC   C3B24261  36.366  39.859   7.927
 1661POPC   C4B24262  36.234  39.654   7.542
 1662POPC   NC324263  31.488  16.812   9.696
 1662POPC   PO424264  31.683  16.243   9.538
 1662POPC   GL124265  31.575  16.604   9.223
 1662POPC   GL224266  31.780  16.907   9.177
 1662POPC   C1A24267  31.452  16.765   8.789
 1662POPC   D2A24268  31.405  16.955   8.344
 1662POPC   C3A24269  31.535  16.643   8.003
 1662POPC   C4A24270  31.738  16.455   7.642
 1662POPC   C1B24271  31.696  17.211   8.809
 1662POPC   C2B24272  31.800  17.304   8.373
 1662POPC   C3B24273  31.682  17.162   7.945
 1662POPC   C4B24274  31.253  17.013   7.826
 1663POPC   NC324275  22.493  40.270   9.440
 1663POPC   PO424276  21.812  40.006   9.462
 1663POPC   GL124277  22.036  40.106   9.108
 1663POPC   GL224278  22.260  39.838   8.998
 1663POPC   C1A24279  21.994  40.278   8.692
 1663POPC   D2A24280  22.166  40.037   8.357
 1663POPC   C3A24281  21.980  40.167   8.010
 1663POPC   C4A24282  21.930  39.888   7.685
 1663POPC   C1B24283  22.483  40.138   8.752
 1663POPC   C2B24284  22.701  40.041   8.356
 1663POPC   C3B24285  22.514  39.988   7.946
 1663POPC   C4B24286  22.371  40.347   7.716
 1664POPC   NC324287  31.883  31.589   9.592
 1664POPC   PO424288  32.466  31.213   9.625
 1664POPC   GL124289  32.232  31.415   9.226
 1664POPC   GL224290  32.066  31.768   9.139
 1664POPC   C1A24291  32.307  31.416   8.748
 1664POPC   D2A24292  32.487  31.458   8.311
 1664POPC   C3A24293  32.143  31.327   8.013
 1664POPC   C4A24294  31.880  31.147   7.694
 1664POPC   C1B24295  32.214  31.914   8.735
 1664POPC   C2B24296  32.085  31.761   8.310
 1664POPC   C3B24297  32.198  31.813   7.863
 1664POPC   C4B24298  32.463  31.890   7.461
 1665POPC   NC324299  19.092  23.523   9.628
 1665POPC   PO424300  18.474  23.716   9.492
 1665POPC   GL124301  18.809  23.484   9.189
 1665POPC   GL224302  19.212  23.435   9.153
 1665POPC   C1A24303  18.896  23.566   8.741
 1665POPC   D2A24304  18.765  23.782   8.372
 1665POPC   C3A24305  19.105  23.923   8.105
 1665POPC   C4A24306  19.342  23.764   7.777
 1665POPC   C1B24307  19.292  23.244   8.758
 1665POPC   C2B24308  19.232  23.442   8.344
 1665POPC   C3B24309  19.337  23.273   7.944
 1665POPC   C4B24310  19.665  23.342   7.654
 1666POPC   NC324311   9.588  35.957   9.503
 1666POPC   PO424312  10.028  36.482   9.806
 1666POPC   GL124313   9.990  36.236   9.350
 1666POPC   GL224314   9.643  36.287   9.128
 1666POPC   C1A24315  10.033  36.088   8.893
 1666POPC   D2A24316   9.846  35.900   8.482
 1666POPC   C3A24317   9.903  36.119   8.097
 1666POPC   C4A24318  10.005  35.995   7.695
 1666POPC   C1B24319   9.448  36.006   8.815
 1666POPC   C2B24320   9.322  35.961   8.380
 1666POPC   C3B24321   9.477  35.881   7.954
 1666POPC   C4B24322   9.529  36.230   7.677
 1667POPC   NC324323  18.897  41.682   9.908
 1667POPC   PO424324  19.028  41.403   9.336
 1667POPC   GL124325  19.076  41.113   9.073
 1667POPC   GL224326  19.412  41.089   9.001
 1667POPC   C1A24327  18.987  41.270   8.677
 1667POPC   D2A24328  19.032  41.705   8.477
 1667POPC   C3A24329  19.064  41.560   8.072
 1667POPC   C4A24330  18.931  41.347   7.726
 1667POPC   C1B24331  19.423  41.504   8.787
 1667POPC   C2B24332  19.567  41.729   8.402
 1667POPC   C3B24333  19.490  41.826   7.977
 1667POPC   C4B24334  19.206  41.802   7.637
 1668POPC   NC324335   0.713  26.835   9.445
 1668POPC   PO424336   0.245  26.540   9.694
 1668POPC   GL124337   0.315  26.637   9.159
 1668POPC   GL224338   0.647  26.650   8.990
 1668POPC   C1A24339   0.378  26.955   8.710
 1668POPC   D2A24340   0.284  27.159   8.264
 1668POPC   C3A24341   0.435  27.083   7.832
 1668POPC   C4A24342   0.291  26.645   7.691
 1668POPC   C1B24343   0.890  26.869   8.679
 1668POPC   C2B24344   0.902  26.916   8.215
 1668POPC   C3B24345   0.786  26.712   7.818
 1668POPC   C4B24346   0.687  26.811   7.382
 1669POPC   NC324347  11.483  10.998   9.289
 1669POPC   PO424348  10.921  10.840   9.500
 1669POPC   GL124349  11.008  10.548   9.135
 1669POPC   GL224350  11.340  10.504   9.157
 1669POPC   C1A24351  10.946  10.433   8.715
 1669POPC   D2A24352  11.125  10.628   8.328
 1669POPC   C3A24353  11.109  10.357   8.017
 1669POPC   C4A24354  11.121  10.552   7.626
 1669POPC   C1B24355  11.447  10.584   8.740
 1669POPC   C2B24356  11.485  10.297   8.396
 1669POPC   C3B24357  11.610  10.394   7.986
 1669POPC   C4B24358  11.625  10.812   7.837
 1670POPC   NC324359  38.757  40.627   9.495
 1670POPC   PO424360  39.327  40.314   9.655
 1670POPC   GL124361  39.285  40.663   9.334
 1670POPC   GL224362  39.415  41.020   9.264
 1670POPC   C1A24363  39.162  40.632   8.925
 1670POPC   D2A24364  39.003  40.818   8.545
 1670POPC   C3A24365  39.129  40.737   8.143
 1670POPC   C4A24366  39.252  40.588   7.717
 1670POPC   C1B24367  39.435  41.030   8.813
 1670POPC   C2B24368  39.558  40.815   8.420
 1670POPC   C3B24369  39.545  40.995   7.991
 1670POPC   C4B24370  39.125  41.100   7.801
 1671POPC   NC324371   9.731  35.182   9.624
 1671POPC   PO424372   9.998  35.795   9.653
 1671POPC   GL124373   9.954  35.674   9.208
 1671POPC   GL224374   9.873  35.319   9.131
 1671POPC   C1A24375  10.104  35.583   8.779
 1671POPC   D2A24376   9.981  35.376   8.392
 1671POPC   C3A24377   9.953  35.594   8.008
 1671POPC   C4A24378  10.019  35.258   7.657
 1671POPC   C1B24379   9.608  35.498   8.748
 1671POPC   C2B24380   9.503  35.493   8.292
 1671POPC   C3B24381   9.566  35.307   7.904
 1671POPC   C4B24382   9.537  35.425   7.467
 1672POPC   NC324383   9.323  27.870   9.354
 1672POPC   PO424384   8.927  27.279   9.490
 1672POPC   GL124385   9.007  27.539   9.136
 1672POPC   GL224386   9.338  27.404   9.147
 1672POPC   C1A24387   8.997  27.732   8.702
 1672POPC   D2A24388   9.282  27.964   8.412
 1672POPC   C3A24389   9.193  27.810   7.991
 1672POPC   C4A24390   8.882  27.700   7.680
 1672POPC   C1B24391   9.436  27.485   8.732
 1672POPC   C2B24392   9.218  27.400   8.348
 1672POPC   C3B24393   9.272  27.285   7.921
 1672POPC   C4B24394   9.188  27.322   7.476
 1673POPC   NC324395  33.943  33.504   9.449
 1673POPC   PO424396  34.085  34.229   9.370
 1673POPC   GL124397  34.061  33.883   9.109
 1673POPC   GL224398  33.695  33.831   9.063
 1673POPC   C1A24399  34.028  33.684   8.700
 1673POPC   D2A24400  33.786  33.841   8.364
 1673POPC   C3A24401  33.836  33.593   8.008
 1673POPC   C4A24402  33.737  33.705   7.611
 1673POPC   C1B24403  33.457  34.043   8.722
 1673POPC   C2B24404  33.428  34.258   8.344
 1673POPC   C3B24405  33.441  33.986   7.994
 1673POPC   C4B24406  33.386  34.090   7.593
 1674POPC   NC324407   1.357   6.425   9.351
 1674POPC   PO424408   2.064   6.658   9.534
 1674POPC   GL124409   2.073   6.725   9.117
 1674POPC   GL224410   1.781   6.553   9.109
 1674POPC   C1A24411   2.009   6.763   8.678
 1674POPC   D2A24412   2.218   6.685   8.319
 1674POPC   C3A24413   2.055   6.870   7.966
 1674POPC   C4A24414   1.739   6.668   7.736
 1674POPC   C1B24415   1.735   6.339   8.753
 1674POPC   C2B24416   2.013   6.214   8.447
 1674POPC   C3B24417   1.925   6.315   8.045
 1674POPC   C4B24418   2.007   6.244   7.616
 1675POPC   NC324419  35.861  35.169   9.560
 1675POPC   PO424420  36.491  35.443   9.456
 1675POPC   GL124421  36.297  35.514   9.046
 1675POPC   GL224422  36.092  35.295   9.085
 1675POPC   C1A24423  36.158  35.528   8.646
 1675POPC   D2A24424  36.295  35.518   8.259
 1675POPC   C3A24425  36.424  35.122   8.097
 1675POPC   C4A24426  36.247  35.130   7.728
 1675POPC   C1B24427  36.407  35.102   8.772
 1675POPC   C2B24428  36.093  35.040   8.496
 1675POPC   C3B24429  35.905  35.145   8.140
 1675POPC   C4B24430  35.800  34.920   7.746
 1676POPC   NC324431  37.221  37.335   9.252
 1676POPC   PO424432  37.546  37.714   9.686
 1676POPC   GL124433  37.465  37.786   9.172
 1676POPC   GL224434  37.817  37.832   9.106
 1676POPC   C1A24435  37.564  37.616   8.684
 1676POPC   D2A24436  37.709  37.558   8.238
 1676POPC   C3A24437  37.426  37.479   7.853
 1676POPC   C4A24438  37.535  37.269   7.421
 1676POPC   C1B24439  37.961  37.973   8.714
 1676POPC   C2B24440  38.153  37.974   8.300
 1676POPC   C3B24441  37.987  38.027   7.868
 1676POPC   C4B24442  37.744  37.743   7.540
 1677POPC   NC324443  31.953  40.079   9.618
 1677POPC   PO424444  32.504  39.736   9.551
 1677POPC   GL124445  32.361  39.865   9.150
 1677POPC   GL224446  32.005  39.798   9.188
 1677POPC   C1A24447  32.230  39.891   8.714
 1677POPC   D2A24448  32.286  40.179   8.393
 1677POPC   C3A24449  32.357  40.023   8.020
 1677POPC   C4A24450  32.464  40.102   7.635
 1677POPC   C1B24451  31.913  40.188   8.956
 1677POPC   C2B24452  31.795  40.153   8.518
 1677POPC   C3B24453  31.871  40.414   8.161
 1677POPC   C4B24454  32.011  40.321   7.738
 1678POPC   NC324455  22.830  28.000   9.478
 1678POPC   PO424456  23.307  27.614   9.636
 1678POPC   GL124457  23.056  27.650   9.170
 1678POPC   GL224458  22.700  27.789   9.060
 1678POPC   C1A24459  23.022  27.682   8.694
 1678POPC   D2A24460  22.908  27.432   8.336
 1678POPC   C3A24461  23.009  27.550   7.935
 1678POPC   C4A24462  22.944  27.347   7.535
 1678POPC   C1B24463  22.650  28.065   8.720
 1678POPC   C2B24464  22.722  27.927   8.302
 1678POPC   C3B24465  22.729  27.965   7.863
 1678POPC   C4B24466  22.820  27.845   7.468
 1679POPC   NC324467  27.418  27.124   9.464
 1679POPC   PO424468  27.858  26.665   9.550
 1679POPC   GL124469  27.805  26.603   9.119
 1679POPC   GL224470  27.522  26.788   9.091
 1679POPC   C1A24471  27.809  26.732   8.663
 1679POPC   D2A24472  27.566  26.752   8.288
 1679POPC   C3A24473  27.685  26.735   7.844
 1679POPC   C4A24474  28.011  27.002   7.773
 1679POPC   C1B24475  27.280  26.827   8.732
 1679POPC   C2B24476  27.149  27.012   8.356
 1679POPC   C3B24477  27.174  26.811   7.984
 1679POPC   C4B24478  27.165  26.943   7.598
 1680POPC   NC324479  18.472  38.341   9.667
 1680POPC   PO424480  17.990  38.691   9.331
 1680POPC   GL124481  18.157  38.460   9.027
 1680POPC   GL224482  18.447  38.325   9.166
 1680POPC   C1A24483  18.228  38.494   8.576
 1680POPC   D2A24484  17.905  38.558   8.245
 1680POPC   C3A24485  18.002  38.569   7.814
 1680POPC   C4A24486  18.003  38.167   7.586
 1680POPC   C1B24487  18.702  38.376   8.837
 1680POPC   C2B24488  18.734  38.390   8.404
 1680POPC   C3B24489  18.458  38.502   8.062
 1680POPC   C4B24490  18.445  38.403   7.615
 1681POPC   NC324491  14.707  40.285   9.484
 1681POPC   PO424492  14.192  39.836   9.471
 1681POPC   GL124493  14.304  39.997   9.068
 1681POPC   GL224494  14.674  40.004   9.066
 1681POPC   C1A24495  14.179  39.745   8.679
 1681POPC   D2A24496  14.370  39.602   8.278
 1681POPC   C3A24497  14.167  39.783   7.898
 1681POPC   C4A24498  14.100  39.991   7.480
 1681POPC   C1B24499  14.676  39.843   8.649
 1681POPC   C2B24500  14.552  40.065   8.279
 1681POPC   C3B24501  14.430  40.248   7.883
 1681POPC   C4B24502  14.604  40.033   7.507
 1682POPC   NC324503  37.851  21.098   9.531
 1682POPC   PO424504  37.654  21.733   9.677
 1682POPC   GL124505  37.557  21.493   9.250
 1682POPC   GL224506  37.779  21.263   9.065
 1682POPC   C1A24507  37.559  21.602   8.765
 1682POPC   D2A24508  37.468  21.806   8.342
 1682POPC   C3A24509  37.504  21.582   7.939
 1682POPC   C4A24510  37.381  21.137   7.783
 1682POPC   C1B24511  37.994  21.296   8.695
 1682POPC   C2B24512  37.829  21.415   8.328
 1682POPC   C3B24513  37.890  21.255   7.939
 1682POPC   C4B24514  37.834  20.955   7.616
 1683POPC   NC324515   3.323   5.055   9.487
 1683POPC   PO424516   3.821   5.527   9.451
 1683POPC   GL124517   3.689   5.292   9.109
 1683POPC   GL224518   3.643   4.937   9.078
 1683POPC   C1A24519   3.427   5.283   8.774
 1683POPC   D2A24520   3.614   5.443   8.406
 1683POPC   C3A24521   3.575   5.292   7.985
 1683POPC   C4A24522   3.409   5.485   7.586
 1683POPC   C1B24523   3.490   4.799   8.633
 1683POPC   C2B24524   3.245   4.717   8.240
 1683POPC   C3B24525   3.523   4.765   7.920
 1683POPC   C4B24526   3.857   4.850   8.209
 1684POPC   NC324527  24.255  34.310   9.719
 1684POPC   PO424528  24.759  34.703   9.932
 1684POPC   GL124529  24.668  34.662   9.396
 1684POPC   GL224530  24.359  34.678   9.226
 1684POPC   C1A24531  24.730  34.590   8.886
 1684POPC   D2A24532  24.625  34.364   8.485
 1684POPC   C3A24533  24.536  34.577   8.091
 1684POPC   C4A24534  24.430  34.480   7.659
 1684POPC   C1B24535  24.310  34.846   8.778
 1684POPC   C2B24536  24.258  34.973   8.326
 1684POPC   C3B24537  24.082  34.795   7.944
 1684POPC   C4B24538  23.960  34.720   7.544
 1685POPC   NC324539   7.489   2.483   9.213
 1685POPC   PO424540   7.355   1.847   9.563
 1685POPC   GL124541   7.337   1.923   9.147
 1685POPC   GL224542   7.069   1.681   9.136
 1685POPC   C1A24543   7.429   2.020   8.682
 1685POPC   D2A24544   7.346   2.274   8.280
 1685POPC   C3A24545   7.500   2.055   7.944
 1685POPC   C4A24546   7.925   2.106   7.771
 1685POPC   C1B24547   6.946   1.993   8.840
 1685POPC   C2B24548   6.960   1.977   8.418
 1685POPC   C3B24549   6.970   1.836   7.987
 1685POPC   C4B24550   7.197   1.828   7.610
 1686POPC   NC324551  12.657  33.894   9.445
 1686POPC   PO424552  13.215  33.761   9.736
 1686POPC   GL124553  13.239  33.777   9.228
 1686POPC   GL224554  12.967  33.894   9.047
 1686POPC   C1A24555  13.222  33.572   8.769
 1686POPC   D2A24556  12.923  33.655   8.414
 1686POPC   C3A24557  13.078  33.838   8.034
 1686POPC   C4A24558  13.329  33.833   7.626
 1686POPC   C1B24559  12.682  33.981   8.742
 1686POPC   C2B24560  12.429  33.867   8.393
 1686POPC   C3B24561  12.550  33.683   7.977
 1686POPC   C4B24562  12.789  33.888   7.634
 1687POPC   NC324563  13.241  39.380   9.556
 1687POPC   PO424564  13.729  38.950   9.441
 1687POPC   GL124565  13.471  39.144   9.154
 1687POPC   GL224566  13.498  39.519   9.143
 1687POPC   C1A24567  13.410  39.186   8.737
 1687POPC   D2A24568  13.549  39.035   8.358
 1687POPC   C3A24569  13.411  39.224   7.983
 1687POPC   C4A24570  13.452  39.054   7.600
 1687POPC   C1B24571  13.644  39.648   8.747
 1687POPC   C2B24572  13.471  39.565   8.385
 1687POPC   C3B24573  13.616  39.735   8.059
 1687POPC   C4B24574  13.704  39.693   7.683
 1688POPC   NC324575  13.020  32.963   9.461
 1688POPC   PO424576  12.533  32.566   9.196
 1688POPC   GL124577  12.862  32.894   8.987
 1688POPC   GL224578  12.941  33.292   9.093
 1688POPC   C1A24579  12.951  33.134   8.597
 1688POPC   D2A24580  13.254  33.286   8.282
 1688POPC   C3A24581  13.197  33.039   7.917
 1688POPC   C4A24582  12.898  32.947   7.599
 1688POPC   C1B24583  12.639  33.473   8.809
 1688POPC   C2B24584  12.496  33.345   8.384
 1688POPC   C3B24585  12.658  33.131   8.025
 1688POPC   C4B24586  12.519  33.288   7.623
 1689POPC   NC324587   2.709  25.645   9.547
 1689POPC   PO424588   2.650  25.063   9.544
 1689POPC   GL124589   2.864  25.246   9.184
 1689POPC   GL224590   3.106  25.538   9.239
 1689POPC   C1A24591   2.815  25.233   8.734
 1689POPC   D2A24592   2.544  25.180   8.364
 1689POPC   C3A24593   2.716  25.026   7.975
 1689POPC   C4A24594   2.547  24.984   7.566
 1689POPC   C1B24595   2.847  25.725   8.908
 1689POPC   C2B24596   2.846  25.669   8.475
 1689POPC   C3B24597   2.925  25.503   8.057
 1689POPC   C4B24598   2.702  25.457   7.666
 1690POPC   NC324599   2.981  17.944   9.294
 1690POPC   PO424600   2.490  18.376   9.449
 1690POPC   GL124601   2.773  18.548   9.191
 1690POPC   GL224602   2.778  18.294   8.997
 1690POPC   C1A24603   2.673  18.750   8.795
 1690POPC   D2A24604   2.759  18.529   8.438
 1690POPC   C3A24605   2.605  18.479   8.033
 1690POPC   C4A24606   2.871  18.288   7.711
 1690POPC   C1B24607   2.417  18.270   8.769
 1690POPC   C2B24608   2.494  18.088   8.405
 1690POPC   C3B24609   2.629  17.935   8.036
 1690POPC   C4B24610   2.460  17.924   7.651
 1691POPC   NC324611   4.057  24.309   9.485
 1691POPC   PO424612   4.421  24.875   9.593
 1691POPC   GL124613   4.269  24.675   9.160
 1691POPC   GL224614   4.229  24.290   9.031
 1691POPC   C1A24615   4.320  24.607   8.674
 1691POPC   D2A24616   4.144  24.474   8.292
 1691POPC   C3A24617   4.427  24.441   7.956
 1691POPC   C4A24618   4.348  24.353   7.545
 1691POPC   C1B24619   4.065  24.120   8.660
 1691POPC   C2B24620   3.867  23.974   8.252
 1691POPC   C3B24621   4.016  24.103   7.841
 1691POPC   C4B24622   3.888  24.119   7.388
 1692POPC   NC324623  36.283  42.336   9.592
 1692POPC   PO424624  36.250  43.013   9.371
 1692POPC   GL124625  36.181  42.581   9.151
 1692POPC   GL224626  36.041  42.190   9.176
 1692POPC   C1A24627  36.237  42.422   8.755
 1692POPC   D2A24628  36.038  42.490   8.365
 1692POPC   C3A24629  36.178  42.381   7.997
 1692POPC   C4A24630  36.332  42.479   7.594
 1692POPC   C1B24631  36.086  41.894   8.822
 1692POPC   C2B24632  36.001  41.954   8.393
 1692POPC   C3B24633  35.912  41.928   7.951
 1692POPC   C4B24634  36.244  41.988   7.679
 1693POPC   NC324635  19.778  10.906   9.499
 1693POPC   PO424636  20.143  10.356   9.342
 1693POPC   GL124637  20.003  10.648   9.117
 1693POPC   GL224638  19.676  10.560   9.006
 1693POPC   C1A24639  20.090  10.754   8.721
 1693POPC   D2A24640  19.949  10.576   8.343
 1693POPC   C3A24641  20.049  10.369   7.957
 1693POPC   C4A24642  19.826  10.648   7.717
 1693POPC   C1B24643  19.664  10.247   8.655
 1693POPC   C2B24644  19.616  10.221   8.176
 1693POPC   C3B24645  19.642  10.144   7.722
 1693POPC   C4B24646  19.524  10.414   7.398
 1694POPC   NC324647  42.589   6.933   9.443
 1694POPC   PO424648  42.367   6.333   9.209
 1694POPC   GL124649  42.458   6.666   9.011
 1694POPC   GL224650  42.166   6.817   9.150
 1694POPC   C1A24651  42.441   6.589   8.566
 1694POPC   D2A24652  42.277   6.590   8.160
 1694POPC   C3A24653  42.612   6.638   7.878
 1694POPC   C4A24654  42.640   6.483   7.480
 1694POPC   C1B24655  42.119   6.963   8.739
 1694POPC   C2B24656  41.921   6.961   8.319
 1694POPC   C3B24657  42.121   7.027   7.927
 1694POPC   C4B24658  42.160   6.684   7.639
 1695POPC   NC324659  18.905  41.068   9.622
 1695POPC   PO424660  18.991  40.413   9.469
 1695POPC   GL124661  18.861  40.656   9.176
 1695POPC   GL224662  18.573  40.820   9.324
 1695POPC   C1A24663  18.994  40.720   8.758
 1695POPC   D2A24664  19.126  40.896   8.372
 1695POPC   C3A24665  19.094  40.676   8.016
 1695POPC   C4A24666  19.148  40.860   7.661
 1695POPC   C1B24667  18.589  41.001   8.916
 1695POPC   C2B24668  18.601  40.910   8.478
 1695POPC   C3B24669  18.717  41.020   8.067
 1695POPC   C4B24670  18.648  40.909   7.672
 1696POPC   NC324671   0.733  41.950   9.810
 1696POPC   PO424672   1.225  41.468   9.633
 1696POPC   GL124673   1.176  41.595   9.213
 1696POPC   GL224674   0.954  41.881   9.254
 1696POPC   C1A24675   1.451  41.519   8.872
 1696POPC   D2A24676   1.287  41.613   8.469
 1696POPC   C3A24677   1.493  41.509   8.102
 1696POPC   C4A24678   1.258  41.483   7.743
 1696POPC   C1B24679   1.160  41.956   8.841
 1696POPC   C2B24680   0.959  42.010   8.432
 1696POPC   C3B24681   1.076  41.844   8.045
 1696POPC   C4B24682   1.070  41.964   7.606
 1697POPC   NC324683  42.216  14.321   9.523
 1697POPC   PO424684  42.223  14.935   9.243
 1697POPC   GL124685  42.126  14.542   9.040
 1697POPC   GL224686  42.376  14.245   9.056
 1697POPC   C1A24687  42.307  14.486   8.624
 1697POPC   D2A24688  42.636  14.472   8.366
 1697POPC   C3A24689  42.495  14.430   7.956
 1697POPC   C4A24690  42.308  14.384   7.552
 1697POPC   C1B24691  42.258  13.986   8.667
 1697POPC   C2B24692  42.213  14.066   8.232
 1697POPC   C3B24693  42.162  13.945   7.802
 1697POPC   C4B24694  41.922  14.073   7.424
 1698POPC   NC324695   4.751  22.249   9.743
 1698POPC   PO424696   4.191  21.956   9.935
 1698POPC   GL124697   4.248  22.069   9.488
 1698POPC   GL224698   3.944  22.193   9.351
 1698POPC   C1A24699   4.376  22.161   9.025
 1698POPC   D2A24700   4.568  22.386   8.667
 1698POPC   C3A24701   4.464  22.317   8.220
 1698POPC   C4A24702   4.578  22.282   7.796
 1698POPC   C1B24703   3.885  22.219   8.917
 1698POPC   C2B24704   4.102  22.137   8.525
 1698POPC   C3B24705   3.971  22.216   8.076
 1698POPC   C4B24706   4.097  22.133   7.666
 1699POPC   NC324707  31.131  42.829   9.343
 1699POPC   PO424708  31.856  42.825   9.486
 1699POPC   GL124709  31.622  42.800   9.144
 1699POPC   GL224710  31.482  43.153   9.165
 1699POPC   C1A24711  31.543  42.923   8.721
 1699POPC   D2A24712  31.608  43.171   8.371
 1699POPC   C3A24713  31.392  42.964   8.021
 1699POPC   C4A24714  31.613  42.732   7.697
 1699POPC   C1B24715  31.190  43.321   8.810
 1699POPC   C2B24716  31.117  43.281   8.344
 1699POPC   C3B24717  31.287  43.460   7.928
 1699POPC   C4B24718  31.368  43.177   7.560
 1700POPC   NC324719  43.656   9.084   9.516
 1700POPC   PO424720  44.301   8.990   9.566
 1700POPC   GL124721  44.048   8.871   9.256
 1700POPC   GL224722  43.940   9.199   9.112
 1700POPC   C1A24723  44.022   8.768   8.842
 1700POPC   D2A24724  43.854   9.006   8.516
 1700POPC   C3A24725  43.797   8.785   8.145
 1700POPC   C4A24726  43.737   8.872   7.720
 1700POPC   C1B24727  43.547   9.273   8.864
 1700POPC   C2B24728  43.507   9.381   8.419
 1700POPC   C3B24729  43.816   9.304   8.085
 1700POPC   C4B24730  43.721   9.376   7.670
 1701POPC   NC324731  32.552  18.965   9.275
 1701POPC   PO424732  32.949  19.455   9.532
 1701POPC   GL124733  32.682  19.447   9.169
 1701POPC   GL224734  32.966  19.200   9.058
 1701POPC   C1A24735  32.593  19.311   8.741
 1701POPC   D2A24736  32.843  19.002   8.476
 1701POPC   C3A24737  33.219  19.185   8.252
 1701POPC   C4A24738  33.312  19.297   7.802
 1701POPC   C1B24739  33.233  18.864   8.845
 1701POPC   C2B24740  33.397  18.703   8.448
 1701POPC   C3B24741  33.169  18.709   8.071
 1701POPC   C4B24742  33.292  18.791   7.628
 1702POPC   NC324743   8.165   6.040   9.442
 1702POPC   PO424744   7.757   5.464   9.423
 1702POPC   GL124745   8.077   5.669   9.103
 1702POPC   GL224746   8.438   5.623   9.178
 1702POPC   C1A24747   8.335   5.999   8.818
 1702POPC   D2A24748   8.418   5.909   8.404
 1702POPC   C3A24749   8.465   6.103   8.038
 1702POPC   C4A24750   8.232   5.966   7.681
 1702POPC   C1B24751   8.423   5.497   8.752
 1702POPC   C2B24752   8.590   5.436   8.374
 1702POPC   C3B24753   8.482   5.574   7.981
 1702POPC   C4B24754   8.685   5.358   7.670
 1703POPC   NC324755  41.487  34.424   9.513
 1703POPC   PO424756  41.415  34.997   9.352
 1703POPC   GL124757  41.591  34.601   9.058
 1703POPC   GL224758  41.718  34.212   9.112
 1703POPC   C1A24759  41.773  34.700   8.677
 1703POPC   D2A24760  41.479  34.846   8.384
 1703POPC   C3A24761  41.646  34.769   7.992
 1703POPC   C4A24762  41.415  34.803   7.641
 1703POPC   C1B24763  41.788  34.176   8.711
 1703POPC   C2B24764  41.503  34.325   8.429
 1703POPC   C3B24765  41.539  34.281   8.042
 1703POPC   C4B24766  41.656  34.362   7.621
 1704POPC   NC324767   2.227  13.050   9.470
 1704POPC   PO424768   1.615  12.805   9.579
 1704POPC   GL124769   1.839  12.895   9.159
 1704POPC   GL224770   2.142  12.704   9.099
 1704POPC   C1A24771   1.985  13.064   8.745
 1704POPC   D2A24772   1.756  12.972   8.336
 1704POPC   C3A24773   1.815  13.152   7.899
 1704POPC   C4A24774   1.920  12.980   7.457
 1704POPC   C1B24775   2.378  12.681   8.727
 1704POPC   C2B24776   2.402  13.022   8.457
 1704POPC   C3B24777   2.265  13.000   8.087
 1704POPC   C4B24778   2.331  13.104   7.715
 1705POPC   NC324779  31.210  34.238   9.397
 1705POPC   PO424780  31.600  33.600   9.413
 1705POPC   GL124781  31.447  33.852   9.105
 1705POPC   GL224782  31.233  33.553   9.034
 1705POPC   C1A24783  31.765  33.991   8.791
 1705POPC   D2A24784  31.877  33.955   8.356
 1705POPC   C3A24785  31.489  34.112   8.097
 1705POPC   C4A24786  31.077  34.272   7.899
 1705POPC   C1B24787  31.515  33.520   8.715
 1705POPC   C2B24788  31.470  33.651   8.320
 1705POPC   C3B24789  31.579  33.603   7.909
 1705POPC   C4B24790  31.341  33.291   7.717
 1706POPC   NC324791  13.459  30.093   9.444
 1706POPC   PO424792  12.782  29.855   9.533
 1706POPC   GL124793  12.827  29.966   9.138
 1706POPC   GL224794  12.974  30.283   9.108
 1706POPC   C1A24795  12.929  29.879   8.725
 1706POPC   D2A24796  12.838  29.749   8.370
 1706POPC   C3A24797  12.853  29.979   8.016
 1706POPC   C4A24798  12.866  29.823   7.613
 1706POPC   C1B24799  12.636  30.294   8.783
 1706POPC   C2B24800  12.515  30.138   8.401
 1706POPC   C3B24801  12.489  30.328   8.008
 1706POPC   C4B24802  12.395  30.087   7.668
 1707POPC   NC324803  19.665  21.204   9.551
 1707POPC   PO424804  19.303  21.700   9.250
 1707POPC   GL124805  19.709  21.483   9.113
 1707POPC   GL224806  19.726  21.084   9.071
 1707POPC   C1A24807  19.930  21.539   8.718
 1707POPC   D2A24808  19.666  21.545   8.320
 1707POPC   C3A24809  19.835  21.714   7.918
 1707POPC   C4A24810  20.127  21.500   7.630
 1707POPC   C1B24811  20.012  21.046   8.752
 1707POPC   C2B24812  20.098  21.233   8.340
 1707POPC   C3B24813  19.866  21.197   7.971
 1707POPC   C4B24814  19.403  21.241   7.890
 1708POPC   NC324815  40.206  37.593   9.388
 1708POPC   PO424816  39.774  38.185   9.489
 1708POPC   GL124817  39.885  37.908   9.157
 1708POPC   GL224818  40.220  37.992   9.049
 1708POPC   C1A24819  39.939  37.681   8.762
 1708POPC   D2A24820  40.152  37.798   8.401
 1708POPC   C3A24821  39.963  37.666   8.074
 1708POPC   C4A24822  39.861  37.668   7.676
 1708POPC   C1B24823  40.472  37.655   8.777
 1708POPC   C2B24824  40.594  37.474   8.369
 1708POPC   C3B24825  40.479  37.601   7.942
 1708POPC   C4B24826  40.327  37.586   7.484
 1709POPC   NC324827  39.095  12.182   9.582
 1709POPC   PO424828  39.448  11.638   9.636
 1709POPC   GL124829  39.348  11.900   9.245
 1709POPC   GL224830  39.613  12.148   9.147
 1709POPC   C1A24831  39.075  12.067   8.913
 1709POPC   D2A24832  39.149  12.077   8.476
 1709POPC   C3A24833  38.829  12.130   8.158
 1709POPC   C4A24834  39.002  12.154   7.747
 1709POPC   C1B24835  39.495  12.340   8.750
 1709POPC   C2B24836  39.517  12.441   8.312
 1709POPC   C3B24837  39.493  12.209   7.936
 1709POPC   C4B24838  39.727  12.312   7.586
 1710POPC   NC324839  10.465   8.118  10.106
 1710POPC   PO424840  10.599   7.704   9.584
 1710POPC   GL124841  10.582   8.006   9.231
 1710POPC   GL224842  10.813   8.304   9.305
 1710POPC   C1A24843  10.471   7.960   8.783
 1710POPC   D2A24844  10.712   8.028   8.402
 1710POPC   C3A24845  10.448   8.119   8.074
 1710POPC   C4A24846  10.376   8.007   7.640
 1710POPC   C1B24847  10.913   8.212   8.861
 1710POPC   C2B24848  10.950   8.501   8.521
 1710POPC   C3B24849  10.770   8.522   8.132
 1710POPC   C4B24850  10.887   8.699   7.754
 1711POPC   NC324851  32.336  20.310   9.971
 1711POPC   PO424852  32.153  20.819   9.635
 1711POPC   GL124853  32.244  20.832   9.229
 1711POPC   GL224854  32.580  20.847   9.102
 1711POPC   C1A24855  32.175  20.736   8.804
 1711POPC   D2A24856  32.109  20.904   8.423
 1711POPC   C3A24857  32.014  20.667   8.077
 1711POPC   C4A24858  32.037  20.878   7.710
 1711POPC   C1B24859  32.464  20.398   9.049
 1711POPC   C2B24860  32.461  20.320   8.607
 1711POPC   C3B24861  32.539  20.441   8.179
 1711POPC   C4B24862  32.389  20.476   7.777
 1712POPC   NC324863  36.796  17.344   9.454
 1712POPC   PO424864  37.427  17.242   9.270
 1712POPC   GL124865  37.186  17.434   8.982
 1712POPC   GL224866  37.037  17.703   9.116
 1712POPC   C1A24867  36.791  17.359   8.771
 1712POPC   D2A24868  36.751  17.204   8.364
 1712POPC   C3A24869  36.804  17.366   7.967
 1712POPC   C4A24870  37.164  17.541   7.738
 1712POPC   C1B24871  36.764  17.869   8.803
 1712POPC   C2B24872  36.645  17.749   8.420
 1712POPC   C3B24873  36.872  17.857   8.079
 1712POPC   C4B24874  36.696  17.797   7.698
 1713POPC   NC324875   1.788  35.783   9.469
 1713POPC   PO424876   2.111  35.185   9.541
 1713POPC   GL124877   2.051  35.272   9.134
 1713POPC   GL224878   2.076  35.629   9.060
 1713POPC   C1A24879   1.792  35.224   8.778
 1713POPC   D2A24880   1.963  35.307   8.384
 1713POPC   C3A24881   1.858  35.033   8.083
 1713POPC   C4A24882   1.972  34.935   7.664
 1713POPC   C1B24883   1.681  35.743   8.823
 1713POPC   C2B24884   1.524  35.576   8.445
 1713POPC   C3B24885   1.749  35.657   8.060
 1713POPC   C4B24886   1.803  35.792   7.630
 1714POPC   NC324887  30.920  31.850   9.655
 1714POPC   PO424888  30.739  31.136   9.482
 1714POPC   GL124889  30.775  31.555   9.265
 1714POPC   GL224890  31.065  31.463   9.226
 1714POPC   C1A24891  30.957  31.772   8.855
 1714POPC   D2A24892  31.096  31.857   8.406
 1714POPC   C3A24893  30.811  31.658   8.120
 1714POPC   C4A24894  30.677  31.662   7.710
 1714POPC   C1B24895  30.704  31.330   8.829
 1714POPC   C2B24896  30.598  31.194   8.346
 1714POPC   C3B24897  30.787  31.170   7.914
 1714POPC   C4B24898  30.790  31.258   7.453
 1715POPC   NC324899  15.078   8.616   9.249
 1715POPC   PO424900  14.967   9.251   9.462
 1715POPC   GL124901  15.244   9.101   9.118
 1715POPC   GL224902  14.962   8.988   8.929
 1715POPC   C1A24903  15.446   8.882   8.740
 1715POPC   D2A24904  15.528   8.593   8.392
 1715POPC   C3A24905  15.606   8.828   8.056
 1715POPC   C4A24906  15.348   9.097   7.893
 1715POPC   C1B24907  14.993   8.696   8.578
 1715POPC   C2B24908  15.061   8.737   8.147
 1715POPC   C3B24909  14.857   8.900   7.788
 1715POPC   C4B24910  14.777   8.884   7.356
 1716POPC   NC324911  44.217   3.858   9.593
 1716POPC   PO424912  43.823   3.283   9.490
 1716POPC   GL124913  44.037   3.349   9.180
 1716POPC   GL224914  44.386   3.379   9.216
 1716POPC   C1A24915  43.924   3.489   8.819
 1716POPC   D2A24916  43.902   3.866   8.606
 1716POPC   C3A24917  44.024   3.792   8.182
 1716POPC   C4A24918  43.818   3.526   7.867
 1716POPC   C1B24919  44.294   3.159   8.791
 1716POPC   C2B24920  44.073   3.280   8.362
 1716POPC   C3B24921  44.045   3.079   7.930
 1716POPC   C4B24922  44.135   3.319   7.516
 1717POPC   NC324923  41.868  34.955   9.298
 1717POPC   PO424924  42.462  35.223   9.477
 1717POPC   GL124925  42.537  35.516   9.118
 1717POPC   GL224926  42.174  35.668   9.017
 1717POPC   C1A24927  42.564  35.541   8.686
 1717POPC   D2A24928  42.206  35.624   8.458
 1717POPC   C3A24929  42.228  35.423   8.058
 1717POPC   C4A24930  41.996  35.503   7.732
 1717POPC   C1B24931  42.187  35.242   8.819
 1717POPC   C2B24932  42.368  35.102   8.426
 1717POPC   C3B24933  42.167  34.865   8.098
 1717POPC   C4B24934  42.034  34.960   7.693
 1718POPC   NC324935   7.784  36.645   9.409
 1718POPC   PO424936   7.163  37.006   9.493
 1718POPC   GL124937   7.306  36.934   9.098
 1718POPC   GL224938   7.624  37.036   9.017
 1718POPC   C1A24939   7.232  37.097   8.667
 1718POPC   D2A24940   7.276  37.211   8.243
 1718POPC   C3A24941   7.050  36.913   7.972
 1718POPC   C4A24942   7.181  36.718   7.554
 1718POPC   C1B24943   7.793  36.743   8.707
 1718POPC   C2B24944   7.859  36.621   8.282
 1718POPC   C3B24945   7.599  36.842   7.964
 1718POPC   C4B24946   7.704  37.019   7.557
 1719POPC   NC324947  20.967  42.066   9.588
 1719POPC   PO424948  21.532  42.535   9.499
 1719POPC   GL124949  21.314  42.441   9.158
 1719POPC   GL224950  21.154  42.167   9.133
 1719POPC   C1A24951  21.335  42.568   8.763
 1719POPC   D2A24952  21.321  42.426   8.371
 1719POPC   C3A24953  21.515  42.544   8.003
 1719POPC   C4A24954  21.255  42.465   7.668
 1719POPC   C1B24955  21.227  42.059   8.728
 1719POPC   C2B24956  21.009  42.022   8.333
 1719POPC   C3B24957  21.285  42.072   8.002
 1719POPC   C4B24958  21.525  42.004   7.674
 1720POPC   NC324959  13.477  37.958   9.525
 1720POPC   PO424960  13.831  37.408   9.504
 1720POPC   GL124961  13.776  37.705   9.177
 1720POPC   GL224962  13.957  37.935   9.048
 1720POPC   C1A24963  13.614  37.699   8.754
 1720POPC   D2A24964  13.757  37.448   8.385
 1720POPC   C3A24965  13.488  37.485   8.018
 1720POPC   C4A24966  13.374  37.808   7.713
 1720POPC   C1B24967  14.115  37.575   8.763
 1720POPC   C2B24968  14.252  37.644   8.329
 1720POPC   C3B24969  13.980  37.831   7.979
 1720POPC   C4B24970  13.758  38.129   7.694
 1721POPC   NC324971  12.805  19.625   9.994
 1721POPC   PO424972  12.979  20.039   9.405
 1721POPC   GL124973  12.704  19.862   9.101
 1721POPC   GL224974  12.720  20.176   8.924
 1721POPC   C1A24975  12.698  19.668   8.682
 1721POPC   D2A24976  12.530  19.578   8.265
 1721POPC   C3A24977  12.836  19.436   7.937
 1721POPC   C4A24978  13.180  19.704   7.794
 1721POPC   C1B24979  13.083  20.029   8.695
 1721POPC   C2B24980  13.028  19.821   8.285
 1721POPC   C3B24981  12.749  19.956   7.951
 1721POPC   C4B24982  12.779  20.301   7.677
 1722POPC   NC324983  33.197  17.208   9.390
 1722POPC   PO424984  33.061  17.840   9.412
 1722POPC   GL124985  33.151  17.588   9.049
 1722POPC   GL224986  32.847  17.429   9.091
 1722POPC   C1A24987  33.182  17.242   8.710
 1722POPC   D2A24988  33.440  17.171   8.316
 1722POPC   C3A24989  33.344  17.483   7.972
 1722POPC   C4A24990  33.019  17.494   7.646
 1722POPC   C1B24991  32.778  17.603   8.716
 1722POPC   C2B24992  33.005  17.605   8.350
 1722POPC   C3B24993  32.722  17.647   8.037
 1722POPC   C4B24994  32.612  18.008   7.811
 1723POPC   NC324995  15.517  22.554   9.366
 1723POPC   PO424996  15.999  22.118   9.684
 1723POPC   GL124997  15.941  22.021   9.227
 1723POPC   GL224998  15.656  22.126   9.151
 1723POPC   C1A24999  16.008  21.978   8.759
 1723POPC   D2A25000  16.209  21.949   8.363
 1723POPC   C3A25001  16.057  21.910   7.949
 1723POPC   C4A25002  16.281  22.244   7.752
 1723POPC   C1B25003  15.801  22.429   8.801
 1723POPC   C2B25004  15.752  22.244   8.387
 1723POPC   C3B25005  15.803  22.335   7.970
 1723POPC   C4B25006  15.671  22.098   7.599
 1724POPC   NC325007  21.594   2.366   9.582
 1724POPC   PO425008  21.419   1.650   9.646
 1724POPC   GL125009  21.471   1.870   9.228
 1724POPC   GL225010  21.326   2.237   9.169
 1724POPC   C1A25011  21.439   1.912   8.807
 1724POPC   D2A25012  21.619   1.720   8.500
 1724POPC   C3A25013  21.431   1.684   8.118
 1724POPC   C4A25014  21.497   1.870   7.740
 1724POPC   C1B25015  21.666   2.343   8.881
 1724POPC   C2B25016  21.699   2.210   8.443
 1724POPC   C3B25017  21.558   2.279   8.055
 1724POPC   C4B25018  21.700   2.314   7.649
 1725POPC   NC325019  40.586  28.499   9.716
 1725POPC   PO425020  39.914  28.562   9.777
 1725POPC   GL125021  39.853  28.419   9.331
 1725POPC   GL225022  39.921  28.655   9.086
 1725POPC   C1A25023  39.807  28.198   8.937
 1725POPC   D2A25024  39.640  28.263   8.531
 1725POPC   C3A25025  39.922  28.370   8.197
 1725POPC   C4A25026  39.706  28.355   7.791
 1725POPC   C1B25027  39.937  28.679   8.664
 1725POPC   C2B25028  40.300  28.688   8.443
 1725POPC   C3B25029  40.382  28.719   8.032
 1725POPC   C4B25030  40.158  28.558   7.688
 1726POPC   NC325031  43.538  16.030   9.580
 1726POPC   PO425032  43.286  15.381   9.627
 1726POPC   GL125033  43.222  15.747   9.251
 1726POPC   GL225034  43.412  16.068   9.090
 1726POPC   C1A25035  42.971  15.889   8.879
 1726POPC   D2A25036  43.005  16.035   8.466
 1726POPC   C3A25037  43.021  15.730   8.135
 1726POPC   C4A25038  43.054  16.008   7.777
 1726POPC   C1B25039  43.465  15.852   8.691
 1726POPC   C2B25040  43.482  15.950   8.246
 1726POPC   C3B25041  43.540  16.248   7.930
 1726POPC   C4B25042  43.468  16.113   7.505
 1727POPC   NC325043   8.791  38.616   9.664
 1727POPC   PO425044   9.318  38.174   9.661
 1727POPC   GL125045   9.195  38.351   9.243
 1727POPC   GL225046   8.829  38.416   9.195
 1727POPC   C1A25047   9.126  38.255   8.790
 1727POPC   D2A25048   9.354  38.283   8.432
 1727POPC   C3A25049   9.223  38.327   8.048
 1727POPC   C4A25050   9.047  38.444   7.699
 1727POPC   C1B25051   8.649  38.384   8.773
 1727POPC   C2B25052   8.814  38.419   8.353
 1727POPC   C3B25053   8.618  38.584   7.971
 1727POPC   C4B25054   8.560  38.358   7.598
 1728POPC   NC325055  42.479  24.201   9.430
 1728POPC   PO425056  42.240  23.483   9.543
 1728POPC   GL125057  42.143  23.536   9.121
 1728POPC   GL225058  42.281  23.857   9.107
 1728POPC   C1A25059  42.101  23.436   8.683
 1728POPC   D2A25060  42.301  23.637   8.322
 1728POPC   C3A25061  42.332  23.434   7.932
 1728POPC   C4A25062  41.915  23.473   7.777
 1728POPC   C1B25063  42.164  23.972   8.684
 1728POPC   C2B25064  42.029  24.092   8.248
 1728POPC   C3B25065  42.332  24.115   7.888
 1728POPC   C4B25066  42.588  24.180   7.504
 1729POPC   NC325067  25.953   1.659   9.484
 1729POPC   PO425068  26.377   2.105   9.664
 1729POPC   GL125069  26.253   1.905   9.189
 1729POPC   GL225070  25.866   1.964   9.088
 1729POPC   C1A25071  26.169   1.632   8.811
 1729POPC   D2A25072  26.027   1.602   8.366
 1729POPC   C3A25073  25.951   1.885   7.991
 1729POPC   C4A25074  26.049   1.778   7.538
 1729POPC   C1B25075  25.970   2.071   8.664
 1729POPC   C2B25076  25.944   2.295   8.310
 1729POPC   C3B25077  26.242   2.362   8.014
 1729POPC   C4B25078  26.347   2.184   7.628
 1730POPC   NC325079  41.886  43.372   9.425
 1730POPC   PO425080  42.509  43.141   9.504
 1730POPC   GL125081  42.291  43.144   9.106
 1730POPC   GL225082  41.946  43.057   9.034
 1730POPC   C1A25083  42.346  43.324   8.684
 1730POPC   D2A25084  42.621  43.392   8.293
 1730POPC   C3A25085  42.482  43.308   7.880
 1730POPC   C4A25086  42.404  42.873   7.718
 1730POPC   C1B25087  42.097  42.867   8.683
 1730POPC   C2B25088  42.251  43.003   8.289
 1730POPC   C3B25089  42.012  43.130   7.962
 1730POPC   C4B25090  41.874  42.892   7.658
 1731POPC   NC325091  33.573  34.203   9.486
 1731POPC   PO425092  33.718  34.857   9.582
 1731POPC   GL125093  33.577  34.655   9.168
 1731POPC   GL225094  33.709  34.353   9.038
 1731POPC   C1A25095  33.761  34.725   8.706
 1731POPC   D2A25096  34.086  34.879   8.381
 1731POPC   C3A25097  33.996  34.738   7.958
 1731POPC   C4A25098  33.594  34.505   7.890
 1731POPC   C1B25099  33.942  34.212   8.703
 1731POPC   C2B25100  33.934  34.359   8.294
 1731POPC   C3B25101  33.917  34.120   7.914
 1731POPC   C4B25102  33.887  34.167   7.466
 1732POPC   NC325103   8.010  21.628   9.576
 1732POPC   PO425104   8.036  20.938   9.568
 1732POPC   GL125105   8.276  21.167   9.228
 1732POPC   GL225106   8.251  21.514   9.146
 1732POPC   C1A25107   8.489  21.047   8.856
 1732POPC   D2A25108   8.380  20.957   8.447
 1732POPC   C3A25109   8.265  21.313   8.248
 1732POPC   C4A25110   8.262  21.312   7.828
 1732POPC   C1B25111   8.047  21.387   8.760
 1732POPC   C2B25112   7.833  21.563   8.420
 1732POPC   C3B25113   7.779  21.356   8.023
 1732POPC   C4B25114   7.875  21.576   7.670
 1733POPC   NC325115  35.372  40.745   9.550
 1733POPC   PO425116  35.598  41.343   9.425
 1733POPC   GL125117  35.302  41.077   9.114
 1733POPC   GL225118  35.232  40.680   9.083
 1733POPC   C1A25119  35.197  40.953   8.673
 1733POPC   D2A25120  35.466  41.169   8.373
 1733POPC   C3A25121  35.503  40.962   7.953
 1733POPC   C4A25122  35.128  40.980   7.693
 1733POPC   C1B25123  35.493  40.443   8.824
 1733POPC   C2B25124  35.675  40.542   8.426
 1733POPC   C3B25125  35.525  40.393   8.031
 1733POPC   C4B25126  35.390  40.545   7.633
 1734POPC   NC325127   6.551  28.072   9.549
 1734POPC   PO425128   6.964  28.648   9.539
 1734POPC   GL125129   6.799  28.514   9.110
 1734POPC   GL225130   6.480  28.658   8.966
 1734POPC   C1A25131   6.747  28.276   8.691
 1734POPC   D2A25132   6.555  28.193   8.298
 1734POPC   C3A25133   6.820  28.212   7.970
 1734POPC   C4A25134   6.515  28.475   7.780
 1734POPC   C1B25135   6.817  28.778   8.672
 1734POPC   C2B25136   6.970  28.625   8.283
 1734POPC   C3B25137   7.040  28.855   7.909
 1734POPC   C4B25138   6.844  29.027   7.533
 1735POPC   NC325139   9.594  20.526   9.408
 1735POPC   PO425140   9.870  21.168   9.431
 1735POPC   GL125141   9.899  20.852   9.124
 1735POPC   GL225142  10.096  20.553   9.247
 1735POPC   C1A25143   9.643  20.736   8.779
 1735POPC   D2A25144   9.737  20.530   8.402
 1735POPC   C3A25145   9.836  20.749   8.022
 1735POPC   C4A25146   9.514  20.847   7.724
 1735POPC   C1B25147  10.053  20.382   8.827
 1735POPC   C2B25148  10.115  20.180   8.429
 1735POPC   C3B25149   9.909  20.224   8.027
 1735POPC   C4B25150  10.012  20.417   7.649
 1736POPC   NC325151  11.849  30.709   9.766
 1736POPC   PO425152  12.105  30.306   9.328
 1736POPC   GL125153  12.087  30.752   9.238
 1736POPC   GL225154  11.752  30.888   9.298
 1736POPC   C1A25155  12.200  30.819   8.809
 1736POPC   D2A25156  12.226  30.554   8.432
 1736POPC   C3A25157  12.117  30.686   8.020
 1736POPC   C4A25158  12.134  30.537   7.604
 1736POPC   C1B25159  11.706  30.933   8.850
 1736POPC   C2B25160  11.792  30.861   8.420
 1736POPC   C3B25161  11.698  30.473   8.191
 1736POPC   C4B25162  11.771  30.267   7.812
 1737POPC   NC325163  44.285  15.991   9.508
 1737POPC   PO425164  43.730  15.726   9.303
 1737POPC   GL125165  43.965  16.025   9.108
 1737POPC   GL225166  44.264  15.847   9.036
 1737POPC   C1A25167  44.099  16.252   8.750
 1737POPC   D2A25168  43.857  16.285   8.369
 1737POPC   C3A25169  44.068  16.214   8.015
 1737POPC   C4A25170  43.903  15.936   7.704
 1737POPC   C1B25171  44.105  15.723   8.667
 1737POPC   C2B25172  44.256  15.803   8.273
 1737POPC   C3B25173  44.212  15.570   7.915
 1737POPC   C4B25174  43.770  15.466   7.879
 1738POPC   NC325175  40.478  24.425   9.419
 1738POPC   PO425176  41.097  24.113   9.403
 1738POPC   GL125177  40.883  24.363   9.071
 1738POPC   GL225178  41.089  24.703   8.956
 1738POPC   C1A25179  40.633  24.176   8.677
 1738POPC   D2A25180  40.559  24.048   8.229
 1738POPC   C3A25181  40.632  24.365   7.922
 1738POPC   C4A25182  40.840  24.763   7.842
 1738POPC   C1B25183  40.725  24.680   8.711
 1738POPC   C2B25184  40.446  24.643   8.380
 1738POPC   C3B25185  40.361  24.877   8.008
 1738POPC   C4B25186  40.325  24.671   7.637
 1739POPC   NC325187  18.094  37.512   9.636
 1739POPC   PO425188  18.017  38.155   9.733
 1739POPC   GL125189  18.097  37.978   9.278
 1739POPC   GL225190  18.230  37.671   9.166
 1739POPC   C1A25191  18.224  38.010   8.800
 1739POPC   D2A25192  18.035  37.807   8.400
 1739POPC   C3A25193  18.349  37.720   8.064
 1739POPC   C4A25194  18.417  37.860   7.622
 1739POPC   C1B25195  18.300  37.505   8.724
 1739POPC   C2B25196  18.142  37.292   8.322
 1739POPC   C3B25197  18.282  37.210   7.907
 1739POPC   C4B25198  18.660  37.424   7.778
 1740POPC   NC325199   8.340   6.847   9.676
 1740POPC   PO425200   7.873   6.395   9.574
 1740POPC   GL125201   7.938   6.603   9.182
 1740POPC   GL225202   8.162   6.911   9.157
 1740POPC   C1A25203   7.989   6.632   8.749
 1740POPC   D2A25204   8.306   6.620   8.439
 1740POPC   C3A25205   8.131   6.488   8.061
 1740POPC   C4A25206   8.360   6.494   7.703
 1740POPC   C1B25207   8.038   7.143   8.753
 1740POPC   C2B25208   8.017   7.037   8.294
 1740POPC   C3B25209   8.333   6.938   7.967
 1740POPC   C4B25210   8.349   6.994   7.502
 1741POPC   NC325211   9.408  22.312   9.473
 1741POPC   PO425212  10.055  22.048   9.519
 1741POPC   GL125213   9.835  22.256   9.179
 1741POPC   GL225214   9.543  22.097   9.048
 1741POPC   C1A25215   9.796  22.432   8.773
 1741POPC   D2A25216   9.845  22.285   8.367
 1741POPC   C3A25217   9.527  22.289   8.072
 1741POPC   C4A25218   9.712  22.229   7.679
 1741POPC   C1B25219   9.660  21.879   8.688
 1741POPC   C2B25220   9.464  21.784   8.311
 1741POPC   C3B25221   9.618  21.772   7.885
 1741POPC   C4B25222   9.564  21.800   7.411
 1742POPC   NC325223  39.382  39.863   9.652
 1742POPC   PO425224  38.860  39.517   9.509
 1742POPC   GL125225  39.165  39.719   9.207
 1742POPC   GL225226  39.511  39.590   9.222
 1742POPC   C1A25227  39.218  40.115   8.917
 1742POPC   D2A25228  39.277  40.376   8.508
 1742POPC   C3A25229  39.159  40.237   8.102
 1742POPC   C4A25230  39.185  40.073   7.719
 1742POPC   C1B25231  39.459  39.685   8.793
 1742POPC   C2B25232  39.360  39.882   8.440
 1742POPC   C3B25233  39.344  39.744   8.061
 1742POPC   C4B25234  39.241  39.551   7.718
 1743POPC   NC325235  25.871  30.596   9.441
 1743POPC   PO425236  26.468  30.746   9.407
 1743POPC   GL125237  26.206  30.747   9.057
 1743POPC   GL225238  25.879  30.612   8.956
 1743POPC   C1A25239  26.175  30.815   8.626
 1743POPC   D2A25240  25.906  30.687   8.345
 1743POPC   C3A25241  26.119  30.894   8.033
 1743POPC   C4A25242  26.063  30.738   7.603
 1743POPC   C1B25243  25.707  30.293   8.733
 1743POPC   C2B25244  25.473  30.327   8.375
 1743POPC   C3B25245  25.619  30.176   8.015
 1743POPC   C4B25246  25.706  30.369   7.636
 1744POPC   NC325247  14.239  30.260   9.321
 1744POPC   PO425248  14.635  29.760   9.540
 1744POPC   GL125249  14.661  29.697   9.116
 1744POPC   GL225250  14.550  30.010   9.010
 1744POPC   C1A25251  14.501  29.575   8.706
 1744POPC   D2A25252  14.290  29.573   8.289
 1744POPC   C3A25253  14.580  29.610   7.955
 1744POPC   C4A25254  14.687  29.981   7.712
 1744POPC   C1B25255  14.224  29.999   8.673
 1744POPC   C2B25256  14.219  30.115   8.240
 1744POPC   C3B25257  14.192  29.910   7.832
 1744POPC   C4B25258  14.169  29.866   7.365
 1745POPC   NC325259   8.789  30.264   9.420
 1745POPC   PO425260   9.462  30.506   9.413
 1745POPC   GL125261   9.109  30.589   9.152
 1745POPC   GL225262   8.918  30.875   9.289
 1745POPC   C1A25263   8.913  30.415   8.786
 1745POPC   D2A25264   8.891  30.485   8.365
 1745POPC   C3A25265   9.254  30.429   8.146
 1745POPC   C4A25266   9.141  30.610   7.783
 1745POPC   C1B25267   8.749  30.896   8.881
 1745POPC   C2B25268   8.736  30.968   8.471
 1745POPC   C3B25269   8.680  30.887   8.072
 1745POPC   C4B25270   8.705  31.032   7.689
 1746POPC   NC325271   0.740  20.347   9.506
 1746POPC   PO425272   0.317  20.781   9.417
 1746POPC   GL125273   0.434  20.524   9.126
 1746POPC   GL225274   0.694  20.775   9.029
 1746POPC   C1A25275   0.213  20.359   8.790
 1746POPC   D2A25276   0.430  20.284   8.435
 1746POPC   C3A25277   0.249  20.316   8.046
 1746POPC   C4A25278   0.468  20.536   7.735
 1746POPC   C1B25279   0.335  20.894   8.736
 1746POPC   C2B25280   0.110  20.728   8.381
 1746POPC   C3B25281   0.115  20.866   7.947
 1746POPC   C4B25282   0.157  21.187   7.627
 1747POPC   NC325283  11.479  14.572   9.464
 1747POPC   PO425284  11.010  14.055   9.478
 1747POPC   GL125285  11.253  14.242   9.134
 1747POPC   GL225286  11.160  14.588   9.061
 1747POPC   C1A25287  11.349  14.336   8.675
 1747POPC   D2A25288  11.181  14.511   8.335
 1747POPC   C3A25289  11.334  14.242   8.082
 1747POPC   C4A25290  11.212  14.089   7.733
 1747POPC   C1B25291  11.373  14.834   8.715
 1747POPC   C2B25292  11.426  14.975   8.279
 1747POPC   C3B25293  11.433  14.702   7.892
 1747POPC   C4B25294  11.011  14.548   7.796
 1748POPC   NC325295  23.933  36.399   9.494
 1748POPC   PO425296  24.092  37.074   9.627
 1748POPC   GL125297  23.755  37.035   9.239
 1748POPC   GL225298  23.451  37.286   9.113
 1748POPC   C1A25299  23.770  37.058   8.780
 1748POPC   D2A25300  23.756  37.107   8.326
 1748POPC   C3A25301  23.674  36.772   8.028
 1748POPC   C4A25302  23.667  36.806   7.569
 1748POPC   C1B25303  23.279  37.163   8.659
 1748POPC   C2B25304  23.205  37.002   8.223
 1748POPC   C3B25305  23.214  36.795   7.798
 1748POPC   C4B25306  23.200  36.598   7.374
 1749POPC   NC325307  40.321  15.062   9.519
 1749POPC   PO425308  39.842  15.488   9.574
 1749POPC   GL125309  39.881  15.269   9.166
 1749POPC   GL225310  40.229  15.371   9.095
 1749POPC   C1A25311  39.940  15.164   8.718
 1749POPC   D2A25312  40.084  15.394   8.331
 1749POPC   C3A25313  39.805  15.366   7.936
 1749POPC   C4A25314  39.687  14.977   7.691
 1749POPC   C1B25315  40.457  15.065   8.828
 1749POPC   C2B25316  40.408  14.984   8.375
 1749POPC   C3B25317  40.198  15.030   7.968
 1749POPC   C4B25318  40.401  14.986   7.577
 1750POPC   NC325319  37.798   7.886   9.425
 1750POPC   PO425320  37.420   8.492   9.567
 1750POPC   GL125321  37.587   8.298   9.197
 1750POPC   GL225322  37.914   8.372   9.140
 1750POPC   C1A25323  37.517   8.069   8.816
 1750POPC   D2A25324  37.569   7.970   8.394
 1750POPC   C3A25325  37.559   8.185   8.018
 1750POPC   C4A25326  37.576   8.421   7.621
 1750POPC   C1B25327  37.719   8.550   8.766
 1750POPC   C2B25328  37.819   8.495   8.353
 1750POPC   C3B25329  37.930   8.547   7.970
 1750POPC   C4B25330  38.220   8.793   7.756
 1751POPC   NC325331  27.855  44.173   9.497
 1751POPC   PO425332  27.462  43.698   9.242
 1751POPC   GL125333  27.604  44.027   9.059
 1751POPC   GL225334  27.929  43.879   9.057
 1751POPC   C1A25335  27.609  43.954   8.625
 1751POPC   D2A25336  27.804  43.761   8.309
 1751POPC   C3A25337  27.464  43.788   8.015
 1751POPC   C4A25338  27.290  43.758   7.603
 1751POPC   C1B25339  28.038  44.177   8.716
 1751POPC   C2B25340  27.901  44.295   8.301
 1751POPC   C3B25341  27.904  44.054   7.917
 1751POPC   C4B25342  27.810  43.712   7.639
 1752POPC   NC325343  25.662  29.934   9.591
 1752POPC   PO425344  24.973  29.851   9.631
 1752POPC   GL125345  25.262  29.916   9.241
 1752POPC   GL225346  25.609  29.950   9.095
 1752POPC   C1A25347  25.215  30.095   8.804
 1752POPC   D2A25348  25.203  29.877   8.413
 1752POPC   C3A25349  25.039  30.069   8.038
 1752POPC   C4A25350  25.274  30.053   7.666
 1752POPC   C1B25351  25.441  29.608   8.834
 1752POPC   C2B25352  25.458  29.420   8.412
 1752POPC   C3B25353  25.441  29.676   8.012
 1752POPC   C4B25354  25.590  29.668   7.599
 1753POPC   NC325355   8.771   9.075   9.283
 1753POPC   PO425356   9.125   8.649   9.619
 1753POPC   GL125357   9.220   8.889   9.133
 1753POPC   GL225358   9.314   8.610   8.977
 1753POPC   C1A25359   9.056   9.087   8.714
 1753POPC   D2A25360   8.965   9.402   8.367
 1753POPC   C3A25361   9.059   9.246   7.928
 1753POPC   C4A25362   8.744   9.256   7.578
 1753POPC   C1B25363   9.261   8.654   8.523
 1753POPC   C2B25364   8.916   8.843   8.281
 1753POPC   C3B25365   8.793   8.821   7.868
 1753POPC   C4B25366   9.082   8.811   7.563
 1754POPC   NC325367   6.406  23.309   9.237
 1754POPC   PO425368   6.935  23.744   9.426
 1754POPC   GL125369   6.653  23.718   9.113
 1754POPC   GL225370   6.339  23.879   9.064
 1754POPC   C1A25371   6.735  23.595   8.690
 1754POPC   D2A25372   6.981  23.841   8.418
 1754POPC   C3A25373   6.815  23.834   8.056
 1754POPC   C4A25374   7.062  23.981   7.758
 1754POPC   C1B25375   6.210  23.646   8.698
 1754POPC   C2B25376   6.025  23.720   8.287
 1754POPC   C3B25377   6.283  23.851   7.935
 1754POPC   C4B25378   6.564  23.648   7.668
 1755POPC   NC325379   6.216   1.753   9.491
 1755POPC   PO425380   5.567   2.110   9.493
 1755POPC   GL125381   5.653   2.079   9.091
 1755POPC   GL225382   5.970   1.855   9.058
 1755POPC   C1A25383   5.591   1.916   8.713
 1755POPC   D2A25384   5.767   1.865   8.333
 1755POPC   C3A25385   5.625   2.173   8.037
 1755POPC   C4A25386   5.640   1.985   7.645
 1755POPC   C1B25387   6.036   2.138   8.712
 1755POPC   C2B25388   6.087   2.267   8.288
 1755POPC   C3B25389   6.099   1.995   7.919
 1755POPC   C4B25390   6.217   2.082   7.451
 1756POPC   NC325391   4.509  25.954   9.564
 1756POPC   PO425392   3.968  26.300   9.596
 1756POPC   GL125393   4.168  26.136   9.193
 1756POPC   GL225394   4.546  26.209   9.124
 1756POPC   C1A25395   4.270  25.861   8.835
 1756POPC   D2A25396   4.142  25.951   8.439
 1756POPC   C3A25397   4.236  25.807   8.059
 1756POPC   C4A25398   4.336  26.064   7.743
 1756POPC   C1B25399   4.522  26.319   8.686
 1756POPC   C2B25400   4.473  26.298   8.244
 1756POPC   C3B25401   4.707  26.416   7.901
 1756POPC   C4B25402   4.786  26.194   7.513
 1757POPC   NC325403  29.146   6.554   9.737
 1757POPC   PO425404  29.635   6.853   9.595
 1757POPC   GL125405  29.314   6.758   9.262
 1757POPC   GL225406  29.059   6.518   9.208
 1757POPC   C1A25407  29.312   6.803   8.802
 1757POPC   D2A25408  29.043   6.791   8.401
 1757POPC   C3A25409  29.154   6.610   7.993
 1757POPC   C4A25410  29.290   6.754   7.595
 1757POPC   C1B25411  28.834   6.529   8.795
 1757POPC   C2B25412  28.635   6.480   8.374
 1757POPC   C3B25413  28.756   6.278   7.967
 1757POPC   C4B25414  28.969   6.358   7.556
 1758POPC   NC325415  24.021  30.971   9.543
 1758POPC   PO425416  23.865  31.598   9.501
 1758POPC   GL125417  23.708  31.336   9.207
 1758POPC   GL225418  23.602  31.588   8.994
 1758POPC   C1A25419  23.618  31.046   8.874
 1758POPC   D2A25420  23.554  30.901   8.448
 1758POPC   C3A25421  23.872  30.973   8.137
 1758POPC   C4A25422  23.814  31.333   7.873
 1758POPC   C1B25423  23.816  31.449   8.605
 1758POPC   C2B25424  24.037  31.676   8.265
 1758POPC   C3B25425  23.985  31.794   7.796
 1758POPC   C4B25426  23.519  31.926   7.700
 1759POPC   NC325427  27.959  32.166   9.478
 1759POPC   PO425428  28.434  32.123   9.883
 1759POPC   GL125429  28.407  31.995   9.336
 1759POPC   GL225430  28.164  32.164   9.037
 1759POPC   C1A25431  28.645  32.060   8.908
 1759POPC   D2A25432  28.766  32.095   8.446
 1759POPC   C3A25433  28.469  32.113   8.097
 1759POPC   C4A25434  28.477  32.056   7.644
 1759POPC   C1B25435  27.868  32.090   8.707
 1759POPC   C2B25436  27.993  32.255   8.301
 1759POPC   C3B25437  28.015  32.169   7.857
 1759POPC   C4B25438  28.172  32.436   7.495
 1760POPC   NC325439  16.562  19.726   9.412
 1760POPC   PO425440  17.170  19.869   9.525
 1760POPC   GL125441  16.943  20.057   9.169
 1760POPC   GL225442  16.633  20.239   9.257
 1760POPC   C1A25443  16.805  19.864   8.800
 1760POPC   D2A25444  16.589  19.676   8.443
 1760POPC   C3A25445  16.802  19.727   8.078
 1760POPC   C4A25446  16.669  19.765   7.700
 1760POPC   C1B25447  16.526  20.297   8.822
 1760POPC   C2B25448  16.672  20.180   8.408
 1760POPC   C3B25449  16.467  20.116   8.021
 1760POPC   C4B25450  16.685  20.280   7.659
 1761POPC   NC325451  19.484  22.163   9.379
 1761POPC   PO425452  20.054  21.973   9.602
 1761POPC   GL125453  19.864  22.022   9.089
 1761POPC   GL225454  19.600  22.360   8.932
 1761POPC   C1A25455  19.718  21.985   8.641
 1761POPC   D2A25456  19.439  22.183   8.352
 1761POPC   C3A25457  19.673  22.261   7.969
 1761POPC   C4A25458  19.542  22.028   7.603
 1761POPC   C1B25459  20.009  22.437   8.729
 1761POPC   C2B25460  20.216  22.388   8.347
 1761POPC   C3B25461  20.150  22.484   7.907
 1761POPC   C4B25462  20.013  22.256   7.564
 1762POPC   NC325463   1.217   0.008   9.415
 1762POPC   PO425464   0.856   0.514   9.699
 1762POPC   GL125465   0.939   0.384   9.239
 1762POPC   GL225466   1.262   0.529   9.113
 1762POPC   C1A25467   0.989   0.243   8.796
 1762POPC   D2A25468   1.134   0.528   8.475
 1762POPC   C3A25469   1.074   0.419   8.048
 1762POPC   C4A25470   0.972   0.569   7.629
 1762POPC   C1B25471   1.556   0.647   8.747
 1762POPC   C2B25472   1.555   0.807   8.291
 1762POPC   C3B25473   1.456   0.705   7.840
 1762POPC   C4B25474   1.672   0.887   7.426
 1763POPC   NC325475  24.001   4.043   9.388
 1763POPC   PO425476  23.412   4.356   9.544
 1763POPC   GL125477  23.607   4.301   9.106
 1763POPC   GL225478  23.981   4.299   8.951
 1763POPC   C1A25479  23.589   4.198   8.662
 1763POPC   D2A25480  23.798   4.270   8.315
 1763POPC   C3A25481  23.577   4.117   8.001
 1763POPC   C4A25482  23.713   4.115   7.604
 1763POPC   C1B25483  24.005   4.623   8.626
 1763POPC   C2B25484  24.117   4.652   8.202
 1763POPC   C3B25485  24.090   4.372   7.867
 1763POPC   C4B25486  23.999   4.528   7.434
 1764POPC   NC325487  33.992  36.742   9.360
 1764POPC   PO425488  33.455  37.172   9.507
 1764POPC   GL125489  33.739  37.106   9.109
 1764POPC   GL225490  33.948  37.389   9.118
 1764POPC   C1A25491  33.838  36.795   8.697
 1764POPC   D2A25492  33.810  36.494   8.288
 1764POPC   C3A25493  33.624  36.595   7.845
 1764POPC   C4A25494  33.864  36.745   7.458
 1764POPC   C1B25495  33.934  37.424   8.716
 1764POPC   C2B25496  33.943  37.190   8.377
 1764POPC   C3B25497  33.965  36.939   8.021
 1764POPC   C4B25498  33.707  37.131   7.748
 1765POPC   NC325499   8.896   4.680   9.652
 1765POPC   PO425500   9.249   5.221   9.482
 1765POPC   GL125501   9.216   5.034   9.126
 1765POPC   GL225502   8.901   4.945   9.162
 1765POPC   C1A25503   9.360   5.071   8.706
 1765POPC   D2A25504   9.316   4.899   8.300
 1765POPC   C3A25505   9.127   5.156   7.944
 1765POPC   C4A25506   9.118   5.148   7.458
 1765POPC   C1B25507   8.858   5.203   8.786
 1765POPC   C2B25508   8.823   4.993   8.402
 1765POPC   C3B25509   8.882   4.719   8.073
 1765POPC   C4B25510   8.758   4.862   7.692
 1766POPC   NC325511  22.304   9.132   9.525
 1766POPC   PO425512  21.670   9.124   9.746
 1766POPC   GL125513  21.848   9.061   9.330
 1766POPC   GL225514  21.836   8.743   9.232
 1766POPC   C1A25515  22.083   9.046   8.921
 1766POPC   D2A25516  22.168   9.101   8.505
 1766POPC   C3A25517  22.208   8.867   8.159
 1766POPC   C4A25518  22.289   8.973   7.748
 1766POPC   C1B25519  21.766   8.596   8.800
 1766POPC   C2B25520  21.732   8.737   8.378
 1766POPC   C3B25521  21.753   8.755   7.933
 1766POPC   C4B25522  21.822   8.707   7.496
 1767POPC   NC325523   4.263  36.797   9.712
 1767POPC   PO425524   3.749  37.093   9.349
 1767POPC   GL125525   4.067  36.757   9.214
 1767POPC   GL225526   4.407  36.861   9.111
 1767POPC   C1A25527   4.141  36.583   8.796
 1767POPC   D2A25528   4.264  36.775   8.432
 1767POPC   C3A25529   4.130  36.641   8.060
 1767POPC   C4A25530   3.984  36.935   7.788
 1767POPC   C1B25531   4.411  37.151   8.733
 1767POPC   C2B25532   4.642  37.185   8.329
 1767POPC   C3B25533   4.678  37.171   7.896
 1767POPC   C4B25534   4.513  36.794   7.763
 1768POPC   NC325535  28.167  38.388   9.705
 1768POPC   PO425536  28.538  38.825   9.422
 1768POPC   GL125537  28.193  38.735   9.128
 1768POPC   GL225538  28.035  38.389   9.204
 1768POPC   C1A25539  28.394  38.718   8.732
 1768POPC   D2A25540  28.589  38.391   8.521
 1768POPC   C3A25541  28.574  38.575   8.124
 1768POPC   C4A25542  28.546  38.369   7.768
 1768POPC   C1B25543  28.125  38.266   8.777
 1768POPC   C2B25544  28.113  38.480   8.353
 1768POPC   C3B25545  28.052  38.440   7.900
 1768POPC   C4B25546  27.826  38.456   7.504
 1769POPC   NC325547  37.881  23.458   9.212
 1769POPC   PO425548  37.625  24.051   9.443
 1769POPC   GL125549  37.714  23.920   9.024
 1769POPC   GL225550  38.039  24.083   9.075
 1769POPC   C1A25551  37.651  23.628   8.635
 1769POPC   D2A25552  37.838  23.434   8.270
 1769POPC   C3A25553  37.674  23.546   7.886
 1769POPC   C4A25554  37.539  23.917   7.750
 1769POPC   C1B25555  38.117  23.852   8.697
 1769POPC   C2B25556  38.269  23.730   8.287
 1769POPC   C3B25557  38.026  23.900   7.952
 1769POPC   C4B25558  38.028  23.971   7.491
 1770POPC   NC325559  40.130  14.274   9.507
 1770POPC   PO425560  39.851  14.919   9.513
 1770POPC   GL125561  39.838  14.618   9.180
 1770POPC   GL225562  40.156  14.523   9.078
 1770POPC   C1A25563  39.747  14.645   8.735
 1770POPC   D2A25564  39.900  14.807   8.340
 1770POPC   C3A25565  39.744  14.589   7.987
 1770POPC   C4A25566  39.944  14.417   7.611
 1770POPC   C1B25567  40.260  14.606   8.690
 1770POPC   C2B25568  40.395  14.465   8.315
 1770POPC   C3B25569  40.343  14.550   7.892
 1770POPC   C4B25570  40.496  14.494   7.471
 1771POPC   NC325571   5.285   1.742   9.449
 1771POPC   PO425572   4.880   2.219   9.471
 1771POPC   GL125573   4.992   1.998   9.124
 1771POPC   GL225574   4.754   2.113   8.938
 1771POPC   C1A25575   5.111   1.785   8.748
 1771POPC   D2A25576   5.240   1.972   8.347
 1771POPC   C3A25577   5.372   1.704   8.027
 1771POPC   C4A25578   5.134   1.623   7.665
 1771POPC   C1B25579   4.754   2.358   8.631
 1771POPC   C2B25580   4.851   2.279   8.245
 1771POPC   C3B25581   4.635   2.248   7.881
 1771POPC   C4B25582   4.725   1.970   7.517
 1772POPC   NC325583  33.827  41.310   9.431
 1772POPC   PO425584  34.110  41.816   9.781
 1772POPC   GL125585  33.991  41.828   9.259
 1772POPC   GL225586  33.623  41.753   9.205
 1772POPC   C1A25587  33.928  41.601   8.803
 1772POPC   D2A25588  34.037  41.316   8.427
 1772POPC   C3A25589  33.825  41.360   8.005
 1772POPC   C4A25590  33.627  41.156   7.620
 1772POPC   C1B25591  33.416  41.686   8.803
 1772POPC   C2B25592  33.588  41.644   8.407
 1772POPC   C3B25593  33.435  41.700   8.025
 1772POPC   C4B25594  33.644  41.669   7.626
 1773POPC   NC325595  31.307  36.573   9.515
 1773POPC   PO425596  31.839  36.125   9.684
 1773POPC   GL125597  31.609  36.114   9.267
 1773POPC   GL225598  31.293  36.164   9.146
 1773POPC   C1A25599  31.712  36.135   8.798
 1773POPC   D2A25600  31.691  36.261   8.342
 1773POPC   C3A25601  31.688  36.017   7.962
 1773POPC   C4A25602  31.602  36.120   7.546
 1773POPC   C1B25603  31.232  36.204   8.687
 1773POPC   C2B25604  31.055  36.349   8.322
 1773POPC   C3B25605  31.281  36.362   7.921
 1773POPC   C4B25606  31.131  35.999   7.691
 1774POPC   NC325607   7.267  34.210   9.454
 1774POPC   PO425608   7.695  33.743   9.590
 1774POPC   GL125609   7.591  33.682   9.189
 1774POPC   GL225610   7.559  33.996   9.065
 1774POPC   C1A25611   7.653  33.591   8.757
 1774POPC   D2A25612   7.559  33.843   8.410
 1774POPC   C3A25613   7.833  33.806   8.069
 1774POPC   C4A25614   7.664  33.785   7.664
 1774POPC   C1B25615   7.228  34.050   8.769
 1774POPC   C2B25616   7.015  33.874   8.396
 1774POPC   C3B25617   7.103  33.965   7.966
 1774POPC   C4B25618   7.194  33.851   7.525
 1775POPC   NC325619  16.831  27.938   9.682
 1775POPC   PO425620  16.409  27.479   9.460
 1775POPC   GL125621  16.810  27.598   9.256
 1775POPC   GL225622  16.786  27.949   9.167
 1775POPC   C1A25623  17.089  27.583   8.880
 1775POPC   D2A25624  17.063  27.832   8.492
 1775POPC   C3A25625  16.835  27.667   8.124
 1775POPC   C4A25626  16.914  27.510   7.727
 1775POPC   C1B25627  16.632  27.804   8.783
 1775POPC   C2B25628  16.564  27.994   8.393
 1775POPC   C3B25629  16.333  27.882   8.053
 1775POPC   C4B25630  16.454  27.732   7.663
 1776POPC   NC325631  34.434  16.297   9.487
 1776POPC   PO425632  34.924  15.839   9.462
 1776POPC   GL125633  34.739  15.739   9.059
 1776POPC   GL225634  34.587  16.038   9.085
 1776POPC   C1A25635  34.442  15.742   8.710
 1776POPC   D2A25636  34.665  15.760   8.336
 1776POPC   C3A25637  34.448  15.873   7.999
 1776POPC   C4A25638  34.425  15.688   7.627
 1776POPC   C1B25639  34.784  16.153   8.724
 1776POPC   C2B25640  34.961  16.164   8.348
 1776POPC   C3B25641  34.727  16.303   8.005
 1776POPC   C4B25642  34.666  16.147   7.609
 1777POPC   NC325643  11.131  38.339   9.635
 1777POPC   PO425644  11.747  38.314   9.815
 1777POPC   GL125645  11.503  38.359   9.313
 1777POPC   GL225646  11.515  38.061   9.139
 1777POPC   C1A25647  11.394  38.467   8.835
 1777POPC   D2A25648  11.287  38.691   8.428
 1777POPC   C3A25649  11.369  38.557   7.974
 1777POPC   C4A25650  11.353  38.650   7.516
 1777POPC   C1B25651  11.331  37.981   8.744
 1777POPC   C2B25652  11.342  38.167   8.336
 1777POPC   C3B25653  11.167  38.041   7.935
 1777POPC   C4B25654  11.355  38.150   7.579
 1778POPC   NC325655  42.933   8.434   9.336
 1778POPC   PO425656  43.279   7.822   9.488
 1778POPC   GL125657  43.144   7.919   9.090
 1778POPC   GL225658  43.335   8.191   9.093
 1778POPC   C1A25659  42.897   7.930   8.695
 1778POPC   D2A25660  43.043   8.073   8.281
 1778POPC   C3A25661  42.848   8.259   7.925
 1778POPC   C4A25662  43.201   8.119   7.725
 1778POPC   C1B25663  43.238   8.323   8.694
 1778POPC   C2B25664  43.480   8.374   8.330
 1778POPC   C3B25665  43.402   8.532   7.940
 1778POPC   C4B25666  43.016   8.749   7.785
 1779POPC   NC325667  36.333  22.722   9.508
 1779POPC   PO425668  35.733  22.542   9.327
 1779POPC   GL125669  36.032  22.823   9.101
 1779POPC   GL225670  36.051  23.141   9.251
 1779POPC   C1A25671  36.312  22.758   8.722
 1779POPC   D2A25672  36.544  23.004   8.393
 1779POPC   C3A25673  36.450  22.961   7.937
 1779POPC   C4A25674  36.388  22.681   7.581
 1779POPC   C1B25675  36.194  23.238   8.829
 1779POPC   C2B25676  36.064  23.199   8.407
 1779POPC   C3B25677  36.083  23.306   7.977
 1779POPC   C4B25678  35.945  22.972   7.732
 1780POPC   NC325679   3.272  33.065   9.373
 1780POPC   PO425680   3.727  32.607   9.506
 1780POPC   GL125681   3.690  32.837   9.150
 1780POPC   GL225682   3.664  33.214   9.091
 1780POPC   C1A25683   3.529  32.811   8.765
 1780POPC   D2A25684   3.707  33.018   8.464
 1780POPC   C3A25685   3.635  32.909   8.063
 1780POPC   C4A25686   3.861  33.108   7.770
 1780POPC   C1B25687   3.331  33.282   8.774
 1780POPC   C2B25688   3.190  33.049   8.449
 1780POPC   C3B25689   3.148  33.151   8.065
 1780POPC   C4B25690   3.295  33.061   7.708
 1781POPC   NC325691  42.297  13.428   9.453
 1781POPC   PO425692  41.957  13.993   9.247
 1781POPC   GL125693  42.118  13.660   9.037
 1781POPC   GL225694  42.480  13.748   9.105
 1781POPC   C1A25695  42.324  13.398   8.753
 1781POPC   D2A25696  42.394  13.568   8.369
 1781POPC   C3A25697  42.222  13.435   7.985
 1781POPC   C4A25698  42.510  13.529   7.647
 1781POPC   C1B25699  42.714  13.764   8.745
 1781POPC   C2B25700  42.743  13.974   8.400
 1781POPC   C3B25701  42.633  13.857   8.024
 1781POPC   C4B25702  42.673  14.046   7.665
 1782POPC   NC325703   7.920   3.941   9.421
 1782POPC   PO425704   8.320   3.438   9.624
 1782POPC   GL125705   8.167   3.541   9.196
 1782POPC   GL225706   8.475   3.731   9.180
 1782POPC   C1A25707   8.219   3.758   8.757
 1782POPC   D2A25708   8.301   3.595   8.349
 1782POPC   C3A25709   8.219   3.809   7.972
 1782POPC   C4A25710   8.031   3.842   7.581
 1782POPC   C1B25711   8.551   3.331   8.929
 1782POPC   C2B25712   8.700   3.289   8.478
 1782POPC   C3B25713   8.614   3.354   8.029
 1782POPC   C4B25714   8.578   3.095   7.636
 1783POPC   NC325715  11.259   3.784   9.514
 1783POPC   PO425716  11.267   3.167   9.599
 1783POPC   GL125717  11.304   3.398   9.184
 1783POPC   GL225718  11.641   3.602   9.199
 1783POPC   C1A25719  11.470   3.387   8.754
 1783POPC   D2A25720  11.288   3.569   8.364
 1783POPC   C3A25721  11.246   3.352   7.944
 1783POPC   C4A25722  11.482   3.489   7.568
 1783POPC   C1B25723  11.608   3.871   8.817
 1783POPC   C2B25724  11.747   3.811   8.378
 1783POPC   C3B25725  11.562   3.788   7.986
 1783POPC   C4B25726  11.137   3.884   7.908
 1784POPC   NC325727  42.538  19.038   9.412
 1784POPC   PO425728  41.983  18.639   9.398
 1784POPC   GL125729  42.206  18.821   9.083
 1784POPC   GL225730  42.501  18.606   9.142
 1784POPC   C1A25731  42.282  19.172   8.770
 1784POPC   D2A25732  42.465  19.295   8.365
 1784POPC   C3A25733  42.273  19.182   7.951
 1784POPC   C4A25734  42.060  19.430   7.615
 1784POPC   C1B25735  42.560  18.742   8.730
 1784POPC   C2B25736  42.432  18.787   8.325
 1784POPC   C3B25737  42.669  18.850   7.973
 1784POPC   C4B25738  42.531  18.907   7.564
 1785POPC   NC325739  13.227  26.363   9.480
 1785POPC   PO425740  13.904  26.033   9.484
 1785POPC   GL125741  13.731  26.183   9.143
 1785POPC   GL225742  13.426  26.066   9.110
 1785POPC   C1A25743  13.818  25.983   8.748
 1785POPC   D2A25744  13.691  25.803   8.345
 1785POPC   C3A25745  13.880  25.988   7.965
 1785POPC   C4A25746  13.891  25.853   7.515
 1785POPC   C1B25747  13.320  25.829   8.753
 1785POPC   C2B25748  13.168  25.912   8.342
 1785POPC   C3B25749  13.345  25.966   7.935
 1785POPC   C4B25750  13.173  26.150   7.550
 1786POPC   NC325751  21.726  15.577   9.557
 1786POPC   PO425752  21.422  15.055   9.395
 1786POPC   GL125753  21.719  15.193   9.085
 1786POPC   GL225754  21.670  15.562   9.057
 1786POPC   C1A25755  21.723  15.094   8.636
 1786POPC   D2A25756  21.360  15.143   8.354
 1786POPC   C3A25757  21.481  15.140   7.933
 1786POPC   C4A25758  21.816  14.980   7.690
 1786POPC   C1B25759  21.536  15.572   8.631
 1786POPC   C2B25760  21.588  15.582   8.191
 1786POPC   C3B25761  21.273  15.610   7.883
 1786POPC   C4B25762  20.983  15.268   7.735
 1787POPC   NC325763   5.818  11.672   9.744
 1787POPC   PO425764   6.032  12.262   9.560
 1787POPC   GL125765   6.046  12.110   9.197
 1787POPC   GL225766   5.747  11.948   9.206
 1787POPC   C1A25767   6.019  12.062   8.761
 1787POPC   D2A25768   5.810  12.329   8.439
 1787POPC   C3A25769   5.960  12.347   8.011
 1787POPC   C4A25770   6.115  12.094   7.660
 1787POPC   C1B25771   5.481  12.057   8.872
 1787POPC   C2B25772   5.379  12.059   8.434
 1787POPC   C3B25773   5.562  12.043   8.026
 1787POPC   C4B25774   5.472  12.100   7.594
 1788POPC   NC325775   6.764  13.891   9.489
 1788POPC   PO425776   6.353  14.365   9.464
 1788POPC   GL125777   6.463  14.216   9.066
 1788POPC   GL225778   6.317  13.902   9.070
 1788POPC   C1A25779   6.365  14.451   8.666
 1788POPC   D2A25780   6.174  14.768   8.360
 1788POPC   C3A25781   6.438  14.860   7.994
 1788POPC   C4A25782   6.720  14.530   7.807
 1788POPC   C1B25783   6.411  13.947   8.624
 1788POPC   C2B25784   6.579  14.195   8.240
 1788POPC   C3B25785   6.670  14.022   7.790
 1788POPC   C4B25786   6.528  14.125   7.343
 1789POPC   NC325787  32.047  12.996   9.437
 1789POPC   PO425788  32.387  12.424   9.603
 1789POPC   GL125789  32.213  12.610   9.168
 1789POPC   GL225790  32.335  12.952   9.023
 1789POPC   C1A25791  31.962  12.700   8.780
 1789POPC   D2A25792  32.123  12.873   8.429
 1789POPC   C3A25793  32.029  12.681   8.058
 1789POPC   C4A25794  32.160  12.608   7.670
 1789POPC   C1B25795  32.650  12.808   8.749
 1789POPC   C2B25796  32.647  12.937   8.324
 1789POPC   C3B25797  32.439  13.022   7.962
 1789POPC   C4B25798  32.619  12.740   7.706
 1790POPC   NC325799  42.286  41.996   9.461
 1790POPC   PO425800  42.167  41.363   9.486
 1790POPC   GL125801  42.363  41.620   9.115
 1790POPC   GL225802  42.215  41.951   8.949
 1790POPC   C1A25803  42.533  41.594   8.685
 1790POPC   D2A25804  42.628  41.401   8.260
 1790POPC   C3A25805  42.599  41.471   7.788
 1790POPC   C4A25806  42.583  41.796   7.464
 1790POPC   C1B25807  42.018  41.552   8.756
 1790POPC   C2B25808  42.075  41.442   8.367
 1790POPC   C3B25809  42.181  41.692   8.038
 1790POPC   C4B25810  42.120  41.582   7.609
 1791POPC   NC325811  42.366   1.583   9.517
 1791POPC   PO425812  42.448   2.230   9.316
 1791POPC   GL125813  42.508   1.959   8.954
 1791POPC   GL225814  42.465   1.589   9.012
 1791POPC   C1A25815  42.578   2.175   8.547
 1791POPC   D2A25816  42.765   2.372   8.179
 1791POPC   C3A25817  42.488   2.180   7.860
 1791POPC   C4A25818  42.055   2.086   8.032
 1791POPC   C1B25819  42.464   1.654   8.539
 1791POPC   C2B25820  42.425   1.689   8.073
 1791POPC   C3B25821  42.601   1.703   7.653
 1791POPC   C4B25822  42.526   1.850   7.209
 1792POPC   NC325823  43.419  18.470   9.462
 1792POPC   PO425824  44.075  18.125   9.538
 1792POPC   GL125825  44.013  18.306   9.133
 1792POPC   GL225826  44.269  18.568   9.040
 1792POPC   C1A25827  43.794  18.080   8.777
 1792POPC   D2A25828  43.742  18.023   8.329
 1792POPC   C3A25829  43.651  18.375   8.057
 1792POPC   C4A25830  43.878  18.436   7.682
 1792POPC   C1B25831  44.437  18.184   8.841
 1792POPC   C2B25832  44.245  18.001   8.462
 1792POPC   C3B25833  44.188  18.209   8.042
 1792POPC   C4B25834  44.268  18.061   7.587
 1793POPC   NC325835  38.760  18.735   9.528
 1793POPC   PO425836  39.272  19.141   9.611
 1793POPC   GL125837  39.146  19.039   9.206
 1793POPC   GL225838  39.370  19.289   9.086
 1793POPC   C1A25839  39.099  18.858   8.777
 1793POPC   D2A25840  38.912  19.036   8.389
 1793POPC   C3A25841  38.973  18.989   7.961
 1793POPC   C4A25842  39.195  19.245   7.714
 1793POPC   C1B25843  39.442  19.262   8.658
 1793POPC   C2B25844  39.393  19.172   8.226
 1793POPC   C3B25845  39.686  19.195   7.928
 1793POPC   C4B25846  39.660  19.036   7.550
 1794POPC   NC325847   1.751  20.470   9.334
 1794POPC   PO425848   1.192  20.269   9.467
 1794POPC   GL125849   1.099  20.459   9.114
 1794POPC   GL225850   1.235  20.806   9.119
 1794POPC   C1A25851   1.317  20.418   8.736
 1794POPC   D2A25852   1.486  20.532   8.326
 1794POPC   C3A25853   1.278  20.336   7.957
 1794POPC   C4A25854   0.962  20.420   7.643
 1794POPC   C1B25855   1.606  20.860   8.826
 1794POPC   C2B25856   1.718  21.030   8.433
 1794POPC   C3B25857   1.577  20.954   8.013
 1794POPC   C4B25858   1.311  20.796   7.685
 1795POPC   NC325859  37.147  40.645   9.432
 1795POPC   PO425860  36.552  41.048   9.373
 1795POPC   GL125861  36.833  40.860   9.077
 1795POPC   GL225862  36.786  40.507   9.104
 1795POPC   C1A25863  36.950  40.782   8.645
 1795POPC   D2A25864  36.679  40.788   8.298
 1795POPC   C3A25865  36.957  40.822   7.990
 1795POPC   C4A25866  36.979  40.799   7.574
 1795POPC   C1B25867  36.569  40.468   8.712
 1795POPC   C2B25868  36.509  40.268   8.254
 1795POPC   C3B25869  36.590  40.457   7.848
 1795POPC   C4B25870  36.534  40.650   7.422
 1796POPC   NC325871  37.369  14.253   9.647
 1796POPC   PO425872  37.422  14.772   9.190
 1796POPC   GL125873  37.756  14.516   9.019
 1796POPC   GL225874  37.816  14.269   9.259
 1796POPC   C1A25875  37.792  14.423   8.596
 1796POPC   D2A25876  37.513  14.685   8.343
 1796POPC   C3A25877  37.482  14.491   7.987
 1796POPC   C4A25878  37.925  14.482   7.848
 1796POPC   C1B25879  37.579  14.032   8.946
 1796POPC   C2B25880  37.598  13.944   8.511
 1796POPC   C3B25881  37.781  14.095   8.147
 1796POPC   C4B25882  37.624  14.080   7.721
 1797POPC   NC325883  22.541  30.386   9.553
 1797POPC   PO425884  22.198  30.981   9.407
 1797POPC   GL125885  22.244  30.615   9.129
 1797POPC   GL225886  22.571  30.548   9.079
 1797POPC   C1A25887  22.048  30.605   8.721
 1797POPC   D2A25888  22.290  30.768   8.371
 1797POPC   C3A25889  22.004  30.694   8.033
 1797POPC   C4A25890  22.055  30.835   7.612
 1797POPC   C1B25891  22.446  30.300   8.727
 1797POPC   C2B25892  22.279  30.274   8.303
 1797POPC   C3B25893  22.449  30.509   7.922
 1797POPC   C4B25894  22.435  30.531   7.494
 1798POPC   NC325895  43.422  14.665   9.492
 1798POPC   PO425896  42.821  14.365   9.541
 1798POPC   GL125897  42.935  14.565   9.106
 1798POPC   GL225898  43.267  14.467   9.045
 1798POPC   C1A25899  43.014  14.747   8.647
 1798POPC   D2A25900  43.031  14.698   8.157
 1798POPC   C3A25901  43.356  14.581   7.880
 1798POPC   C4A25902  43.433  14.646   7.438
 1798POPC   C1B25903  43.149  14.255   8.636
 1798POPC   C2B25904  43.483  14.226   8.329
 1798POPC   C3B25905  43.474  14.098   7.920
 1798POPC   C4B25906  43.015  14.209   8.001
 1799POPC   NC325907  12.567  28.561   9.868
 1799POPC   PO425908  11.932  28.395   9.567
 1799POPC   GL125909  12.185  28.311   9.174
 1799POPC   GL225910  12.455  28.545   9.156
 1799POPC   C1A25911  12.009  28.316   8.721
 1799POPC   D2A25912  11.715  28.321   8.366
 1799POPC   C3A25913  11.978  28.280   8.026
 1799POPC   C4A25914  12.103  28.036   7.681
 1799POPC   C1B25915  12.266  28.738   8.805
 1799POPC   C2B25916  12.293  28.615   8.368
 1799POPC   C3B25917  12.168  28.750   7.969
 1799POPC   C4B25918  12.389  28.773   7.607
 1800POPC   NC325919  32.821  33.981   9.475
 1800POPC   PO425920  33.504  33.721   9.525
 1800POPC   GL125921  33.193  33.671   9.219
 1800POPC   GL225922  33.196  34.007   9.132
 1800POPC   C1A25923  33.095  33.600   8.772
 1800POPC   D2A25924  33.112  33.846   8.387
 1800POPC   C3A25925  32.987  33.710   7.977
 1800POPC   C4A25926  33.250  33.606   7.660
 1800POPC   C1B25927  32.906  34.107   8.794
 1800POPC   C2B25928  32.912  34.342   8.422
 1800POPC   C3B25929  32.980  34.198   8.022
 1800POPC   C4B25930  32.836  34.075   7.594
 1801POPC   NC325931  41.149  26.197   9.770
 1801POPC   PO425932  40.524  26.224   9.437
 1801POPC   GL125933  40.761  26.023   9.107
 1801POPC   GL225934  40.925  25.698   9.157
 1801POPC   C1A25935  40.805  26.096   8.679
 1801POPC   D2A25936  40.865  26.381   8.349
 1801POPC   C3A25937  40.802  26.202   7.995
 1801POPC   C4A25938  40.856  26.225   7.583
 1801POPC   C1B25939  41.210  25.768   8.795
 1801POPC   C2B25940  41.191  25.955   8.366
 1801POPC   C3B25941  41.171  25.769   7.963
 1801POPC   C4B25942  41.134  25.789   7.513
 1802POPC   NC325943  19.727  23.109   9.594
 1802POPC   PO425944  19.855  22.466   9.347
 1802POPC   GL125945  19.906  22.861   9.188
 1802POPC   GL225946  19.560  23.006   9.131
 1802POPC   C1A25947  20.130  23.050   8.858
 1802POPC   D2A25948  20.133  22.882   8.450
 1802POPC   C3A25949  20.293  23.044   8.082
 1802POPC   C4A25950  20.111  23.070   7.668
 1802POPC   C1B25951  19.669  22.839   8.733
 1802POPC   C2B25952  19.708  22.619   8.357
 1802POPC   C3B25953  19.797  22.851   8.015
 1802POPC   C4B25954  19.747  22.677   7.630
 1803POPC   NC325955  10.236  34.451   9.425
 1803POPC   PO425956  10.859  34.810   9.481
 1803POPC   GL125957  10.613  34.688   9.147
 1803POPC   GL225958  10.580  34.342   9.072
 1803POPC   C1A25959  10.484  34.727   8.734
 1803POPC   D2A25960  10.235  34.689   8.391
 1803POPC   C3A25961  10.551  34.882   8.148
 1803POPC   C4A25962  10.469  35.008   7.766
 1803POPC   C1B25963  10.270  34.252   8.729
 1803POPC   C2B25964  10.305  34.008   8.346
 1803POPC   C3B25965  10.203  34.234   7.985
 1803POPC   C4B25966  10.489  34.493   7.797
 1804POPC   NC325967   6.287   3.298   9.718
 1804POPC   PO425968   5.936   3.819   9.621
 1804POPC   GL125969   5.917   3.604   9.142
 1804POPC   GL225970   5.760   3.255   9.092
 1804POPC   C1A25971   5.918   3.511   8.644
 1804POPC   D2A25972   5.916   3.229   8.248
 1804POPC   C3A25973   5.958   3.391   7.809
 1804POPC   C4A25974   5.806   3.647   7.457
 1804POPC   C1B25975   5.665   3.053   8.686
 1804POPC   C2B25976   5.420   3.052   8.277
 1804POPC   C3B25977   5.472   3.224   7.814
 1804POPC   C4B25978   5.509   3.238   7.312
 1805POPC   NC325979   2.749  21.085  10.026
 1805POPC   PO425980   2.721  21.549   9.559
 1805POPC   GL125981   2.844  21.522   9.163
 1805POPC   GL225982   2.889  21.164   9.120
 1805POPC   C1A25983   2.677  21.579   8.776
 1805POPC   D2A25984   2.889  21.574   8.402
 1805POPC   C3A25985   2.720  21.448   8.048
 1805POPC   C4A25986   2.863  21.569   7.675
 1805POPC   C1B25987   2.859  21.124   8.649
 1805POPC   C2B25988   3.048  21.107   8.236
 1805POPC   C3B25989   3.135  21.142   7.799
 1805POPC   C4B25990   2.938  21.157   7.377
 1806POPC   NC325991  34.434   0.487   9.566
 1806POPC   PO425992  35.067   0.203   9.659
 1806POPC   GL125993  34.765   0.184   9.256
 1806POPC   GL225994  34.383   0.236   9.126
 1806POPC   C1A25995  34.747   0.333   8.808
 1806POPC   D2A25996  34.645   0.257   8.388
 1806POPC   C3A25997  34.708   0.497   7.991
 1806POPC   C4A25998  34.987   0.305   7.703
 1806POPC   C1B25999  34.232   0.183   8.699
 1806POPC   C2B26000  34.158   0.362   8.292
 1806POPC   C3B26001  34.233   0.394   7.842
 1806POPC   C4B26002  34.294   0.731   7.549
 1807POPC   NC326003   1.877   8.001   9.462
 1807POPC   PO426004   1.640   8.626   9.449
 1807POPC   GL126005   1.961   8.374   9.136
 1807POPC   GL226006   2.208   8.031   9.086
 1807POPC   C1A26007   1.889   8.187   8.742
 1807POPC   D2A26008   2.045   8.269   8.362
 1807POPC   C3A26009   1.950   8.012   8.067
 1807POPC   C4A26010   2.017   8.157   7.666
 1807POPC   C1B26011   2.399   8.072   8.691
 1807POPC   C2B26012   2.535   8.134   8.261
 1807POPC   C3B26013   2.396   7.879   7.890
 1807POPC   C4B26014   2.310   7.796   7.444
 1808POPC   NC326015  19.845  18.690   9.416
 1808POPC   PO426016  19.797  19.263   9.674
 1808POPC   GL126017  19.843  19.181   9.223
 1808POPC   GL226018  19.548  18.987   9.123
 1808POPC   C1A26019  20.081  19.347   8.838
 1808POPC   D2A26020  20.229  19.191   8.441
 1808POPC   C3A26021  19.956  18.940   8.192
 1808POPC   C4A26022  19.915  18.894   7.761
 1808POPC   C1B26023  19.745  18.980   8.705
 1808POPC   C2B26024  19.675  18.608   8.443
 1808POPC   C3B26025  19.605  18.569   8.019
 1808POPC   C4B26026  19.619  18.529   7.566
 1809POPC   NC326027  43.540  38.498   9.480
 1809POPC   PO426028  43.997  38.095   9.309
 1809POPC   GL126029  43.838  38.382   9.078
 1809POPC   GL226030  43.965  38.706   9.227
 1809POPC   C1A26031  43.929  38.364   8.663
 1809POPC   D2A26032  43.677  38.334   8.328
 1809POPC   C3A26033  43.891  38.336   7.969
 1809POPC   C4A26034  43.715  38.537   7.591
 1809POPC   C1B26035  43.761  38.831   8.829
 1809POPC   C2B26036  43.782  39.057   8.414
 1809POPC   C3B26037  43.833  38.837   8.012
 1809POPC   C4B26038  44.185  38.667   7.720
 1810POPC   NC326039  22.559  16.758   9.649
 1810POPC   PO426040  21.954  16.643   9.741
 1810POPC   GL126041  22.179  16.626   9.332
 1810POPC   GL226042  21.879  16.733   9.192
 1810POPC   C1A26043  22.398  16.722   8.900
 1810POPC   D2A26044  22.363  16.894   8.449
 1810POPC   C3A26045  22.476  16.706   8.018
 1810POPC   C4A26046  22.327  16.771   7.574
 1810POPC   C1B26047  21.924  16.880   8.764
 1810POPC   C2B26048  21.890  16.788   8.333
 1810POPC   C3B26049  21.977  16.784   7.947
 1810POPC   C4B26050  21.834  16.950   7.605
 1811POPC   NC326051  15.345  33.752   9.478
 1811POPC   PO426052  14.711  33.611   9.292
 1811POPC   GL126053  14.999  33.880   9.081
 1811POPC   GL226054  15.207  33.589   9.007
 1811POPC   C1A26055  14.894  33.929   8.620
 1811POPC   D2A26056  14.901  33.560   8.318
 1811POPC   C3A26057  15.180  33.651   7.991
 1811POPC   C4A26058  15.084  33.949   7.646
 1811POPC   C1B26059  15.597  33.431   8.856
 1811POPC   C2B26060  15.814  33.502   8.496
 1811POPC   C3B26061  15.911  33.444   8.096
 1811POPC   C4B26062  15.608  33.380   7.807
 1812POPC   NC326063   9.304  41.103   9.601
 1812POPC   PO426064   9.454  41.769   9.563
 1812POPC   GL126065   9.723  41.601   9.206
 1812POPC   GL226066  10.078  41.599   9.228
 1812POPC   C1A26067   9.823  41.448   8.786
 1812POPC   D2A26068   9.539  41.523   8.438
 1812POPC   C3A26069   9.490  41.697   8.021
 1812POPC   C4A26070   9.615  41.386   7.742
 1812POPC   C1B26071  10.136  41.883   8.882
 1812POPC   C2B26072  10.043  41.785   8.468
 1812POPC   C3B26073   9.971  41.558   8.109
 1812POPC   C4B26074   9.985  41.772   7.724
 1813POPC   NC326075  36.531  36.982   9.681
 1813POPC   PO426076  37.125  36.781   9.500
 1813POPC   GL126077  36.897  36.967   9.097
 1813POPC   GL226078  36.528  36.924   9.147
 1813POPC   C1A26079  37.073  37.049   8.676
 1813POPC   D2A26080  37.266  37.250   8.308
 1813POPC   C3A26081  37.139  37.058   7.940
 1813POPC   C4A26082  36.824  36.790   7.783
 1813POPC   C1B26083  36.533  36.769   8.713
 1813POPC   C2B26084  36.758  36.832   8.315
 1813POPC   C3B26085  36.627  37.163   8.054
 1813POPC   C4B26086  36.420  37.127   7.648
 1814POPC   NC326087  41.827   6.292   9.347
 1814POPC   PO426088  41.697   5.629   9.445
 1814POPC   GL126089  41.529   5.896   9.136
 1814POPC   GL226090  41.224   5.654   9.160
 1814POPC   C1A26091  41.652   6.072   8.697
 1814POPC   D2A26092  41.781   6.018   8.248
 1814POPC   C3A26093  41.606   5.961   7.870
 1814POPC   C4A26094  41.645   5.637   7.591
 1814POPC   C1B26095  41.518   5.518   8.805
 1814POPC   C2B26096  41.478   5.579   8.386
 1814POPC   C3B26097  41.363   5.506   7.984
 1814POPC   C4B26098  41.181   5.446   7.596
 1815POPC   NC326099  42.896   2.247   9.169
 1815POPC   PO426100  43.458   1.818   9.340
 1815POPC   GL126101  43.280   1.920   8.974
 1815POPC   GL226102  43.436   2.215   8.866
 1815POPC   C1A26103  43.312   1.796   8.532
 1815POPC   D2A26104  42.907   1.849   8.326
 1815POPC   C3A26105  42.952   1.982   7.923
 1815POPC   C4A26106  43.083   1.815   7.570
 1815POPC   C1B26107  43.137   2.279   8.539
 1815POPC   C2B26108  43.319   2.336   8.154
 1815POPC   C3B26109  43.482   2.292   7.755
 1815POPC   C4B26110  43.346   2.199   7.353
 1816POPC   NC326111   3.054  30.435   9.424
 1816POPC   PO426112   2.806  31.126   9.481
 1816POPC   GL126113   2.854  30.824   9.151
 1816POPC   GL226114   2.647  31.017   8.988
 1816POPC   C1A26115   3.044  30.679   8.758
 1816POPC   D2A26116   3.113  30.778   8.300
 1816POPC   C3A26117   2.998  30.460   8.019
 1816POPC   C4A26118   2.673  30.435   7.730
 1816POPC   C1B26119   2.574  30.799   8.601
 1816POPC   C2B26120   2.517  31.060   8.261
 1816POPC   C3B26121   2.636  30.946   7.901
 1816POPC   C4B26122   3.022  30.879   7.736
 1817POPC   NC326123   9.598  24.872   9.580
 1817POPC   PO426124  10.054  24.329   9.402
 1817POPC   GL126125   9.928  24.400   9.033
 1817POPC   GL226126   9.678  24.639   9.102
 1817POPC   C1A26127   9.954  24.298   8.622
 1817POPC   D2A26128   9.729  24.230   8.260
 1817POPC   C3A26129   9.872  24.332   7.855
 1817POPC   C4A26130   9.542  24.402   7.561
 1817POPC   C1B26131   9.883  24.805   8.704
 1817POPC   C2B26132   9.906  24.746   8.237
 1817POPC   C3B26133   9.928  24.860   7.787
 1817POPC   C4B26134  10.180  24.890   7.402
 1818POPC   NC326135  41.930   4.235   9.525
 1818POPC   PO426136  42.628   4.563   9.480
 1818POPC   GL126137  42.449   4.352   9.135
 1818POPC   GL226138  42.120   4.509   9.139
 1818POPC   C1A26139  42.307   4.328   8.691
 1818POPC   D2A26140  42.285   4.324   8.245
 1818POPC   C3A26141  42.515   4.021   7.990
 1818POPC   C4A26142  42.827   4.056   7.676
 1818POPC   C1B26143  42.049   4.839   8.854
 1818POPC   C2B26144  42.071   4.749   8.432
 1818POPC   C3B26145  41.905   4.595   8.034
 1818POPC   C4B26146  42.084   4.249   7.793
 1819POPC   NC326147  44.515  33.186   9.631
 1819POPC   PO426148  44.477  32.610   9.426
 1819POPC   GL126149  44.611  32.982   9.157
 1819POPC   GL226150  44.853  33.271   9.127
 1819POPC   C1A26151  44.691  32.931   8.725
 1819POPC   D2A26152  44.488  32.681   8.408
 1819POPC   C3A26153  44.635  32.810   8.000
 1819POPC   C4A26154  44.492  33.038   7.644
 1819POPC   C1B26155   0.041  33.313   8.722
 1819POPC   C2B26156  44.960  33.113   8.309
 1819POPC   C3B26157   0.125  33.258   7.917
 1819POPC   C4B26158   0.023  33.365   7.440
 1820POPC   NC326159  23.007   4.097   9.480
 1820POPC   PO426160  22.442   4.599   9.539
 1820POPC   GL126161  22.692   4.387   9.210
 1820POPC   GL226162  23.048   4.551   9.201
 1820POPC   C1A26163  22.649   4.093   8.834
 1820POPC   D2A26164  22.841   3.996   8.423
 1820POPC   C3A26165  22.705   4.084   7.979
 1820POPC   C4A26166  22.672   4.430   7.677
 1820POPC   C1B26167  23.109   4.322   8.815
 1820POPC   C2B26168  23.200   4.370   8.380
 1820POPC   C3B26169  23.128   4.472   7.969
 1820POPC   C4B26170  23.138   4.206   7.628
 1821POPC   NC326171  41.081  33.940   9.786
 1821POPC   PO426172  40.699  33.447   9.509
 1821POPC   GL126173  40.782  33.820   9.219
 1821POPC   GL226174  41.005  33.699   8.959
 1821POPC   C1A26175  40.775  34.129   8.846
 1821POPC   D2A26176  40.670  34.044   8.399
 1821POPC   C3A26177  40.790  34.143   7.991
 1821POPC   C4A26178  40.992  33.875   7.695
 1821POPC   C1B26179  40.712  33.414   8.837
 1821POPC   C2B26180  40.813  33.364   8.425
 1821POPC   C3B26181  40.803  33.556   8.038
 1821POPC   C4B26182  40.687  33.357   7.647
 1822POPC   NC326183  15.255  37.767   9.523
 1822POPC   PO426184  14.608  38.038   9.470
 1822POPC   GL126185  14.928  37.780   9.142
 1822POPC   GL226186  14.943  37.389   9.143
 1822POPC   C1A26187  15.275  37.653   8.812
 1822POPC   D2A26188  15.400  37.853   8.398
 1822POPC   C3A26189  15.199  37.752   8.004
 1822POPC   C4A26190  15.362  37.470   7.708
 1822POPC   C1B26191  15.075  37.202   8.743
 1822POPC   C2B26192  15.204  37.324   8.332
 1822POPC   C3B26193  15.042  37.149   7.947
 1822POPC   C4B26194  14.899  37.259   7.530
 1823POPC   NC326195  17.131  40.482   9.502
 1823POPC   PO426196  16.962  41.067   9.488
 1823POPC   GL126197  16.907  40.787   9.108
 1823POPC   GL226198  16.628  40.894   8.906
 1823POPC   C1A26199  17.121  40.905   8.733
 1823POPC   D2A26200  16.920  40.898   8.371
 1823POPC   C3A26201  16.859  40.560   8.087
 1823POPC   C4A26202  16.780  40.746   7.694
 1823POPC   C1B26203  16.700  40.511   8.656
 1823POPC   C2B26204  16.422  40.372   8.304
 1823POPC   C3B26205  16.397  40.415   7.845
 1823POPC   C4B26206  16.504  40.424   7.392
 1824POPC   NC326207  17.900  42.758   9.406
 1824POPC   PO426208  18.440  43.109   9.651
 1824POPC   GL126209  18.238  43.101   9.246
 1824POPC   GL226210  18.276  43.421   9.111
 1824POPC   C1A26211  18.167  42.999   8.831
 1824POPC   D2A26212  18.358  43.066   8.433
 1824POPC   C3A26213  18.189  43.146   8.096
 1824POPC   C4A26214  18.103  42.886   7.775
 1824POPC   C1B26215  18.129  43.469   8.684
 1824POPC   C2B26216  18.428  43.600   8.415
 1824POPC   C3B26217  18.595  43.441   8.078
 1824POPC   C4B26218  18.434  43.274   7.672
 1825POPC   NC326219  20.486  10.685   9.333
 1825POPC   PO426220  20.897  10.652   9.830
 1825POPC   GL126221  20.973  10.670   9.269
 1825POPC   GL226222  20.741  10.478   8.977
 1825POPC   C1A26223  20.950  10.887   8.824
 1825POPC   D2A26224  20.617  10.704   8.537
 1825POPC   C3A26225  20.719  10.469   8.194
 1825POPC   C4A26226  20.652  10.471   7.756
 1825POPC   C1B26227  20.455  10.221   8.739
 1825POPC   C2B26228  20.544   9.994   8.383
 1825POPC   C3B26229  20.455  10.064   7.976
 1825POPC   C4B26230  20.711   9.943   7.663
 1826POPC   NC326231  36.616  27.624   9.683
 1826POPC   PO426232  35.947  27.696   9.835
 1826POPC   GL126233  36.058  27.646   9.348
 1826POPC   GL226234  36.415  27.680   9.202
 1826POPC   C1A26235  36.006  27.636   8.864
 1826POPC   D2A26236  36.068  27.771   8.414
 1826POPC   C3A26237  35.948  27.484   8.077
 1826POPC   C4A26238  35.963  27.432   7.588
 1826POPC   C1B26239  36.558  27.588   8.750
 1826POPC   C2B26240  36.527  27.537   8.279
 1826POPC   C3B26241  36.359  27.728   7.905
 1826POPC   C4B26242  36.230  27.876   7.497
 1827POPC   NC326243  25.527  35.114   9.296
 1827POPC   PO426244  24.977  35.574   9.493
 1827POPC   GL126245  25.158  35.426   9.109
 1827POPC   GL226246  25.370  35.624   8.956
 1827POPC   C1A26247  25.229  35.232   8.662
 1827POPC   D2A26248  25.443  35.261   8.238
 1827POPC   C3A26249  25.190  35.331   7.863
 1827POPC   C4A26250  25.115  35.175   7.425
 1827POPC   C1B26251  25.668  35.498   8.654
 1827POPC   C2B26252  25.773  35.682   8.284
 1827POPC   C3B26253  25.580  35.645   7.902
 1827POPC   C4B26254  25.636  35.305   7.565
 1828POPC   NC326255  32.476  43.784   9.489
 1828POPC   PO426256  33.132  43.919   9.578
 1828POPC   GL126257  33.097  43.981   9.143
 1828POPC   GL226258  32.839  43.716   9.095
 1828POPC   C1A26259  33.236  44.082   8.713
 1828POPC   D2A26260  33.154  43.844   8.331
 1828POPC   C3A26261  33.124  44.057   7.925
 1828POPC   C4A26262  33.183  44.043   7.475
 1828POPC   C1B26263  32.725  43.962   8.707
 1828POPC   C2B26264  32.695  43.990   8.239
 1828POPC   C3B26265  32.854  43.640   7.957
 1828POPC   C4B26266  32.904  43.461   7.507
 1829POPC   NC326267  32.484  36.357   9.259
 1829POPC   PO426268  32.973  36.189   9.631
 1829POPC   GL126269  32.998  36.351   9.243
 1829POPC   GL226270  32.876  36.013   9.156
 1829POPC   C1A26271  33.113  36.314   8.814
 1829POPC   D2A26272  32.920  36.334   8.420
 1829POPC   C3A26273  33.173  36.444   8.084
 1829POPC   C4A26274  33.209  36.235   7.693
 1829POPC   C1B26275  32.766  35.888   8.767
 1829POPC   C2B26276  33.036  35.810   8.432
 1829POPC   C3B26277  33.075  35.866   8.013
 1829POPC   C4B26278  32.721  36.027   7.727
 1830POPC   NC326279   8.488  37.016   9.476
 1830POPC   PO426280   7.866  37.098   9.450
 1830POPC   GL126281   8.131  36.890   9.089
 1830POPC   GL226282   8.498  36.768   9.050
 1830POPC   C1A26283   8.220  36.995   8.654
 1830POPC   D2A26284   8.004  37.124   8.269
 1830POPC   C3A26285   8.132  36.908   7.880
 1830POPC   C4A26286   8.468  37.087   7.612
 1830POPC   C1B26287   8.604  36.603   8.691
 1830POPC   C2B26288   8.418  36.667   8.308
 1830POPC   C3B26289   8.596  36.685   7.929
 1830POPC   C4B26290   8.466  36.596   7.523
 1831POPC   NC326291   0.329  14.848   9.448
 1831POPC   PO426292   0.614  15.509   9.472
 1831POPC   GL126293   0.384  15.512   9.031
 1831POPC   GL226294   0.034  15.324   9.036
 1831POPC   C1A26295   0.482  15.537   8.590
 1831POPC   D2A26296   0.266  15.620   8.204
 1831POPC   C3A26297   0.223  15.246   7.943
 1831POPC   C4A26298   0.622  15.043   7.802
 1831POPC   C1B26299   0.028  15.210   8.580
 1831POPC   C2B26300   0.207  14.820   8.374
 1831POPC   C3B26301   0.403  14.624   8.022
 1831POPC   C4B26302   0.235  14.775   7.627
 1832POPC   NC326303   6.564  26.734   9.582
 1832POPC   PO426304   6.994  26.338   9.241
 1832POPC   GL126305   6.719  26.679   9.095
 1832POPC   GL226306   6.345  26.622   9.155
 1832POPC   C1A26307   6.604  26.713   8.665
 1832POPC   D2A26308   6.846  26.864   8.347
 1832POPC   C3A26309   6.851  26.611   7.997
 1832POPC   C4A26310   6.754  26.841   7.655
 1832POPC   C1B26311   6.189  26.892   8.898
 1832POPC   C2B26312   6.082  26.885   8.506
 1832POPC   C3B26313   6.227  27.017   8.176
 1832POPC   C4B26314   6.281  26.928   7.785
 1833POPC   NC326315  21.614   9.579   9.608
 1833POPC   PO426316  22.300   9.772   9.582
 1833POPC   GL126317  22.294   9.547   9.203
 1833POPC   GL226318  21.940   9.547   9.151
 1833POPC   C1A26319  22.298   9.529   8.757
 1833POPC   D2A26320  22.154   9.574   8.329
 1833POPC   C3A26321  22.155   9.938   8.079
 1833POPC   C4A26322  21.962  10.058   7.717
 1833POPC   C1B26323  21.814   9.431   8.718
 1833POPC   C2B26324  21.691   9.259   8.356
 1833POPC   C3B26325  21.914   9.255   8.005
 1833POPC   C4B26326  22.201   9.510   7.809
 1834POPC   NC326327  16.478  29.938   9.478
 1834POPC   PO426328  17.072  29.775   9.534
 1834POPC   GL126329  16.858  29.954   9.140
 1834POPC   GL226330  16.594  29.747   8.948
 1834POPC   C1A26331  16.717  30.175   8.740
 1834POPC   D2A26332  16.501  29.954   8.408
 1834POPC   C3A26333  16.689  30.026   8.013
 1834POPC   C4A26334  16.845  29.916   7.599
 1834POPC   C1B26335  16.292  29.530   8.642
 1834POPC   C2B26336  16.233  29.515   8.182
 1834POPC   C3B26337  16.409  29.662   7.795
 1834POPC   C4B26338  16.461  29.749   7.338
 1835POPC   NC326339  35.765  32.854   9.394
 1835POPC   PO426340  36.451  32.921   9.544
 1835POPC   GL126341  36.327  33.110   9.154
 1835POPC   GL226342  36.112  33.385   9.271
 1835POPC   C1A26343  36.179  32.992   8.744
 1835POPC   D2A26344  36.196  32.624   8.447
 1835POPC   C3A26345  36.335  32.723   8.029
 1835POPC   C4A26346  36.172  32.938   7.689
 1835POPC   C1B26347  35.887  33.467   8.881
 1835POPC   C2B26348  35.744  33.235   8.499
 1835POPC   C3B26349  35.690  33.339   8.078
 1835POPC   C4B26350  35.895  33.427   7.678
 1836POPC   NC326351  39.023  25.631   9.529
 1836POPC   PO426352  39.531  25.345   9.645
 1836POPC   GL126353  39.397  25.434   9.209
 1836POPC   GL226354  39.100  25.225   9.177
 1836POPC   C1A26355  39.433  25.283   8.770
 1836POPC   D2A26356  39.533  25.081   8.397
 1836POPC   C3A26357  39.392  25.284   8.057
 1836POPC   C4A26358  39.440  25.138   7.641
 1836POPC   C1B26359  38.942  25.149   8.751
 1836POPC   C2B26360  39.022  25.001   8.334
 1836POPC   C3B26361  38.967  25.100   7.884
 1836POPC   C4B26362  38.871  25.386   7.566
 1837POPC   NC326363  32.538   8.525   9.467
 1837POPC   PO426364  31.964   8.174   9.535
 1837POPC   GL126365  32.139   8.400   9.170
 1837POPC   GL226366  32.373   8.125   9.146
 1837POPC   C1A26367  32.358   8.478   8.767
 1837POPC   D2A26368  32.200   8.533   8.342
 1837POPC   C3A26369  32.340   8.381   7.920
 1837POPC   C4A26370  32.181   8.505   7.476
 1837POPC   C1B26371  32.402   7.959   8.750
 1837POPC   C2B26372  32.409   8.060   8.334
 1837POPC   C3B26373  32.384   7.873   7.924
 1837POPC   C4B26374  32.066   7.849   7.653
 1838POPC   NC326375  41.702  32.649   9.313
 1838POPC   PO426376  41.470  33.220   9.614
 1838POPC   GL126377  41.423  33.047   9.185
 1838POPC   GL226378  41.752  33.176   9.127
 1838POPC   C1A26379  41.410  32.709   8.778
 1838POPC   D2A26380  41.648  32.754   8.425
 1838POPC   C3A26381  41.504  32.961   8.076
 1838POPC   C4A26382  41.296  32.832   7.690
 1838POPC   C1B26383  41.551  33.201   8.720
 1838POPC   C2B26384  41.329  33.348   8.378
 1838POPC   C3B26385  41.587  33.472   8.069
 1838POPC   C4B26386  41.712  33.213   7.698
 1839POPC   NC326387  21.581  43.881   9.430
 1839POPC   PO426388  20.895  44.124   9.476
 1839POPC   GL126389  21.176  44.070   9.097
 1839POPC   GL226390  21.380  43.739   9.006
 1839POPC   C1A26391  21.150  43.964   8.649
 1839POPC   D2A26392  21.362  43.656   8.420
 1839POPC   C3A26393  21.241  43.819   8.057
 1839POPC   C4A26394  21.184  43.914   7.648
 1839POPC   C1B26395  21.673  43.961   8.716
 1839POPC   C2B26396  21.564  44.165   8.342
 1839POPC   C3B26397  21.696  44.075   7.929
 1839POPC   C4B26398  21.635  44.063   7.477
 1840POPC   NC326399  41.393  22.299   9.484
 1840POPC   PO426400  42.014  22.386   9.279
 1840POPC   GL126401  41.758  22.177   9.073
 1840POPC   GL226402  41.527  22.415   9.010
 1840POPC   C1A26403  41.900  22.049   8.657
 1840POPC   D2A26404  42.024  22.382   8.367
 1840POPC   C3A26405  41.815  22.294   7.998
 1840POPC   C4A26406  41.705  21.877   7.858
 1840POPC   C1B26407  41.399  22.119   8.706
 1840POPC   C2B26408  41.452  22.066   8.295
 1840POPC   C3B26409  41.217  22.035   7.929
 1840POPC   C4B26410  41.399  22.332   7.708
 1841POPC   NC326411   5.067  32.044   9.557
 1841POPC   PO426412   4.718  32.635   9.633
 1841POPC   GL126413   5.069  32.532   9.287
 1841POPC   GL226414   5.158  32.228   9.109
 1841POPC   C1A26415   5.218  32.644   8.833
 1841POPC   D2A26416   5.254  32.470   8.417
 1841POPC   C3A26417   5.094  32.486   7.997
 1841POPC   C4A26418   5.044  32.320   7.609
 1841POPC   C1B26419   5.365  32.058   8.768
 1841POPC   C2B26420   5.304  31.980   8.344
 1841POPC   C3B26421   5.450  32.090   7.927
 1841POPC   C4B26422   5.484  32.115   7.485
 1842POPC   NC326423  35.157  34.373   9.557
 1842POPC   PO426424  35.784  34.348   9.313
 1842POPC   GL126425  35.400  34.600   9.149
 1842POPC   GL226426  35.033  34.528   9.096
 1842POPC   C1A26427  35.319  34.811   8.750
 1842POPC   D2A26428  35.500  34.715   8.350
 1842POPC   C3A26429  35.193  34.630   8.043
 1842POPC   C4A26430  35.427  34.601   7.691
 1842POPC   C1B26431  35.138  34.316   8.752
 1842POPC   C2B26432  35.294  34.239   8.375
 1842POPC   C3B26433  35.168  34.097   8.019
 1842POPC   C4B26434  35.049  34.280   7.663
 1843POPC   NC326435   2.575  26.476   9.591
 1843POPC   PO426436   3.016  25.994   9.574
 1843POPC   GL126437   2.718  26.136   9.207
 1843POPC   GL226438   2.396  26.367   9.133
 1843POPC   C1A26439   2.688  26.208   8.750
 1843POPC   D2A26440   2.811  26.158   8.323
 1843POPC   C3A26441   2.575  25.875   8.086
 1843POPC   C4A26442   2.793  25.953   7.691
 1843POPC   C1B26443   2.189  26.410   8.708
 1843POPC   C2B26444   2.402  26.461   8.326
 1843POPC   C3B26445   2.540  26.347   7.908
 1843POPC   C4B26446   2.547  26.329   7.426
 1844POPC   NC326447  41.542  42.022   9.456
 1844POPC   PO426448  41.575  41.338   9.492
 1844POPC   GL126449  41.533  41.565   9.139
 1844POPC   GL226450  41.856  41.708   9.217
 1844POPC   C1A26451  41.436  41.546   8.682
 1844POPC   D2A26452  41.567  41.309   8.340
 1844POPC   C3A26453  41.324  41.278   7.976
 1844POPC   C4A26454  41.519  41.389   7.578
 1844POPC   C1B26455  41.711  41.938   8.834
 1844POPC   C2B26456  41.744  41.858   8.385
 1844POPC   C3B26457  41.683  41.677   7.970
 1844POPC   C4B26458  41.702  41.872   7.534
 1845POPC   NC326459  10.502  22.002   9.579
 1845POPC   PO426460  10.993  22.378   9.469
 1845POPC   GL126461  10.728  22.182   9.127
 1845POPC   GL226462  10.349  22.151   9.105
 1845POPC   C1A26463  10.668  22.201   8.680
 1845POPC   D2A26464  10.760  21.985   8.286
 1845POPC   C3A26465  10.620  22.185   7.890
 1845POPC   C4A26466  10.679  22.429   7.491
 1845POPC   C1B26467  10.152  22.053   8.721
 1845POPC   C2B26468  10.249  21.985   8.292
 1845POPC   C3B26469  10.134  22.007   7.860
 1845POPC   C4B26470  10.385  22.021   7.457
 1846POPC   NC326471  41.882  41.138   9.776
 1846POPC   PO426472  42.295  40.644   9.471
 1846POPC   GL126473  42.417  40.734   9.067
 1846POPC   GL226474  42.455  41.094   9.110
 1846POPC   C1A26475  42.276  40.617   8.647
 1846POPC   D2A26476  42.423  40.492   8.232
 1846POPC   C3A26477  42.332  40.733   7.833
 1846POPC   C4A26478  42.228  40.619   7.375
 1846POPC   C1B26479  42.345  41.123   8.697
 1846POPC   C2B26480  42.324  40.996   8.283
 1846POPC   C3B26481  42.166  41.192   7.917
 1846POPC   C4B26482  42.080  41.099   7.461
 1847POPC   NC326483  29.718  22.260   9.615
 1847POPC   PO426484  30.330  21.979   9.484
 1847POPC   GL126485  30.098  22.306   9.177
 1847POPC   GL226486  29.765  22.470   9.141
 1847POPC   C1A26487  30.082  22.412   8.722
 1847POPC   D2A26488  30.097  22.023   8.456
 1847POPC   C3A26489  30.053  22.125   8.039
 1847POPC   C4A26490  29.953  22.002   7.654
 1847POPC   C1B26491  29.677  22.121   8.795
 1847POPC   C2B26492  29.605  22.083   8.314
 1847POPC   C3B26493  29.589  22.303   7.881
 1847POPC   C4B26494  29.745  22.637   7.621
 1848POPC   NC326495   0.111   2.607   9.487
 1848POPC   PO426496  44.651   3.097   9.575
 1848POPC   GL126497  44.665   2.933   9.120
 1848POPC   GL226498  44.879   2.623   9.041
 1848POPC   C1A26499  44.664   2.855   8.642
 1848POPC   D2A26500  44.724   2.689   8.258
 1848POPC   C3A26501  44.574   2.973   7.974
 1848POPC   C4A26502  44.378   2.874   7.601
 1848POPC   C1B26503   0.131   2.949   8.803
 1848POPC   C2B26504   0.097   3.070   8.346
 1848POPC   C3B26505   0.068   2.879   7.914
 1848POPC   C4B26506  44.801   2.543   7.743
 1849POPC   NC326507  16.986  39.005   9.427
 1849POPC   PO426508  16.577  39.506   9.499
 1849POPC   GL126509  16.784  39.388   9.121
 1849POPC   GL226510  16.979  39.642   9.026
 1849POPC   C1A26511  16.866  39.151   8.712
 1849POPC   D2A26512  17.121  39.121   8.313
 1849POPC   C3A26513  16.840  39.227   7.948
 1849POPC   C4A26514  16.883  39.578   7.676
 1849POPC   C1B26515  16.734  39.636   8.653
 1849POPC   C2B26516  16.550  39.372   8.347
 1849POPC   C3B26517  16.347  39.439   7.956
 1849POPC   C4B26518  16.316  39.514   7.512
 1850POPC   NC326519   1.606  23.412   9.171
 1850POPC   PO426520   2.034  23.771   9.447
 1850POPC   GL126521   2.060  23.944   9.072
 1850POPC   GL226522   2.292  23.710   8.993
 1850POPC   C1A26523   1.842  23.937   8.673
 1850POPC   D2A26524   1.764  23.707   8.279
 1850POPC   C3A26525   1.827  23.927   7.907
 1850POPC   C4A26526   2.177  24.171   7.824
 1850POPC   C1B26527   2.336  23.704   8.590
 1850POPC   C2B26528   2.293  23.813   8.182
 1850POPC   C3B26529   2.207  23.564   7.838
 1850POPC   C4B26530   2.229  23.357   7.434
 1851POPC   NC326531  28.358   8.475   9.410
 1851POPC   PO426532  28.705   7.947   9.180
 1851POPC   GL126533  28.368   8.191   8.997
 1851POPC   GL226534  28.510   8.541   8.945
 1851POPC   C1A26535  28.259   8.286   8.592
 1851POPC   D2A26536  28.571   8.066   8.372
 1851POPC   C3A26537  28.325   7.945   8.023
 1851POPC   C4A26538  28.024   8.237   7.828
 1851POPC   C1B26539  28.876   8.652   8.738
 1851POPC   C2B26540  28.653   8.577   8.410
 1851POPC   C3B26541  28.412   8.464   8.107
 1851POPC   C4B26542  28.509   8.386   7.741
 1852POPC   NC326543   3.773   9.245   9.474
 1852POPC   PO426544   3.219   8.829   9.487
 1852POPC   GL126545   3.436   8.802   9.123
 1852POPC   GL226546   3.400   9.151   9.096
 1852POPC   C1A26547   3.638   8.886   8.711
 1852POPC   D2A26548   3.862   8.754   8.373
 1852POPC   C3A26549   3.678   8.943   8.034
 1852POPC   C4A26550   3.614   8.982   7.630
 1852POPC   C1B26551   3.722   9.368   8.823
 1852POPC   C2B26552   3.890   9.299   8.409
 1852POPC   C3B26553   3.810   9.430   7.987
 1852POPC   C4B26554   3.948   9.349   7.589
 1853POPC   NC326555   4.506  17.268   9.499
 1853POPC   PO426556   4.184  17.835   9.465
 1853POPC   GL126557   4.125  17.515   9.157
 1853POPC   GL226558   4.444  17.588   9.057
 1853POPC   C1A26559   4.058  17.357   8.718
 1853POPC   D2A26560   4.086  17.547   8.291
 1853POPC   C3A26561   4.399  17.445   7.964
 1853POPC   C4A26562   4.383  17.421   7.503
 1853POPC   C1B26563   4.360  17.785   8.646
 1853POPC   C2B26564   4.441  17.913   8.199
 1853POPC   C3B26565   4.513  17.887   7.749
 1853POPC   C4B26566   4.828  17.653   7.520
 1854POPC   NC326567  24.058  12.279   9.382
 1854POPC   PO426568  24.772  12.103   9.523
 1854POPC   GL126569  24.627  12.165   9.140
 1854POPC   GL226570  24.362  11.949   9.164
 1854POPC   C1A26571  24.575  11.971   8.715
 1854POPC   D2A26572  24.779  11.898   8.356
 1854POPC   C3A26573  24.505  12.085   8.060
 1854POPC   C4A26574  24.616  12.174   7.656
 1854POPC   C1B26575  24.088  11.840   8.803
 1854POPC   C2B26576  23.996  11.730   8.388
 1854POPC   C3B26577  24.169  11.670   7.986
 1854POPC   C4B26578  24.286  11.800   7.586
 1855POPC   NC326579  20.989  29.435   9.400
 1855POPC   PO426580  20.587  29.977   9.549
 1855POPC   GL126581  20.682  29.858   9.133
 1855POPC   GL226582  20.778  30.155   9.064
 1855POPC   C1A26583  20.776  29.709   8.696
 1855POPC   D2A26584  20.824  29.909   8.283
 1855POPC   C3A26585  20.896  29.592   7.963
 1855POPC   C4A26586  20.740  29.711   7.549
 1855POPC   C1B26587  20.527  30.155   8.689
 1855POPC   C2B26588  20.364  30.146   8.259
 1855POPC   C3B26589  20.588  30.149   7.829
 1855POPC   C4B26590  20.377  30.027   7.409
 1856POPC   NC326591  26.920   3.256   9.522
 1856POPC   PO426592  26.578   3.866   9.448
 1856POPC   GL126593  26.709   3.519   9.125
 1856POPC   GL226594  27.060   3.360   9.055
 1856POPC   C1A26595  26.658   3.416   8.677
 1856POPC   D2A26596  26.763   3.706   8.322
 1856POPC   C3A26597  26.502   3.604   7.978
 1856POPC   C4A26598  26.683   3.252   7.834
 1856POPC   C1B26599  27.076   3.695   8.758
 1856POPC   C2B26600  27.186   4.000   8.467
 1856POPC   C3B26601  27.323   3.949   8.060
 1856POPC   C4B26602  27.042   3.672   7.817
 1857POPC   NC326603  42.854  40.024   9.380
 1857POPC   PO426604  43.330  39.636   9.569
 1857POPC   GL126605  43.297  39.847   9.145
 1857POPC   GL226606  43.153  40.140   8.934
 1857POPC   C1A26607  43.259  39.679   8.745
 1857POPC   D2A26608  43.178  39.929   8.417
 1857POPC   C3A26609  42.922  39.718   8.106
 1857POPC   C4A26610  42.827  39.688   7.682
 1857POPC   C1B26611  43.404  40.421   8.646
 1857POPC   C2B26612  43.413  40.455   8.178
 1857POPC   C3B26613  43.165  40.155   7.970
 1857POPC   C4B26614  43.347  39.766   7.818
 1858POPC   NC326615  44.501  21.894   9.717
 1858POPC   PO426616  44.851  22.425   9.558
 1858POPC   GL126617  44.677  22.110   9.265
 1858POPC   GL226618  44.928  22.171   9.081
 1858POPC   C1A26619  44.641  21.886   8.820
 1858POPC   D2A26620  44.753  21.992   8.395
 1858POPC   C3A26621  44.438  21.923   8.107
 1858POPC   C4A26622  44.341  22.121   7.734
 1858POPC   C1B26623  44.946  22.344   8.720
 1858POPC   C2B26624  44.792  22.607   8.449
 1858POPC   C3B26625  44.969  22.434   8.114
 1858POPC   C4B26626  44.799  22.284   7.767
 1859POPC   NC326627  31.438   7.136   9.370
 1859POPC   PO426628  31.880   7.536   9.453
 1859POPC   GL126629  31.604   7.531   9.086
 1859POPC   GL226630  31.360   7.785   9.063
 1859POPC   C1A26631  31.483   7.374   8.673
 1859POPC   D2A26632  31.205   7.381   8.300
 1859POPC   C3A26633  31.379   7.365   7.909
 1859POPC   C4A26634  31.580   7.001   7.749
 1859POPC   C1B26635  31.529   7.888   8.716
 1859POPC   C2B26636  31.497   7.782   8.334
 1859POPC   C3B26637  31.681   7.760   7.963
 1859POPC   C4B26638  31.507   7.824   7.585
 1860POPC   NC326639  30.749  38.849   9.857
 1860POPC   PO426640  30.784  38.261   9.518
 1860POPC   GL126641  30.784  38.402   9.103
 1860POPC   GL226642  31.021  38.145   9.033
 1860POPC   C1A26643  30.487  38.561   8.793
 1860POPC   D2A26644  30.510  38.661   8.385
 1860POPC   C3A26645  30.664  38.413   8.035
 1860POPC   C4A26646  30.418  38.673   7.787
 1860POPC   C1B26647  30.858  38.262   8.616
 1860POPC   C2B26648  31.015  38.559   8.372
 1860POPC   C3B26649  31.180  38.586   7.973
 1860POPC   C4B26650  31.230  38.373   7.577
 1861POPC   NC326651  18.633  28.108   9.515
 1861POPC   PO426652  19.158  28.580   9.544
 1861POPC   GL126653  18.978  28.398   9.177
 1861POPC   GL226654  19.266  28.492   8.956
 1861POPC   C1A26655  18.887  28.184   8.770
 1861POPC   D2A26656  19.142  28.229   8.379
 1861POPC   C3A26657  18.888  28.244   7.975
 1861POPC   C4A26658  19.073  28.239   7.550
 1861POPC   C1B26659  18.898  28.690   8.721
 1861POPC   C2B26660  18.885  28.650   8.283
 1861POPC   C3B26661  19.178  28.639   7.935
 1861POPC   C4B26662  18.832  28.668   7.669
 1862POPC   NC326663  27.782  33.400   9.591
 1862POPC   PO426664  27.897  34.062   9.555
 1862POPC   GL126665  27.695  33.938   9.148
 1862POPC   GL226666  27.654  33.559   9.107
 1862POPC   C1A26667  27.600  34.082   8.715
 1862POPC   D2A26668  27.439  33.928   8.337
 1862POPC   C3A26669  27.716  34.003   8.029
 1862POPC   C4A26670  27.439  34.044   7.735
 1862POPC   C1B26671  27.614  33.573   8.677
 1862POPC   C2B26672  27.881  33.627   8.352
 1862POPC   C3B26673  27.927  33.495   7.954
 1862POPC   C4B26674  27.544  33.557   7.770
 1863POPC   NC326675  22.533  22.113   9.217
 1863POPC   PO426676  23.003  22.258   9.606
 1863POPC   GL126677  23.001  22.310   9.158
 1863POPC   GL226678  22.972  21.954   9.035
 1863POPC   C1A26679  22.833  22.361   8.736
 1863POPC   D2A26680  22.824  22.123   8.418
 1863POPC   C3A26681  22.599  22.280   8.112
 1863POPC   C4A26682  22.689  22.250   7.704
 1863POPC   C1B26683  23.260  22.088   8.724
 1863POPC   C2B26684  23.293  21.951   8.306
 1863POPC   C3B26685  23.115  22.153   7.961
 1863POPC   C4B26686  23.169  22.251   7.509
 1864POPC   NC326687  11.671  39.875   9.450
 1864POPC   PO426688  11.015  40.010   9.395
 1864POPC   GL126689  11.288  39.816   9.108
 1864POPC   GL226690  11.449  40.133   9.056
 1864POPC   C1A26691  11.554  39.709   8.753
 1864POPC   D2A26692  11.590  39.971   8.368
 1864POPC   C3A26693  11.439  39.835   7.956
 1864POPC   C4A26694  11.658  39.543   7.723
 1864POPC   C1B26695  11.239  40.131   8.702
 1864POPC   C2B26696  11.093  40.101   8.324
 1864POPC   C3B26697  11.191  40.298   7.956
 1864POPC   C4B26698  11.114  40.233   7.528
 1865POPC   NC326699  38.577  30.176   9.450
 1865POPC   PO426700  38.760  29.563   9.453
 1865POPC   GL126701  38.559  29.816   9.091
 1865POPC   GL226702  38.304  29.650   8.962
 1865POPC   C1A26703  38.386  30.107   8.729
 1865POPC   D2A26704  38.079  30.212   8.360
 1865POPC   C3A26705  38.304  30.179   7.976
 1865POPC   C4A26706  38.717  30.055   7.999
 1865POPC   C1B26707  38.226  29.662   8.531
 1865POPC   C2B26708  38.480  29.627   8.205
 1865POPC   C3B26709  38.433  29.674   7.789
 1865POPC   C4B26710  38.138  29.629   7.466
 1866POPC   NC326711  25.256  41.313   9.535
 1866POPC   PO426712  25.350  41.938   9.402
 1866POPC   GL126713  25.387  41.626   9.110
 1866POPC   GL226714  25.029  41.517   9.086
 1866POPC   C1A26715  25.358  41.690   8.670
 1866POPC   D2A26716  25.009  41.760   8.401
 1866POPC   C3A26717  25.093  41.864   7.981
 1866POPC   C4A26718  25.288  41.572   7.724
 1866POPC   C1B26719  25.044  41.285   8.671
 1866POPC   C2B26720  25.310  41.329   8.295
 1866POPC   C3B26721  25.519  41.182   7.929
 1866POPC   C4B26722  25.263  40.972   7.624
 1867POPC   NC326723   4.798  19.930   9.589
 1867POPC   PO426724   4.393  19.453   9.610
 1867POPC   GL126725   4.401  19.691   9.216
 1867POPC   GL226726   4.044  19.566   9.123
 1867POPC   C1A26727   4.418  19.967   8.827
 1867POPC   D2A26728   4.538  19.926   8.371
 1867POPC   C3A26729   4.605  19.788   7.917
 1867POPC   C4A26730   4.714  19.775   7.460
 1867POPC   C1B26731   4.002  19.736   8.691
 1867POPC   C2B26732   4.102  19.654   8.275
 1867POPC   C3B26733   4.074  19.700   7.849
 1867POPC   C4B26734   4.245  19.523   7.467
 1868POPC   NC326735   1.228  28.209   9.323
 1868POPC   PO426736   0.926  28.766   9.482
 1868POPC   GL126737   1.181  28.641   9.071
 1868POPC   GL226738   1.549  28.507   9.080
 1868POPC   C1A26739   1.295  28.541   8.632
 1868POPC   D2A26740   1.479  28.404   8.229
 1868POPC   C3A26741   1.108  28.411   7.949
 1868POPC   C4A26742   0.829  28.541   7.615
 1868POPC   C1B26743   1.623  28.178   8.781
 1868POPC   C2B26744   1.951  28.036   8.523
 1868POPC   C3B26745   1.878  28.042   8.091
 1868POPC   C4B26746   1.478  28.049   7.840
 1869POPC   NC326747  10.532  29.621   9.423
 1869POPC   PO426748  10.767  30.116   9.843
 1869POPC   GL126749  10.719  30.079   9.301
 1869POPC   GL226750  10.779  29.806   9.051
 1869POPC   C1A26751  10.550  30.222   8.882
 1869POPC   D2A26752  10.336  29.955   8.571
 1869POPC   C3A26753  10.261  30.076   8.129
 1869POPC   C4A26754  10.429  29.960   7.727
 1869POPC   C1B26755  10.626  29.502   8.760
 1869POPC   C2B26756  10.676  29.474   8.324
 1869POPC   C3B26757  10.672  29.553   7.895
 1869POPC   C4B26758  10.767  29.591   7.446
 1870POPC   NC326759  37.007  24.341   9.633
 1870POPC   PO426760  36.994  24.863   9.273
 1870POPC   GL126761  36.904  24.445   9.140
 1870POPC   GL226762  37.216  24.264   9.149
 1870POPC   C1A26763  36.700  24.401   8.763
 1870POPC   D2A26764  36.736  24.764   8.465
 1870POPC   C3A26765  36.823  24.667   8.042
 1870POPC   C4A26766  36.721  24.285   7.864
 1870POPC   C1B26767  37.200  24.488   8.724
 1870POPC   C2B26768  37.032  24.304   8.365
 1870POPC   C3B26769  37.209  24.237   7.983
 1870POPC   C4B26770  37.114  24.114   7.555
 1871POPC   NC326771  22.782  13.523   9.535
 1871POPC   PO426772  23.009  14.185   9.472
 1871POPC   GL126773  22.959  13.825   9.146
 1871POPC   GL226774  23.077  13.436   9.146
 1871POPC   C1A26775  23.226  13.750   8.770
 1871POPC   D2A26776  23.337  13.932   8.368
 1871POPC   C3A26777  22.988  13.826   8.132
 1871POPC   C4A26778  22.733  13.538   7.897
 1871POPC   C1B26779  23.013  13.197   8.782
 1871POPC   C2B26780  23.011  13.355   8.363
 1871POPC   C3B26781  23.069  13.151   7.989
 1871POPC   C4B26782  22.958  13.061   7.627
 1872POPC   NC326783  43.872  35.519   9.533
 1872POPC   PO426784  44.047  34.917   9.524
 1872POPC   GL126785  43.962  35.240   9.139
 1872POPC   GL226786  43.671  35.457   9.079
 1872POPC   C1A26787  44.060  35.402   8.745
 1872POPC   D2A26788  44.167  35.309   8.350
 1872POPC   C3A26789  43.954  35.267   8.013
 1872POPC   C4A26790  44.074  35.438   7.631
 1872POPC   C1B26791  43.520  35.334   8.704
 1872POPC   C2B26792  43.503  35.191   8.288
 1872POPC   C3B26793  43.469  35.365   7.860
 1872POPC   C4B26794  43.219  35.664   7.733
 1873POPC   NC326795  27.833  10.391   9.518
 1873POPC   PO426796  27.315  10.782   9.701
 1873POPC   GL126797  27.422  10.663   9.258
 1873POPC   GL226798  27.774  10.789   9.161
 1873POPC   C1A26799  27.448  10.312   8.948
 1873POPC   D2A26800  27.601  10.127   8.558
 1873POPC   C3A26801  27.443  10.324   8.167
 1873POPC   C4A26802  27.669  10.429   7.791
 1873POPC   C1B26803  27.541  10.789   8.758
 1873POPC   C2B26804  27.416  10.837   8.332
 1873POPC   C3B26805  27.643  10.901   7.951
 1873POPC   C4B26806  27.522  10.812   7.467
 1874POPC   NC326807   9.875   2.830   9.780
 1874POPC   PO426808   9.339   2.962   9.446
 1874POPC   GL126809   9.753   2.893   9.263
 1874POPC   GL226810   9.955   3.214   9.346
 1874POPC   C1A26811   9.893   2.586   8.929
 1874POPC   D2A26812  10.067   2.375   8.562
 1874POPC   C3A26813  10.047   2.659   8.223
 1874POPC   C4A26814   9.778   2.607   7.865
 1874POPC   C1B26815   9.997   3.111   8.862
 1874POPC   C2B26816   9.743   3.028   8.494
 1874POPC   C3B26817   9.496   2.932   8.125
 1874POPC   C4B26818   9.514   3.026   7.676
 1875POPC   NC326819  36.786  18.959   9.401
 1875POPC   PO426820  37.214  19.352   9.459
 1875POPC   GL126821  37.186  19.077   9.106
 1875POPC   GL226822  37.234  18.758   9.179
 1875POPC   C1A26823  36.899  19.062   8.776
 1875POPC   D2A26824  36.888  19.321   8.429
 1875POPC   C3A26825  36.620  19.210   8.117
 1875POPC   C4A26826  36.742  19.098   7.709
 1875POPC   C1B26827  37.171  18.629   8.738
 1875POPC   C2B26828  36.940  18.773   8.372
 1875POPC   C3B26829  37.068  18.968   8.061
 1875POPC   C4B26830  37.128  18.743   7.716
 1876POPC   NC326831   4.992  34.704   9.540
 1876POPC   PO426832   5.330  34.161   9.441
 1876POPC   GL126833   5.027  34.365   9.157
 1876POPC   GL226834   5.210  34.680   9.084
 1876POPC   C1A26835   5.039  34.455   8.694
 1876POPC   D2A26836   5.316  34.642   8.388
 1876POPC   C3A26837   5.195  34.452   7.985
 1876POPC   C4A26838   5.132  34.549   7.550
 1876POPC   C1B26839   4.964  34.935   8.710
 1876POPC   C2B26840   4.843  34.771   8.297
 1876POPC   C3B26841   5.004  34.947   7.904
 1876POPC   C4B26842   4.873  34.994   7.475
 1877POPC   NC326843  36.535  16.508   9.865
 1877POPC   PO426844  37.007  16.943   9.622
 1877POPC   GL126845  36.994  16.965   9.157
 1877POPC   GL226846  36.964  16.621   9.139
 1877POPC   C1A26847  36.964  16.857   8.700
 1877POPC   D2A26848  36.937  16.588   8.350
 1877POPC   C3A26849  36.849  16.827   8.002
 1877POPC   C4A26850  37.010  17.043   7.637
 1877POPC   C1B26851  36.663  16.420   8.811
 1877POPC   C2B26852  36.498  16.302   8.382
 1877POPC   C3B26853  36.564  16.403   7.929
 1877POPC   C4B26854  36.649  16.696   7.547
 1878POPC   NC326855  42.678  25.253   9.586
 1878POPC   PO426856  42.019  25.228   9.660
 1878POPC   GL126857  42.193  25.469   9.327
 1878POPC   GL226858  42.186  25.142   9.176
 1878POPC   C1A26859  42.286  25.582   8.884
 1878POPC   D2A26860  42.450  25.429   8.473
 1878POPC   C3A26861  42.155  25.475   8.137
 1878POPC   C4A26862  42.192  25.495   7.715
 1878POPC   C1B26863  42.460  25.074   8.880
 1878POPC   C2B26864  42.510  24.913   8.504
 1878POPC   C3B26865  42.260  24.968   8.154
 1878POPC   C4B26866  42.318  25.000   7.735
 1879POPC   NC326867  18.659  42.631   9.700
 1879POPC   PO426868  18.142  42.287   9.395
 1879POPC   GL126869  18.389  42.271   9.031
 1879POPC   GL226870  18.416  42.627   9.082
 1879POPC   C1A26871  18.437  42.009   8.633
 1879POPC   D2A26872  18.542  41.900   8.208
 1879POPC   C3A26873  18.195  41.977   7.933
 1879POPC   C4A26874  18.045  42.390   7.834
 1879POPC   C1B26875  18.114  42.528   8.700
 1879POPC   C2B26876  18.104  42.647   8.282
 1879POPC   C3B26877  18.469  42.630   8.052
 1879POPC   C4B26878  18.768  42.495   7.744
 1880POPC   NC326879  15.849  34.318   9.774
 1880POPC   PO426880  15.826  33.697   9.531
 1880POPC   GL126881  15.806  33.815   9.107
 1880POPC   GL226882  15.548  33.977   9.075
 1880POPC   C1A26883  15.872  33.972   8.678
 1880POPC   D2A26884  16.122  33.879   8.333
 1880POPC   C3A26885  16.055  34.016   7.937
 1880POPC   C4A26886  15.968  33.691   7.650
 1880POPC   C1B26887  15.356  34.054   8.759
 1880POPC   C2B26888  15.370  33.792   8.467
 1880POPC   C3B26889  15.631  33.880   8.191
 1880POPC   C4B26890  15.568  33.921   7.810
 1881POPC   NC326891  35.136  36.227   9.466
 1881POPC   PO426892  35.780  36.006   9.510
 1881POPC   GL126893  35.523  36.118   9.149
 1881POPC   GL226894  35.238  35.975   9.047
 1881POPC   C1A26895  35.538  36.275   8.742
 1881POPC   D2A26896  35.384  35.989   8.395
 1881POPC   C3A26897  35.408  36.141   8.000
 1881POPC   C4A26898  35.260  36.308   7.615
 1881POPC   C1B26899  35.036  36.203   8.701
 1881POPC   C2B26900  34.889  36.039   8.284
 1881POPC   C3B26901  34.946  35.931   7.850
 1881POPC   C4B26902  35.207  35.819   7.515
 1882POPC   NC326903  24.097  16.538   9.499
 1882POPC   PO426904  24.620  17.039   9.537
 1882POPC   GL126905  24.393  16.870   9.213
 1882POPC   GL226906  24.501  16.526   9.207
 1882POPC   C1A26907  24.512  16.789   8.789
 1882POPC   D2A26908  24.380  16.964   8.446
 1882POPC   C3A26909  24.349  16.734   8.077
 1882POPC   C4A26910  24.298  16.946   7.719
 1882POPC   C1B26911  24.679  16.307   8.871
 1882POPC   C2B26912  24.819  16.275   8.445
 1882POPC   C3B26913  24.779  16.349   8.000
 1882POPC   C4B26914  24.546  16.492   7.661
 1883POPC   NC326915  30.867   8.583   9.460
 1883POPC   PO426916  30.464   8.062   9.514
 1883POPC   GL126917  30.718   8.028   9.146
 1883POPC   GL226918  31.051   8.185   9.110
 1883POPC   C1A26919  30.629   7.981   8.723
 1883POPC   D2A26920  30.419   7.806   8.381
 1883POPC   C3A26921  30.541   8.012   7.991
 1883POPC   C4A26922  30.727   8.143   7.572
 1883POPC   C1B26923  30.867   8.434   8.782
 1883POPC   C2B26924  30.709   8.338   8.359
 1883POPC   C3B26925  30.887   8.409   7.966
 1883POPC   C4B26926  30.720   8.671   7.630
 1884POPC   NC326927  43.622  16.930   9.508
 1884POPC   PO426928  43.927  16.322   9.554
 1884POPC   GL126929  43.838  16.535   9.139
 1884POPC   GL226930  43.940  16.894   9.086
 1884POPC   C1A26931  43.761  16.661   8.698
 1884POPC   D2A26932  43.607  16.749   8.299
 1884POPC   C3A26933  43.883  16.696   7.979
 1884POPC   C4A26934  43.888  16.474   7.616
 1884POPC   C1B26935  44.145  17.099   8.729
 1884POPC   C2B26936  44.079  17.105   8.270
 1884POPC   C3B26937  44.161  17.117   7.837
 1884POPC   C4B26938  44.269  17.153   7.376
 1885POPC   NC326939  17.354  30.409   9.610
 1885POPC   PO426940  17.749  30.979   9.782
 1885POPC   GL126941  17.564  30.865   9.341
 1885POPC   GL226942  17.684  30.635   9.157
 1885POPC   C1A26943  17.274  30.784   8.910
 1885POPC   D2A26944  17.206  30.839   8.449
 1885POPC   C3A26945  17.307  30.643   8.047
 1885POPC   C4A26946  17.595  30.797   7.744
 1885POPC   C1B26947  17.577  30.377   8.798
 1885POPC   C2B26948  17.779  30.256   8.427
 1885POPC   C3B26949  17.744  30.352   7.999
 1885POPC   C4B26950  17.948  30.414   7.617
 1886POPC   NC326951  12.022  27.796   9.526
 1886POPC   PO426952  12.623  27.406   9.507
 1886POPC   GL126953  12.447  27.700   9.212
 1886POPC   GL226954  12.257  27.436   9.090
 1886POPC   C1A26955  12.235  27.876   8.827
 1886POPC   D2A26956  11.943  27.852   8.456
 1886POPC   C3A26957  11.992  27.569   8.113
 1886POPC   C4A26958  11.832  27.590   7.713
 1886POPC   C1B26959  12.119  27.386   8.665
 1886POPC   C2B26960  12.241  27.145   8.309
 1886POPC   C3B26961  12.450  27.284   7.919
 1886POPC   C4B26962  12.271  27.413   7.503
 1887POPC   NC326963  33.034   7.686   9.542
 1887POPC   PO426964  33.406   7.046   9.539
 1887POPC   GL126965  33.243   7.229   9.161
 1887POPC   GL226966  33.229   7.585   9.108
 1887POPC   C1A26967  33.028   7.225   8.762
 1887POPC   D2A26968  32.840   7.300   8.340
 1887POPC   C3A26969  33.033   7.174   7.961
 1887POPC   C4A26970  33.437   7.184   7.754
 1887POPC   C1B26971  32.983   7.770   8.799
 1887POPC   C2B26972  32.846   7.816   8.379
 1887POPC   C3B26973  32.844   7.656   7.959
 1887POPC   C4B26974  33.098   7.549   7.603
 1888POPC   NC326975  10.857   3.148   9.387
 1888POPC   PO426976  10.309   2.888   9.676
 1888POPC   GL126977  10.294   2.869   9.200
 1888POPC   GL226978  10.434   3.177   9.121
 1888POPC   C1A26979  10.392   2.755   8.756
 1888POPC   D2A26980  10.774   2.781   8.462
 1888POPC   C3A26981  10.645   2.731   8.018
 1888POPC   C4A26982  10.280   2.734   7.755
 1888POPC   C1B26983  10.618   3.217   8.707
 1888POPC   C2B26984  10.341   3.137   8.354
 1888POPC   C3B26985  10.394   3.209   7.912
 1888POPC   C4B26986  10.770   3.080   7.676
 1889POPC   NC326987   8.654  25.269   9.525
 1889POPC   PO426988   9.310  25.223   9.457
 1889POPC   GL126989   9.003  25.239   9.121
 1889POPC   GL226990   8.764  25.541   9.114
 1889POPC   C1A26991   9.073  25.407   8.706
 1889POPC   D2A26992   9.293  25.566   8.348
 1889POPC   C3A26993   9.104  25.346   8.027
 1889POPC   C4A26994   8.867  25.026   7.855
 1889POPC   C1B26995   8.560  25.443   8.716
 1889POPC   C2B26996   8.675  25.278   8.325
 1889POPC   C3B26997   8.615  25.491   7.923
 1889POPC   C4B26998   8.904  25.464   7.558
 1890POPC   NC326999  42.620  26.245   9.473
 1890POPC   PO427000  42.054  25.946   9.557
 1890POPC   GL127001  42.116  25.996   9.148
 1890POPC   GL227002  42.269  26.308   9.129
 1890POPC   C1A27003  42.011  26.146   8.754
 1890POPC   D2A27004  42.125  25.863   8.469
 1890POPC   C3A27005  42.137  26.037   8.093
 1890POPC   C4A27006  42.454  25.915   7.822
 1890POPC   C1B27007  42.520  26.079   8.791
 1890POPC   C2B27008  42.593  26.071   8.340
 1890POPC   C3B27009  42.831  26.222   7.984
 1890POPC   C4B27010  42.729  26.234   7.523
 1891POPC   NC327011  42.448  22.482   9.339
 1891POPC   PO427012  42.470  21.887   9.610
 1891POPC   GL127013  42.330  21.896   9.175
 1891POPC   GL227014  42.313  22.182   8.942
 1891POPC   C1A27015  42.327  21.724   8.756
 1891POPC   D2A27016  42.433  22.043   8.442
 1891POPC   C3A27017  42.254  22.031   8.034
 1891POPC   C4A27018  42.133  21.951   7.607
 1891POPC   C1B27019  42.427  22.522   8.674
 1891POPC   C2B27020  42.496  22.603   8.244
 1891POPC   C3B27021  42.479  22.454   7.846
 1891POPC   C4B27022  42.138  22.485   7.662
 1892POPC   NC327023  36.306  12.313   9.452
 1892POPC   PO427024  36.014  11.812   9.734
 1892POPC   GL127025  35.941  12.031   9.182
 1892POPC   GL227026  36.253  12.151   8.938
 1892POPC   C1A27027  35.835  12.173   8.687
 1892POPC   D2A27028  36.184  12.384   8.428
 1892POPC   C3A27029  36.174  12.383   7.966
 1892POPC   C4A27030  36.092  12.140   7.559
 1892POPC   C1B27031  36.235  11.833   8.660
 1892POPC   C2B27032  36.119  11.878   8.265
 1892POPC   C3B27033  36.343  11.891   7.933
 1892POPC   C4B27034  36.381  11.734   7.534
 1893POPC   NC327035   6.426  12.444   9.741
 1893POPC   PO427036   6.522  11.850   9.423
 1893POPC   GL127037   6.527  12.001   9.041
 1893POPC   GL227038   6.489  12.358   9.091
 1893POPC   C1A27039   6.552  12.078   8.640
 1893POPC   D2A27040   6.297  12.161   8.332
 1893POPC   C3A27041   6.485  12.050   8.003
 1893POPC   C4A27042   6.568  11.856   7.620
 1893POPC   C1B27043   6.842  12.458   8.817
 1893POPC   C2B27044   7.025  12.292   8.458
 1893POPC   C3B27045   6.993  12.450   8.048
 1893POPC   C4B27046   6.787  12.327   7.664
 1894POPC   NC327047  24.062  25.857   9.639
 1894POPC   PO427048  23.413  25.949   9.604
 1894POPC   GL127049  23.542  26.072   9.202
 1894POPC   GL227050  23.586  25.719   9.152
 1894POPC   C1A27051  23.693  26.116   8.775
 1894POPC   D2A27052  23.402  26.022   8.382
 1894POPC   C3A27053  23.498  26.159   7.946
 1894POPC   C4A27054  23.518  26.446   7.591
 1894POPC   C1B27055  23.612  25.630   8.702
 1894POPC   C2B27056  23.878  25.837   8.368
 1894POPC   C3B27057  23.890  25.810   7.923
 1894POPC   C4B27058  23.544  25.595   7.764
 1895POPC   NC327059  18.844  17.367   9.505
 1895POPC   PO427060  18.161  17.415   9.586
 1895POPC   GL127061  18.280  17.480   9.127
 1895POPC   GL227062  18.598  17.687   9.130
 1895POPC   C1A27063  18.299  17.507   8.645
 1895POPC   D2A27064  18.548  17.541   8.235
 1895POPC   C3A27065  18.282  17.428   7.840
 1895POPC   C4A27066  18.129  17.040   7.651
 1895POPC   C1B27067  18.511  17.951   8.773
 1895POPC   C2B27068  18.289  17.985   8.368
 1895POPC   C3B27069  18.395  17.927   7.930
 1895POPC   C4B27070  18.388  17.784   7.468
 1896POPC   NC327071  14.542  36.211   9.579
 1896POPC   PO427072  14.043  35.804   9.493
 1896POPC   GL127073  14.084  36.104   9.177
 1896POPC   GL227074  14.414  36.204   9.096
 1896POPC   C1A27075  14.127  35.951   8.765
 1896POPC   D2A27076  14.196  36.126   8.378
 1896POPC   C3A27077  14.250  35.857   8.036
 1896POPC   C4A27078  14.151  36.084   7.670
 1896POPC   C1B27079  14.591  36.182   8.700
 1896POPC   C2B27080  14.691  35.998   8.301
 1896POPC   C3B27081  14.632  36.161   7.877
 1896POPC   C4B27082  14.595  36.179   7.437
 1897POPC   NC327083  42.202  44.486   9.720
 1897POPC   PO427084  42.805  44.754   9.507
 1897POPC   GL127085  42.434  44.648   9.239
 1897POPC   GL227086  42.079  44.565   9.204
 1897POPC   C1A27087  42.367  44.733   8.787
 1897POPC   D2A27088  42.482  44.924   8.372
 1897POPC   C3A27089  42.630  44.851   7.915
 1897POPC   C4A27090  42.351  44.742   7.535
 1897POPC   C1B27091  41.985  44.384   8.793
 1897POPC   C2B27092  42.222  44.395   8.425
 1897POPC   C3B27093  42.180  44.556   8.019
 1897POPC   C4B27094  42.072  44.345   7.656
 1898POPC   NC327095  15.466  25.224   9.360
 1898POPC   PO427096  14.802  25.481   9.441
 1898POPC   GL127097  15.017  25.149   9.154
 1898POPC   GL227098  15.120  25.460   8.995
 1898POPC   C1A27099  15.250  25.053   8.745
 1898POPC   D2A27100  15.350  25.270   8.351
 1898POPC   C3A27101  15.377  25.083   7.985
 1898POPC   C4A27102  15.043  25.146   7.779
 1898POPC   C1B27103  15.517  25.530   8.762
 1898POPC   C2B27104  15.766  25.572   8.365
 1898POPC   C3B27105  15.659  25.522   7.937
 1898POPC   C4B27106  15.438  25.362   7.563
 1899POPC   NC327107  36.299   6.893   9.448
 1899POPC   PO427108  35.723   6.562   9.360
 1899POPC   GL127109  35.923   6.829   9.099
 1899POPC   GL227110  36.214   6.610   9.022
 1899POPC   C1A27111  36.109   7.053   8.760
 1899POPC   D2A27112  36.207   6.839   8.407
 1899POPC   C3A27113  35.976   6.808   8.021
 1899POPC   C4A27114  36.001   6.387   7.820
 1899POPC   C1B27115  36.588   6.473   8.806
 1899POPC   C2B27116  36.680   6.608   8.410
 1899POPC   C3B27117  36.474   6.564   8.015
 1899POPC   C4B27118  36.614   6.246   7.703
 1900POPC   NC327119  28.427  34.061   9.625
 1900POPC   PO427120  28.257  33.345   9.549
 1900POPC   GL127121  28.145  33.668   9.229
 1900POPC   GL227122  28.395  33.934   9.145
 1900POPC   C1A27123  28.041  33.846   8.802
 1900POPC   D2A27124  28.058  34.086   8.424
 1900POPC   C3A27125  28.281  33.865   8.109
 1900POPC   C4A27126  28.347  33.667   7.716
 1900POPC   C1B27127  28.517  34.006   8.730
 1900POPC   C2B27128  28.708  34.126   8.381
 1900POPC   C3B27129  28.631  34.223   7.998
 1900POPC   C4B27130  28.742  33.997   7.625
 1901POPC   NC327131  34.266  14.065   9.349
 1901POPC   PO427132  34.464  13.445   9.492
 1901POPC   GL127133  34.544  13.685   9.135
 1901POPC   GL227134  34.207  13.629   9.064
 1901POPC   C1A27135  34.455  13.900   8.716
 1901POPC   D2A27136  34.290  13.709   8.353
 1901POPC   C3A27137  34.491  13.763   7.968
 1901POPC   C4A27138  34.733  13.942   7.582
 1901POPC   C1B27139  34.112  13.354   8.706
 1901POPC   C2B27140  34.142  13.210   8.283
 1901POPC   C3B27141  34.239  13.328   7.875
 1901POPC   C4B27142  34.221  13.680   7.571
 1902POPC   NC327143  15.627  35.478   9.562
 1902POPC   PO427144  15.015  35.613   9.355
 1902POPC   GL127145  15.182  35.303   9.093
 1902POPC   GL227146  15.543  35.211   9.112
 1902POPC   C1A27147  15.084  35.196   8.668
 1902POPC   D2A27148  14.886  34.920   8.357
 1902POPC   C3A27149  14.837  35.107   7.931
 1902POPC   C4A27150  14.994  35.272   7.543
 1902POPC   C1B27151  15.526  35.523   8.777
 1902POPC   C2B27152  15.286  35.639   8.383
 1902POPC   C3B27153  15.264  35.512   7.941
 1902POPC   C4B27154  15.428  35.147   7.767
 1903POPC   NC327155   5.281  15.786   9.232
 1903POPC   PO427156   4.718  16.183   9.446
 1903POPC   GL127157   4.785  15.820   9.135
 1903POPC   GL227158   4.952  16.076   8.958
 1903POPC   C1A27159   4.908  15.658   8.683
 1903POPC   D2A27160   5.053  15.813   8.284
 1903POPC   C3A27161   5.002  15.727   7.864
 1903POPC   C4A27162   5.252  15.900   7.497
 1903POPC   C1B27163   4.760  16.146   8.554
 1903POPC   C2B27164   4.780  16.232   8.100
 1903POPC   C3B27165   4.890  16.205   7.665
 1903POPC   C4B27166   5.259  16.399   7.436
 1904POPC   NC327167  15.749  10.628   9.280
 1904POPC   PO427168  16.163  11.041   9.651
 1904POPC   GL127169  15.990  11.060   9.188
 1904POPC   GL227170  15.656  11.244   9.130
 1904POPC   C1A27171  15.913  11.126   8.715
 1904POPC   D2A27172  16.071  11.308   8.327
 1904POPC   C3A27173  15.798  11.263   7.945
 1904POPC   C4A27174  15.775  10.867   7.715
 1904POPC   C1B27175  15.717  11.584   8.736
 1904POPC   C2B27176  15.796  11.720   8.250
 1904POPC   C3B27177  16.144  11.629   7.901
 1904POPC   C4B27178  16.318  11.552   7.453
 1905POPC   NC327179  28.703  42.623   9.530
 1905POPC   PO427180  29.372  42.835   9.430
 1905POPC   GL127181  29.262  42.506   9.145
 1905POPC   GL227182  29.380  42.140   9.153
 1905POPC   C1A27183  29.133  42.388   8.753
 1905POPC   D2A27184  29.122  42.617   8.393
 1905POPC   C3A27185  28.954  42.451   8.014
 1905POPC   C4A27186  28.714  42.671   7.769
 1905POPC   C1B27187  29.262  41.900   8.744
 1905POPC   C2B27188  29.183  42.072   8.323
 1905POPC   C3B27189  29.452  42.376   8.102
 1905POPC   C4B27190  29.382  42.498   7.692
 1906POPC   NC327191  33.611   1.898   9.752
 1906POPC   PO427192  34.100   2.016   9.502
 1906POPC   GL127193  34.234   1.911   9.092
 1906POPC   GL227194  34.171   2.257   9.032
 1906POPC   C1A27195  34.144   1.595   8.756
 1906POPC   D2A27196  33.801   1.530   8.453
 1906POPC   C3A27197  33.885   1.628   8.017
 1906POPC   C4A27198  33.856   2.005   7.785
 1906POPC   C1B27199  33.872   2.034   8.756
 1906POPC   C2B27200  33.901   2.054   8.318
 1906POPC   C3B27201  33.930   2.428   8.073
 1906POPC   C4B27202  33.884   2.504   7.646
 1907POPC   NC327203  17.823  40.314   9.606
 1907POPC   PO427204  17.636  40.950   9.628
 1907POPC   GL127205  17.649  40.675   9.271
 1907POPC   GL227206  17.392  40.840   9.172
 1907POPC   C1A27207  17.736  40.739   8.793
 1907POPC   D2A27208  17.712  40.995   8.399
 1907POPC   C3A27209  17.711  40.764   8.030
 1907POPC   C4A27210  17.747  40.674   7.608
 1907POPC   C1B27211  17.312  40.473   8.904
 1907POPC   C2B27212  17.205  40.439   8.485
 1907POPC   C3B27213  17.342  40.400   8.089
 1907POPC   C4B27214  17.266  40.582   7.702
 1908POPC   NC327215  10.230   1.256   9.567
 1908POPC   PO427216   9.546   1.411   9.551
 1908POPC   GL127217   9.582   1.115   9.205
 1908POPC   GL227218   9.928   1.159   9.171
 1908POPC   C1A27219   9.597   1.096   8.744
 1908POPC   D2A27220   9.675   0.879   8.352
 1908POPC   C3A27221   9.445   1.001   8.020
 1908POPC   C4A27222   9.474   1.385   7.774
 1908POPC   C1B27223   9.973   1.441   8.854
 1908POPC   C2B27224  10.035   1.262   8.449
 1908POPC   C3B27225   9.921   1.290   8.040
 1908POPC   C4B27226  10.217   1.336   7.716
 1909POPC   NC327227  13.064   3.034   9.494
 1909POPC   PO427228  12.435   2.804   9.568
 1909POPC   GL127229  12.722   2.703   9.198
 1909POPC   GL227230  12.720   2.333   9.188
 1909POPC   C1A27231  12.886   2.797   8.758
 1909POPC   D2A27232  12.830   2.944   8.321
 1909POPC   C3A27233  12.868   2.696   7.946
 1909POPC   C4A27234  13.050   2.802   7.566
 1909POPC   C1B27235  12.490   2.439   8.811
 1909POPC   C2B27236  12.543   2.531   8.377
 1909POPC   C3B27237  12.445   2.383   7.945
 1909POPC   C4B27238  12.490   2.436   7.483
 1910POPC   NC327239  42.752  30.913   9.431
 1910POPC   PO427240  43.216  30.365   9.462
 1910POPC   GL127241  43.106  30.663   9.146
 1910POPC   GL227242  43.199  31.024   9.164
 1910POPC   C1A27243  43.203  30.726   8.729
 1910POPC   D2A27244  43.065  30.517   8.382
 1910POPC   C3A27245  43.219  30.721   8.073
 1910POPC   C4A27246  42.989  30.819   7.779
 1910POPC   C1B27247  42.889  31.116   8.797
 1910POPC   C2B27248  42.900  31.063   8.346
 1910POPC   C3B27249  42.622  31.099   7.980
 1910POPC   C4B27250  42.522  30.891   7.592
 1911POPC   NC327251  19.665  17.214   9.937
 1911POPC   PO427252  20.015  17.045   9.373
 1911POPC   GL127253  19.963  16.864   9.021
 1911POPC   GL227254  19.650  16.769   9.127
 1911POPC   C1A27255  20.074  16.659   8.642
 1911POPC   D2A27256  19.921  16.786   8.249
 1911POPC   C3A27257  20.019  16.708   7.830
 1911POPC   C4A27258  19.998  16.640   7.376
 1911POPC   C1B27259  19.579  16.784   8.689
 1911POPC   C2B27260  19.572  16.445   8.389
 1911POPC   C3B27261  19.566  16.493   7.941
 1911POPC   C4B27262  19.691  16.277   7.556
 1912POPC   NC327263   8.693  36.388   9.389
 1912POPC   PO427264   9.124  35.930   9.432
 1912POPC   GL127265   8.957  36.137   9.052
 1912POPC   GL227266   8.613  35.931   9.101
 1912POPC   C1A27267   9.074  36.381   8.659
 1912POPC   D2A27268   9.006  36.763   8.364
 1912POPC   C3A27269   9.105  36.597   7.943
 1912POPC   C4A27270   8.845  36.281   7.725
 1912POPC   C1B27271   8.619  36.077   8.675
 1912POPC   C2B27272   8.809  36.093   8.245
 1912POPC   C3B27273   8.713  35.816   7.875
 1912POPC   C4B27274   8.704  35.784   7.418
 1913POPC   NC327275  33.369  24.096   9.512
 1913POPC   PO427276  33.245  24.721   9.419
 1913POPC   GL127277  33.634  24.631   9.140
 1913POPC   GL227278  33.838  24.312   9.129
 1913POPC   C1A27279  33.698  24.679   8.684
 1913POPC   D2A27280  33.698  24.434   8.324
 1913POPC   C3A27281  33.609  24.531   7.913
 1913POPC   C4A27282  33.699  24.928   7.671
 1913POPC   C1B27283  34.036  24.276   8.707
 1913POPC   C2B27284  34.051  24.088   8.265
 1913POPC   C3B27285  34.098  24.278   7.824
 1913POPC   C4B27286  33.871  24.473   7.477
 1914POPC   NC327287  43.399  26.696   9.393
 1914POPC   PO427288  42.821  26.559   9.746
 1914POPC   GL127289  42.987  26.968   9.285
 1914POPC   GL227290  43.304  26.992   9.009
 1914POPC   C1A27291  42.856  26.936   8.806
 1914POPC   D2A27292  42.873  26.579   8.533
 1914POPC   C3A27293  43.109  26.653   8.167
 1914POPC   C4A27294  43.124  26.987   7.859
 1914POPC   C1B27295  43.533  26.695   8.735
 1914POPC   C2B27296  43.525  26.301   8.482
 1914POPC   C3B27297  43.495  26.337   8.019
 1914POPC   C4B27298  43.588  26.746   7.775
 1915POPC   NC327299  16.047  27.775   9.453
 1915POPC   PO427300  15.786  27.163   9.569
 1915POPC   GL127301  15.778  27.363   9.187
 1915POPC   GL227302  16.080  27.235   9.099
 1915POPC   C1A27303  15.919  27.647   8.834
 1915POPC   D2A27304  15.979  27.872   8.462
 1915POPC   C3A27305  15.857  27.589   8.163
 1915POPC   C4A27306  15.972  27.612   7.795
 1915POPC   C1B27307  16.361  27.367   8.797
 1915POPC   C2B27308  16.350  27.512   8.403
 1915POPC   C3B27309  16.358  27.359   8.013
 1915POPC   C4B27310  16.547  27.193   7.669
 1916POPC   NC327311  14.272   7.846   9.443
 1916POPC   PO427312  14.718   8.423   9.480
 1916POPC   GL127313  14.493   8.224   9.143
 1916POPC   GL227314  14.654   7.893   9.116
 1916POPC   C1A27315  14.346   8.189   8.697
 1916POPC   D2A27316  14.347   7.977   8.270
 1916POPC   C3A27317  14.487   8.192   7.887
 1916POPC   C4A27318  14.406   8.152   7.430
 1916POPC   C1B27319  14.614   7.741   8.720
 1916POPC   C2B27320  14.674   7.572   8.337
 1916POPC   C3B27321  14.849   7.768   7.978
 1916POPC   C4B27322  14.826   7.919   7.576
 1917POPC   NC327323  38.590  34.121   9.458
 1917POPC   PO427324  38.260  33.607   9.399
 1917POPC   GL127325  38.640  33.610   9.116
 1917POPC   GL227326  38.682  33.983   8.977
 1917POPC   C1A27327  38.714  33.550   8.653
 1917POPC   D2A27328  38.708  33.967   8.432
 1917POPC   C3A27329  38.506  34.027   8.032
 1917POPC   C4A27330  38.585  33.734   7.706
 1917POPC   C1B27331  38.292  33.835   8.784
 1917POPC   C2B27332  38.221  33.461   8.506
 1917POPC   C3B27333  38.239  33.565   8.063
 1917POPC   C4B27334  38.078  33.847   7.766
 1918POPC   NC327335  43.589  34.733   9.558
 1918POPC   PO427336  42.956  34.552   9.494
 1918POPC   GL127337  43.105  34.532   9.124
 1918POPC   GL227338  43.313  34.800   9.134
 1918POPC   C1A27339  42.941  34.512   8.736
 1918POPC   D2A27340  43.088  34.641   8.331
 1918POPC   C3A27341  42.879  34.357   8.046
 1918POPC   C4A27342  42.952  34.325   7.590
 1918POPC   C1B27343  43.432  34.620   8.728
 1918POPC   C2B27344  43.504  34.290   8.405
 1918POPC   C3B27345  43.398  34.372   7.972
 1918POPC   C4B27346  43.146  34.727   7.817
 1919POPC   NC327347  30.100  39.939   9.663
 1919POPC   PO427348  29.531  40.217   9.387
 1919POPC   GL127349  29.847  39.982   9.172
 1919POPC   GL227350  30.186  40.062   9.184
 1919POPC   C1A27351  29.911  39.910   8.749
 1919POPC   D2A27352  29.895  40.105   8.337
 1919POPC   C3A27353  29.815  39.725   8.091
 1919POPC   C4A27354  29.589  39.709   7.718
 1919POPC   C1B27355  30.341  40.350   8.890
 1919POPC   C2B27356  30.435  40.305   8.457
 1919POPC   C3B27357  30.310  40.293   8.031
 1919POPC   C4B27358  29.987  40.104   7.784
 1920POPC   NC327359  44.466  22.684   9.475
 1920POPC   PO427360  44.875  23.136   9.675
 1920POPC   GL127361  44.789  22.995   9.206
 1920POPC   GL227362  44.809  22.661   9.091
 1920POPC   C1A27363  44.525  22.972   8.773
 1920POPC   D2A27364  44.441  23.271   8.385
 1920POPC   C3A27365  44.704  23.194   8.023
 1920POPC   C4A27366  44.856  22.811   7.785
 1920POPC   C1B27367  44.462  22.418   8.873
 1920POPC   C2B27368  44.328  22.335   8.464
 1920POPC   C3B27369  44.436  22.518   8.040
 1920POPC   C4B27370  44.423  22.592   7.555
 1921POPC   NC327371  36.952   8.595   9.494
 1921POPC   PO427372  36.614   7.988   9.440
 1921POPC   GL127373  36.749   8.240   9.141
 1921POPC   GL227374  37.088   8.233   9.156
 1921POPC   C1A27375  36.818   8.056   8.750
 1921POPC   D2A27376  37.066   7.995   8.422
 1921POPC   C3A27377  36.820   8.018   8.032
 1921POPC   C4A27378  36.748   8.117   7.607
 1921POPC   C1B27379  37.210   8.485   8.809
 1921POPC   C2B27380  37.315   8.450   8.372
 1921POPC   C3B27381  37.124   8.440   7.918
 1921POPC   C4B27382  37.116   8.454   7.434
 1922POPC   NC327383  10.267  12.951   9.599
 1922POPC   PO427384  10.683  12.481   9.568
 1922POPC   GL127385  10.572  12.802   9.220
 1922POPC   GL227386  10.179  12.854   9.118
 1922POPC   C1A27387  10.562  12.592   8.854
 1922POPC   D2A27388  10.820  12.531   8.506
 1922POPC   C3A27389  10.759  12.793   8.157
 1922POPC   C4A27390  10.548  12.863   7.774
 1922POPC   C1B27391  10.346  13.075   8.789
 1922POPC   C2B27392  10.354  12.837   8.474
 1922POPC   C3B27393  10.218  12.777   8.141
 1922POPC   C4B27394  10.191  13.137   7.944
 1923POPC   NC327395  41.729  32.057   9.529
 1923POPC   PO427396  41.252  32.607   9.415
 1923POPC   GL127397  41.369  32.247   9.160
 1923POPC   GL227398  41.669  32.230   9.048
 1923POPC   C1A27399  41.410  31.943   8.737
 1923POPC   D2A27400  41.485  32.282   8.476
 1923POPC   C3A27401  41.417  32.461   8.080
 1923POPC   C4A27402  41.502  32.377   7.672
 1923POPC   C1B27403  41.909  32.403   8.746
 1923POPC   C2B27404  42.079  32.402   8.355
 1923POPC   C3B27405  41.929  32.362   7.962
 1923POPC   C4B27406  41.990  32.261   7.546
 1924POPC   NC327407   7.215  38.098   9.588
 1924POPC   PO427408   7.658  38.674   9.467
 1924POPC   GL127409   7.444  38.408   9.147
 1924POPC   GL227410   7.531  38.082   9.109
 1924POPC   C1A27411   7.445  38.322   8.690
 1924POPC   D2A27412   7.503  38.478   8.281
 1924POPC   C3A27413   7.666  38.371   7.929
 1924POPC   C4A27414   7.414  38.190   7.730
 1924POPC   C1B27415   7.764  37.936   8.737
 1924POPC   C2B27416   7.879  38.080   8.320
 1924POPC   C3B27417   7.815  37.879   7.917
 1924POPC   C4B27418   7.836  37.993   7.501
 1925POPC   NC327419  31.614  37.784   9.546
 1925POPC   PO427420  31.614  37.170   9.275
 1925POPC   GL127421  31.590  37.521   9.026
 1925POPC   GL227422  31.275  37.686   8.997
 1925POPC   C1A27423  31.559  37.507   8.597
 1925POPC   D2A27424  31.532  37.714   8.235
 1925POPC   C3A27425  31.566  37.446   7.902
 1925POPC   C4A27426  31.587  37.641   7.494
 1925POPC   C1B27427  31.288  37.985   8.614
 1925POPC   C2B27428  31.202  38.120   8.195
 1925POPC   C3B27429  31.271  37.908   7.813
 1925POPC   C4B27430  31.063  37.638   7.571
 1926POPC   NC327431  14.993  25.870   9.614
 1926POPC   PO427432  15.269  26.442   9.487
 1926POPC   GL127433  15.075  26.186   9.192
 1926POPC   GL227434  15.293  25.899   9.206
 1926POPC   C1A27435  14.833  26.321   8.792
 1926POPC   D2A27436  14.706  26.390   8.343
 1926POPC   C3A27437  14.998  26.170   8.085
 1926POPC   C4A27438  14.881  25.950   7.715
 1926POPC   C1B27439  15.241  25.973   8.760
 1926POPC   C2B27440  15.280  25.785   8.355
 1926POPC   C3B27441  15.174  25.621   7.953
 1926POPC   C4B27442  15.362  25.850   7.592
 1927POPC   NC327443  41.302  17.149   9.392
 1927POPC   PO427444  41.615  17.736   9.585
 1927POPC   GL127445  41.841  17.653   9.202
 1927POPC   GL227446  41.610  17.387   9.061
 1927POPC   C1A27447  41.850  17.676   8.723
 1927POPC   D2A27448  41.735  17.348   8.385
 1927POPC   C3A27449  41.798  17.445   7.932
 1927POPC   C4A27450  41.751  17.621   7.481
 1927POPC   C1B27451  41.200  17.363   8.803
 1927POPC   C2B27452  41.199  17.271   8.409
 1927POPC   C3B27453  41.249  17.177   8.021
 1927POPC   C4B27454  41.353  17.370   7.678
 1928POPC   NC327455  23.949   0.439   9.647
 1928POPC   PO427456  24.547   0.714   9.407
 1928POPC   GL127457  24.349   0.474   9.127
 1928POPC   GL227458  24.117   0.753   9.108
 1928POPC   C1A27459  24.530   0.338   8.724
 1928POPC   D2A27460  24.685   0.516   8.330
 1928POPC   C3A27461  24.491   0.420   7.948
 1928POPC   C4A27462  24.587   0.636   7.575
 1928POPC   C1B27463  24.268   0.778   8.699
 1928POPC   C2B27464  24.357   0.910   8.282
 1928POPC   C3B27465  24.205   0.844   7.850
 1928POPC   C4B27466  24.114   0.975   7.412
 1929POPC   NC327467  21.781  43.149   9.477
 1929POPC   PO427468  21.267  43.494   9.599
 1929POPC   GL127469  21.334  43.276   9.195
 1929POPC   GL227470  21.384  42.947   9.184
 1929POPC   C1A27471  21.454  43.242   8.736
 1929POPC   D2A27472  21.197  43.133   8.364
 1929POPC   C3A27473  21.417  43.282   7.975
 1929POPC   C4A27474  21.586  43.615   7.737
 1929POPC   C1B27475  21.052  42.967   8.861
 1929POPC   C2B27476  20.893  42.681   8.514
 1929POPC   C3B27477  21.016  42.713   8.071
 1929POPC   C4B27478  21.075  42.982   7.725
 1930POPC   NC327479  13.771  36.166   9.604
 1930POPC   PO427480  13.391  35.643   9.660
 1930POPC   GL127481  13.600  35.905   9.222
 1930POPC   GL227482  13.602  36.317   9.165
 1930POPC   C1A27483  13.520  36.000   8.779
 1930POPC   D2A27484  13.748  35.894   8.430
 1930POPC   C3A27485  13.765  36.075   8.025
 1930POPC   C4A27486  13.417  36.053   7.709
 1930POPC   C1B27487  13.850  36.394   8.799
 1930POPC   C2B27488  13.618  36.430   8.408
 1930POPC   C3B27489  13.470  36.491   7.979
 1930POPC   C4B27490  13.821  36.471   7.676
 1931POPC   NC327491  30.384  38.487   9.423
 1931POPC   PO427492  29.722  38.500   9.522
 1931POPC   GL127493  29.957  38.653   9.169
 1931POPC   GL227494  29.778  38.516   8.892
 1931POPC   C1A27495  30.080  38.901   8.806
 1931POPC   D2A27496  30.008  38.661   8.423
 1931POPC   C3A27497  29.956  38.848   7.996
 1931POPC   C4A27498  30.026  38.842   7.522
 1931POPC   C1B27499  30.109  38.200   8.764
 1931POPC   C2B27500  30.362  38.165   8.403
 1931POPC   C3B27501  30.138  38.336   8.050
 1931POPC   C4B27502  29.825  38.128   7.804
 1932POPC   NC327503  33.232   1.110   9.490
 1932POPC   PO427504  32.624   1.106   9.333
 1932POPC   GL127505  32.927   1.076   9.041
 1932POPC   GL227506  32.936   1.416   8.998
 1932POPC   C1A27507  33.115   1.123   8.613
 1932POPC   D2A27508  32.864   1.010   8.288
 1932POPC   C3A27509  32.938   1.155   7.902
 1932POPC   C4A27510  32.926   0.947   7.537
 1932POPC   C1B27511  32.635   1.279   8.664
 1932POPC   C2B27512  32.576   1.436   8.237
 1932POPC   C3B27513  32.469   1.303   7.786
 1932POPC   C4B27514  32.722   1.385   7.380
 1933POPC   NC327515   2.464  11.524   9.487
 1933POPC   PO427516   2.874  11.033   9.548
 1933POPC   GL127517   2.897  11.281   9.180
 1933POPC   GL227518   2.575  11.334   9.030
 1933POPC   C1A27519   3.070  11.468   8.813
 1933POPC   D2A27520   2.864  11.692   8.525
 1933POPC   C3A27521   2.891  11.442   8.140
 1933POPC   C4A27522   2.975  11.634   7.744
 1933POPC   C1B27523   2.670  11.223   8.613
 1933POPC   C2B27524   2.449  11.117   8.238
 1933POPC   C3B27525   2.455  11.321   7.829
 1933POPC   C4B27526   2.412  11.110   7.426
 1934POPC   NC327527   2.998  37.678   9.401
 1934POPC   PO427528   2.387  37.941   9.494
 1934POPC   GL127529   2.546  37.710   9.164
 1934POPC   GL227530   2.762  37.977   9.063
 1934POPC   C1A27531   2.618  37.478   8.797
 1934POPC   D2A27532   2.786  37.562   8.377
 1934POPC   C3A27533   2.635  37.365   7.992
 1934POPC   C4A27534   3.034  37.256   7.793
 1934POPC   C1B27535   2.883  38.163   8.684
 1934POPC   C2B27536   2.802  38.071   8.261
 1934POPC   C3B27537   2.816  37.836   7.895
 1934POPC   C4B27538   2.719  37.750   7.435
 1935POPC   NC327539  42.576   0.150   9.472
 1935POPC   PO427540  42.085   0.567   9.589
 1935POPC   GL127541  42.314   0.545   9.215
 1935POPC   GL227542  42.694   0.629   9.288
 1935POPC   C1A27543  42.270   0.256   8.829
 1935POPC   D2A27544  42.124   0.320   8.398
 1935POPC   C3A27545  42.368   0.277   8.029
 1935POPC   C4A27546  42.172   0.225   7.643
 1935POPC   C1B27547  42.602   0.664   8.827
 1935POPC   C2B27548  42.409   0.754   8.440
 1935POPC   C3B27549  42.560   0.760   8.046
 1935POPC   C4B27550  42.468   0.641   7.650
 1936POPC   NC327551  39.436  14.954   9.273
 1936POPC   PO427552  39.200  14.414   9.540
 1936POPC   GL127553  39.134  14.406   9.128
 1936POPC   GL227554  38.855  14.614   9.042
 1936POPC   C1A27555  39.343  14.193   8.782
 1936POPC   D2A27556  39.446  14.393   8.401
 1936POPC   C3A27557  39.248  14.352   8.029
 1936POPC   C4A27558  39.452  14.304   7.639
 1936POPC   C1B27559  38.989  14.540   8.641
 1936POPC   C2B27560  38.773  14.516   8.276
 1936POPC   C3B27561  38.828  14.590   7.857
 1936POPC   C4B27562  39.161  14.684   7.550
 1937POPC   NC327563  25.784  42.060   9.477
 1937POPC   PO427564  26.318  42.433   9.486
 1937POPC   GL127565  26.041  42.371   9.150
 1937POPC   GL227566  26.161  42.036   9.137
 1937POPC   C1A27567  25.986  42.396   8.688
 1937POPC   D2A27568  26.117  42.548   8.253
 1937POPC   C3A27569  25.820  42.456   7.921
 1937POPC   C4A27570  25.735  42.504   7.507
 1937POPC   C1B27571  26.456  42.204   8.871
 1937POPC   C2B27572  26.362  42.119   8.448
 1937POPC   C3B27573  26.010  42.049   8.181
 1937POPC   C4B27574  26.157  42.090   7.760
 1938POPC   NC327575   9.574  40.287   9.660
 1938POPC   PO427576   9.603  39.661   9.593
 1938POPC   GL127577   9.864  39.940   9.336
 1938POPC   GL227578  10.060  39.706   9.161
 1938POPC   C1A27579   9.868  40.166   8.924
 1938POPC   D2A27580  10.082  40.370   8.543
 1938POPC   C3A27581   9.821  40.359   8.153
 1938POPC   C4A27582   9.765  40.401   7.698
 1938POPC   C1B27583   9.664  39.658   8.939
 1938POPC   C2B27584   9.652  39.575   8.501
 1938POPC   C3B27585   9.750  39.730   8.083
 1938POPC   C4B27586   9.514  39.959   7.758
 1939POPC   NC327587  25.096  17.206   9.485
 1939POPC   PO427588  25.592  17.723   9.488
 1939POPC   GL127589  25.297  17.814   9.118
 1939POPC   GL227590  25.138  17.500   9.053
 1939POPC   C1A27591  25.266  17.752   8.618
 1939POPC   D2A27592  25.131  17.449   8.251
 1939POPC   C3A27593  25.489  17.334   7.953
 1939POPC   C4A27594  25.865  17.198   7.704
 1939POPC   C1B27595  24.802  17.649   8.763
 1939POPC   C2B27596  24.780  17.841   8.361
 1939POPC   C3B27597  24.813  17.684   7.921
 1939POPC   C4B27598  25.209  17.688   7.705
 1940POPC   NC327599  16.203  40.269   9.451
 1940POPC   PO427600  15.840  39.807   9.375
 1940POPC   GL127601  15.970  40.060   9.050
 1940POPC   GL227602  15.775  40.343   9.138
 1940POPC   C1A27603  15.951  39.943   8.632
 1940POPC   D2A27604  15.688  39.833   8.280
 1940POPC   C3A27605  15.996  39.870   7.965
 1940POPC   C4A27606  16.144  40.024   7.589
 1940POPC   C1B27607  15.548  40.245   8.763
 1940POPC   C2B27608  15.368  40.410   8.374
 1940POPC   C3B27609  15.426  40.187   7.986
 1940POPC   C4B27610  15.551  39.843   7.708
 1941POPC   NC327611   4.857  24.784   9.430
 1941POPC   PO427612   5.296  24.222   9.397
 1941POPC   GL127613   5.117  24.487   9.091
 1941POPC   GL227614   4.734  24.466   9.038
 1941POPC   C1A27615   5.073  24.567   8.671
 1941POPC   D2A27616   4.735  24.470   8.406
 1941POPC   C3A27617   4.947  24.419   8.061
 1941POPC   C4A27618   5.246  24.601   7.802
 1941POPC   C1B27619   4.713  24.904   8.810
 1941POPC   C2B27620   4.571  24.975   8.385
 1941POPC   C3B27621   4.742  24.924   7.945
 1941POPC   C4B27622   4.769  24.607   7.617
 1942POPC   NC327623  39.749  22.346   9.427
 1942POPC   PO427624  40.350  22.042   9.443
 1942POPC   GL127625  40.260  22.236   9.067
 1942POPC   GL227626  40.073  22.538   8.999
 1942POPC   C1A27627  40.190  22.175   8.643
 1942POPC   D2A27628  40.069  21.971   8.291
 1942POPC   C3A27629  40.228  22.265   8.019
 1942POPC   C4A27630  40.185  22.284   7.604
 1942POPC   C1B27631  39.736  22.450   8.709
 1942POPC   C2B27632  39.773  22.394   8.273
 1942POPC   C3B27633  39.729  22.316   7.856
 1942POPC   C4B27634  39.676  22.254   7.418
 1943POPC   NC327635  13.348  38.660   9.400
 1943POPC   PO427636  13.898  38.192   9.494
 1943POPC   GL127637  13.716  38.399   9.154
 1943POPC   GL227638  13.475  38.133   9.057
 1943POPC   C1A27639  13.724  38.719   8.802
 1943POPC   D2A27640  13.683  38.535   8.392
 1943POPC   C3A27641  13.564  38.667   7.979
 1943POPC   C4A27642  13.315  38.293   7.901
 1943POPC   C1B27643  13.329  38.389   8.760
 1943POPC   C2B27644  13.159  38.753   8.572
 1943POPC   C3B27645  13.085  38.788   8.133
 1943POPC   C4B27646  13.098  38.685   7.680
 1944POPC   NC327647  10.905  22.807   9.318
 1944POPC   PO427648  10.368  23.157   9.501
 1944POPC   GL127649  10.452  23.010   9.120
 1944POPC   GL227650  10.476  22.656   9.081
 1944POPC   C1A27651  10.546  23.132   8.729
 1944POPC   D2A27652  10.330  22.965   8.396
 1944POPC   C3A27653  10.335  23.123   8.024
 1944POPC   C4A27654  10.620  23.230   7.743
 1944POPC   C1B27655  10.291  22.546   8.695
 1944POPC   C2B27656  10.454  22.475   8.293
 1944POPC   C3B27657  10.513  22.674   7.907
 1944POPC   C4B27658  10.193  22.467   7.631
 1945POPC   NC327659   2.579  18.799   9.599
 1945POPC   PO427660   3.091  19.169   9.552
 1945POPC   GL127661   2.859  19.045   9.182
 1945POPC   GL227662   2.551  19.157   9.107
 1945POPC   C1A27663   2.938  19.204   8.738
 1945POPC   D2A27664   2.927  19.022   8.328
 1945POPC   C3A27665   2.997  19.228   7.898
 1945POPC   C4A27666   3.017  19.035   7.445
 1945POPC   C1B27667   2.302  19.118   8.731
 1945POPC   C2B27668   2.418  18.885   8.353
 1945POPC   C3B27669   2.554  18.998   7.959
 1945POPC   C4B27670   2.576  19.240   7.570
 1946POPC   NC327671   4.922   2.669   9.541
 1946POPC   PO427672   5.461   3.031   9.519
 1946POPC   GL127673   5.391   2.796   9.115
 1946POPC   GL227674   5.259   2.443   9.180
 1946POPC   C1A27675   5.200   2.828   8.708
 1946POPC   D2A27676   4.932   2.795   8.338
 1946POPC   C3A27677   5.027   2.964   7.937
 1946POPC   C4A27678   5.261   2.841   7.563
 1946POPC   C1B27679   5.248   2.304   8.760
 1946POPC   C2B27680   5.359   2.499   8.350
 1946POPC   C3B27681   5.208   2.482   7.947
 1946POPC   C4B27682   5.121   2.093   7.839
 1947POPC   NC327683  20.000  26.318   9.542
 1947POPC   PO427684  19.702  25.651   9.446
 1947POPC   GL127685  19.728  26.026   9.213
 1947POPC   GL227686  20.035  26.192   9.061
 1947POPC   C1A27687  19.557  26.116   8.828
 1947POPC   D2A27688  19.707  25.958   8.457
 1947POPC   C3A27689  19.449  25.855   8.126
 1947POPC   C4A27690  19.498  26.103   7.803
 1947POPC   C1B27691  19.939  26.396   8.684
 1947POPC   C2B27692  20.035  26.529   8.297
 1947POPC   C3B27693  19.952  26.245   7.985
 1947POPC   C4B27694  20.161  26.272   7.636
 1948POPC   NC327695  11.466  28.300   9.578
 1948POPC   PO427696  10.728  28.222   9.597
 1948POPC   GL127697  11.033  28.296   9.252
 1948POPC   GL227698  11.192  28.004   9.218
 1948POPC   C1A27699  11.109  28.557   8.849
 1948POPC   D2A27700  11.050  28.420   8.402
 1948POPC   C3A27701  11.302  28.621   8.052
 1948POPC   C4A27702  11.613  28.460   7.724
 1948POPC   C1B27703  11.015  28.051   8.794
 1948POPC   C2B27704  10.845  27.925   8.396
 1948POPC   C3B27705  11.003  27.956   7.987
 1948POPC   C4B27706  11.134  28.271   7.704
 1949POPC   NC327707   9.578   0.504   9.467
 1949POPC   PO427708  10.159   0.804   9.480
 1949POPC   GL127709   9.950   0.652   9.142
 1949POPC   GL227710   9.973   0.294   9.201
 1949POPC   C1A27711   9.741   0.585   8.776
 1949POPC   D2A27712   9.807   0.388   8.380
 1949POPC   C3A27713   9.931   0.592   7.987
 1949POPC   C4A27714   9.880   0.504   7.540
 1949POPC   C1B27715   9.971   0.101   8.809
 1949POPC   C2B27716  10.105  44.942   8.436
 1949POPC   C3B27717  10.015   0.080   8.046
 1949POPC   C4B27718   9.733  44.975   7.771
 1950POPC   NC327719  15.703  38.622   9.417
 1950POPC   PO427720  16.327  38.545   9.620
 1950POPC   GL127721  16.090  38.403   9.172
 1950POPC   GL227722  15.722  38.270   9.056
 1950POPC   C1A27723  16.088  38.481   8.696
 1950POPC   D2A27724  16.391  38.440   8.345
 1950POPC   C3A27725  16.234  38.476   7.894
 1950POPC   C4A27726  16.195  38.574   7.414
 1950POPC   C1B27727  15.440  38.521   8.746
 1950POPC   C2B27728  15.528  38.781   8.360
 1950POPC   C3B27729  15.800  38.709   8.027
 1950POPC   C4B27730  15.759  38.357   7.729
 1951POPC   NC327731  30.640  24.235   9.965
 1951POPC   PO427732  30.899  24.572   9.468
 1951POPC   GL127733  30.649  24.298   9.239
 1951POPC   GL227734  30.663  24.564   9.029
 1951POPC   C1A27735  30.763  24.110   8.830
 1951POPC   D2A27736  30.732  24.297   8.429
 1951POPC   C3A27737  30.847  24.105   8.073
 1951POPC   C4A27738  30.956  24.260   7.702
 1951POPC   C1B27739  30.804  24.741   8.678
 1951POPC   C2B27740  30.566  24.802   8.358
 1951POPC   C3B27741  30.661  24.598   8.009
 1951POPC   C4B27742  30.533  24.546   7.614
 1952POPC   NC327743  26.932  42.717   9.544
 1952POPC   PO427744  27.050  42.011   9.569
 1952POPC   GL127745  26.931  42.318   9.169
 1952POPC   GL227746  27.074  42.659   9.054
 1952POPC   C1A27747  26.853  42.438   8.673
 1952POPC   D2A27748  26.867  42.096   8.385
 1952POPC   C3A27749  26.648  42.076   8.009
 1952POPC   C4A27750  26.556  42.432   7.759
 1952POPC   C1B27751  27.351  42.734   8.717
 1952POPC   C2B27752  27.299  42.884   8.284
 1952POPC   C3B27753  26.984  42.712   8.001
 1952POPC   C4B27754  27.029  42.538   7.584
 1953POPC   NC327755  17.147  22.019   9.425
 1953POPC   PO427756  17.512  21.387   9.574
 1953POPC   GL127757  17.378  21.605   9.207
 1953POPC   GL227758  17.239  21.319   9.006
 1953POPC   C1A27759  17.556  21.673   8.806
 1953POPC   D2A27760  17.473  21.339   8.501
 1953POPC   C3A27761  17.464  21.462   8.063
 1953POPC   C4A27762  17.659  21.322   7.695
 1953POPC   C1B27763  17.076  21.658   8.684
 1953POPC   C2B27764  17.198  21.860   8.304
 1953POPC   C3B27765  17.063  21.744   7.881
 1953POPC   C4B27766  17.361  21.708   7.554
 1954POPC   NC327767  24.290  28.736   9.614
 1954POPC   PO427768  24.722  28.210   9.559
 1954POPC   GL127769  24.600  28.197   9.143
 1954POPC   GL227770  24.546  28.570   9.116
 1954POPC   C1A27771  24.677  28.248   8.697
 1954POPC   D2A27772  24.399  28.241   8.349
 1954POPC   C3A27773  24.598  28.137   7.992
 1954POPC   C4A27774  24.365  28.240   7.652
 1954POPC   C1B27775  24.369  28.658   8.702
 1954POPC   C2B27776  24.624  28.687   8.332
 1954POPC   C3B27777  24.523  28.645   7.903
 1954POPC   C4B27778  24.652  28.686   7.479
 1955POPC   NC327779  40.256  33.135   9.461
 1955POPC   PO427780  39.771  32.674   9.404
 1955POPC   GL127781  39.809  33.031   9.155
 1955POPC   GL227782  40.139  33.119   8.968
 1955POPC   C1A27783  39.672  33.099   8.765
 1955POPC   D2A27784  39.959  32.939   8.468
 1955POPC   C3A27785  39.827  32.927   8.044
 1955POPC   C4A27786  40.095  33.003   7.708
 1955POPC   C1B27787  40.021  33.442   8.672
 1955POPC   C2B27788  39.730  33.388   8.320
 1955POPC   C3B27789  39.850  33.434   7.891
 1955POPC   C4B27790  39.705  33.314   7.506
 1956POPC   NC327791   1.230  17.220   9.440
 1956POPC   PO427792   0.877  17.866   9.503
 1956POPC   GL127793   1.006  17.626   9.173
 1956POPC   GL227794   1.378  17.634   9.137
 1956POPC   C1A27795   1.039  17.756   8.766
 1956POPC   D2A27796   1.218  17.794   8.401
 1956POPC   C3A27797   1.053  17.765   8.021
 1956POPC   C4A27798   1.463  17.738   7.803
 1956POPC   C1B27799   1.302  17.308   8.814
 1956POPC   C2B27800   1.103  17.293   8.438
 1956POPC   C3B27801   1.281  17.307   8.062
 1956POPC   C4B27802   1.451  17.235   7.684
 1957POPC   NC327803   6.823   2.743   9.674
 1957POPC   PO427804   7.532   2.830   9.528
 1957POPC   GL127805   7.406   2.998   9.145
 1957POPC   GL227806   7.746   3.166   9.166
 1957POPC   C1A27807   7.228   2.890   8.739
 1957POPC   D2A27808   7.434   2.797   8.349
 1957POPC   C3A27809   7.288   2.754   7.930
 1957POPC   C4A27810   7.622   2.515   7.761
 1957POPC   C1B27811   7.701   3.061   8.735
 1957POPC   C2B27812   7.363   3.303   8.502
 1957POPC   C3B27813   7.368   3.240   8.103
 1957POPC   C4B27814   7.706   3.050   7.885
 1958POPC   NC327815  39.472  31.314   9.367
 1958POPC   PO427816  38.910  31.715   9.590
 1958POPC   GL127817  39.175  31.675   9.214
 1958POPC   GL227818  39.010  31.401   9.142
 1958POPC   C1A27819  39.412  31.580   8.791
 1958POPC   D2A27820  39.243  31.712   8.399
 1958POPC   C3A27821  39.406  31.685   7.969
 1958POPC   C4A27822  39.139  31.663   7.561
 1958POPC   C1B27823  38.962  31.350   8.715
 1958POPC   C2B27824  39.205  31.208   8.358
 1958POPC   C3B27825  39.236  31.221   7.926
 1958POPC   C4B27826  39.035  31.175   7.572
 1959POPC   NC327827  37.793  36.682   9.332
 1959POPC   PO427828  37.687  37.338   9.249
 1959POPC   GL127829  37.565  37.095   8.937
 1959POPC   GL227830  37.386  36.835   9.067
 1959POPC   C1A27831  37.699  37.101   8.531
 1959POPC   D2A27832  38.064  37.109   8.282
 1959POPC   C3A27833  37.961  36.800   7.977
 1959POPC   C4A27834  37.621  36.862   7.716
 1959POPC   C1B27835  37.425  36.654   8.660
 1959POPC   C2B27836  37.453  36.724   8.219
 1959POPC   C3B27837  37.261  36.535   7.867
 1959POPC   C4B27838  37.424  36.456   7.441
 1960POPC   NC327839  14.591  41.092   9.590
 1960POPC   PO427840  14.199  40.531   9.537
 1960POPC   GL127841  14.415  40.520   9.149
 1960POPC   GL227842  14.362  40.850   9.117
 1960POPC   C1A27843  14.508  40.372   8.742
 1960POPC   D2A27844  14.292  40.488   8.388
 1960POPC   C3A27845  14.461  40.763   8.112
 1960POPC   C4A27846  14.501  40.836   7.711
 1960POPC   C1B27847  14.456  40.899   8.671
 1960POPC   C2B27848  14.633  41.177   8.342
 1960POPC   C3B27849  14.859  41.118   7.964
 1960POPC   C4B27850  14.999  40.962   7.572
 1961POPC   NC327851  37.713  28.809   9.330
 1961POPC   PO427852  37.728  29.423   9.564
 1961POPC   GL127853  37.809  29.268   9.162
 1961POPC   GL227854  37.525  29.206   9.076
 1961POPC   C1A27855  37.730  28.929   8.724
 1961POPC   D2A27856  37.553  28.863   8.333
 1961POPC   C3A27857  37.809  28.961   7.996
 1961POPC   C4A27858  37.648  29.050   7.599
 1961POPC   C1B27859  37.584  29.463   8.754
 1961POPC   C2B27860  37.400  29.420   8.419
 1961POPC   C3B27861  37.459  29.315   8.054
 1961POPC   C4B27862  37.218  29.304   7.733
 1962POPC   NC327863  44.290  33.871   9.520
 1962POPC   PO427864  44.978  33.874   9.490
 1962POPC   GL127865  44.644  33.752   9.178
 1962POPC   GL227866  44.375  33.479   9.203
 1962POPC   C1A27867  44.654  33.928   8.765
 1962POPC   D2A27868  44.583  34.111   8.367
 1962POPC   C3A27869  44.685  33.914   8.002
 1962POPC   C4A27870   0.030  33.744   7.791
 1962POPC   C1B27871  44.521  33.429   8.785
 1962POPC   C2B27872  44.708  33.553   8.394
 1962POPC   C3B27873  44.636  33.387   7.991
 1962POPC   C4B27874  44.568  33.546   7.580
 1963POPC   NC327875   9.914  41.895   9.598
 1963POPC   PO427876   9.892  42.668   9.598
 1963POPC   GL127877   9.933  42.428   9.184
 1963POPC   GL227878   9.756  42.116   9.165
 1963POPC   C1A27879   9.800  42.421   8.708
 1963POPC   D2A27880   9.918  42.552   8.260
 1963POPC   C3A27881   9.926  42.378   7.811
 1963POPC   C4A27882   9.955  42.640   7.418
 1963POPC   C1B27883   9.633  41.933   8.763
 1963POPC   C2B27884   9.624  42.095   8.332
 1963POPC   C3B27885   9.435  42.258   7.946
 1963POPC   C4B27886   9.578  42.046   7.621
 1964POPC   NC327887  13.799  28.117   9.477
 1964POPC   PO427888  13.419  28.742   9.279
 1964POPC   GL127889  13.762  28.518   9.138
 1964POPC   GL227890  13.546  28.250   9.072
 1964POPC   C1A27891  13.880  28.472   8.745
 1964POPC   D2A27892  13.729  28.724   8.392
 1964POPC   C3A27893  13.809  28.465   8.080
 1964POPC   C4A27894  14.062  28.461   7.755
 1964POPC   C1B27895  13.490  28.083   8.683
 1964POPC   C2B27896  13.374  28.160   8.292
 1964POPC   C3B27897  13.291  28.534   8.116
 1964POPC   C4B27898  13.321  28.448   7.734
 1965POPC   NC327899   3.458  25.864   9.464
 1965POPC   PO427900   3.511  26.557   9.322
 1965POPC   GL127901   3.602  26.188   9.109
 1965POPC   GL227902   3.237  26.049   9.062
 1965POPC   C1A27903   3.744  25.908   8.802
 1965POPC   D2A27904   3.663  26.094   8.430
 1965POPC   C3A27905   3.755  25.983   8.032
 1965POPC   C4A27906   3.841  25.688   7.725
 1965POPC   C1B27907   3.198  26.066   8.638
 1965POPC   C2B27908   3.282  25.827   8.255
 1965POPC   C3B27909   3.298  25.797   7.805
 1965POPC   C4B27910   3.099  25.652   7.420
 1966POPC   NC327911  29.715  18.474   9.577
 1966POPC   PO427912  29.832  19.154   9.543
 1966POPC   GL127913  30.039  19.140   9.123
 1966POPC   GL227914  30.138  18.761   9.096
 1966POPC   C1A27915  29.997  19.324   8.706
 1966POPC   D2A27916  29.953  19.501   8.297
 1966POPC   C3A27917  30.052  19.289   7.889
 1966POPC   C4A27918  29.941  19.227   7.449
 1966POPC   C1B27919  29.904  18.828   8.704
 1966POPC   C2B27920  29.924  18.946   8.246
 1966POPC   C3B27921  29.747  18.880   7.808
 1966POPC   C4B27922  29.419  18.782   7.495
 1967POPC   NC327923  44.268  40.771   9.594
 1967POPC   PO427924  44.893  41.121   9.500
 1967POPC   GL127925  44.701  40.945   9.114
 1967POPC   GL227926  44.538  40.601   9.154
 1967POPC   C1A27927  44.841  40.757   8.732
 1967POPC   D2A27928  44.654  40.781   8.333
 1967POPC   C3A27929  44.892  40.722   7.954
 1967POPC   C4A27930  44.787  40.692   7.510
 1967POPC   C1B27931  44.470  40.413   8.737
 1967POPC   C2B27932  44.553  40.273   8.313
 1967POPC   C3B27933  44.451  40.487   7.959
 1967POPC   C4B27934  44.357  40.359   7.570
 1968POPC   NC327935  36.016   5.473   9.591
 1968POPC   PO427936  35.967   4.865   9.646
 1968POPC   GL127937  35.977   4.982   9.205
 1968POPC   GL227938  36.140   5.291   9.144
 1968POPC   C1A27939  36.010   5.027   8.743
 1968POPC   D2A27940  35.764   5.035   8.379
 1968POPC   C3A27941  35.878   4.898   7.972
 1968POPC   C4A27942  35.951   4.940   7.548
 1968POPC   C1B27943  36.463   5.456   8.865
 1968POPC   C2B27944  36.437   5.662   8.448
 1968POPC   C3B27945  36.183   5.521   8.078
 1968POPC   C4B27946  36.224   5.340   7.663
 1969POPC   NC327947  36.201  18.468   9.506
 1969POPC   PO427948  36.655  17.859   9.428
 1969POPC   GL127949  36.456  18.186   9.104
 1969POPC   GL227950  36.084  18.252   9.066
 1969POPC   C1A27951  36.357  18.147   8.671
 1969POPC   D2A27952  36.195  17.993   8.316
 1969POPC   C3A27953  36.451  18.146   8.022
 1969POPC   C4A27954  36.347  18.147   7.614
 1969POPC   C1B27955  35.848  18.192   8.698
 1969POPC   C2B27956  35.735  18.263   8.283
 1969POPC   C3B27957  35.950  18.275   7.911
 1969POPC   C4B27958  35.937  18.465   7.505
 1970POPC   NC327959  41.366  40.296   9.962
 1970POPC   PO427960  41.810  39.839   9.813
 1970POPC   GL127961  41.704  39.874   9.329
 1970POPC   GL227962  42.004  39.721   9.206
 1970POPC   C1A27963  41.472  40.084   8.951
 1970POPC   D2A27964  41.416  39.949   8.490
 1970POPC   C3A27965  41.529  40.184   8.089
 1970POPC   C4A27966  41.303  40.311   7.715
 1970POPC   C1B27967  41.861  39.794   8.779
 1970POPC   C2B27968  41.737  39.551   8.422
 1970POPC   C3B27969  41.595  39.650   8.003
 1970POPC   C4B27970  41.806  39.942   7.691
 1971POPC   NC327971  24.456   5.095   9.580
 1971POPC   PO427972  24.172   4.485   9.392
 1971POPC   GL127973  24.359   4.797   9.053
 1971POPC   GL227974  24.519   5.149   9.088
 1971POPC   C1A27975  24.234   5.078   8.691
 1971POPC   D2A27976  24.209   5.469   8.402
 1971POPC   C3A27977  24.171   5.314   7.955
 1971POPC   C4A27978  24.269   4.918   7.769
 1971POPC   C1B27979  24.634   5.369   8.698
 1971POPC   C2B27980  24.590   5.148   8.279
 1971POPC   C3B27981  24.652   5.338   7.878
 1971POPC   C4B27982  24.628   5.295   7.433
 1972POPC   NC327983  25.155   8.600   9.469
 1972POPC   PO427984  25.489   9.179   9.347
 1972POPC   GL127985  25.347   8.884   9.097
 1972POPC   GL227986  24.999   8.988   9.110
 1972POPC   C1A27987  25.202   8.690   8.743
 1972POPC   D2A27988  25.263   8.639   8.342
 1972POPC   C3A27989  25.195   9.009   8.109
 1972POPC   C4A27990  25.017   8.967   7.717
 1972POPC   C1B27991  25.163   9.203   8.719
 1972POPC   C2B27992  25.171   9.492   8.355
 1972POPC   C3B27993  25.012   9.499   7.965
 1972POPC   C4B27994  25.316   9.364   7.696
 1973POPC   NC327995  42.561  34.764   9.531
 1973POPC   PO427996  41.945  34.502   9.435
 1973POPC   GL127997  42.265  34.667   9.145
 1973POPC   GL227998  42.566  34.420   9.110
 1973POPC   C1A27999  42.542  34.836   8.816
 1973POPC   D2A28000  42.577  34.636   8.397
 1973POPC   C3A28001  42.672  34.844   8.042
 1973POPC   C4A28002  42.587  34.768   7.642
 1973POPC   C1B28003  42.257  34.404   8.733
 1973POPC   C2B28004  42.144  34.348   8.321
 1973POPC   C3B28005  42.364  34.419   7.936
 1973POPC   C4B28006  42.158  34.451   7.530
 1974POPC   NC328007  42.717  19.913   9.458
 1974POPC   PO428008  43.169  19.579   9.677
 1974POPC   GL128009  43.104  19.671   9.217
 1974POPC   GL228010  43.159  20.033   9.152
 1974POPC   C1A28011  42.806  19.645   8.839
 1974POPC   D2A28012  42.573  19.786   8.482
 1974POPC   C3A28013  42.903  19.782   8.173
 1974POPC   C4A28014  42.977  19.667   7.741
 1974POPC   C1B28015  43.132  20.029   8.706
 1974POPC   C2B28016  43.391  19.796   8.401
 1974POPC   C3B28017  43.391  19.561   8.019
 1974POPC   C4B28018  43.420  19.935   7.798
 1975POPC   NC328019  29.544  21.139   9.858
 1975POPC   PO428020  28.968  21.044   9.513
 1975POPC   GL128021  29.099  21.081   9.037
 1975POPC   GL228022  29.460  21.253   9.037
 1975POPC   C1A28023  28.972  21.152   8.621
 1975POPC   D2A28024  29.037  21.556   8.418
 1975POPC   C3A28025  29.127  21.622   7.981
 1975POPC   C4A28026  29.512  21.797   7.886
 1975POPC   C1B28027  29.474  21.172   8.605
 1975POPC   C2B28028  29.281  21.157   8.190
 1975POPC   C3B28029  29.395  21.258   7.751
 1975POPC   C4B28030  29.369  21.054   7.362
 1976POPC   NC328031  23.538   3.251   9.522
 1976POPC   PO428032  23.745   2.552   9.372
 1976POPC   GL128033  23.613   2.886   9.152
 1976POPC   GL228034  23.946   3.028   9.244
 1976POPC   C1A28035  23.547   2.765   8.736
 1976POPC   D2A28036  23.614   2.505   8.375
 1976POPC   C3A28037  23.767   2.655   7.974
 1976POPC   C4A28038  23.714   2.821   7.550
 1976POPC   C1B28039  24.019   2.962   8.801
 1976POPC   C2B28040  23.793   3.048   8.394
 1976POPC   C3B28041  23.877   3.148   7.980
 1976POPC   C4B28042  23.998   3.256   7.610
 1977POPC   NC328043  42.478  12.450   9.554
 1977POPC   PO428044  42.032  13.025   9.487
 1977POPC   GL128045  42.180  12.705   9.195
 1977POPC   GL228046  42.555  12.741   9.134
 1977POPC   C1A28047  42.190  12.779   8.743
 1977POPC   D2A28048  42.165  13.075   8.391
 1977POPC   C3A28049  42.265  12.867   8.008
 1977POPC   C4A28050  42.449  13.030   7.653
 1977POPC   C1B28051  42.687  12.532   8.748
 1977POPC   C2B28052  42.709  12.351   8.329
 1977POPC   C3B28053  42.605  12.432   7.896
 1977POPC   C4B28054  42.693  12.426   7.466
 1978POPC   NC328055  23.577   4.919   9.479
 1978POPC   PO428056  24.095   5.391   9.499
 1978POPC   GL128057  23.922   5.145   9.130
 1978POPC   GL228058  23.832   4.778   9.074
 1978POPC   C1A28059  23.731   5.127   8.714
 1978POPC   D2A28060  23.901   5.093   8.314
 1978POPC   C3A28061  23.697   5.110   7.950
 1978POPC   C4A28062  23.293   4.958   7.869
 1978POPC   C1B28063  23.502   4.678   8.732
 1978POPC   C2B28064  23.549   4.734   8.296
 1978POPC   C3B28065  23.653   4.604   7.887
 1978POPC   C4B28066  23.475   4.554   7.494
 1979POPC   NC328067  22.823   5.635   9.468
 1979POPC   PO428068  23.369   6.077   9.727
 1979POPC   GL128069  23.243   5.934   9.252
 1979POPC   GL228070  22.894   5.871   9.037
 1979POPC   C1A28071  23.318   5.937   8.786
 1979POPC   D2A28072  23.118   6.138   8.434
 1979POPC   C3A28073  22.796   5.970   8.171
 1979POPC   C4A28074  23.004   5.849   7.821
 1979POPC   C1B28075  22.893   5.677   8.635
 1979POPC   C2B28076  22.914   5.377   8.304
 1979POPC   C3B28077  22.600   5.393   8.024
 1979POPC   C4B28078  22.575   5.633   7.681
 1980POPC   NC328079   0.230  44.848   9.389
 1980POPC   PO428080   0.676  44.524   9.730
 1980POPC   GL128081   0.563  44.422   9.272
 1980POPC   GL228082   0.187  44.388   9.171
 1980POPC   C1A28083   0.640  44.302   8.854
 1980POPC   D2A28084   0.651  44.450   8.455
 1980POPC   C3A28085   0.644  44.562   8.037
 1980POPC   C4A28086   0.676  44.190   7.815
 1980POPC   C1B28087   0.262  44.663   8.787
 1980POPC   C2B28088   0.198  44.726   8.366
 1980POPC   C3B28089   0.043  44.700   7.974
 1980POPC   C4B28090   0.316  44.792   7.714
 1981POPC   NC328091  41.026  41.558   9.477
 1981POPC   PO428092  40.372  41.698   9.494
 1981POPC   GL128093  40.656  41.620   9.114
 1981POPC   GL228094  41.025  41.498   8.986
 1981POPC   C1A28095  40.649  41.478   8.689
 1981POPC   D2A28096  40.991  41.378   8.388
 1981POPC   C3A28097  40.803  41.470   7.982
 1981POPC   C4A28098  40.469  41.363   7.662
 1981POPC   C1B28099  41.009  41.840   8.631
 1981POPC   C2B28100  41.226  41.840   8.236
 1981POPC   C3B28101  41.214  41.757   7.784
 1981POPC   C4B28102  41.242  41.770   7.339
 1982POPC   NC328103  42.595  21.493   9.366
 1982POPC   PO428104  43.181  21.381   9.772
 1982POPC   GL128105  43.128  21.310   9.327
 1982POPC   GL228106  43.456  21.250   9.262
 1982POPC   C1A28107  43.071  21.514   8.895
 1982POPC   D2A28108  43.185  21.880   8.623
 1982POPC   C3A28109  43.211  21.764   8.204
 1982POPC   C4A28110  42.881  21.609   7.932
 1982POPC   C1B28111  43.286  21.057   8.890
 1982POPC   C2B28112  43.366  21.049   8.463
 1982POPC   C3B28113  43.205  21.209   8.079
 1982POPC   C4B28114  43.354  21.505   7.791
 1983POPC   NC328115  10.831  32.071   9.520
 1983POPC   PO428116  10.765  32.686   9.228
 1983POPC   GL128117  10.525  32.286   9.140
 1983POPC   GL228118  10.782  32.083   9.012
 1983POPC   C1A28119  10.360  31.974   8.778
 1983POPC   D2A28120  10.242  31.946   8.323
 1983POPC   C3A28121  10.299  32.190   7.967
 1983POPC   C4A28122  10.144  32.217   7.528
 1983POPC   C1B28123  10.618  32.435   8.671
 1983POPC   C2B28124  10.916  32.587   8.361
 1983POPC   C3B28125  10.873  32.661   7.927
 1983POPC   C4B28126  10.688  32.910   7.614
 1984POPC   NC328127  42.287  35.725   9.517
 1984POPC   PO428128  42.233  36.435   9.577
 1984POPC   GL128129  42.272  36.155   9.224
 1984POPC   GL228130  42.323  36.480   9.023
 1984POPC   C1A28131  42.506  36.037   8.826
 1984POPC   D2A28132  42.392  36.257   8.408
 1984POPC   C3A28133  42.263  35.955   8.071
 1984POPC   C4A28134  42.392  35.777   7.675
 1984POPC   C1B28135  42.019  36.182   8.795
 1984POPC   C2B28136  41.896  36.145   8.381
 1984POPC   C3B28137  41.977  36.404   8.022
 1984POPC   C4B28138  42.101  36.199   7.650
 1985POPC   NC328139  28.803  36.334   9.618
 1985POPC   PO428140  28.924  35.692   9.374
 1985POPC   GL128141  29.173  35.999   9.173
 1985POPC   GL228142  28.933  36.247   9.124
 1985POPC   C1A28143  29.363  35.922   8.770
 1985POPC   D2A28144  29.358  36.103   8.358
 1985POPC   C3A28145  29.123  35.972   8.035
 1985POPC   C4A28146  29.290  35.947   7.636
 1985POPC   C1B28147  28.989  36.444   8.713
 1985POPC   C2B28148  28.867  36.333   8.279
 1985POPC   C3B28149  28.928  36.373   7.814
 1985POPC   C4B28150  28.959  36.699   7.530
 1986POPC   NC328151  39.730  40.403   9.451
 1986POPC   PO428152  39.913  40.993   9.341
 1986POPC   GL128153  39.878  40.738   9.051
 1986POPC   GL228154  40.272  40.732   9.040
 1986POPC   C1A28155  39.957  40.593   8.670
 1986POPC   D2A28156  40.267  40.638   8.403
 1986POPC   C3A28157  39.988  40.589   8.084
 1986POPC   C4A28158  39.755  40.610   7.726
 1986POPC   C1B28159  40.315  41.074   8.745
 1986POPC   C2B28160  40.489  41.175   8.335
 1986POPC   C3B28161  40.365  41.000   8.030
 1986POPC   C4B28162  40.048  41.010   7.778
 1987POPC   NC328163   4.682  25.125   9.884
 1987POPC   PO428164   5.288  25.009   9.530
 1987POPC   GL128165   5.165  25.033   9.115
 1987POPC   GL228166   4.953  25.310   9.229
 1987POPC   C1A28167   5.306  25.028   8.691
 1987POPC   D2A28168   5.145  24.888   8.275
 1987POPC   C3A28169   5.363  25.066   7.934
 1987POPC   C4A28170   5.340  25.356   7.624
 1987POPC   C1B28171   5.067  25.455   8.824
 1987POPC   C2B28172   4.927  25.346   8.438
 1987POPC   C3B28173   5.023  25.433   8.038
 1987POPC   C4B28174   4.793  25.396   7.680
 1988POPC   NC328175  36.608  33.380   9.511
 1988POPC   PO428176  36.138  33.840   9.577
 1988POPC   GL128177  36.188  33.884   9.157
 1988POPC   GL228178  36.549  33.841   9.204
 1988POPC   C1A28179  36.063  33.913   8.718
 1988POPC   D2A28180  35.781  33.744   8.390
 1988POPC   C3A28181  36.050  33.740   8.048
 1988POPC   C4A28182  35.989  33.941   7.654
 1988POPC   C1B28183  36.417  33.553   8.863
 1988POPC   C2B28184  36.202  33.447   8.479
 1988POPC   C3B28185  36.189  33.244   8.095
 1988POPC   C4B28186  36.397  33.396   7.727
 1989POPC   NC328187  12.771  11.794   9.657
 1989POPC   PO428188  13.136  11.273   9.628
 1989POPC   GL128189  13.155  11.224   9.189
 1989POPC   GL228190  12.836  11.394   9.176
 1989POPC   C1A28191  13.162  11.374   8.775
 1989POPC   D2A28192  12.922  11.590   8.479
 1989POPC   C3A28193  12.924  11.530   8.057
 1989POPC   C4A28194  12.651  11.624   7.733
 1989POPC   C1B28195  12.665  11.240   8.779
 1989POPC   C2B28196  12.766  11.115   8.368
 1989POPC   C3B28197  12.508  11.195   8.028
 1989POPC   C4B28198  12.551  11.135   7.615
 1990POPC   NC328199  11.339  29.370   9.569
 1990POPC   PO428200  11.101  28.708   9.591
 1990POPC   GL128201  11.122  28.981   9.216
 1990POPC   GL228202  11.501  29.045   9.203
 1990POPC   C1A28203  11.227  29.201   8.805
 1990POPC   D2A28204  11.458  29.227   8.406
 1990POPC   C3A28205  11.172  29.370   8.094
 1990POPC   C4A28206  11.138  29.133   7.733
 1990POPC   C1B28207  11.654  29.419   8.969
 1990POPC   C2B28208  11.854  29.501   8.573
 1990POPC   C3B28209  11.886  29.455   8.144
 1990POPC   C4B28210  11.587  29.424   7.790
 1991POPC   NC328211   2.637  39.227   9.567
 1991POPC   PO428212   3.181  39.616   9.677
 1991POPC   GL128213   2.948  39.455   9.247
 1991POPC   GL228214   2.554  39.570   9.199
 1991POPC   C1A28215   2.727  39.162   8.923
 1991POPC   D2A28216   2.705  39.043   8.499
 1991POPC   C3A28217   2.849  39.319   8.193
 1991POPC   C4A28218   2.789  39.302   7.735
 1991POPC   C1B28219   2.303  39.532   8.814
 1991POPC   C2B28220   2.326  39.386   8.397
 1991POPC   C3B28221   2.448  39.570   8.027
 1991POPC   C4B28222   2.293  39.635   7.674
 1992POPC   NC328223  12.312   6.310   9.413
 1992POPC   PO428224  12.456   7.013   9.499
 1992POPC   GL128225  12.643   6.748   9.137
 1992POPC   GL228226  12.601   6.413   9.002
 1992POPC   C1A28227  12.880   6.779   8.765
 1992POPC   D2A28228  12.770   6.914   8.353
 1992POPC   C3A28229  12.773   6.614   7.972
 1992POPC   C4A28230  12.987   6.652   7.526
 1992POPC   C1B28231  12.958   6.203   8.789
 1992POPC   C2B28232  13.195   6.110   8.434
 1992POPC   C3B28233  13.105   6.226   8.022
 1992POPC   C4B28234  12.921   6.160   7.617
 1993POPC   NC328235  11.041  43.156   9.600
 1993POPC   PO428236  11.637  43.442   9.620
 1993POPC   GL128237  11.439  43.144   9.229
 1993POPC   GL228238  11.096  42.943   9.157
 1993POPC   C1A28239  11.452  42.904   8.806
 1993POPC   D2A28240  11.669  42.902   8.382
 1993POPC   C3A28241  11.408  42.956   7.995
 1993POPC   C4A28242  11.411  43.226   7.594
 1993POPC   C1B28243  10.792  42.952   8.849
 1993POPC   C2B28244  10.725  42.795   8.444
 1993POPC   C3B28245  10.919  42.739   8.041
 1993POPC   C4B28246  10.940  43.053   7.715
 1994POPC   NC328247  42.118  38.562   9.512
 1994POPC   PO428248  41.512  38.098   9.481
 1994POPC   GL128249  41.522  38.315   9.077
 1994POPC   GL228250  41.720  38.636   9.038
 1994POPC   C1A28251  41.768  38.262   8.677
 1994POPC   D2A28252  42.072  38.284   8.331
 1994POPC   C3A28253  41.780  38.295   8.013
 1994POPC   C4A28254  41.367  38.213   7.827
 1994POPC   C1B28255  41.417  38.652   8.710
 1994POPC   C2B28256  41.371  38.509   8.304
 1994POPC   C3B28257  41.457  38.697   7.928
 1994POPC   C4B28258  41.245  38.755   7.572
 1995POPC   NC328259  35.884  34.789   9.119
 1995POPC   PO428260  35.418  35.136   9.420
 1995POPC   GL128261  35.374  35.490   9.153
 1995POPC   GL228262  35.701  35.614   9.169
 1995POPC   C1A28263  35.292  35.612   8.721
 1995POPC   D2A28264  35.056  35.567   8.356
 1995POPC   C3A28265  35.315  35.610   7.982
 1995POPC   C4A28266  35.270  35.330   7.565
 1995POPC   C1B28267  35.699  35.318   8.781
 1995POPC   C2B28268  35.449  35.216   8.433
 1995POPC   C3B28269  35.420  35.117   8.004
 1995POPC   C4B28270  35.728  35.421   7.756
 1996POPC   NC328271  15.371  31.940   9.423
 1996POPC   PO428272  15.762  32.409   9.693
 1996POPC   GL128273  15.727  32.211   9.186
 1996POPC   GL228274  15.712  31.923   8.928
 1996POPC   C1A28275  15.662  32.349   8.702
 1996POPC   D2A28276  15.842  32.021   8.441
 1996POPC   C3A28277  15.718  32.086   8.073
 1996POPC   C4A28278  15.634  31.842   7.737
 1996POPC   C1B28279  16.112  32.162   8.855
 1996POPC   C2B28280  16.148  32.458   8.534
 1996POPC   C3B28281  16.145  32.406   8.064
 1996POPC   C4B28282  16.115  32.084   7.747
 1997POPC   NC328283  40.937   6.492   9.493
 1997POPC   PO428284  40.579   7.084   9.351
 1997POPC   GL128285  40.826   6.914   9.021
 1997POPC   GL228286  40.977   6.616   9.021
 1997POPC   C1A28287  40.799   6.782   8.580
 1997POPC   D2A28288  40.916   6.977   8.221
 1997POPC   C3A28289  40.697   6.784   7.937
 1997POPC   C4A28290  40.553   6.369   7.918
 1997POPC   C1B28291  41.149   6.405   8.663
 1997POPC   C2B28292  41.010   6.452   8.221
 1997POPC   C3B28293  41.073   6.422   7.775
 1997POPC   C4B28294  41.201   6.373   7.288
 1998POPC   NC328295   2.536  12.200   9.483
 1998POPC   PO428296   2.897  11.703   9.455
 1998POPC   GL128297   2.795  11.807   9.077
 1998POPC   GL228298   2.461  11.857   9.103
 1998POPC   C1A28299   2.733  12.140   8.799
 1998POPC   D2A28300   2.606  12.128   8.415
 1998POPC   C3A28301   2.976  12.129   8.132
 1998POPC   C4A28302   2.830  12.292   7.733
 1998POPC   C1B28303   2.368  11.702   8.718
 1998POPC   C2B28304   2.426  11.631   8.302
 1998POPC   C3B28305   2.589  11.830   7.994
 1998POPC   C4B28306   2.499  11.861   7.610
 1999POPC   NC328307  17.223  22.493   9.822
 1999POPC   PO428308  17.639  22.114   9.504
 1999POPC   GL128309  17.509  22.145   9.077
 1999POPC   GL228310  17.660  22.449   8.984
 1999POPC   C1A28311  17.166  22.136   8.779
 1999POPC   D2A28312  17.013  22.369   8.446
 1999POPC   C3A28313  17.333  22.351   8.148
 1999POPC   C4A28314  17.314  22.184   7.771
 1999POPC   C1B28315  17.594  22.353   8.591
 1999POPC   C2B28316  17.833  22.191   8.267
 1999POPC   C3B28317  17.833  22.276   7.868
 1999POPC   C4B28318  17.751  21.846   7.820
 2000POPC   NC328319  14.177  31.614   9.650
 2000POPC   PO428320  14.767  31.282   9.504
 2000POPC   GL128321  14.416  31.285   9.189
 2000POPC   GL228322  14.122  31.530   9.164
 2000POPC   C1A28323  14.441  31.464   8.764
 2000POPC   D2A28324  14.382  31.705   8.390
 2000POPC   C3A28325  14.250  31.550   7.978
 2000POPC   C4A28326  14.403  31.678   7.543
 2000POPC   C1B28327  13.946  31.578   8.786
 2000POPC   C2B28328  14.040  31.310   8.414
 2000POPC   C3B28329  13.896  31.179   8.002
 2000POPC   C4B28330  14.126  31.245   7.585
 2001POPC   NC328331  21.240  19.322   9.630
 2001POPC   PO428332  21.766  19.025   9.287
 2001POPC   GL128333  21.335  19.041   9.174
 2001POPC   GL228334  21.359  19.402   9.143
 2001POPC   C1A28335  21.189  18.813   8.794
 2001POPC   D2A28336  21.505  18.765   8.435
 2001POPC   C3A28337  21.299  18.817   8.034
 2001POPC   C4A28338  21.531  18.934   7.681
 2001POPC   C1B28339  21.109  19.330   8.797
 2001POPC   C2B28340  21.210  19.173   8.406
 2001POPC   C3B28341  21.374  19.325   8.033
 2001POPC   C4B28342  21.083  19.300   7.735
 2002POPC   NC328343  15.000  10.481   9.541
 2002POPC   PO428344  15.676  10.378   9.657
 2002POPC   GL128345  15.425  10.247   9.207
 2002POPC   GL228346  15.201  10.538   9.091
 2002POPC   C1A28347  15.423  10.340   8.707
 2002POPC   D2A28348  15.322  10.696   8.429
 2002POPC   C3A28349  15.455  10.572   8.017
 2002POPC   C4A28350  15.269  10.259   7.790
 2002POPC   C1B28351  14.886  10.289   8.838
 2002POPC   C2B28352  14.701  10.316   8.403
 2002POPC   C3B28353  14.816  10.392   7.958
 2002POPC   C4B28354  14.850  10.554   7.527
 2003POPC   NC328355  42.600  26.931   9.580
 2003POPC   PO428356  41.999  26.688   9.328
 2003POPC   GL128357  42.277  27.024   9.191
 2003POPC   GL228358  42.515  26.756   9.113
 2003POPC   C1A28359  42.393  27.164   8.782
 2003POPC   D2A28360  42.168  26.976   8.431
 2003POPC   C3A28361  42.342  27.056   8.048
 2003POPC   C4A28362  42.091  27.286   7.781
 2003POPC   C1B28363  42.378  26.583   8.698
 2003POPC   C2B28364  42.467  26.569   8.223
 2003POPC   C3B28365  42.689  26.709   7.855
 2003POPC   C4B28366  42.769  26.757   7.415
 2004POPC   NC328367   2.482  23.857   9.454
 2004POPC   PO428368   3.126  23.720   9.305
 2004POPC   GL128369   2.794  23.671   9.070
 2004POPC   GL228370   2.616  23.369   9.248
 2004POPC   C1A28371   2.785  23.993   8.745
 2004POPC   D2A28372   2.988  24.312   8.435
 2004POPC   C3A28373   2.946  24.123   8.018
 2004POPC   C4A28374   2.608  23.919   7.777
 2004POPC   C1B28375   2.655  23.253   8.817
 2004POPC   C2B28376   2.818  23.527   8.527
 2004POPC   C3B28377   2.829  23.615   8.116
 2004POPC   C4B28378   2.692  23.411   7.757
 2005POPC   NC328379  27.277  30.933   9.432
 2005POPC   PO428380  27.587  30.411   9.424
 2005POPC   GL128381  27.446  30.577   9.063
 2005POPC   GL228382  27.537  30.953   8.977
 2005POPC   C1A28383  27.610  30.555   8.654
 2005POPC   D2A28384  27.608  30.763   8.273
 2005POPC   C3A28385  27.465  30.521   7.932
 2005POPC   C4A28386  27.158  30.767   7.725
 2005POPC   C1B28387  27.916  30.980   8.660
 2005POPC   C2B28388  28.127  30.779   8.306
 2005POPC   C3B28389  27.966  30.720   7.901
 2005POPC   C4B28390  27.630  31.000   7.764
 2006POPC   NC328391  27.723  26.221   9.536
 2006POPC   PO428392  27.095  26.274   9.473
 2006POPC   GL128393  27.401  26.282   9.124
 2006POPC   GL228394  27.714  26.066   9.064
 2006POPC   C1A28395  27.494  26.347   8.697
 2006POPC   D2A28396  27.752  26.305   8.349
 2006POPC   C3A28397  27.460  26.300   7.997
 2006POPC   C4A28398  27.191  26.430   7.647
 2006POPC   C1B28399  27.761  25.898   8.649
 2006POPC   C2B28400  27.560  25.846   8.238
 2006POPC   C3B28401  27.655  25.840   7.795
 2006POPC   C4B28402  27.699  25.787   7.333
 2007POPC   NC328403  10.886   6.394   9.752
 2007POPC   PO428404  10.354   6.736   9.549
 2007POPC   GL128405  10.466   6.559   9.151
 2007POPC   GL228406  10.747   6.348   9.246
 2007POPC   C1A28407  10.373   6.608   8.708
 2007POPC   D2A28408  10.174   6.539   8.299
 2007POPC   C3A28409  10.427   6.630   7.953
 2007POPC   C4A28410  10.611   6.842   7.597
 2007POPC   C1B28411  10.671   6.188   8.822
 2007POPC   C2B28412  10.591   6.268   8.396
 2007POPC   C3B28413  10.636   6.152   7.987
 2007POPC   C4B28414  10.808   6.325   7.591
 2008POPC   NC328415  44.254  26.366   9.515
 2008POPC   PO428416  43.756  25.928   9.440
 2008POPC   GL128417  43.956  26.101   9.148
 2008POPC   GL228418  44.276  26.024   9.125
 2008POPC   C1A28419  43.934  25.995   8.742
 2008POPC   D2A28420  44.187  26.069   8.423
 2008POPC   C3A28421  43.979  26.125   8.060
 2008POPC   C4A28422  43.851  26.226   7.669
 2008POPC   C1B28423  44.388  25.732   8.792
 2008POPC   C2B28424  44.554  25.738   8.375
 2008POPC   C3B28425  44.288  25.709   8.014
 2008POPC   C4B28426  44.155  25.817   7.590
 2009POPC   NC328427  42.000  33.983   9.494
 2009POPC   PO428428  42.679  33.831   9.424
 2009POPC   GL128429  42.562  33.897   9.004
 2009POPC   GL228430  42.216  34.005   9.026
 2009POPC   C1A28431  42.695  33.648   8.644
 2009POPC   D2A28432  42.460  33.469   8.344
 2009POPC   C3A28433  42.511  33.516   7.891
 2009POPC   C4A28434  42.677  33.476   7.484
 2009POPC   C1B28435  42.206  33.879   8.585
 2009POPC   C2B28436  41.871  33.885   8.268
 2009POPC   C3B28437  41.986  34.081   7.898
 2009POPC   C4B28438  42.347  33.983   7.652
 2010POPC   NC328439   6.078  30.554   9.509
 2010POPC   PO428440   5.447  30.967   9.435
 2010POPC   GL128441   5.682  30.818   9.108
 2010POPC   GL228442   5.547  30.454   8.945
 2010POPC   C1A28443   5.618  30.920   8.707
 2010POPC   D2A28444   5.584  30.649   8.385
 2010POPC   C3A28445   5.760  30.809   8.032
 2010POPC   C4A28446   5.635  30.846   7.629
 2010POPC   C1B28447   5.960  30.545   8.793
 2010POPC   C2B28448   6.112  30.780   8.427
 2010POPC   C3B28449   6.234  30.609   8.019
 2010POPC   C4B28450   5.965  30.437   7.707
 2011POPC   NC328451  11.618  17.522   9.490
 2011POPC   PO428452  12.211  17.801   9.551
 2011POPC   GL128453  12.093  17.622   9.176
 2011POPC   GL228454  12.180  17.258   9.277
 2011POPC   C1A28455  12.081  17.825   8.719
 2011POPC   D2A28456  12.054  18.087   8.282
 2011POPC   C3A28457  11.841  17.942   7.887
 2011POPC   C4A28458  11.680  17.538   7.695
 2011POPC   C1B28459  12.290  17.305   8.831
 2011POPC   C2B28460  12.100  17.382   8.429
 2011POPC   C3B28461  12.197  17.536   8.017
 2011POPC   C4B28462  12.362  17.266   7.716
 2012POPC   NC328463   3.422  13.957   9.338
 2012POPC   PO428464   3.780  14.522   9.499
 2012POPC   GL128465   3.566  14.426   9.133
 2012POPC   GL228466   3.223  14.524   9.093
 2012POPC   C1A28467   3.737  14.248   8.774
 2012POPC   D2A28468   3.987  14.133   8.459
 2012POPC   C3A28469   3.834  14.344   8.122
 2012POPC   C4A28470   3.963  14.669   7.853
 2012POPC   C1B28471   3.285  14.465   8.673
 2012POPC   C2B28472   3.451  14.652   8.312
 2012POPC   C3B28473   3.442  14.678   7.864
 2012POPC   C4B28474   3.230  14.544   7.457
 2013POPC   NC328475   9.890  36.899   9.958
 2013POPC   PO428476   9.832  36.719   9.309
 2013POPC   GL128477   9.584  36.951   8.957
 2013POPC   GL228478   9.544  37.341   9.055
 2013POPC   C1A28479   9.476  36.760   8.603
 2013POPC   D2A28480   9.615  36.383   8.465
 2013POPC   C3A28481   9.603  36.529   8.069
 2013POPC   C4A28482   9.919  36.592   7.775
 2013POPC   C1B28483   9.986  37.229   8.914
 2013POPC   C2B28484   9.945  37.004   8.510
 2013POPC   C3B28485   9.837  36.981   8.110
 2013POPC   C4B28486   9.958  37.144   7.753
 2014POPC   NC328487   0.149  19.546   9.414
 2014POPC   PO428488   0.347  20.142   9.622
 2014POPC   GL128489   0.462  19.991   9.219
 2014POPC   GL228490   0.840  19.925   9.222
 2014POPC   C1A28491   0.381  19.859   8.799
 2014POPC   D2A28492   0.603  19.815   8.420
 2014POPC   C3A28493   0.410  19.718   7.990
 2014POPC   C4A28494   0.223  19.648   7.568
 2014POPC   C1B28495   0.823  20.141   8.820
 2014POPC   C2B28496   0.985  20.156   8.402
 2014POPC   C3B28497   0.759  20.142   8.028
 2014POPC   C4B28498   0.609  20.032   7.639
 2015POPC   NC328499   6.023  36.996   9.574
 2015POPC   PO428500   5.426  36.658   9.474
 2015POPC   GL128501   5.758  36.820   9.160
 2015POPC   GL228502   6.011  37.110   9.096
 2015POPC   C1A28503   5.664  37.008   8.749
 2015POPC   D2A28504   5.702  37.223   8.370
 2015POPC   C3A28505   5.577  36.975   8.000
 2015POPC   C4A28506   5.639  37.087   7.572
 2015POPC   C1B28507   6.101  37.356   8.737
 2015POPC   C2B28508   6.216  37.303   8.303
 2015POPC   C3B28509   6.033  37.228   7.893
 2015POPC   C4B28510   6.080  37.269   7.423
 2016POPC   NC328511   0.531  21.180   9.364
 2016POPC   PO428512   0.575  21.781   9.311
 2016POPC   GL128513   0.497  21.529   8.991
 2016POPC   GL228514   0.827  21.371   8.943
 2016POPC   C1A28515   0.477  21.422   8.588
 2016POPC   D2A28516   0.747  21.443   8.267
 2016POPC   C3A28517   0.431  21.437   7.998
 2016POPC   C4A28518   0.394  21.649   7.647
 2016POPC   C1B28519   0.821  21.047   8.603
 2016POPC   C2B28520   0.554  20.970   8.222
 2016POPC   C3B28521   0.611  21.015   7.759
 2016POPC   C4B28522   0.847  20.854   7.395
 2017POPC   NC328523  14.287  25.739   9.403
 2017POPC   PO428524  14.694  26.231   9.639
 2017POPC   GL128525  14.555  26.188   9.206
 2017POPC   GL228526  14.254  26.305   9.220
 2017POPC   C1A28527  14.348  26.149   8.758
 2017POPC   D2A28528  14.202  25.921   8.405
 2017POPC   C3A28529  14.516  25.945   8.092
 2017POPC   C4A28530  14.351  25.977   7.698
 2017POPC   C1B28531  14.024  26.520   8.916
 2017POPC   C2B28532  13.968  26.418   8.493
 2017POPC   C3B28533  14.206  26.349   8.124
 2017POPC   C4B28534  14.116  26.456   7.729
 2018POPC   NC328535  26.454  31.525   9.611
 2018POPC   PO428536  26.057  30.969   9.687
 2018POPC   GL128537  26.158  31.198   9.305
 2018POPC   GL228538  25.808  31.312   9.261
 2018POPC   C1A28539  26.176  31.520   8.939
 2018POPC   D2A28540  25.938  31.708   8.576
 2018POPC   C3A28541  26.135  31.791   8.172
 2018POPC   C4A28542  26.173  31.649   7.744
 2018POPC   C1B28543  25.861  31.121   8.871
 2018POPC   C2B28544  25.888  31.193   8.443
 2018POPC   C3B28545  25.842  31.362   8.055
 2018POPC   C4B28546  25.929  31.206   7.681
 2019POPC   NC328547  17.674  31.354   9.537
 2019POPC   PO428548  17.295  31.933   9.567
 2019POPC   GL128549  17.406  31.659   9.206
 2019POPC   GL228550  17.259  31.281   9.265
 2019POPC   C1A28551  17.598  31.647   8.794
 2019POPC   D2A28552  17.678  31.376   8.468
 2019POPC   C3A28553  17.706  31.568   8.086
 2019POPC   C4A28554  17.630  31.448   7.687
 2019POPC   C1B28555  17.249  31.287   8.839
 2019POPC   C2B28556  17.167  31.353   8.435
 2019POPC   C3B28557  17.362  31.164   8.076
 2019POPC   C4B28558  17.205  31.174   7.678
 2020POPC   NC328559  28.438  18.915   9.582
 2020POPC   PO428560  28.279  19.580   9.494
 2020POPC   GL128561  28.545  19.345   9.213
 2020POPC   GL228562  28.368  19.043   9.107
 2020POPC   C1A28563  28.616  19.309   8.751
 2020POPC   D2A28564  28.649  19.080   8.350
 2020POPC   C3A28565  28.441  19.070   7.959
 2020POPC   C4A28566  28.060  19.175   7.804
 2020POPC   C1B28567  28.510  18.793   8.765
 2020POPC   C2B28568  28.299  18.697   8.364
 2020POPC   C3B28569  28.153  18.657   7.926
 2020POPC   C4B28570  28.466  18.640   7.588
 2021POPC   NC328571  18.369  19.455   9.513
 2021POPC   PO428572  18.068  20.040   9.389
 2021POPC   GL128573  18.324  19.791   9.129
 2021POPC   GL228574  18.551  20.036   8.987
 2021POPC   C1A28575  18.228  19.563   8.762
 2021POPC   D2A28576  18.174  19.796   8.368
 2021POPC   C3A28577  18.247  19.646   7.925
 2021POPC   C4A28578  18.000  19.681   7.525
 2021POPC   C1B28579  18.660  19.753   8.637
 2021POPC   C2B28580  18.697  19.852   8.220
 2021POPC   C3B28581  18.647  20.177   7.924
 2021POPC   C4B28582  18.644  20.091   7.495
 2022POPC   NC328583  20.819  12.054   9.733
 2022POPC   PO428584  21.180  12.505   9.559
 2022POPC   GL128585  20.847  12.334   9.233
 2022POPC   GL228586  20.700  11.987   9.151
 2022POPC   C1A28587  20.840  12.240   8.744
 2022POPC   D2A28588  20.710  11.938   8.420
 2022POPC   C3A28589  20.587  12.173   8.026
 2022POPC   C4A28590  20.600  11.995   7.616
 2022POPC   C1B28591  20.384  11.801   8.828
 2022POPC   C2B28592  20.372  11.548   8.418
 2022POPC   C3B28593  20.394  11.679   7.976
 2022POPC   C4B28594  20.377  11.561   7.532
 2023POPC   NC328595  39.443  16.909   9.617
 2023POPC   PO428596  38.722  16.673   9.635
 2023POPC   GL128597  39.067  16.779   9.273
 2023POPC   GL228598  39.434  16.625   9.183
 2023POPC   C1A28599  39.226  16.902   8.826
 2023POPC   D2A28600  39.421  16.735   8.438
 2023POPC   C3A28601  39.326  16.902   8.034
 2023POPC   C4A28602  38.984  16.730   7.817
 2023POPC   C1B28603  39.534  16.388   8.795
 2023POPC   C2B28604  39.759  16.308   8.428
 2023POPC   C3B28605  39.662  16.494   8.060
 2023POPC   C4B28606  39.451  16.378   7.724
 2024POPC   NC328607  15.706   3.894   9.419
 2024POPC   PO428608  16.145   3.368   9.495
 2024POPC   GL128609  15.954   3.533   9.131
 2024POPC   GL228610  16.169   3.788   9.111
 2024POPC   C1A28611  16.073   3.467   8.681
 2024POPC   D2A28612  16.222   3.113   8.402
 2024POPC   C3A28613  16.145   3.166   7.940
 2024POPC   C4A28614  15.854   3.384   7.664
 2024POPC   C1B28615  15.969   3.964   8.769
 2024POPC   C2B28616  15.710   3.902   8.397
 2024POPC   C3B28617  15.918   3.693   8.067
 2024POPC   C4B28618  16.174   3.790   7.719
 2025POPC   NC328619   6.999   7.421   9.349
 2025POPC   PO428620   7.696   7.300   9.521
 2025POPC   GL128621   7.512   7.550   9.192
 2025POPC   GL228622   7.388   7.259   8.987
 2025POPC   C1A28623   7.443   7.700   8.763
 2025POPC   D2A28624   7.508   7.438   8.383
 2025POPC   C3A28625   7.540   7.637   7.988
 2025POPC   C4A28626   7.578   7.467   7.590
 2025POPC   C1B28627   7.043   7.321   8.681
 2025POPC   C2B28628   6.978   7.477   8.256
 2025POPC   C3B28629   7.164   7.320   7.879
 2025POPC   C4B28630   7.096   7.341   7.454
 2026POPC   NC328631  21.740  38.835   9.630
 2026POPC   PO428632  21.559  39.469   9.421
 2026POPC   GL128633  21.470  39.355   9.030
 2026POPC   GL228634  21.768  39.484   8.943
 2026POPC   C1A28635  21.344  39.231   8.598
 2026POPC   D2A28636  21.500  39.021   8.234
 2026POPC   C3A28637  21.351  39.167   7.801
 2026POPC   C4A28638  21.611  39.096   7.390
 2026POPC   C1B28639  21.856  39.793   8.689
 2026POPC   C2B28640  21.643  39.904   8.335
 2026POPC   C3B28641  21.497  39.606   8.022
 2026POPC   C4B28642  21.521  39.597   7.553
 2027POPC   NC328643   5.513  19.748   9.550
 2027POPC   PO428644   5.119  20.291   9.556
 2027POPC   GL128645   5.116  20.064   9.199
 2027POPC   GL228646   4.769  20.126   9.145
 2027POPC   C1A28647   5.190  19.876   8.803
 2027POPC   D2A28648   4.999  19.675   8.451
 2027POPC   C3A28649   5.130  19.849   8.077
 2027POPC   C4A28650   5.216  19.748   7.676
 2027POPC   C1B28651   4.804  20.296   8.780
 2027POPC   C2B28652   4.955  20.185   8.436
 2027POPC   C3B28653   4.834  20.272   8.050
 2027POPC   C4B28654   4.932  20.179   7.659
 2028POPC   NC328655  21.668  13.668   9.403
 2028POPC   PO428656  22.352  13.693   9.465
 2028POPC   GL128657  22.473  13.627   9.081
 2028POPC   GL228658  22.560  13.285   9.036
 2028POPC   C1A28659  22.135  13.588   8.802
 2028POPC   D2A28660  22.045  13.445   8.403
 2028POPC   C3A28661  22.244  13.601   8.034
 2028POPC   C4A28662  22.052  13.753   7.664
 2028POPC   C1B28663  22.552  13.380   8.592
 2028POPC   C2B28664  22.461  13.163   8.211
 2028POPC   C3B28665  22.412  13.181   7.759
 2028POPC   C4B28666  22.236  13.363   7.365
 2029POPC   NC328667   0.862   1.001   9.636
 2029POPC   PO428668   1.547   1.186   9.432
 2029POPC   GL128669   1.315   1.042   9.092
 2029POPC   GL228670   1.122   1.335   9.048
 2029POPC   C1A28671   1.247   1.045   8.641
 2029POPC   D2A28672   1.387   1.354   8.333
 2029POPC   C3A28673   1.375   1.191   7.933
 2029POPC   C4A28674   1.200   1.060   7.533
 2029POPC   C1B28675   0.997   1.486   8.653
 2029POPC   C2B28676   0.805   1.324   8.289
 2029POPC   C3B28677   0.901   1.336   7.892
 2029POPC   C4B28678   0.990   1.722   7.754
 2030POPC   NC328679  16.719   7.019   9.370
 2030POPC   PO428680  16.809   7.687   9.636
 2030POPC   GL128681  16.773   7.505   9.215
 2030POPC   GL228682  16.409   7.413   9.225
 2030POPC   C1A28683  16.849   7.289   8.789
 2030POPC   D2A28684  17.105   7.254   8.418
 2030POPC   C3A28685  16.870   7.278   8.045
 2030POPC   C4A28686  16.675   7.414   7.662
 2030POPC   C1B28687  16.469   7.629   8.819
 2030POPC   C2B28688  16.673   7.618   8.417
 2030POPC   C3B28689  16.642   7.779   8.016
 2030POPC   C4B28690  16.280   7.760   7.738
 2031POPC   NC328691   2.486  16.316   9.378
 2031POPC   PO428692   3.032  15.936   9.419
 2031POPC   GL128693   2.713  15.919   9.158
 2031POPC   GL228694   2.535  15.617   9.287
 2031POPC   C1A28695   2.701  16.084   8.744
 2031POPC   D2A28696   2.904  16.157   8.338
 2031POPC   C3A28697   2.677  16.384   8.047
 2031POPC   C4A28698   2.678  16.162   7.647
 2031POPC   C1B28699   2.563  15.592   8.821
 2031POPC   C2B28700   2.777  15.656   8.441
 2031POPC   C3B28701   2.694  15.825   8.030
 2031POPC   C4B28702   2.796  15.673   7.623
 2032POPC   NC328703  31.136  21.650   9.388
 2032POPC   PO428704  31.495  21.089   9.506
 2032POPC   GL128705  31.500  21.349   9.140
 2032POPC   GL228706  31.175  21.206   9.096
 2032POPC   C1A28707  31.339  21.564   8.727
 2032POPC   D2A28708  31.579  21.584   8.329
 2032POPC   C3A28709  31.431  21.451   7.928
 2032POPC   C4A28710  31.667  21.334   7.566
 2032POPC   C1B28711  31.338  21.053   8.731
 2032POPC   C2B28712  31.199  21.194   8.335
 2032POPC   C3B28713  31.061  21.017   7.964
 2032POPC   C4B28714  31.207  21.126   7.574
 2033POPC   NC328715  33.806  15.754   9.556
 2033POPC   PO428716  33.673  15.041   9.665
 2033POPC   GL128717  33.689  15.206   9.239
 2033POPC   GL228718  33.960  15.443   9.158
 2033POPC   C1A28719  33.744  15.132   8.796
 2033POPC   D2A28720  33.874  15.246   8.385
 2033POPC   C3A28721  33.572  15.174   8.111
 2033POPC   C4A28722  33.571  15.104   7.714
 2033POPC   C1B28723  33.939  15.620   8.732
 2033POPC   C2B28724  34.028  15.764   8.328
 2033POPC   C3B28725  34.080  15.524   7.978
 2033POPC   C4B28726  33.981  15.400   7.608
 2034POPC   NC328727   1.192  29.876   9.548
 2034POPC   PO428728   1.846  30.161   9.611
 2034POPC   GL128729   1.538  30.149   9.229
 2034POPC   GL228730   1.126  30.182   9.158
 2034POPC   C1A28731   1.460  29.885   8.852
 2034POPC   D2A28732   1.467  30.006   8.405
 2034POPC   C3A28733   1.333  29.779   8.025
 2034POPC   C4A28734   1.313  29.862   7.574
 2034POPC   C1B28735   0.889  30.183   8.756
 2034POPC   C2B28736   0.941  29.997   8.325
 2034POPC   C3B28737   1.073  30.204   7.928
 2034POPC   C4B28738   0.997  30.268   7.504
 2035POPC   NC328739  27.983  37.304   9.480
 2035POPC   PO428740  28.175  37.969   9.506
 2035POPC   GL128741  28.164  37.791   9.092
 2035POPC   GL228742  28.070  37.433   8.995
 2035POPC   C1A28743  28.384  37.782   8.684
 2035POPC   D2A28744  28.260  37.636   8.284
 2035POPC   C3A28745  28.189  37.928   7.969
 2035POPC   C4A28746  28.475  37.884   7.653
 2035POPC   C1B28747  28.454  37.271   8.799
 2035POPC   C2B28748  28.667  37.325   8.389
 2035POPC   C3B28749  28.635  37.485   7.966
 2035POPC   C4B28750  28.208  37.434   7.768
 2036POPC   NC328751  15.678  23.172   9.617
 2036POPC   PO428752  16.003  22.616   9.462
 2036POPC   GL128753  16.053  22.891   9.120
 2036POPC   GL228754  15.901  23.214   9.161
 2036POPC   C1A28755  16.155  22.802   8.699
 2036POPC   D2A28756  15.907  22.716   8.336
 2036POPC   C3A28757  16.166  22.715   7.970
 2036POPC   C4A28758  16.379  22.727   7.583
 2036POPC   C1B28759  15.703  23.125   8.788
 2036POPC   C2B28760  15.580  23.130   8.367
 2036POPC   C3B28761  15.745  23.010   7.944
 2036POPC   C4B28762  16.086  23.222   7.710
 2037POPC   NC328763   0.520  28.492   9.516
 2037POPC   PO428764  44.967  28.046   9.403
 2037POPC   GL128765   0.330  28.244   9.099
 2037POPC   GL228766   0.720  28.391   9.079
 2037POPC   C1A28767   0.454  28.333   8.653
 2037POPC   D2A28768   0.579  28.272   8.220
 2037POPC   C3A28769   0.444  28.578   7.940
 2037POPC   C4A28770   0.155  28.820   7.746
 2037POPC   C1B28771   0.922  28.177   8.763
 2037POPC   C2B28772   1.058  28.133   8.378
 2037POPC   C3B28773   0.954  27.935   8.011
 2037POPC   C4B28774   0.604  28.105   7.732
 2038POPC   NC328775  40.745  42.367   9.539
 2038POPC   PO428776  41.157  41.930   9.237
 2038POPC   GL128777  40.828  42.166   9.065
 2038POPC   GL228778  40.472  42.104   9.191
 2038POPC   C1A28779  40.897  42.498   8.757
 2038POPC   D2A28780  40.962  42.318   8.366
 2038POPC   C3A28781  40.682  42.004   8.260
 2038POPC   C4A28782  40.761  41.977   7.852
 2038POPC   C1B28783  40.422  42.363   8.829
 2038POPC   C2B28784  40.467  42.469   8.406
 2038POPC   C3B28785  40.687  42.611   8.029
 2038POPC   C4B28786  40.522  42.721   7.577
 2039POPC   NC328787  28.652  20.734   9.614
 2039POPC   PO428788  28.040  20.766   9.762
 2039POPC   GL128789  28.168  20.609   9.318
 2039POPC   GL228790  28.474  20.403   9.270
 2039POPC   C1A28791  28.173  20.528   8.844
 2039POPC   D2A28792  28.435  20.515   8.436
 2039POPC   C3A28793  28.255  20.414   8.048
 2039POPC   C4A28794  28.142  20.739   7.775
 2039POPC   C1B28795  28.633  20.298   8.847
 2039POPC   C2B28796  28.788  20.158   8.398
 2039POPC   C3B28797  28.784  20.379   7.987
 2039POPC   C4B28798  28.537  20.423   7.601
 2040POPC   NC328799   9.932  10.523   9.459
 2040POPC   PO428800   9.334  10.199   9.501
 2040POPC   GL128801   9.527  10.400   9.099
 2040POPC   GL228802   9.358  10.679   8.937
 2040POPC   C1A28803   9.832  10.506   8.727
 2040POPC   D2A28804  10.115  10.423   8.351
 2040POPC   C3A28805   9.919  10.401   7.916
 2040POPC   C4A28806   9.663  10.443   7.527
 2040POPC   C1B28807   9.234  10.987   8.632
 2040POPC   C2B28808   9.372  10.903   8.227
 2040POPC   C3B28809   9.540  10.860   7.844
 2040POPC   C4B28810   9.938  10.869   7.693
 2041POPC   NC328811  22.834  37.788   9.546
 2041POPC   PO428812  23.454  37.700   9.452
 2041POPC   GL128813  23.163  37.771   9.133
 2041POPC   GL228814  22.849  37.562   9.116
 2041POPC   C1A28815  23.088  37.769   8.698
 2041POPC   D2A28816  23.059  37.901   8.306
 2041POPC   C3A28817  23.056  37.672   7.956
 2041POPC   C4A28818  23.374  37.663   7.651
 2041POPC   C1B28819  22.815  37.343   8.772
 2041POPC   C2B28820  22.887  37.402   8.354
 2041POPC   C3B28821  22.610  37.377   8.002
 2041POPC   C4B28822  22.442  37.296   7.588
 2042POPC   NC328823  38.122  22.911   9.593
 2042POPC   PO428824  37.520  23.244   9.416
 2042POPC   GL128825  37.608  23.027   9.035
 2042POPC   GL228826  37.843  22.772   9.141
 2042POPC   C1A28827  37.570  23.093   8.574
 2042POPC   D2A28828  37.477  23.099   8.113
 2042POPC   C3A28829  37.855  23.083   7.839
 2042POPC   C4A28830  37.844  22.940   7.416
 2042POPC   C1B28831  37.749  22.625   8.714
 2042POPC   C2B28832  37.829  22.748   8.272
 2042POPC   C3B28833  37.644  22.630   7.870
 2042POPC   C4B28834  37.742  22.420   7.485
 2043POPC   NC328835   9.780   7.826   9.440
 2043POPC   PO428836   9.743   8.444   9.524
 2043POPC   GL128837   9.654   8.251   9.133
 2043POPC   GL228838   9.449   7.997   9.069
 2043POPC   C1A28839   9.670   8.380   8.704
 2043POPC   D2A28840   9.882   8.298   8.334
 2043POPC   C3A28841   9.711   8.115   7.977
 2043POPC   C4A28842   9.719   8.268   7.556
 2043POPC   C1B28843   9.796   7.884   8.775
 2043POPC   C2B28844  10.069   7.849   8.430
 2043POPC   C3B28845  10.107   7.763   7.993
 2043POPC   C4B28846   9.907   7.810   7.595
 2044POPC   NC328847  37.766  34.963   9.554
 2044POPC   PO428848  37.577  34.431   9.865
 2044POPC   GL128849  37.593  34.540   9.311
 2044POPC   GL228850  37.642  34.877   9.099
 2044POPC   C1A28851  37.575  34.498   8.814
 2044POPC   D2A28852  37.524  34.800   8.491
 2044POPC   C3A28853  37.411  34.638   8.090
 2044POPC   C4A28854  37.524  34.368   7.770
 2044POPC   C1B28855  37.965  34.927   8.760
 2044POPC   C2B28856  38.192  34.862   8.389
 2044POPC   C3B28857  37.877  34.930   8.124
 2044POPC   C4B28858  37.772  34.821   7.756
 2045POPC   NC328859  41.057  19.650   9.603
 2045POPC   PO428860  41.540  20.085   9.522
 2045POPC   GL128861  41.376  19.895   9.195
 2045POPC   GL228862  41.545  19.577   9.155
 2045POPC   C1A28863  41.547  19.945   8.808
 2045POPC   D2A28864  41.342  19.913   8.454
 2045POPC   C3A28865  41.655  19.878   8.150
 2045POPC   C4A28866  41.572  20.000   7.751
 2045POPC   C1B28867  41.313  19.477   8.761
 2045POPC   C2B28868  41.412  19.425   8.322
 2045POPC   C3B28869  41.197  19.709   7.995
 2045POPC   C4B28870  41.210  19.620   7.580
 2046POPC   NC328871  15.868   4.669   9.784
 2046POPC   PO428872  16.098   4.154   9.478
 2046POPC   GL128873  16.043   4.551   9.281
 2046POPC   GL228874  15.771   4.450   9.102
 2046POPC   C1A28875  16.184   4.725   8.881
 2046POPC   D2A28876  16.145   4.787   8.427
 2046POPC   C3A28877  16.170   4.652   8.015
 2046POPC   C4A28878  15.852   4.645   7.752
 2046POPC   C1B28879  15.836   4.433   8.650
 2046POPC   C2B28880  16.068   4.250   8.310
 2046POPC   C3B28881  15.941   4.185   7.913
 2046POPC   C4B28882  15.862   4.108   7.475
 2047POPC   NC328883  27.736  11.380   9.444
 2047POPC   PO428884  27.069  11.291   9.535
 2047POPC   GL128885  27.297  11.501   9.206
 2047POPC   GL228886  27.399  11.175   9.097
 2047POPC   C1A28887  27.391  11.640   8.784
 2047POPC   D2A28888  27.409  11.384   8.401
 2047POPC   C3A28889  27.684  11.439   8.038
 2047POPC   C4A28890  27.607  11.284   7.623
 2047POPC   C1B28891  27.741  11.269   8.803
 2047POPC   C2B28892  27.862  11.100   8.423
 2047POPC   C3B28893  28.138  11.188   8.112
 2047POPC   C4B28894  28.062  11.070   7.711
 2048POPC   NC328895   8.566  20.849   9.522
 2048POPC   PO428896   9.254  20.828   9.393
 2048POPC   GL128897   8.924  20.956   9.156
 2048POPC   GL228898   8.720  20.652   9.079
 2048POPC   C1A28899   8.983  20.928   8.731
 2048POPC   D2A28900   8.853  20.805   8.349
 2048POPC   C3A28901   9.081  20.773   7.989
 2048POPC   C4A28902   9.044  21.020   7.641
 2048POPC   C1B28903   8.876  20.417   8.712
 2048POPC   C2B28904   9.099  20.359   8.312
 2048POPC   C3B28905   8.860  20.267   7.941
 2048POPC   C4B28906   8.859  20.077   7.494
 2049POPC   NC328907  43.670   4.622   9.250
 2049POPC   PO428908  43.795   4.068   9.586
 2049POPC   GL128909  43.892   4.160   9.143
 2049POPC   GL228910  44.054   3.864   9.113
 2049POPC   C1A28911  43.884   4.384   8.702
 2049POPC   D2A28912  43.786   4.254   8.282
 2049POPC   C3A28913  43.509   4.485   8.036
 2049POPC   C4A28914  43.684   4.533   7.657
 2049POPC   C1B28915  44.305   4.140   8.869
 2049POPC   C2B28916  44.289   4.201   8.462
 2049POPC   C3B28917  44.286   4.274   8.058
 2049POPC   C4B28918  44.177   4.004   7.736
 2050POPC   NC328919   3.561  26.428   9.751
 2050POPC   PO428920   3.635  27.103   9.645
 2050POPC   GL128921   3.644  27.082   9.186
 2050POPC   GL228922   3.296  27.038   9.190
 2050POPC   C1A28923   3.818  26.835   8.792
 2050POPC   D2A28924   3.492  26.532   8.594
 2050POPC   C3A28925   3.483  26.463   8.108
 2050POPC   C4A28926   3.751  26.754   7.857
 2050POPC   C1B28927   3.382  27.040   8.732
 2050POPC   C2B28928   3.410  26.935   8.286
 2050POPC   C3B28929   3.276  26.898   7.850
 2050POPC   C4B28930   3.340  27.266   7.602
 2051POPC   NC328931  27.212  43.407   9.487
 2051POPC   PO428932  26.664  43.132   9.601
 2051POPC   GL128933  26.660  42.972   9.188
 2051POPC   GL228934  26.905  43.191   9.120
 2051POPC   C1A28935  26.512  43.047   8.768
 2051POPC   D2A28936  26.607  43.238   8.373
 2051POPC   C3A28937  26.510  42.951   8.033
 2051POPC   C4A28938  26.675  42.928   7.618
 2051POPC   C1B28939  27.013  43.107   8.702
 2051POPC   C2B28940  27.108  43.371   8.338
 2051POPC   C3B28941  26.978  43.232   7.951
 2051POPC   C4B28942  27.024  43.327   7.541
 2052POPC   NC328943  14.846  26.604   9.381
 2052POPC   PO428944  14.240  26.952   9.481
 2052POPC   GL128945  14.448  26.784   9.112
 2052POPC   GL228946  14.751  26.975   9.065
 2052POPC   C1A28947  14.447  26.681   8.671
 2052POPC   D2A28948  14.211  26.819   8.291
 2052POPC   C3A28949  14.495  26.761   7.943
 2052POPC   C4A28950  14.634  26.384   7.793
 2052POPC   C1B28951  14.676  27.246   8.763
 2052POPC   C2B28952  14.606  27.102   8.385
 2052POPC   C3B28953  14.398  27.246   8.037
 2052POPC   C4B28954  14.434  27.171   7.595
 2053POPC   NC328955  12.129  29.728   9.849
 2053POPC   PO428956  11.695  30.263   9.759
 2053POPC   GL128957  11.885  29.859   9.416
 2053POPC   GL228958  12.288  29.828   9.333
 2053POPC   C1A28959  11.964  29.823   8.936
 2053POPC   D2A28960  11.871  30.090   8.538
 2053POPC   C3A28961  12.064  30.036   8.144
 2053POPC   C4A28962  11.977  29.781   7.752
 2053POPC   C1B28963  12.454  29.766   8.874
 2053POPC   C2B28964  12.325  29.654   8.449
 2053POPC   C3B28965  12.427  29.711   8.034
 2053POPC   C4B28966  12.460  29.551   7.639
 2054POPC   NC328967  31.328  18.842   9.874
 2054POPC   PO428968  31.442  18.183   9.743
 2054POPC   GL128969  31.304  18.183   9.312
 2054POPC   GL228970  31.236  18.511   9.294
 2054POPC   C1A28971  31.524  18.319   8.903
 2054POPC   D2A28972  31.484  18.372   8.475
 2054POPC   C3A28973  31.683  18.320   8.081
 2054POPC   C4A28974  31.510  18.151   7.713
 2054POPC   C1B28975  31.041  18.469   8.875
 2054POPC   C2B28976  31.023  18.566   8.450
 2054POPC   C3B28977  31.138  18.362   8.055
 2054POPC   C4B28978  31.054  18.395   7.613
 2055POPC   NC328979  41.346   8.446   9.421
 2055POPC   PO428980  41.825   8.041   9.480
 2055POPC   GL128981  41.704   8.184   9.093
 2055POPC   GL228982  41.679   8.516   9.045
 2055POPC   C1A28983  41.662   8.158   8.651
 2055POPC   D2A28984  41.904   7.892   8.397
 2055POPC   C3A28985  41.881   8.066   7.977
 2055POPC   C4A28986  41.491   8.238   7.791
 2055POPC   C1B28987  41.696   8.677   8.633
 2055POPC   C2B28988  41.583   8.507   8.235
 2055POPC   C3B28989  41.328   8.698   7.931
 2055POPC   C4B28990  41.406   8.675   7.496
 2056POPC   NC328991  39.219  29.622   9.423
 2056POPC   PO428992  39.043  30.304   9.411
 2056POPC   GL128993  39.069  29.971   9.043
 2056POPC   GL228994  38.989  29.596   8.984
 2056POPC   C1A28995  39.299  29.806   8.648
 2056POPC   D2A28996  39.517  29.887   8.265
 2056POPC   C3A28997  39.405  29.840   7.838
 2056POPC   C4A28998  39.101  30.152   7.692
 2056POPC   C1B28999  38.780  29.726   8.637
 2056POPC   C2B29000  38.953  29.450   8.344
 2056POPC   C3B29001  38.945  29.599   7.960
 2056POPC   C4B29002  38.991  29.682   7.559
 2057POPC   NC329003  21.050  25.035   9.423
 2057POPC   PO429004  20.387  25.173   9.683
 2057POPC   GL129005  20.541  25.091   9.287
 2057POPC   GL229006  20.696  25.357   9.163
 2057POPC   C1A29007  20.558  25.006   8.817
 2057POPC   D2A29008  20.632  25.075   8.381
 2057POPC   C3A29009  20.594  24.853   7.968
 2057POPC   C4A29010  20.303  25.011   7.615
 2057POPC   C1B29011  20.614  25.505   8.717
 2057POPC   C2B29012  20.315  25.494   8.378
 2057POPC   C3B29013  20.458  25.366   7.991
 2057POPC   C4B29014  20.555  25.497   7.616
 2058POPC   NC329015   7.297  24.064   9.398
 2058POPC   PO429016   7.668  23.446   9.472
 2058POPC   GL129017   7.567  23.694   9.122
 2058POPC   GL229018   7.651  24.032   9.063
 2058POPC   C1A29019   7.254  23.680   8.817
 2058POPC   D2A29020   7.208  23.380   8.490
 2058POPC   C3A29021   7.240  23.545   8.068
 2058POPC   C4A29022   7.547  23.518   7.751
 2058POPC   C1B29023   7.666  23.921   8.634
 2058POPC   C2B29024   7.496  23.971   8.227
 2058POPC   C3B29025   7.575  24.026   7.783
 2058POPC   C4B29026   7.628  24.188   7.373
 2059POPC   NC329027  42.048  16.075   9.562
 2059POPC   PO429028  42.713  15.947   9.460
 2059POPC   GL129029  42.507  16.036   9.090
 2059POPC   GL229030  42.194  16.168   9.076
 2059POPC   C1A29031  42.534  16.130   8.675
 2059POPC   D2A29032  42.574  15.789   8.397
 2059POPC   C3A29033  42.565  15.927   7.993
 2059POPC   C4A29034  42.678  15.690   7.662
 2059POPC   C1B29035  42.104  15.850   8.811
 2059POPC   C2B29036  42.106  15.991   8.386
 2059POPC   C3B29037  42.096  16.123   7.951
 2059POPC   C4B29038  42.194  15.843   7.603
 2060POPC   NC329039  13.734  35.167   9.586
 2060POPC   PO429040  13.077  35.238   9.306
 2060POPC   GL129041  13.493  35.342   9.145
 2060POPC   GL229042  13.662  35.029   9.112
 2060POPC   C1A29043  13.800  35.559   8.870
 2060POPC   D2A29044  14.077  35.497   8.480
 2060POPC   C3A29045  13.853  35.539   8.088
 2060POPC   C4A29046  13.816  35.703   7.661
 2060POPC   C1B29047  13.918  35.076   8.773
 2060POPC   C2B29048  13.828  34.933   8.426
 2060POPC   C3B29049  13.913  35.029   8.055
 2060POPC   C4B29050  13.772  35.198   7.736
 2061POPC   NC329051   2.991  15.490   9.552
 2061POPC   PO429052   2.355  15.167   9.551
 2061POPC   GL129053   2.670  15.115   9.224
 2061POPC   GL229054   3.012  14.994   9.222
 2061POPC   C1A29055   2.779  15.153   8.796
 2061POPC   D2A29056   2.957  15.169   8.412
 2061POPC   C3A29057   2.775  15.316   8.028
 2061POPC   C4A29058   2.610  15.171   7.624
 2061POPC   C1B29059   3.234  14.952   8.826
 2061POPC   C2B29060   3.458  15.133   8.494
 2061POPC   C3B29061   3.307  15.142   8.062
 2061POPC   C4B29062   3.029  14.949   7.747
 2062POPC   NC329063   0.789  23.512   9.472
 2062POPC   PO429064   0.202  23.822   9.529
 2062POPC   GL129065   0.400  23.935   9.171
 2062POPC   GL229066   0.454  23.593   9.096
 2062POPC   C1A29067   0.244  24.052   8.782
 2062POPC   D2A29068   0.495  24.084   8.416
 2062POPC   C3A29069   0.280  24.014   8.031
 2062POPC   C4A29070   0.508  23.749   7.771
 2062POPC   C1B29071   0.554  23.644   8.687
 2062POPC   C2B29072   0.266  23.619   8.369
 2062POPC   C3B29073   0.323  23.354   8.038
 2062POPC   C4B29074   0.080  23.273   7.688
 2063POPC   NC329075   7.442  28.366   9.475
 2063POPC   PO429076   6.887  27.992   9.251
 2063POPC   GL129077   7.220  28.241   9.038
 2063POPC   GL229078   7.606  28.273   9.020
 2063POPC   C1A29079   7.266  28.391   8.648
 2063POPC   D2A29080   7.261  28.077   8.346
 2063POPC   C3A29081   7.352  28.241   7.962
 2063POPC   C4A29082   7.413  28.577   7.693
 2063POPC   C1B29083   7.661  27.999   8.721
 2063POPC   C2B29084   7.952  27.901   8.407
 2063POPC   C3B29085   7.837  27.974   8.011
 2063POPC   C4B29086   7.742  28.169   7.625
 2064POPC   NC329087  12.912  35.632   9.708
 2064POPC   PO429088  13.135  36.205   9.376
 2064POPC   GL129089  12.873  36.105   9.120
 2064POPC   GL229090  12.680  35.749   9.250
 2064POPC   C1A29091  12.879  36.322   8.738
 2064POPC   D2A29092  12.690  36.223   8.361
 2064POPC   C3A29093  12.989  36.148   8.046
 2064POPC   C4A29094  12.998  36.411   7.709
 2064POPC   C1B29095  12.636  35.802   8.821
 2064POPC   C2B29096  12.837  35.746   8.448
 2064POPC   C3B29097  12.645  35.757   8.055
 2064POPC   C4B29098  12.632  36.029   7.692
 2065POPC   NC329099  31.927  44.558   9.365
 2065POPC   PO429100  32.317   0.099   9.405
 2065POPC   GL129101  32.191  44.881   9.070
 2065POPC   GL229102  32.368  44.541   9.108
 2065POPC   C1A29103  32.395  44.892   8.711
 2065POPC   D2A29104  32.360   0.155   8.398
 2065POPC   C3A29105  32.452  44.965   8.035
 2065POPC   C4A29106  32.335  44.657   7.741
 2065POPC   C1B29107  32.145  44.446   8.720
 2065POPC   C2B29108  32.327  44.464   8.284
 2065POPC   C3B29109  32.384  44.201   7.905
 2065POPC   C4B29110  32.294  44.231   7.420
 2066POPC   NC329111   5.221  21.392   9.598
 2066POPC   PO429112   4.538  21.085   9.589
 2066POPC   GL129113   4.770  21.367   9.269
 2066POPC   GL229114   5.091  21.601   9.173
 2066POPC   C1A29115   4.894  21.270   8.856
 2066POPC   D2A29116   4.971  21.152   8.460
 2066POPC   C3A29117   4.803  21.395   8.192
 2066POPC   C4A29118   4.999  21.260   7.846
 2066POPC   C1B29119   5.218  21.669   8.745
 2066POPC   C2B29120   5.301  21.541   8.323
 2066POPC   C3B29121   5.205  21.715   7.929
 2066POPC   C4B29122   5.270  21.522   7.494
 2067POPC   NC329123  24.850  19.702   9.454
 2067POPC   PO429124  24.186  19.970   9.666
 2067POPC   GL129125  24.268  19.833   9.262
 2067POPC   GL229126  24.567  19.920   9.120
 2067POPC   C1A29127  24.219  19.905   8.787
 2067POPC   D2A29128  24.172  20.152   8.454
 2067POPC   C3A29129  24.269  19.938   8.115
 2067POPC   C4A29130  24.440  19.783   7.784
 2067POPC   C1B29131  24.661  20.163   8.760
 2067POPC   C2B29132  24.699  20.065   8.369
 2067POPC   C3B29133  24.670  20.232   7.972
 2067POPC   C4B29134  24.894  20.109   7.652
 2068POPC   NC329135  15.361  27.352   9.529
 2068POPC   PO429136  14.857  27.724   9.637
 2068POPC   GL129137  14.778  27.711   9.210
 2068POPC   GL229138  14.986  27.422   9.144
 2068POPC   C1A29139  14.843  27.753   8.766
 2068POPC   D2A29140  14.925  27.939   8.339
 2068POPC   C3A29141  15.168  27.729   8.036
 2068POPC   C4A29142  15.528  27.869   7.794
 2068POPC   C1B29143  15.365  27.519   8.882
 2068POPC   C2B29144  15.603  27.324   8.544
 2068POPC   C3B29145  15.429  27.126   8.175
 2068POPC   C4B29146  15.399  27.337   7.815
 2069POPC   NC329147  24.800  29.536   9.929
 2069POPC   PO429148  24.478  29.964   9.480
 2069POPC   GL129149  24.456  29.878   9.113
 2069POPC   GL229150  24.790  29.954   9.076
 2069POPC   C1A29151  24.445  30.013   8.714
 2069POPC   D2A29152  24.194  30.132   8.440
 2069POPC   C3A29153  24.383  30.011   8.075
 2069POPC   C4A29154  24.554  29.941   7.693
 2069POPC   C1B29155  24.875  29.680   8.755
 2069POPC   C2B29156  24.702  29.736   8.353
 2069POPC   C3B29157  24.816  29.595   7.967
 2069POPC   C4B29158  24.995  29.645   7.590
 2070POPC   NC329159  23.376  15.550   9.321
 2070POPC   PO429160  23.946  15.358   9.597
 2070POPC   GL129161  23.917  15.176   9.172
 2070POPC   GL229162  23.537  15.167   9.056
 2070POPC   C1A29163  23.922  15.386   8.780
 2070POPC   D2A29164  23.676  15.547   8.445
 2070POPC   C3A29165  23.718  15.307   8.069
 2070POPC   C4A29166  23.907  15.269   7.680
 2070POPC   C1B29167  23.307  14.880   8.767
 2070POPC   C2B29168  23.435  15.046   8.418
 2070POPC   C3B29169  23.355  14.884   8.053
 2070POPC   C4B29170  23.418  15.074   7.675
 2071POPC   NC329171  28.241  41.760   9.598
 2071POPC   PO429172  28.295  41.242   9.247
 2071POPC   GL129173  28.211  41.648   9.056
 2071POPC   GL229174  28.002  41.981   9.188
 2071POPC   C1A29175  28.354  41.472   8.650
 2071POPC   D2A29176  28.143  41.260   8.343
 2071POPC   C3A29177  28.342  41.357   7.983
 2071POPC   C4A29178  28.522  41.706   7.759
 2071POPC   C1B29179  28.158  42.094   8.800
 2071POPC   C2B29180  28.309  41.924   8.456
 2071POPC   C3B29181  28.137  41.812   8.089
 2071POPC   C4B29182  28.020  42.077   7.740
 2072POPC   NC329183  30.323  21.509   9.351
 2072POPC   PO429184  29.791  21.135   9.471
 2072POPC   GL129185  29.997  21.168   9.108
 2072POPC   GL229186  30.339  21.019   9.182
 2072POPC   C1A29187  29.910  21.459   8.779
 2072POPC   D2A29188  29.712  21.558   8.379
 2072POPC   C3A29189  29.769  21.221   8.098
 2072POPC   C4A29190  29.864  21.481   7.742
 2072POPC   C1B29191  30.356  21.139   8.741
 2072POPC   C2B29192  30.199  21.333   8.384
 2072POPC   C3B29193  30.251  21.258   7.986
 2072POPC   C4B29194  30.127  21.092   7.595
 2073POPC   NC329195  22.530  15.032   9.447
 2073POPC   PO429196  22.191  15.679   9.616
 2073POPC   GL129197  22.171  15.475   9.187
 2073POPC   GL229198  22.229  15.130   9.052
 2073POPC   C1A29199  22.043  15.467   8.728
 2073POPC   D2A29200  22.240  15.464   8.342
 2073POPC   C3A29201  22.016  15.363   7.977
 2073POPC   C4A29202  22.161  15.362   7.549
 2073POPC   C1B29203  22.368  14.876   8.715
 2073POPC   C2B29204  22.417  14.951   8.270
 2073POPC   C3B29205  22.313  14.941   7.838
 2073POPC   C4B29206  22.514  15.020   7.443
 2074POPC   NC329207  30.045  23.097   9.768
 2074POPC   PO429208  30.639  22.930   9.473
 2074POPC   GL129209  30.932  22.862   9.155
 2074POPC   GL229210  31.093  23.177   9.030
 2074POPC   C1A29211  30.893  22.732   8.733
 2074POPC   D2A29212  30.899  22.969   8.356
 2074POPC   C3A29213  30.688  22.713   8.063
 2074POPC   C4A29214  30.563  22.561   7.699
 2074POPC   C1B29215  30.676  23.201   8.826
 2074POPC   C2B29216  30.509  23.331   8.444
 2074POPC   C3B29217  30.535  23.201   8.033
 2074POPC   C4B29218  30.883  23.147   7.738
 2075POPC   NC329219  21.027  42.730   9.496
 2075POPC   PO429220  20.581  42.292   9.689
 2075POPC   GL129221  20.665  42.312   9.245
 2075POPC   GL229222  20.817  42.579   9.063
 2075POPC   C1A29223  20.724  42.111   8.840
 2075POPC   D2A29224  20.460  42.170   8.494
 2075POPC   C3A29225  20.535  42.116   8.086
 2075POPC   C4A29226  20.835  42.224   7.810
 2075POPC   C1B29227  20.443  42.576   8.827
 2075POPC   C2B29228  20.356  42.676   8.393
 2075POPC   C3B29229  20.526  42.618   7.973
 2075POPC   C4B29230  20.328  42.405   7.643
 2076POPC   NC329231  24.421   3.444   9.646
 2076POPC   PO429232  25.078   3.344   9.470
 2076POPC   GL129233  24.699   3.445   9.180
 2076POPC   GL229234  24.329   3.369   9.165
 2076POPC   C1A29235  24.679   3.614   8.744
 2076POPC   D2A29236  24.573   3.734   8.309
 2076POPC   C3A29237  24.774   3.561   7.955
 2076POPC   C4A29238  24.739   3.589   7.488
 2076POPC   C1B29239  24.180   3.437   8.745
 2076POPC   C2B29240  24.172   3.412   8.313
 2076POPC   C3B29241  24.441   3.177   8.057
 2076POPC   C4B29242  24.537   3.162   7.618
 2077POPC   NC329243  10.001  21.596   9.578
 2077POPC   PO429244   9.352  21.797   9.427
 2077POPC   GL129245   9.667  21.602   9.136
 2077POPC   GL229246   9.954  21.768   9.099
 2077POPC   C1A29247   9.621  21.303   8.787
 2077POPC   D2A29248   9.787  21.087   8.432
 2077POPC   C3A29249   9.630  21.245   8.051
 2077POPC   C4A29250   9.716  21.324   7.645
 2077POPC   C1B29251  10.064  21.541   8.747
 2077POPC   C2B29252   9.929  21.578   8.331
 2077POPC   C3B29253  10.076  21.502   7.927
 2077POPC   C4B29254  10.044  21.660   7.478
 2078POPC   NC329255  37.657  43.257   9.824
 2078POPC   PO429256  38.243  43.143   9.542
 2078POPC   GL129257  38.003  43.135   9.128
 2078POPC   GL229258  37.675  43.058   9.197
 2078POPC   C1A29259  37.811  43.125   8.694
 2078POPC   D2A29260  38.093  43.280   8.362
 2078POPC   C3A29261  38.029  43.111   8.037
 2078POPC   C4A29262  37.768  42.978   7.746
 2078POPC   C1B29263  37.437  42.750   8.960
 2078POPC   C2B29264  37.466  42.642   8.528
 2078POPC   C3B29265  37.549  42.782   8.150
 2078POPC   C4B29266  37.376  42.622   7.790
 2079POPC   NC329267  33.310  44.366   9.479
 2079POPC   PO429268  33.105   0.001   9.676
 2079POPC   GL129269  32.979  44.767   9.300
 2079POPC   GL229270  32.711  44.931   9.119
 2079POPC   C1A29271  32.983  44.548   8.885
 2079POPC   D2A29272  32.803  44.693   8.483
 2079POPC   C3A29273  32.851  44.453   8.096
 2079POPC   C4A29274  33.231  44.532   7.793
 2079POPC   C1B29275  32.819   0.179   8.738
 2079POPC   C2B29276  32.856   0.215   8.299
 2079POPC   C3B29277  32.973  44.927   8.063
 2079POPC   C4B29278  32.807  44.800   7.699
 2080POPC   NC329279  14.827  21.879   9.424
 2080POPC   PO429280  14.393  22.367   9.210
 2080POPC   GL129281  14.380  21.945   9.214
 2080POPC   GL229282  14.088  21.911   9.093
 2080POPC   C1A29283  14.565  21.843   8.838
 2080POPC   D2A29284  14.667  22.238   8.573
 2080POPC   C3A29285  14.700  22.222   8.125
 2080POPC   C4A29286  14.493  22.167   7.723
 2080POPC   C1B29287  14.102  22.006   8.704
 2080POPC   C2B29288  14.189  22.272   8.415
 2080POPC   C3B29289  14.095  22.274   8.024
 2080POPC   C4B29290  14.076  21.879   7.858
 2081POPC   NC329291  41.733  27.059   9.338
 2081POPC   PO429292  41.364  26.486   9.487
 2081POPC   GL129293  41.480  26.645   9.096
 2081POPC   GL229294  41.209  26.916   9.093
 2081POPC   C1A29295  41.780  26.622   8.722
 2081POPC   D2A29296  41.991  26.479   8.353
 2081POPC   C3A29297  41.939  26.735   7.982
 2081POPC   C4A29298  41.583  26.855   7.750
 2081POPC   C1B29299  41.408  26.984   8.675
 2081POPC   C2B29300  41.433  27.022   8.204
 2081POPC   C3B29301  41.144  27.087   7.822
 2081POPC   C4B29302  41.324  27.228   7.422
 2082POPC   NC329303  35.813  40.196   9.838
 2082POPC   PO429304  35.288  39.871   9.543
 2082POPC   GL129305  35.290  40.127   9.212
 2082POPC   GL229306  34.997  40.289   9.312
 2082POPC   C1A29307  35.329  39.929   8.811
 2082POPC   D2A29308  35.492  40.044   8.437
 2082POPC   C3A29309  35.356  39.843   8.091
 2082POPC   C4A29310  35.453  40.012   7.696
 2082POPC   C1B29311  34.908  40.193   8.849
 2082POPC   C2B29312  34.931  39.966   8.423
 2082POPC   C3B29313  34.939  40.109   7.986
 2082POPC   C4B29314  34.944  40.546   7.885
 2083POPC   NC329315   2.526   7.840   9.519
 2083POPC   PO429316   2.686   7.247   9.625
 2083POPC   GL129317   2.614   7.226   9.165
 2083POPC   GL229318   2.581   7.579   9.100
 2083POPC   C1A29319   2.501   6.996   8.745
 2083POPC   D2A29320   2.338   7.177   8.329
 2083POPC   C3A29321   2.588   7.385   7.966
 2083POPC   C4A29322   2.803   7.281   7.565
 2083POPC   C1B29323   2.532   7.510   8.706
 2083POPC   C2B29324   2.800   7.603   8.378
 2083POPC   C3B29325   2.893   7.833   8.032
 2083POPC   C4B29326   2.792   7.783   7.617
 2084POPC   NC329327  14.586  20.951   9.501
 2084POPC   PO429328  14.482  20.298   9.639
 2084POPC   GL129329  14.392  20.535   9.263
 2084POPC   GL229330  14.760  20.509   9.229
 2084POPC   C1A29331  14.465  20.756   8.851
 2084POPC   D2A29332  14.376  20.598   8.418
 2084POPC   C3A29333  14.218  20.783   8.020
 2084POPC   C4A29334  14.166  20.811   7.557
 2084POPC   C1B29335  14.901  20.484   8.808
 2084POPC   C2B29336  14.865  20.753   8.417
 2084POPC   C3B29337  14.739  20.659   7.986
 2084POPC   C4B29338  14.952  20.602   7.588
 2085POPC   NC329339  43.112  34.110   9.443
 2085POPC   PO429340  43.308  33.491   9.526
 2085POPC   GL129341  43.321  33.470   9.064
 2085POPC   GL229342  43.026  33.646   9.071
 2085POPC   C1A29343  43.238  33.581   8.602
 2085POPC   D2A29344  43.152  33.936   8.303
 2085POPC   C3A29345  43.320  33.778   7.932
 2085POPC   C4A29346  43.053  33.437   7.830
 2085POPC   C1B29347  43.015  34.018   8.800
 2085POPC   C2B29348  42.661  34.145   8.525
 2085POPC   C3B29349  42.519  33.973   8.151
 2085POPC   C4B29350  42.832  33.893   7.813
 2086POPC   NC329351  39.421  26.521   9.522
 2086POPC   PO429352  39.172  27.213   9.530
 2086POPC   GL129353  39.185  26.871   9.224
 2086POPC   GL229354  38.990  26.557   9.245
 2086POPC   C1A29355  39.334  26.635   8.859
 2086POPC   D2A29356  39.454  26.809   8.470
 2086POPC   C3A29357  39.304  26.759   8.058
 2086POPC   C4A29358  39.321  27.043   7.720
 2086POPC   C1B29359  38.855  26.505   8.811
 2086POPC   C2B29360  38.965  26.573   8.405
 2086POPC   C3B29361  38.833  26.571   7.988
 2086POPC   C4B29362  39.070  26.632   7.591
 2087POPC   NC329363   4.149  31.652   9.509
 2087POPC   PO429364   4.452  31.058   9.478
 2087POPC   GL129365   4.362  31.319   9.142
 2087POPC   GL229366   4.456  31.659   9.100
 2087POPC   C1A29367   4.515  31.267   8.719
 2087POPC   D2A29368   4.444  31.508   8.357
 2087POPC   C3A29369   4.300  31.334   7.984
 2087POPC   C4A29370   4.640  31.503   7.771
 2087POPC   C1B29371   4.141  31.626   8.761
 2087POPC   C2B29372   3.968  31.676   8.337
 2087POPC   C3B29373   4.186  31.836   8.001
 2087POPC   C4B29374   4.001  31.654   7.689
 2088POPC   NC329375  11.906   5.258   9.756
 2088POPC   PO429376  12.399   5.219   9.242
 2088POPC   GL129377  12.254   4.970   8.929
 2088POPC   GL229378  12.557   4.840   8.854
 2088POPC   C1A29379  11.963   5.101   8.582
 2088POPC   D2A29380  11.801   5.499   8.358
 2088POPC   C3A29381  11.797   5.412   7.911
 2088POPC   C4A29382  11.885   5.013   7.723
 2088POPC   C1B29383  12.492   5.105   8.507
 2088POPC   C2B29384  12.265   5.103   8.168
 2088POPC   C3B29385  12.467   4.886   7.900
 2088POPC   C4B29386  12.377   5.162   7.608
 2089POPC   NC329387  33.477   0.208   9.484
 2089POPC   PO429388  33.988   0.607   9.543
 2089POPC   GL129389  33.791   0.474   9.173
 2089POPC   GL229390  33.879   0.107   9.158
 2089POPC   C1A29391  33.875   0.532   8.749
 2089POPC   D2A29392  33.668   0.422   8.399
 2089POPC   C3A29393  33.796   0.614   8.025
 2089POPC   C4A29394  33.811   0.795   7.622
 2089POPC   C1B29395  33.746   0.016   8.747
 2089POPC   C2B29396  33.767  44.908   8.338
 2089POPC   C3B29397  33.841   0.102   7.979
 2089POPC   C4B29398  33.653   0.317   7.635
 2090POPC   NC329399  28.886  11.901   9.785
 2090POPC   PO429400  29.267  12.412   9.538
 2090POPC   GL129401  29.037  12.037   9.268
 2090POPC   GL229402  28.751  12.136   9.075
 2090POPC   C1A29403  29.028  11.811   8.807
 2090POPC   D2A29404  29.219  11.763   8.355
 2090POPC   C3A29405  29.068  11.899   7.936
 2090POPC   C4A29406  29.070  12.031   7.491
 2090POPC   C1B29407  28.932  12.281   8.665
 2090POPC   C2B29408  29.110  12.304   8.244
 2090POPC   C3B29409  28.950  12.416   7.820
 2090POPC   C4B29410  28.640  12.273   7.443
 2091POPC   NC329411   9.278  39.332   9.617
 2091POPC   PO429412   8.654  39.060   9.673
 2091POPC   GL129413   8.893  39.027   9.297
 2091POPC   GL229414   9.222  38.869   9.281
 2091POPC   C1A29415   9.058  39.258   8.914
 2091POPC   D2A29416   9.252  39.251   8.480
 2091POPC   C3A29417   9.135  39.340   8.051
 2091POPC   C4A29418   9.444  39.438   7.735
 2091POPC   C1B29419   8.996  38.758   8.880
 2091POPC   C2B29420   8.864  38.908   8.480
 2091POPC   C3B29421   9.049  38.823   8.087
 2091POPC   C4B29422   9.248  38.954   7.729
 2092POPC   NC329423  44.790  14.236   9.598
 2092POPC   PO429424  44.874  14.854   9.319
 2092POPC   GL129425  44.610  14.575   9.114
 2092POPC   GL229426  44.720  14.230   9.054
 2092POPC   C1A29427  44.409  14.426   8.723
 2092POPC   D2A29428  44.604  14.339   8.326
 2092POPC   C3A29429  44.328  14.504   8.001
 2092POPC   C4A29430  44.333  14.548   7.566
 2092POPC   C1B29431  44.872  14.026   8.649
 2092POPC   C2B29432  44.766  13.818   8.253
 2092POPC   C3B29433  44.552  14.011   7.939
 2092POPC   C4B29434  44.772  14.391   7.787
 2093POPC   NC329435  20.955  26.030   9.464
 2093POPC   PO429436  21.466  26.409   9.452
 2093POPC   GL129437  21.559  26.062   9.176
 2093POPC   GL229438  21.246  25.965   9.049
 2093POPC   C1A29439  21.795  26.108   8.801
 2093POPC   D2A29440  21.547  26.251   8.455
 2093POPC   C3A29441  21.710  26.105   8.075
 2093POPC   C4A29442  21.609  26.241   7.661
 2093POPC   C1B29443  21.085  25.801   8.679
 2093POPC   C2B29444  21.321  25.774   8.288
 2093POPC   C3B29445  21.274  25.922   7.860
 2093POPC   C4B29446  21.102  26.281   7.646
 2094POPC   NC329447  25.236  40.325   9.382
 2094POPC   PO429448  25.568  40.959   9.569
 2094POPC   GL129449  25.306  40.828   9.240
 2094POPC   GL229450  25.349  41.113   9.061
 2094POPC   C1A29451  25.093  40.743   8.826
 2094POPC   D2A29452  25.223  40.854   8.425
 2094POPC   C3A29453  24.999  40.876   8.061
 2094POPC   C4A29454  24.887  40.582   7.754
 2094POPC   C1B29455  25.622  40.996   8.735
 2094POPC   C2B29456  25.740  40.841   8.340
 2094POPC   C3B29457  25.498  40.691   7.995
 2094POPC   C4B29458  25.724  40.738   7.637
 2095POPC   NC329459  11.093   1.439   9.808
 2095POPC   PO429460  11.324   1.576   9.173
 2095POPC   GL129461  11.156   1.183   8.976
 2095POPC   GL229462  10.822   1.170   8.849
 2095POPC   C1A29463  11.158   0.933   8.578
 2095POPC   D2A29464  11.112   1.048   8.157
 2095POPC   C3A29465  11.503   1.220   7.947
 2095POPC   C4A29466  11.551   0.975   7.565
 2095POPC   C1B29467  10.961   1.438   8.518
 2095POPC   C2B29468  11.039   1.537   8.081
 2095POPC   C3B29469  11.084   1.252   7.681
 2095POPC   C4B29470  11.089   1.007   7.304
 2096POPC   NC329471   7.774  23.032   9.640
 2096POPC   PO429472   8.425  22.976   9.694
 2096POPC   GL129473   8.178  22.913   9.315
 2096POPC   GL229474   8.455  22.801   9.118
 2096POPC   C1A29475   8.027  22.958   8.891
 2096POPC   D2A29476   8.211  22.928   8.473
 2096POPC   C3A29477   7.978  22.939   8.081
 2096POPC   C4A29478   8.013  23.323   7.867
 2096POPC   C1B29479   8.626  22.789   8.740
 2096POPC   C2B29480   8.601  22.601   8.325
 2096POPC   C3B29481   8.470  22.909   7.995
 2096POPC   C4B29482   8.394  23.080   7.558
 2097POPC   NC329483  10.981  35.992   9.371
 2097POPC   PO429484  11.498  36.292   9.506
 2097POPC   GL129485  11.297  36.264   9.073
 2097POPC   GL229486  10.944  36.154   8.915
 2097POPC   C1A29487  11.374  35.916   8.786
 2097POPC   D2A29488  11.192  35.779   8.416
 2097POPC   C3A29489  11.229  36.111   8.125
 2097POPC   C4A29490  11.253  36.025   7.691
 2097POPC   C1B29491  11.009  36.460   8.612
 2097POPC   C2B29492  10.906  36.538   8.170
 2097POPC   C3B29493  10.828  36.280   7.806
 2097POPC   C4B29494  10.830  36.132   7.371
 2098POPC   NC329495  36.430  40.588   9.461
 2098POPC   PO429496  35.799  40.654   9.710
 2098POPC   GL129497  35.767  40.562   9.251
 2098POPC   GL229498  35.746  40.847   9.075
 2098POPC   C1A29499  36.017  40.454   8.839
 2098POPC   D2A29500  36.193  40.607   8.417
 2098POPC   C3A29501  36.040  40.494   8.004
 2098POPC   C4A29502  36.030  40.592   7.529
 2098POPC   C1B29503  35.998  40.955   8.721
 2098POPC   C2B29504  35.912  40.986   8.275
 2098POPC   C3B29505  36.047  41.002   7.874
 2098POPC   C4B29506  36.499  40.980   7.812
 2099POPC   NC329507  13.400  13.441   9.516
 2099POPC   PO429508  13.859  13.906   9.539
 2099POPC   GL129509  13.770  13.586   9.215
 2099POPC   GL229510  13.526  13.800   9.087
 2099POPC   C1A29511  13.594  13.357   8.858
 2099POPC   D2A29512  13.668  13.335   8.430
 2099POPC   C3A29513  13.520  13.617   8.158
 2099POPC   C4A29514  13.409  13.324   7.856
 2099POPC   C1B29515  13.679  14.092   8.758
 2099POPC   C2B29516  13.710  14.083   8.297
 2099POPC   C3B29517  13.874  14.088   7.874
 2099POPC   C4B29518  13.880  13.941   7.422
 2100POPC   NC329519  12.873  24.515   9.438
 2100POPC   PO429520  12.800  23.909   9.561
 2100POPC   GL129521  12.783  24.137   9.130
 2100POPC   GL229522  12.576  24.468   9.045
 2100POPC   C1A29523  12.993  24.300   8.752
 2100POPC   D2A29524  12.921  24.600   8.432
 2100POPC   C3A29525  13.022  24.417   8.031
 2100POPC   C4A29526  13.107  24.760   7.797
 2100POPC   C1B29527  12.425  24.214   8.741
 2100POPC   C2B29528  12.612  24.212   8.352
 2100POPC   C3B29529  12.528  24.512   8.005
 2100POPC   C4B29530  12.280  24.416   7.664
 2101POPC   NC329531   9.126   9.786   9.430
 2101POPC   PO429532   8.482   9.391   9.431
 2101POPC   GL129533   8.779   9.558   9.109
 2101POPC   GL229534   9.102   9.417   9.080
 2101POPC   C1A29535   8.772   9.763   8.727
 2101POPC   D2A29536   8.517   9.691   8.359
 2101POPC   C3A29537   8.722   9.634   7.946
 2101POPC   C4A29538   8.967   9.725   7.551
 2101POPC   C1B29539   9.276   9.620   8.733
 2101POPC   C2B29540   9.217   9.889   8.386
 2101POPC   C3B29541   9.242   9.714   8.023
 2101POPC   C4B29542   9.420   9.547   7.699
 2102POPC   NC329543  43.257  36.240   9.533
 2102POPC   PO429544  42.747  35.859   9.476
 2102POPC   GL129545  43.031  35.824   9.123
 2102POPC   GL229546  43.403  35.914   9.133
 2102POPC   C1A29547  43.020  35.994   8.676
 2102POPC   D2A29548  42.720  35.882   8.343
 2102POPC   C3A29549  42.743  36.060   7.925
 2102POPC   C4A29550  42.980  36.089   7.576
 2102POPC   C1B29551  43.500  36.232   8.813
 2102POPC   C2B29552  43.377  36.258   8.410
 2102POPC   C3B29553  43.268  36.082   8.031
 2102POPC   C4B29554  43.486  36.084   7.639
 2103POPC   NC329555  31.963  35.704   9.515
 2103POPC   PO429556  31.998  35.069   9.736
 2103POPC   GL129557  32.099  35.178   9.315
 2103POPC   GL229558  32.178  35.493   9.110
 2103POPC   C1A29559  32.084  35.036   8.904
 2103POPC   D2A29560  32.301  34.927   8.541
 2103POPC   C3A29561  32.206  35.222   8.246
 2103POPC   C4A29562  32.301  35.357   7.826
 2103POPC   C1B29563  31.999  35.503   8.664
 2103POPC   C2B29564  32.000  35.686   8.211
 2103POPC   C3B29565  31.834  35.543   7.775
 2103POPC   C4B29566  31.886  35.747   7.327
 2104POPC   NC329567  38.282  29.554   9.463
 2104POPC   PO429568  38.610  28.971   9.495
 2104POPC   GL129569  38.488  29.188   9.152
 2104POPC   GL229570  38.209  28.933   9.109
 2104POPC   C1A29571  38.604  29.268   8.733
 2104POPC   D2A29572  38.371  29.122   8.377
 2104POPC   C3A29573  38.535  29.142   8.010
 2104POPC   C4A29574  38.680  29.266   7.652
 2104POPC   C1B29575  38.104  29.236   8.784
 2104POPC   C2B29576  37.894  29.289   8.390
 2104POPC   C3B29577  38.062  29.386   8.008
 2104POPC   C4B29578  38.161  29.164   7.647
 2105POPC   NC329579  29.234  43.417   9.299
 2105POPC   PO429580  28.823  43.062   9.684
 2105POPC   GL129581  28.920  42.975   9.215
 2105POPC   GL229582  29.246  43.027   8.981
 2105POPC   C1A29583  28.838  42.808   8.798
 2105POPC   D2A29584  28.942  43.097   8.452
 2105POPC   C3A29585  29.051  42.968   8.020
 2105POPC   C4A29586  28.842  43.231   7.730
 2105POPC   C1B29587  29.496  42.753   8.739
 2105POPC   C2B29588  29.682  42.790   8.351
 2105POPC   C3B29589  29.560  43.126   8.070
 2105POPC   C4B29590  29.524  43.004   7.660
 2106POPC   NC329591  28.740  41.166   9.374
 2106POPC   PO429592  29.049  41.816   9.386
 2106POPC   GL129593  29.166  41.381   9.130
 2106POPC   GL229594  29.530  41.207   9.123
 2106POPC   C1A29595  29.078  41.221   8.716
 2106POPC   D2A29596  28.759  41.239   8.356
 2106POPC   C3A29597  28.925  41.506   8.014
 2106POPC   C4A29598  28.977  41.952   7.846
 2106POPC   C1B29599  29.539  41.477   8.748
 2106POPC   C2B29600  29.320  41.516   8.352
 2106POPC   C3B29601  29.476  41.490   7.920
 2106POPC   C4B29602  29.452  41.476   7.451
 2107POPC   NC329603   0.954  40.305   9.354
 2107POPC   PO429604   1.658  39.981   9.467
 2107POPC   GL129605   1.342  40.023   9.149
 2107POPC   GL229606   1.153  39.684   9.145
 2107POPC   C1A29607   1.252  40.234   8.783
 2107POPC   D2A29608   1.464  40.124   8.415
 2107POPC   C3A29609   1.237  40.114   8.045
 2107POPC   C4A29610   1.366  39.996   7.641
 2107POPC   C1B29611   1.290  39.729   8.729
 2107POPC   C2B29612   1.133  39.698   8.315
 2107POPC   C3B29613   1.236  39.577   7.878
 2107POPC   C4B29614   1.079  39.629   7.401
 2108POPC   NC329615  28.849   1.507   9.576
 2108POPC   PO429616  29.366   1.020   9.575
 2108POPC   GL129617  29.197   0.989   9.151
 2108POPC   GL229618  28.844   1.064   9.173
 2108POPC   C1A29619  29.028   0.907   8.705
 2108POPC   D2A29620  28.926   0.979   8.233
 2108POPC   C3A29621  29.123   1.298   7.968
 2108POPC   C4A29622  29.246   1.197   7.554
 2108POPC   C1B29623  28.632   1.292   8.782
 2108POPC   C2B29624  28.599   1.433   8.329
 2108POPC   C3B29625  28.625   1.241   7.898
 2108POPC   C4B29626  28.739   1.356   7.484
 2109POPC   NC329627   3.417  21.184   9.345
 2109POPC   PO429628   3.869  21.681   9.470
 2109POPC   GL129629   3.719  21.477   9.058
 2109POPC   GL229630   3.332  21.434   8.925
 2109POPC   C1A29631   3.771  21.383   8.621
 2109POPC   D2A29632   3.377  21.495   8.427
 2109POPC   C3A29633   3.312  21.550   8.031
 2109POPC   C4A29634   3.604  21.366   7.743
 2109POPC   C1B29635   3.372  21.039   8.632
 2109POPC   C2B29636   3.562  21.061   8.190
 2109POPC   C3B29637   3.648  20.866   7.781
 2109POPC   C4B29638   3.430  20.999   7.411
 2110POPC   NC329639  11.169  33.725   9.475
 2110POPC   PO429640  11.570  34.219   9.513
 2110POPC   GL129641  11.379  34.068   9.149
 2110POPC   GL229642  11.532  33.745   9.073
 2110POPC   C1A29643  11.228  34.042   8.746
 2110POPC   D2A29644  11.386  33.836   8.384
 2110POPC   C3A29645  11.255  33.999   7.982
 2110POPC   C4A29646  11.472  34.029   7.640
 2110POPC   C1B29647  11.215  33.533   8.821
 2110POPC   C2B29648  11.065  33.432   8.430
 2110POPC   C3B29649  11.130  33.511   8.051
 2110POPC   C4B29650  10.951  33.628   7.707
 2111POPC   NC329651  37.424  29.126   9.748
 2111POPC   PO429652  36.774  29.014   9.571
 2111POPC   GL129653  37.116  29.068   9.336
 2111POPC   GL229654  37.211  29.448   9.385
 2111POPC   C1A29655  37.125  28.937   8.902
 2111POPC   D2A29656  37.078  29.041   8.467
 2111POPC   C3A29657  36.962  28.970   8.043
 2111POPC   C4A29658  37.306  28.804   7.877
 2111POPC   C1B29659  37.100  29.457   8.940
 2111POPC   C2B29660  36.913  29.515   8.549
 2111POPC   C3B29661  36.999  29.615   8.105
 2111POPC   C4B29662  36.732  29.431   7.794
 2112POPC   NC329663  12.695  31.180   9.516
 2112POPC   PO429664  13.070  31.791   9.487
 2112POPC   GL129665  12.914  31.531   9.138
 2112POPC   GL229666  12.534  31.511   9.136
 2112POPC   C1A29667  12.825  31.620   8.707
 2112POPC   D2A29668  12.459  31.599   8.441
 2112POPC   C3A29669  12.591  31.537   8.018
 2112POPC   C4A29670  12.874  31.273   7.748
 2112POPC   C1B29671  12.550  31.203   8.796
 2112POPC   C2B29672  12.348  31.083   8.403
 2112POPC   C3B29673  12.475  31.040   7.983
 2112POPC   C4B29674  12.598  30.736   7.700
 2113POPC   NC329675  32.587  23.792   9.406
 2113POPC   PO429676  33.270  23.639   9.621
 2113POPC   GL129677  33.120  23.608   9.234
 2113POPC   GL229678  32.990  23.875   9.097
 2113POPC   C1A29679  33.124  23.491   8.806
 2113POPC   D2A29680  33.316  23.474   8.403
 2113POPC   C3A29681  33.085  23.724   8.094
 2113POPC   C4A29682  33.182  23.993   7.748
 2113POPC   C1B29683  32.704  23.830   8.773
 2113POPC   C2B29684  32.771  24.004   8.400
 2113POPC   C3B29685  32.621  24.087   8.022
 2113POPC   C4B29686  32.719  23.875   7.678
 2114POPC   NC329687  24.293  23.523   9.526
 2114POPC   PO429688  24.698  23.203   9.318
 2114POPC   GL129689  24.503  23.565   9.056
 2114POPC   GL229690  24.386  23.896   9.179
 2114POPC   C1A29691  24.252  23.663   8.680
 2114POPC   D2A29692  24.350  23.475   8.279
 2114POPC   C3A29693  24.123  23.516   7.929
 2114POPC   C4A29694  24.292  23.512   7.541
 2114POPC   C1B29695  24.607  24.020   8.791
 2114POPC   C2B29696  24.585  23.932   8.338
 2114POPC   C3B29697  24.530  23.826   7.900
 2114POPC   C4B29698  24.551  24.107   7.505
 2115POPC   NC329699  38.731   9.587   9.533
 2115POPC   PO429700  38.221   9.973   9.620
 2115POPC   GL129701  38.366   9.797   9.199
 2115POPC   GL229702  38.670   9.576   9.044
 2115POPC   C1A29703  38.146   9.970   8.863
 2115POPC   D2A29704  37.963   9.831   8.502
 2115POPC   C3A29705  38.233   9.814   8.138
 2115POPC   C4A29706  38.305   9.737   7.714
 2115POPC   C1B29707  38.577   9.755   8.672
 2115POPC   C2B29708  38.586   9.485   8.354
 2115POPC   C3B29709  38.757   9.596   7.988
 2115POPC   C4B29710  38.730  10.000   7.844
 2116POPC   NC329711  10.298   4.059   9.550
 2116POPC   PO429712  10.724   4.549   9.677
 2116POPC   GL129713  10.535   4.477   9.224
 2116POPC   GL229714  10.453   4.151   9.095
 2116POPC   C1A29715  10.452   4.555   8.768
 2116POPC   D2A29716  10.310   4.692   8.360
 2116POPC   C3A29717  10.499   4.537   7.987
 2116POPC   C4A29718  10.354   4.380   7.601
 2116POPC   C1B29719  10.506   3.994   8.708
 2116POPC   C2B29720  10.429   4.173   8.337
 2116POPC   C3B29721  10.563   4.019   7.951
 2116POPC   C4B29722  10.561   3.919   7.517
 2117POPC   NC329723  33.340  35.988   9.441
 2117POPC   PO429724  33.905  36.296   9.284
 2117POPC   GL129725  33.756  35.895   9.139
 2117POPC   GL229726  34.041  35.677   9.203
 2117POPC   C1A29727  33.504  35.826   8.747
 2117POPC   D2A29728  33.425  36.149   8.430
 2117POPC   C3A29729  33.560  36.103   8.026
 2117POPC   C4A29730  33.542  35.836   7.687
 2117POPC   C1B29731  34.086  35.873   8.760
 2117POPC   C2B29732  33.912  35.903   8.352
 2117POPC   C3B29733  34.026  35.973   7.913
 2117POPC   C4B29734  34.108  36.436   7.843
 2118POPC   NC329735   3.678   6.770   9.498
 2118POPC   PO429736   3.492   6.292   9.776
 2118POPC   GL129737   3.496   6.398   9.236
 2118POPC   GL229738   3.679   6.230   9.020
 2118POPC   C1A29739   3.328   6.726   8.862
 2118POPC   D2A29740   3.531   6.965   8.455
 2118POPC   C3A29741   3.488   6.876   7.981
 2118POPC   C4A29742   3.388   6.484   7.753
 2118POPC   C1B29743   3.686   6.466   8.650
 2118POPC   C2B29744   3.612   6.454   8.235
 2118POPC   C3B29745   3.829   6.273   7.910
 2118POPC   C4B29746   3.814   6.420   7.494
 2119POPC   NC329747  28.706   7.533   9.357
 2119POPC   PO429748  29.226   7.652   9.623
 2119POPC   GL129749  29.229   7.538   9.192
 2119POPC   GL229750  29.110   7.214   9.186
 2119POPC   C1A29751  29.100   7.636   8.753
 2119POPC   D2A29752  29.066   7.829   8.334
 2119POPC   C3A29753  29.029   7.627   7.906
 2119POPC   C4A29754  29.077   7.748   7.442
 2119POPC   C1B29755  28.940   7.148   8.778
 2119POPC   C2B29756  29.055   7.298   8.357
 2119POPC   C3B29757  29.147   7.121   7.953
 2119POPC   C4B29758  29.143   7.251   7.512
 2120POPC   NC329759  23.621   4.010   9.773
 2120POPC   PO429760  23.951   3.515   9.521
 2120POPC   GL129761  23.822   3.512   9.169
 2120POPC   GL229762  23.633   3.781   9.173
 2120POPC   C1A29763  23.646   3.300   8.831
 2120POPC   D2A29764  23.344   3.356   8.535
 2120POPC   C3A29765  23.467   3.408   8.141
 2120POPC   C4A29766  23.717   3.633   7.859
 2120POPC   C1B29767  23.811   3.776   8.765
 2120POPC   C2B29768  23.803   3.759   8.358
 2120POPC   C3B29769  24.086   3.891   8.068
 2120POPC   C4B29770  24.293   3.607   7.807
 2121POPC   NC329771  39.555  15.174   9.771
 2121POPC   PO429772  39.168  15.761   9.668
 2121POPC   GL129773  39.361  15.497   9.311
 2121POPC   GL229774  39.053  15.431   9.109
 2121POPC   C1A29775  39.473  15.429   8.844
 2121POPC   D2A29776  39.563  15.375   8.405
 2121POPC   C3A29777  39.262  15.409   8.066
 2121POPC   C4A29778  39.312  15.309   7.632
 2121POPC   C1B29779  38.967  15.172   8.728
 2121POPC   C2B29780  39.252  14.939   8.440
 2121POPC   C3B29781  39.250  14.889   8.004
 2121POPC   C4B29782  38.890  15.076   7.764
 2122POPC   NC329783   2.357   9.715   9.535
 2122POPC   PO429784   1.736  10.043   9.268
 2122POPC   GL129785   1.920   9.876   8.950
 2122POPC   GL229786   2.220   9.909   9.098
 2122POPC   C1A29787   1.880   9.788   8.534
 2122POPC   D2A29788   2.128   9.699   8.205
 2122POPC   C3A29789   1.920   9.529   7.898
 2122POPC   C4A29790   1.810   9.883   7.712
 2122POPC   C1B29791   2.369   9.788   8.726
 2122POPC   C2B29792   2.509   9.989   8.397
 2122POPC   C3B29793   2.542  10.080   7.989
 2122POPC   C4B29794   2.307   9.848   7.700
 2123POPC   NC329795  34.866  22.142   9.401
 2123POPC   PO429796  34.219  22.203   9.469
 2123POPC   GL129797  34.445  22.179   9.075
 2123POPC   GL229798  34.771  22.221   8.924
 2123POPC   C1A29799  34.380  22.192   8.634
 2123POPC   D2A29800  34.338  22.351   8.230
 2123POPC   C3A29801  34.425  21.983   7.972
 2123POPC   C4A29802  34.437  21.980   7.533
 2123POPC   C1B29803  34.789  22.486   8.560
 2123POPC   C2B29804  34.874  22.316   8.161
 2123POPC   C3B29805  34.703  22.351   7.763
 2123POPC   C4B29806  34.714  22.506   7.270
 2124POPC   NC329807  43.595  40.036   9.514
 2124POPC   PO429808  44.097  39.623   9.278
 2124POPC   GL129809  43.803  39.894   9.037
 2124POPC   GL229810  43.664  40.250   9.068
 2124POPC   C1A29811  43.684  39.963   8.615
 2124POPC   D2A29812  43.633  40.008   8.175
 2124POPC   C3A29813  43.879  39.818   7.858
 2124POPC   C4A29814  44.003  39.991   7.464
 2124POPC   C1B29815  43.955  40.388   8.753
 2124POPC   C2B29816  44.102  40.533   8.349
 2124POPC   C3B29817  43.964  40.353   7.934
 2124POPC   C4B29818  43.592  40.271   7.720
 2125POPC   NC329819   7.457   6.201   9.669
 2125POPC   PO429820   7.124   5.606   9.704
 2125POPC   GL129821   7.296   5.847   9.320
 2125POPC   GL229822   7.664   5.949   9.280
 2125POPC   C1A29823   7.347   5.941   8.871
 2125POPC   D2A29824   7.542   5.937   8.459
 2125POPC   C3A29825   7.412   6.015   8.041
 2125POPC   C4A29826   7.501   5.723   7.704
 2125POPC   C1B29827   7.842   6.131   8.901
 2125POPC   C2B29828   7.979   6.203   8.470
 2125POPC   C3B29829   7.921   6.012   8.074
 2125POPC   C4B29830   7.766   6.157   7.665
 2126POPC   NC329831  30.988  20.029   9.458
 2126POPC   PO429832  30.531  19.402   9.473
 2126POPC   GL129833  30.665  19.714   9.183
 2126POPC   GL229834  30.975  19.625   9.096
 2126POPC   C1A29835  30.767  19.954   8.770
 2126POPC   D2A29836  30.920  20.153   8.381
 2126POPC   C3A29837  30.695  19.994   8.010
 2126POPC   C4A29838  30.762  19.916   7.589
 2126POPC   C1B29839  31.011  19.455   8.710
 2126POPC   C2B29840  30.897  19.615   8.302
 2126POPC   C3B29841  30.806  19.493   7.867
 2126POPC   C4B29842  30.867  19.460   7.383
 2127POPC   NC329843  13.810  24.862   9.471
 2127POPC   PO429844  13.307  24.351   9.347
 2127POPC   GL129845  13.708  24.414   9.098
 2127POPC   GL229846  13.893  24.721   9.002
 2127POPC   C1A29847  13.717  24.407   8.654
 2127POPC   D2A29848  13.390  24.396   8.376
 2127POPC   C3A29849  13.535  24.492   7.977
 2127POPC   C4A29850  13.882  24.350   7.766
 2127POPC   C1B29851  13.851  24.888   8.586
 2127POPC   C2B29852  13.939  24.798   8.107
 2127POPC   C3B29853  13.833  24.824   7.622
 2127POPC   C4B29854  13.800  24.974   7.108
 2128POPC   NC329855  23.546  10.490   9.570
 2128POPC   PO429856  24.221  10.458   9.314
 2128POPC   GL129857  23.937  10.691   9.076
 2128POPC   GL229858  23.572  10.728   9.129
 2128POPC   C1A29859  23.750  10.848   8.675
 2128POPC   D2A29860  23.495  10.639   8.338
 2128POPC   C3A29861  23.710  10.754   7.963
 2128POPC   C4A29862  24.099  10.545   7.853
 2128POPC   C1B29863  23.615  10.329   8.876
 2128POPC   C2B29864  23.620  10.130   8.459
 2128POPC   C3B29865  23.709  10.238   8.024
 2128POPC   C4B29866  23.416  10.435   7.716
 2129POPC   NC329867  10.800  11.289   9.375
 2129POPC   PO429868  11.517  11.464   9.259
 2129POPC   GL129869  11.160  11.394   9.017
 2129POPC   GL229870  11.056  11.043   9.024
 2129POPC   C1A29871  11.227  11.337   8.591
 2129POPC   D2A29872  11.453  11.038   8.309
 2129POPC   C3A29873  11.547  11.318   7.985
 2129POPC   C4A29874  11.217  11.573   7.775
 2129POPC   C1B29875  10.913  10.940   8.655
 2129POPC   C2B29876  10.927  11.103   8.241
 2129POPC   C3B29877  11.143  11.028   7.829
 2129POPC   C4B29878  10.913  11.056   7.412
 2130POPC   NC329879  40.842  36.874   9.667
 2130POPC   PO429880  40.387  37.181   9.291
 2130POPC   GL129881  40.766  37.068   9.171
 2130POPC   GL229882  40.812  36.740   9.125
 2130POPC   C1A29883  40.751  37.147   8.738
 2130POPC   D2A29884  40.533  36.918   8.415
 2130POPC   C3A29885  40.601  37.099   8.006
 2130POPC   C4A29886  40.709  36.922   7.646
 2130POPC   C1B29887  40.812  36.533   8.717
 2130POPC   C2B29888  41.058  36.484   8.321
 2130POPC   C3B29889  40.926  36.417   7.870
 2130POPC   C4B29890  40.949  36.557   7.405
 2131POPC   NC329891  26.939  35.501   9.689
 2131POPC   PO429892  26.641  34.941   9.592
 2131POPC   GL129893  26.759  35.193   9.245
 2131POPC   GL229894  27.125  35.181   9.245
 2131POPC   C1A29895  26.866  35.409   8.836
 2131POPC   D2A29896  27.026  35.571   8.422
 2131POPC   C3A29897  26.763  35.563   8.031
 2131POPC   C4A29898  26.621  35.499   7.625
 2131POPC   C1B29899  27.087  34.838   8.936
 2131POPC   C2B29900  27.020  34.858   8.502
 2131POPC   C3B29901  27.028  35.127   8.132
 2131POPC   C4B29902  27.002  35.151   7.679
 2132POPC   NC329903  37.405   8.939   9.916
 2132POPC   PO429904  37.915   9.232   9.527
 2132POPC   GL129905  37.789   9.129   9.144
 2132POPC   GL229906  37.632   8.817   9.206
 2132POPC   C1A29907  37.939   9.011   8.765
 2132POPC   D2A29908  37.692   8.996   8.439
 2132POPC   C3A29909  37.858   9.043   8.041
 2132POPC   C4A29910  37.745   8.893   7.650
 2132POPC   C1B29911  37.374   8.983   8.873
 2132POPC   C2B29912  37.163   8.928   8.485
 2132POPC   C3B29913  37.374   8.862   8.067
 2132POPC   C4B29914  37.241   8.886   7.665
 2133POPC   NC329915  14.686   8.868   9.633
 2133POPC   PO429916  14.292   9.323   9.577
 2133POPC   GL129917  14.505   9.098   9.218
 2133POPC   GL229918  14.376   8.749   9.233
 2133POPC   C1A29919  14.562   9.247   8.806
 2133POPC   D2A29920  14.617   9.039   8.436
 2133POPC   C3A29921  14.510   9.250   8.055
 2133POPC   C4A29922  14.443   9.170   7.621
 2133POPC   C1B29923  14.526   8.682   8.831
 2133POPC   C2B29924  14.325   8.626   8.443
 2133POPC   C3B29925  14.501   8.684   8.068
 2133POPC   C4B29926  14.406   8.647   7.651
 2134POPC   NC329927  12.242  32.723   9.507
 2134POPC   PO429928  12.132  32.096   9.652
 2134POPC   GL129929  12.142  32.220   9.210
 2134POPC   GL229930  11.918  32.483   9.114
 2134POPC   C1A29931  12.114  32.176   8.752
 2134POPC   D2A29932  12.037  31.907   8.400
 2134POPC   C3A29933  12.017  32.145   8.031
 2134POPC   C4A29934  12.224  32.212   7.674
 2134POPC   C1B29935  11.822  32.692   8.757
 2134POPC   C2B29936  11.960  32.551   8.374
 2134POPC   C3B29937  11.834  32.731   8.016
 2134POPC   C4B29938  11.845  32.566   7.635
 2135POPC   NC329939  40.181  29.808   9.625
 2135POPC   PO429940  39.833  30.261   9.491
 2135POPC   GL129941  39.967  29.967   9.182
 2135POPC   GL229942  40.275  30.086   9.187
 2135POPC   C1A29943  40.151  29.808   8.781
 2135POPC   D2A29944  40.002  29.999   8.402
 2135POPC   C3A29945  39.952  29.806   8.008
 2135POPC   C4A29946  40.291  29.722   7.755
 2135POPC   C1B29947  40.094  30.340   8.803
 2135POPC   C2B29948  40.139  30.477   8.358
 2135POPC   C3B29949  40.031  30.312   7.960
 2135POPC   C4B29950  40.173  30.180   7.555
 2136POPC   NC329951  44.323  31.371   9.439
 2136POPC   PO429952  43.682  31.163   9.367
 2136POPC   GL129953  43.913  31.461   9.102
 2136POPC   GL229954  44.093  31.758   9.190
 2136POPC   C1A29955  43.763  31.521   8.703
 2136POPC   D2A29956  43.885  31.250   8.349
 2136POPC   C3A29957  43.664  31.349   7.963
 2136POPC   C4A29958  43.738  31.264   7.531
 2136POPC   C1B29959  44.226  31.761   8.773
 2136POPC   C2B29960  44.050  31.763   8.370
 2136POPC   C3B29961  44.129  31.549   8.022
 2136POPC   C4B29962  44.145  31.596   7.630
 2137POPC   NC329963  19.090   5.441   9.444
 2137POPC   PO429964  19.268   4.788   9.480
 2137POPC   GL129965  19.308   5.059   9.096
 2137POPC   GL229966  18.960   5.216   9.019
 2137POPC   C1A29967  19.220   5.051   8.632
 2137POPC   D2A29968  18.782   4.972   8.506
 2137POPC   C3A29969  18.650   5.222   8.147
 2137POPC   C4A29970  18.782   5.162   7.741
 2137POPC   C1B29971  19.272   5.523   8.826
 2137POPC   C2B29972  19.146   5.604   8.438
 2137POPC   C3B29973  19.206   5.266   8.158
 2137POPC   C4B29974  19.260   5.299   7.749
 2138POPC   NC329975  12.072  18.242   9.538
 2138POPC   PO429976  12.558  18.730   9.500
 2138POPC   GL129977  12.331  18.502   9.138
 2138POPC   GL229978  11.954  18.497   9.116
 2138POPC   C1A29979  12.179  18.371   8.694
 2138POPC   D2A29980  12.144  18.644   8.314
 2138POPC   C3A29981  12.250  18.437   7.919
 2138POPC   C4A29982  12.128  18.220   7.535
 2138POPC   C1B29983  11.713  18.606   8.723
 2138POPC   C2B29984  11.655  18.473   8.271
 2138POPC   C3B29985  11.769  18.468   7.833
 2138POPC   C4B29986  11.702  18.458   7.396
 2139POPC   NC329987  38.507  43.969   9.793
 2139POPC   PO429988  37.871  43.891   9.556
 2139POPC   GL129989  37.765  43.937   9.137
 2139POPC   GL229990  37.746  43.587   9.132
 2139POPC   C1A29991  37.665  43.998   8.704
 2139POPC   D2A29992  37.552  44.171   8.312
 2139POPC   C3A29993  37.675  43.987   7.962
 2139POPC   C4A29994  37.568  43.915   7.550
 2139POPC   C1B29995  37.947  43.592   8.749
 2139POPC   C2B29996  37.717  43.623   8.325
 2139POPC   C3B29997  37.703  43.487   7.860
 2139POPC   C4B29998  38.080  43.374   7.625
 2140POPC   NC329999  37.962  34.387   9.613
 2140POPC   PO430000  38.555  34.521   9.675
 2140POPC   GL130001  38.516  34.512   9.157
 2140POPC   GL230002  38.260  34.287   9.123
 2140POPC   C1A30003  38.599  34.687   8.746
 2140POPC   D2A30004  38.820  34.481   8.384
 2140POPC   C3A30005  38.626  34.549   7.954
 2140POPC   C4A30006  38.290  34.842   7.820
 2140POPC   C1B30007  38.133  34.437   8.721
 2140POPC   C2B30008  37.880  34.452   8.349
 2140POPC   C3B30009  38.012  34.411   7.930
 2140POPC   C4B30010  38.290  34.294   7.639
 2141POPC   NC330011   7.195  30.259   9.382
 2141POPC   PO430012   7.718  29.882   9.332
 2141POPC   GL130013   7.318  29.824   9.111
 2141POPC   GL230014   7.204  30.082   8.915
 2141POPC   C1A30015   7.183  29.588   8.762
 2141POPC   D2A30016   7.300  29.717   8.388
 2141POPC   C3A30017   7.141  29.836   8.008
 2141POPC   C4A30018   7.347  29.760   7.622
 2141POPC   C1B30019   7.532  30.101   8.643
 2141POPC   C2B30020   7.462  30.179   8.205
 2141POPC   C3B30021   7.289  30.318   7.824
 2141POPC   C4B30022   7.379  30.242   7.374
 2142POPC   NC330023  44.121  24.149   9.454
 2142POPC   PO430024  44.441  24.657   9.895
 2142POPC   GL130025  44.636  24.721   9.369
 2142POPC   GL230026  44.416  24.531   9.148
 2142POPC   C1A30027  44.864  24.459   8.921
 2142POPC   D2A30028  44.703  24.194   8.582
 2142POPC   C3A30029  44.803  24.244   8.143
 2142POPC   C4A30030  44.719  24.238   7.706
 2142POPC   C1B30031  44.328  24.531   8.746
 2142POPC   C2B30032  44.204  24.745   8.385
 2142POPC   C3B30033  44.107  24.630   7.964
 2142POPC   C4B30034  44.326  24.543   7.573
 2143POPC   NC330035  14.018  29.715   9.546
 2143POPC   PO430036  13.814  30.195   9.169
 2143POPC   GL130037  13.640  29.810   9.048
 2143POPC   GL230038  13.291  29.782   9.082
 2143POPC   C1A30039  13.538  29.683   8.636
 2143POPC   D2A30040  13.809  29.789   8.283
 2143POPC   C3A30041  13.716  30.037   7.905
 2143POPC   C4A30042  13.703  29.714   7.553
 2143POPC   C1B30043  13.337  30.146   8.752
 2143POPC   C2B30044  13.289  30.004   8.327
 2143POPC   C3B30045  13.305  29.760   7.966
 2143POPC   C4B30046  13.312  30.023   7.573
 2144POPC   NC330047  32.866  23.389   9.632
 2144POPC   PO430048  33.107  22.740   9.573
 2144POPC   GL130049  33.327  22.904   9.222
 2144POPC   GL230050  33.072  22.722   9.047
 2144POPC   C1A30051  33.365  23.045   8.763
 2144POPC   D2A30052  33.179  22.941   8.356
 2144POPC   C3A30053  33.211  23.201   7.978
 2144POPC   C4A30054  33.061  23.457   7.664
 2144POPC   C1B30055  32.871  22.558   8.689
 2144POPC   C2B30056  33.029  22.446   8.297
 2144POPC   C3B30057  32.964  22.710   7.944
 2144POPC   C4B30058  32.941  22.943   7.594
 2145POPC   NC330059  17.073   7.325   9.815
 2145POPC   PO430060  17.646   7.687   9.598
 2145POPC   GL130061  17.488   7.385   9.245
 2145POPC   GL230062  17.271   7.549   9.021
 2145POPC   C1A30063  17.357   7.085   8.838
 2145POPC   D2A30064  17.578   6.980   8.452
 2145POPC   C3A30065  17.402   7.043   8.043
 2145POPC   C4A30066  17.626   7.040   7.677
 2145POPC   C1B30067  17.674   7.458   8.760
 2145POPC   C2B30068  17.719   7.483   8.309
 2145POPC   C3B30069  17.601   7.497   7.883
 2145POPC   C4B30070  17.183   7.548   7.733
 2146POPC   NC330071  24.017  38.592   9.685
 2146POPC   PO430072  24.626  38.576   9.470
 2146POPC   GL130073  24.252  38.507   9.210
 2146POPC   GL230074  24.488  38.356   8.987
 2146POPC   C1A30075  24.024  38.365   8.832
 2146POPC   D2A30076  24.026  38.511   8.409
 2146POPC   C3A30077  24.337  38.450   8.117
 2146POPC   C4A30078  24.296  38.501   7.719
 2146POPC   C1B30079  24.729  38.552   8.699
 2146POPC   C2B30080  24.806  38.351   8.308
 2146POPC   C3B30081  24.658  38.058   8.004
 2146POPC   C4B30082  24.648  38.037   7.542
 2147POPC   NC330083  14.723  12.070   9.328
 2147POPC   PO430084  14.288  12.474   9.721
 2147POPC   GL130085  14.147  12.223   9.221
 2147POPC   GL230086  14.284  11.900   9.133
 2147POPC   C1A30087  14.344  12.209   8.746
 2147POPC   D2A30088  14.207  12.201   8.368
 2147POPC   C3A30089  14.402  12.348   8.042
 2147POPC   C4A30090  14.136  12.251   7.694
 2147POPC   C1B30091  14.496  11.729   8.728
 2147POPC   C2B30092  14.608  11.808   8.279
 2147POPC   C3B30093  14.423  11.824   7.853
 2147POPC   C4B30094  14.633  11.808   7.410
 2148POPC   NC330095  26.739  26.556   9.491
 2148POPC   PO430096  26.961  27.223   9.376
 2148POPC   GL130097  26.896  26.886   9.086
 2148POPC   GL230098  26.525  26.751   9.069
 2148POPC   C1A30099  26.760  26.881   8.654
 2148POPC   D2A30100  26.394  27.056   8.506
 2148POPC   C3A30101  26.405  27.000   8.048
 2148POPC   C4A30102  26.713  26.728   7.835
 2148POPC   C1B30103  26.285  26.617   8.733
 2148POPC   C2B30104  26.442  26.553   8.325
 2148POPC   C3B30105  26.253  26.505   7.925
 2148POPC   C4B30106  26.460  26.424   7.511
 2149POPC   NC330107   6.523  32.789   9.479
 2149POPC   PO430108   6.732  33.409   9.572
 2149POPC   GL130109   6.895  33.129   9.237
 2149POPC   GL230110   6.614  33.103   9.077
 2149POPC   C1A30111   7.002  33.063   8.758
 2149POPC   D2A30112   6.795  33.200   8.338
 2149POPC   C3A30113   7.039  33.125   7.959
 2149POPC   C4A30114   6.891  32.986   7.533
 2149POPC   C1B30115   6.520  32.925   8.691
 2149POPC   C2B30116   6.559  32.731   8.302
 2149POPC   C3B30117   6.564  32.954   7.923
 2149POPC   C4B30118   6.391  32.914   7.503
 2150POPC   NC330119  41.425  27.995   9.507
 2150POPC   PO430120  41.837  27.503   9.419
 2150POPC   GL130121  41.624  27.718   9.085
 2150POPC   GL230122  41.277  27.655   9.175
 2150POPC   C1A30123  41.591  27.720   8.615
 2150POPC   D2A30124  41.762  27.419   8.284
 2150POPC   C3A30125  41.607  27.388   7.851
 2150POPC   C4A30126  41.725  27.523   7.425
 2150POPC   C1B30127  41.091  27.423   8.877
 2150POPC   C2B30128  41.183  27.392   8.477
 2150POPC   C3B30129  41.163  27.494   8.092
 2150POPC   C4B30130  41.221  27.693   7.732
 2151POPC   NC330131  14.912   4.690   9.491
 2151POPC   PO430132  15.380   5.277   9.466
 2151POPC   GL130133  15.289   5.205   9.075
 2151POPC   GL230134  15.059   5.464   9.014
 2151POPC   C1A30135  15.146   5.002   8.699
 2151POPC   D2A30136  15.009   4.717   8.359
 2151POPC   C3A30137  15.201   4.907   8.012
 2151POPC   C4A30138  15.267   4.888   7.572
 2151POPC   C1B30139  15.368   5.507   8.680
 2151POPC   C2B30140  15.356   5.337   8.278
 2151POPC   C3B30141  15.027   5.422   7.998
 2151POPC   C4B30142  14.988   5.504   7.574
 2152POPC   NC330143  30.189  33.274   9.444
 2152POPC   PO430144  29.943  32.654   9.442
 2152POPC   GL130145  29.923  32.948   9.161
 2152POPC   GL230146  29.627  33.169   9.240
 2152POPC   C1A30147  30.163  32.961   8.776
 2152POPC   D2A30148  30.144  32.749   8.385
 2152POPC   C3A30149  30.026  32.979   8.023
 2152POPC   C4A30150  29.979  32.826   7.622
 2152POPC   C1B30151  29.758  33.328   8.851
 2152POPC   C2B30152  29.832  33.195   8.443
 2152POPC   C3B30153  29.544  33.085   8.122
 2152POPC   C4B30154  29.486  33.109   7.686
 2153POPC   NC330155  25.539  18.838   9.506
 2153POPC   PO430156  26.095  19.100   9.463
 2153POPC   GL130157  25.951  18.973   9.123
 2153POPC   GL230158  25.682  19.178   9.129
 2153POPC   C1A30159  26.155  19.083   8.744
 2153POPC   D2A30160  26.376  19.234   8.362
 2153POPC   C3A30161  26.409  18.945   7.976
 2153POPC   C4A30162  26.361  19.077   7.544
 2153POPC   C1B30163  25.660  19.012   8.720
 2153POPC   C2B30164  25.836  19.122   8.335
 2153POPC   C3B30165  25.760  18.988   7.971
 2153POPC   C4B30166  25.944  18.809   7.668
 2154POPC   NC330167  15.013  23.414   9.446
 2154POPC   PO430168  15.214  24.085   9.506
 2154POPC   GL130169  15.206  23.791   9.141
 2154POPC   GL230170  15.422  23.473   9.115
 2154POPC   C1A30171  14.950  23.634   8.772
 2154POPC   D2A30172  14.933  23.790   8.328
 2154POPC   C3A30173  15.023  23.568   7.911
 2154POPC   C4A30174  15.054  23.781   7.494
 2154POPC   C1B30175  15.442  23.573   8.668
 2154POPC   C2B30176  15.424  23.635   8.236
 2154POPC   C3B30177  15.577  23.480   7.850
 2154POPC   C4B30178  15.506  23.468   7.407
 2155POPC   NC330179  25.598  31.014   9.637
 2155POPC   PO430180  25.441  30.373   9.432
 2155POPC   GL130181  25.227  30.755   9.283
 2155POPC   GL230182  25.495  30.905   9.140
 2155POPC   C1A30183  25.006  30.872   8.879
 2155POPC   D2A30184  25.040  30.620   8.493
 2155POPC   C3A30185  24.966  30.754   8.065
 2155POPC   C4A30186  25.242  30.526   7.817
 2155POPC   C1B30187  25.492  30.778   8.691
 2155POPC   C2B30188  25.450  30.913   8.273
 2155POPC   C3B30189  25.641  30.824   7.899
 2155POPC   C4B30190  25.561  30.835   7.464
 2156POPC   NC330191  29.622   7.412   9.546
 2156POPC   PO430192  30.284   7.206   9.579
 2156POPC   GL130193  29.999   7.242   9.223
 2156POPC   GL230194  29.675   7.106   9.147
 2156POPC   C1A30195  30.047   7.427   8.833
 2156POPC   D2A30196  30.187   7.334   8.415
 2156POPC   C3A30197  30.072   7.592   8.072
 2156POPC   C4A30198  29.915   7.531   7.679
 2156POPC   C1B30199  29.497   7.314   8.817
 2156POPC   C2B30200  29.672   7.450   8.438
 2156POPC   C3B30201  29.721   7.197   8.087
 2156POPC   C4B30202  29.603   7.130   7.678
 2157POPC   NC330203  36.283  34.265   9.488
 2157POPC   PO430204  36.236  34.942   9.386
 2157POPC   GL130205  36.361  34.657   9.027
 2157POPC   GL230206  36.170  34.368   9.001
 2157POPC   C1A30207  36.264  34.551   8.549
 2157POPC   D2A30208  36.028  34.643   8.177
 2157POPC   C3A30209  36.229  34.640   7.810
 2157POPC   C4A30210  35.901  34.455   7.595
 2157POPC   C1B30211  36.491  34.161   8.814
 2157POPC   C2B30212  36.518  34.080   8.368
 2157POPC   C3B30213  36.317  34.170   7.958
 2157POPC   C4B30214  36.339  34.267   7.468
 2158POPC   NC330215  14.575  14.660   9.251
 2158POPC   PO430216  14.375  15.165   9.677
 2158POPC   GL130217  14.223  15.285   9.230
 2158POPC   GL230218  14.482  15.351   8.990
 2158POPC   C1A30219  14.065  15.119   8.782
 2158POPC   D2A30220  14.136  15.164   8.306
 2158POPC   C3A30221  14.243  14.906   7.928
 2158POPC   C4A30222  14.487  15.079   7.557
 2158POPC   C1B30223  14.566  15.124   8.574
 2158POPC   C2B30224  14.629  15.173   8.109
 2158POPC   C3B30225  14.919  15.240   7.781
 2158POPC   C4B30226  14.979  15.183   7.328
 2159POPC   NC330227  41.419   5.271   9.427
 2159POPC   PO430228  41.752   4.700   9.565
 2159POPC   GL130229  41.704   4.894   9.220
 2159POPC   GL230230  41.917   5.176   9.247
 2159POPC   C1A30231  41.548   5.007   8.830
 2159POPC   D2A30232  41.752   5.156   8.484
 2159POPC   C3A30233  41.593   5.053   8.073
 2159POPC   C4A30234  41.188   4.986   7.826
 2159POPC   C1B30235  42.019   5.450   8.892
 2159POPC   C2B30236  41.982   5.605   8.461
 2159POPC   C3B30237  41.872   5.520   8.040
 2159POPC   C4B30238  41.944   5.186   7.721
 2160POPC   NC330239  44.245  18.572   9.604
 2160POPC   PO430240  43.747  18.923   9.434
 2160POPC   GL130241  43.806  18.805   9.006
 2160POPC   GL230242  43.565  18.505   8.970
 2160POPC   C1A30243  44.091  18.960   8.641
 2160POPC   D2A30244  44.355  19.305   8.415
 2160POPC   C3A30245  44.275  19.428   7.980
 2160POPC   C4A30246  44.297  19.213   7.557
 2160POPC   C1B30247  43.749  18.543   8.554
 2160POPC   C2B30248  43.797  18.841   8.216
 2160POPC   C3B30249  44.023  18.909   7.849
 2160POPC   C4B30250  43.943  18.881   7.398
 2161POPC   NC330251   5.320  25.697   9.368
 2161POPC   PO430252   4.915  26.193   9.543
 2161POPC   GL130253   5.156  26.286   9.183
 2161POPC   GL230254   5.191  25.971   8.974
 2161POPC   C1A30255   5.071  26.404   8.763
 2161POPC   D2A30256   4.944  26.186   8.410
 2161POPC   C3A30257   5.210  25.921   8.201
 2161POPC   C4A30258   5.166  26.211   7.878
 2161POPC   C1B30259   4.787  25.883   8.806
 2161POPC   C2B30260   4.635  25.784   8.389
 2161POPC   C3B30261   4.757  25.867   7.947
 2161POPC   C4B30262   5.098  25.791   7.629
 2162POPC   NC330263  42.929  17.220   9.689
 2162POPC   PO430264  43.258  17.655   9.321
 2162POPC   GL130265  43.006  17.280   9.180
 2162POPC   GL230266  43.196  17.258   8.925
 2162POPC   C1A30267  42.725  17.300   8.783
 2162POPC   D2A30268  42.774  17.604   8.460
 2162POPC   C3A30269  42.960  17.474   8.101
 2162POPC   C4A30270  43.075  17.468   7.692
 2162POPC   C1B30271  43.439  17.610   8.729
 2162POPC   C2B30272  43.332  17.717   8.363
 2162POPC   C3B30273  43.478  17.632   7.989
 2162POPC   C4B30274  43.433  17.784   7.564
 2163POPC   NC330275   1.025  22.685   9.537
 2163POPC   PO430276   1.164  23.307   9.281
 2163POPC   GL130277   1.331  22.957   9.138
 2163POPC   GL230278   1.019  22.822   9.056
 2163POPC   C1A30279   1.373  22.969   8.689
 2163POPC   D2A30280   1.248  22.734   8.334
 2163POPC   C3A30281   1.379  22.909   8.005
 2163POPC   C4A30282   1.329  23.239   7.752
 2163POPC   C1B30283   0.851  22.782   8.672
 2163POPC   C2B30284   0.746  22.698   8.282
 2163POPC   C3B30285   0.888  22.830   7.864
 2163POPC   C4B30286   0.676  22.676   7.513
 2164POPC   NC330287   8.109  13.073   9.491
 2164POPC   PO430288   8.045  12.402   9.438
 2164POPC   GL130289   7.908  12.720   9.154
 2164POPC   GL230290   8.275  12.779   9.115
 2164POPC   C1A30291   7.849  12.847   8.716
 2164POPC   D2A30292   7.993  12.647   8.335
 2164POPC   C3A30293   7.958  12.854   7.951
 2164POPC   C4A30294   7.909  12.980   7.524
 2164POPC   C1B30295   8.358  12.681   8.709
 2164POPC   C2B30296   8.474  12.846   8.302
 2164POPC   C3B30297   8.446  12.753   7.894
 2164POPC   C4B30298   8.144  12.531   7.603
 2165POPC   NC330299  17.708  17.388   9.624
 2165POPC   PO430300  17.053  17.216   9.562
 2165POPC   GL130301  17.360  17.426   9.229
 2165POPC   GL230302  17.736  17.570   9.156
 2165POPC   C1A30303  17.341  17.520   8.796
 2165POPC   D2A30304  17.240  17.619   8.365
 2165POPC   C3A30305  17.622  17.562   8.073
 2165POPC   C4A30306  17.673  17.319   7.682
 2165POPC   C1B30307  17.831  17.316   8.794
 2165POPC   C2B30308  17.757  17.145   8.373
 2165POPC   C3B30309  17.433  17.056   8.065
 2165POPC   C4B30310  17.350  16.900   7.655
 2166POPC   NC330311   3.345  32.360   9.602
 2166POPC   PO430312   3.989  32.109   9.434
 2166POPC   GL130313   3.657  32.264   9.135
 2166POPC   GL230314   3.334  32.090   9.160
 2166POPC   C1A30315   3.682  32.318   8.694
 2166POPC   D2A30316   3.640  32.082   8.316
 2166POPC   C3A30317   3.706  32.345   7.984
 2166POPC   C4A30318   3.762  32.615   7.621
 2166POPC   C1B30319   3.317  31.940   8.733
 2166POPC   C2B30320   3.133  32.093   8.335
 2166POPC   C3B30321   3.143  32.082   7.885
 2166POPC   C4B30322   3.071  31.708   7.648
 2167POPC   NC330323   1.040  15.175   9.540
 2167POPC   PO430324   1.566  14.896   9.855
 2167POPC   GL130325   1.478  15.003   9.363
 2167POPC   GL230326   1.538  15.316   9.237
 2167POPC   C1A30327   1.265  15.020   8.920
 2167POPC   D2A30328   1.217  14.834   8.500
 2167POPC   C3A30329   1.020  15.073   8.194
 2167POPC   C4A30330   1.117  15.082   7.792
 2167POPC   C1B30331   1.612  15.361   8.801
 2167POPC   C2B30332   1.354  15.374   8.458
 2167POPC   C3B30333   1.484  15.313   8.046
 2167POPC   C4B30334   1.603  15.164   7.643
 2168POPC   NC330335   7.222  35.827   9.278
 2168POPC   PO430336   7.168  35.190   9.377
 2168POPC   GL130337   7.433  35.371   9.064
 2168POPC   GL230338   7.691  35.664   9.130
 2168POPC   C1A30339   7.250  35.334   8.670
 2168POPC   D2A30340   7.132  35.289   8.269
 2168POPC   C3A30341   7.414  35.263   7.974
 2168POPC   C4A30342   7.315  35.341   7.555
 2168POPC   C1B30343   7.569  35.731   8.699
 2168POPC   C2B30344   7.508  35.672   8.254
 2168POPC   C3B30345   7.559  35.738   7.832
 2168POPC   C4B30346   7.808  35.476   7.666
 2169POPC   NC330347   0.182   7.565   9.599
 2169POPC   PO430348   0.446   6.966   9.504
 2169POPC   GL130349   0.391   7.310   9.203
 2169POPC   GL230350   0.706   7.382   9.197
 2169POPC   C1A30351   0.364   7.548   8.793
 2169POPC   D2A30352   0.268   7.709   8.399
 2169POPC   C3A30353   0.133   7.539   8.037
 2169POPC   C4A30354   0.187   7.455   7.608
 2169POPC   C1B30355   0.845   7.419   8.800
 2169POPC   C2B30356   0.813   7.593   8.415
 2169POPC   C3B30357   0.628   7.568   8.013
 2169POPC   C4B30358   0.665   7.331   7.656
 2170POPC   NC330359  18.895  30.812   9.519
 2170POPC   PO430360  18.891  30.112   9.512
 2170POPC   GL130361  19.136  30.371   9.146
 2170POPC   GL230362  19.037  30.728   9.031
 2170POPC   C1A30363  19.195  30.462   8.650
 2170POPC   D2A30364  18.937  30.720   8.367
 2170POPC   C3A30365  18.694  30.547   8.044
 2170POPC   C4A30366  18.847  30.436   7.636
 2170POPC   C1B30367  19.218  30.988   8.696
 2170POPC   C2B30368  19.371  30.948   8.247
 2170POPC   C3B30369  19.208  30.835   7.840
 2170POPC   C4B30370  19.302  31.043   7.454
 2171POPC   NC330371  26.089  28.836   9.439
 2171POPC   PO430372  25.907  29.498   9.560
 2171POPC   GL130373  26.081  29.409   9.162
 2171POPC   GL230374  26.217  29.071   9.023
 2171POPC   C1A30375  25.894  29.353   8.766
 2171POPC   D2A30376  26.086  29.269   8.402
 2171POPC   C3A30377  25.839  29.357   8.055
 2171POPC   C4A30378  26.027  29.439   7.689
 2171POPC   C1B30379  26.501  28.974   8.674
 2171POPC   C2B30380  26.373  28.849   8.305
 2171POPC   C3B30381  26.073  28.909   8.021
 2171POPC   C4B30382  26.215  28.970   7.652
 2172POPC   NC330383  43.912  29.147   9.520
 2172POPC   PO430384  43.426  28.713   9.501
 2172POPC   GL130385  43.612  28.961   9.134
 2172POPC   GL230386  43.986  28.983   9.024
 2172POPC   C1A30387  43.648  29.174   8.704
 2172POPC   D2A30388  43.901  29.170   8.327
 2172POPC   C3A30389  43.698  29.080   7.955
 2172POPC   C4A30390  43.772  29.094   7.524
 2172POPC   C1B30391  44.153  29.348   8.738
 2172POPC   C2B30392  44.203  29.620   8.363
 2172POPC   C3B30393  44.272  29.417   7.975
 2172POPC   C4B30394  44.124  29.465   7.560
 2173POPC   NC330395  17.304  33.688   9.482
 2173POPC   PO430396  17.500  34.239   9.590
 2173POPC   GL130397  17.334  34.132   9.170
 2173POPC   GL230398  17.594  33.890   9.112
 2173POPC   C1A30399  17.310  33.959   8.715
 2173POPC   D2A30400  17.455  33.890   8.297
 2173POPC   C3A30401  17.450  34.058   7.873
 2173POPC   C4A30402  17.263  33.755   7.594
 2173POPC   C1B30403  17.702  33.637   8.736
 2173POPC   C2B30404  17.717  33.447   8.330
 2173POPC   C3B30405  17.648  33.567   7.906
 2173POPC   C4B30406  17.925  33.454   7.597
 2174POPC   NC330407  42.246  36.917   9.450
 2174POPC   PO430408  42.887  36.751   9.251
 2174POPC   GL130409  42.564  37.028   9.034
 2174POPC   GL230410  42.179  37.041   8.974
 2174POPC   C1A30411  42.484  37.072   8.584
 2174POPC   D2A30412  42.544  36.767   8.281
 2174POPC   C3A30413  42.764  36.964   7.942
 2174POPC   C4A30414  42.645  36.970   7.510
 2174POPC   C1B30415  42.010  36.837   8.606
 2174POPC   C2B30416  42.011  36.955   8.194
 2174POPC   C3B30417  42.273  36.857   7.858
 2174POPC   C4B30418  42.505  36.495   7.781
 2175POPC   NC330419   3.985  10.129   9.641
 2175POPC   PO430420   4.642  10.025   9.545
 2175POPC   GL130421   4.416   9.784   9.237
 2175POPC   GL230422   4.121   9.967   9.132
 2175POPC   C1A30423   4.401   9.581   8.802
 2175POPC   D2A30424   4.640   9.690   8.409
 2175POPC   C3A30425   4.466   9.546   7.999
 2175POPC   C4A30426   4.162   9.764   7.773
 2175POPC   C1B30427   4.517  10.085   8.842
 2175POPC   C2B30428   4.520  10.243   8.415
 2175POPC   C3B30429   4.474  10.113   7.994
 2175POPC   C4B30430   4.530  10.312   7.586
 2176POPC   NC330431   7.669   8.506   9.527
 2176POPC   PO430432   7.191   7.989   9.327
 2176POPC   GL130433   7.383   8.339   9.120
 2176POPC   GL230434   7.683   8.124   9.177
 2176POPC   C1A30435   7.152   8.520   8.751
 2176POPC   D2A30436   7.028   8.440   8.290
 2176POPC   C3A30437   7.296   8.126   8.052
 2176POPC   C4A30438   7.517   8.072   7.659
 2176POPC   C1B30439   7.791   8.165   8.776
 2176POPC   C2B30440   7.658   7.975   8.398
 2176POPC   C3B30441   7.843   8.033   8.042
 2176POPC   C4B30442   7.962   7.795   7.688
 2177POPC   NC330443  23.792  39.557   9.551
 2177POPC   PO430444  23.128  39.249   9.413
 2177POPC   GL130445  23.543  39.219   9.111
 2177POPC   GL230446  23.839  39.425   9.079
 2177POPC   C1A30447  23.791  39.129   8.672
 2177POPC   D2A30448  23.711  38.925   8.241
 2177POPC   C3A30449  23.722  39.163   7.850
 2177POPC   C4A30450  24.175  39.209   7.719
 2177POPC   C1B30451  24.089  39.542   8.763
 2177POPC   C2B30452  24.086  39.789   8.424
 2177POPC   C3B30453  23.978  39.566   8.065
 2177POPC   C4B30454  23.851  39.647   7.659
 2178POPC   NC330455   1.498  14.521   9.578
 2178POPC   PO430456   0.830  14.743   9.446
 2178POPC   GL130457   1.044  14.391   9.193
 2178POPC   GL230458   1.304  14.570   9.131
 2178POPC   C1A30459   1.136  14.363   8.713
 2178POPC   D2A30460   0.804  14.478   8.412
 2178POPC   C3A30461   0.945  14.586   8.026
 2178POPC   C4A30462   1.187  14.326   7.805
 2178POPC   C1B30463   1.572  14.622   8.807
 2178POPC   C2B30464   1.606  14.501   8.388
 2178POPC   C3B30465   1.456  14.741   8.031
 2178POPC   C4B30466   1.388  14.724   7.600
 2179POPC   NC330467  23.128  16.291   9.482
 2179POPC   PO430468  22.995  16.936   9.690
 2179POPC   GL130469  22.934  16.926   9.251
 2179POPC   GL230470  22.844  16.591   9.164
 2179POPC   C1A30471  23.058  16.900   8.804
 2179POPC   D2A30472  22.866  16.941   8.382
 2179POPC   C3A30473  23.050  16.813   7.989
 2179POPC   C4A30474  23.218  16.887   7.569
 2179POPC   C1B30475  23.095  16.390   8.793
 2179POPC   C2B30476  23.167  16.454   8.338
 2179POPC   C3B30477  23.101  16.291   7.899
 2179POPC   C4B30478  23.251  16.012   7.555
 2180POPC   NC330479  33.303   8.414   9.476
 2180POPC   PO430480  32.726   8.052   9.512
 2180POPC   GL130481  32.913   8.165   9.132
 2180POPC   GL230482  32.960   8.539   9.106
 2180POPC   C1A30483  32.805   8.248   8.693
 2180POPC   D2A30484  32.721   8.462   8.313
 2180POPC   C3A30485  32.813   8.174   7.997
 2180POPC   C4A30486  33.084   8.043   7.693
 2180POPC   C1B30487  33.266   8.411   8.772
 2180POPC   C2B30488  33.212   8.196   8.368
 2180POPC   C3B30489  33.370   8.342   7.986
 2180POPC   C4B30490  33.564   8.513   7.639
 2181POPC   NC330491  43.152  13.975   9.572
 2181POPC   PO430492  42.769  13.456   9.436
 2181POPC   GL130493  43.027  13.665   9.129
 2181POPC   GL230494  42.946  14.043   9.111
 2181POPC   C1A30495  43.094  13.429   8.719
 2181POPC   D2A30496  42.872  13.419   8.344
 2181POPC   C3A30497  43.118  13.263   8.038
 2181POPC   C4A30498  43.194  13.287   7.633
 2181POPC   C1B30499  43.399  13.977   8.977
 2181POPC   C2B30500  43.419  13.790   8.620
 2181POPC   C3B30501  43.205  13.783   8.239
 2181POPC   C4B30502  43.077  13.738   7.805
 2182POPC   NC330503  35.859  24.344   9.396
 2182POPC   PO430504  36.568  24.447   9.518
 2182POPC   GL130505  36.314  24.475   9.131
 2182POPC   GL230506  36.152  24.166   8.999
 2182POPC   C1A30507  36.227  24.560   8.671
 2182POPC   D2A30508  36.441  24.338   8.317
 2182POPC   C3A30509  36.309  24.539   7.972
 2182POPC   C4A30510  35.916  24.652   7.861
 2182POPC   C1B30511  35.990  24.093   8.566
 2182POPC   C2B30512  35.865  24.212   8.136
 2182POPC   C3B30513  35.689  24.153   7.717
 2182POPC   C4B30514  35.824  23.991   7.300
 2183POPC   NC330515   8.592  13.507   9.490
 2183POPC   PO430516   9.182  13.401   9.509
 2183POPC   GL130517   9.245  13.504   9.094
 2183POPC   GL230518   9.092  13.233   9.004
 2183POPC   C1A30519   9.196  13.694   8.683
 2183POPC   D2A30520   8.977  13.664   8.286
 2183POPC   C3A30521   9.069  13.859   7.870
 2183POPC   C4A30522   8.901  14.144   7.558
 2183POPC   C1B30523   8.737  13.449   8.766
 2183POPC   C2B30524   8.599  13.339   8.334
 2183POPC   C3B30525   8.656  13.526   7.922
 2183POPC   C4B30526   8.695  13.306   7.534
 2184POPC   NC330527  17.194  42.980   9.520
 2184POPC   PO430528  17.774  43.214   9.463
 2184POPC   GL130529  17.568  43.020   9.135
 2184POPC   GL230530  17.289  43.233   9.088
 2184POPC   C1A30531  17.673  42.797   8.772
 2184POPC   D2A30532  17.824  43.051   8.443
 2184POPC   C3A30533  17.699  43.082   8.007
 2184POPC   C4A30534  17.919  43.428   7.746
 2184POPC   C1B30535  17.356  43.175   8.650
 2184POPC   C2B30536  17.256  43.037   8.228
 2184POPC   C3B30537  17.118  43.093   7.803
 2184POPC   C4B30538  17.152  43.392   7.452
 2185POPC   NC330539  34.593   4.835   9.728
 2185POPC   PO430540  34.538   4.192   9.749
 2185POPC   GL130541  34.706   4.270   9.324
 2185POPC   GL230542  34.581   4.588   9.190
 2185POPC   C1A30543  34.758   4.225   8.842
 2185POPC   D2A30544  34.486   4.252   8.439
 2185POPC   C3A30545  34.541   4.261   7.972
 2185POPC   C4A30546  34.562   4.301   7.497
 2185POPC   C1B30547  34.582   4.691   8.708
 2185POPC   C2B30548  34.652   4.709   8.241
 2185POPC   C3B30549  34.661   4.731   7.778
 2185POPC   C4B30550  34.682   4.953   7.372
 2186POPC   NC330551  25.859  19.542   9.477
 2186POPC   PO430552  26.504  19.855   9.382
 2186POPC   GL130553  26.140  19.801   9.077
 2186POPC   GL230554  26.136  19.458   9.064
 2186POPC   C1A30555  25.957  20.001   8.675
 2186POPC   D2A30556  26.084  20.219   8.280
 2186POPC   C3A30557  25.932  20.103   7.862
 2186POPC   C4A30558  26.017  19.808   7.536
 2186POPC   C1B30559  25.906  19.500   8.679
 2186POPC   C2B30560  26.037  19.612   8.274
 2186POPC   C3B30561  26.126  19.374   7.919
 2186POPC   C4B30562  25.915  19.309   7.568
 2187POPC   NC330563  32.873  21.757   9.338
 2187POPC   PO430564  33.108  21.113   9.612
 2187POPC   GL130565  32.895  21.261   9.219
 2187POPC   GL230566  33.214  21.355   9.101
 2187POPC   C1A30567  32.880  21.351   8.732
 2187POPC   D2A30568  33.027  21.206   8.320
 2187POPC   C3A30569  32.835  21.308   7.900
 2187POPC   C4A30570  32.937  21.243   7.447
 2187POPC   C1B30571  33.343  21.582   8.698
 2187POPC   C2B30572  33.538  21.717   8.336
 2187POPC   C3B30573  33.263  21.580   8.040
 2187POPC   C4B30574  33.213  21.625   7.608
 2188POPC   NC330575  38.310  16.490   9.454
 2188POPC   PO430576  38.292  15.787   9.462
 2188POPC   GL130577  38.402  15.959   9.113
 2188POPC   GL230578  38.701  16.110   9.195
 2188POPC   C1A30579  38.474  15.793   8.710
 2188POPC   D2A30580  38.255  16.011   8.373
 2188POPC   C3A30581  38.210  15.804   7.976
 2188POPC   C4A30582  38.556  15.875   7.713
 2188POPC   C1B30583  38.621  16.266   8.743
 2188POPC   C2B30584  38.534  16.484   8.349
 2188POPC   C3B30585  38.367  16.292   7.957
 2188POPC   C4B30586  38.363  16.317   7.495
 2189POPC   NC330587  25.398   5.551   9.499
 2189POPC   PO430588  25.347   6.203   9.427
 2189POPC   GL130589  25.302   5.901   9.145
 2189POPC   GL230590  24.978   5.762   9.194
 2189POPC   C1A30591  25.332   5.964   8.746
 2189POPC   D2A30592  25.580   6.047   8.390
 2189POPC   C3A30593  25.349   6.013   8.018
 2189POPC   C4A30594  25.357   5.794   7.625
 2189POPC   C1B30595  25.102   5.512   8.827
 2189POPC   C2B30596  25.213   5.642   8.388
 2189POPC   C3B30597  25.078   5.569   8.004
 2189POPC   C4B30598  25.090   5.370   7.624
 2190POPC   NC330599   4.437  35.445   9.533
 2190POPC   PO430600   3.798  35.117   9.475
 2190POPC   GL130601   4.135  35.221   9.170
 2190POPC   GL230602   4.470  35.180   9.066
 2190POPC   C1A30603   4.245  35.558   8.853
 2190POPC   D2A30604   4.482  35.642   8.461
 2190POPC   C3A30605   4.287  35.558   8.049
 2190POPC   C4A30606   4.125  35.516   7.616
 2190POPC   C1B30607   4.459  35.112   8.615
 2190POPC   C2B30608   4.477  35.072   8.154
 2190POPC   C3B30609   4.518  35.206   7.752
 2190POPC   C4B30610   4.471  35.298   7.303
 2191POPC   NC330611  18.764   7.993   9.886
 2191POPC   PO430612  19.177   8.347   9.445
 2191POPC   GL130613  18.940   8.361   9.066
 2191POPC   GL230614  19.156   8.066   8.959
 2191POPC   C1A30615  18.755   8.205   8.671
 2191POPC   D2A30616  18.977   8.017   8.323
 2191POPC   C3A30617  18.865   8.176   7.923
 2191POPC   C4A30618  18.952   8.386   7.480
 2191POPC   C1B30619  19.251   8.375   8.645
 2191POPC   C2B30620  19.125   8.568   8.271
 2191POPC   C3B30621  19.227   8.518   7.865
 2191POPC   C4B30622  19.299   8.028   7.715
 2192POPC   NC330623  21.250   1.184   9.484
 2192POPC   PO430624  21.745   0.771   9.297
 2192POPC   GL130625  21.360   0.933   9.064
 2192POPC   GL230626  21.426   1.323   9.005
 2192POPC   C1A30627  21.169   1.020   8.668
 2192POPC   D2A30628  21.498   1.239   8.418
 2192POPC   C3A30629  21.572   1.187   7.999
 2192POPC   C4A30630  21.296   0.933   7.799
 2192POPC   C1B30631  21.157   1.532   8.675
 2192POPC   C2B30632  20.986   1.582   8.329
 2192POPC   C3B30633  21.059   1.311   8.067
 2192POPC   C4B30634  21.238   1.438   7.700
 2193POPC   NC330635  41.164   9.667   9.380
 2193POPC   PO430636  41.781   9.822   9.719
 2193POPC   GL130637  41.651   9.941   9.216
 2193POPC   GL230638  41.355   9.934   9.013
 2193POPC   C1A30639  41.758   9.730   8.769
 2193POPC   D2A30640  41.968   9.536   8.410
 2193POPC   C3A30641  41.842   9.650   8.008
 2193POPC   C4A30642  41.659   9.550   7.587
 2193POPC   C1B30643  41.292   9.547   8.752
 2193POPC   C2B30644  41.450   9.628   8.355
 2193POPC   C3B30645  41.314   9.585   7.988
 2193POPC   C4B30646  41.175   9.730   7.656
 2194POPC   NC330647   3.861  18.150   9.514
 2194POPC   PO430648   3.188  18.251   9.573
 2194POPC   GL130649   3.460  18.153   9.228
 2194POPC   GL230650   3.547  18.480   9.080
 2194POPC   C1A30651   3.611  17.958   8.841
 2194POPC   D2A30652   3.470  18.037   8.408
 2194POPC   C3A30653   3.641  18.375   8.153
 2194POPC   C4A30654   3.881  18.166   7.858
 2194POPC   C1B30655   3.238  18.291   8.812
 2194POPC   C2B30656   2.981  18.095   8.563
 2194POPC   C3B30657   3.052  18.189   8.160
 2194POPC   C4B30658   3.367  18.064   7.838
 2195POPC   NC330659  19.638  37.183   9.629
 2195POPC   PO430660  19.647  36.644   9.492
 2195POPC   GL130661  19.653  36.986   9.141
 2195POPC   GL230662  19.381  37.273   9.193
 2195POPC   C1A30663  19.829  36.983   8.687
 2195POPC   D2A30664  19.611  36.901   8.284
 2195POPC   C3A30665  19.836  36.863   7.878
 2195POPC   C4A30666  19.790  36.759   7.418
 2195POPC   C1B30667  19.548  37.390   8.801
 2195POPC   C2B30668  19.700  37.398   8.385
 2195POPC   C3B30669  19.596  37.319   7.970
 2195POPC   C4B30670  19.703  37.244   7.551
 2196POPC   NC330671   6.288  25.555   9.402
 2196POPC   PO430672   6.513  26.261   9.561
 2196POPC   GL130673   6.540  25.978   9.189
 2196POPC   GL230674   6.551  26.217   8.960
 2196POPC   C1A30675   6.745  25.830   8.749
 2196POPC   D2A30676   6.806  26.164   8.415
 2196POPC   C3A30677   6.658  26.088   8.007
 2196POPC   C4A30678   6.498  25.698   7.852
 2196POPC   C1B30679   6.311  26.302   8.604
 2196POPC   C2B30680   6.378  26.516   8.230
 2196POPC   C3B30681   6.370  26.438   7.796
 2196POPC   C4B30682   6.747  26.350   7.562
 2197POPC   NC330683  32.022  25.463   9.442
 2197POPC   PO430684  32.323  24.891   9.511
 2197POPC   GL130685  32.144  25.024   9.098
 2197POPC   GL230686  32.182  25.392   8.972
 2197POPC   C1A30687  32.236  25.035   8.636
 2197POPC   D2A30688  32.123  25.284   8.305
 2197POPC   C3A30689  32.343  25.163   7.932
 2197POPC   C4A30690  32.422  24.810   7.683
 2197POPC   C1B30691  31.955  25.672   8.683
 2197POPC   C2B30692  31.804  25.671   8.239
 2197POPC   C3B30693  31.947  25.476   7.844
 2197POPC   C4B30694  32.354  25.583   7.636
 2198POPC   NC330695   9.051   6.330   9.419
 2198POPC   PO430696   8.796   6.882   9.733
 2198POPC   GL130697   8.678   6.818   9.278
 2198POPC   GL230698   8.967   6.890   9.118
 2198POPC   C1A30699   8.599   6.515   8.884
 2198POPC   D2A30700   8.747   6.311   8.463
 2198POPC   C3A30701   8.772   6.518   8.029
 2198POPC   C4A30702   8.816   6.386   7.560
 2198POPC   C1B30703   9.096   6.630   8.757
 2198POPC   C2B30704   9.303   6.756   8.383
 2198POPC   C3B30705   9.242   6.764   7.952
 2198POPC   C4B30706   9.292   6.448   7.684
 2199POPC   NC330707  35.122   5.599   9.412
 2199POPC   PO430708  34.647   5.744   9.871
 2199POPC   GL130709  34.647   5.855   9.343
 2199POPC   GL230710  34.873   6.015   9.081
 2199POPC   C1A30711  34.471   5.795   8.873
 2199POPC   D2A30712  34.437   5.604   8.424
 2199POPC   C3A30713  34.402   5.747   7.949
 2199POPC   C4A30714  34.531   5.687   7.486
 2199POPC   C1B30715  34.685   6.235   8.723
 2199POPC   C2B30716  34.530   6.111   8.314
 2199POPC   C3B30717  34.503   6.251   7.893
 2199POPC   C4B30718  34.597   6.197   7.458
 2200POPC   NC330719  32.244   0.960   9.523
 2200POPC   PO430720  31.731   0.872   9.162
 2200POPC   GL130721  32.130   0.995   9.008
 2200POPC   GL230722  32.278   1.333   9.028
 2200POPC   C1A30723  32.176   1.080   8.576
 2200POPC   D2A30724  32.346   0.991   8.199
 2200POPC   C3A30725  32.066   0.935   7.873
 2200POPC   C4A30726  31.911   1.010   7.455
 2200POPC   C1B30727  32.202   1.575   8.618
 2200POPC   C2B30728  32.069   1.442   8.186
 2200POPC   C3B30729  31.967   1.434   7.740
 2200POPC   C4B30730  32.195   1.455   7.339
 2201POPC   NC330731  11.512  11.990   9.411
 2201POPC   PO430732  10.908  11.707   9.508
 2201POPC   GL130733  11.028  11.890   9.091
 2201POPC   GL230734  11.209  12.233   9.029
 2201POPC   C1A30735  11.175  11.888   8.656
 2201POPC   D2A30736  11.236  12.247   8.365
 2201POPC   C3A30737  11.273  12.048   7.971
 2201POPC   C4A30738  11.056  12.054   7.581
 2201POPC   C1B30739  11.603  12.134   8.766
 2201POPC   C2B30740  11.659  11.957   8.367
 2201POPC   C3B30741  11.799  12.092   7.962
 2201POPC   C4B30742  11.709  11.747   7.726
 2202POPC   NC330743  16.501   5.334   9.525
 2202POPC   PO430744  16.984   4.986   9.426
 2202POPC   GL130745  16.869   4.960   9.011
 2202POPC   GL230746  16.549   5.085   9.080
 2202POPC   C1A30747  16.636   4.879   8.626
 2202POPC   D2A30748  16.621   4.641   8.258
 2202POPC   C3A30749  16.619   4.888   7.901
 2202POPC   C4A30750  16.932   5.104   7.716
 2202POPC   C1B30751  16.693   5.376   8.773
 2202POPC   C2B30752  16.978   5.333   8.459
 2202POPC   C3B30753  16.990   5.470   8.057
 2202POPC   C4B30754  16.585   5.462   7.847
 2203POPC   NC330755   5.277  13.180   9.414
 2203POPC   PO430756   5.079  12.564   9.545
 2203POPC   GL130757   5.112  12.760   9.122
 2203POPC   GL230758   4.940  12.488   9.035
 2203POPC   C1A30759   4.990  12.877   8.629
 2203POPC   D2A30760   4.974  13.305   8.375
 2203POPC   C3A30761   5.088  13.200   7.921
 2203POPC   C4A30762   5.026  12.843   7.660
 2203POPC   C1B30763   5.318  12.510   8.729
 2203POPC   C2B30764   5.407  12.600   8.298
 2203POPC   C3B30765   5.410  12.535   7.858
 2203POPC   C4B30766   5.375  12.607   7.391
 2204POPC   NC330767  44.900  35.638   9.453
 2204POPC   PO430768  44.678  36.356   9.414
 2204POPC   GL130769  44.969  36.086   9.187
 2204POPC   GL230770  44.737  35.855   9.038
 2204POPC   C1A30771   0.144  35.983   8.763
 2204POPC   D2A30772  44.809  35.919   8.454
 2204POPC   C3A30773  44.816  35.871   7.996
 2204POPC   C4A30774  44.682  36.212   7.709
 2204POPC   C1B30775  44.429  35.992   8.787
 2204POPC   C2B30776  44.230  35.808   8.466
 2204POPC   C3B30777  44.265  35.714   8.031
 2204POPC   C4B30778  44.468  35.759   7.617
 2205POPC   NC330779  23.929  13.196   9.496
 2205POPC   PO430780  23.610  12.567   9.360
 2205POPC   GL130781  23.706  12.931   9.098
 2205POPC   GL230782  24.040  12.957   9.058
 2205POPC   C1A30783  23.619  12.894   8.678
 2205POPC   D2A30784  23.719  12.629   8.337
 2205POPC   C3A30785  23.517  12.920   8.056
 2205POPC   C4A30786  23.420  12.870   7.607
 2205POPC   C1B30787  24.111  12.769   8.672
 2205POPC   C2B30788  24.095  12.965   8.283
 2205POPC   C3B30789  23.979  13.055   7.880
 2205POPC   C4B30790  23.861  13.003   7.428
 2206POPC   NC330791  36.114  14.537   9.600
 2206POPC   PO430792  36.314  14.050   9.238
 2206POPC   GL130793  35.948  14.266   9.019
 2206POPC   GL230794  35.953  14.613   9.092
 2206POPC   C1A30795  35.812  14.497   8.625
 2206POPC   D2A30796  35.817  14.605   8.179
 2206POPC   C3A30797  36.053  14.256   7.950
 2206POPC   C4A30798  36.515  14.181   7.960
 2206POPC   C1B30799  36.323  14.542   8.753
 2206POPC   C2B30800  36.497  14.629   8.294
 2206POPC   C3B30801  36.405  14.649   7.825
 2206POPC   C4B30802  35.963  14.688   7.695
 2207POPC   NC330803   1.895  42.834   9.447
 2207POPC   PO430804   2.123  43.483   9.389
 2207POPC   GL130805   2.256  43.219   9.046
 2207POPC   GL230806   2.186  42.855   9.042
 2207POPC   C1A30807   2.105  43.126   8.608
 2207POPC   D2A30808   1.657  43.093   8.471
 2207POPC   C3A30809   1.605  43.126   8.047
 2207POPC   C4A30810   1.848  43.166   7.679
 2207POPC   C1B30811   2.322  42.546   8.716
 2207POPC   C2B30812   2.263  42.701   8.345
 2207POPC   C3B30813   2.045  42.855   8.034
 2207POPC   C4B30814   2.166  42.727   7.628
 2208POPC   NC330815  24.547  37.143   9.476
 2208POPC   PO430816  24.402  36.469   9.362
 2208POPC   GL130817  24.529  36.794   9.082
 2208POPC   GL230818  24.233  36.996   9.054
 2208POPC   C1A30819  24.513  36.812   8.633
 2208POPC   D2A30820  24.559  36.476   8.288
 2208POPC   C3A30821  24.420  36.685   7.910
 2208POPC   C4A30822  24.528  37.096   7.752
 2208POPC   C1B30823  24.225  37.249   8.651
 2208POPC   C2B30824  24.292  37.180   8.211
 2208POPC   C3B30825  24.034  37.092   7.838
 2208POPC   C4B30826  24.189  36.992   7.386
 2209POPC   NC330827  28.598  11.678   9.332
 2209POPC   PO430828  28.157  11.194   9.354
 2209POPC   GL130829  28.208  11.477   9.031
 2209POPC   GL230830  28.563  11.408   8.927
 2209POPC   C1A30831  28.202  11.449   8.579
 2209POPC   D2A30832  28.182  11.794   8.311
 2209POPC   C3A30833  28.386  11.663   8.026
 2209POPC   C4A30834  28.114  11.577   7.725
 2209POPC   C1B30835  28.471  10.985   8.797
 2209POPC   C2B30836  28.383  10.783   8.419
 2209POPC   C3B30837  28.572  10.916   8.036
 2209POPC   C4B30838  28.535  11.266   7.762
 2210POPC   NC330839  43.524  33.090   9.532
 2210POPC   PO430840  44.089  33.457   9.657
 2210POPC   GL130841  44.081  33.075   9.301
 2210POPC   GL230842  43.755  32.994   9.105
 2210POPC   C1A30843  44.182  33.033   8.821
 2210POPC   D2A30844  44.325  33.171   8.380
 2210POPC   C3A30845  44.124  32.982   8.010
 2210POPC   C4A30846  43.760  32.935   7.714
 2210POPC   C1B30847  43.468  32.995   8.758
 2210POPC   C2B30848  43.670  33.250   8.439
 2210POPC   C3B30849  43.704  33.400   8.013
 2210POPC   C4B30850  43.498  33.388   7.604
 2211POPC   NC330851   8.401  41.332   9.515
 2211POPC   PO430852   8.546  41.942   9.503
 2211POPC   GL130853   8.361  41.723   9.159
 2211POPC   GL230854   8.008  41.712   9.147
 2211POPC   C1A30855   8.323  41.481   8.777
 2211POPC   D2A30856   8.295  41.398   8.317
 2211POPC   C3A30857   8.607  41.504   7.989
 2211POPC   C4A30858   8.474  41.477   7.556
 2211POPC   C1B30859   8.122  41.957   8.750
 2211POPC   C2B30860   8.297  41.914   8.309
 2211POPC   C3B30861   8.190  41.778   7.879
 2211POPC   C4B30862   8.206  41.881   7.426
 2212POPC   NC330863  26.291   4.496   9.351
 2212POPC   PO430864  25.799   4.035   9.422
 2212POPC   GL130865  25.916   4.255   9.089
 2212POPC   GL230866  25.776   4.564   9.233
 2212POPC   C1A30867  26.161   4.178   8.721
 2212POPC   D2A30868  26.319   3.973   8.343
 2212POPC   C3A30869  26.114   4.162   8.009
 2212POPC   C4A30870  26.261   4.332   7.669
 2212POPC   C1B30871  25.717   4.615   8.798
 2212POPC   C2B30872  25.834   4.412   8.399
 2212POPC   C3B30873  25.694   4.466   7.999
 2212POPC   C4B30874  25.771   4.384   7.573
 2213POPC   NC330875   6.262  10.765   9.535
 2213POPC   PO430876   6.864  10.344   9.481
 2213POPC   GL130877   6.845  10.585   9.118
 2213POPC   GL230878   6.520  10.720   9.105
 2213POPC   C1A30879   6.722  10.468   8.713
 2213POPC   D2A30880   6.524  10.267   8.404
 2213POPC   C3A30881   6.807  10.399   8.116
 2213POPC   C4A30882   6.995  10.637   7.779
 2213POPC   C1B30883   6.264  10.837   8.749
 2213POPC   C2B30884   6.076  10.778   8.345
 2213POPC   C3B30885   6.275  10.526   8.027
 2213POPC   C4B30886   6.548  10.373   7.698
 2214POPC   NC330887  10.051  43.826   9.685
 2214POPC   PO430888   9.517  44.224   9.682
 2214POPC   GL130889   9.754  44.154   9.289
 2214POPC   GL230890   9.833  43.797   9.224
 2214POPC   C1A30891   9.600  44.177   8.841
 2214POPC   D2A30892   9.550  44.365   8.408
 2214POPC   C3A30893   9.504  44.097   8.057
 2214POPC   C4A30894   9.720  43.874   7.744
 2214POPC   C1B30895  10.033  43.885   8.830
 2214POPC   C2B30896   9.830  43.934   8.462
 2214POPC   C3B30897  10.006  44.045   8.123
 2214POPC   C4B30898  10.223  43.884   7.789
 2215POPC   NC330899  35.446  21.362   9.555
 2215POPC   PO430900  35.643  20.774   9.358
 2215POPC   GL130901  35.452  21.116   9.091
 2215POPC   GL230902  35.614  21.471   9.104
 2215POPC   C1A30903  35.092  21.224   8.797
 2215POPC   D2A30904  35.085  21.474   8.399
 2215POPC   C3A30905  35.354  21.293   8.084
 2215POPC   C4A30906  35.286  21.183   7.671
 2215POPC   C1B30907  35.503  21.503   8.698
 2215POPC   C2B30908  35.743  21.526   8.355
 2215POPC   C3B30909  35.711  21.651   7.974
 2215POPC   C4B30910  35.341  21.692   7.732
 2216POPC   NC330911  14.811  36.865   9.519
 2216POPC   PO430912  15.289  37.306   9.497
 2216POPC   GL130913  15.212  36.926   9.167
 2216POPC   GL230914  14.858  36.851   9.033
 2216POPC   C1A30915  15.308  36.746   8.728
 2216POPC   D2A30916  15.146  36.801   8.313
 2216POPC   C3A30917  15.387  36.733   7.924
 2216POPC   C4A30918  15.334  36.978   7.551
 2216POPC   C1B30919  14.810  36.640   8.667
 2216POPC   C2B30920  14.656  36.533   8.278
 2216POPC   C3B30921  14.888  36.621   7.881
 2216POPC   C4B30922  14.892  36.742   7.424
 2217POPC   NC330923  21.530  40.341   9.285
 2217POPC   PO430924  21.414  41.001   9.473
 2217POPC   GL130925  21.204  40.815   9.103
 2217POPC   GL230926  21.430  40.635   8.889
 2217POPC   C1A30927  21.060  40.908   8.678
 2217POPC   D2A30928  21.329  40.928   8.299
 2217POPC   C3A30929  21.092  40.842   7.931
 2217POPC   C4A30930  21.153  40.478   7.743
 2217POPC   C1B30931  21.536  41.075   8.800
 2217POPC   C2B30932  21.690  41.287   8.455
 2217POPC   C3B30933  21.765  41.187   8.065
 2217POPC   C4B30934  21.561  40.978   7.784
 2218POPC   NC330935  25.771  12.917  10.033
 2218POPC   PO430936  25.267  12.649   9.585
 2218POPC   GL130937  25.189  12.483   9.170
 2218POPC   GL230938  25.228  12.794   9.018
 2218POPC   C1A30939  25.445  12.431   8.727
 2218POPC   D2A30940  25.550  12.559   8.277
 2218POPC   C3A30941  25.278  12.676   7.913
 2218POPC   C4A30942  25.117  12.657   7.475
 2218POPC   C1B30943  24.968  12.775   8.662
 2218POPC   C2B30944  24.947  12.912   8.229
 2218POPC   C3B30945  25.040  13.147   7.847
 2218POPC   C4B30946  25.191  13.145   7.413
 2219POPC   NC330947  35.387   0.465   9.869
 2219POPC   PO430948  35.758   0.280   9.366
 2219POPC   GL130949  35.485   0.530   9.050
 2219POPC   GL230950  35.106   0.557   9.088
 2219POPC   C1A30951  35.313   0.473   8.624
 2219POPC   D2A30952  35.134   0.370   8.229
 2219POPC   C3A30953  35.456   0.338   7.900
 2219POPC   C4A30954  35.415   0.411   7.448
 2219POPC   C1B30955  34.915   0.782   8.676
 2219POPC   C2B30956  34.959   0.889   8.224
 2219POPC   C3B30957  35.187   0.771   7.832
 2219POPC   C4B30958  35.265   0.900   7.381
 2220POPC   NC330959  38.114  27.675   9.352
 2220POPC   PO430960  38.509  27.308   9.770
 2220POPC   GL130961  38.568  27.362   9.252
 2220POPC   GL230962  38.876  27.408   9.135
 2220POPC   C1A30963  38.388  27.359   8.803
 2220POPC   D2A30964  38.076  27.387   8.446
 2220POPC   C3A30965  38.205  27.631   8.087
 2220POPC   C4A30966  38.625  27.743   7.967
 2220POPC   C1B30967  38.848  27.579   8.705
 2220POPC   C2B30968  38.610  27.389   8.350
 2220POPC   C3B30969  38.765  27.084   8.090
 2220POPC   C4B30970  38.887  27.284   7.755
 2221POPC   NC330971   8.996  41.889   9.559
 2221POPC   PO430972   8.837  41.210   9.582
 2221POPC   GL130973   8.787  41.428   9.155
 2221POPC   GL230974   8.871  41.776   9.077
 2221POPC   C1A30975   8.819  41.440   8.668
 2221POPC   D2A30976   9.055  41.523   8.268
 2221POPC   C3A30977   9.082  41.319   7.845
 2221POPC   C4A30978   8.913  41.309   7.400
 2221POPC   C1B30979   9.125  41.862   8.689
 2221POPC   C2B30980   9.102  42.031   8.264
 2221POPC   C3B30981   9.024  41.856   7.865
 2221POPC   C4B30982   9.234  41.678   7.524
 2222POPC   NC330983  38.649  17.106   9.378
 2222POPC   PO430984  38.208  17.530   9.654
 2222POPC   GL130985  38.228  17.456   9.155
 2222POPC   GL230986  38.084  17.224   8.921
 2222POPC   C1A30987  38.385  17.613   8.723
 2222POPC   D2A30988  38.300  17.758   8.317
 2222POPC   C3A30989  38.549  17.643   7.959
 2222POPC   C4A30990  38.327  17.722   7.594
 2222POPC   C1B30991  38.338  17.136   8.550
 2222POPC   C2B30992  38.218  17.284   8.155
 2222POPC   C3B30993  38.313  17.224   7.759
 2222POPC   C4B30994  38.682  17.145   7.529
 2223POPC   NC330995  36.499  10.767   9.417
 2223POPC   PO430996  35.930  11.001   9.181
 2223POPC   GL130997  36.137  10.555   9.114
 2223POPC   GL230998  35.949  10.237   9.113
 2223POPC   C1A30999  36.424  10.355   8.799
 2223POPC   D2A31000  36.570  10.537   8.394
 2223POPC   C3A31001  36.411  10.518   7.931
 2223POPC   C4A31002  36.119  10.769   7.649
 2223POPC   C1B31003  35.898  10.371   8.686
 2223POPC   C2B31004  35.644  10.418   8.322
 2223POPC   C3B31005  35.738  10.577   7.932
 2223POPC   C4B31006  35.994  10.271   7.731
 2224POPC   NC331007   1.889  34.816   9.702
 2224POPC   PO431008   2.451  34.586   9.525
 2224POPC   GL131009   2.219  34.768   9.170
 2224POPC   GL231010   1.847  34.788   9.200
 2224POPC   C1A31011   2.063  34.742   8.727
 2224POPC   D2A31012   2.135  34.472   8.381
 2224POPC   C3A31013   2.179  34.624   8.021
 2224POPC   C4A31014   2.078  34.379   7.654
 2224POPC   C1B31015   1.647  34.488   8.910
 2224POPC   C2B31016   1.563  34.541   8.460
 2224POPC   C3B31017   1.709  34.466   8.035
 2224POPC   C4B31018   1.557  34.182   7.740
 2225POPC   NC331019  44.936  32.618   9.385
 2225POPC   PO431020  44.673  32.007   9.190
 2225POPC   GL131021  44.681  32.393   8.999
 2225POPC   GL231022  44.382  32.576   8.935
 2225POPC   C1A31023  44.902  32.431   8.656
 2225POPC   D2A31024  44.908  32.426   8.246
 2225POPC   C3A31025  44.807  32.091   7.990
 2225POPC   C4A31026  44.809  32.371   7.694
 2225POPC   C1B31027  44.278  32.269   8.653
 2225POPC   C2B31028  44.494  32.025   8.391
 2225POPC   C3B31029  44.292  32.038   8.001
 2225POPC   C4B31030  44.457  32.013   7.620
 2226POPC   NC331031  34.300  22.671   9.475
 2226POPC   PO431032  34.875  22.573   9.263
 2226POPC   GL131033  34.516  22.689   9.001
 2226POPC   GL231034  34.288  22.991   9.062
 2226POPC   C1A31035  34.300  22.735   8.622
 2226POPC   D2A31036  34.299  22.944   8.244
 2226POPC   C3A31037  34.652  22.801   8.067
 2226POPC   C4A31038  34.689  22.832   7.659
 2226POPC   C1B31039  34.442  23.252   8.692
 2226POPC   C2B31040  34.704  23.315   8.294
 2226POPC   C3B31041  34.493  23.314   7.885
 2226POPC   C4B31042  34.398  23.415   7.433
 2227POPC   NC331043  32.469  16.624   9.648
 2227POPC   PO431044  33.154  16.816   9.632
 2227POPC   GL131045  32.983  16.702   9.268
 2227POPC   GL231046  32.744  16.959   9.280
 2227POPC   C1A31047  33.118  16.702   8.856
 2227POPC   D2A31048  33.048  16.746   8.415
 2227POPC   C3A31049  33.025  16.362   8.121
 2227POPC   C4A31050  33.123  16.359   7.658
 2227POPC   C1B31051  32.674  16.985   8.822
 2227POPC   C2B31052  32.746  17.168   8.412
 2227POPC   C3B31053  32.982  17.108   8.042
 2227POPC   C4B31054  32.836  16.737   7.846
 2228POPC   NC331055   3.535  37.459   9.534
 2228POPC   PO431056   3.216  38.077   9.423
 2228POPC   GL131057   3.417  37.793   9.146
 2228POPC   GL231058   3.342  37.416   9.064
 2228POPC   C1A31059   3.583  37.760   8.768
 2228POPC   D2A31060   3.577  37.458   8.488
 2228POPC   C3A31061   3.813  37.665   8.196
 2228POPC   C4A31062   3.661  37.776   7.818
 2228POPC   C1B31063   3.089  37.682   8.770
 2228POPC   C2B31064   3.242  37.867   8.405
 2228POPC   C3B31065   3.253  37.620   8.064
 2228POPC   C4B31066   3.202  37.712   7.610
 2229POPC   NC331067   8.475  26.991   9.463
 2229POPC   PO431068   7.898  26.594   9.427
 2229POPC   GL131069   8.092  26.815   9.116
 2229POPC   GL231070   8.433  26.733   9.014
 2229POPC   C1A31071   8.084  26.891   8.676
 2229POPC   D2A31072   8.447  26.947   8.444
 2229POPC   C3A31073   8.358  27.107   8.060
 2229POPC   C4A31074   8.234  26.829   7.748
 2229POPC   C1B31075   8.557  26.367   8.761
 2229POPC   C2B31076   8.726  26.310   8.351
 2229POPC   C3B31077   8.539  26.355   7.926
 2229POPC   C4B31078   8.689  26.532   7.538
 2230POPC   NC331079   0.232  30.145   9.475
 2230POPC   PO431080   0.747  29.750   9.475
 2230POPC   GL131081   0.555  29.982   9.110
 2230POPC   GL231082   0.610  30.341   9.184
 2230POPC   C1A31083   0.218  29.873   8.776
 2230POPC   D2A31084   0.233  29.641   8.360
 2230POPC   C3A31085   0.308  29.870   7.969
 2230POPC   C4A31086   0.707  29.882   7.732
 2230POPC   C1B31087   0.339  30.381   8.818
 2230POPC   C2B31088   0.333  30.233   8.411
 2230POPC   C3B31089   0.595  30.287   8.092
 2230POPC   C4B31090   0.562  30.396   7.698
 2231POPC   NC331091  11.613  24.344   9.267
 2231POPC   PO431092  12.276  24.329   9.437
 2231POPC   GL131093  12.069  24.417   9.075
 2231POPC   GL231094  11.937  24.135   8.944
 2231POPC   C1A31095  12.024  24.643   8.693
 2231POPC   D2A31096  12.213  24.798   8.296
 2231POPC   C3A31097  11.984  24.792   7.879
 2231POPC   C4A31098  11.895  24.684   7.410
 2231POPC   C1B31099  11.606  24.316   8.631
 2231POPC   C2B31100  11.728  24.551   8.273
 2231POPC   C3B31101  11.964  24.246   8.028
 2231POPC   C4B31102  11.745  23.982   7.722
 2232POPC   NC331103   0.638  25.130   9.583
 2232POPC   PO431104   0.072  25.342   9.825
 2232POPC   GL131105   0.283  25.281   9.278
 2232POPC   GL231106   0.639  25.386   9.102
 2232POPC   C1A31107   0.219  25.386   8.827
 2232POPC   D2A31108   0.508  25.399   8.446
 2232POPC   C3A31109   0.255  25.299   8.071
 2232POPC   C4A31110   0.118  25.456   7.674
 2232POPC   C1B31111   0.641  25.020   8.847
 2232POPC   C2B31112   0.748  24.830   8.438
 2232POPC   C3B31113   0.726  24.955   7.994
 2232POPC   C4B31114   0.602  25.279   7.690
 2233POPC   NC331115  36.392  21.171   9.557
 2233POPC   PO431116  35.850  21.664   9.552
 2233POPC   GL131117  36.117  21.493   9.227
 2233POPC   GL231118  36.017  21.138   9.194
 2233POPC   C1A31119  36.020  21.480   8.785
 2233POPC   D2A31120  36.252  21.644   8.444
 2233POPC   C3A31121  36.264  21.492   8.059
 2233POPC   C4A31122  36.141  21.671   7.693
 2233POPC   C1B31123  36.146  20.992   8.780
 2233POPC   C2B31124  36.078  21.121   8.376
 2233POPC   C3B31125  35.871  21.171   7.997
 2233POPC   C4B31126  36.037  21.140   7.607
 2234POPC   NC331127  10.929  27.701   9.562
 2234POPC   PO431128  11.560  27.819   9.570
 2234POPC   GL131129  11.397  27.545   9.190
 2234POPC   GL231130  11.061  27.391   9.194
 2234POPC   C1A31131  11.317  27.601   8.717
 2234POPC   D2A31132  11.384  27.660   8.251
 2234POPC   C3A31133  11.561  27.983   7.969
 2234POPC   C4A31134  11.594  27.991   7.504
 2234POPC   C1B31135  11.080  27.144   8.820
 2234POPC   C2B31136  11.175  27.168   8.385
 2234POPC   C3B31137  11.038  27.371   7.995
 2234POPC   C4B31138  11.308  27.611   7.723
 2235POPC   NC331139  32.979  22.301   9.648
 2235POPC   PO431140  33.333  21.805   9.293
 2235POPC   GL131141  33.150  22.174   9.166
 2235POPC   GL231142  32.873  22.249   9.114
 2235POPC   C1A31143  33.201  22.159   8.716
 2235POPC   D2A31144  33.056  21.915   8.374
 2235POPC   C3A31145  33.141  22.069   7.947
 2235POPC   C4A31146  32.928  22.083   7.555
 2235POPC   C1B31147  32.716  22.069   8.758
 2235POPC   C2B31148  32.590  22.150   8.350
 2235POPC   C3B31149  32.669  22.310   7.954
 2235POPC   C4B31150  32.508  22.620   7.684
 2236POPC   NC331151  44.265  21.202   9.582
 2236POPC   PO431152  44.853  21.656   9.558
 2236POPC   GL131153  44.786  21.523   9.154
 2236POPC   GL231154  44.618  21.187   9.186
 2236POPC   C1A31155  44.973  21.475   8.735
 2236POPC   D2A31156   0.059  21.243   8.341
 2236POPC   C3A31157  44.912  21.470   7.999
 2236POPC   C4A31158  44.757  21.778   7.719
 2236POPC   C1B31159  44.417  21.378   8.824
 2236POPC   C2B31160  44.553  21.472   8.411
 2236POPC   C3B31161  44.390  21.407   8.007
 2236POPC   C4B31162  44.275  21.637   7.652
 2237POPC   NC331163  13.036  15.050   9.588
 2237POPC   PO431164  12.530  15.533   9.534
 2237POPC   GL131165  12.826  15.368   9.253
 2237POPC   GL231166  12.559  15.197   9.127
 2237POPC   C1A31167  12.985  15.044   8.941
 2237POPC   D2A31168  12.881  14.974   8.513
 2237POPC   C3A31169  13.197  14.956   8.195
 2237POPC   C4A31170  13.105  14.902   7.734
 2237POPC   C1B31171  12.701  15.426   8.755
 2237POPC   C2B31172  12.548  15.321   8.358
 2237POPC   C3B31173  12.719  15.192   7.951
 2237POPC   C4B31174  12.577  15.508   7.620
 2238POPC   NC331175  27.704   3.899   9.563
 2238POPC   PO431176  27.352   4.387   9.674
 2238POPC   GL131177  27.450   4.470   9.233
 2238POPC   GL231178  27.657   4.202   9.155
 2238POPC   C1A31179  27.619   4.553   8.786
 2238POPC   D2A31180  27.580   4.310   8.395
 2238POPC   C3A31181  27.572   4.514   7.968
 2238POPC   C4A31182  27.810   4.491   7.564
 2238POPC   C1B31183  27.938   4.137   8.808
 2238POPC   C2B31184  28.001   4.010   8.396
 2238POPC   C3B31185  27.848   4.086   8.002
 2238POPC   C4B31186  28.065   4.052   7.626
 2239POPC   NC331187   5.995   6.091   9.371
 2239POPC   PO431188   5.502   5.626   9.490
 2239POPC   GL131189   5.780   5.679   9.125
 2239POPC   GL231190   5.619   5.958   9.083
 2239POPC   C1A31191   5.927   5.884   8.696
 2239POPC   D2A31192   6.038   6.027   8.282
 2239POPC   C3A31193   6.030   5.763   7.923
 2239POPC   C4A31194   6.279   5.812   7.562
 2239POPC   C1B31195   5.438   5.760   8.723
 2239POPC   C2B31196   5.614   5.717   8.290
 2239POPC   C3B31197   5.519   5.810   7.853
 2239POPC   C4B31198   5.776   5.795   7.467
 2240POPC   NC331199  40.783  21.829   9.440
 2240POPC   PO431200  40.956  22.524   9.435
 2240POPC   GL131201  40.769  22.265   9.172
 2240POPC   GL231202  41.089  22.096   9.101
 2240POPC   C1A31203  40.689  22.093   8.778
 2240POPC   D2A31204  40.949  22.097   8.421
 2240POPC   C3A31205  40.734  22.125   8.072
 2240POPC   C4A31206  40.665  22.154   7.682
 2240POPC   C1B31207  41.044  22.474   8.789
 2240POPC   C2B31208  41.065  22.577   8.356
 2240POPC   C3B31209  40.988  22.525   7.910
 2240POPC   C4B31210  41.035  22.766   7.536
 2241POPC   NC331211  17.282   2.524   9.495
 2241POPC   PO431212  17.797   2.962   9.496
 2241POPC   GL131213  17.446   2.928   9.177
 2241POPC   GL231214  17.144   3.153   9.104
 2241POPC   C1A31215  17.534   2.706   8.794
 2241POPC   D2A31216  17.786   2.823   8.436
 2241POPC   C3A31217  17.592   2.847   8.044
 2241POPC   C4A31218  17.558   2.554   7.725
 2241POPC   C1B31219  16.989   3.013   8.742
 2241POPC   C2B31220  17.153   2.740   8.443
 2241POPC   C3B31221  17.084   2.645   8.023
 2241POPC   C4B31222  17.116   2.825   7.649
 2242POPC   NC331223  17.836  39.528   9.485
 2242POPC   PO431224  17.384  40.095   9.560
 2242POPC   GL131225  17.324  40.002   9.156
 2242POPC   GL231226  17.500  39.690   9.114
 2242POPC   C1A31227  17.469  40.028   8.739
 2242POPC   D2A31228  17.329  39.943   8.384
 2242POPC   C3A31229  17.603  39.938   8.060
 2242POPC   C4A31230  17.523  40.143   7.692
 2242POPC   C1B31231  17.842  39.708   8.791
 2242POPC   C2B31232  17.989  39.793   8.395
 2242POPC   C3B31233  17.988  39.586   8.008
 2242POPC   C4B31234  17.919  39.804   7.671
 2243POPC   NC331235  32.703  12.240   9.905
 2243POPC   PO431236  33.204  12.083   9.447
 2243POPC   GL131237  33.178  12.050   9.068
 2243POPC   GL231238  32.836  11.923   9.045
 2243POPC   C1A31239  33.147  12.070   8.672
 2243POPC   D2A31240  32.834  11.936   8.404
 2243POPC   C3A31241  32.913  12.019   7.986
 2243POPC   C4A31242  33.040  11.912   7.524
 2243POPC   C1B31243  32.656  12.255   8.763
 2243POPC   C2B31244  32.444  12.465   8.426
 2243POPC   C3B31245  32.458  12.343   8.018
 2243POPC   C4B31246  32.646  12.242   7.642
 2244POPC   NC331247   9.832  28.280   9.669
 2244POPC   PO431248   9.203  28.233   9.604
 2244POPC   GL131249   9.565  28.321   9.237
 2244POPC   GL231250   9.822  28.609   9.227
 2244POPC   C1A31251   9.693  28.268   8.766
 2244POPC   D2A31252   9.817  28.118   8.331
 2244POPC   C3A31253   9.568  28.180   7.923
 2244POPC   C4A31254   9.624  28.274   7.440
 2244POPC   C1B31255  10.093  28.587   8.833
 2244POPC   C2B31256  10.059  28.663   8.424
 2244POPC   C3B31257   9.982  28.493   8.055
 2244POPC   C4B31258   9.905  28.624   7.673
 2245POPC   NC331259  33.900  38.500   9.563
 2245POPC   PO431260  33.390  38.793   9.576
 2245POPC   GL131261  33.556  38.615   9.178
 2245POPC   GL231262  33.815  38.358   9.095
 2245POPC   C1A31263  33.540  38.777   8.758
 2245POPC   D2A31264  33.764  38.810   8.360
 2245POPC   C3A31265  33.544  38.657   8.016
 2245POPC   C4A31266  33.760  38.394   7.725
 2245POPC   C1B31267  33.932  38.456   8.694
 2245POPC   C2B31268  34.122  38.253   8.331
 2245POPC   C3B31269  34.029  38.032   7.947
 2245POPC   C4B31270  34.124  38.101   7.506
 2246POPC   NC331271  41.737   0.256   9.605
 2246POPC   PO431272  41.122   0.178   9.566
 2246POPC   GL131273  41.375   0.377   9.235
 2246POPC   GL231274  41.748   0.305   9.112
 2246POPC   C1A31275  41.379   0.393   8.794
 2246POPC   D2A31276  41.626   0.209   8.508
 2246POPC   C3A31277  41.623   0.421   8.144
 2246POPC   C4A31278  41.519   0.218   7.790
 2246POPC   C1B31279  41.869   0.578   8.783
 2246POPC   C2B31280  41.909   0.778   8.371
 2246POPC   C3B31281  42.040   0.650   7.962
 2246POPC   C4B31282  41.818   0.595   7.609
 2247POPC   NC331283   4.724  10.493   9.542
 2247POPC   PO431284   5.401  10.630   9.532
 2247POPC   GL131285   5.252  10.689   9.111
 2247POPC   GL231286   4.890  10.626   9.080
 2247POPC   C1A31287   5.303  10.469   8.709
 2247POPC   D2A31288   5.399  10.349   8.283
 2247POPC   C3A31289   5.270  10.647   7.936
 2247POPC   C4A31290   5.001  10.625   7.523
 2247POPC   C1B31291   4.920  10.777   8.660
 2247POPC   C2B31292   4.903  10.578   8.284
 2247POPC   C3B31293   4.791  10.823   7.942
 2247POPC   C4B31294   4.487  11.113   7.819
 2248POPC   NC331295   0.117  34.287   9.329
 2248POPC   PO431296   0.642  34.812   9.527
 2248POPC   GL131297   0.472  34.621   9.180
 2248POPC   GL231298   0.122  34.781   9.137
 2248POPC   C1A31299   0.577  34.489   8.767
 2248POPC   D2A31300   0.483  34.633   8.361
 2248POPC   C3A31301   0.697  34.467   8.034
 2248POPC   C4A31302   0.687  34.596   7.641
 2248POPC   C1B31303   0.039  34.545   8.730
 2248POPC   C2B31304   0.059  34.359   8.312
 2248POPC   C3B31305   0.195  34.558   7.901
 2248POPC   C4B31306   0.274  34.388   7.453
 2249POPC   NC331307   9.843  11.498   9.453
 2249POPC   PO431308   9.652  10.864   9.311
 2249POPC   GL131309   9.602  11.198   8.991
 2249POPC   GL231310   9.687  11.574   8.976
 2249POPC   C1A31311   9.756  11.031   8.617
 2249POPC   D2A31312   9.898  10.879   8.225
 2249POPC   C3A31313   9.869  11.258   7.993
 2249POPC   C4A31314   9.652  11.272   7.583
 2249POPC   C1B31315   9.645  11.729   8.576
 2249POPC   C2B31316   9.501  11.395   8.337
 2249POPC   C3B31317   9.326  11.344   7.951
 2249POPC   C4B31318   9.293  11.613   7.604
 2250POPC   NC331319  23.476   9.502   9.430
 2250POPC   PO431320  23.764  10.087   9.648
 2250POPC   GL131321  23.748   9.911   9.209
 2250POPC   GL231322  23.941   9.592   9.200
 2250POPC   C1A31323  23.621   9.702   8.799
 2250POPC   D2A31324  23.791   9.624   8.382
 2250POPC   C3A31325  23.499   9.775   8.106
 2250POPC   C4A31326  23.448   9.923   7.704
 2250POPC   C1B31327  24.078   9.437   8.788
 2250POPC   C2B31328  24.193   9.272   8.388
 2250POPC   C3B31329  24.123   9.423   7.988
 2250POPC   C4B31330  23.776   9.496   7.759
 2251POPC   NC331331  39.947  28.941   9.506
 2251POPC   PO431332  40.380  29.414   9.539
 2251POPC   GL131333  39.990  29.441   9.254
 2251POPC   GL231334  39.850  29.153   9.054
 2251POPC   C1A31335  39.702  29.601   8.907
 2251POPC   D2A31336  39.810  29.528   8.476
 2251POPC   C3A31337  39.621  29.413   8.090
 2251POPC   C4A31338  39.885  29.331   7.765
 2251POPC   C1B31339  40.121  29.180   8.684
 2251POPC   C2B31340  40.055  29.090   8.256
 2251POPC   C3B31341  39.802  28.845   8.010
 2251POPC   C4B31342  39.772  28.860   7.581
 2252POPC   NC331343   8.412   2.181   9.384
 2252POPC   PO431344   9.140   1.982   9.476
 2252POPC   GL131345   9.082   2.138   9.113
 2252POPC   GL231346   8.800   2.346   9.109
 2252POPC   C1A31347   9.077   1.903   8.744
 2252POPC   D2A31348   8.937   1.880   8.335
 2252POPC   C3A31349   9.199   1.808   7.972
 2252POPC   C4A31350   8.887   1.707   7.654
 2252POPC   C1B31351   9.003   2.426   8.697
 2252POPC   C2B31352   8.860   2.380   8.263
 2252POPC   C3B31353   8.908   2.208   7.840
 2252POPC   C4B31354   9.146   2.118   7.461
 2253POPC   NC331355   5.994  13.393   9.504
 2253POPC   PO431356   5.557  13.919   9.446
 2253POPC   GL131357   5.828  13.706   9.117
 2253POPC   GL231358   5.843  13.290   9.041
 2253POPC   C1A31359   5.683  13.610   8.702
 2253POPC   D2A31360   5.419  13.715   8.437
 2253POPC   C3A31361   5.704  13.867   8.177
 2253POPC   C4A31362   5.763  13.835   7.769
 2253POPC   C1B31363   6.179  13.492   8.807
 2253POPC   C2B31364   6.084  13.600   8.406
 2253POPC   C3B31365   6.073  13.462   8.006
 2253POPC   C4B31366   5.910  13.352   7.656
 2254POPC   NC331367  24.741  31.177   9.566
 2254POPC   PO431368  24.595  31.800   9.676
 2254POPC   GL131369  24.413  31.595   9.267
 2254POPC   GL231370  24.646  31.343   9.109
 2254POPC   C1A31371  24.297  31.498   8.793
 2254POPC   D2A31372  24.495  31.395   8.388
 2254POPC   C3A31373  24.311  31.341   8.000
 2254POPC   C4A31374  24.460  31.546   7.682
 2254POPC   C1B31375  24.866  31.348   8.731
 2254POPC   C2B31376  25.038  31.195   8.366
 2254POPC   C3B31377  24.835  31.259   7.985
 2254POPC   C4B31378  24.951  31.314   7.570
 2255POPC   NC331379  12.528   3.876   9.424
 2255POPC   PO431380  13.075   3.507   9.533
 2255POPC   GL131381  12.876   3.615   9.171
 2255POPC   GL231382  12.990   3.967   9.186
 2255POPC   C1A31383  12.622   3.516   8.806
 2255POPC   D2A31384  12.618   3.703   8.398
 2255POPC   C3A31385  12.615   3.373   8.109
 2255POPC   C4A31386  12.808   3.180   7.811
 2255POPC   C1B31387  12.923   3.943   8.760
 2255POPC   C2B31388  13.109   3.892   8.376
 2255POPC   C3B31389  13.017   3.702   7.989
 2255POPC   C4B31390  13.174   3.846   7.605
 2256POPC   NC331391   9.598   4.016   9.688
 2256POPC   PO431392  10.040   4.468   9.500
 2256POPC   GL131393   9.919   4.201   9.171
 2256POPC   GL231394   9.542   4.157   9.205
 2256POPC   C1A31395  10.062   4.216   8.734
 2256POPC   D2A31396   9.898   4.056   8.344
 2256POPC   C3A31397  10.061   4.191   7.960
 2256POPC   C4A31398   9.969   4.008   7.540
 2256POPC   C1B31399   9.555   4.239   8.779
 2256POPC   C2B31400   9.500   4.405   8.358
 2256POPC   C3B31401   9.609   4.411   7.943
 2256POPC   C4B31402   9.423   4.185   7.603
 2257POPC   NC331403  16.532  37.318   9.497
 2257POPC   PO431404  16.654  37.949   9.659
 2257POPC   GL131405  16.796  37.690   9.259
 2257POPC   GL231406  17.133  37.590   9.175
 2257POPC   C1A31407  16.792  37.750   8.789
 2257POPC   D2A31408  16.599  37.897   8.378
 2257POPC   C3A31409  16.742  37.754   7.973
 2257POPC   C4A31410  16.539  37.734   7.560
 2257POPC   C1B31411  17.063  37.311   8.814
 2257POPC   C2B31412  16.851  37.248   8.412
 2257POPC   C3B31413  17.022  37.298   8.012
 2257POPC   C4B31414  16.991  37.509   7.607
 2258POPC   NC331415  42.220  28.598   9.567
 2258POPC   PO431416  42.657  28.074   9.487
 2258POPC   GL131417  42.473  28.112   9.083
 2258POPC   GL231418  42.451  28.469   9.120
 2258POPC   C1A31419  42.553  28.236   8.640
 2258POPC   D2A31420  42.550  28.593   8.340
 2258POPC   C3A31421  42.439  28.492   7.927
 2258POPC   C4A31422  42.430  28.058   7.864
 2258POPC   C1B31423  42.200  28.605   8.758
 2258POPC   C2B31424  42.034  28.502   8.354
 2258POPC   C3B31425  41.964  28.300   7.961
 2258POPC   C4B31426  41.974  28.642   7.675
 2259POPC   NC331427  44.523  15.022   9.570
 2259POPC   PO431428  44.709  15.703   9.626
 2259POPC   GL131429  44.562  15.470   9.223
 2259POPC   GL231430  44.507  15.127   9.085
 2259POPC   C1A31431  44.592  15.489   8.745
 2259POPC   D2A31432  44.475  15.338   8.317
 2259POPC   C3A31433  44.692  15.330   7.929
 2259POPC   C4A31434  44.877  15.340   7.502
 2259POPC   C1B31435  44.606  14.916   8.718
 2259POPC   C2B31436  44.565  14.846   8.311
 2259POPC   C3B31437  44.846  14.850   7.983
 2259POPC   C4B31438  44.729  14.860   7.554
 2260POPC   NC331439  10.744  10.295   9.471
 2260POPC   PO431440  10.308  10.775   9.649
 2260POPC   GL131441  10.504  10.715   9.177
 2260POPC   GL231442  10.506  10.367   9.029
 2260POPC   C1A31443  10.458  10.690   8.668
 2260POPC   D2A31444  10.644  10.484   8.306
 2260POPC   C3A31445  10.738  10.723   7.954
 2260POPC   C4A31446  10.350  10.644   7.849
 2260POPC   C1B31447  10.537  10.092   8.642
 2260POPC   C2B31448  10.755   9.976   8.248
 2260POPC   C3B31449  10.657  10.214   7.854
 2260POPC   C4B31450  10.848  10.173   7.462
 2261POPC   NC331451  38.875  13.355   9.751
 2261POPC   PO431452  38.511  12.780   9.497
 2261POPC   GL131453  38.327  12.740   9.100
 2261POPC   GL231454  38.637  12.865   8.985
 2261POPC   C1A31455  38.164  12.791   8.692
 2261POPC   D2A31456  37.851  12.957   8.445
 2261POPC   C3A31457  37.993  13.038   8.029
 2261POPC   C4A31458  38.425  13.061   7.871
 2261POPC   C1B31459  38.623  12.572   8.665
 2261POPC   C2B31460  38.535  12.696   8.244
 2261POPC   C3B31461  38.696  12.576   7.841
 2261POPC   C4B31462  38.703  12.432   7.401
 2262POPC   NC331463  18.238  25.902   9.474
 2262POPC   PO431464  18.837  26.153   9.482
 2262POPC   GL131465  18.564  26.113   9.117
 2262POPC   GL231466  18.573  25.749   9.130
 2262POPC   C1A31467  18.142  26.111   8.863
 2262POPC   D2A31468  17.959  26.298   8.468
 2262POPC   C3A31469  18.113  26.078   8.113
 2262POPC   C4A31470  18.115  25.993   7.691
 2262POPC   C1B31471  18.727  25.793   8.722
 2262POPC   C2B31472  18.514  25.768   8.340
 2262POPC   C3B31473  18.640  26.109   8.076
 2262POPC   C4B31474  18.575  26.204   7.691
 2263POPC   NC331475  22.565  23.034   9.448
 2263POPC   PO431476  22.025  22.681   9.599
 2263POPC   GL131477  22.159  22.863   9.187
 2263POPC   GL231478  21.845  22.757   9.094
 2263POPC   C1A31479  22.399  22.989   8.812
 2263POPC   D2A31480  22.574  22.722   8.487
 2263POPC   C3A31481  22.431  22.778   8.077
 2263POPC   C4A31482  22.323  22.595   7.696
 2263POPC   C1B31483  21.916  22.996   8.725
 2263POPC   C2B31484  21.991  22.911   8.311
 2263POPC   C3B31485  21.949  22.876   7.877
 2263POPC   C4B31486  22.001  23.109   7.502
 2264POPC   NC331487  17.285   3.967   9.590
 2264POPC   PO431488  17.673   4.522   9.546
 2264POPC   GL131489  17.752   4.219   9.196
 2264POPC   GL231490  17.435   4.028   9.123
 2264POPC   C1A31491  17.702   4.340   8.748
 2264POPC   D2A31492  17.605   4.585   8.368
 2264POPC   C3A31493  17.524   4.375   7.961
 2264POPC   C4A31494  17.728   4.483   7.582
 2264POPC   C1B31495  17.238   4.064   8.749
 2264POPC   C2B31496  17.443   4.080   8.363
 2264POPC   C3B31497  17.469   3.859   7.964
 2264POPC   C4B31498  17.173   3.953   7.621
 2265POPC   NC331499   7.485  32.520   9.497
 2265POPC   PO431500   7.196  32.002   9.314
 2265POPC   GL131501   7.261  32.359   9.066
 2265POPC   GL231502   6.993  32.607   9.152
 2265POPC   C1A31503   7.382  32.450   8.662
 2265POPC   D2A31504   7.314  32.287   8.244
 2265POPC   C3A31505   7.560  32.319   7.895
 2265POPC   C4A31506   7.837  31.995   7.788
 2265POPC   C1B31507   6.884  32.568   8.702
 2265POPC   C2B31508   7.081  32.743   8.318
 2265POPC   C3B31509   7.130  32.615   7.873
 2265POPC   C4B31510   7.105  32.457   7.447
 2266POPC   NC331511  33.419  21.502   9.629
 2266POPC   PO431512  34.073  21.371   9.562
 2266POPC   GL131513  33.742  21.361   9.225
 2266POPC   GL231514  33.560  21.022   9.275
 2266POPC   C1A31515  33.845  21.515   8.787
 2266POPC   D2A31516  34.018  21.345   8.412
 2266POPC   C3A31517  33.884  21.474   8.014
 2266POPC   C4A31518  34.064  21.629   7.634
 2266POPC   C1B31519  33.552  21.109   8.795
 2266POPC   C2B31520  33.531  21.207   8.325
 2266POPC   C3B31521  33.489  21.179   7.847
 2266POPC   C4B31522  33.451  21.169   7.400
 2267POPC   NC331523  29.742  37.378   9.477
 2267POPC   PO431524  30.103  36.770   9.488
 2267POPC   GL131525  30.033  36.534   9.160
 2267POPC   GL231526  29.795  36.776   9.041
 2267POPC   C1A31527  30.080  36.477   8.730
 2267POPC   D2A31528  29.807  36.804   8.522
 2267POPC   C3A31529  29.717  36.843   8.109
 2267POPC   C4A31530  29.957  36.932   7.767
 2267POPC   C1B31531  29.913  37.201   8.832
 2267POPC   C2B31532  29.952  37.283   8.362
 2267POPC   C3B31533  30.171  37.344   7.945
 2267POPC   C4B31534  30.172  37.339   7.465
 2268POPC   NC331535   9.676  37.899   9.820
 2268POPC   PO431536   9.718  37.260   9.735
 2268POPC   GL131537   9.842  37.602   9.409
 2268POPC   GL231538   9.561  37.838   9.333
 2268POPC   C1A31539   9.893  37.718   8.951
 2268POPC   D2A31540   9.724  37.494   8.560
 2268POPC   C3A31541   9.900  37.516   8.132
 2268POPC   C4A31542   9.615  37.541   7.780
 2268POPC   C1B31543   9.568  38.103   8.975
 2268POPC   C2B31544   9.741  38.015   8.569
 2268POPC   C3B31545   9.558  37.897   8.168
 2268POPC   C4B31546   9.578  38.053   7.757
 2269POPC   NC331547  15.743  26.211   9.581
 2269POPC   PO431548  15.765  25.578   9.399
 2269POPC   GL131549  15.788  25.935   9.115
 2269POPC   GL231550  16.039  26.202   9.137
 2269POPC   C1A31551  15.806  25.961   8.682
 2269POPC   D2A31552  16.096  26.015   8.338
 2269POPC   C3A31553  15.955  25.938   7.922
 2269POPC   C4A31554  15.765  26.176   7.563
 2269POPC   C1B31555  16.136  26.370   8.733
 2269POPC   C2B31556  16.137  26.553   8.313
 2269POPC   C3B31557  16.170  26.395   7.893
 2269POPC   C4B31558  16.143  26.495   7.446
 2270POPC   NC331559  44.981  20.384   9.447
 2270POPC   PO431560  44.409  20.760   9.519
 2270POPC   GL131561  44.613  20.665   9.132
 2270POPC   GL231562  44.952  20.778   9.074
 2270POPC   C1A31563  44.700  20.483   8.747
 2270POPC   D2A31564  44.840  20.299   8.402
 2270POPC   C3A31565  44.749  20.493   8.056
 2270POPC   C4A31566  44.655  20.328   7.705
 2270POPC   C1B31567  44.787  20.994   8.715
 2270POPC   C2B31568  44.606  20.928   8.303
 2270POPC   C3B31569  44.613  20.955   7.854
 2270POPC   C4B31570  44.680  21.299   7.577
 2271POPC   NC331571  14.687  35.262   9.298
 2271POPC   PO431572  14.105  34.965   9.391
 2271POPC   GL131573  14.215  35.320   9.094
 2271POPC   GL231574  14.391  35.664   9.120
 2271POPC   C1A31575  14.441  35.213   8.696
 2271POPC   D2A31576  14.384  35.087   8.275
 2271POPC   C3A31577  14.313  35.324   7.897
 2271POPC   C4A31578  14.514  35.226   7.495
 2271POPC   C1B31579  14.677  35.674   8.744
 2271POPC   C2B31580  14.769  35.468   8.339
 2271POPC   C3B31581  14.737  35.618   7.927
 2271POPC   C4B31582  14.478  35.709   7.576
 2272POPC   NC331583  12.801  21.367   9.666
 2272POPC   PO431584  13.221  21.025   9.231
 2272POPC   GL131585  12.799  21.225   9.152
 2272POPC   GL231586  12.702  21.579   9.165
 2272POPC   C1A31587  12.741  21.123   8.754
 2272POPC   D2A31588  13.080  21.212   8.465
 2272POPC   C3A31589  12.983  21.184   8.039
 2272POPC   C4A31590  12.570  21.150   7.846
 2272POPC   C1B31591  12.802  21.660   8.718
 2272POPC   C2B31592  12.647  21.483   8.303
 2272POPC   C3B31593  12.634  21.662   7.890
 2272POPC   C4B31594  12.541  22.045   7.673
 2273POPC   NC331595  33.082  38.825   9.240
 2273POPC   PO431596  32.965  39.459   9.362
 2273POPC   GL131597  32.841  39.194   9.023
 2273POPC   GL231598  33.117  39.081   8.792
 2273POPC   C1A31599  32.615  38.986   8.711
 2273POPC   D2A31600  32.567  39.176   8.322
 2273POPC   C3A31601  32.799  39.139   7.964
 2273POPC   C4A31602  33.227  39.052   7.820
 2273POPC   C1B31603  33.126  39.551   8.758
 2273POPC   C2B31604  33.060  39.776   8.419
 2273POPC   C3B31605  33.122  39.508   8.096
 2273POPC   C4B31606  33.147  39.529   7.672
 2274POPC   NC331607  23.284  12.913   9.373
 2274POPC   PO431608  22.651  13.081   9.493
 2274POPC   GL131609  22.793  12.823   9.172
 2274POPC   GL231610  22.952  12.534   9.291
 2274POPC   C1A31611  22.669  12.769   8.757
 2274POPC   D2A31612  22.875  12.852   8.369
 2274POPC   C3A31613  22.699  12.784   7.958
 2274POPC   C4A31614  22.794  12.580   7.594
 2274POPC   C1B31615  23.117  12.538   8.838
 2274POPC   C2B31616  23.227  12.484   8.381
 2274POPC   C3B31617  23.209  12.538   7.907
 2274POPC   C4B31618  23.240  12.402   7.438
 2275POPC   NC331619   4.843  27.543   9.731
 2275POPC   PO431620   4.268  27.876   9.693
 2275POPC   GL131621   4.243  27.664   9.252
 2275POPC   GL231622   4.325  27.908   9.108
 2275POPC   C1A31623   4.264  27.571   8.747
 2275POPC   D2A31624   4.351  27.380   8.330
 2275POPC   C3A31625   4.166  27.511   7.946
 2275POPC   C4A31626   4.270  27.597   7.486
 2275POPC   C1B31627   4.544  28.001   8.723
 2275POPC   C2B31628   4.400  27.931   8.324
 2275POPC   C3B31629   4.457  27.935   7.916
 2275POPC   C4B31630   4.285  28.100   7.536
 2276POPC   NC331631   2.184  25.110   9.432
 2276POPC   PO431632   1.639  25.613   9.308
 2276POPC   GL131633   1.976  25.444   9.045
 2276POPC   GL231634   2.361  25.343   9.003
 2276POPC   C1A31635   1.921  25.233   8.684
 2276POPC   D2A31636   1.701  25.221   8.326
 2276POPC   C3A31637   1.966  25.287   7.983
 2276POPC   C4A31638   2.200  25.424   7.589
 2276POPC   C1B31639   2.316  24.923   8.764
 2276POPC   C2B31640   2.094  24.839   8.360
 2276POPC   C3B31641   2.229  24.864   7.934
 2276POPC   C4B31642   1.933  24.992   7.580
 2277POPC   NC331643  31.585   9.278   9.513
 2277POPC   PO431644  32.202   8.874   9.474
 2277POPC   GL131645  32.326   8.916   9.079
 2277POPC   GL231646  32.239   9.286   9.066
 2277POPC   C1A31647  32.317   8.967   8.620
 2277POPC   D2A31648  31.971   9.006   8.322
 2277POPC   C3A31649  32.045   8.789   7.917
 2277POPC   C4A31650  32.471   8.839   7.705
 2277POPC   C1B31651  32.064   9.407   8.699
 2277POPC   C2B31652  32.335   9.409   8.347
 2277POPC   C3B31653  32.434   9.295   7.960
 2277POPC   C4B31654  32.037   9.291   7.891
 2278POPC   NC331655   0.097  39.821   9.322
 2278POPC   PO431656   0.796  39.851   9.460
 2278POPC   GL131657   0.604  39.766   9.111
 2278POPC   GL231658   0.477  40.109   9.060
 2278POPC   C1A31659   0.783  39.807   8.720
 2278POPC   D2A31660   0.845  40.179   8.477
 2278POPC   C3A31661   0.736  40.171   8.060
 2278POPC   C4A31662   0.850  39.910   7.739
 2278POPC   C1B31663   0.227  40.405   8.786
 2278POPC   C2B31664   0.044  40.412   8.368
 2278POPC   C3B31665   0.268  40.381   7.977
 2278POPC   C4B31666   0.337  40.000   7.778
 2279POPC   NC331667   7.918  25.511   9.494
 2279POPC   PO431668   8.319  24.954   9.520
 2279POPC   GL131669   8.257  25.289   9.185
 2279POPC   GL231670   8.492  25.098   9.062
 2279POPC   C1A31671   8.049  25.435   8.779
 2279POPC   D2A31672   8.170  25.325   8.338
 2279POPC   C3A31673   8.007  25.423   7.912
 2279POPC   C4A31674   7.754  25.093   7.716
 2279POPC   C1B31675   8.303  24.987   8.700
 2279POPC   C2B31676   8.324  24.794   8.309
 2279POPC   C3B31677   8.366  25.029   7.957
 2279POPC   C4B31678   8.477  25.181   7.557
 2280POPC   NC331679  37.008   7.753   9.362
 2280POPC   PO431680  36.540   7.281   9.360
 2280POPC   GL131681  36.780   7.384   9.050
 2280POPC   GL231682  37.066   7.286   9.146
 2280POPC   C1A31683  36.862   7.537   8.664
 2280POPC   D2A31684  36.856   7.545   8.241
 2280POPC   C3A31685  37.215   7.711   8.039
 2280POPC   C4A31686  36.955   7.634   7.707
 2280POPC   C1B31687  37.225   7.185   8.762
 2280POPC   C2B31688  37.334   7.368   8.377
 2280POPC   C3B31689  37.242   7.220   7.963
 2280POPC   C4B31690  37.042   7.153   7.581
 2281POPC   NC331691   4.699  37.964   9.463
 2281POPC   PO431692   4.653  37.293   9.462
 2281POPC   GL131693   4.978  37.394   9.140
 2281POPC   GL231694   5.158  37.727   9.192
 2281POPC   C1A31695   5.283  37.387   8.805
 2281POPC   D2A31696   5.318  37.565   8.421
 2281POPC   C3A31697   5.098  37.385   8.112
 2281POPC   C4A31698   4.951  37.584   7.719
 2281POPC   C1B31699   5.242  37.946   8.798
 2281POPC   C2B31700   5.031  38.039   8.412
 2281POPC   C3B31701   5.209  37.895   8.023
 2281POPC   C4B31702   5.217  38.015   7.569
 2282POPC   NC331703  22.047  39.585   9.403
 2282POPC   PO431704  22.248  38.876   9.629
 2282POPC   GL131705  22.248  39.106   9.242
 2282POPC   GL231706  21.903  39.084   9.214
 2282POPC   C1A31707  22.219  39.330   8.829
 2282POPC   D2A31708  22.419  39.450   8.443
 2282POPC   C3A31709  22.355  39.233   8.049
 2282POPC   C4A31710  22.340  39.531   7.725
 2282POPC   C1B31711  21.761  39.012   8.789
 2282POPC   C2B31712  21.841  39.341   8.455
 2282POPC   C3B31713  22.002  39.593   8.132
 2282POPC   C4B31714  21.870  39.325   7.808
 2283POPC   NC331715  31.691  14.758   9.420
 2283POPC   PO431716  31.482  15.388   9.625
 2283POPC   GL131717  31.376  15.136   9.252
 2283POPC   GL231718  31.701  15.176   9.123
 2283POPC   C1A31719  31.349  15.109   8.763
 2283POPC   D2A31720  31.382  15.404   8.384
 2283POPC   C3A31721  31.302  15.366   7.946
 2283POPC   C4A31722  31.135  15.033   7.752
 2283POPC   C1B31723  31.708  15.484   8.796
 2283POPC   C2B31724  31.879  15.519   8.387
 2283POPC   C3B31725  31.802  15.517   7.955
 2283POPC   C4B31726  31.764  15.153   7.718
 2284POPC   NC331727  10.080   8.777   9.508
 2284POPC   PO431728  10.690   8.689   9.732
 2284POPC   GL131729  10.690   8.933   9.298
 2284POPC   GL231730  10.365   8.877   9.108
 2284POPC   C1A31731  10.709   9.091   8.830
 2284POPC   D2A31732  10.516   8.884   8.454
 2284POPC   C3A31733  10.523   8.989   7.990
 2284POPC   C4A31734  10.132   9.071   7.785
 2284POPC   C1B31735  10.551   8.571   8.876
 2284POPC   C2B31736  10.369   8.398   8.507
 2284POPC   C3B31737  10.233   8.592   8.124
 2284POPC   C4B31738  10.399   8.515   7.748
 2285POPC   NC331739  38.530  28.525   9.431
 2285POPC   PO431740  38.565  27.847   9.327
 2285POPC   GL131741  38.665  28.182   9.058
 2285POPC   GL231742  38.305  28.287   8.994
 2285POPC   C1A31743  38.645  28.207   8.611
 2285POPC   D2A31744  38.277  28.031   8.401
 2285POPC   C3A31745  38.280  28.183   7.997
 2285POPC   C4A31746  38.643  28.398   7.818
 2285POPC   C1B31747  38.308  28.629   8.686
 2285POPC   C2B31748  38.459  28.628   8.260
 2285POPC   C3B31749  38.248  28.710   7.870
 2285POPC   C4B31750  38.422  28.765   7.487
 2286POPC   NC331751   8.261   2.990   9.512
 2286POPC   PO431752   7.966   2.388   9.305
 2286POPC   GL131753   8.255   2.590   9.058
 2286POPC   GL231754   8.196   2.962   9.017
 2286POPC   C1A31755   8.208   2.640   8.627
 2286POPC   D2A31756   8.366   2.485   8.285
 2286POPC   C3A31757   8.092   2.539   7.984
 2286POPC   C4A31758   8.120   2.830   7.713
 2286POPC   C1B31759   8.200   3.157   8.613
 2286POPC   C2B31760   8.217   3.066   8.172
 2286POPC   C3B31761   8.150   3.329   7.792
 2286POPC   C4B31762   8.109   3.183   7.347
 2287POPC   NC331763  35.758  44.355   9.233
 2287POPC   PO431764  36.312  44.723   9.309
 2287POPC   GL131765  36.247  44.479   8.991
 2287POPC   GL231766  36.567  44.369   9.015
 2287POPC   C1A31767  36.156  44.538   8.553
 2287POPC   D2A31768  36.053  44.367   8.145
 2287POPC   C3A31769  35.924  44.716   7.920
 2287POPC   C4A31770  35.943   0.169   7.992
 2287POPC   C1B31771  36.488  44.176   8.657
 2287POPC   C2B31772  36.555  44.367   8.253
 2287POPC   C3B31773  36.449  44.634   7.938
 2287POPC   C4B31774  36.265  44.525   7.579
 2288POPC   NC331775  42.724  10.716   9.444
 2288POPC   PO431776  43.220  10.278   9.410
 2288POPC   GL131777  43.104  10.192   9.023
 2288POPC   GL231778  42.877  10.458   8.985
 2288POPC   C1A31779  43.149  10.228   8.586
 2288POPC   D2A31780  43.021  10.558   8.293
 2288POPC   C3A31781  43.213  10.507   7.903
 2288POPC   C4A31782  43.547  10.793   7.764
 2288POPC   C1B31783  42.687  10.749   8.663
 2288POPC   C2B31784  42.612  10.913   8.266
 2288POPC   C3B31785  42.850  10.890   7.864
 2288POPC   C4B31786  42.737  11.058   7.449
 2289POPC   NC331787  14.477  10.036   9.715
 2289POPC   PO431788  14.517  10.714   9.618
 2289POPC   GL131789  14.585  10.581   9.200
 2289POPC   GL231790  14.298  10.348   9.249
 2289POPC   C1A31791  14.509  10.689   8.755
 2289POPC   D2A31792  14.203  10.542   8.437
 2289POPC   C3A31793  14.384  10.613   8.065
 2289POPC   C4A31794  14.347  10.525   7.630
 2289POPC   C1B31795  14.357  10.213   8.814
 2289POPC   C2B31796  14.319   9.981   8.405
 2289POPC   C3B31797  14.338  10.106   7.946
 2289POPC   C4B31798  14.273  10.050   7.485
 2290POPC   NC331799  22.205  44.644   9.601
 2290POPC   PO431800  21.825  44.256   9.270
 2290POPC   GL131801  21.987  44.581   9.073
 2290POPC   GL231802  22.326  44.664   9.099
 2290POPC   C1A31803  22.034  44.492   8.651
 2290POPC   D2A31804  22.355  44.500   8.357
 2290POPC   C3A31805  22.199  44.430   7.962
 2290POPC   C4A31806  22.282  44.453   7.528
 2290POPC   C1B31807  22.390  44.891   8.707
 2290POPC   C2B31808  22.395   0.011   8.255
 2290POPC   C3B31809  22.554  44.783   7.889
 2290POPC   C4B31810  22.556  44.841   7.410
 2291POPC   NC331811   8.071  29.561   9.366
 2291POPC   PO431812   8.378  30.078   9.610
 2291POPC   GL131813   8.337  30.240   9.142
 2291POPC   GL231814   8.120  30.022   9.081
 2291POPC   C1A31815   8.375  30.112   8.664
 2291POPC   D2A31816   8.289  29.713   8.362
 2291POPC   C3A31817   8.271  29.782   7.923
 2291POPC   C4A31818   8.511  30.038   7.639
 2291POPC   C1B31819   7.954  29.794   8.728
 2291POPC   C2B31820   7.789  29.780   8.318
 2291POPC   C3B31821   7.760  29.883   7.896
 2291POPC   C4B31822   7.772  30.273   7.691
 2292POPC   NC331823   1.837  40.405   9.584
 2292POPC   PO431824   2.146  41.009   9.485
 2292POPC   GL131825   1.966  40.846   9.137
 2292POPC   GL231826   1.659  40.679   9.172
 2292POPC   C1A31827   2.100  40.779   8.734
 2292POPC   D2A31828   2.258  41.011   8.390
 2292POPC   C3A31829   2.015  40.905   8.023
 2292POPC   C4A31830   2.105  40.539   7.803
 2292POPC   C1B31831   1.645  40.546   8.723
 2292POPC   C2B31832   1.814  40.493   8.303
 2292POPC   C3B31833   1.718  40.237   7.947
 2292POPC   C4B31834   1.633  40.419   7.537
 2293POPC   NC331835   0.919  13.586   9.401
 2293POPC   PO431836   1.393  13.975   9.506
 2293POPC   GL131837   1.271  13.892   9.081
 2293POPC   GL231838   1.290  13.530   9.040
 2293POPC   C1A31839   1.216  13.875   8.627
 2293POPC   D2A31840   1.173  14.098   8.249
 2293POPC   C3A31841   1.074  13.835   7.875
 2293POPC   C4A31842   1.362  13.908   7.546
 2293POPC   C1B31843   1.138  13.395   8.623
 2293POPC   C2B31844   1.017  13.501   8.255
 2293POPC   C3B31845   1.190  13.284   7.929
 2293POPC   C4B31846   1.282  13.408   7.545
 2294POPC   NC331847  44.524  43.698   9.349
 2294POPC   PO431848  44.866  44.228   9.627
 2294POPC   GL131849  44.700  44.144   9.184
 2294POPC   GL231850  44.305  44.163   9.167
 2294POPC   C1A31851  44.765  43.869   8.776
 2294POPC   D2A31852   0.067  43.721   8.474
 2294POPC   C3A31853  44.882  43.926   8.131
 2294POPC   C4A31854  44.776  43.973   7.719
 2294POPC   C1B31855  44.241  43.979   8.769
 2294POPC   C2B31856  44.425  44.008   8.379
 2294POPC   C3B31857  44.279  44.065   7.987
 2294POPC   C4B31858  44.314  43.768   7.694
 2295POPC   NC331859  16.233   9.964   9.596
 2295POPC   PO431860  15.830   9.448   9.380
 2295POPC   GL131861  15.688   9.771   9.087
 2295POPC   GL231862  15.991   9.891   9.159
 2295POPC   C1A31863  15.701   9.899   8.655
 2295POPC   D2A31864  15.912   9.849   8.283
 2295POPC   C3A31865  15.683   9.933   7.918
 2295POPC   C4A31866  15.883   9.838   7.515
 2295POPC   C1B31867  16.127   9.665   8.791
 2295POPC   C2B31868  16.159   9.424   8.403
 2295POPC   C3B31869  16.135   9.537   7.936
 2295POPC   C4B31870  16.222   9.419   7.484
 2296POPC   NC331871  40.348  21.077   9.272
 2296POPC   PO431872  40.110  20.509   9.518
 2296POPC   GL131873  40.075  20.663   9.126
 2296POPC   GL231874  39.883  20.380   9.059
 2296POPC   C1A31875  40.209  20.829   8.700
 2296POPC   D2A31876  40.061  20.631   8.338
 2296POPC   C3A31877  40.245  20.753   7.983
 2296POPC   C4A31878  40.056  20.488   7.703
 2296POPC   C1B31879  39.736  20.684   8.736
 2296POPC   C2B31880  39.538  20.596   8.342
 2296POPC   C3B31881  39.600  20.454   7.919
 2296POPC   C4B31882  39.454  20.165   7.605
 2297POPC   NC331883   2.407   0.418   9.524
 2297POPC   PO431884   3.089   0.661   9.502
 2297POPC   GL131885   2.952   0.462   9.133
 2297POPC   GL231886   2.731   0.196   9.198
 2297POPC   C1A31887   2.809   0.507   8.709
 2297POPC   D2A31888   2.895   0.383   8.262
 2297POPC   C3A31889   2.672   0.633   7.964
 2297POPC   C4A31890   2.859   0.807   7.595
 2297POPC   C1B31891   2.940   0.031   8.815
 2297POPC   C2B31892   3.172  44.964   8.427
 2297POPC   C3B31893   3.050  44.961   8.002
 2297POPC   C4B31894   2.998   0.317   7.740
 2298POPC   NC331895   4.878  33.960   9.588
 2298POPC   PO431896   5.018  33.488   9.205
 2298POPC   GL131897   4.994  33.867   9.086
 2298POPC   GL231898   5.297  33.984   8.944
 2298POPC   C1A31899   4.788  34.041   8.748
 2298POPC   D2A31900   5.031  34.111   8.331
 2298POPC   C3A31901   4.933  33.955   7.908
 2298POPC   C4A31902   5.022  33.698   7.531
 2298POPC   C1B31903   5.486  34.231   8.632
 2298POPC   C2B31904   5.592  34.147   8.200
 2298POPC   C3B31905   5.466  33.925   7.841
 2298POPC   C4B31906   5.370  34.076   7.436
 2299POPC   NC331907  17.235   7.980   9.552
 2299POPC   PO431908  17.736   8.487   9.404
 2299POPC   GL131909  17.452   8.284   9.170
 2299POPC   GL231910  17.557   7.955   9.149
 2299POPC   C1A31911  17.316   8.233   8.751
 2299POPC   D2A31912  17.496   8.386   8.357
 2299POPC   C3A31913  17.368   8.162   8.009
 2299POPC   C4A31914  17.341   8.284   7.601
 2299POPC   C1B31915  17.756   7.955   8.736
 2299POPC   C2B31916  17.854   8.012   8.289
 2299POPC   C3B31917  17.812   7.947   7.830
 2299POPC   C4B31918  17.944   7.671   7.482
 2300POPC   NC331919   4.466   2.297   9.303
 2300POPC   PO431920   3.947   1.901   9.498
 2300POPC   GL131921   4.200   1.907   9.134
 2300POPC   GL231922   4.539   1.797   9.295
 2300POPC   C1A31923   4.276   2.017   8.717
 2300POPC   D2A31924   4.362   2.122   8.309
 2300POPC   C3A31925   4.205   1.928   7.957
 2300POPC   C4A31926   4.205   2.003   7.522
 2300POPC   C1B31927   4.634   1.632   8.887
 2300POPC   C2B31928   4.707   1.766   8.443
 2300POPC   C3B31929   4.704   1.752   7.989
 2300POPC   C4B31930   4.425   1.566   7.675
 2301POPC   NC331931  34.787  25.126   9.470
 2301POPC   PO431932  34.160  25.347   9.405
 2301POPC   GL131933  34.397  25.305   9.028
 2301POPC   GL231934  34.680  25.482   9.089
 2301POPC   C1A31935  34.444  25.104   8.602
 2301POPC   D2A31936  34.612  24.856   8.234
 2301POPC   C3A31937  34.550  25.128   7.887
 2301POPC   C4A31938  34.360  25.550   7.802
 2301POPC   C1B31939  34.821  25.451   8.646
 2301POPC   C2B31940  34.921  25.311   8.200
 2301POPC   C3B31941  34.873  25.559   7.787
 2301POPC   C4B31942  35.063  25.525   7.350
 2302POPC   NC331943   6.785   5.713   9.417
 2302POPC   PO431944   6.423   6.209   9.265
 2302POPC   GL131945   6.329   5.835   9.035
 2302POPC   GL231946   6.573   5.565   8.983
 2302POPC   C1A31947   6.421   5.843   8.577
 2302POPC   D2A31948   6.498   5.753   8.145
 2302POPC   C3A31949   6.586   6.087   7.897
 2302POPC   C4A31950   6.793   5.996   7.504
 2302POPC   C1B31951   6.890   5.762   8.738
 2302POPC   C2B31952   6.960   5.918   8.314
 2302POPC   C3B31953   7.010   5.766   7.883
 2302POPC   C4B31954   7.117   5.643   7.374
 2303POPC   NC331955  35.403  17.878   9.523
 2303POPC   PO431956  35.416  17.209   9.467
 2303POPC   GL131957  35.430  17.478   9.171
 2303POPC   GL231958  35.762  17.659   9.191
 2303POPC   C1A31959  35.306  17.309   8.797
 2303POPC   D2A31960  35.306  17.498   8.426
 2303POPC   C3A31961  35.256  17.312   8.065
 2303POPC   C4A31962  35.498  17.300   7.727
 2303POPC   C1B31963  35.588  17.771   8.793
 2303POPC   C2B31964  35.741  17.776   8.398
 2303POPC   C3B31965  35.620  17.734   7.977
 2303POPC   C4B31966  35.541  17.761   7.521
 2304POPC   NC331967   6.889   9.107   9.629
 2304POPC   PO431968   6.472   8.681   9.399
 2304POPC   GL131969   6.706   8.840   9.117
 2304POPC   GL231970   6.845   9.176   9.132
 2304POPC   C1A31971   6.489   8.939   8.732
 2304POPC   D2A31972   6.582   8.708   8.365
 2304POPC   C3A31973   6.393   8.884   8.013
 2304POPC   C4A31974   6.463   9.168   7.717
 2304POPC   C1B31975   6.992   9.001   8.748
 2304POPC   C2B31976   6.825   9.147   8.392
 2304POPC   C3B31977   6.897   9.050   8.006
 2304POPC   C4B31978   6.954   9.321   7.691
 2305POPC   NC331979   8.513   0.702   9.563
 2305POPC   PO431980   9.133   0.405   9.479
 2305POPC   GL131981   8.876   0.326   9.158
 2305POPC   GL231982   8.648   0.579   9.104
 2305POPC   C1A31983   8.970   0.428   8.750
 2305POPC   D2A31984   9.316   0.472   8.501
 2305POPC   C3A31985   9.342   0.286   8.132
 2305POPC   C4A31986   9.498   0.421   7.830
 2305POPC   C1B31987   8.631   0.796   8.757
 2305POPC   C2B31988   8.705   0.652   8.378
 2305POPC   C3B31989   9.017   0.716   8.111
 2305POPC   C4B31990   9.031   0.513   7.734
 2306POPC   NC331991   3.974  36.276   9.431
 2306POPC   PO431992   4.443  35.894   9.638
 2306POPC   GL131993   4.351  35.989   9.198
 2306POPC   GL231994   4.450  36.337   9.124
 2306POPC   C1A31995   4.201  36.060   8.770
 2306POPC   D2A31996   4.318  36.259   8.398
 2306POPC   C3A31997   4.138  36.060   8.033
 2306POPC   C4A31998   4.390  35.923   7.647
 2306POPC   C1B31999   4.668  36.552   8.745
 2306POPC   C2B32000   4.696  36.597   8.268
 2306POPC   C3B32001   4.580  36.326   7.920
 2306POPC   C4B32002   4.606  36.379   7.450
 2307POPC   NC332003  19.423  27.462   9.331
 2307POPC   PO432004  18.859  27.701   9.486
 2307POPC   GL132005  18.906  27.558   9.121
 2307POPC   GL232006  19.158  27.836   9.061
 2307POPC   C1A32007  18.720  27.296   8.796
 2307POPC   D2A32008  18.810  27.330   8.336
 2307POPC   C3A32009  18.918  27.277   7.879
 2307POPC   C4A32010  19.311  27.389   7.660
 2307POPC   C1B32011  18.994  27.704   8.649
 2307POPC   C2B32012  18.825  27.840   8.271
 2307POPC   C3B32013  19.011  27.780   7.838
 2307POPC   C4B32014  18.978  27.781   7.374
 2308POPC   NC332015   6.071  26.371   9.513
 2308POPC   PO432016   5.784  25.704   9.465
 2308POPC   GL132017   5.705  26.018   9.143
 2308POPC   GL232018   6.021  26.205   9.033
 2308POPC   C1A32019   5.601  26.133   8.724
 2308POPC   D2A32020   5.841  26.284   8.406
 2308POPC   C3A32021   5.652  26.184   8.014
 2308POPC   C4A32022   5.538  26.289   7.551
 2308POPC   C1B32023   6.208  25.840   8.808
 2308POPC   C2B32024   6.368  25.826   8.374
 2308POPC   C3B32025   6.157  26.068   8.070
 2308POPC   C4B32026   5.992  26.097   7.659
 2309POPC   NC332027  24.518  27.766   9.533
 2309POPC   PO432028  24.099  27.214   9.685
 2309POPC   GL132029  24.436  27.365   9.248
 2309POPC   GL232030  24.438  27.686   9.054
 2309POPC   C1A32031  24.552  27.301   8.759
 2309POPC   D2A32032  24.850  27.414   8.381
 2309POPC   C3A32033  24.714  27.610   7.977
 2309POPC   C4A32034  24.423  27.381   7.768
 2309POPC   C1B32035  24.294  27.890   8.715
 2309POPC   C2B32036  24.363  27.735   8.309
 2309POPC   C3B32037  24.177  27.848   7.909
 2309POPC   C4B32038  24.308  27.763   7.461
 2310POPC   NC332039   2.119  17.676   9.407
 2310POPC   PO432040   1.696  17.169   9.428
 2310POPC   GL132041   1.832  17.391   9.085
 2310POPC   GL232042   2.159  17.228   9.105
 2310POPC   C1A32043   1.693  17.626   8.706
 2310POPC   D2A32044   1.697  17.728   8.273
 2310POPC   C3A32045   1.830  17.433   8.002
 2310POPC   C4A32046   1.931  17.445   7.572
 2310POPC   C1B32047   2.201  17.485   8.729
 2310POPC   C2B32048   2.203  17.688   8.320
 2310POPC   C3B32049   2.322  17.533   7.939
 2310POPC   C4B32050   2.437  17.351   7.600
 2311POPC   NC332051  44.519  27.763   9.259
 2311POPC   PO432052  44.972  27.551   9.683
 2311POPC   GL132053  44.950  27.471   9.224
 2311POPC   GL232054  44.655  27.269   9.287
 2311POPC   C1A32055  44.896  27.695   8.785
 2311POPC   D2A32056  44.562  27.937   8.558
 2311POPC   C3A32057  44.559  27.923   8.099
 2311POPC   C4A32058  44.295  27.947   7.719
 2311POPC   C1B32059  44.593  27.254   8.808
 2311POPC   C2B32060  44.539  27.445   8.380
 2311POPC   C3B32061  44.670  27.438   7.942
 2311POPC   C4B32062  44.787  27.277   7.521
 2312POPC   NC332063  13.260  17.846   9.611
 2312POPC   PO432064  13.765  17.356   9.471
 2312POPC   GL132065  13.852  17.489   9.093
 2312POPC   GL232066  13.593  17.719   9.080
 2312POPC   C1A32067  13.955  17.407   8.679
 2312POPC   D2A32068  13.988  17.093   8.337
 2312POPC   C3A32069  14.001  17.295   7.963
 2312POPC   C4A32070  13.692  17.374   7.702
 2312POPC   C1B32071  13.452  17.462   8.764
 2312POPC   C2B32072  13.579  17.415   8.334
 2312POPC   C3B32073  13.305  17.461   8.040
 2312POPC   C4B32074  13.206  17.139   7.818
 2313POPC   NC332075  39.845  13.252   9.563
 2313POPC   PO432076  40.301  13.776   9.453
 2313POPC   GL132077  40.066  13.628   9.157
 2313POPC   GL232078  39.953  13.978   9.115
 2313POPC   C1A32079  40.123  13.653   8.730
 2313POPC   D2A32080  39.935  13.769   8.386
 2313POPC   C3A32081  40.161  13.855   8.069
 2313POPC   C4A32082  40.160  13.600   7.732
 2313POPC   C1B32083  39.960  14.170   8.739
 2313POPC   C2B32084  39.937  14.275   8.340
 2313POPC   C3B32085  39.702  14.091   8.035
 2313POPC   C4B32086  39.785  13.921   7.676
 2314POPC   NC332087  41.646  11.898   9.491
 2314POPC   PO432088  41.207  12.461   9.529
 2314POPC   GL132089  41.442  12.310   9.176
 2314POPC   GL232090  41.803  12.348   9.191
 2314POPC   C1A32091  41.477  12.326   8.723
 2314POPC   D2A32092  41.310  12.176   8.340
 2314POPC   C3A32093  41.570  12.185   7.992
 2314POPC   C4A32094  41.367  12.022   7.666
 2314POPC   C1B32095  41.840  12.008   8.877
 2314POPC   C2B32096  41.769  11.963   8.434
 2314POPC   C3B32097  41.981  11.834   8.072
 2314POPC   C4B32098  41.827  11.836   7.665
 2315POPC   NC332099  31.751  33.151   9.407
 2315POPC   PO432100  31.136  33.140   9.743
 2315POPC   GL132101  31.221  33.082   9.276
 2315POPC   GL232102  31.451  32.811   9.161
 2315POPC   C1A32103  31.169  33.105   8.811
 2315POPC   D2A32104  31.310  32.834   8.464
 2315POPC   C3A32105  31.246  32.873   8.041
 2315POPC   C4A32106  31.386  32.793   7.605
 2315POPC   C1B32107  31.678  33.034   8.783
 2315POPC   C2B32108  31.686  33.175   8.355
 2315POPC   C3B32109  31.726  33.017   7.949
 2315POPC   C4B32110  31.918  33.271   7.698
 2316POPC   NC332111   9.536  12.292   9.424
 2316POPC   PO432112   9.372  11.514   9.376
 2316POPC   GL132113   9.357  11.915   9.140
 2316POPC   GL232114   9.711  12.083   8.991
 2316POPC   C1A32115   9.270  12.117   8.753
 2316POPC   D2A32116   9.432  12.191   8.345
 2316POPC   C3A32117   9.442  11.854   8.053
 2316POPC   C4A32118   9.781  11.725   7.795
 2316POPC   C1B32119  10.087  12.347   8.843
 2316POPC   C2B32120  10.345  12.320   8.450
 2316POPC   C3B32121  10.322  12.124   8.056
 2316POPC   C4B32122  10.239  12.428   7.766
 2317POPC   NC332123  43.986  11.630   9.580
 2317POPC   PO432124  43.569  11.213   9.478
 2317POPC   GL132125  43.700  11.527   9.138
 2317POPC   GL232126  44.072  11.501   9.105
 2317POPC   C1A32127  43.756  11.491   8.672
 2317POPC   D2A32128  43.802  11.128   8.389
 2317POPC   C3A32129  43.921  11.170   7.961
 2317POPC   C4A32130  43.686  11.303   7.642
 2317POPC   C1B32131  44.283  11.458   8.720
 2317POPC   C2B32132  44.232  11.433   8.277
 2317POPC   C3B32133  44.362  11.447   7.845
 2317POPC   C4B32134  44.168  11.305   7.488
 2318POPC   NC332135   1.652  39.074   9.482
 2318POPC   PO432136   2.211  39.406   9.548
 2318POPC   GL132137   2.013  39.308   9.172
 2318POPC   GL232138   2.290  39.099   9.142
 2318POPC   C1A32139   1.796  39.241   8.769
 2318POPC   D2A32140   1.797  39.082   8.321
 2318POPC   C3A32141   1.632  39.233   7.925
 2318POPC   C4A32142   1.955  39.255   7.606
 2318POPC   C1B32143   2.242  38.991   8.717
 2318POPC   C2B32144   2.268  38.863   8.296
 2318POPC   C3B32145   2.351  39.065   7.915
 2318POPC   C4B32146   2.524  38.809   7.599
 2319POPC   NC332147  42.181  39.297   9.514
 2319POPC   PO432148  42.543  38.730   9.669
 2319POPC   GL132149  42.445  38.908   9.215
 2319POPC   GL232150  42.503  39.300   9.129
 2319POPC   C1A32151  42.474  38.993   8.738
 2319POPC   D2A32152  42.575  39.242   8.342
 2319POPC   C3A32153  42.443  39.071   7.951
 2319POPC   C4A32154  42.484  39.302   7.587
 2319POPC   C1B32155  42.119  39.338   8.847
 2319POPC   C2B32156  42.080  39.168   8.410
 2319POPC   C3B32157  41.994  39.321   8.012
 2319POPC   C4B32158  41.970  39.459   7.603
 2320POPC   NC332159  29.002   0.691   9.589
 2320POPC   PO432160  29.527   0.196   9.462
 2320POPC   GL132161  29.094   0.215   9.214
 2320POPC   GL232162  28.956   0.546   9.101
 2320POPC   C1A32163  28.916   0.188   8.769
 2320POPC   D2A32164  29.165   0.206   8.405
 2320POPC   C3A32165  29.117   0.484   8.086
 2320POPC   C4A32166  29.069   0.231   7.739
 2320POPC   C1B32167  29.335   0.480   8.801
 2320POPC   C2B32168  29.557   0.565   8.403
 2320POPC   C3B32169  29.592   0.426   7.966
 2320POPC   C4B32170  29.441   0.526   7.613
 2321POPC   NC332171   4.980   7.004   9.702
 2321POPC   PO432172   4.725   7.544   9.564
 2321POPC   GL132173   4.946   7.646   9.221
 2321POPC   GL232174   5.114   7.314   9.264
 2321POPC   C1A32175   4.972   7.770   8.805
 2321POPC   D2A32176   5.143   7.644   8.428
 2321POPC   C3A32177   4.929   7.630   8.067
 2321POPC   C4A32178   5.092   7.920   7.794
 2321POPC   C1B32179   5.244   7.327   8.845
 2321POPC   C2B32180   5.253   7.111   8.467
 2321POPC   C3B32181   5.149   7.162   8.066
 2321POPC   C4B32182   5.370   7.493   7.865
 2322POPC   NC332183  32.034  16.365   9.275
 2322POPC   PO432184  32.171  16.970   9.533
 2322POPC   GL132185  32.285  16.804   9.140
 2322POPC   GL232186  32.496  16.531   9.137
 2322POPC   C1A32187  32.191  16.670   8.733
 2322POPC   D2A32188  31.851  16.719   8.448
 2322POPC   C3A32189  32.033  16.671   8.052
 2322POPC   C4A32190  32.025  16.871   7.714
 2322POPC   C1B32191  32.678  16.464   8.753
 2322POPC   C2B32192  32.568  16.611   8.362
 2322POPC   C3B32193  32.498  16.404   8.003
 2322POPC   C4B32194  32.357  16.512   7.637
 2323POPC   NC332195  42.024  24.777   9.503
 2323POPC   PO432196  42.700  24.603   9.393
 2323POPC   GL132197  42.463  24.592   9.049
 2323POPC   GL232198  42.181  24.383   9.022
 2323POPC   C1A32199  42.511  24.405   8.645
 2323POPC   D2A32200  42.439  24.476   8.225
 2323POPC   C3A32201  42.653  24.622   7.841
 2323POPC   C4A32202  42.452  24.656   7.388
 2323POPC   C1B32203  42.079  24.714   8.721
 2323POPC   C2B32204  41.943  24.604   8.300
 2323POPC   C3B32205  42.092  24.565   7.857
 2323POPC   C4B32206  41.924  24.669   7.443
 2324POPC   NC332207  12.521   5.602   9.476
 2324POPC   PO432208  12.841   6.218   9.415
 2324POPC   GL132209  13.008   5.854   9.206
 2324POPC   GL232210  12.715   5.718   9.029
 2324POPC   C1A32211  13.182   5.728   8.818
 2324POPC   D2A32212  12.876   5.739   8.499
 2324POPC   C3A32213  13.004   5.727   8.072
 2324POPC   C4A32214  12.817   5.668   7.672
 2324POPC   C1B32215  12.479   5.981   8.762
 2324POPC   C2B32216  12.609   6.228   8.399
 2324POPC   C3B32217  12.601   6.041   8.006
 2324POPC   C4B32218  12.401   5.981   7.614
 2325POPC   NC332219  13.023  27.089   9.471
 2325POPC   PO432220  12.711  26.457   9.440
 2325POPC   GL132221  12.796  26.777   9.134
 2325POPC   GL232222  12.526  26.994   9.205
 2325POPC   C1A32223  12.985  26.784   8.722
 2325POPC   D2A32224  13.053  26.477   8.411
 2325POPC   C3A32225  12.782  26.621   8.111
 2325POPC   C4A32226  12.709  26.541   7.688
 2325POPC   C1B32227  12.545  27.093   8.748
 2325POPC   C2B32228  12.889  27.240   8.454
 2325POPC   C3B32229  13.115  27.029   8.106
 2325POPC   C4B32230  12.856  27.011   7.768
 2326POPC   NC332231  44.606  27.829   9.755
 2326POPC   PO432232  44.309  28.465   9.636
 2326POPC   GL132233  44.513  28.322   9.230
 2326POPC   GL232234  44.328  28.615   9.140
 2326POPC   C1A32235  44.808  28.313   8.827
 2326POPC   D2A32236   0.052  28.095   8.458
 2326POPC   C3A32237   0.025  28.284   8.038
 2326POPC   C4A32238  44.722  28.237   7.712
 2326POPC   C1B32239  44.272  28.380   8.767
 2326POPC   C2B32240  44.207  28.279   8.337
 2326POPC   C3B32241  44.267  28.407   7.941
 2326POPC   C4B32242  44.258  28.457   7.527
 2327POPC   NC332243  42.308  11.475   9.699
 2327POPC   PO432244  42.097  12.091   9.527
 2327POPC   GL132245  42.369  12.081   9.196
 2327POPC   GL232246  42.710  12.240   9.161
 2327POPC   C1A32247  42.282  12.253   8.833
 2327POPC   D2A32248  42.286  12.058   8.449
 2327POPC   C3A32249  42.138  12.328   8.130
 2327POPC   C4A32250  42.202  12.154   7.746
 2327POPC   C1B32251  42.758  12.026   8.745
 2327POPC   C2B32252  42.719  11.752   8.397
 2327POPC   C3B32253  42.554  11.823   7.976
 2327POPC   C4B32254  42.569  11.945   7.482
 2328POPC   NC332255  22.301   2.551   9.371
 2328POPC   PO432256  21.884   2.034   9.465
 2328POPC   GL132257  22.088   1.891   9.151
 2328POPC   GL232258  22.459   1.958   9.217
 2328POPC   C1A32259  22.017   1.988   8.762
 2328POPC   D2A32260  22.157   2.376   8.561
 2328POPC   C3A32261  22.114   2.256   8.141
 2328POPC   C4A32262  21.900   1.867   8.060
 2328POPC   C1B32263  22.458   1.732   8.813
 2328POPC   C2B32264  22.357   1.865   8.400
 2328POPC   C3B32265  22.400   1.829   7.968
 2328POPC   C4B32266  22.160   2.058   7.653
 2329POPC   NC332267  31.803  32.296   9.513
 2329POPC   PO432268  31.113  32.292   9.680
 2329POPC   GL132269  31.282  32.105   9.230
 2329POPC   GL232270  31.658  32.137   9.061
 2329POPC   C1A32271  31.270  32.173   8.749
 2329POPC   D2A32272  31.414  32.331   8.337
 2329POPC   C3A32273  31.192  32.152   8.008
 2329POPC   C4A32274  31.218  31.785   7.784
 2329POPC   C1B32275  31.620  32.534   8.773
 2329POPC   C2B32276  31.805  32.670   8.339
 2329POPC   C3B32277  31.705  32.494   7.891
 2329POPC   C4B32278  31.761  32.459   7.406
 2330POPC   NC332279  11.126   8.665   9.591
 2330POPC   PO432280  11.177   9.276   9.424
 2330POPC   GL132281  11.165   9.050   9.061
 2330POPC   GL232282  11.083   8.683   9.058
 2330POPC   C1A32283  11.158   8.979   8.618
 2330POPC   D2A32284  10.963   8.998   8.242
 2330POPC   C3A32285  11.220   9.095   7.939
 2330POPC   C4A32286  11.645   9.196   7.931
 2330POPC   C1B32287  11.512   8.725   8.878
 2330POPC   C2B32288  11.570   8.694   8.440
 2330POPC   C3B32289  11.310   8.621   8.090
 2330POPC   C4B32290  11.392   8.729   7.649
 2331POPC   NC332291  37.248  34.133   9.654
 2331POPC   PO432292  37.018  33.386   9.717
 2331POPC   GL132293  37.029  33.621   9.271
 2331POPC   GL232294  37.056  34.003   9.180
 2331POPC   C1A32295  36.945  33.654   8.798
 2331POPC   D2A32296  36.687  33.553   8.413
 2331POPC   C3A32297  36.709  33.720   7.990
 2331POPC   C4A32298  36.997  33.686   7.620
 2331POPC   C1B32299  36.981  34.158   8.743
 2331POPC   C2B32300  37.014  33.942   8.346
 2331POPC   C3B32301  37.183  34.044   7.951
 2331POPC   C4B32302  37.229  34.110   7.446
 2332POPC   NC332303  18.278   5.436   9.281
 2332POPC   PO432304  18.581   5.973   9.679
 2332POPC   GL132305  18.352   5.974   9.231
 2332POPC   GL232306  18.018   5.864   9.175
 2332POPC   C1A32307  18.365   5.851   8.767
 2332POPC   D2A32308  18.585   5.641   8.449
 2332POPC   C3A32309  18.432   5.814   8.088
 2332POPC   C4A32310  18.384   5.672   7.692
 2332POPC   C1B32311  17.911   6.095   8.787
 2332POPC   C2B32312  18.053   6.047   8.361
 2332POPC   C3B32313  17.941   5.900   7.919
 2332POPC   C4B32314  18.020   5.963   7.449
 2333POPC   NC332315   4.563   6.385   9.760
 2333POPC   PO432316   5.213   6.578   9.600
 2333POPC   GL132317   5.211   6.784   9.199
 2333POPC   GL232318   4.862   6.825   9.233
 2333POPC   C1A32319   5.370   6.689   8.728
 2333POPC   D2A32320   5.395   6.682   8.232
 2333POPC   C3A32321   5.128   6.671   7.873
 2333POPC   C4A32322   4.801   6.366   7.678
 2333POPC   C1B32323   4.913   6.905   8.804
 2333POPC   C2B32324   4.873   6.768   8.376
 2333POPC   C3B32325   4.638   6.723   8.000
 2333POPC   C4B32326   4.814   7.029   7.682
 2334POPC   NC332327  33.566  11.805   9.373
 2334POPC   PO432328  34.065  12.206   9.670
 2334POPC   GL132329  33.792  12.238   9.270
 2334POPC   GL232330  33.863  11.928   8.988
 2334POPC   C1A32331  33.593  12.331   8.885
 2334POPC   D2A32332  33.911  12.397   8.572
 2334POPC   C3A32333  33.883  12.199   8.166
 2334POPC   C4A32334  34.055  12.386   7.810
 2334POPC   C1B32335  33.637  11.945   8.560
 2334POPC   C2B32336  33.368  12.080   8.235
 2334POPC   C3B32337  33.398  11.981   7.865
 2334POPC   C4B32338  33.700  12.016   7.661
 2335POPC   NC332339   4.152  29.414   9.667
 2335POPC   PO432340   4.412  28.763   9.488
 2335POPC   GL132341   4.494  28.857   9.094
 2335POPC   GL232342   4.385  29.208   9.140
 2335POPC   C1A32343   4.339  28.938   8.677
 2335POPC   D2A32344   4.327  29.190   8.299
 2335POPC   C3A32345   4.388  28.946   7.922
 2335POPC   C4A32346   4.709  29.189   7.774
 2335POPC   C1B32347   4.430  29.470   8.762
 2335POPC   C2B32348   4.140  29.717   8.491
 2335POPC   C3B32349   3.997  29.628   8.087
 2335POPC   C4B32350   4.176  29.397   7.747
 2336POPC   NC332351  34.207  42.846   9.499
 2336POPC   PO432352  33.509  43.106   9.547
 2336POPC   GL132353  33.768  43.330   9.261
 2336POPC   GL232354  33.921  43.021   9.106
 2336POPC   C1A32355  33.679  43.405   8.807
 2336POPC   D2A32356  33.838  43.030   8.561
 2336POPC   C3A32357  33.749  43.017   8.133
 2336POPC   C4A32358  33.540  42.928   7.746
 2336POPC   C1B32359  34.154  43.301   8.867
 2336POPC   C2B32360  34.211  43.351   8.455
 2336POPC   C3B32361  34.290  43.074   8.134
 2336POPC   C4B32362  34.082  43.132   7.767
 2337POPC   NC332363  22.875   1.725   9.481
 2337POPC   PO432364  22.761   2.387   9.429
 2337POPC   GL132365  22.952   2.110   9.090
 2337POPC   GL232366  23.132   1.769   9.054
 2337POPC   C1A32367  22.873   1.984   8.666
 2337POPC   D2A32368  22.849   1.846   8.255
 2337POPC   C3A32369  22.772   2.199   7.980
 2337POPC   C4A32370  22.968   2.349   7.597
 2337POPC   C1B32371  23.383   1.879   8.677
 2337POPC   C2B32372  23.376   1.782   8.224
 2337POPC   C3B32373  23.191   1.931   7.832
 2337POPC   C4B32374  23.169   1.918   7.365
 2338POPC   NC332375  14.811  34.348   9.310
 2338POPC   PO432376  15.493  34.252   9.482
 2338POPC   GL132377  15.278  34.426   9.100
 2338POPC   GL232378  15.240  34.788   9.059
 2338POPC   C1A32379  15.073  34.499   8.688
 2338POPC   D2A32380  14.916  34.376   8.313
 2338POPC   C3A32381  15.217  34.183   8.080
 2338POPC   C4A32382  15.355  34.345   7.657
 2338POPC   C1B32383  15.489  34.879   8.703
 2338POPC   C2B32384  15.416  34.982   8.276
 2338POPC   C3B32385  15.205  34.728   7.965
 2338POPC   C4B32386  15.160  34.794   7.495
 2339POPC   NC332387  26.525  27.250   9.207
 2339POPC   PO432388  26.367  27.815   9.550
 2339POPC   GL132389  26.649  27.759   9.150
 2339POPC   GL232390  26.970  27.631   9.050
 2339POPC   C1A32391  26.587  27.617   8.695
 2339POPC   D2A32392  26.526  27.474   8.266
 2339POPC   C3A32393  26.627  27.738   7.934
 2339POPC   C4A32394  27.038  27.887   7.863
 2339POPC   C1B32395  27.044  27.444   8.615
 2339POPC   C2B32396  27.032  27.468   8.161
 2339POPC   C3B32397  26.787  27.260   7.816
 2339POPC   C4B32398  26.866  27.282   7.352
 2340POPC   NC332399  23.437  38.156   9.518
 2340POPC   PO432400  23.666  38.845   9.544
 2340POPC   GL132401  23.782  38.720   9.134
 2340POPC   GL232402  23.606  38.401   9.118
 2340POPC   C1A32403  23.636  38.661   8.696
 2340POPC   D2A32404  23.518  38.457   8.320
 2340POPC   C3A32405  23.783  38.470   7.920
 2340POPC   C4A32406  23.873  38.768   7.555
 2340POPC   C1B32407  23.500  38.111   8.768
 2340POPC   C2B32408  23.575  37.961   8.332
 2340POPC   C3B32409  23.374  38.108   7.956
 2340POPC   C4B32410  23.480  38.185   7.546
 2341POPC   NC332411  28.782  35.334   9.632
 2341POPC   PO432412  28.167  35.463   9.444
 2341POPC   GL132413  28.286  35.234   9.111
 2341POPC   GL232414  28.590  35.045   9.226
 2341POPC   C1A32415  28.262  35.326   8.689
 2341POPC   D2A32416  28.173  35.602   8.364
 2341POPC   C3A32417  28.209  35.354   8.035
 2341POPC   C4A32418  28.398  35.604   7.749
 2341POPC   C1B32419  28.768  35.219   8.821
 2341POPC   C2B32420  28.704  35.539   8.480
 2341POPC   C3B32421  28.818  35.532   8.048
 2341POPC   C4B32422  28.665  35.189   7.845
 2342POPC   NC332423  44.150  24.712   9.533
 2342POPC   PO432424  43.629  24.245   9.483
 2342POPC   GL132425  43.833  24.459   9.156
 2342POPC   GL232426  43.966  24.731   9.034
 2342POPC   C1A32427  43.621  24.488   8.743
 2342POPC   D2A32428  43.676  24.216   8.393
 2342POPC   C3A32429  43.646  24.435   8.041
 2342POPC   C4A32430  43.494  24.242   7.715
 2342POPC   C1B32431  43.787  24.984   8.740
 2342POPC   C2B32432  43.830  25.092   8.333
 2342POPC   C3B32433  43.670  24.962   7.923
 2342POPC   C4B32434  43.741  24.671   7.584
 2343POPC   NC332435  27.412  34.025   9.555
 2343POPC   PO432436  27.542  34.776   9.519
 2343POPC   GL132437  27.587  34.812   9.118
 2343POPC   GL232438  27.712  34.468   9.063
 2343POPC   C1A32439  27.841  34.993   8.787
 2343POPC   D2A32440  28.023  34.912   8.400
 2343POPC   C3A32441  27.836  34.880   7.996
 2343POPC   C4A32442  27.886  34.855   7.556
 2343POPC   C1B32443  27.524  34.605   8.673
 2343POPC   C2B32444  27.624  34.449   8.308
 2343POPC   C3B32445  27.520  34.497   7.914
 2343POPC   C4B32446  27.773  34.371   7.558
 2344POPC   NC332447  36.326   9.092   9.643
 2344POPC   PO432448  36.973   8.979   9.748
 2344POPC   GL132449  36.814   9.077   9.296
 2344POPC   GL232450  36.821   8.790   9.050
 2344POPC   C1A32451  36.906   9.251   8.852
 2344POPC   D2A32452  36.734   9.288   8.418
 2344POPC   C3A32453  36.913   9.092   8.062
 2344POPC   C4A32454  37.060   9.352   7.711
 2344POPC   C1B32455  36.721   8.546   8.709
 2344POPC   C2B32456  36.813   8.429   8.335
 2344POPC   C3B32457  36.610   8.477   7.957
 2344POPC   C4B32458  36.753   8.735   7.666
 2345POPC   NC332459  14.052   2.891   9.429
 2345POPC   PO432460  13.434   2.755   9.584
 2345POPC   GL132461  13.478   2.899   9.160
 2345POPC   GL232462  13.693   3.190   9.172
 2345POPC   C1A32463  13.391   2.727   8.731
 2345POPC   D2A32464  13.557   2.610   8.326
 2345POPC   C3A32465  13.406   2.764   7.933
 2345POPC   C4A32466  13.548   2.722   7.483
 2345POPC   C1B32467  13.814   3.010   8.755
 2345POPC   C2B32468  13.724   3.088   8.303
 2345POPC   C3B32469  13.851   2.993   7.857
 2345POPC   C4B32470  13.723   3.187   7.479
 2346POPC   NC332471  26.306   8.398   9.562
 2346POPC   PO432472  26.941   8.207   9.556
 2346POPC   GL132473  26.909   8.385   9.181
 2346POPC   GL232474  27.219   8.572   9.185
 2346POPC   C1A32475  26.685   8.526   8.825
 2346POPC   D2A32476  26.446   8.466   8.445
 2346POPC   C3A32477  26.641   8.367   8.073
 2346POPC   C4A32478  26.519   8.256   7.677
 2346POPC   C1B32479  27.216   8.397   8.768
 2346POPC   C2B32480  27.017   8.477   8.421
 2346POPC   C3B32481  27.145   8.463   8.031
 2346POPC   C4B32482  27.009   8.301   7.666
 2347POPC   NC332483  20.223  24.694   9.538
 2347POPC   PO432484  20.864  24.531   9.375
 2347POPC   GL132485  20.519  24.618   9.117
 2347POPC   GL232486  20.744  24.427   8.873
 2347POPC   C1A32487  20.279  24.574   8.768
 2347POPC   D2A32488  20.498  24.576   8.385
 2347POPC   C3A32489  20.299  24.435   7.982
 2347POPC   C4A32490  20.286  24.495   7.523
 2347POPC   C1B32491  20.975  24.766   8.693
 2347POPC   C2B32492  21.124  24.656   8.312
 2347POPC   C3B32493  20.878  24.372   8.061
 2347POPC   C4B32494  20.723  24.268   7.671
 2348POPC   NC332495  13.552  31.910   9.509
 2348POPC   PO432496  13.845  31.216   9.464
 2348POPC   GL132497  13.635  31.242   9.060
 2348POPC   GL232498  13.439  31.530   9.162
 2348POPC   C1A32499  13.569  31.287   8.595
 2348POPC   D2A32500  13.714  31.693   8.354
 2348POPC   C3A32501  13.625  31.637   7.939
 2348POPC   C4A32502  13.380  31.261   7.833
 2348POPC   C1B32503  13.341  31.704   8.763
 2348POPC   C2B32504  13.202  31.603   8.342
 2348POPC   C3B32505  13.082  31.715   7.926
 2348POPC   C4B32506  13.317  31.707   7.536
 2349POPC   NC332507   4.277  16.393   9.413
 2349POPC   PO432508   4.050  15.808   9.511
 2349POPC   GL132509   4.272  15.931   9.177
 2349POPC   GL232510   4.002  16.058   9.035
 2349POPC   C1A32511   4.426  15.843   8.793
 2349POPC   D2A32512   4.310  15.697   8.430
 2349POPC   C3A32513   4.512  15.808   8.077
 2349POPC   C4A32514   4.349  15.844   7.681
 2349POPC   C1B32515   4.212  16.307   8.748
 2349POPC   C2B32516   4.308  16.229   8.344
 2349POPC   C3B32517   4.111  16.168   7.989
 2349POPC   C4B32518   4.066  16.278   7.558
 2350POPC   NC332519  16.946   9.863   9.259
 2350POPC   PO432520  16.488   9.576   9.696
 2350POPC   GL132521  16.460   9.688   9.189
 2350POPC   GL232522  16.484  10.055   9.151
 2350POPC   C1A32523  16.605   9.547   8.721
 2350POPC   D2A32524  16.519   9.780   8.316
 2350POPC   C3A32525  16.640   9.626   7.912
 2350POPC   C4A32526  16.431   9.857   7.570
 2350POPC   C1B32527  16.584  10.060   8.742
 2350POPC   C2B32528  16.862  10.180   8.427
 2350POPC   C3B32529  16.991  10.017   8.059
 2350POPC   C4B32530  16.935   9.930   7.635
 2351POPC   NC332531  17.340   3.264   9.565
 2351POPC   PO432532  17.724   3.811   9.537
 2351POPC   GL132533  17.802   3.677   9.143
 2351POPC   GL232534  17.539   3.472   9.089
 2351POPC   C1A32535  17.727   3.826   8.745
 2351POPC   D2A32536  17.531   3.605   8.431
 2351POPC   C3A32537  17.758   3.364   8.145
 2351POPC   C4A32538  17.772   3.508   7.711
 2351POPC   C1B32539  17.470   3.201   8.715
 2351POPC   C2B32540  17.243   3.215   8.314
 2351POPC   C3B32541  17.331   3.258   7.886
 2351POPC   C4B32542  17.498   3.117   7.514
 2352POPC   NC332543  26.371  29.612   9.557
 2352POPC   PO432544  26.122  30.246   9.631
 2352POPC   GL132545  26.085  29.962   9.296
 2352POPC   GL232546  26.166  30.232   9.114
 2352POPC   C1A32547  26.049  29.833   8.843
 2352POPC   D2A32548  25.851  29.748   8.440
 2352POPC   C3A32549  26.169  29.743   8.102
 2352POPC   C4A32550  26.000  29.939   7.740
 2352POPC   C1B32551  26.226  30.314   8.697
 2352POPC   C2B32552  26.044  30.204   8.327
 2352POPC   C3B32553  26.104  30.382   7.936
 2352POPC   C4B32554  26.177  30.299   7.417
 2353POPC   NC332555   1.984   3.253   9.273
 2353POPC   PO432556   1.873   2.677   9.639
 2353POPC   GL132557   1.943   2.605   9.216
 2353POPC   GL232558   1.743   2.344   9.106
 2353POPC   C1A32559   1.897   2.704   8.796
 2353POPC   D2A32560   1.857   3.058   8.578
 2353POPC   C3A32561   1.966   2.906   8.200
 2353POPC   C4A32562   1.827   3.015   7.813
 2353POPC   C1B32563   1.618   2.207   8.723
 2353POPC   C2B32564   1.740   2.348   8.339
 2353POPC   C3B32565   1.528   2.629   8.068
 2353POPC   C4B32566   1.538   2.661   7.612
 2354POPC   NC332567   3.271  10.109   9.434
 2354POPC   PO432568   2.827   9.683   9.577
 2354POPC   GL132569   2.729   9.912   9.212
 2354POPC   GL232570   2.625   9.573   9.123
 2354POPC   C1A32571   2.875   9.910   8.773
 2354POPC   D2A32572   2.939   9.664   8.373
 2354POPC   C3A32573   3.004   9.878   7.966
 2354POPC   C4A32574   2.804   9.831   7.575
 2354POPC   C1B32575   2.712   9.404   8.783
 2354POPC   C2B32576   2.477   9.393   8.420
 2354POPC   C3B32577   2.579   9.557   8.032
 2354POPC   C4B32578   2.509   9.399   7.657
 2355POPC   NC332579  43.888   1.613   9.324
 2355POPC   PO432580  43.566   1.086   9.571
 2355POPC   GL132581  43.849   0.975   9.237
 2355POPC   GL232582  43.695   1.232   9.076
 2355POPC   C1A32583  44.073   1.068   8.821
 2355POPC   D2A32584  43.903   0.982   8.460
 2355POPC   C3A32585  43.978   1.127   8.051
 2355POPC   C4A32586  43.832   0.920   7.695
 2355POPC   C1B32587  43.546   1.305   8.682
 2355POPC   C2B32588  43.551   1.384   8.250
 2355POPC   C3B32589  43.544   1.319   7.815
 2355POPC   C4B32590  43.553   1.194   7.364
 2356POPC   NC332591  39.152   9.149   9.816
 2356POPC   PO432592  39.345   8.719   9.427
 2356POPC   GL132593  39.218   8.761   9.009
 2356POPC   GL232594  39.073   9.106   9.119
 2356POPC   C1A32595  39.035   8.903   8.619
 2356POPC   D2A32596  39.055   9.281   8.354
 2356POPC   C3A32597  39.024   9.152   7.933
 2356POPC   C4A32598  39.131   8.752   7.763
 2356POPC   C1B32599  39.381   9.242   8.799
 2356POPC   C2B32600  39.553   9.371   8.387
 2356POPC   C3B32601  39.454   9.438   7.962
 2356POPC   C4B32602  39.509   9.106   7.685
 2357POPC   NC332603  10.009  26.383   9.251
 2357POPC   PO432604   9.666  26.886   9.620
 2357POPC   GL132605   9.633  26.991   9.114
 2357POPC   GL232606   9.805  26.735   8.898
 2357POPC   C1A32607   9.583  27.028   8.565
 2357POPC   D2A32608   9.895  26.741   8.361
 2357POPC   C3A32609   9.891  26.737   7.903
 2357POPC   C4A32610   9.597  27.014   7.633
 2357POPC   C1B32611   9.326  26.720   8.842
 2357POPC   C2B32612   9.275  26.614   8.422
 2357POPC   C3B32613   9.404  26.783   8.064
 2357POPC   C4B32614   9.493  26.522   7.696
 2358POPC   NC332615  30.579  21.801   9.833
 2358POPC   PO432616  30.774  21.311   9.421
 2358POPC   GL132617  30.706  21.393   9.017
 2358POPC   GL232618  30.680  21.749   9.073
 2358POPC   C1A32619  30.859  21.490   8.608
 2358POPC   D2A32620  31.064  21.693   8.250
 2358POPC   C3A32621  30.918  21.523   7.852
 2358POPC   C4A32622  30.598  21.308   7.622
 2358POPC   C1B32623  30.413  21.703   8.704
 2358POPC   C2B32624  30.528  21.698   8.257
 2358POPC   C3B32625  30.340  21.715   7.854
 2358POPC   C4B32626  30.236  21.608   7.415
 2359POPC   NC332627  12.981  28.614   9.238
 2359POPC   PO432628  12.607  28.202   9.540
 2359POPC   GL132629  12.727  28.120   9.094
 2359POPC   GL232630  13.077  28.045   9.033
 2359POPC   C1A32631  12.538  28.274   8.705
 2359POPC   D2A32632  12.376  28.111   8.301
 2359POPC   C3A32633  12.481  28.344   7.900
 2359POPC   C4A32634  12.838  28.544   7.649
 2359POPC   C1B32635  13.043  28.339   8.660
 2359POPC   C2B32636  12.824  28.389   8.278
 2359POPC   C3B32637  12.946  28.138   7.930
 2359POPC   C4B32638  13.294  27.884   7.846
 2360POPC   NC332639  19.624  19.688   9.752
 2360POPC   PO432640  20.158  20.044   9.811
 2360POPC   GL132641  20.061  19.770   9.374
 2360POPC   GL232642  19.712  19.672   9.268
 2360POPC   C1A32643  19.980  19.844   8.882
 2360POPC   D2A32644  20.133  19.724   8.444
 2360POPC   C3A32645  19.868  19.936   8.118
 2360POPC   C4A32646  19.616  19.854   7.744
 2360POPC   C1B32647  19.575  19.458   8.908
 2360POPC   C2B32648  19.701  19.448   8.493
 2360POPC   C3B32649  19.843  19.420   8.097
 2360POPC   C4B32650  19.732  19.371   7.693
 2361POPC   NC332651  26.774  31.061   9.325
 2361POPC   PO432652  26.906  31.614   9.641
 2361POPC   GL132653  26.668  31.520   9.148
 2361POPC   GL232654  26.516  31.150   8.924
 2361POPC   C1A32655  26.652  31.555   8.681
 2361POPC   D2A32656  26.449  31.373   8.309
 2361POPC   C3A32657  26.646  31.570   7.947
 2361POPC   C4A32658  26.695  31.479   7.519
 2361POPC   C1B32659  26.919  31.095   8.671
 2361POPC   C2B32660  27.014  31.203   8.234
 2361POPC   C3B32661  26.775  31.068   7.898
 2361POPC   C4B32662  26.423  31.078   7.652
 2362POPC   NC332663  26.124  38.130   9.544
 2362POPC   PO432664  25.851  37.424   9.568
 2362POPC   GL132665  25.968  37.711   9.253
 2362POPC   GL232666  26.297  37.605   9.266
 2362POPC   C1A32667  26.134  37.875   8.851
 2362POPC   D2A32668  26.380  38.044   8.509
 2362POPC   C3A32669  26.178  37.940   8.128
 2362POPC   C4A32670  26.022  37.802   7.754
 2362POPC   C1B32671  26.331  37.399   8.842
 2362POPC   C2B32672  26.374  37.512   8.368
 2362POPC   C3B32673  26.286  37.377   7.929
 2362POPC   C4B32674  25.879  37.319   7.708
 2363POPC   NC332675  25.131   7.029   9.516
 2363POPC   PO432676  25.548   7.596   9.430
 2363POPC   GL132677  25.331   7.464   9.091
 2363POPC   GL232678  24.988   7.410   9.111
 2363POPC   C1A32679  25.420   7.272   8.776
 2363POPC   D2A32680  25.282   7.200   8.437
 2363POPC   C3A32681  25.368   7.504   8.165
 2363POPC   C4A32682  25.295   7.483   7.749
 2363POPC   C1B32683  24.934   7.092   8.832
 2363POPC   C2B32684  24.793   7.081   8.439
 2363POPC   C3B32685  24.900   7.266   8.087
 2363POPC   C4B32686  24.878   7.085   7.696
 2364POPC   NC332687   3.061   2.630   9.412
 2364POPC   PO432688   2.471   3.092   9.330
 2364POPC   GL132689   2.353   2.874   9.005
 2364POPC   GL232690   2.583   2.607   9.135
 2364POPC   C1A32691   2.417   3.112   8.626
 2364POPC   D2A32692   2.823   3.258   8.470
 2364POPC   C3A32693   2.969   3.048   8.063
 2364POPC   C4A32694   2.754   3.146   7.664
 2364POPC   C1B32695   2.844   2.825   8.817
 2364POPC   C2B32696   2.737   2.751   8.413
 2364POPC   C3B32697   2.661   2.583   8.013
 2364POPC   C4B32698   2.336   2.825   7.849
 2365POPC   NC332699  43.734  36.598   9.515
 2365POPC   PO432700  44.005  37.097   9.370
 2365POPC   GL132701  43.698  36.968   9.116
 2365POPC   GL232702  43.816  36.639   9.002
 2365POPC   C1A32703  43.628  37.019   8.700
 2365POPC   D2A32704  43.735  36.666   8.453
 2365POPC   C3A32705  43.729  36.858   8.066
 2365POPC   C4A32706  43.735  37.005   7.661
 2365POPC   C1B32707  44.125  36.883   8.767
 2365POPC   C2B32708  44.090  37.066   8.385
 2365POPC   C3B32709  44.231  36.930   8.005
 2365POPC   C4B32710  44.226  37.146   7.663
 2366POPC   NC332711  40.504   9.450   9.617
 2366POPC   PO432712  40.828   9.962   9.527
 2366POPC   GL132713  40.684   9.784   9.189
 2366POPC   GL232714  40.547  10.080   9.101
 2366POPC   C1A32715  40.796   9.699   8.772
 2366POPC   D2A32716  40.944   9.623   8.365
 2366POPC   C3A32717  40.730   9.657   7.980
 2366POPC   C4A32718  40.814   9.359   7.670
 2366POPC   C1B32719  40.751  10.202   8.765
 2366POPC   C2B32720  40.666  10.095   8.381
 2366POPC   C3B32721  40.515  10.284   8.031
 2366POPC   C4B32722  40.672  10.078   7.689
 2367POPC   NC332723  36.671  43.055   9.563
 2367POPC   PO432724  37.340  43.045   9.580
 2367POPC   GL132725  37.027  42.996   9.174
 2367POPC   GL232726  36.656  42.847   9.092
 2367POPC   C1A32727  36.991  42.852   8.712
 2367POPC   D2A32728  36.956  42.648   8.293
 2367POPC   C3A32729  37.080  42.973   7.998
 2367POPC   C4A32730  37.146  43.375   7.768
 2367POPC   C1B32731  36.565  43.166   8.721
 2367POPC   C2B32732  36.724  43.265   8.260
 2367POPC   C3B32733  36.637  43.138   7.806
 2367POPC   C4B32734  36.541  42.905   7.418
 2368POPC   NC332735  12.436  19.174   9.545
 2368POPC   PO432736  11.872  18.742   9.569
 2368POPC   GL132737  11.852  18.979   9.179
 2368POPC   GL232738  12.069  19.230   9.212
 2368POPC   C1A32739  12.070  18.964   8.758
 2368POPC   D2A32740  12.358  19.121   8.409
 2368POPC   C3A32741  12.269  19.022   7.961
 2368POPC   C4A32742  11.854  18.968   7.893
 2368POPC   C1B32743  12.254  19.439   8.855
 2368POPC   C2B32744  12.043  19.611   8.483
 2368POPC   C3B32745  12.040  19.457   8.079
 2368POPC   C4B32746  12.346  19.538   7.781
 2369POPC   NC332747  27.051  37.668   9.483
 2369POPC   PO432748  26.548  38.062   9.348
 2369POPC   GL132749  26.747  37.712   9.071
 2369POPC   GL232750  27.098  37.715   8.990
 2369POPC   C1A32751  26.794  37.526   8.648
 2369POPC   D2A32752  26.871  37.775   8.291
 2369POPC   C3A32753  26.635  37.752   7.897
 2369POPC   C4A32754  26.466  37.962   7.531
 2369POPC   C1B32755  27.305  37.653   8.617
 2369POPC   C2B32756  27.269  37.406   8.255
 2369POPC   C3B32757  26.890  37.322   8.054
 2369POPC   C4B32758  26.760  37.314   7.643
 2370POPC   NC332759  25.808   6.293   9.520
 2370POPC   PO432760  26.207   6.861   9.267
 2370POPC   GL132761  26.345   6.634   8.992
 2370POPC   GL232762  26.162   6.300   9.092
 2370POPC   C1A32763  26.339   6.782   8.565
 2370POPC   D2A32764  26.127   6.730   8.184
 2370POPC   C3A32765  26.263   6.872   7.775
 2370POPC   C4A32766  26.154   6.861   7.335
 2370POPC   C1B32767  26.097   6.353   8.658
 2370POPC   C2B32768  26.069   6.215   8.270
 2370POPC   C3B32769  26.169   6.315   7.867
 2370POPC   C4B32770  26.041   6.371   7.482
 2371POPC   NC332771  17.246  18.448   9.353
 2371POPC   PO432772  17.506  17.817   9.549
 2371POPC   GL132773  17.509  18.031   9.143
 2371POPC   GL232774  17.699  18.308   9.001
 2371POPC   C1A32775  17.380  18.021   8.723
 2371POPC   D2A32776  17.256  18.172   8.342
 2371POPC   C3A32777  17.325  17.963   7.999
 2371POPC   C4A32778  17.392  18.219   7.734
 2371POPC   C1B32779  17.522  18.527   8.627
 2371POPC   C2B32780  17.609  18.511   8.160
 2371POPC   C3B32781  17.784  18.530   7.729
 2371POPC   C4B32782  17.940  18.635   7.293
 2372POPC   NC332783  19.001   0.147   9.362
 2372POPC   PO432784  18.651   0.670   9.569
 2372POPC   GL132785  18.826   0.619   9.148
 2372POPC   GL232786  19.203   0.534   9.126
 2372POPC   C1A32787  18.885   0.449   8.717
 2372POPC   D2A32788  18.809   0.570   8.294
 2372POPC   C3A32789  19.047   0.314   8.014
 2372POPC   C4A32790  18.996   0.110   7.623
 2372POPC   C1B32791  19.345   0.664   8.722
 2372POPC   C2B32792  19.281   0.841   8.320
 2372POPC   C3B32793  19.350   0.703   7.913
 2372POPC   C4B32794  19.079   0.619   7.552
 2373POPC   NC332795   1.594  25.161   9.291
 2373POPC   PO432796   1.058  25.276   9.665
 2373POPC   GL132797   1.067  25.138   9.236
 2373POPC   GL232798   1.182  25.445   9.101
 2373POPC   C1A32799   1.154  25.031   8.778
 2373POPC   D2A32800   1.198  25.124   8.341
 2373POPC   C3A32801   0.964  25.407   8.098
 2373POPC   C4A32802   1.118  25.254   7.705
 2373POPC   C1B32803   1.418  25.476   8.706
 2373POPC   C2B32804   1.402  25.660   8.322
 2373POPC   C3B32805   1.474  25.538   7.943
 2373POPC   C4B32806   1.667  25.442   7.588
 2374POPC   NC332807  31.303  12.336   9.341
 2374POPC   PO432808  31.654  11.792   9.537
 2374POPC   GL132809  31.689  12.038   9.169
 2374POPC   GL232810  31.918  11.841   9.062
 2374POPC   C1A32811  31.654  12.262   8.790
 2374POPC   D2A32812  31.467  12.285   8.399
 2374POPC   C3A32813  31.498  12.107   7.979
 2374POPC   C4A32814  31.398  12.287   7.583
 2374POPC   C1B32815  31.893  11.794   8.672
 2374POPC   C2B32816  31.744  11.846   8.330
 2374POPC   C3B32817  31.734  11.651   7.977
 2374POPC   C4B32818  31.707  11.818   7.602
 2375POPC   NC332819  22.620  11.773   9.565
 2375POPC   PO432820  23.121  11.340   9.504
 2375POPC   GL132821  22.867  11.422   9.186
 2375POPC   GL232822  22.968  11.068   9.099
 2375POPC   C1A32823  22.661  11.314   8.807
 2375POPC   D2A32824  22.734  11.092   8.437
 2375POPC   C3A32825  22.891  11.329   8.069
 2375POPC   C4A32826  22.745  11.193   7.664
 2375POPC   C1B32827  23.224  10.900   8.759
 2375POPC   C2B32828  23.234  11.068   8.353
 2375POPC   C3B32829  23.366  11.146   7.940
 2375POPC   C4B32830  23.207  10.938   7.562
 2376POPC   NC332831   1.182  34.950   9.651
 2376POPC   PO432832   1.035  35.526   9.539
 2376POPC   GL132833   0.958  35.436   9.126
 2376POPC   GL232834   0.672  35.633   9.040
 2376POPC   C1A32835   1.214  35.330   8.764
 2376POPC   D2A32836   1.398  35.067   8.423
 2376POPC   C3A32837   1.368  35.304   8.040
 2376POPC   C4A32838   1.620  35.323   7.700
 2376POPC   C1B32839   0.705  35.400   8.684
 2376POPC   C2B32840   0.929  35.272   8.306
 2376POPC   C3B32841   0.877  35.451   7.902
 2376POPC   C4B32842   0.755  35.882   7.831
 2377POPC   NC332843  22.127  28.682   9.370
 2377POPC   PO432844  22.747  28.473   9.509
 2377POPC   GL132845  22.456  28.245   9.202
 2377POPC   GL232846  22.455  28.519   9.021
 2377POPC   C1A32847  22.134  28.130   8.835
 2377POPC   D2A32848  21.860  28.452   8.536
 2377POPC   C3A32849  21.943  28.506   8.074
 2377POPC   C4A32850  21.845  28.178   7.782
 2377POPC   C1B32851  22.344  28.521   8.638
 2377POPC   C2B32852  22.312  28.232   8.313
 2377POPC   C3B32853  22.417  28.360   7.904
 2377POPC   C4B32854  22.445  28.765   7.867
 2378POPC   NC332855  32.284   7.762   9.524
 2378POPC   PO432856  32.803   7.297   9.471
 2378POPC   GL132857  32.629   7.619   9.155
 2378POPC   GL232858  32.228   7.605   9.063
 2378POPC   C1A32859  32.564   7.484   8.717
 2378POPC   D2A32860  32.366   7.551   8.322
 2378POPC   C3A32861  32.476   7.291   7.966
 2378POPC   C4A32862  32.657   7.319   7.576
 2378POPC   C1B32863  31.984   7.663   8.690
 2378POPC   C2B32864  31.862   7.431   8.341
 2378POPC   C3B32865  31.954   7.304   7.955
 2378POPC   C4B32866  31.830   7.414   7.568
 2379POPC   NC332867  18.169   3.813   9.460
 2379POPC   PO432868  18.592   3.277   9.425
 2379POPC   GL132869  18.210   3.320   9.170
 2379POPC   GL232870  18.312   3.637   9.008
 2379POPC   C1A32871  17.960   3.365   8.767
 2379POPC   D2A32872  18.099   3.656   8.423
 2379POPC   C3A32873  18.258   3.499   8.023
 2379POPC   C4A32874  18.222   3.287   7.606
 2379POPC   C1B32875  18.615   3.819   8.757
 2379POPC   C2B32876  18.547   3.926   8.346
 2379POPC   C3B32877  18.737   3.862   7.977
 2379POPC   C4B32878  18.543   3.706   7.655
 2380POPC   NC332879  26.790  32.041   9.498
 2380POPC   PO432880  26.794  32.703   9.616
 2380POPC   GL132881  27.036  32.483   9.294
 2380POPC   GL232882  27.162  32.153   9.175
 2380POPC   C1A32883  26.943  32.499   8.843
 2380POPC   D2A32884  26.834  32.631   8.406
 2380POPC   C3A32885  26.853  32.347   8.061
 2380POPC   C4A32886  26.509  32.482   7.775
 2380POPC   C1B32887  26.918  31.979   8.834
 2380POPC   C2B32888  26.908  31.907   8.384
 2380POPC   C3B32889  27.107  31.828   7.998
 2380POPC   C4B32890  27.057  31.830   7.553
 2381POPC   NC332891  15.851   8.408   9.667
 2381POPC   PO432892  15.815   7.761   9.715
 2381POPC   GL132893  15.847   7.987   9.290
 2381POPC   GL232894  16.027   8.315   9.208
 2381POPC   C1A32895  15.792   8.033   8.824
 2381POPC   D2A32896  15.656   8.007   8.374
 2381POPC   C3A32897  15.945   7.995   8.060
 2381POPC   C4A32898  16.009   8.201   7.690
 2381POPC   C1B32899  15.835   8.540   8.870
 2381POPC   C2B32900  15.981   8.392   8.484
 2381POPC   C3B32901  15.998   8.514   8.086
 2381POPC   C4B32902  16.246   8.650   7.744
 2382POPC   NC332903  38.175  21.913   9.552
 2382POPC   PO432904  38.614  22.335   9.810
 2382POPC   GL132905  38.571  22.178   9.305
 2382POPC   GL232906  38.388  22.016   9.076
 2382POPC   C1A32907  38.715  22.329   8.851
 2382POPC   D2A32908  38.587  22.139   8.446
 2382POPC   C3A32909  38.576  22.364   8.083
 2382POPC   C4A32910  38.592  22.216   7.690
 2382POPC   C1B32911  38.195  22.290   8.713
 2382POPC   C2B32912  38.055  22.277   8.274
 2382POPC   C3B32913  38.098  22.263   7.814
 2382POPC   C4B32914  38.225  22.193   7.349
 2383POPC   NC332915   1.790  26.029   9.462
 2383POPC   PO432916   2.260  25.561   9.467
 2383POPC   GL132917   2.273  25.867   9.107
 2383POPC   GL232918   1.978  26.088   9.022
 2383POPC   C1A32919   2.302  25.865   8.640
 2383POPC   D2A32920   2.001  25.640   8.345
 2383POPC   C3A32921   1.957  25.786   7.914
 2383POPC   C4A32922   2.274  25.958   7.685
 2383POPC   C1B32923   1.800  25.969   8.662
 2383POPC   C2B32924   1.984  26.158   8.276
 2383POPC   C3B32925   1.983  26.330   7.848
 2383POPC   C4B32926   2.040  26.306   7.369
 2384POPC   NC332927  34.856  13.258   9.343
 2384POPC   PO432928  35.453  13.584   9.438
 2384POPC   GL132929  35.409  13.708   9.066
 2384POPC   GL232930  35.060  13.634   9.063
 2384POPC   C1A32931  35.487  13.616   8.667
 2384POPC   D2A32932  35.338  13.842   8.323
 2384POPC   C3A32933  35.500  13.636   7.990
 2384POPC   C4A32934  35.784  13.823   7.729
 2384POPC   C1B32935  34.985  13.882   8.730
 2384POPC   C2B32936  34.825  13.888   8.325
 2384POPC   C3B32937  34.981  13.656   7.960
 2384POPC   C4B32938  35.162  13.438   7.602
 2385POPC   NC332939  30.947  43.810   9.412
 2385POPC   PO432940  31.456  43.549   9.787
 2385POPC   GL132941  31.466  43.632   9.326
 2385POPC   GL232942  31.394  43.946   9.212
 2385POPC   C1A32943  31.623  43.587   8.862
 2385POPC   D2A32944  31.475  43.666   8.386
 2385POPC   C3A32945  31.546  43.914   7.942
 2385POPC   C4A32946  31.614  44.004   7.442
 2385POPC   C1B32947  31.217  43.891   8.799
 2385POPC   C2B32948  31.259  44.119   8.415
 2385POPC   C3B32949  31.056  44.061   8.051
 2385POPC   C4B32950  31.133  43.985   7.648
 2386POPC   NC332951  43.759  23.309   9.542
 2386POPC   PO432952  44.005  22.666   9.532
 2386POPC   GL132953  43.848  22.688   9.145
 2386POPC   GL232954  43.750  22.999   9.143
 2386POPC   C1A32955  43.991  22.763   8.713
 2386POPC   D2A32956  43.893  22.665   8.287
 2386POPC   C3A32957  44.129  22.924   8.012
 2386POPC   C4A32958  44.357  23.086   7.666
 2386POPC   C1B32959  43.721  23.278   8.821
 2386POPC   C2B32960  43.938  23.263   8.438
 2386POPC   C3B32961  43.851  23.341   8.007
 2386POPC   C4B32962  43.447  23.350   7.818
 2387POPC   NC332963  11.889  22.978   9.463
 2387POPC   PO432964  11.228  23.080   9.523
 2387POPC   GL132965  11.368  22.954   9.126
 2387POPC   GL232966  11.577  22.648   9.187
 2387POPC   C1A32967  11.108  23.032   8.727
 2387POPC   D2A32968  10.842  22.847   8.393
 2387POPC   C3A32969  10.990  23.036   8.027
 2387POPC   C4A32970  11.309  23.179   7.725
 2387POPC   C1B32971  11.458  22.651   8.732
 2387POPC   C2B32972  11.388  22.805   8.319
 2387POPC   C3B32973  11.372  22.690   7.891
 2387POPC   C4B32974  11.433  22.742   7.452
 2388POPC   NC332975  19.047  18.942   9.420
 2388POPC   PO432976  18.814  19.446   9.690
 2388POPC   GL132977  19.157  19.419   9.245
 2388POPC   GL232978  19.076  19.084   8.960
 2388POPC   C1A32979  19.095  19.539   8.781
 2388POPC   D2A32980  18.914  19.206   8.490
 2388POPC   C3A32981  18.944  19.171   8.039
 2388POPC   C4A32982  18.739  19.375   7.686
 2388POPC   C1B32983  19.258  18.857   8.633
 2388POPC   C2B32984  19.448  19.066   8.268
 2388POPC   C3B32985  19.416  19.009   7.852
 2388POPC   C4B32986  19.127  18.708   7.801
 2389POPC   NC332987  23.994  18.356   9.472
 2389POPC   PO432988  23.397  18.723   9.313
 2389POPC   GL132989  23.421  18.496   9.005
 2389POPC   GL232990  23.679  18.250   9.088
 2389POPC   C1A32991  23.495  18.568   8.624
 2389POPC   D2A32992  23.357  18.369   8.310
 2389POPC   C3A32993  23.297  18.553   7.929
 2389POPC   C4A32994  23.648  18.563   7.721
 2389POPC   C1B32995  23.614  18.067   8.734
 2389POPC   C2B32996  23.550  17.903   8.359
 2389POPC   C3B32997  23.587  18.081   7.950
 2389POPC   C4B32998  23.371  18.117   7.568
 2390POPC   NC332999  27.168  32.869   9.872
 2390POPC   PO433000  26.657  33.220   9.554
 2390POPC   GL133001  26.614  33.205   9.117
 2390POPC   GL233002  26.854  33.457   9.027
 2390POPC   C1A33003  26.758  33.023   8.721
 2390POPC   D2A33004  26.858  33.150   8.274
 2390POPC   C3A33005  26.844  32.843   7.908
 2390POPC   C4A33006  26.782  32.781   7.441
 2390POPC   C1B33007  27.164  33.342   8.697
 2390POPC   C2B33008  27.328  33.363   8.254
 2390POPC   C3B33009  27.150  33.239   7.822
 2390POPC   C4B33010  27.116  33.502   7.429
 2391POPC   NC333011  33.589  16.262   9.372
 2391POPC   PO433012  34.250  15.800   9.403
 2391POPC   GL133013  34.055  16.083   9.118
 2391POPC   GL233014  33.750  15.914   9.073
 2391POPC   C1A33015  33.910  16.152   8.664
 2391POPC   D2A33016  33.576  16.129   8.332
 2391POPC   C3A33017  33.655  16.203   7.900
 2391POPC   C4A33018  33.945  15.930   7.679
 2391POPC   C1B33019  33.455  15.833   8.750
 2391POPC   C2B33020  33.521  15.602   8.402
 2391POPC   C3B33021  33.607  15.682   8.005
 2391POPC   C4B33022  33.517  15.615   7.591
 2392POPC   NC333023  14.003  12.047   9.669
 2392POPC   PO433024  13.405  12.206   9.388
 2392POPC   GL133025  13.624  12.118   9.050
 2392POPC   GL233026  13.784  11.836   9.176
 2392POPC   C1A33027  13.514  12.303   8.647
 2392POPC   D2A33028  13.713  12.116   8.332
 2392POPC   C3A33029  13.654  12.323   7.962
 2392POPC   C4A33030  13.640  12.143   7.598
 2392POPC   C1B33031  13.961  11.860   8.738
 2392POPC   C2B33032  14.094  11.706   8.316
 2392POPC   C3B33033  13.906  11.848   7.936
 2392POPC   C4B33034  13.676  11.639   7.605
 2393POPC   NC333035  35.094  42.386   9.477
 2393POPC   PO433036  35.802  42.323   9.645
 2393POPC   GL133037  35.593  42.435   9.224
 2393POPC   GL233038  35.511  42.143   9.125
 2393POPC   C1A33039  35.316  42.523   8.856
 2393POPC   D2A33040  35.189  42.196   8.588
 2393POPC   C3A33041  35.082  42.329   8.202
 2393POPC   C4A33042  35.186  42.378   7.806
 2393POPC   C1B33043  35.736  42.289   8.729
 2393POPC   C2B33044  35.593  42.233   8.273
 2393POPC   C3B33045  35.691  42.392   7.882
 2393POPC   C4B33046  35.858  42.293   7.493
 2394POPC   NC333047  25.467  44.555   9.514
 2394POPC   PO433048  24.881  44.783   9.292
 2394POPC   GL133049  25.242  44.645   9.028
 2394POPC   GL233050  25.110  44.357   8.799
 2394POPC   C1A33051  25.302  44.782   8.592
 2394POPC   D2A33052  24.937  44.662   8.322
 2394POPC   C3A33053  24.920  44.857   7.921
 2394POPC   C4A33054  25.347   0.013   7.828
 2394POPC   C1B33055  25.523  44.230   8.790
 2394POPC   C2B33056  25.654  44.424   8.440
 2394POPC   C3B33057  25.452  44.602   8.108
 2394POPC   C4B33058  25.198  44.470   7.768
 2395POPC   NC333059  27.397   2.394   9.351
 2395POPC   PO433060  27.982   2.684   9.534
 2395POPC   GL133061  27.726   2.719   9.098
 2395POPC   GL233062  27.416   2.935   9.042
 2395POPC   C1A33063  27.719   2.866   8.643
 2395POPC   D2A33064  27.407   2.950   8.314
 2395POPC   C3A33065  27.513   2.760   7.935
 2395POPC   C4A33066  27.491   2.883   7.506
 2395POPC   C1B33067  27.296   2.609   8.740
 2395POPC   C2B33068  27.051   2.592   8.348
 2395POPC   C3B33069  27.163   2.369   8.010
 2395POPC   C4B33070  27.241   2.451   7.635
 2396POPC   NC333071  35.810  11.492   9.413
 2396POPC   PO433072  36.392  11.879   9.310
 2396POPC   GL133073  36.252  11.514   9.125
 2396POPC   GL233074  35.933  11.515   8.931
 2396POPC   C1A33075  36.395  11.325   8.749
 2396POPC   D2A33076  36.122  11.385   8.412
 2396POPC   C3A33077  36.224  11.348   7.998
 2396POPC   C4A33078  35.871  11.139   7.885
 2396POPC   C1B33079  35.730  11.678   8.568
 2396POPC   C2B33080  35.698  11.587   8.130
 2396POPC   C3B33081  35.914  11.656   7.741
 2396POPC   C4B33082  35.877  11.629   7.290
 2397POPC   NC333083   5.473  29.743   9.720
 2397POPC   PO433084   4.821  29.590   9.490
 2397POPC   GL133085   5.009  29.793   9.157
 2397POPC   GL233086   5.255  30.065   9.209
 2397POPC   C1A33087   4.860  29.803   8.749
 2397POPC   D2A33088   4.848  29.959   8.353
 2397POPC   C3A33089   4.924  29.736   7.995
 2397POPC   C4A33090   5.145  29.917   7.659
 2397POPC   C1B33091   5.378  29.864   8.812
 2397POPC   C2B33092   5.268  29.683   8.419
 2397POPC   C3B33093   5.433  29.781   8.060
 2397POPC   C4B33094   5.547  29.529   7.726
 2398POPC   NC333095  42.258  38.557  10.062
 2398POPC   PO433096  42.450  38.212   9.492
 2398POPC   GL133097  42.443  38.357   9.101
 2398POPC   GL233098  42.517  38.015   9.019
 2398POPC   C1A33099  42.224  38.548   8.743
 2398POPC   D2A33100  42.371  38.724   8.320
 2398POPC   C3A33101  42.375  38.549   7.881
 2398POPC   C4A33102  42.340  38.155   7.646
 2398POPC   C1B33103  42.531  38.146   8.613
 2398POPC   C2B33104  42.637  38.270   8.210
 2398POPC   C3B33105  42.827  38.278   7.801
 2398POPC   C4B33106  42.766  38.346   7.358
 2399POPC   NC333107  38.399  18.308   9.841
 2399POPC   PO433108  38.371  17.928   9.286
 2399POPC   GL133109  38.484  18.180   9.034
 2399POPC   GL233110  38.431  18.473   9.207
 2399POPC   C1A33111  38.441  18.168   8.608
 2399POPC   D2A33112  38.694  18.072   8.273
 2399POPC   C3A33113  38.515  18.144   7.870
 2399POPC   C4A33114  38.796  17.919   7.591
 2399POPC   C1B33115  38.613  18.626   8.833
 2399POPC   C2B33116  38.768  18.549   8.432
 2399POPC   C3B33117  38.917  18.467   7.992
 2399POPC   C4B33118  38.781  18.435   7.537
 2400POPC   NC333119  28.619  33.115   9.361
 2400POPC   PO433120  28.320  32.509   9.390
 2400POPC   GL133121  28.302  32.825   9.086
 2400POPC   GL233122  28.059  33.099   9.151
 2400POPC   C1A33123  28.348  32.886   8.665
 2400POPC   D2A33124  28.136  32.802   8.300
 2400POPC   C3A33125  28.292  32.596   7.974
 2400POPC   C4A33126  28.574  32.692   7.689
 2400POPC   C1B33127  28.111  33.344   8.766
 2400POPC   C2B33128  28.277  33.302   8.349
 2400POPC   C3B33129  28.568  33.099   8.085
 2400POPC   C4B33130  28.395  33.155   7.675
 2401POPC   NC333131  10.275  40.956   9.413
 2401POPC   PO433132   9.628  40.745   9.665
 2401POPC   GL133133   9.737  40.580   9.235
 2401POPC   GL233134  10.080  40.571   9.143
 2401POPC   C1A33135   9.685  40.642   8.763
 2401POPC   D2A33136   9.565  40.949   8.411
 2401POPC   C3A33137   9.573  40.807   7.971
 2401POPC   C4A33138   9.730  40.912   7.569
 2401POPC   C1B33139  10.141  40.873   8.775
 2401POPC   C2B33140  10.049  41.143   8.411
 2401POPC   C3B33141  10.022  41.069   7.957
 2401POPC   C4B33142  10.184  40.671   7.755
 2402POPC   NC333143  25.963  28.054   9.474
 2402POPC   PO433144  26.126  28.550   9.791
 2402POPC   GL133145  26.193  28.411   9.227
 2402POPC   GL233146  25.888  28.339   9.053
 2402POPC   C1A33147  26.226  28.553   8.758
 2402POPC   D2A33148  26.346  28.348   8.358
 2402POPC   C3A33149  26.183  28.429   7.961
 2402POPC   C4A33150  25.900  28.551   7.625
 2402POPC   C1B33151  25.884  28.122   8.690
 2402POPC   C2B33152  25.813  28.243   8.282
 2402POPC   C3B33153  25.674  28.085   7.885
 2402POPC   C4B33154  25.736  28.057   7.448
 2403POPC   NC333155  31.897  14.449   9.952
 2403POPC   PO433156  31.437  14.383   9.480
 2403POPC   GL133157  31.759  14.358   9.128
 2403POPC   GL233158  31.719  14.019   8.994
 2403POPC   C1A33159  31.806  14.680   8.769
 2403POPC   D2A33160  31.725  15.025   8.430
 2403POPC   C3A33161  31.496  14.929   8.105
 2403POPC   C4A33162  31.514  14.710   7.737
 2403POPC   C1B33163  31.460  14.295   8.726
 2403POPC   C2B33164  31.516  14.459   8.297
 2403POPC   C3B33165  31.453  14.235   7.896
 2403POPC   C4B33166  31.139  14.253   7.548
 2404POPC   NC333167  17.099  28.307   9.345
 2404POPC   PO433168  17.651  28.556   9.519
 2404POPC   GL133169  17.486  28.543   9.136
 2404POPC   GL233170  17.509  28.165   9.116
 2404POPC   C1A33171  17.343  28.706   8.767
 2404POPC   D2A33172  17.504  28.925   8.427
 2404POPC   C3A33173  17.388  28.729   8.067
 2404POPC   C4A33174  17.514  28.372   7.816
 2404POPC   C1B33175  17.638  28.284   8.710
 2404POPC   C2B33176  17.711  28.340   8.299
 2404POPC   C3B33177  17.875  28.034   8.047
 2404POPC   C4B33178  17.689  27.913   7.674
 2405POPC   NC333179  22.669  15.766   9.597
 2405POPC   PO433180  23.299  15.889   9.612
 2405POPC   GL133181  22.978  15.819   9.210
 2405POPC   GL233182  22.843  16.082   9.135
 2405POPC   C1A33183  22.816  15.763   8.768
 2405POPC   D2A33184  22.928  16.004   8.428
 2405POPC   C3A33185  22.825  15.755   8.109
 2405POPC   C4A33186  22.789  15.859   7.716
 2405POPC   C1B33187  22.601  16.263   8.826
 2405POPC   C2B33188  22.647  16.442   8.433
 2405POPC   C3B33189  22.617  16.232   8.035
 2405POPC   C4B33190  22.649  16.357   7.606
 2406POPC   NC333191   3.702  44.883   9.931
 2406POPC   PO433192   3.205  44.680   9.657
 2406POPC   GL133193   3.436  44.751   9.296
 2406POPC   GL233194   3.678  44.946   9.409
 2406POPC   C1A33195   3.395  44.783   8.860
 2406POPC   D2A33196   3.464  44.540   8.491
 2406POPC   C3A33197   3.512  44.730   8.097
 2406POPC   C4A33198   3.462  44.510   7.716
 2406POPC   C1B33199   3.794   0.066   8.991
 2406POPC   C2B33200   3.745  44.986   8.527
 2406POPC   C3B33201   3.905   0.064   8.086
 2406POPC   C4B33202   3.719  44.956   7.675
 2407POPC   NC333203  18.702  22.758   9.567
 2407POPC   PO433204  19.246  23.087   9.581
 2407POPC   GL133205  19.051  22.943   9.224
 2407POPC   GL233206  19.162  22.580   9.211
 2407POPC   C1A33207  18.808  23.060   8.875
 2407POPC   D2A33208  18.748  22.868   8.468
 2407POPC   C3A33209  18.875  23.128   8.146
 2407POPC   C4A33210  18.886  23.080   7.731
 2407POPC   C1B33211  19.175  22.703   8.764
 2407POPC   C2B33212  19.287  22.907   8.359
 2407POPC   C3B33213  19.305  22.754   7.921
 2407POPC   C4B33214  19.339  22.936   7.503
 2408POPC   NC333215  14.724  38.470   9.549
 2408POPC   PO433216  15.367  38.302   9.554
 2408POPC   GL133217  15.169  38.311   9.145
 2408POPC   GL233218  14.817  38.289   9.082
 2408POPC   C1A33219  15.104  38.109   8.733
 2408POPC   D2A33220  15.000  38.168   8.322
 2408POPC   C3A33221  15.334  38.295   8.073
 2408POPC   C4A33222  15.312  38.667   7.855
 2408POPC   C1B33223  14.821  38.529   8.703
 2408POPC   C2B33224  14.660  38.561   8.273
 2408POPC   C3B33225  14.844  38.398   7.891
 2408POPC   C4B33226  14.931  38.571   7.499
 2409POPC   NC333227   3.687   5.987   9.488
 2409POPC   PO433228   3.178   5.516   9.561
 2409POPC   GL133229   3.369   5.693   9.211
 2409POPC   GL233230   3.216   5.991   9.120
 2409POPC   C1A33231   3.551   5.774   8.816
 2409POPC   D2A33232   3.645   5.995   8.445
 2409POPC   C3A33233   3.577   5.816   8.046
 2409POPC   C4A33234   3.593   5.957   7.597
 2409POPC   C1B33235   3.239   6.198   8.742
 2409POPC   C2B33236   3.118   6.236   8.329
 2409POPC   C3B33237   3.179   6.065   7.899
 2409POPC   C4B33238   3.103   5.913   7.496
 2410POPC   NC333239  28.234   6.849   9.452
 2410POPC   PO433240  28.732   6.424   9.612
 2410POPC   GL133241  28.523   6.485   9.216
 2410POPC   GL233242  28.656   6.842   9.160
 2410POPC   C1A33243  28.311   6.495   8.802
 2410POPC   D2A33244  28.182   6.724   8.414
 2410POPC   C3A33245  28.260   6.512   8.017
 2410POPC   C4A33246  28.485   6.522   7.611
 2410POPC   C1B33247  28.440   7.000   8.800
 2410POPC   C2B33248  28.598   7.049   8.384
 2410POPC   C3B33249  28.655   6.843   8.001
 2410POPC   C4B33250  28.264   6.953   7.768
 2411POPC   NC333251  31.195  41.335   9.548
 2411POPC   PO433252  31.584  41.916   9.433
 2411POPC   GL133253  31.457  41.667   9.076
 2411POPC   GL233254  31.307  41.336   9.067
 2411POPC   C1A33255  31.399  41.589   8.629
 2411POPC   D2A33256  31.613  41.447   8.269
 2411POPC   C3A33257  31.478  41.592   7.902
 2411POPC   C4A33258  31.516  41.485   7.511
 2411POPC   C1B33259  31.023  41.271   8.746
 2411POPC   C2B33260  31.112  41.248   8.321
 2411POPC   C3B33261  31.194  41.167   7.906
 2411POPC   C4B33262  30.961  41.326   7.603
 2412POPC   NC333263  15.591  12.207   9.806
 2412POPC   PO433264  15.160  11.899   9.471
 2412POPC   GL133265  14.998  11.775   9.036
 2412POPC   GL233266  15.269  11.562   8.996
 2412POPC   C1A33267  14.904  12.051   8.666
 2412POPC   D2A33268  15.251  12.250   8.404
 2412POPC   C3A33269  15.171  12.236   7.946
 2412POPC   C4A33270  14.911  11.903   7.827
 2412POPC   C1B33271  15.246  11.694   8.592
 2412POPC   C2B33272  15.285  11.781   8.187
 2412POPC   C3B33273  15.261  11.535   7.856
 2412POPC   C4B33274  15.037  11.520   7.482
 2413POPC   NC333275  26.522  41.936   9.522
 2413POPC   PO433276  26.734  41.256   9.434
 2413POPC   GL133277  26.894  41.410   9.098
 2413POPC   GL233278  26.868  41.773   9.157
 2413POPC   C1A33279  26.718  41.357   8.713
 2413POPC   D2A33280  26.730  41.612   8.342
 2413POPC   C3A33281  26.749  41.420   7.921
 2413POPC   C4A33282  26.465  41.095   7.758
 2413POPC   C1B33283  27.024  41.779   8.772
 2413POPC   C2B33284  27.292  41.836   8.457
 2413POPC   C3B33285  27.146  41.757   8.086
 2413POPC   C4B33286  27.280  41.441   7.884
 2414POPC   NC333287  27.922  34.519   9.539
 2414POPC   PO433288  28.477  34.535   9.653
 2414POPC   GL133289  28.364  34.475   9.228
 2414POPC   GL233290  28.136  34.758   9.147
 2414POPC   C1A33291  28.187  34.385   8.812
 2414POPC   D2A33292  28.340  34.506   8.382
 2414POPC   C3A33293  28.083  34.394   8.011
 2414POPC   C4A33294  28.273  34.249   7.639
 2414POPC   C1B33295  28.414  34.847   8.778
 2414POPC   C2B33296  28.511  35.020   8.349
 2414POPC   C3B33297  28.331  34.841   7.963
 2414POPC   C4B33298  28.489  34.738   7.561
 2415POPC   NC333299  40.441  22.598   9.425
 2415POPC   PO433300  40.677  23.255   9.449
 2415POPC   GL133301  40.858  23.270   9.092
 2415POPC   GL233302  40.762  22.891   9.061
 2415POPC   C1A33303  41.000  23.188   8.716
 2415POPC   D2A33304  40.760  22.962   8.456
 2415POPC   C3A33305  40.972  23.007   8.076
 2415POPC   C4A33306  40.710  23.129   7.805
 2415POPC   C1B33307  40.541  22.600   8.794
 2415POPC   C2B33308  40.565  22.452   8.410
 2415POPC   C3B33309  40.530  22.690   8.053
 2415POPC   C4B33310  40.540  22.651   7.623
 2416POPC   NC333311   2.145  32.593   9.283
 2416POPC   PO433312   2.081  31.995   9.475
 2416POPC   GL133313   1.897  32.092   9.083
 2416POPC   GL233314   1.728  32.393   9.084
 2416POPC   C1A33315   2.063  32.267   8.696
 2416POPC   D2A33316   2.044  32.107   8.281
 2416POPC   C3A33317   2.224  32.283   7.929
 2416POPC   C4A33318   2.392  32.536   7.647
 2416POPC   C1B33319   1.532  32.239   8.728
 2416POPC   C2B33320   1.690  32.448   8.408
 2416POPC   C3B33321   1.855  32.600   8.066
 2416POPC   C4B33322   1.762  32.318   7.735
 2417POPC   NC333323   7.452  34.853   9.455
 2417POPC   PO433324   7.746  34.288   9.485
 2417POPC   GL133325   7.645  34.482   9.131
 2417POPC   GL233326   7.322  34.522   9.056
 2417POPC   C1A33327   7.653  34.397   8.677
 2417POPC   D2A33328   7.358  34.319   8.339
 2417POPC   C3A33329   7.558  34.245   7.955
 2417POPC   C4A33330   7.293  34.340   7.634
 2417POPC   C1B33331   7.477  34.871   8.795
 2417POPC   C2B33332   7.419  34.841   8.370
 2417POPC   C3B33333   7.356  34.747   7.962
 2417POPC   C4B33334   6.988  34.985   7.885
 2418POPC   NC333335   9.380   3.419   9.448
 2418POPC   PO433336   9.986   3.696   9.654
 2418POPC   GL133337   9.764   3.689   9.218
 2418POPC   GL233338   9.598   3.383   9.004
 2418POPC   C1A33339   9.818   3.780   8.771
 2418POPC   D2A33340   9.862   3.519   8.397
 2418POPC   C3A33341   9.590   3.427   8.039
 2418POPC   C4A33342   9.731   3.559   7.627
 2418POPC   C1B33343   9.343   3.745   8.870
 2418POPC   C2B33344   9.314   3.923   8.458
 2418POPC   C3B33345   9.487   3.915   8.037
 2418POPC   C4B33346   9.271   3.714   7.664
 2419POPC   NC333347   4.536   1.402   9.640
 2419POPC   PO433348   4.092   0.867   9.520
 2419POPC   GL133349   4.360   1.127   9.262
 2419POPC   GL233350   4.227   1.411   9.192
 2419POPC   C1A33351   4.512   1.138   8.853
 2419POPC   D2A33352   4.294   1.082   8.476
 2419POPC   C3A33353   4.439   1.282   8.121
 2419POPC   C4A33354   4.306   1.071   7.757
 2419POPC   C1B33355   4.153   1.501   8.754
 2419POPC   C2B33356   3.879   1.413   8.391
 2419POPC   C3B33357   3.968   1.453   7.942
 2419POPC   C4B33358   3.827   1.642   7.553
 2420POPC   NC333359  37.938  37.380   9.636
 2420POPC   PO433360  38.545  37.668   9.664
 2420POPC   GL133361  38.532  37.660   9.205
 2420POPC   GL233362  38.355  37.960   9.118
 2420POPC   C1A33363  38.384  37.617   8.740
 2420POPC   D2A33364  38.539  37.609   8.295
 2420POPC   C3A33365  38.185  37.556   8.000
 2420POPC   C4A33366  37.884  37.310   7.822
 2420POPC   C1B33367  38.626  38.074   8.746
 2420POPC   C2B33368  38.655  38.114   8.279
 2420POPC   C3B33369  38.487  37.938   7.880
 2420POPC   C4B33370  38.605  37.539   7.676
 2421POPC   NC333371  37.619   5.544   9.487
 2421POPC   PO433372  37.687   4.952   9.447
 2421POPC   GL133373  37.775   5.239   9.097
 2421POPC   GL233374  37.920   4.974   8.943
 2421POPC   C1A33375  37.759   5.376   8.632
 2421POPC   D2A33376  37.649   5.169   8.206
 2421POPC   C3A33377  37.713   5.380   7.781
 2421POPC   C4A33378  37.428   5.544   7.428
 2421POPC   C1B33379  38.018   4.953   8.521
 2421POPC   C2B33380  37.862   4.679   8.219
 2421POPC   C3B33381  37.809   4.814   7.801
 2421POPC   C4B33382  38.091   5.053   7.536
 2422POPC   NC333383  29.297   8.031   9.341
 2422POPC   PO433384  28.716   8.255   9.609
 2422POPC   GL133385  28.934   8.375   9.177
 2422POPC   GL233386  29.193   8.563   9.125
 2422POPC   C1A33387  29.050   8.184   8.724
 2422POPC   D2A33388  29.095   8.353   8.317
 2422POPC   C3A33389  28.906   8.142   7.964
 2422POPC   C4A33390  29.303   8.094   7.747
 2422POPC   C1B33391  29.453   8.481   8.760
 2422POPC   C2B33392  29.618   8.505   8.338
 2422POPC   C3B33393  29.479   8.585   7.923
 2422POPC   C4B33394  29.753   8.444   7.598
 2423POPC   NC333395  34.163  19.141   9.496
 2423POPC   PO433396  34.769  18.842   9.453
 2423POPC   GL133397  34.580  19.121   9.145
 2423POPC   GL233398  34.274  18.942   9.061
 2423POPC   C1A33399  34.583  19.122   8.681
 2423POPC   D2A33400  34.321  19.005   8.336
 2423POPC   C3A33401  34.548  19.108   7.987
 2423POPC   C4A33402  34.702  19.110   7.577
 2423POPC   C1B33403  34.332  18.680   8.724
 2423POPC   C2B33404  34.443  18.510   8.308
 2423POPC   C3B33405  34.549  18.600   7.874
 2423POPC   C4B33406  34.668  18.617   7.447
 2424POPC   NC333407  30.433  37.140   9.455
 2424POPC   PO433408  30.891  36.633   9.314
 2424POPC   GL133409  30.747  36.870   9.037
 2424POPC   GL233410  30.411  36.839   9.043
 2424POPC   C1A33411  30.793  36.750   8.628
 2424POPC   D2A33412  30.717  36.993   8.287
 2424POPC   C3A33413  30.950  36.779   8.041
 2424POPC   C4A33414  31.065  36.806   7.672
 2424POPC   C1B33415  30.303  36.931   8.622
 2424POPC   C2B33416  30.229  36.671   8.263
 2424POPC   C3B33417  30.425  36.706   7.900
 2424POPC   C4B33418  30.586  37.074   7.785
 2425POPC   NC333419  38.819  23.599   9.394
 2425POPC   PO433420  38.254  23.327   9.455
 2425POPC   GL133421  38.371  23.656   9.139
 2425POPC   GL233422  38.572  23.993   9.094
 2425POPC   C1A33423  38.507  23.538   8.757
 2425POPC   D2A33424  38.256  23.254   8.530
 2425POPC   C3A33425  38.279  23.246   8.096
 2425POPC   C4A33426  38.201  23.466   7.722
 2425POPC   C1B33427  38.599  24.035   8.622
 2425POPC   C2B33428  38.784  23.779   8.305
 2425POPC   C3B33429  38.694  23.572   7.943
 2425POPC   C4B33430  38.477  23.893   7.741
 2426POPC   NC333431   6.887   0.286   9.373
 2426POPC   PO433432   6.921   0.962   9.392
 2426POPC   GL133433   6.739   0.762   9.041
 2426POPC   GL233434   6.430   0.856   8.975
 2426POPC   C1A33435   6.678   0.518   8.640
 2426POPC   D2A33436   6.860   0.193   8.336
 2426POPC   C3A33437   6.675   0.080   7.918
 2426POPC   C4A33438   6.579   0.233   7.501
 2426POPC   C1B33439   6.228   0.781   8.617
 2426POPC   C2B33440   6.293   0.573   8.234
 2426POPC   C3B33441   6.580   0.591   7.895
 2426POPC   C4B33442   6.518   0.727   7.481
 2427POPC   NC333443  44.211  42.201   9.396
 2427POPC   PO433444  43.550  41.982   9.535
 2427POPC   GL133445  43.680  42.131   9.167
 2427POPC   GL233446  43.814  42.438   9.178
 2427POPC   C1A33447  43.927  42.092   8.809
 2427POPC   D2A33448  43.886  42.135   8.410
 2427POPC   C3A33449  44.229  41.956   8.188
 2427POPC   C4A33450  44.245  41.911   7.768
 2427POPC   C1B33451  43.689  42.560   8.744
 2427POPC   C2B33452  43.775  42.648   8.299
 2427POPC   C3B33453  43.964  42.599   7.877
 2427POPC   C4B33454  44.195  42.895   7.684
 2428POPC   NC333455   6.151  11.628   9.233
 2428POPC   PO433456   5.694  11.253   9.630
 2428POPC   GL133457   5.694  11.379   9.176
 2428POPC   GL233458   5.433  11.556   9.106
 2428POPC   C1A33459   5.794  11.151   8.737
 2428POPC   D2A33460   5.830  11.289   8.293
 2428POPC   C3A33461   6.170  11.178   8.001
 2428POPC   C4A33462   6.003  11.117   7.593
 2428POPC   C1B33463   5.688  11.638   8.716
 2428POPC   C2B33464   5.876  11.811   8.351
 2428POPC   C3B33465   6.077  11.704   7.986
 2428POPC   C4B33466   5.961  11.617   7.581
 2429POPC   NC333467  11.764  21.211   9.344
 2429POPC   PO433468  12.364  21.442   9.533
 2429POPC   GL133469  12.220  21.320   9.094
 2429POPC   GL233470  11.898  21.287   8.846
 2429POPC   C1A33471  12.349  21.425   8.714
 2429POPC   D2A33472  12.139  21.595   8.389
 2429POPC   C3A33473  12.166  21.421   7.994
 2429POPC   C4A33474  12.233  21.605   7.566
 2429POPC   C1B33475  11.718  20.955   8.689
 2429POPC   C2B33476  11.570  20.927   8.321
 2429POPC   C3B33477  11.668  21.000   7.903
 2429POPC   C4B33478  11.749  21.435   7.685
 2430POPC   NC333479   9.561   1.858   9.630
 2430POPC   PO433480   9.752   2.433   9.592
 2430POPC   GL133481   9.652   2.210   9.242
 2430POPC   GL233482   9.937   1.973   9.280
 2430POPC   C1A33483   9.478   2.248   8.832
 2430POPC   D2A33484   9.457   2.035   8.425
 2430POPC   C3A33485   9.768   2.155   8.120
 2430POPC   C4A33486   9.576   2.149   7.716
 2430POPC   C1B33487   9.901   1.970   8.836
 2430POPC   C2B33488   9.912   1.767   8.452
 2430POPC   C3B33489  10.138   1.781   8.094
 2430POPC   C4B33490   9.864   1.737   7.774
 2431POPC   NC333491  43.483  40.819   9.447
 2431POPC   PO433492  43.988  40.388   9.598
 2431POPC   GL133493  43.980  40.658   9.185
 2431POPC   GL233494  44.184  40.976   9.135
 2431POPC   C1A33495  43.816  40.884   8.797
 2431POPC   D2A33496  43.706  41.128   8.415
 2431POPC   C3A33497  43.782  40.841   8.064
 2431POPC   C4A33498  43.627  40.803   7.625
 2431POPC   C1B33499  44.336  40.918   8.736
 2431POPC   C2B33500  44.230  41.083   8.354
 2431POPC   C3B33501  44.375  41.037   7.951
 2431POPC   C4B33502  44.140  40.795   7.691
 2432POPC   NC333503  37.828   9.660   9.704
 2432POPC   PO433504  37.222   9.943   9.647
 2432POPC   GL133505  37.532   9.837   9.285
 2432POPC   GL233506  37.858   9.642   9.179
 2432POPC   C1A33507  37.625  10.018   8.885
 2432POPC   D2A33508  37.447   9.987   8.487
 2432POPC   C3A33509  37.708  10.017   8.107
 2432POPC   C4A33510  37.853  10.004   7.713
 2432POPC   C1B33511  37.664   9.482   8.764
 2432POPC   C2B33512  37.609   9.514   8.295
 2432POPC   C3B33513  37.791   9.510   7.864
 2432POPC   C4B33514  37.527   9.313   7.511
 2433POPC   NC333515  27.765  39.957   9.345
 2433POPC   PO433516  27.373  40.487   9.457
 2433POPC   GL133517  27.406  40.204   9.074
 2433POPC   GL233518  27.156  39.961   9.179
 2433POPC   C1A33519  27.682  40.083   8.683
 2433POPC   D2A33520  27.489  40.179   8.255
 2433POPC   C3A33521  27.751  40.191   7.870
 2433POPC   C4A33522  27.706  39.974   7.444
 2433POPC   C1B33523  27.294  39.783   8.787
 2433POPC   C2B33524  27.473  39.677   8.372
 2433POPC   C3B33525  27.555  39.728   7.926
 2433POPC   C4B33526  27.292  39.734   7.559
 2434POPC   NC333527  36.710   6.094   9.515
 2434POPC   PO433528  37.332   5.864   9.648
 2434POPC   GL133529  37.096   5.922   9.218
 2434POPC   GL233530  37.028   6.276   9.097
 2434POPC   C1A33531  36.731   5.910   8.879
 2434POPC   D2A33532  36.703   6.106   8.462
 2434POPC   C3A33533  36.823   5.919   8.058
 2434POPC   C4A33534  36.663   5.579   7.774
 2434POPC   C1B33535  37.199   6.029   8.706
 2434POPC   C2B33536  37.462   5.922   8.317
 2434POPC   C3B33537  37.385   5.813   7.882
 2434POPC   C4B33538  37.042   5.866   7.580
 2435POPC   NC333539   5.486  22.147   9.714
 2435POPC   PO433540   6.023  22.011   9.286
 2435POPC   GL133541   6.017  22.105   8.896
 2435POPC   GL233542   5.933  22.430   8.964
 2435POPC   C1A33543   5.790  22.203   8.531
 2435POPC   D2A33544   5.918  22.301   8.146
 2435POPC   C3A33545   5.592  22.076   7.933
 2435POPC   C4A33546   5.616  21.873   7.535
 2435POPC   C1B33547   6.204  22.503   8.592
 2435POPC   C2B33548   6.269  22.697   8.161
 2435POPC   C3B33549   6.273  22.497   7.759
 2435POPC   C4B33550   6.032  22.141   7.659
 2436POPC   NC333551  26.429  43.569   9.671
 2436POPC   PO433552  27.092  43.818   9.654
 2436POPC   GL133553  26.882  43.716   9.247
 2436POPC   GL233554  27.042  43.963   9.048
 2436POPC   C1A33555  26.854  43.583   8.784
 2436POPC   D2A33556  26.788  43.810   8.410
 2436POPC   C3A33557  26.659  43.629   8.031
 2436POPC   C4A33558  26.794  43.787   7.651
 2436POPC   C1B33559  27.129  44.113   8.639
 2436POPC   C2B33560  27.123  44.149   8.191
 2436POPC   C3B33561  27.060  44.209   7.753
 2436POPC   C4B33562  27.077  44.188   7.301
 2437POPC   NC333563   5.592   3.484   9.518
 2437POPC   PO433564   5.095   3.972   9.520
 2437POPC   GL133565   5.004   3.773   9.132
 2437POPC   GL233566   5.362   3.689   9.099
 2437POPC   C1A33567   4.878   3.649   8.690
 2437POPC   D2A33568   4.996   3.351   8.343
 2437POPC   C3A33569   5.032   3.476   7.903
 2437POPC   C4A33570   5.029   3.265   7.499
 2437POPC   C1B33571   5.388   3.494   8.707
 2437POPC   C2B33572   5.493   3.563   8.287
 2437POPC   C3B33573   5.488   3.725   7.886
 2437POPC   C4B33574   5.305   3.680   7.475
 2438POPC   NC333575  10.980  13.583   9.380
 2438POPC   PO433576  11.507  13.198   9.476
 2438POPC   GL133577  11.495  13.411   9.097
 2438POPC   GL233578  11.398  13.726   9.179
 2438POPC   C1A33579  11.243  13.507   8.711
 2438POPC   D2A33580  11.458  13.399   8.291
 2438POPC   C3A33581  11.350  13.386   7.830
 2438POPC   C4A33582  11.016  13.625   7.657
 2438POPC   C1B33583  11.513  13.907   8.838
 2438POPC   C2B33584  11.642  13.949   8.409
 2438POPC   C3B33585  11.585  13.812   7.969
 2438POPC   C4B33586  11.523  13.783   7.491
 2439POPC   NC333587  23.819  44.635   9.873
 2439POPC   PO433588  23.319  44.701   9.368
 2439POPC   GL133589  23.532  44.482   9.024
 2439POPC   GL233590  23.929  44.513   8.952
 2439POPC   C1A33591  23.577  44.435   8.594
 2439POPC   D2A33592  23.889  44.465   8.304
 2439POPC   C3A33593  23.561  44.496   8.029
 2439POPC   C4A33594  23.504  44.693   7.664
 2439POPC   C1B33595  23.734  44.899   8.726
 2439POPC   C2B33596  23.818   0.052   8.341
 2439POPC   C3B33597  23.883  44.888   7.953
 2439POPC   C4B33598  23.930   0.015   7.539
 2440POPC   NC333599  39.512  10.066   9.646
 2440POPC   PO433600  39.206   9.479   9.505
 2440POPC   GL133601  39.424   9.681   9.121
 2440POPC   GL233602  39.574  10.032   9.130
 2440POPC   C1A33603  39.301   9.748   8.677
 2440POPC   D2A33604  39.147  10.062   8.369
 2440POPC   C3A33605  39.213   9.919   7.953
 2440POPC   C4A33606  39.093   9.681   7.585
 2440POPC   C1B33607  39.766   9.957   8.713
 2440POPC   C2B33608  39.644   9.853   8.282
 2440POPC   C3B33609  39.698   9.881   7.837
 2440POPC   C4B33610  39.478   9.992   7.458
 2441POPC   NC333611  37.345  43.776   9.408
 2441POPC   PO433612  36.758  43.858   9.538
 2441POPC   GL133613  36.911  43.955   9.093
 2441POPC   GL233614  37.250  43.830   8.931
 2441POPC   C1A33615  36.818  43.795   8.680
 2441POPC   D2A33616  36.617  43.851   8.298
 2441POPC   C3A33617  36.897  43.746   8.013
 2441POPC   C4A33618  36.869  43.796   7.595
 2441POPC   C1B33619  37.177  44.156   8.648
 2441POPC   C2B33620  37.028  44.187   8.255
 2441POPC   C3B33621  37.184  44.147   7.840
 2441POPC   C4B33622  37.154  44.171   7.407
 2442POPC   NC333623  43.595  15.282   9.303
 2442POPC   PO433624  44.115  14.822   9.485
 2442POPC   GL133625  43.983  15.015   9.105
 2442POPC   GL233626  44.058  15.378   9.084
 2442POPC   C1A33627  43.695  15.025   8.701
 2442POPC   D2A33628  43.512  14.856   8.310
 2442POPC   C3A33629  43.694  14.957   7.887
 2442POPC   C4A33630  43.561  15.178   7.512
 2442POPC   C1B33631  44.168  15.195   8.681
 2442POPC   C2B33632  43.998  15.168   8.260
 2442POPC   C3B33633  44.235  15.022   7.911
 2442POPC   C4B33634  44.380  15.221   7.541
 2443POPC   NC333635   8.452  34.847   9.439
 2443POPC   PO433636   8.366  35.567   9.459
 2443POPC   GL133637   8.291  35.468   9.060
 2443POPC   GL233638   8.569  35.233   9.088
 2443POPC   C1A33639   7.907  35.295   8.845
 2443POPC   D2A33640   7.697  35.254   8.446
 2443POPC   C3A33641   7.924  35.140   8.063
 2443POPC   C4A33642   8.268  35.067   7.767
 2443POPC   C1B33643   8.374  35.049   8.766
 2443POPC   C2B33644   8.218  35.322   8.445
 2443POPC   C3B33645   8.373  35.479   8.061
 2443POPC   C4B33646   8.284  35.595   7.616
 2444POPC   NC333647  35.140  12.299   9.352
 2444POPC   PO433648  35.509  11.812   9.271
 2444POPC   GL133649  35.433  12.028   8.971
 2444POPC   GL233650  35.530  12.380   9.047
 2444POPC   C1A33651  35.268  11.875   8.606
 2444POPC   D2A33652  35.244  11.825   8.189
 2444POPC   C3A33653  35.173  12.132   7.907
 2444POPC   C4A33654  35.472  11.886   7.715
 2444POPC   C1B33655  35.189  12.377   8.709
 2444POPC   C2B33656  35.377  12.306   8.362
 2444POPC   C3B33657  35.686  12.124   8.146
 2444POPC   C4B33658  35.689  12.332   7.782
 2445POPC   NC333659  25.528  27.295   9.185
 2445POPC   PO433660  24.983  27.602   9.478
 2445POPC   GL133661  25.272  27.719   9.094
 2445POPC   GL233662  25.468  28.048   9.072
 2445POPC   C1A33663  25.572  27.714   8.694
 2445POPC   D2A33664  25.735  27.729   8.278
 2445POPC   C3A33665  25.375  27.672   8.033
 2445POPC   C4A33666  25.124  27.596   7.676
 2445POPC   C1B33667  25.137  28.027   8.727
 2445POPC   C2B33668  24.967  27.941   8.296
 2445POPC   C3B33669  25.128  28.093   7.867
 2445POPC   C4B33670  25.253  27.968   7.398
 2446POPC   NC333671   0.211  34.711   9.663
 2446POPC   PO433672  44.649  34.549   9.428
 2446POPC   GL133673  44.601  34.706   9.065
 2446POPC   GL233674  44.337  34.918   9.076
 2446POPC   C1A33675  44.457  34.479   8.717
 2446POPC   D2A33676  44.634  34.626   8.378
 2446POPC   C3A33677  44.686  34.473   7.983
 2446POPC   C4A33678  44.764  34.804   7.707
 2446POPC   C1B33679  44.351  34.982   8.690
 2446POPC   C2B33680  44.177  34.786   8.355
 2446POPC   C3B33681  44.308  34.827   7.986
 2446POPC   C4B33682  44.114  34.940   7.652
 2447POPC   NC333683  18.906   4.488   9.475
 2447POPC   PO433684  19.402   4.083   9.519
 2447POPC   GL133685  19.285   4.327   9.171
 2447POPC   GL233686  18.964   4.135   9.097
 2447POPC   C1A33687  19.089   4.607   8.851
 2447POPC   D2A33688  19.147   4.570   8.408
 2447POPC   C3A33689  18.967   4.794   8.060
 2447POPC   C4A33690  18.883   4.645   7.654
 2447POPC   C1B33691  19.207   4.123   8.718
 2447POPC   C2B33692  19.056   4.069   8.318
 2447POPC   C3B33693  19.105   4.264   7.914
 2447POPC   C4B33694  18.946   4.150   7.496
 2448POPC   NC333695   5.715  10.903   9.333
 2448POPC   PO433696   6.021  10.340   9.616
 2448POPC   GL133697   5.795  10.408   9.193
 2448POPC   GL233698   5.482  10.219   9.130
 2448POPC   C1A33699   5.779  10.617   8.753
 2448POPC   D2A33700   5.529  10.845   8.396
 2448POPC   C3A33701   5.733  10.856   7.968
 2448POPC   C4A33702   5.954  10.622   7.643
 2448POPC   C1B33703   5.669  10.086   8.728
 2448POPC   C2B33704   5.937  10.272   8.402
 2448POPC   C3B33705   5.814  10.287   7.993
 2448POPC   C4B33706   5.446  10.213   7.758
 2449POPC   NC333707  24.934  43.535   9.771
 2449POPC   PO433708  24.697  42.952   9.523
 2449POPC   GL133709  24.504  43.073   9.137
 2449POPC   GL233710  24.252  43.338   9.215
 2449POPC   C1A33711  24.663  43.015   8.743
 2449POPC   D2A33712  24.627  42.980   8.318
 2449POPC   C3A33713  24.917  43.133   8.033
 2449POPC   C4A33714  25.096  43.462   7.784
 2449POPC   C1B33715  24.314  43.512   8.800
 2449POPC   C2B33716  24.343  43.459   8.367
 2449POPC   C3B33717  24.430  43.327   7.974
 2449POPC   C4B33718  24.454  42.895   7.828
 2450POPC   NC333719  17.381  26.417   9.493
 2450POPC   PO433720  17.728  27.006   9.495
 2450POPC   GL133721  17.591  26.752   9.145
 2450POPC   GL233722  17.863  26.538   9.054
 2450POPC   C1A33723  17.247  26.643   8.829
 2450POPC   D2A33724  17.012  26.754   8.450
 2450POPC   C3A33725  17.294  26.898   8.156
 2450POPC   C4A33726  17.415  26.702   7.780
 2450POPC   C1B33727  17.744  26.746   8.639
 2450POPC   C2B33728  17.761  26.694   8.168
 2450POPC   C3B33729  17.906  26.798   7.771
 2450POPC   C4B33730  17.809  27.198   7.663
 2451POPC   NC333731  24.141  26.984   9.284
 2451POPC   PO433732  23.721  26.704   9.657
 2451POPC   GL133733  23.712  26.622   9.199
 2451POPC   GL233734  23.538  26.931   9.154
 2451POPC   C1A33735  23.678  26.625   8.719
 2451POPC   D2A33736  23.802  26.349   8.326
 2451POPC   C3A33737  23.782  26.651   7.988
 2451POPC   C4A33738  24.084  26.986   7.862
 2451POPC   C1B33739  23.647  27.127   8.755
 2451POPC   C2B33740  23.679  27.040   8.307
 2451POPC   C3B33741  23.605  27.123   7.861
 2451POPC   C4B33742  23.654  27.169   7.364
 2452POPC   NC333743  42.839  18.211   9.653
 2452POPC   PO433744  42.300  17.873   9.510
 2452POPC   GL133745  42.379  18.093   9.134
 2452POPC   GL233746  42.108  18.294   9.001
 2452POPC   C1A33747  42.539  18.224   8.713
 2452POPC   D2A33748  42.480  17.997   8.307
 2452POPC   C3A33749  42.311  18.166   7.926
 2452POPC   C4A33750  42.593  18.425   7.727
 2452POPC   C1B33751  42.071  18.564   8.669
 2452POPC   C2B33752  42.025  18.489   8.246
 2452POPC   C3B33753  42.161  18.668   7.874
 2452POPC   C4B33754  42.182  18.536   7.427
 2453POPC   NC333755   7.962  11.933   9.495
 2453POPC   PO433756   8.606  11.924   9.485
 2453POPC   GL133757   8.310  11.987   9.124
 2453POPC   GL233758   8.005  11.752   9.038
 2453POPC   C1A33759   8.259  12.126   8.703
 2453POPC   D2A33760   8.487  12.331   8.378
 2453POPC   C3A33761   8.254  12.285   8.041
 2453POPC   C4A33762   8.288  11.945   7.757
 2453POPC   C1B33763   7.969  11.683   8.624
 2453POPC   C2B33764   8.157  11.820   8.276
 2453POPC   C3B33765   7.846  11.835   7.989
 2453POPC   C4B33766   7.811  12.197   7.784
 2454POPC   NC333767   1.475   2.411   9.513
 2454POPC   PO433768   1.335   3.070   9.449
 2454POPC   GL133769   1.438   2.792   9.107
 2454POPC   GL233770   1.077   2.737   9.102
 2454POPC   C1A33771   1.380   2.686   8.638
 2454POPC   D2A33772   1.054   2.841   8.318
 2454POPC   C3A33773   1.178   2.935   7.856
 2454POPC   C4A33774   1.253   3.032   7.395
 2454POPC   C1B33775   0.880   2.478   8.773
 2454POPC   C2B33776   0.859   2.342   8.335
 2454POPC   C3B33777   0.927   2.510   7.940
 2454POPC   C4B33778   1.051   2.592   7.486
 2455POPC   NC333779  11.160  36.613   9.520
 2455POPC   PO433780  11.414  37.173   9.549
 2455POPC   GL133781  11.292  37.009   9.174
 2455POPC   GL233782  11.020  37.223   9.107
 2455POPC   C1A33783  11.467  36.713   8.848
 2455POPC   D2A33784  11.424  36.650   8.391
 2455POPC   C3A33785  11.406  36.688   7.954
 2455POPC   C4A33786  11.070  36.684   7.667
 2455POPC   C1B33787  11.133  37.057   8.688
 2455POPC   C2B33788  11.387  37.168   8.343
 2455POPC   C3B33789  11.500  37.222   7.941
 2455POPC   C4B33790  11.257  37.152   7.624
 2456POPC   NC333791  32.474   9.253   9.513
 2456POPC   PO433792  33.087   8.844   9.520
 2456POPC   GL133793  33.008   9.126   9.229
 2456POPC   GL233794  33.347   9.143   9.096
 2456POPC   C1A33795  32.724   9.144   8.888
 2456POPC   D2A33796  32.805   9.234   8.470
 2456POPC   C3A33797  32.768   8.956   8.132
 2456POPC   C4A33798  32.894   9.116   7.734
 2456POPC   C1B33799  33.155   8.910   8.750
 2456POPC   C2B33800  33.170   8.712   8.331
 2456POPC   C3B33801  33.304   8.922   7.949
 2456POPC   C4B33802  33.289   8.895   7.482
 2457POPC   NC333803   7.721  27.304   9.545
 2457POPC   PO433804   7.406  27.892   9.503
 2457POPC   GL133805   7.335  27.745   9.046
 2457POPC   GL233806   7.425  27.396   9.096
 2457POPC   C1A33807   7.099  27.478   8.725
 2457POPC   D2A33808   7.059  27.364   8.286
 2457POPC   C3A33809   7.102  27.735   7.995
 2457POPC   C4A33810   7.453  27.781   7.746
 2457POPC   C1B33811   7.630  27.499   8.698
 2457POPC   C2B33812   7.524  27.616   8.287
 2457POPC   C3B33813   7.456  27.328   7.952
 2457POPC   C4B33814   7.468  27.316   7.494
 2458POPC   NC333815  42.853  44.315   9.325
 2458POPC   PO433816  43.160  43.732   9.446
 2458POPC   GL133817  43.008  43.899   9.071
 2458POPC   GL233818  42.640  43.875   9.142
 2458POPC   C1A33819  43.185  43.942   8.635
 2458POPC   D2A33820  43.474  43.854   8.269
 2458POPC   C3A33821  43.338  43.910   7.813
 2458POPC   C4A33822  43.382  43.935   7.345
 2458POPC   C1B33823  42.714  43.687   8.724
 2458POPC   C2B33824  42.755  43.901   8.325
 2458POPC   C3B33825  42.821  43.769   7.913
 2458POPC   C4B33826  42.879  43.985   7.536
 2459POPC   NC333827  40.622  27.400   9.542
 2459POPC   PO433828  40.955  27.974   9.457
 2459POPC   GL133829  40.759  27.737   9.120
 2459POPC   GL233830  40.588  27.412   9.047
 2459POPC   C1A33831  40.629  27.807   8.709
 2459POPC   D2A33832  40.720  27.578   8.353
 2459POPC   C3A33833  40.750  27.789   7.981
 2459POPC   C4A33834  40.498  27.755   7.650
 2459POPC   C1B33835  40.373  27.351   8.677
 2459POPC   C2B33836  40.478  27.132   8.291
 2459POPC   C3B33837  40.651  27.270   7.894
 2459POPC   C4B33838  40.496  27.267   7.470
 2460POPC   NC333839   3.574  20.586   9.758
 2460POPC   PO433840   3.664  20.826   9.177
 2460POPC   GL133841   3.396  20.509   9.172
 2460POPC   GL233842   3.143  20.735   9.303
 2460POPC   C1A33843   3.373  20.373   8.743
 2460POPC   D2A33844   3.571  20.600   8.410
 2460POPC   C3A33845   3.849  20.481   8.095
 2460POPC   C4A33846   3.988  20.446   7.708
 2460POPC   C1B33847   3.024  20.713   8.885
 2460POPC   C2B33848   3.056  20.623   8.441
 2460POPC   C3B33849   3.233  20.681   8.017
 2460POPC   C4B33850   3.063  20.680   7.578
 2461POPC   NC333851  10.521  11.982   9.543
 2461POPC   PO433852   9.836  11.958   9.467
 2461POPC   GL133853  10.205  11.869   9.138
 2461POPC   GL233854  10.543  11.649   9.097
 2461POPC   C1A33855  10.555  12.063   8.828
 2461POPC   D2A33856  10.759  12.022   8.387
 2461POPC   C3A33857  10.811  12.310   8.024
 2461POPC   C4A33858  10.798  12.486   7.613
 2461POPC   C1B33859  10.753  11.588   8.704
 2461POPC   C2B33860  10.611  11.550   8.269
 2461POPC   C3B33861  10.718  11.822   7.893
 2461POPC   C4B33862  10.546  12.043   7.522
 2462POPC   NC333863  28.090  44.906   9.541
 2462POPC   PO433864  27.521  44.552   9.463
 2462POPC   GL133865  27.815  44.706   9.180
 2462POPC   GL233866  27.971  44.450   9.097
 2462POPC   C1A33867  27.950  44.843   8.781
 2462POPC   D2A33868  27.712  44.981   8.447
 2462POPC   C3A33869  27.891   0.050   8.073
 2462POPC   C4A33870  27.684  44.851   7.730
 2462POPC   C1B33871  27.583  44.464   8.789
 2462POPC   C2B33872  27.407  44.544   8.377
 2462POPC   C3B33873  27.515  44.403   7.945
 2462POPC   C4B33874  27.545  44.176   7.535
 2463POPC   NC333875   1.743  34.079   9.549
 2463POPC   PO433876   2.167  33.647   9.361
 2463POPC   GL133877   2.052  33.998   9.134
 2463POPC   GL233878   1.684  33.912   9.066
 2463POPC   C1A33879   1.983  34.154   8.737
 2463POPC   D2A33880   1.779  34.070   8.347
 2463POPC   C3A33881   2.074  34.041   8.029
 2463POPC   C4A33882   2.242  33.637   7.896
 2463POPC   C1B33883   1.515  33.557   8.779
 2463POPC   C2B33884   1.595  33.374   8.373
 2463POPC   C3B33885   1.708  33.630   8.014
 2463POPC   C4B33886   1.461  33.686   7.667
 2464POPC   NC333887  33.905  35.271   9.647
 2464POPC   PO433888  33.310  35.536   9.548
 2464POPC   GL133889  33.594  35.412   9.218
 2464POPC   GL233890  33.802  35.109   9.163
 2464POPC   C1A33891  33.831  35.435   8.802
 2464POPC   D2A33892  33.951  35.395   8.384
 2464POPC   C3A33893  33.630  35.558   8.107
 2464POPC   C4A33894  33.808  35.412   7.754
 2464POPC   C1B33895  33.425  35.077   8.889
 2464POPC   C2B33896  33.441  35.267   8.487
 2464POPC   C3B33897  33.607  35.042   8.092
 2464POPC   C4B33898  33.654  34.953   7.630
 2465POPC   NC333899  21.818  21.692   9.267
 2465POPC   PO433900  22.468  21.785   9.555
 2465POPC   GL133901  22.496  21.476   9.170
 2465POPC   GL233902  22.132  21.298   9.134
 2465POPC   C1A33903  22.403  21.346   8.717
 2465POPC   D2A33904  22.431  21.192   8.305
 2465POPC   C3A33905  22.261  21.445   8.004
 2465POPC   C4A33906  22.337  21.318   7.603
 2465POPC   C1B33907  21.939  21.121   8.746
 2465POPC   C2B33908  21.881  21.143   8.287
 2465POPC   C3B33909  21.978  21.056   7.858
 2465POPC   C4B33910  21.902  21.182   7.384
 2466POPC   NC333911  13.246  14.375   9.604
 2466POPC   PO433912  12.639  14.707   9.540
 2466POPC   GL133913  12.908  14.575   9.243
 2466POPC   GL233914  12.852  14.227   9.178
 2466POPC   C1A33915  12.964  14.551   8.806
 2466POPC   D2A33916  12.673  14.525   8.485
 2466POPC   C3A33917  12.811  14.640   8.103
 2466POPC   C4A33918  12.587  14.693   7.748
 2466POPC   C1B33919  12.655  14.097   8.770
 2466POPC   C2B33920  12.743  14.061   8.303
 2466POPC   C3B33921  12.795  14.186   7.853
 2466POPC   C4B33922  13.056  14.062   7.514
 2467POPC   NC333923  21.601  12.564   9.375
 2467POPC   PO433924  21.435  11.856   9.454
 2467POPC   GL133925  21.497  12.138   9.121
 2467POPC   GL233926  21.212  12.057   9.028
 2467POPC   C1A33927  21.540  12.366   8.709
 2467POPC   D2A33928  21.837  12.453   8.367
 2467POPC   C3A33929  21.740  12.185   8.025
 2467POPC   C4A33930  21.404  12.047   7.793
 2467POPC   C1B33931  21.248  11.928   8.625
 2467POPC   C2B33932  21.142  12.145   8.245
 2467POPC   C3B33933  20.961  11.849   7.959
 2467POPC   C4B33934  21.190  11.553   7.790
 2468POPC   NC333935  37.180  40.368   9.926
 2468POPC   PO433936  37.516  40.871   9.574
 2468POPC   GL133937  37.586  40.649   9.177
 2468POPC   GL233938  37.326  40.726   8.976
 2468POPC   C1A33939  37.851  40.693   8.833
 2468POPC   D2A33940  37.790  40.922   8.471
 2468POPC   C3A33941  37.865  40.754   8.090
 2468POPC   C4A33942  38.146  40.968   7.814
 2468POPC   C1B33943  37.364  41.082   8.715
 2468POPC   C2B33944  37.329  41.058   8.270
 2468POPC   C3B33945  37.443  40.923   7.852
 2468POPC   C4B33946  37.319  41.152   7.509
 2469POPC   NC333947  25.392  37.527   9.567
 2469POPC   PO433948  24.882  37.977   9.556
 2469POPC   GL133949  25.179  37.866   9.215
 2469POPC   GL233950  25.501  37.958   9.261
 2469POPC   C1A33951  25.118  37.619   8.824
 2469POPC   D2A33952  25.009  37.741   8.390
 2469POPC   C3A33953  25.254  37.601   8.037
 2469POPC   C4A33954  25.004  37.725   7.735
 2469POPC   C1B33955  25.585  38.183   8.862
 2469POPC   C2B33956  25.808  38.106   8.477
 2469POPC   C3B33957  25.658  38.002   8.063
 2469POPC   C4B33958  25.613  38.281   7.722
 2470POPC   NC333959  21.273  12.943   9.681
 2470POPC   PO433960  21.825  12.957   9.282
 2470POPC   GL133961  21.524  12.844   8.974
 2470POPC   GL233962  21.236  12.607   9.037
 2470POPC   C1A33963  21.581  12.875   8.598
 2470POPC   D2A33964  21.433  12.737   8.244
 2470POPC   C3A33965  21.671  12.772   7.896
 2470POPC   C4A33966  21.563  12.856   7.476
 2470POPC   C1B33967  21.092  12.686   8.630
 2470POPC   C2B33968  20.993  12.991   8.289
 2470POPC   C3B33969  21.087  12.902   7.863
 2470POPC   C4B33970  21.234  12.508   7.840
 2471POPC   NC333971  30.739  17.322  10.118
 2471POPC   PO433972  30.733  17.876   9.652
 2471POPC   GL133973  30.873  17.680   9.264
 2471POPC   GL233974  30.541  17.716   9.177
 2471POPC   C1A33975  30.838  17.545   8.771
 2471POPC   D2A33976  31.063  17.468   8.337
 2471POPC   C3A33977  30.931  17.404   7.876
 2471POPC   C4A33978  30.613  17.215   7.585
 2471POPC   C1B33979  30.518  17.969   8.799
 2471POPC   C2B33980  30.532  17.774   8.414
 2471POPC   C3B33981  30.463  17.609   8.018
 2471POPC   C4B33982  30.607  17.723   7.645
 2472POPC   NC333983  24.276   7.176   9.536
 2472POPC   PO433984  24.723   7.661   9.459
 2472POPC   GL133985  24.439   7.501   9.142
 2472POPC   GL233986  24.525   7.169   9.109
 2472POPC   C1A33987  24.602   7.475   8.710
 2472POPC   D2A33988  24.990   7.600   8.536
 2472POPC   C3A33989  24.912   7.783   8.122
 2472POPC   C4A33990  24.694   7.621   7.778
 2472POPC   C1B33991  24.378   7.014   8.745
 2472POPC   C2B33992  24.315   7.198   8.326
 2472POPC   C3B33993  24.432   7.179   7.898
 2472POPC   C4B33994  24.402   6.954   7.503
 2473POPC   NC333995  27.870  41.084   9.274
 2473POPC   PO433996  28.345  40.835   9.594
 2473POPC   GL133997  28.508  40.792   9.124
 2473POPC   GL233998  28.207  40.683   9.086
 2473POPC   C1A33999  28.432  40.921   8.679
 2473POPC   D2A34000  28.252  40.771   8.314
 2473POPC   C3A34001  28.401  40.860   7.902
 2473POPC   C4A34002  28.569  40.699   7.493
 2473POPC   C1B34003  28.094  40.405   8.750
 2473POPC   C2B34004  27.959  40.365   8.333
 2473POPC   C3B34005  28.221  40.395   7.967
 2473POPC   C4B34006  28.067  40.566   7.584
 2474POPC   NC334007  33.613   7.463   9.468
 2474POPC   PO434008  34.298   7.452   9.471
 2474POPC   GL134009  34.018   7.499   9.116
 2474POPC   GL234010  33.806   7.195   9.089
 2474POPC   C1A34011  34.039   7.397   8.687
 2474POPC   D2A34012  33.811   7.180   8.418
 2474POPC   C3A34013  33.799   7.403   8.063
 2474POPC   C4A34014  34.071   7.657   7.833
 2474POPC   C1B34015  33.546   7.425   8.779
 2474POPC   C2B34016  33.286   7.537   8.430
 2474POPC   C3B34017  33.335   7.779   8.076
 2474POPC   C4B34018  33.569   7.695   7.730
 2475POPC   NC334019  13.120  40.233   9.665
 2475POPC   PO434020  12.586  39.930   9.488
 2475POPC   GL134021  12.741  39.924   9.104
 2475POPC   GL234022  13.030  39.774   9.225
 2475POPC   C1A34023  12.613  39.772   8.691
 2475POPC   D2A34024  12.409  39.922   8.305
 2475POPC   C3A34025  12.745  40.036   8.049
 2475POPC   C4A34026  12.863  39.982   7.649
 2475POPC   C1B34027  13.109  39.640   8.801
 2475POPC   C2B34028  13.028  39.796   8.391
 2475POPC   C3B34029  13.108  39.651   7.962
 2475POPC   C4B34030  13.221  39.583   7.516
 2476POPC   NC334031  35.460   7.277   9.572
 2476POPC   PO434032  35.092   7.818   9.674
 2476POPC   GL134033  35.219   7.731   9.211
 2476POPC   GL234034  35.530   7.555   9.155
 2476POPC   C1A34035  35.252   7.588   8.741
 2476POPC   D2A34036  35.214   7.222   8.450
 2476POPC   C3A34037  35.085   7.319   8.009
 2476POPC   C4A34038  35.221   7.656   7.706
 2476POPC   C1B34039  35.560   7.145   8.906
 2476POPC   C2B34040  35.673   6.966   8.521
 2476POPC   C3B34041  35.822   7.257   8.247
 2476POPC   C4B34042  35.664   7.346   7.850
 2477POPC   NC334043   8.284  31.773   9.555
 2477POPC   PO434044   7.827  32.210   9.543
 2477POPC   GL134045   7.828  32.235   9.133
 2477POPC   GL234046   8.182  32.104   9.123
 2477POPC   C1A34047   7.843  32.217   8.700
 2477POPC   D2A34048   8.150  32.251   8.379
 2477POPC   C3A34049   8.030  32.458   8.012
 2477POPC   C4A34050   8.062  32.378   7.580
 2477POPC   C1B34051   8.269  31.889   8.734
 2477POPC   C2B34052   8.404  31.793   8.324
 2477POPC   C3B34053   8.335  32.006   7.933
 2477POPC   C4B34054   8.247  31.799   7.557
 2478POPC   NC334055  15.462  24.485   9.560
 2478POPC   PO434056  16.089  24.163   9.497
 2478POPC   GL134057  16.261  24.262   9.149
 2478POPC   GL234058  16.080  24.592   9.124
 2478POPC   C1A34059  16.146  24.170   8.763
 2478POPC   D2A34060  16.187  24.314   8.367
 2478POPC   C3A34061  16.285  24.106   7.997
 2478POPC   C4A34062  16.024  24.261   7.691
 2478POPC   C1B34063  15.800  24.562   8.756
 2478POPC   C2B34064  15.686  24.597   8.307
 2478POPC   C3B34065  15.753  24.686   7.868
 2478POPC   C4B34066  15.504  24.856   7.531
 2479POPC   NC334067   9.401  34.944   9.181
 2479POPC   PO434068   9.397  34.381   9.455
 2479POPC   GL134069   9.742  34.516   9.128
 2479POPC   GL234070  10.085  34.642   9.001
 2479POPC   C1A34071   9.751  34.530   8.667
 2479POPC   D2A34072   9.465  34.548   8.376
 2479POPC   C3A34073   9.705  34.355   8.071
 2479POPC   C4A34074   9.651  34.420   7.663
 2479POPC   C1B34075   9.956  34.996   8.756
 2479POPC   C2B34076   9.626  35.027   8.496
 2479POPC   C3B34077   9.746  34.876   8.089
 2479POPC   C4B34078  10.045  34.717   7.799
 2480POPC   NC334079   1.022  21.702   9.356
 2480POPC   PO434080   1.304  22.246   9.669
 2480POPC   GL134081   1.286  22.375   9.218
 2480POPC   GL234082   1.169  22.076   9.051
 2480POPC   C1A34083   1.268  22.477   8.769
 2480POPC   D2A34084   1.145  22.211   8.410
 2480POPC   C3A34085   1.035  22.348   8.009
 2480POPC   C4A34086   1.128  22.435   7.589
 2480POPC   C1B34087   1.122  21.760   8.711
 2480POPC   C2B34088   1.194  21.718   8.294
 2480POPC   C3B34089   1.420  21.964   8.022
 2480POPC   C4B34090   1.143  21.928   7.684
 2481POPC   NC334091  33.915  21.834   9.402
 2481POPC   PO434092  33.377  22.070   9.725
 2481POPC   GL134093  33.640  22.194   9.215
 2481POPC   GL234094  33.524  22.471   9.015
 2481POPC   C1A34095  33.676  21.997   8.769
 2481POPC   D2A34096  34.004  21.913   8.438
 2481POPC   C3A34097  33.926  22.036   8.024
 2481POPC   C4A34098  33.613  21.853   7.805
 2481POPC   C1B34099  33.454  22.565   8.592
 2481POPC   C2B34100  33.523  22.236   8.277
 2481POPC   C3B34101  33.558  22.362   7.845
 2481POPC   C4B34102  33.458  22.775   7.867
 2482POPC   NC334103  18.637  28.975   9.309
 2482POPC   PO434104  18.005  29.416   9.487
 2482POPC   GL134105  18.170  29.170   9.166
 2482POPC   GL234106  18.177  28.829   9.186
 2482POPC   C1A34107  18.302  29.218   8.768
 2482POPC   D2A34108  18.341  29.458   8.419
 2482POPC   C3A34109  18.305  29.243   8.068
 2482POPC   C4A34110  18.127  29.150   7.733
 2482POPC   C1B34111  18.367  28.692   8.789
 2482POPC   C2B34112  18.481  28.901   8.412
 2482POPC   C3B34113  18.433  28.685   8.001
 2482POPC   C4B34114  18.360  28.757   7.550
 2483POPC   NC334115  15.434  40.488   9.513
 2483POPC   PO434116  14.837  40.736   9.435
 2483POPC   GL134117  14.931  40.576   9.064
 2483POPC   GL234118  15.296  40.603   9.035
 2483POPC   C1A34119  14.916  40.696   8.636
 2483POPC   D2A34120  14.847  40.474   8.279
 2483POPC   C3A34121  15.095  40.623   7.963
 2483POPC   C4A34122  15.427  40.602   7.673
 2483POPC   C1B34123  15.409  40.826   8.693
 2483POPC   C2B34124  15.232  40.982   8.319
 2483POPC   C3B34125  15.381  41.077   7.912
 2483POPC   C4B34126  15.449  41.172   7.463
 2484POPC   NC334127  13.827  14.317   9.353
 2484POPC   PO434128  13.447  14.807   9.574
 2484POPC   GL134129  13.397  14.659   9.157
 2484POPC   GL234130  13.357  14.285   9.124
 2484POPC   C1A34131  13.477  14.569   8.732
 2484POPC   D2A34132  13.839  14.527   8.534
 2484POPC   C3A34133  13.696  14.570   8.106
 2484POPC   C4A34134  13.921  14.560   7.743
 2484POPC   C1B34135  13.173  14.092   8.758
 2484POPC   C2B34136  13.202  14.312   8.362
 2484POPC   C3B34137  13.320  14.247   7.935
 2484POPC   C4B34138  13.518  14.275   7.524
 2485POPC   NC334139  25.202   2.961   9.726
 2485POPC   PO434140  25.699   3.395   9.520
 2485POPC   GL134141  25.513   3.555   9.083
 2485POPC   GL234142  25.152   3.673   9.079
 2485POPC   C1A34143  25.432   3.650   8.666
 2485POPC   D2A34144  25.105   3.643   8.398
 2485POPC   C3A34145  25.321   3.600   8.031
 2485POPC   C4A34146  25.227   3.428   7.639
 2485POPC   C1B34147  25.046   3.990   8.805
 2485POPC   C2B34148  24.895   4.165   8.469
 2485POPC   C3B34149  24.952   4.037   8.101
 2485POPC   C4B34150  25.056   3.897   7.725
 2486POPC   NC334151  33.008  36.926   9.546
 2486POPC   PO434152  32.511  37.244   9.238
 2486POPC   GL134153  32.835  36.945   9.062
 2486POPC   GL234154  33.222  36.981   9.081
 2486POPC   C1A34155  32.998  36.828   8.645
 2486POPC   D2A34156  32.793  36.826   8.243
 2486POPC   C3A34157  32.837  37.113   7.898
 2486POPC   C4A34158  32.935  36.682   7.696
 2486POPC   C1B34159  33.463  37.136   8.694
 2486POPC   C2B34160  33.509  36.935   8.313
 2486POPC   C3B34161  33.289  36.945   7.991
 2486POPC   C4B34162  33.245  37.050   7.578
 2487POPC   NC334163  31.604  34.911   9.553
 2487POPC   PO434164  31.661  34.226   9.436
 2487POPC   GL134165  31.537  34.446   9.068
 2487POPC   GL234166  31.585  34.816   9.058
 2487POPC   C1A34167  31.431  34.345   8.643
 2487POPC   D2A34168  31.385  34.615   8.299
 2487POPC   C3A34169  31.580  34.582   7.898
 2487POPC   C4A34170  31.335  34.504   7.526
 2487POPC   C1B34171  31.240  34.813   8.766
 2487POPC   C2B34172  30.945  34.876   8.452
 2487POPC   C3B34173  30.962  34.748   8.038
 2487POPC   C4B34174  30.925  34.814   7.623
 2488POPC   NC334175  38.384  16.827   9.942
 2488POPC   PO434176  38.204  16.946   9.333
 2488POPC   GL134177  38.395  16.740   9.022
 2488POPC   GL234178  38.197  16.418   8.957
 2488POPC   C1A34179  38.743  16.755   8.763
 2488POPC   D2A34180  38.927  16.893   8.387
 2488POPC   C3A34181  38.611  16.955   8.116
 2488POPC   C4A34182  38.478  16.742   7.803
 2488POPC   C1B34183  38.097  16.709   8.626
 2488POPC   C2B34184  38.128  16.776   8.183
 2488POPC   C3B34185  37.970  16.694   7.760
 2488POPC   C4B34186  37.911  16.494   7.363
 2489POPC   NC334187  23.210  29.805   9.850
 2489POPC   PO434188  23.192  29.160   9.551
 2489POPC   GL134189  23.010  29.079   9.156
 2489POPC   GL234190  22.753  28.886   9.179
 2489POPC   C1A34191  23.081  28.994   8.745
 2489POPC   D2A34192  23.225  29.162   8.381
 2489POPC   C3A34193  23.126  28.904   8.033
 2489POPC   C4A34194  23.117  29.072   7.633
 2489POPC   C1B34195  22.582  28.967   8.752
 2489POPC   C2B34196  22.711  29.072   8.344
 2489POPC   C3B34197  22.702  29.194   7.907
 2489POPC   C4B34198  22.711  29.584   7.727
 2490POPC   NC334199  43.245  29.156   9.501
 2490POPC   PO434200  42.633  28.839   9.471
 2490POPC   GL134201  42.890  29.061   9.161
 2490POPC   GL234202  43.107  28.811   9.134
 2490POPC   C1A34203  43.132  29.250   8.812
 2490POPC   D2A34204  43.278  29.399   8.414
 2490POPC   C3A34205  43.194  29.216   8.039
 2490POPC   C4A34206  42.988  29.208   7.648
 2490POPC   C1B34207  43.315  28.772   8.774
 2490POPC   C2B34208  43.420  28.864   8.372
 2490POPC   C3B34209  43.384  28.666   8.027
 2490POPC   C4B34210  43.321  28.839   7.675
 2491POPC   NC334211  11.000  12.839   9.538
 2491POPC   PO434212  11.543  12.460   9.339
 2491POPC   GL134213  11.330  12.851   9.108
 2491POPC   GL234214  11.068  13.131   9.140
 2491POPC   C1A34215  11.373  13.034   8.716
 2491POPC   D2A34216  11.263  12.787   8.402
 2491POPC   C3A34217  11.371  12.877   8.021
 2491POPC   C4A34218  11.279  12.516   7.772
 2491POPC   C1B34219  10.864  13.012   8.768
 2491POPC   C2B34220  10.971  13.212   8.384
 2491POPC   C3B34221  10.895  13.234   7.972
 2491POPC   C4B34222  11.020  12.964   7.682
 2492POPC   NC334223  22.146  32.194   9.927
 2492POPC   PO434224  22.636  32.506   9.503
 2492POPC   GL134225  22.233  32.399   9.250
 2492POPC   GL234226  22.117  32.056   9.245
 2492POPC   C1A34227  22.018  32.323   8.814
 2492POPC   D2A34228  22.221  32.321   8.380
 2492POPC   C3A34229  22.115  32.177   7.933
 2492POPC   C4A34230  21.967  32.327   7.510
 2492POPC   C1B34231  22.318  31.881   8.861
 2492POPC   C2B34232  22.356  31.801   8.397
 2492POPC   C3B34233  22.218  31.662   7.966
 2492POPC   C4B34234  22.174  31.836   7.523
 2493POPC   NC334235  26.350  30.618   9.835
 2493POPC   PO434236  26.972  30.596   9.533
 2493POPC   GL134237  26.907  30.625   9.131
 2493POPC   GL234238  26.984  30.345   9.077
 2493POPC   C1A34239  26.630  30.660   8.776
 2493POPC   D2A34240  26.593  30.870   8.361
 2493POPC   C3A34241  26.546  30.624   8.030
 2493POPC   C4A34242  26.664  30.605   7.634
 2493POPC   C1B34243  27.114  30.599   8.676
 2493POPC   C2B34244  27.060  30.671   8.239
 2493POPC   C3B34245  26.959  30.341   7.949
 2493POPC   C4B34246  27.085  30.286   7.539
 2494POPC   NC334247  11.435  18.675   9.441
 2494POPC   PO434248  11.634  18.049   9.490
 2494POPC   GL134249  11.505  18.260   9.090
 2494POPC   GL234250  11.272  18.541   8.973
 2494POPC   C1A34251  11.455  18.163   8.650
 2494POPC   D2A34252  11.173  18.122   8.301
 2494POPC   C3A34253  11.365  18.183   7.925
 2494POPC   C4A34254  11.295  18.171   7.497
 2494POPC   C1B34255  11.219  18.614   8.505
 2494POPC   C2B34256  11.005  18.563   8.088
 2494POPC   C3B34257  10.873  18.246   7.759
 2494POPC   C4B34258  10.874  17.866   7.438
 2495POPC   NC334259   2.776   1.045   9.401
 2495POPC   PO434260   2.430   1.655   9.457
 2495POPC   GL134261   2.758   1.485   9.137
 2495POPC   GL234262   3.129   1.571   9.149
 2495POPC   C1A34263   2.974   1.153   8.806
 2495POPC   D2A34264   2.783   0.965   8.435
 2495POPC   C3A34265   2.941   1.057   8.034
 2495POPC   C4A34266   2.515   1.112   7.812
 2495POPC   C1B34267   2.994   1.645   8.732
 2495POPC   C2B34268   2.945   1.462   8.357
 2495POPC   C3B34269   2.785   1.521   7.964
 2495POPC   C4B34270   2.889   1.345   7.560
 2496POPC   NC334271  13.314  23.209   9.610
 2496POPC   PO434272  13.473  22.535   9.504
 2496POPC   GL134273  13.564  22.797   9.152
 2496POPC   GL234274  13.317  23.015   9.107
 2496POPC   C1A34275  13.572  22.896   8.690
 2496POPC   D2A34276  13.875  23.142   8.463
 2496POPC   C3A34277  14.038  23.027   8.061
 2496POPC   C4A34278  13.853  23.072   7.636
 2496POPC   C1B34279  13.207  23.255   8.698
 2496POPC   C2B34280  13.125  23.099   8.369
 2496POPC   C3B34281  13.456  22.963   8.155
 2496POPC   C4B34282  13.378  22.952   7.752
 2497POPC   NC334283   2.720   5.422   9.619
 2497POPC   PO434284   2.417   4.891   9.474
 2497POPC   GL134285   2.598   5.159   9.187
 2497POPC   GL234286   2.372   5.491   9.206
 2497POPC   C1A34287   2.864   5.076   8.811
 2497POPC   D2A34288   3.057   5.212   8.425
 2497POPC   C3A34289   2.863   5.046   8.062
 2497POPC   C4A34290   3.152   5.087   7.766
 2497POPC   C1B34291   2.529   5.463   8.803
 2497POPC   C2B34292   2.550   5.301   8.410
 2497POPC   C3B34293   2.531   5.472   8.035
 2497POPC   C4B34294   2.394   5.308   7.683
 2498POPC   NC334295  41.786  36.286   9.425
 2498POPC   PO434296  41.113  36.520   9.484
 2498POPC   GL134297  41.377  36.385   9.142
 2498POPC   GL234298  41.417  36.007   9.156
 2498POPC   C1A34299  41.524  36.320   8.716
 2498POPC   D2A34300  41.406  36.101   8.361
 2498POPC   C3A34301  41.448  36.325   8.003
 2498POPC   C4A34302  41.590  36.177   7.636
 2498POPC   C1B34303  41.634  35.819   8.786
 2498POPC   C2B34304  41.685  35.657   8.375
 2498POPC   C3B34305  41.650  35.800   7.967
 2498POPC   C4B34306  41.401  35.673   7.593
 2499POPC   NC334307  22.641   5.069   9.587
 2499POPC   PO434308  23.304   5.304   9.504
 2499POPC   GL134309  23.038   5.086   9.214
 2499POPC   GL234310  23.328   4.999   9.055
 2499POPC   C1A34311  22.908   4.889   8.787
 2499POPC   D2A34312  23.049   4.872   8.331
 2499POPC   C3A34313  22.787   4.906   7.925
 2499POPC   C4A34314  22.711   4.881   7.467
 2499POPC   C1B34315  23.249   5.304   8.743
 2499POPC   C2B34316  23.431   5.327   8.335
 2499POPC   C3B34317  23.320   5.469   7.931
 2499POPC   C4B34318  22.977   5.326   7.693
 2500POPC   NC334319   4.781  19.066   9.538
 2500POPC   PO434320   5.103  19.555   9.515
 2500POPC   GL134321   4.959  19.347   9.104
 2500POPC   GL234322   4.856  18.985   9.044
 2500POPC   C1A34323   5.124  19.225   8.666
 2500POPC   D2A34324   5.346  19.335   8.257
 2500POPC   C3A34325   5.137  19.267   7.847
 2500POPC   C4A34326   5.146  19.004   7.472
 2500POPC   C1B34327   4.642  19.009   8.634
 2500POPC   C2B34328   4.834  19.008   8.208
 2500POPC   C3B34329   4.741  18.824   7.794
 2500POPC   C4B34330   4.689  18.799   7.327
 2501POPC   NC334331  10.351   3.358   9.681
 2501POPC   PO434332  10.831   3.616   9.408
 2501POPC   GL134333  10.658   3.653   9.066
 2501POPC   GL234334  10.288   3.663   9.200
 2501POPC   C1A34335  10.976   3.775   8.754
 2501POPC   D2A34336  10.856   3.851   8.357
 2501POPC   C3A34337  10.797   3.435   8.214
 2501POPC   C4A34338  10.756   3.559   7.824
 2501POPC   C1B34339  10.256   3.549   8.760
 2501POPC   C2B34340  10.351   3.666   8.327
 2501POPC   C3B34341  10.160   3.685   7.927
 2501POPC   C4B34342  10.222   3.549   7.502
 2502POPC   NC334343   1.388  28.730   9.546
 2502POPC   PO434344   1.345  29.430   9.497
 2502POPC   GL134345   1.259  29.122   9.207
 2502POPC   GL234346   1.584  29.018   9.149
 2502POPC   C1A34347   1.193  29.048   8.758
 2502POPC   D2A34348   1.036  29.227   8.357
 2502POPC   C3A34349   1.108  29.307   7.904
 2502POPC   C4A34350   0.881  29.419   7.520
 2502POPC   C1B34351   1.691  28.875   8.763
 2502POPC   C2B34352   1.501  28.927   8.354
 2502POPC   C3B34353   1.392  28.851   7.952
 2502POPC   C4B34354   1.596  28.950   7.615
 2503POPC   NC334355  40.269  33.948   9.483
 2503POPC   PO434356  39.855  33.441   9.452
 2503POPC   GL134357  39.982  33.704   9.119
 2503POPC   GL234358  40.325  33.570   9.138
 2503POPC   C1A34359  39.976  34.061   8.781
 2503POPC   D2A34360  40.163  34.092   8.341
 2503POPC   C3A34361  39.959  34.001   7.936
 2503POPC   C4A34362  40.076  33.904   7.481
 2503POPC   C1B34363  40.392  33.785   8.741
 2503POPC   C2B34364  40.355  33.613   8.306
 2503POPC   C3B34365  40.321  33.640   7.847
 2503POPC   C4B34366  40.215  33.424   7.426
 2504POPC   NC334367   0.189  22.758   9.701
 2504POPC   PO434368   0.874  23.103   9.707
 2504POPC   GL134369   0.605  22.926   9.362
 2504POPC   GL234370   0.319  22.704   9.221
 2504POPC   C1A34371   0.557  23.094   8.960
 2504POPC   D2A34372   0.457  23.141   8.534
 2504POPC   C3A34373   0.249  22.840   8.292
 2504POPC   C4A34374   0.378  22.873   7.894
 2504POPC   C1B34375   0.368  22.632   8.773
 2504POPC   C2B34376   0.386  22.334   8.430
 2504POPC   C3B34377   0.496  22.372   8.005
 2504POPC   C4B34378   0.258  22.450   7.676
 2505POPC   NC334379  25.749   2.295   9.462
 2505POPC   PO434380  25.055   2.446   9.377
 2505POPC   GL134381  25.356   2.179   9.154
 2505POPC   GL234382  25.276   1.840   9.018
 2505POPC   C1A34383  25.499   2.214   8.750
 2505POPC   D2A34384  25.442   2.397   8.368
 2505POPC   C3A34385  25.532   2.249   7.978
 2505POPC   C4A34386  25.111   2.216   7.809
 2505POPC   C1B34387  25.608   1.683   8.754
 2505POPC   C2B34388  25.592   1.870   8.369
 2505POPC   C3B34389  25.377   1.758   8.030
 2505POPC   C4B34390  25.549   1.810   7.672
 2506POPC   NC334391  24.979   2.910   9.289
 2506POPC   PO434392  25.578   2.703   9.628
 2506POPC   GL134393  25.445   2.713   9.201
 2506POPC   GL234394  25.440   3.064   9.167
 2506POPC   C1A34395  25.283   2.707   8.761
 2506POPC   D2A34396  25.364   2.922   8.378
 2506POPC   C3A34397  25.270   2.700   8.004
 2506POPC   C4A34398  25.454   2.703   7.651
 2506POPC   C1B34399  25.159   3.237   8.788
 2506POPC   C2B34400  24.886   3.157   8.436
 2506POPC   C3B34401  25.047   3.153   8.031
 2506POPC   C4B34402  25.017   2.964   7.627
 2507POPC   NC334403  19.138  43.412   9.439
 2507POPC   PO434404  19.047  42.755   9.495
 2507POPC   GL134405  19.023  42.991   9.159
 2507POPC   GL234406  18.739  43.162   9.231
 2507POPC   C1A34407  19.188  43.173   8.788
 2507POPC   D2A34408  19.364  43.084   8.423
 2507POPC   C3A34409  19.232  43.201   8.065
 2507POPC   C4A34410  19.467  43.243   7.717
 2507POPC   C1B34411  18.680  43.157   8.795
 2507POPC   C2B34412  18.848  43.004   8.381
 2507POPC   C3B34413  18.783  43.005   7.937
 2507POPC   C4B34414  18.941  43.334   7.638
 2508POPC   NC334415  25.387   4.790   9.476
 2508POPC   PO434416  24.834   5.326   9.445
 2508POPC   GL134417  25.159   5.151   9.189
 2508POPC   GL234418  24.948   4.831   9.208
 2508POPC   C1A34419  25.399   5.029   8.792
 2508POPC   D2A34420  25.489   4.793   8.377
 2508POPC   C3A34421  25.569   4.954   7.948
 2508POPC   C4A34422  25.511   5.131   7.547
 2508POPC   C1B34423  24.889   4.948   8.793
 2508POPC   C2B34424  25.074   5.163   8.431
 2508POPC   C3B34425  25.077   5.043   8.019
 2508POPC   C4B34426  24.834   4.890   7.680
 2509POPC   NC334427  26.953  10.854   9.422
 2509POPC   PO434428  26.645  11.456   9.760
 2509POPC   GL134429  26.534  11.250   9.291
 2509POPC   GL234430  26.859  11.217   9.076
 2509POPC   C1A34431  26.453  11.270   8.789
 2509POPC   D2A34432  26.241  11.520   8.432
 2509POPC   C3A34433  26.510  11.541   8.043
 2509POPC   C4A34434  26.728  11.203   7.820
 2509POPC   C1B34435  27.068  11.099   8.697
 2509POPC   C2B34436  26.960  11.046   8.266
 2509POPC   C3B34437  27.217  11.204   7.954
 2509POPC   C4B34438  27.066  11.593   7.870
 2510POPC   NC334439  40.782  36.008   9.555
 2510POPC   PO434440  40.505  36.584   9.576
 2510POPC   GL134441  40.577  36.295   9.180
 2510POPC   GL234442  40.903  36.212   9.115
 2510POPC   C1A34443  40.568  36.074   8.737
 2510POPC   D2A34444  40.621  36.225   8.301
 2510POPC   C3A34445  40.632  35.979   7.904
 2510POPC   C4A34446  40.452  36.275   7.620
 2510POPC   C1B34447  41.083  36.067   8.758
 2510POPC   C2B34448  40.969  35.863   8.380
 2510POPC   C3B34449  41.132  35.924   7.952
 2510POPC   C4B34450  41.010  36.059   7.517
 2511POPC   NC334451  42.779  33.357   9.473
 2511POPC   PO434452  43.205  32.745   9.514
 2511POPC   GL134453  43.093  33.017   9.186
 2511POPC   GL234454  42.735  32.926   9.151
 2511POPC   C1A34455  42.949  33.204   8.783
 2511POPC   D2A34456  42.936  33.274   8.328
 2511POPC   C3A34457  43.280  33.088   8.137
 2511POPC   C4A34458  43.246  32.966   7.741
 2511POPC   C1B34459  42.892  32.691   8.832
 2511POPC   C2B34460  43.045  32.758   8.465
 2511POPC   C3B34461  42.969  32.663   8.050
 2511POPC   C4B34462  42.866  32.581   7.619
 2512POPC   NC334463  32.920  39.920   9.444
 2512POPC   PO434464  32.882  40.601   9.363
 2512POPC   GL134465  32.812  40.257   9.064
 2512POPC   GL234466  33.115  40.045   8.994
 2512POPC   C1A34467  32.716  40.072   8.672
 2512POPC   D2A34468  32.795  40.210   8.245
 2512POPC   C3A34469  32.852  39.895   7.900
 2512POPC   C4A34470  32.907  39.882   7.400
 2512POPC   C1B34471  33.217  40.253   8.603
 2512POPC   C2B34472  33.485  40.032   8.310
 2512POPC   C3B34473  33.529  39.788   7.962
 2512POPC   C4B34474  33.307  40.028   7.674
 2513POPC   NC334475  36.140  35.750   9.433
 2513POPC   PO434476  36.370  36.383   9.306
 2513POPC   GL134477  36.315  36.042   9.017
 2513POPC   GL234478  35.998  36.029   9.017
 2513POPC   C1A34479  36.223  36.013   8.551
 2513POPC   D2A34480  35.846  36.169   8.335
 2513POPC   C3A34481  35.850  36.409   7.979
 2513POPC   C4A34482  36.177  36.255   7.851
 2513POPC   C1B34483  35.755  35.824   8.721
 2513POPC   C2B34484  35.760  35.624   8.322
 2513POPC   C3B34485  35.964  35.807   7.971
 2513POPC   C4B34486  35.740  35.995   7.635
 2514POPC   NC334487  36.365  43.638   9.552
 2514POPC   PO434488  35.771  43.891   9.381
 2514POPC   GL134489  36.066  43.984   9.058
 2514POPC   GL234490  36.392  43.914   9.126
 2514POPC   C1A34491  35.985  44.031   8.627
 2514POPC   D2A34492  35.838  43.766   8.307
 2514POPC   C3A34493  36.000  43.917   7.932
 2514POPC   C4A34494  35.836  44.236   7.665
 2514POPC   C1B34495  36.340  43.657   8.759
 2514POPC   C2B34496  36.277  43.484   8.340
 2514POPC   C3B34497  36.432  43.603   7.868
 2514POPC   C4B34498  36.428  43.683   7.364
 2515POPC   NC334499  41.317  35.410   9.537
 2515POPC   PO434500  41.827  35.809   9.441
 2515POPC   GL134501  41.679  35.463   9.163
 2515POPC   GL234502  41.313  35.488   9.044
 2515POPC   C1A34503  41.672  35.276   8.741
 2515POPC   D2A34504  41.871  35.175   8.372
 2515POPC   C3A34505  41.660  35.268   7.997
 2515POPC   C4A34506  41.633  35.229   7.534
 2515POPC   C1B34507  41.166  35.187   8.723
 2515POPC   C2B34508  41.242  35.294   8.282
 2515POPC   C3B34509  41.178  35.199   7.826
 2515POPC   C4B34510  41.167  35.215   7.345
 2516POPC   NC334511  35.844  17.046   9.386
 2516POPC   PO434512  36.077  16.533   9.794
 2516POPC   GL134513  36.192  16.643   9.342
 2516POPC   GL234514  36.528  16.777   9.362
 2516POPC   C1A34515  36.074  16.681   8.870
 2516POPC   D2A34516  35.987  16.900   8.466
 2516POPC   C3A34517  36.119  16.605   8.147
 2516POPC   C4A34518  36.176  16.679   7.732
 2516POPC   C1B34519  36.521  16.920   8.919
 2516POPC   C2B34520  36.479  16.806   8.468
 2516POPC   C3B34521  36.389  17.030   8.043
 2516POPC   C4B34522  36.446  17.196   7.594
 2517POPC   NC334523  43.228  37.049   9.312
 2517POPC   PO434524  43.190  37.675   9.398
 2517POPC   GL134525  42.893  37.477   9.143
 2517POPC   GL234526  42.934  37.740   8.942
 2517POPC   C1A34527  42.946  37.244   8.748
 2517POPC   D2A34528  43.225  37.216   8.404
 2517POPC   C3A34529  43.048  37.461   8.069
 2517POPC   C4A34530  42.900  37.387   7.657
 2517POPC   C1B34531  43.289  37.645   8.711
 2517POPC   C2B34532  43.414  37.877   8.372
 2517POPC   C3B34533  43.196  37.962   8.019
 2517POPC   C4B34534  43.153  37.833   7.631
 2518POPC   NC334535   2.304  33.251   9.540
 2518POPC   PO434536   1.751  32.745   9.476
 2518POPC   GL134537   1.949  33.071   9.201
 2518POPC   GL234538   2.308  33.031   9.065
 2518POPC   C1A34539   1.922  33.220   8.781
 2518POPC   D2A34540   1.974  32.961   8.422
 2518POPC   C3A34541   1.957  33.170   8.042
 2518POPC   C4A34542   1.970  32.905   7.689
 2518POPC   C1B34543   2.369  32.715   8.719
 2518POPC   C2B34544   2.337  32.584   8.318
 2518POPC   C3B34545   2.369  32.888   8.006
 2518POPC   C4B34546   2.360  33.198   7.648
 2519POPC   NC334547   2.819  44.398   9.595
 2519POPC   PO434548   3.001  43.744   9.414
 2519POPC   GL134549   2.757  43.901   9.069
 2519POPC   GL234550   2.660  44.213   9.129
 2519POPC   C1A34551   2.702  43.869   8.642
 2519POPC   D2A34552   3.073  43.790   8.408
 2519POPC   C3A34553   2.958  43.901   8.014
 2519POPC   C4A34554   2.582  43.835   7.790
 2519POPC   C1B34555   2.449  44.294   8.762
 2519POPC   C2B34556   2.504  44.261   8.342
 2519POPC   C3B34557   2.604  44.300   7.935
 2519POPC   C4B34558   2.575  44.295   7.449
 2520POPC   NC334559   0.604  35.355   9.505
 2520POPC   PO434560   0.007  35.113   9.542
 2520POPC   GL134561   0.238  35.301   9.164
 2520POPC   GL234562   0.538  35.113   9.083
 2520POPC   C1A34563   0.176  35.465   8.744
 2520POPC   D2A34564   0.038  35.496   8.306
 2520POPC   C3A34565   0.349  35.562   7.961
 2520POPC   C4A34566   0.472  35.548   7.517
 2520POPC   C1B34567   0.369  34.985   8.719
 2520POPC   C2B34568   0.439  35.176   8.319
 2520POPC   C3B34569   0.555  35.008   7.938
 2520POPC   C4B34570   0.756  35.101   7.535
 2521POPC   NC334571  24.584  39.957   9.468
 2521POPC   PO434572  23.875  39.943   9.299
 2521POPC   GL134573  24.284  39.854   9.088
 2521POPC   GL234574  24.712  39.773   9.023
 2521POPC   C1A34575  24.413  40.077   8.750
 2521POPC   D2A34576  24.641  39.853   8.482
 2521POPC   C3A34577  24.468  39.857   8.105
 2521POPC   C4A34578  24.338  39.731   7.746
 2521POPC   C1B34579  24.933  40.126   8.815
 2521POPC   C2B34580  24.795  40.429   8.526
 2521POPC   C3B34581  24.776  40.264   8.134
 2521POPC   C4B34582  24.529  40.205   7.731
 2522POPC   NC334583  15.562  22.193   9.786
 2522POPC   PO434584  15.051  22.310   9.427
 2522POPC   GL134585  14.909  22.158   9.018
 2522POPC   GL234586  15.196  21.929   9.059
 2522POPC   C1A34587  15.009  21.867   8.604
 2522POPC   D2A34588  15.379  21.903   8.382
 2522POPC   C3A34589  15.297  22.103   7.972
 2522POPC   C4A34590  14.964  21.947   7.717
 2522POPC   C1B34591  15.328  22.243   8.764
 2522POPC   C2B34592  15.171  22.387   8.394
 2522POPC   C3B34593  15.391  22.635   8.102
 2522POPC   C4B34594  15.477  22.569   7.682
 2523POPC   NC334595   0.624  32.747   9.552
 2523POPC   PO434596  44.995  33.070   9.551
 2523POPC   GL134597   0.330  33.059   9.230
 2523POPC   GL234598   0.356  32.729   9.110
 2523POPC   C1A34599   0.600  33.144   8.851
 2523POPC   D2A34600   0.454  33.217   8.420
 2523POPC   C3A34601   0.642  33.126   8.059
 2523POPC   C4A34602   0.507  33.022   7.696
 2523POPC   C1B34603   0.215  32.831   8.707
 2523POPC   C2B34604   0.321  32.749   8.288
 2523POPC   C3B34605   0.156  32.709   7.900
 2523POPC   C4B34606  44.967  32.892   7.595
 2524POPC   NC334607  17.635  34.544   9.910
 2524POPC   PO434608  18.211  34.451   9.688
 2524POPC   GL134609  18.346  34.476   9.265
 2524POPC   GL234610  18.227  34.743   9.066
 2524POPC   C1A34611  18.452  34.334   8.863
 2524POPC   D2A34612  18.428  34.291   8.429
 2524POPC   C3A34613  18.226  34.589   8.180
 2524POPC   C4A34614  18.299  34.617   7.757
 2524POPC   C1B34615  18.024  34.609   8.669
 2524POPC   C2B34616  17.769  34.789   8.314
 2524POPC   C3B34617  17.960  34.961   7.926
 2524POPC   C4B34618  18.290  35.113   7.609
 2525POPC   NC334619  29.306  31.224   9.590
 2525POPC   PO434620  28.793  31.637   9.513
 2525POPC   GL134621  29.025  31.362   9.137
 2525POPC   GL234622  29.332  31.114   9.099
 2525POPC   C1A34623  29.238  31.474   8.700
 2525POPC   D2A34624  29.333  31.754   8.303
 2525POPC   C3A34625  29.350  31.589   7.860
 2525POPC   C4A34626  29.140  31.214   7.674
 2525POPC   C1B34627  29.081  30.983   8.746
 2525POPC   C2B34628  29.161  31.076   8.340
 2525POPC   C3B34629  29.478  31.137   8.055
 2525POPC   C4B34630  29.648  31.158   7.618
 2526POPC   NC334631  28.815  32.095   9.614
 2526POPC   PO434632  29.507  32.319   9.671
 2526POPC   GL134633  29.245  32.308   9.272
 2526POPC   GL234634  28.897  32.436   9.202
 2526POPC   C1A34635  29.287  32.335   8.801
 2526POPC   D2A34636  29.178  32.399   8.379
 2526POPC   C3A34637  29.297  32.171   8.001
 2526POPC   C4A34638  28.955  31.921   7.797
 2526POPC   C1B34639  28.792  32.553   8.760
 2526POPC   C2B34640  28.657  32.604   8.340
 2526POPC   C3B34641  28.853  32.420   7.987
 2526POPC   C4B34642  29.012  32.375   7.566
 2527POPC   NC334643  12.979  18.623   9.721
 2527POPC   PO434644  12.852  18.013   9.431
 2527POPC   GL134645  12.886  18.188   9.071
 2527POPC   GL234646  13.208  18.266   9.141
 2527POPC   C1A34647  12.750  18.219   8.665
 2527POPC   D2A34648  12.533  18.302   8.316
 2527POPC   C3A34649  12.705  18.218   7.937
 2527POPC   C4A34650  12.564  17.864   7.731
 2527POPC   C1B34651  13.211  18.438   8.707
 2527POPC   C2B34652  13.187  18.311   8.293
 2527POPC   C3B34653  13.092  18.537   7.949
 2527POPC   C4B34654  13.090  18.481   7.488
 2528POPC   NC334655  16.179  38.116   9.683
 2528POPC   PO434656  15.732  37.743   9.456
 2528POPC   GL134657  16.012  37.857   9.156
 2528POPC   GL234658  16.368  37.974   9.222
 2528POPC   C1A34659  15.812  37.815   8.748
 2528POPC   D2A34660  15.766  37.503   8.409
 2528POPC   C3A34661  15.785  37.664   7.978
 2528POPC   C4A34662  16.100  37.488   7.696
 2528POPC   C1B34663  16.302  38.033   8.779
 2528POPC   C2B34664  16.090  38.017   8.364
 2528POPC   C3B34665  16.255  37.956   7.954
 2528POPC   C4B34666  16.112  38.024   7.546
 2529POPC   NC334667   0.433   8.328   9.207
 2529POPC   PO434668   0.625   7.739   9.562
 2529POPC   GL134669   0.367   7.829   9.202
 2529POPC   GL234670   0.689   7.879   9.052
 2529POPC   C1A34671   0.068   7.956   8.832
 2529POPC   D2A34672   0.154   8.206   8.426
 2529POPC   C3A34673   0.160   8.039   8.013
 2529POPC   C4A34674   0.067   8.223   7.632
 2529POPC   C1B34675   0.581   8.013   8.655
 2529POPC   C2B34676   0.645   8.046   8.222
 2529POPC   C3B34677   0.575   8.291   7.872
 2529POPC   C4B34678   0.710   8.494   7.504
 2530POPC   NC334679  34.832  39.912   9.671
 2530POPC   PO434680  34.271  40.202   9.505
 2530POPC   GL134681  34.569  40.008   9.214
 2530POPC   GL234682  34.881  39.787   9.183
 2530POPC   C1A34683  34.487  39.864   8.828
 2530POPC   D2A34684  34.374  39.994   8.434
 2530POPC   C3A34685  34.527  39.812   8.059
 2530POPC   C4A34686  34.308  39.938   7.709
 2530POPC   C1B34687  34.914  39.599   8.779
 2530POPC   C2B34688  35.002  39.457   8.336
 2530POPC   C3B34689  34.980  39.545   7.896
 2530POPC   C4B34690  34.776  39.741   7.557
 2531POPC   NC334691  33.798  37.505   9.581
 2531POPC   PO434692  33.523  38.169   9.479
 2531POPC   GL134693  33.675  37.853   9.192
 2531POPC   GL234694  34.047  37.889   9.192
 2531POPC   C1A34695  33.488  37.651   8.826
 2531POPC   D2A34696  33.324  37.729   8.420
 2531POPC   C3A34697  33.484  37.473   8.078
 2531POPC   C4A34698  33.724  37.653   7.721
 2531POPC   C1B34699  33.914  37.947   8.745
 2531POPC   C2B34700  33.845  37.750   8.340
 2531POPC   C3B34701  34.086  37.533   8.043
 2531POPC   C4B34702  34.244  37.627   7.655
 2532POPC   NC334703   4.850  12.180   9.640
 2532POPC   PO434704   5.403  11.794   9.559
 2532POPC   GL134705   5.104  11.978   9.208
 2532POPC   GL234706   4.708  11.951   9.179
 2532POPC   C1A34707   4.979  12.090   8.758
 2532POPC   D2A34708   4.932  12.328   8.384
 2532POPC   C3A34709   5.066  12.133   7.989
 2532POPC   C4A34710   5.000  12.323   7.587
 2532POPC   C1B34711   4.638  11.722   8.755
 2532POPC   C2B34712   4.836  11.769   8.337
 2532POPC   C3B34713   4.960  11.599   7.947
 2532POPC   C4B34714   5.077  11.787   7.576
 2533POPC   NC334715  44.883  11.202   9.470
 2533POPC   PO434716  44.435  11.707   9.556
 2533POPC   GL134717  44.593  11.554   9.182
 2533POPC   GL234718  44.517  11.215   9.122
 2533POPC   C1A34719  44.797  11.573   8.806
 2533POPC   D2A34720  44.638  11.695   8.444
 2533POPC   C3A34721  44.821  11.554   8.082
 2533POPC   C4A34722  44.807  11.660   7.677
 2533POPC   C1B34723  44.560  11.031   8.729
 2533POPC   C2B34724  44.671  11.142   8.342
 2533POPC   C3B34725  44.416  10.983   8.032
 2533POPC   C4B34726  44.490  10.930   7.608
 2534POPC   NC334727  16.842  29.036   9.714
 2534POPC   PO434728  16.669  28.371   9.533
 2534POPC   GL134729  16.671  28.459   9.095
 2534POPC   GL234730  16.373  28.632   9.016
 2534POPC   C1A34731  16.888  28.278   8.721
 2534POPC   D2A34732  17.195  28.372   8.384
 2534POPC   C3A34733  17.026  28.381   7.956
 2534POPC   C4A34734  16.751  28.087   7.869
 2534POPC   C1B34735  16.525  28.630   8.632
 2534POPC   C2B34736  16.669  28.488   8.299
 2534POPC   C3B34737  16.467  28.508   7.934
 2534POPC   C4B34738  16.661  28.454   7.539
 2535POPC   NC334739  24.332   1.148   9.370
 2535POPC   PO434740  24.887   1.460   9.364
 2535POPC   GL134741  24.799   1.080   9.112
 2535POPC   GL234742  25.013   0.725   9.156
 2535POPC   C1A34743  24.553   1.180   8.746
 2535POPC   D2A34744  24.324   1.425   8.456
 2535POPC   C3A34745  24.499   1.396   8.044
 2535POPC   C4A34746  24.231   1.488   7.685
 2535POPC   C1B34747  24.851   0.751   8.744
 2535POPC   C2B34748  24.865   1.015   8.369
 2535POPC   C3B34749  24.748   0.907   7.967
 2535POPC   C4B34750  24.568   1.125   7.617
 2536POPC   NC334751  31.647  13.975   9.499
 2536POPC   PO434752  31.683  13.316   9.462
 2536POPC   GL134753  31.486  13.553   9.143
 2536POPC   GL234754  31.261  13.847   9.208
 2536POPC   C1A34755  31.660  13.568   8.742
 2536POPC   D2A34756  31.691  13.309   8.385
 2536POPC   C3A34757  31.683  13.592   7.994
 2536POPC   C4A34758  31.787  13.537   7.537
 2536POPC   C1B34759  31.225  13.823   8.768
 2536POPC   C2B34760  31.228  13.535   8.416
 2536POPC   C3B34761  31.041  13.520   8.023
 2536POPC   C4B34762  31.224  13.794   7.737
 2537POPC   NC334763  17.444   4.931   9.500
 2537POPC   PO434764  17.799   5.504   9.524
 2537POPC   GL134765  17.711   5.296   9.166
 2537POPC   GL234766  17.853   4.994   9.230
 2537POPC   C1A34767  17.353   5.213   8.883
 2537POPC   D2A34768  17.217   4.899   8.605
 2537POPC   C3A34769  17.281   5.012   8.178
 2537POPC   C4A34770  17.355   4.818   7.807
 2537POPC   C1B34771  17.731   4.891   8.802
 2537POPC   C2B34772  17.795   5.053   8.373
 2537POPC   C3B34773  17.866   4.909   7.946
 2537POPC   C4B34774  17.731   4.994   7.513
 2538POPC   NC334775  11.380  26.117   9.522
 2538POPC   PO434776  10.841  25.562   9.470
 2538POPC   GL134777  10.969  25.943   9.166
 2538POPC   GL234778  11.334  25.913   9.072
 2538POPC   C1A34779  11.106  26.231   8.769
 2538POPC   D2A34780  11.281  26.047   8.376
 2538POPC   C3A34781  11.200  26.140   7.938
 2538POPC   C4A34782  11.251  25.846   7.585
 2538POPC   C1B34783  11.502  25.707   8.720
 2538POPC   C2B34784  11.455  25.516   8.365
 2538POPC   C3B34785  11.533  25.752   8.023
 2538POPC   C4B34786  11.722  25.669   7.664
 2539POPC   NC334787   7.998  35.871   9.487
 2539POPC   PO434788   8.257  36.533   9.446
 2539POPC   GL134789   8.252  36.322   9.082
 2539POPC   GL234790   7.940  36.218   9.103
 2539POPC   C1A34791   8.150  36.368   8.654
 2539POPC   D2A34792   8.293  36.179   8.292
 2539POPC   C3A34793   8.210  36.356   7.923
 2539POPC   C4A34794   8.370  36.110   7.615
 2539POPC   C1B34795   8.072  35.882   8.822
 2539POPC   C2B34796   7.982  35.791   8.398
 2539POPC   C3B34797   8.037  35.864   7.962
 2539POPC   C4B34798   7.892  36.003   7.539
 2540POPC   NC334799  10.355   4.819   9.552
 2540POPC   PO434800  10.697   5.342   9.394
 2540POPC   GL134801  10.469   5.116   9.103
 2540POPC   GL234802  10.204   5.298   9.068
 2540POPC   C1A34803  10.531   5.090   8.656
 2540POPC   D2A34804  10.733   4.975   8.264
 2540POPC   C3A34805  10.419   5.043   7.929
 2540POPC   C4A34806  10.074   4.763   7.793
 2540POPC   C1B34807  10.355   5.579   8.791
 2540POPC   C2B34808  10.221   5.508   8.362
 2540POPC   C3B34809  10.363   5.676   7.990
 2540POPC   C4B34810  10.516   5.462   7.629
 2541POPC   NC334811  11.656  43.941   9.671
 2541POPC   PO434812  11.048  44.378   9.577
 2541POPC   GL134813  11.194  44.407   9.120
 2541POPC   GL234814  11.461  44.639   9.046
 2541POPC   C1A34815  11.364  44.331   8.666
 2541POPC   D2A34816  11.579  44.547   8.293
 2541POPC   C3A34817  11.311  44.603   7.917
 2541POPC   C4A34818  11.186  44.437   7.487
 2541POPC   C1B34819  11.381  44.851   8.670
 2541POPC   C2B34820  11.313  44.999   8.254
 2541POPC   C3B34821  11.481   0.098   7.861
 2541POPC   C4B34822  11.590   0.253   7.447
 2542POPC   NC334823  40.804  32.018   9.781
 2542POPC   PO434824  40.761  31.358   9.573
 2542POPC   GL134825  40.926  31.423   9.176
 2542POPC   GL234826  40.617  31.503   9.086
 2542POPC   C1A34827  40.997  31.634   8.782
 2542POPC   D2A34828  41.152  31.539   8.380
 2542POPC   C3A34829  40.930  31.620   7.987
 2542POPC   C4A34830  40.755  31.916   7.689
 2542POPC   C1B34831  40.332  31.320   8.797
 2542POPC   C2B34832  40.449  31.249   8.391
 2542POPC   C3B34833  40.323  31.284   7.979
 2542POPC   C4B34834  40.572  31.450   7.658
 2543POPC   NC334835   7.043  25.028   9.469
 2543POPC   PO434836   7.474  25.480   9.428
 2543POPC   GL134837   7.658  25.303   9.101
 2543POPC   GL234838   7.502  25.017   9.181
 2543POPC   C1A34839   7.529  25.381   8.700
 2543POPC   D2A34840   7.655  25.372   8.279
 2543POPC   C3A34841   7.423  25.462   7.911
 2543POPC   C4A34842   7.577  25.579   7.502
 2543POPC   C1B34843   7.251  24.940   8.805
 2543POPC   C2B34844   7.192  25.098   8.369
 2543POPC   C3B34845   7.309  24.965   7.967
 2543POPC   C4B34846   7.263  25.088   7.530
 2544POPC   NC334847  17.836  34.531   9.400
 2544POPC   PO434848  17.251  34.742   9.746
 2544POPC   GL134849  17.306  34.642   9.269
 2544POPC   GL234850  17.575  34.591   8.983
 2544POPC   C1A34851  17.116  34.508   8.850
 2544POPC   D2A34852  17.198  34.748   8.469
 2544POPC   C3A34853  17.356  34.525   8.123
 2544POPC   C4A34854  17.306  34.562   7.709
 2544POPC   C1B34855  17.559  34.379   8.588
 2544POPC   C2B34856  17.812  34.271   8.238
 2544POPC   C3B34857  17.811  34.454   7.845
 2544POPC   C4B34858  17.654  34.317   7.443
 2545POPC   NC334859  35.055   5.485   9.928
 2545POPC   PO434860  35.581   5.651   9.526
 2545POPC   GL134861  35.419   5.820   9.092
 2545POPC   GL234862  35.180   5.628   8.917
 2545POPC   C1A34863  35.568   5.859   8.684
 2545POPC   D2A34864  35.554   6.168   8.371
 2545POPC   C3A34865  35.338   5.910   8.111
 2545POPC   C4A34866  35.373   5.923   7.704
 2545POPC   C1B34867  34.915   5.777   8.596
 2545POPC   C2B34868  34.871   5.729   8.171
 2545POPC   C3B34869  34.881   5.908   7.790
 2545POPC   C4B34870  35.004   5.890   7.341
 2546POPC   NC334871   6.519  31.090   9.541
 2546POPC   PO434872   6.268  31.728   9.474
 2546POPC   GL134873   6.538  31.463   9.160
 2546POPC   GL234874   6.710  31.140   9.091
 2546POPC   C1A34875   6.809  31.544   8.790
 2546POPC   D2A34876   6.691  31.703   8.378
 2546POPC   C3A34877   6.576  31.433   8.054
 2546POPC   C4A34878   6.592  31.617   7.691
 2546POPC   C1B34879   6.823  31.016   8.696
 2546POPC   C2B34880   6.941  31.254   8.387
 2546POPC   C3B34881   7.084  31.311   8.026
 2546POPC   C4B34882   6.878  31.132   7.703
 2547POPC   NC334883  25.627  43.634   9.870
 2547POPC   PO434884  25.271  44.141   9.399
 2547POPC   GL134885  25.134  43.889   9.086
 2547POPC   GL234886  25.250  43.574   9.071
 2547POPC   C1A34887  24.986  43.867   8.685
 2547POPC   D2A34888  24.864  44.149   8.390
 2547POPC   C3A34889  25.190  44.141   8.136
 2547POPC   C4A34890  25.276  43.972   7.729
 2547POPC   C1B34891  25.485  43.705   8.735
 2547POPC   C2B34892  25.414  43.739   8.347
 2547POPC   C3B34893  25.533  43.623   7.966
 2547POPC   C4B34894  25.814  43.431   7.727
 2548POPC   NC334895   1.973  41.437   9.530
 2548POPC   PO434896   2.613  41.591   9.523
 2548POPC   GL134897   2.312  41.641   9.120
 2548POPC   GL234898   1.929  41.638   9.077
 2548POPC   C1A34899   2.146  41.443   8.676
 2548POPC   D2A34900   2.011  41.409   8.197
 2548POPC   C3A34901   2.178  41.626   7.835
 2548POPC   C4A34902   2.132  41.462   7.444
 2548POPC   C1B34903   1.715  41.939   8.839
 2548POPC   C2B34904   1.790  41.766   8.480
 2548POPC   C3B34905   1.837  41.896   8.084
 2548POPC   C4B34906   1.713  41.757   7.694
 2549POPC   NC334907  28.085   0.715   9.850
 2549POPC   PO434908  28.632   0.389   9.522
 2549POPC   GL134909  28.488   0.296   9.143
 2549POPC   GL234910  28.137   0.240   9.107
 2549POPC   C1A34911  28.488   0.507   8.758
 2549POPC   D2A34912  28.761   0.549   8.440
 2549POPC   C3A34913  28.631   0.589   8.014
 2549POPC   C4A34914  28.609   0.336   7.593
 2549POPC   C1B34915  28.004   0.355   8.700
 2549POPC   C2B34916  28.081   0.551   8.302
 2549POPC   C3B34917  28.183   0.449   7.871
 2549POPC   C4B34918  28.164   0.437   7.390
 2550POPC   NC334919   6.948  13.173   9.359
 2550POPC   PO434920   6.422  13.577   9.447
 2550POPC   GL134921   6.725  13.591   9.104
 2550POPC   GL234922   6.677  13.359   8.956
 2550POPC   C1A34923   6.910  13.861   8.788
 2550POPC   D2A34924   6.974  13.857   8.318
 2550POPC   C3A34925   6.925  13.451   8.075
 2550POPC   C4A34926   6.564  13.418   7.791
 2550POPC   C1B34927   6.672  13.481   8.553
 2550POPC   C2B34928   6.513  13.697   8.200
 2550POPC   C3B34929   6.217  13.927   7.999
 2550POPC   C4B34930   6.244  13.798   7.604
 2551POPC   NC334931  24.991  34.287   9.466
 2551POPC   PO434932  25.083  34.958   9.270
 2551POPC   GL134933  25.205  34.587   9.108
 2551POPC   GL234934  25.476  34.510   9.305
 2551POPC   C1A34935  25.191  34.416   8.705
 2551POPC   D2A34936  25.119  34.232   8.311
 2551POPC   C3A34937  25.065  34.528   7.962
 2551POPC   C4A34938  25.333  34.859   7.782
 2551POPC   C1B34939  25.648  34.333   8.925
 2551POPC   C2B34940  25.717  34.360   8.507
 2551POPC   C3B34941  25.658  34.089   8.186
 2551POPC   C4B34942  25.519  34.310   7.838
 2552POPC   NC334943  12.974  25.400   9.577
 2552POPC   PO434944  12.634  24.902   9.352
 2552POPC   GL134945  12.844  25.209   9.074
 2552POPC   GL234946  13.146  25.474   9.121
 2552POPC   C1A34947  12.817  25.112   8.626
 2552POPC   D2A34948  12.973  25.065   8.218
 2552POPC   C3A34949  12.714  25.230   7.922
 2552POPC   C4A34950  12.639  25.397   7.506
 2552POPC   C1B34951  13.263  25.294   8.767
 2552POPC   C2B34952  13.356  25.414   8.389
 2552POPC   C3B34953  13.219  25.465   8.016
 2552POPC   C4B34954  13.119  25.276   7.619
 2553POPC   NC334955  14.296  19.386   9.459
 2553POPC   PO434956  14.076  18.757   9.529
 2553POPC   GL134957  14.140  18.967   9.102
 2553POPC   GL234958  14.424  19.235   8.996
 2553POPC   C1A34959  14.420  18.780   8.786
 2553POPC   D2A34960  14.334  18.688   8.382
 2553POPC   C3A34961  14.480  18.921   8.080
 2553POPC   C4A34962  14.522  18.802   7.688
 2553POPC   C1B34963  14.560  19.203   8.548
 2553POPC   C2B34964  14.729  19.358   8.156
 2553POPC   C3B34965  14.480  19.325   7.759
 2553POPC   C4B34966  14.340  19.518   7.348
 2554POPC   NC334967  29.025  26.598   9.540
 2554POPC   PO434968  29.443  27.127   9.617
 2554POPC   GL134969  29.197  26.935   9.182
 2554POPC   GL234970  28.925  26.678   9.063
 2554POPC   C1A34971  29.161  26.936   8.713
 2554POPC   D2A34972  29.444  26.877   8.423
 2554POPC   C3A34973  29.420  26.823   8.032
 2554POPC   C4A34974  29.409  26.986   7.635
 2554POPC   C1B34975  29.113  26.443   8.730
 2554POPC   C2B34976  29.136  26.480   8.335
 2554POPC   C3B34977  28.944  26.649   8.008
 2554POPC   C4B34978  29.156  26.547   7.690
 2555POPC   NC334979  43.725  17.784   9.474
 2555POPC   PO434980  44.077  17.126   9.506
 2555POPC   GL134981  43.963  17.401   9.200
 2555POPC   GL234982  43.632  17.328   9.175
 2555POPC   C1A34983  43.977  17.597   8.811
 2555POPC   D2A34984  43.835  17.522   8.404
 2555POPC   C3A34985  44.055  17.683   8.074
 2555POPC   C4A34986  43.829  17.950   7.816
 2555POPC   C1B34987  43.646  17.155   8.746
 2555POPC   C2B34988  43.433  17.216   8.353
 2555POPC   C3B34989  43.652  17.163   7.960
 2555POPC   C4B34990  43.839  17.457   7.660
 2556POPC   NC334991  40.279  36.734   9.214
 2556POPC   PO434992  39.603  36.621   9.491
 2556POPC   GL134993  39.701  36.846   9.105
 2556POPC   GL234994  39.909  37.175   9.102
 2556POPC   C1A34995  39.731  36.954   8.679
 2556POPC   D2A34996  39.989  36.735   8.431
 2556POPC   C3A34997  39.911  36.755   8.027
 2556POPC   C4A34998  40.262  36.738   7.777
 2556POPC   C1B34999  40.176  37.220   8.691
 2556POPC   C2B35000  40.160  37.226   8.258
 2556POPC   C3B35001  40.105  37.230   7.845
 2556POPC   C4B35002  39.697  37.216   7.927
 2557POPC   NC335003  34.100  17.593   9.338
 2557POPC   PO435004  33.643  17.140   9.423
 2557POPC   GL135005  33.636  17.384   9.049
 2557POPC   GL235006  33.639  17.766   9.043
 2557POPC   C1A35007  33.903  17.323   8.692
 2557POPC   D2A35008  33.944  16.997   8.407
 2557POPC   C3A35009  33.972  17.168   8.013
 2557POPC   C4A35010  33.820  17.447   7.692
 2557POPC   C1B35011  33.518  17.638   8.599
 2557POPC   C2B35012  33.778  17.616   8.223
 2557POPC   C3B35013  33.684  17.896   7.875
 2557POPC   C4B35014  33.445  17.787   7.532
 2558POPC   NC335015  20.468  10.015   9.422
 2558POPC   PO435016  20.806   9.479   9.499
 2558POPC   GL135017  20.695   9.443   9.098
 2558POPC   GL235018  21.008   9.317   8.938
 2558POPC   C1A35019  20.381   9.425   8.783
 2558POPC   D2A35020  20.167   9.558   8.401
 2558POPC   C3A35021  20.396   9.576   8.037
 2558POPC   C4A35022  20.402   9.497   7.611
 2558POPC   C1B35023  20.832   9.635   8.632
 2558POPC   C2B35024  20.868   9.663   8.174
 2558POPC   C3B35025  20.861   9.414   7.826
 2558POPC   C4B35026  20.863   9.516   7.409
 2559POPC   NC335027  23.861  37.462   9.468
 2559POPC   PO435028  23.905  38.183   9.514
 2559POPC   GL135029  23.829  37.906   9.117
 2559POPC   GL235030  23.874  37.531   8.977
 2559POPC   C1A35031  23.969  37.891   8.662
 2559POPC   D2A35032  23.963  37.567   8.340
 2559POPC   C3A35033  23.834  37.623   7.904
 2559POPC   C4A35034  23.814  37.806   7.462
 2559POPC   C1B35035  23.562  37.578   8.680
 2559POPC   C2B35036  23.420  37.483   8.250
 2559POPC   C3B35037  23.487  37.225   7.861
 2559POPC   C4B35038  23.306  37.125   7.416
 2560POPC   NC335039  24.964  42.169   9.454
 2560POPC   PO435040  25.543  42.559   9.505
 2560POPC   GL135041  25.228  42.497   9.153
 2560POPC   GL235042  24.857  42.603   9.151
 2560POPC   C1A35043  25.332  42.367   8.740
 2560POPC   D2A35044  25.570  42.482   8.378
 2560POPC   C3A35045  25.475  42.157   8.117
 2560POPC   C4A35046  25.484  42.053   7.687
 2560POPC   C1B35047  24.834  42.492   8.706
 2560POPC   C2B35048  24.998  42.283   8.335
 2560POPC   C3B35049  24.906  42.457   7.944
 2560POPC   C4B35050  25.109  42.383   7.540
 2561POPC   NC335051  41.710  14.449   9.401
 2561POPC   PO435052  41.041  14.327   9.437
 2561POPC   GL135053  41.198  14.517   9.056
 2561POPC   GL235054  41.553  14.642   8.953
 2561POPC   C1A35055  41.265  14.323   8.688
 2561POPC   D2A35056  41.428  14.242   8.280
 2561POPC   C3A35057  41.155  14.354   7.930
 2561POPC   C4A35058  41.409  14.586   7.699
 2561POPC   C1B35059  41.789  14.445   8.654
 2561POPC   C2B35060  41.951  14.517   8.257
 2561POPC   C3B35061  41.878  14.378   7.872
 2561POPC   C4B35062  41.568  14.075   7.788
 2562POPC   NC335063  20.958  23.381   9.767
 2562POPC   PO435064  21.371  23.898   9.640
 2562POPC   GL135065  21.441  23.705   9.205
 2562POPC   GL235066  21.189  23.440   9.285
 2562POPC   C1A35067  21.492  23.886   8.783
 2562POPC   D2A35068  21.806  23.877   8.477
 2562POPC   C3A35069  21.602  23.832   8.085
 2562POPC   C4A35070  21.582  23.762   7.666
 2562POPC   C1B35071  21.132  23.433   8.846
 2562POPC   C2B35072  21.234  23.586   8.425
 2562POPC   C3B35073  21.242  23.413   8.008
 2562POPC   C4B35074  21.089  23.533   7.610
 2563POPC   NC335075  33.912  25.715   9.446
 2563POPC   PO435076  33.639  26.196   9.502
 2563POPC   GL135077  33.783  26.059   9.079
 2563POPC   GL235078  33.614  25.755   8.986
 2563POPC   C1A35079  33.998  25.959   8.677
 2563POPC   D2A35080  33.836  26.155   8.300
 2563POPC   C3A35081  34.064  26.020   7.914
 2563POPC   C4A35082  34.165  25.926   7.478
 2563POPC   C1B35083  33.568  25.751   8.518
 2563POPC   C2B35084  33.862  25.644   8.199
 2563POPC   C3B35085  33.853  25.530   7.764
 2563POPC   C4B35086  33.567  25.392   7.443
 2564POPC   NC335087  16.828  29.454   9.314
 2564POPC   PO435088  16.356  29.097   9.699
 2564POPC   GL135089  16.573  29.012   9.267
 2564POPC   GL235090  16.542  29.216   8.957
 2564POPC   C1A35091  16.885  28.876   8.910
 2564POPC   D2A35092  16.989  28.920   8.453
 2564POPC   C3A35093  16.851  28.877   8.030
 2564POPC   C4A35094  17.075  28.857   7.646
 2564POPC   C1B35095  16.807  29.399   8.624
 2564POPC   C2B35096  16.766  29.482   8.186
 2564POPC   C3B35097  16.784  29.326   7.790
 2564POPC   C4B35098  16.476  29.267   7.477
 2565POPC   NC335099  20.314   6.902   9.410
 2565POPC   PO435100  20.892   6.478   9.525
 2565POPC   GL135101  20.537   6.469   9.222
 2565POPC   GL235102  20.571   6.800   8.995
 2565POPC   C1A35103  20.339   6.380   8.824
 2565POPC   D2A35104  20.569   6.583   8.490
 2565POPC   C3A35105  20.474   6.475   8.070
 2565POPC   C4A35106  20.647   6.560   7.687
 2565POPC   C1B35107  20.777   7.051   8.681
 2565POPC   C2B35108  21.000   6.816   8.382
 2565POPC   C3B35109  21.043   6.606   8.027
 2565POPC   C4B35110  20.930   6.965   7.815
 2566POPC   NC335111   5.913   0.373   9.594
 2566POPC   PO435112   6.464   0.528   9.445
 2566POPC   GL135113   6.100   0.508   9.132
 2566POPC   GL235114   5.725   0.588   9.160
 2566POPC   C1A35115   5.980   0.366   8.719
 2566POPC   D2A35116   5.792   0.632   8.396
 2566POPC   C3A35117   5.836   0.432   8.010
 2566POPC   C4A35118   6.183   0.262   7.809
 2566POPC   C1B35119   5.492   0.404   8.820
 2566POPC   C2B35120   5.593   0.168   8.390
 2566POPC   C3B35121   5.511   0.053   7.916
 2566POPC   C4B35122   5.697  44.926   7.520
 2567POPC   NC335123  25.979  42.775   9.498
 2567POPC   PO435124  25.978  43.457   9.572
 2567POPC   GL135125  25.908  43.225   9.219
 2567POPC   GL235126  26.241  43.282   9.123
 2567POPC   C1A35127  25.973  42.935   8.842
 2567POPC   D2A35128  26.126  43.037   8.422
 2567POPC   C3A35129  25.906  42.963   8.008
 2567POPC   C4A35130  26.166  42.736   7.695
 2567POPC   C1B35131  25.953  43.457   8.765
 2567POPC   C2B35132  25.860  43.455   8.318
 2567POPC   C3B35133  26.208  43.373   8.040
 2567POPC   C4B35134  26.258  43.225   7.654
 2568POPC   NC335135  25.597   9.930   9.367
 2568POPC   PO435136  26.190  10.131   9.296
 2568POPC   GL135137  26.091   9.770   9.051
 2568POPC   GL235138  25.807   9.524   9.098
 2568POPC   C1A35139  25.881   9.881   8.679
 2568POPC   D2A35140  25.916  10.057   8.280
 2568POPC   C3A35141  26.259   9.891   8.101
 2568POPC   C4A35142  26.164   9.816   7.686
 2568POPC   C1B35143  25.862   9.378   8.634
 2568POPC   C2B35144  25.766   9.532   8.186
 2568POPC   C3B35145  25.834   9.302   7.763
 2568POPC   C4B35146  25.628   9.152   7.364
 2569POPC   NC335147  27.886  42.669   9.528
 2569POPC   PO435148  28.297  42.212   9.650
 2569POPC   GL135149  28.361  42.350   9.231
 2569POPC   GL235150  28.080  42.502   9.101
 2569POPC   C1A35151  28.616  42.339   8.868
 2569POPC   D2A35152  28.723  42.282   8.444
 2569POPC   C3A35153  28.539  42.143   8.062
 2569POPC   C4A35154  28.516  42.210   7.655
 2569POPC   C1B35155  28.216  42.601   8.708
 2569POPC   C2B35156  28.189  42.402   8.332
 2569POPC   C3B35157  28.231  42.552   7.933
 2569POPC   C4B35158  28.015  42.579   7.545
 2570POPC   NC335159  25.780  32.264   9.596
 2570POPC   PO435160  26.331  31.947   9.482
 2570POPC   GL135161  26.011  32.140   9.141
 2570POPC   GL235162  25.998  32.503   9.183
 2570POPC   C1A35163  25.696  32.146   8.759
 2570POPC   D2A35164  25.543  32.005   8.337
 2570POPC   C3A35165  25.725  32.023   7.931
 2570POPC   C4A35166  26.114  32.164   7.782
 2570POPC   C1B35167  26.024  32.539   8.744
 2570POPC   C2B35168  25.983  32.302   8.339
 2570POPC   C3B35169  25.966  32.601   8.024
 2570POPC   C4B35170  26.066  32.794   7.681
 2571POPC   NC335171  37.827  15.790   9.558
 2571POPC   PO435172  37.439  16.272   9.361
 2571POPC   GL135173  37.787  16.086   9.158
 2571POPC   GL235174  37.557  15.800   9.117
 2571POPC   C1A35175  37.965  15.923   8.799
 2571POPC   D2A35176  37.739  15.944   8.427
 2571POPC   C3A35177  37.690  15.869   7.985
 2571POPC   C4A35178  37.933  16.052   7.622
 2571POPC   C1B35179  37.329  15.874   8.745
 2571POPC   C2B35180  37.302  15.694   8.321
 2571POPC   C3B35181  37.166  15.742   7.913
 2571POPC   C4B35182  37.251  15.987   7.575
 2572POPC   NC335183  24.078  19.068   9.495
 2572POPC   PO435184  24.801  19.245   9.607
 2572POPC   GL135185  24.558  19.079   9.204
 2572POPC   GL235186  24.375  19.366   9.084
 2572POPC   C1A35187  24.427  18.989   8.745
 2572POPC   D2A35188  24.263  19.052   8.321
 2572POPC   C3A35189  24.311  18.748   8.051
 2572POPC   C4A35190  24.479  18.872   7.653
 2572POPC   C1B35191  24.199  19.433   8.650
 2572POPC   C2B35192  24.479  19.520   8.314
 2572POPC   C3B35193  24.586  19.302   7.937
 2572POPC   C4B35194  24.397  19.339   7.534
 2573POPC   NC335195  12.506  39.473   9.549
 2573POPC   PO435196  13.020  38.986   9.424
 2573POPC   GL135197  12.964  39.271   9.133
 2573POPC   GL235198  12.655  39.425   9.083
 2573POPC   C1A35199  12.912  39.170   8.733
 2573POPC   D2A35200  13.051  39.273   8.346
 2573POPC   C3A35201  12.853  39.188   7.950
 2573POPC   C4A35202  12.930  39.146   7.533
 2573POPC   C1B35203  12.437  39.313   8.727
 2573POPC   C2B35204  12.537  39.426   8.282
 2573POPC   C3B35205  12.580  39.604   7.849
 2573POPC   C4B35206  12.710  39.564   7.365
 2574POPC   NC335207  41.215  21.312   9.588
 2574POPC   PO435208  40.524  21.430   9.512
 2574POPC   GL135209  40.806  21.290   9.191
 2574POPC   GL235210  41.036  21.511   9.118
 2574POPC   C1A35211  40.892  21.168   8.750
 2574POPC   D2A35212  40.794  21.321   8.340
 2574POPC   C3A35213  40.539  21.210   7.984
 2574POPC   C4A35214  40.407  21.394   7.608
 2574POPC   C1B35215  41.071  21.727   8.736
 2574POPC   C2B35216  41.156  21.651   8.290
 2574POPC   C3B35217  40.868  21.641   7.929
 2574POPC   C4B35218  40.918  21.755   7.479
 2575POPC   NC335219  39.043  11.434   9.520
 2575POPC   PO435220  39.779  11.266   9.528
 2575POPC   GL135221  39.464  11.409   9.174
 2575POPC   GL235222  39.213  11.171   9.070
 2575POPC   C1A35223  39.527  11.320   8.707
 2575POPC   D2A35224  39.194  11.253   8.404
 2575POPC   C3A35225  39.273  11.378   7.978
 2575POPC   C4A35226  39.346  11.012   7.739
 2575POPC   C1B35227  39.099  11.571   8.813
 2575POPC   C2B35228  38.863  11.654   8.406
 2575POPC   C3B35229  38.750  11.662   7.967
 2575POPC   C4B35230  38.992  11.626   7.589
 2576POPC   NC335231  39.831  32.233   9.532
 2576POPC   PO435232  40.481  31.972   9.465
 2576POPC   GL135233  40.213  32.203   9.101
 2576POPC   GL235234  39.839  32.109   9.050
 2576POPC   C1A35235  40.099  32.156   8.617
 2576POPC   D2A35236  39.712  31.961   8.382
 2576POPC   C3A35237  39.786  32.054   7.945
 2576POPC   C4A35238  40.047  32.437   7.854
 2576POPC   C1B35239  39.732  32.483   8.766
 2576POPC   C2B35240  39.777  32.467   8.303
 2576POPC   C3B35241  39.535  32.504   7.922
 2576POPC   C4B35242  39.612  32.318   7.498
 2577POPC   NC335243  44.974   3.533   9.400
 2577POPC   PO435244   0.645   3.598   9.524
 2577POPC   GL135245   0.562   3.400   9.153
 2577POPC   GL235246   0.359   3.658   9.083
 2577POPC   C1A35247   0.663   3.418   8.703
 2577POPC   D2A35248   0.686   3.726   8.381
 2577POPC   C3A35249   0.603   3.659   7.936
 2577POPC   C4A35250   0.669   4.041   7.735
 2577POPC   C1B35251   0.161   3.458   8.746
 2577POPC   C2B35252   0.036   3.610   8.378
 2577POPC   C3B35253  44.912   3.448   8.014
 2577POPC   C4B35254   0.197   3.341   7.742
 2578POPC   NC335255   2.018  14.925   9.798
 2578POPC   PO435256   2.239  14.251   9.552
 2578POPC   GL135257   2.089  14.273   9.141
 2578POPC   GL235258   1.733  14.297   9.162
 2578POPC   C1A35259   2.042  14.446   8.722
 2578POPC   D2A35260   2.111  14.703   8.346
 2578POPC   C3A35261   1.953  14.611   7.943
 2578POPC   C4A35262   2.147  14.271   7.698
 2578POPC   C1B35263   1.637  14.110   8.778
 2578POPC   C2B35264   1.665  13.939   8.362
 2578POPC   C3B35265   1.633  14.168   7.988
 2578POPC   C4B35266   1.645  14.319   7.584
 2579POPC   NC335267  18.822  18.164   9.384
 2579POPC   PO435268  19.354  18.547   9.395
 2579POPC   GL135269  19.143  18.509   9.029
 2579POPC   GL235270  18.820  18.603   9.105
 2579POPC   C1A35271  18.974  18.177   8.749
 2579POPC   D2A35272  18.774  18.181   8.354
 2579POPC   C3A35273  19.128  18.341   8.140
 2579POPC   C4A35274  19.359  18.174   7.804
 2579POPC   C1B35275  18.753  18.738   8.687
 2579POPC   C2B35276  18.774  18.723   8.233
 2579POPC   C3B35277  18.665  18.442   7.886
 2579POPC   C4B35278  18.902  18.338   7.530
 2580POPC   NC335279  20.821  43.612   9.624
 2580POPC   PO435280  20.607  42.911   9.441
 2580POPC   GL135281  20.509  43.118   9.106
 2580POPC   GL235282  20.815  43.308   9.170
 2580POPC   C1A35283  20.593  43.052   8.681
 2580POPC   D2A35284  20.657  43.077   8.262
 2580POPC   C3A35285  20.275  43.048   8.025
 2580POPC   C4A35286  20.502  43.039   7.656
 2580POPC   C1B35287  20.997  43.480   8.797
 2580POPC   C2B35288  20.856  43.566   8.387
 2580POPC   C3B35289  20.936  43.412   7.996
 2580POPC   C4B35290  20.968  43.461   7.579
 2581POPC   NC335291  36.645  22.002   9.520
 2581POPC   PO435292  37.171  22.394   9.358
 2581POPC   GL135293  36.993  22.137   9.052
 2581POPC   GL235294  36.632  22.104   8.988
 2581POPC   C1A35295  37.093  22.157   8.620
 2581POPC   D2A35296  36.823  22.233   8.287
 2581POPC   C3A35297  37.036  22.094   7.919
 2581POPC   C4A35298  37.229  22.386   7.666
 2581POPC   C1B35299  36.691  21.820   8.633
 2581POPC   C2B35300  36.713  21.741   8.169
 2581POPC   C3B35301  36.625  21.814   7.734
 2581POPC   C4B35302  36.497  21.884   7.283
 2582POPC   NC335303   3.764  10.761   9.624
 2582POPC   PO435304   3.554  10.220   9.794
 2582POPC   GL135305   3.689  10.337   9.280
 2582POPC   GL235306   3.664  10.723   9.136
 2582POPC   C1A35307   3.531  10.373   8.817
 2582POPC   D2A35308   3.335  10.535   8.441
 2582POPC   C3A35309   3.358  10.275   8.071
 2582POPC   C4A35310   3.436  10.365   7.673
 2582POPC   C1B35311   3.616  10.882   8.697
 2582POPC   C2B35312   3.654  10.909   8.245
 2582POPC   C3B35313   3.590  10.840   7.806
 2582POPC   C4B35314   3.700  10.707   7.362
 2583POPC   NC335315   7.215  24.444   9.989
 2583POPC   PO435316   7.616  24.420   9.501
 2583POPC   GL135317   7.525  24.521   9.121
 2583POPC   GL235318   7.196  24.602   9.213
 2583POPC   C1A35319   7.565  24.434   8.708
 2583POPC   D2A35320   7.383  24.629   8.385
 2583POPC   C3A35321   7.337  24.425   8.010
 2583POPC   C4A35322   7.482  24.605   7.627
 2583POPC   C1B35323   7.069  24.455   8.837
 2583POPC   C2B35324   6.943  24.367   8.425
 2583POPC   C3B35325   6.888  24.686   8.138
 2583POPC   C4B35326   6.980  24.642   7.713
 2584POPC   NC335327  23.772  35.033   9.727
 2584POPC   PO435328  23.814  34.395   9.817
 2584POPC   GL135329  23.889  34.580   9.407
 2584POPC   GL235330  23.699  34.833   9.232
 2584POPC   C1A35331  23.976  34.474   8.942
 2584POPC   D2A35332  24.097  34.504   8.466
 2584POPC   C3A35333  23.861  34.360   8.091
 2584POPC   C4A35334  23.992  34.212   7.682
 2584POPC   C1B35335  23.801  34.923   8.765
 2584POPC   C2B35336  23.731  34.848   8.304
 2584POPC   C3B35337  23.559  34.735   7.875
 2584POPC   C4B35338  23.477  34.780   7.417
 2585POPC   NC335339  40.289  41.232   9.462
 2585POPC   PO435340  39.710  41.553   9.723
 2585POPC   GL135341  39.786  41.467   9.208
 2585POPC   GL235342  40.116  41.590   9.085
 2585POPC   C1A35343  39.859  41.310   8.758
 2585POPC   D2A35344  39.970  41.110   8.357
 2585POPC   C3A35345  39.883  41.420   8.057
 2585POPC   C4A35346  39.967  41.494   7.653
 2585POPC   C1B35347  40.314  41.842   8.775
 2585POPC   C2B35348  40.205  41.595   8.432
 2585POPC   C3B35349  40.329  41.682   8.027
 2585POPC   C4B35350  40.311  41.875   7.635
 2586POPC   NC335351  18.534  27.364   9.490
 2586POPC   PO435352  18.236  27.867   9.545
 2586POPC   GL135353  18.437  27.788   9.150
 2586POPC   GL235354  18.296  27.477   9.060
 2586POPC   C1A35355  18.501  27.768   8.696
 2586POPC   D2A35356  18.254  27.767   8.322
 2586POPC   C3A35357  18.494  27.578   8.009
 2586POPC   C4A35358  18.542  27.740   7.609
 2586POPC   C1B35359  18.023  27.569   8.727
 2586POPC   C2B35360  17.792  27.336   8.423
 2586POPC   C3B35361  17.821  27.526   8.062
 2586POPC   C4B35362  18.078  27.621   7.738
 2587POPC   NC335363  13.308   6.218   9.437
 2587POPC   PO435364  13.786   5.644   9.418
 2587POPC   GL135365  13.695   5.835   9.031
 2587POPC   GL235366  13.564   6.148   9.023
 2587POPC   C1A35367  13.625   5.848   8.585
 2587POPC   D2A35368  13.409   5.564   8.332
 2587POPC   C3A35369  13.677   5.416   8.030
 2587POPC   C4A35370  13.737   5.632   7.639
 2587POPC   C1B35371  13.806   6.336   8.722
 2587POPC   C2B35372  13.615   6.351   8.319
 2587POPC   C3B35373  13.569   6.009   8.032
 2587POPC   C4B35374  13.841   6.120   7.707
 2588POPC   NC335375  43.417   7.412   9.654
 2588POPC   PO435376  42.948   7.147   9.234
 2588POPC   GL135377  43.298   7.399   9.153
 2588POPC   GL235378  43.472   7.101   9.257
 2588POPC   C1A35379  43.343   7.581   8.749
 2588POPC   D2A35380  43.105   7.571   8.364
 2588POPC   C3A35381  43.310   7.681   7.964
 2588POPC   C4A35382  43.363   7.682   7.504
 2588POPC   C1B35383  43.402   7.036   8.808
 2588POPC   C2B35384  43.398   7.159   8.408
 2588POPC   C3B35385  43.239   7.183   7.966
 2588POPC   C4B35386  43.375   7.170   7.517
 2589POPC   NC335387  44.418  44.325   9.647
 2589POPC   PO435388  44.793  44.755   9.322
 2589POPC   GL135389  44.540  44.608   9.062
 2589POPC   GL235390  44.458  44.883   8.933
 2589POPC   C1A35391  44.616  44.351   8.713
 2589POPC   D2A35392  44.792  44.402   8.312
 2589POPC   C3A35393  44.626  44.427   7.901
 2589POPC   C4A35394  44.744  44.406   7.449
 2589POPC   C1B35395  44.766  44.825   8.627
 2589POPC   C2B35396  44.651  44.921   8.216
 2589POPC   C3B35397  44.719   0.082   7.813
 2589POPC   C4B35398  44.903  44.937   7.418
 2590POPC   NC335399  26.582   9.926   9.423
 2590POPC   PO435400  27.077   9.612   9.756
 2590POPC   GL135401  27.016   9.582   9.290
 2590POPC   GL235402  27.136   9.912   9.148
 2590POPC   C1A35403  26.816   9.646   8.855
 2590POPC   D2A35404  26.581   9.515   8.495
 2590POPC   C3A35405  26.822   9.601   8.134
 2590POPC   C4A35406  26.669   9.791   7.774
 2590POPC   C1B35407  27.036  10.098   8.706
 2590POPC   C2B35408  26.819  10.080   8.308
 2590POPC   C3B35409  27.041  10.121   7.888
 2590POPC   C4B35410  27.056   9.906   7.468
 2591POPC   NC335411  22.748  19.945   9.512
 2591POPC   PO435412  23.320  19.604   9.483
 2591POPC   GL135413  23.020  19.761   9.110
 2591POPC   GL235414  22.852  20.124   9.062
 2591POPC   C1A35415  22.839  19.814   8.671
 2591POPC   D2A35416  22.889  19.889   8.236
 2591POPC   C3A35417  22.786  19.626   7.909
 2591POPC   C4A35418  22.355  19.471   7.885
 2591POPC   C1B35419  23.243  20.110   8.825
 2591POPC   C2B35420  23.369  20.038   8.398
 2591POPC   C3B35421  23.285  20.010   7.966
 2591POPC   C4B35422  22.947  20.080   7.716
 2592POPC   NC335423   7.212  23.368   9.414
 2592POPC   PO435424   7.389  22.746   9.632
 2592POPC   GL135425   7.550  22.813   9.235
 2592POPC   GL235426   7.489  22.479   9.156
 2592POPC   C1A35427   7.519  23.115   8.882
 2592POPC   D2A35428   7.706  23.068   8.503
 2592POPC   C3A35429   7.500  23.116   8.136
 2592POPC   C4A35430   7.564  23.001   7.744
 2592POPC   C1B35431   7.657  22.613   8.765
 2592POPC   C2B35432   7.595  22.589   8.337
 2592POPC   C3B35433   7.672  22.545   7.925
 2592POPC   C4B35434   7.323  22.548   7.653
 2593POPC   NC335435  14.601  24.972   9.413
 2593POPC   PO435436  14.019  25.352   9.360
 2593POPC   GL135437  14.231  25.103   9.052
 2593POPC   GL235438  14.553  25.279   9.004
 2593POPC   C1A35439  14.301  25.120   8.589
 2593POPC   D2A35440  14.453  25.476   8.340
 2593POPC   C3A35441  14.201  25.555   7.990
 2593POPC   C4A35442  14.155  25.163   7.784
 2593POPC   C1B35443  14.734  24.885   8.775
 2593POPC   C2B35444  14.608  24.759   8.356
 2593POPC   C3B35445  14.603  25.078   8.033
 2593POPC   C4B35446  14.676  25.500   7.847
 2594POPC   NC335447  16.981  35.949   9.329
 2594POPC   PO435448  16.486  36.218   9.565
 2594POPC   GL135449  16.487  36.261   9.146
 2594POPC   GL235450  16.532  35.908   9.071
 2594POPC   C1A35451  16.357  36.243   8.711
 2594POPC   D2A35452  16.591  36.221   8.303
 2594POPC   C3A35453  16.411  36.041   7.928
 2594POPC   C4A35454  16.516  35.985   7.492
 2594POPC   C1B35455  16.752  35.915   8.711
 2594POPC   C2B35456  17.075  36.102   8.492
 2594POPC   C3B35457  16.995  35.880   8.176
 2594POPC   C4B35458  16.917  35.963   7.783
 2595POPC   NC335459   8.128   1.278   9.504
 2595POPC   PO435460   8.171   0.672   9.260
 2595POPC   GL135461   8.308   1.021   9.062
 2595POPC   GL235462   8.439   1.362   9.051
 2595POPC   C1A35463   8.265   1.113   8.622
 2595POPC   D2A35464   8.161   1.431   8.361
 2595POPC   C3A35465   7.954   1.263   8.011
 2595POPC   C4A35466   8.075   0.893   7.855
 2595POPC   C1B35467   8.578   1.578   8.628
 2595POPC   C2B35468   8.599   1.552   8.133
 2595POPC   C3B35469   8.568   1.322   7.729
 2595POPC   C4B35470   8.420   1.529   7.329
 2596POPC   NC335471   0.726   6.577   9.488
 2596POPC   PO435472   0.059   6.364   9.582
 2596POPC   GL135473   0.274   6.619   9.156
 2596POPC   GL235474   0.156   6.901   9.041
 2596POPC   C1A35475   0.335   6.575   8.689
 2596POPC   D2A35476   0.445   6.657   8.247
 2596POPC   C3A35477   0.347   6.340   7.945
 2596POPC   C4A35478   0.084   6.417   7.605
 2596POPC   C1B35479   0.428   7.062   8.736
 2596POPC   C2B35480   0.438   7.218   8.347
 2596POPC   C3B35481   0.318   7.079   7.952
 2596POPC   C4B35482   0.458   6.790   7.684
 2597POPC   NC335483  25.698  38.809   9.609
 2597POPC   PO435484  26.322  38.563   9.664
 2597POPC   GL135485  26.095  38.534   9.233
 2597POPC   GL235486  25.783  38.695   9.094
 2597POPC   C1A35487  26.087  38.377   8.824
 2597POPC   D2A35488  26.158  38.533   8.423
 2597POPC   C3A35489  25.944  38.428   8.096
 2597POPC   C4A35490  26.123  38.301   7.741
 2597POPC   C1B35491  25.730  38.719   8.628
 2597POPC   C2B35492  25.784  38.906   8.216
 2597POPC   C3B35493  25.801  38.792   7.765
 2597POPC   C4B35494  25.870  38.577   7.381
 2598POPC   NC335495  29.118   8.513   9.645
 2598POPC   PO435496  29.074   9.145   9.892
 2598POPC   GL135497  29.284   9.024   9.404
 2598POPC   GL235498  29.271   9.329   9.230
 2598POPC   C1A35499  29.286   8.978   8.872
 2598POPC   D2A35500  29.231   8.847   8.413
 2598POPC   C3A35501  28.954   8.761   8.034
 2598POPC   C4A35502  29.002   8.526   7.645
 2598POPC   C1B35503  28.981   9.391   8.887
 2598POPC   C2B35504  29.105   9.421   8.472
 2598POPC   C3B35505  29.085   9.263   8.064
 2598POPC   C4B35506  29.099   9.418   7.654
 2599POPC   NC335507  34.304  40.718   9.404
 2599POPC   PO435508  34.955  40.921   9.452
 2599POPC   GL135509  34.784  40.959   9.049
 2599POPC   GL235510  34.687  40.619   9.078
 2599POPC   C1A35511  34.580  40.883   8.625
 2599POPC   D2A35512  34.367  40.963   8.204
 2599POPC   C3A35513  34.604  41.029   7.794
 2599POPC   C4A35514  34.430  40.984   7.360
 2599POPC   C1B35515  34.451  40.396   8.785
 2599POPC   C2B35516  34.660  40.405   8.383
 2599POPC   C3B35517  34.464  40.332   8.004
 2599POPC   C4B35518  34.502  40.561   7.647
 2600POPC   NC335519  40.836  13.154   9.651
 2600POPC   PO435520  40.443  12.648   9.363
 2600POPC   GL135521  40.704  12.894   9.158
 2600POPC   GL235522  41.065  12.847   9.215
 2600POPC   C1A35523  40.731  12.903   8.715
 2600POPC   D2A35524  40.626  13.003   8.304
 2600POPC   C3A35525  40.815  12.839   7.945
 2600POPC   C4A35526  40.730  12.570   7.565
 2600POPC   C1B35527  41.046  12.549   8.866
 2600POPC   C2B35528  40.926  12.517   8.389
 2600POPC   C3B35529  41.052  12.371   7.930
 2600POPC   C4B35530  41.227  12.462   7.475
 2601POPC   NC335531  38.617  38.110   9.546
 2601POPC   PO435532  38.046  38.406   9.305
 2601POPC   GL135533  38.357  38.451   9.014
 2601POPC   GL235534  38.686  38.428   9.163
 2601POPC   C1A35535  38.242  38.384   8.620
 2601POPC   D2A35536  38.050  38.477   8.280
 2601POPC   C3A35537  38.331  38.417   8.024
 2601POPC   C4A35538  38.341  38.386   7.633
 2601POPC   C1B35539  38.858  38.518   8.806
 2601POPC   C2B35540  38.659  38.606   8.445
 2601POPC   C3B35541  38.819  38.599   8.062
 2601POPC   C4B35542  38.831  38.283   7.764
 2602POPC   NC335543  21.145   9.701   9.260
 2602POPC   PO435544  21.625  10.056   9.607
 2602POPC   GL135545  21.686  10.020   9.158
 2602POPC   GL235546  21.519   9.776   8.940
 2602POPC   C1A35547  21.969   9.954   8.792
 2602POPC   D2A35548  21.735   9.849   8.439
 2602POPC   C3A35549  21.616   9.859   8.052
 2602POPC   C4A35550  21.692   9.624   7.711
 2602POPC   C1B35551  21.332   9.567   8.583
 2602POPC   C2B35552  21.210   9.949   8.399
 2602POPC   C3B35553  21.062  10.116   8.024
 2602POPC   C4B35554  21.205   9.822   7.718
 2603POPC   NC335555   8.433   8.641   9.455
 2603POPC   PO435556   7.999   8.179   9.574
 2603POPC   GL135557   8.190   8.235   9.181
 2603POPC   GL235558   8.040   8.538   9.140
 2603POPC   C1A35559   8.434   8.117   8.810
 2603POPC   D2A35560   8.555   8.277   8.398
 2603POPC   C3A35561   8.346   8.094   8.018
 2603POPC   C4A35562   8.401   8.003   7.553
 2603POPC   C1B35563   8.160   8.554   8.729
 2603POPC   C2B35564   8.046   8.378   8.377
 2603POPC   C3B35565   7.965   8.519   8.004
 2603POPC   C4B35566   7.970   8.312   7.630
 2604POPC   NC335567  17.625  38.812   9.605
 2604POPC   PO435568  17.278  39.381   9.460
 2604POPC   GL135569  17.547  39.195   9.218
 2604POPC   GL235570  17.262  39.211   8.998
 2604POPC   C1A35571  17.714  39.211   8.808
 2604POPC   D2A35572  17.700  38.973   8.443
 2604POPC   C3A35573  17.648  39.140   8.038
 2604POPC   C4A35574  17.307  39.126   7.785
 2604POPC   C1B35575  17.308  39.497   8.685
 2604POPC   C2B35576  17.569  39.496   8.382
 2604POPC   C3B35577  17.291  39.539   8.063
 2604POPC   C4B35578  17.393  39.656   7.683
 2605POPC   NC335579   2.225   5.953   9.507
 2605POPC   PO435580   1.604   6.052   9.482
 2605POPC   GL135581   1.820   5.882   9.140
 2605POPC   GL235582   2.050   6.117   9.067
 2605POPC   C1A35583   1.724   5.842   8.711
 2605POPC   D2A35584   1.553   6.038   8.338
 2605POPC   C3A35585   1.778   5.811   8.021
 2605POPC   C4A35586   1.708   5.637   7.571
 2605POPC   C1B35587   2.247   5.878   8.788
 2605POPC   C2B35588   2.183   5.714   8.392
 2605POPC   C3B35589   2.267   5.931   8.055
 2605POPC   C4B35590   2.178   5.767   7.699
 2606POPC   NC335591  43.589  44.811   9.373
 2606POPC   PO435592  43.976  44.301   9.551
 2606POPC   GL135593  43.813  44.414   9.150
 2606POPC   GL235594  44.035  44.690   9.154
 2606POPC   C1A35595  43.670  44.688   8.737
 2606POPC   D2A35596  43.794  44.668   8.274
 2606POPC   C3A35597  43.647  44.802   7.815
 2606POPC   C4A35598  43.613   0.091   7.416
 2606POPC   C1B35599  44.139  44.508   8.741
 2606POPC   C2B35600  44.285  44.511   8.313
 2606POPC   C3B35601  44.139  44.596   7.888
 2606POPC   C4B35602  44.405  44.747   7.564
 2607POPC   NC335603  39.922  39.421   9.473
 2607POPC   PO435604  40.579  39.557   9.418
 2607POPC   GL135605  40.288  39.282   9.109
 2607POPC   GL235606  39.900  39.162   9.045
 2607POPC   C1A35607  40.291  39.099   8.717
 2607POPC   D2A35608  40.179  39.313   8.369
 2607POPC   C3A35609  40.217  39.245   7.972
 2607POPC   C4A35610  40.523  39.423   7.749
 2607POPC   C1B35611  39.934  39.531   8.759
 2607POPC   C2B35612  39.755  39.574   8.304
 2607POPC   C3B35613  39.740  39.409   7.839
 2607POPC   C4B35614  39.603  39.443   7.351
 2608POPC   NC335615   0.114  24.269   9.464
 2608POPC   PO435616   0.691  24.665   9.510
 2608POPC   GL135617   0.439  24.573   9.189
 2608POPC   GL235618   0.150  24.761   9.310
 2608POPC   C1A35619   0.452  24.518   8.762
 2608POPC   D2A35620   0.170  24.454   8.443
 2608POPC   C3A35621   0.478  24.492   8.099
 2608POPC   C4A35622   0.726  24.465   7.743
 2608POPC   C1B35623   0.153  24.897   8.905
 2608POPC   C2B35624   0.223  24.964   8.491
 2608POPC   C3B35625   0.098  24.818   8.100
 2608POPC   C4B35626   0.286  24.876   7.737
 2609POPC   NC335627   5.249  11.344   9.559
 2609POPC   PO435628   4.591  11.212   9.600
 2609POPC   GL135629   4.915  11.138   9.231
 2609POPC   GL235630   4.929  11.479   9.097
 2609POPC   C1A35631   5.215  11.140   8.847
 2609POPC   D2A35632   5.011  11.223   8.414
 2609POPC   C3A35633   5.215  11.149   8.008
 2609POPC   C4A35634   4.999  11.139   7.584
 2609POPC   C1B35635   5.166  11.629   8.697
 2609POPC   C2B35636   5.382  11.576   8.279
 2609POPC   C3B35637   5.497  11.575   7.828
 2609POPC   C4B35638   5.505  11.605   7.353
 2610POPC   NC335639  30.124  35.518   9.369
 2610POPC   PO435640  29.611  35.165   9.422
 2610POPC   GL135641  29.815  35.227   9.054
 2610POPC   GL235642  29.779  35.570   8.974
 2610POPC   C1A35643  29.788  35.047   8.640
 2610POPC   D2A35644  29.521  35.134   8.289
 2610POPC   C3A35645  29.670  35.179   7.868
 2610POPC   C4A35646  29.627  35.547   7.550
 2610POPC   C1B35647  30.104  35.437   8.671
 2610POPC   C2B35648  30.103  35.294   8.236
 2610POPC   C3B35649  30.032  35.532   7.851
 2610POPC   C4B35650  30.094  35.730   7.418
 2611POPC   NC335651  16.681  26.415   9.492
 2611POPC   PO435652  17.164  25.938   9.577
 2611POPC   GL135653  17.076  26.167   9.137
 2611POPC   GL235654  16.708  26.221   9.029
 2611POPC   C1A35655  17.042  26.174   8.648
 2611POPC   D2A35656  17.037  26.067   8.177
 2611POPC   C3A35657  16.980  26.298   7.784
 2611POPC   C4A35658  16.960  26.144   7.332
 2611POPC   C1B35659  16.629  26.499   8.670
 2611POPC   C2B35660  16.569  26.252   8.337
 2611POPC   C3B35661  16.488  26.017   7.997
 2611POPC   C4B35662  16.488  26.134   7.563
 2612POPC   NC335663  43.781   0.689   9.691
 2612POPC   PO435664  43.935   0.080   9.529
 2612POPC   GL135665  43.955   0.422   9.282
 2612POPC   GL235666  44.242   0.302   9.148
 2612POPC   C1A35667  43.909   0.587   8.893
 2612POPC   D2A35668  43.724   0.450   8.513
 2612POPC   C3A35669  43.873   0.599   8.122
 2612POPC   C4A35670  43.741   0.439   7.748
 2612POPC   C1B35671  44.019   0.094   8.825
 2612POPC   C2B35672  44.189   0.016   8.443
 2612POPC   C3B35673  44.022   0.093   8.047
 2612POPC   C4B35674  44.072   0.093   7.620
 2613POPC   NC335675   5.030   0.083   9.592
 2613POPC   PO435676   5.481   0.531   9.605
 2613POPC   GL135677   5.157   0.552   9.251
 2613POPC   GL235678   5.040   0.249   9.081
 2613POPC   C1A35679   5.027   0.665   8.794
 2613POPC   D2A35680   5.127   0.350   8.490
 2613POPC   C3A35681   5.110   0.353   8.060
 2613POPC   C4A35682   5.382   0.540   7.785
 2613POPC   C1B35683   4.712   0.199   8.743
 2613POPC   C2B35684   4.725   0.100   8.309
 2613POPC   C3B35685   4.614   0.278   7.918
 2613POPC   C4B35686   4.915   0.325   7.587
 2614POPC   NC335687  17.425  24.171   9.379
 2614POPC   PO435688  17.559  23.781   9.891
 2614POPC   GL135689  17.622  23.692   9.340
 2614POPC   GL235690  17.664  23.961   8.989
 2614POPC   C1A35691  17.635  23.477   8.900
 2614POPC   D2A35692  17.794  23.354   8.501
 2614POPC   C3A35693  17.636  23.653   8.186
 2614POPC   C4A35694  17.704  23.647   7.745
 2614POPC   C1B35695  17.386  23.862   8.642
 2614POPC   C2B35696  17.119  23.809   8.305
 2614POPC   C3B35697  17.231  23.844   7.872
 2614POPC   C4B35698  17.415  23.980   7.455
 2615POPC   NC335699  24.909  26.461   9.492
 2615POPC   PO435700  24.440  26.027   9.815
 2615POPC   GL135701  24.438  26.066   9.327
 2615POPC   GL235702  24.068  26.035   9.161
 2615POPC   C1A35703  24.606  26.246   8.912
 2615POPC   D2A35704  24.553  26.298   8.471
 2615POPC   C3A35705  24.842  26.041   8.217
 2615POPC   C4A35706  24.773  25.931   7.763
 2615POPC   C1B35707  24.228  25.916   8.763
 2615POPC   C2B35708  24.384  25.835   8.352
 2615POPC   C3B35709  24.334  26.057   7.987
 2615POPC   C4B35710  24.260  25.920   7.547
 2616POPC   NC335711  40.772  44.146   9.355
 2616POPC   PO435712  40.898  43.640   9.777
 2616POPC   GL135713  40.804  43.612   9.266
 2616POPC   GL235714  40.841  43.846   8.981
 2616POPC   C1A35715  40.741  43.380   8.848
 2616POPC   D2A35716  40.646  43.662   8.543
 2616POPC   C3A35717  40.945  43.689   8.229
 2616POPC   C4A35718  40.857  43.857   7.835
 2616POPC   C1B35719  41.102  44.069   8.693
 2616POPC   C2B35720  41.201  44.171   8.278
 2616POPC   C3B35721  41.264  44.179   7.866
 2616POPC   C4B35722  41.022  44.191   7.496
 2617POPC   NC335723  41.549  29.591   9.206
 2617POPC   PO435724  41.654  30.245   9.487
 2617POPC   GL135725  41.682  30.088   9.067
 2617POPC   GL235726  41.318  30.020   9.022
 2617POPC   C1A35727  41.892  30.042   8.647
 2617POPC   D2A35728  41.824  29.804   8.260
 2617POPC   C3A35729  41.708  29.988   7.851
 2617POPC   C4A35730  41.538  30.079   7.429
 2617POPC   C1B35731  41.418  29.918   8.597
 2617POPC   C2B35732  41.308  30.036   8.199
 2617POPC   C3B35733  41.193  29.788   7.873
 2617POPC   C4B35734  41.278  29.654   7.498
 2618POPC   NC335735  15.019  31.105   9.847
 2618POPC   PO435736  15.342  31.463   9.386
 2618POPC   GL135737  15.187  31.366   9.017
 2618POPC   GL235738  14.868  31.508   9.050
 2618POPC   C1A35739  15.249  31.495   8.589
 2618POPC   D2A35740  15.409  31.676   8.189
 2618POPC   C3A35741  15.253  31.493   7.823
 2618POPC   C4A35742  15.385  31.553   7.405
 2618POPC   C1B35743  14.808  31.810   8.689
 2618POPC   C2B35744  14.897  31.777   8.280
 2618POPC   C3B35745  14.749  31.621   7.926
 2618POPC   C4B35746  14.817  31.261   7.665
 2619POPC   NC335747  19.841   0.633   9.409
 2619POPC   PO435748  19.455   0.093   9.376
 2619POPC   GL135749  19.684   0.385   9.011
 2619POPC   GL235750  19.785   0.781   8.952
 2619POPC   C1A35751  19.952   0.371   8.651
 2619POPC   D2A35752  20.130   0.112   8.298
 2619POPC   C3A35753  19.974   0.268   7.915
 2619POPC   C4A35754  20.176   0.470   7.558
 2619POPC   C1B35755  19.733   0.961   8.573
 2619POPC   C2B35756  19.766   0.679   8.240
 2619POPC   C3B35757  19.864   0.756   7.826
 2619POPC   C4B35758  19.685   0.651   7.431
 2620POPC   NC335759  32.573  10.757   9.396
 2620POPC   PO435760  32.102  10.293   9.546
 2620POPC   GL135761  32.095  10.336   9.125
 2620POPC   GL235762  32.465  10.255   9.149
 2620POPC   C1A35763  31.956  10.498   8.666
 2620POPC   D2A35764  32.149  10.828   8.348
 2620POPC   C3A35765  32.240  10.689   7.906
 2620POPC   C4A35766  31.937  10.406   7.716
 2620POPC   C1B35767  32.452  10.448   8.773
 2620POPC   C2B35768  32.374  10.358   8.341
 2620POPC   C3B35769  32.528  10.252   7.932
 2620POPC   C4B35770  32.359  10.258   7.511
 2621POPC   NC335771  11.809   8.530   9.460
 2621POPC   PO435772  11.846   9.184   9.498
 2621POPC   GL135773  11.970   9.150   9.084
 2621POPC   GL235774  11.991   8.808   9.079
 2621POPC   C1A35775  11.877   9.110   8.633
 2621POPC   D2A35776  12.208   9.198   8.328
 2621POPC   C3A35777  12.147   9.149   7.886
 2621POPC   C4A35778  12.341   8.994   7.516
 2621POPC   C1B35779  12.157   8.672   8.722
 2621POPC   C2B35780  12.069   8.714   8.327
 2621POPC   C3B35781  11.876   8.706   7.961
 2621POPC   C4B35782  12.137   8.542   7.637
 2622POPC   NC335783  21.651  26.834   9.559
 2622POPC   PO435784  21.004  26.835   9.794
 2622POPC   GL135785  21.171  26.867   9.307
 2622POPC   GL235786  21.507  26.993   9.129
 2622POPC   C1A35787  21.174  26.768   8.821
 2622POPC   D2A35788  21.017  26.691   8.368
 2622POPC   C3A35789  21.299  26.508   8.062
 2622POPC   C4A35790  21.392  26.700   7.680
 2622POPC   C1B35791  21.559  27.118   8.750
 2622POPC   C2B35792  21.257  27.146   8.447
 2622POPC   C3B35793  21.295  27.064   8.032
 2622POPC   C4B35794  21.705  27.075   7.835
 2623POPC   NC335795  26.316  37.150   9.504
 2623POPC   PO435796  25.914  36.504   9.498
 2623POPC   GL135797  25.806  36.817   9.212
 2623POPC   GL235798  26.129  36.952   9.082
 2623POPC   C1A35799  25.708  36.925   8.799
 2623POPC   D2A35800  26.078  36.959   8.562
 2623POPC   C3A35801  25.973  36.990   8.125
 2623POPC   C4A35802  26.193  36.878   7.776
 2623POPC   C1B35803  26.381  36.608   8.944
 2623POPC   C2B35804  26.375  36.489   8.537
 2623POPC   C3B35805  26.346  36.505   8.115
 2623POPC   C4B35806  26.345  36.400   7.699
 2624POPC   NC335807   6.862  12.177   9.398
 2624POPC   PO435808   7.499  12.001   9.573
 2624POPC   GL135809   7.581  12.106   9.168
 2624POPC   GL235810   7.245  12.156   9.056
 2624POPC   C1A35811   7.748  12.131   8.782
 2624POPC   D2A35812   7.804  12.173   8.358
 2624POPC   C3A35813   7.419  12.120   8.125
 2624POPC   C4A35814   7.300  12.244   7.718
 2624POPC   C1B35815   7.026  11.871   8.787
 2624POPC   C2B35816   6.902  11.795   8.354
 2624POPC   C3B35817   6.969  11.941   7.939
 2624POPC   C4B35818   7.031  11.923   7.449
 2625POPC   NC335819  33.711  41.990   9.655
 2625POPC   PO435820  34.205  42.395   9.456
 2625POPC   GL135821  33.891  42.496   9.203
 2625POPC   GL235822  33.588  42.281   9.230
 2625POPC   C1A35823  33.968  42.564   8.793
 2625POPC   D2A35824  34.209  42.321   8.524
 2625POPC   C3A35825  34.155  42.561   8.151
 2625POPC   C4A35826  33.828  42.555   7.868
 2625POPC   C1B35827  33.758  42.093   8.843
 2625POPC   C2B35828  33.739  42.141   8.391
 2625POPC   C3B35829  33.788  42.050   7.966
 2625POPC   C4B35830  33.708  42.165   7.559
 2626POPC   NC335831  27.770  43.431   9.458
 2626POPC   PO435832  27.609  42.912   9.842
 2626POPC   GL135833  27.722  43.008   9.228
 2626POPC   GL235834  27.413  43.116   9.093
 2626POPC   C1A35835  27.820  42.919   8.764
 2626POPC   D2A35836  28.069  42.931   8.337
 2626POPC   C3A35837  27.831  42.882   7.950
 2626POPC   C4A35838  27.861  43.069   7.538
 2626POPC   C1B35839  27.473  43.312   8.700
 2626POPC   C2B35840  27.667  43.267   8.307
 2626POPC   C3B35841  27.511  43.288   7.897
 2626POPC   C4B35842  27.343  42.934   7.701
 2627POPC   NC335843  29.698  29.000   9.588
 2627POPC   PO435844  30.227  29.433   9.604
 2627POPC   GL135845  29.928  29.321   9.236
 2627POPC   GL235846  29.863  28.946   9.124
 2627POPC   C1A35847  29.837  29.357   8.803
 2627POPC   D2A35848  29.679  29.172   8.436
 2627POPC   C3A35849  29.825  29.303   8.019
 2627POPC   C4A35850  29.897  29.670   7.734
 2627POPC   C1B35851  30.157  28.940   8.794
 2627POPC   C2B35852  30.182  29.174   8.419
 2627POPC   C3B35853  30.264  29.019   8.042
 2627POPC   C4B35854  30.046  28.966   7.688
 2628POPC   NC335855  24.048  43.745   9.477
 2628POPC   PO435856  23.984  44.397   9.505
 2628POPC   GL135857  23.792  44.067   9.176
 2628POPC   GL235858  23.589  43.721   9.186
 2628POPC   C1A35859  23.651  43.963   8.748
 2628POPC   D2A35860  23.870  43.888   8.352
 2628POPC   C3A35861  23.655  43.990   7.989
 2628POPC   C4A35862  23.731  44.218   7.639
 2628POPC   C1B35863  23.810  43.484   8.825
 2628POPC   C2B35864  23.824  43.370   8.376
 2628POPC   C3B35865  23.953  43.501   7.969
 2628POPC   C4B35866  23.908  43.745   7.600
 2629POPC   NC335867  19.819   5.444   9.646
 2629POPC   PO435868  20.077   4.817   9.594
 2629POPC   GL135869  19.841   5.045   9.255
 2629POPC   GL235870  20.062   5.335   9.191
 2629POPC   C1A35871  19.729   5.199   8.808
 2629POPC   D2A35872  19.990   5.170   8.410
 2629POPC   C3A35873  19.785   5.162   8.027
 2629POPC   C4A35874  19.726   5.425   7.693
 2629POPC   C1B35875  20.222   5.440   8.784
 2629POPC   C2B35876  20.335   5.532   8.326
 2629POPC   C3B35877  20.253   5.379   7.871
 2629POPC   C4B35878  20.057   5.030   7.590
 2630POPC   NC335879  17.878   9.604   9.512
 2630POPC   PO435880  18.477   9.935   9.463
 2630POPC   GL135881  18.298   9.784   9.124
 2630POPC   GL235882  18.001   9.923   9.132
 2630POPC   C1A35883  18.461   9.753   8.731
 2630POPC   D2A35884  18.465   9.489   8.398
 2630POPC   C3A35885  18.420   9.751   8.067
 2630POPC   C4A35886  18.600   9.674   7.708
 2630POPC   C1B35887  17.988   9.990   8.738
 2630POPC   C2B35888  17.986   9.794   8.377
 2630POPC   C3B35889  17.924   9.965   8.011
 2630POPC   C4B35890  18.087   9.809   7.678
 2631POPC   NC335891  21.033  16.242   9.833
 2631POPC   PO435892  21.589  16.000   9.673
 2631POPC   GL135893  21.515  16.177   9.251
 2631POPC   GL235894  21.140  16.271   9.294
 2631POPC   C1A35895  21.685  16.022   8.817
 2631POPC   D2A35896  21.902  15.919   8.420
 2631POPC   C3A35897  21.663  16.052   8.019
 2631POPC   C4A35898  21.488  15.961   7.577
 2631POPC   C1B35899  21.193  16.168   8.840
 2631POPC   C2B35900  21.299  15.992   8.418
 2631POPC   C3B35901  21.166  16.156   8.018
 2631POPC   C4B35902  21.201  16.373   7.632
 2632POPC   NC335903   6.525   4.995   9.952
 2632POPC   PO435904   6.653   5.240   9.385
 2632POPC   GL135905   6.800   5.092   9.068
 2632POPC   GL235906   6.477   5.073   8.898
 2632POPC   C1A35907   6.925   5.234   8.734
 2632POPC   D2A35908   6.618   5.368   8.476
 2632POPC   C3A35909   6.805   5.326   8.104
 2632POPC   C4A35910   6.750   5.022   7.758
 2632POPC   C1B35911   6.423   4.784   8.613
 2632POPC   C2B35912   6.603   4.870   8.256
 2632POPC   C3B35913   6.376   4.746   7.936
 2632POPC   C4B35914   6.006   4.851   7.724
 2633POPC   NC335915  44.003  20.593   9.427
 2633POPC   PO435916  43.399  20.339   9.497
 2633POPC   GL135917  43.618  20.432   9.109
 2633POPC   GL235918  43.599  20.760   9.141
 2633POPC   C1A35919  43.977  20.413   8.769
 2633POPC   D2A35920  44.309  20.454   8.412
 2633POPC   C3A35921  44.192  20.456   7.982
 2633POPC   C4A35922  43.842  20.629   7.728
 2633POPC   C1B35923  43.770  20.886   8.758
 2633POPC   C2B35924  43.804  20.718   8.348
 2633POPC   C3B35925  43.461  20.736   8.060
 2633POPC   C4B35926  43.530  21.022   7.729
 2634POPC   NC335927  13.064  10.831   9.504
 2634POPC   PO435928  12.662  10.272   9.502
 2634POPC   GL135929  12.872  10.482   9.149
 2634POPC   GL235930  12.766  10.830   9.103
 2634POPC   C1A35931  12.827  10.387   8.711
 2634POPC   D2A35932  12.920  10.155   8.333
 2634POPC   C3A35933  12.976  10.334   7.925
 2634POPC   C4A35934  13.013  10.226   7.489
 2634POPC   C1B35935  13.016  10.859   8.745
 2634POPC   C2B35936  13.084  10.687   8.324
 2634POPC   C3B35937  12.976  10.873   7.901
 2634POPC   C4B35938  12.881  10.722   7.478
 2635POPC   NC335939  15.777   5.887   9.570
 2635POPC   PO435940  16.371   5.775   9.472
 2635POPC   GL135941  16.076   5.786   9.147
 2635POPC   GL235942  16.276   5.531   9.052
 2635POPC   C1A35943  15.888   5.618   8.746
 2635POPC   D2A35944  15.978   5.776   8.352
 2635POPC   C3A35945  15.826   5.574   8.000
 2635POPC   C4A35946  15.829   5.742   7.607
 2635POPC   C1B35947  16.392   5.785   8.709
 2635POPC   C2B35948  16.503   5.753   8.287
 2635POPC   C3B35949  16.261   5.843   7.905
 2635POPC   C4B35950  16.378   5.778   7.467
 2636POPC   NC335951  38.964  22.101   9.607
 2636POPC   PO435952  39.616  21.844   9.464
 2636POPC   GL135953  39.339  22.110   9.186
 2636POPC   GL235954  39.011  22.006   9.115
 2636POPC   C1A35955  39.296  22.153   8.713
 2636POPC   D2A35956  39.271  22.396   8.308
 2636POPC   C3A35957  39.201  22.204   7.900
 2636POPC   C4A35958  39.451  21.895   7.742
 2636POPC   C1B35959  38.893  21.839   8.729
 2636POPC   C2B35960  39.027  21.929   8.311
 2636POPC   C3B35961  38.794  21.835   7.944
 2636POPC   C4B35962  38.971  21.900   7.539
 2637POPC   NC335963  35.050  20.187   9.832
 2637POPC   PO435964  34.495  20.553   9.595
 2637POPC   GL135965  34.633  20.510   9.149
 2637POPC   GL235966  34.970  20.449   8.974
 2637POPC   C1A35967  34.540  20.725   8.764
 2637POPC   D2A35968  34.288  20.918   8.435
 2637POPC   C3A35969  34.405  20.953   7.989
 2637POPC   C4A35970  34.274  20.700   7.635
 2637POPC   C1B35971  34.959  20.490   8.559
 2637POPC   C2B35972  34.650  20.578   8.282
 2637POPC   C3B35973  34.669  20.517   7.891
 2637POPC   C4B35974  34.990  20.326   7.622
 2638POPC   NC335975   3.452  35.570   9.422
 2638POPC   PO435976   3.101  35.171   9.682
 2638POPC   GL135977   3.313  35.187   9.169
 2638POPC   GL235978   3.658  35.331   9.037
 2638POPC   C1A35979   3.291  35.422   8.743
 2638POPC   D2A35980   3.511  35.363   8.356
 2638POPC   C3A35981   3.370  35.635   7.999
 2638POPC   C4A35982   3.244  35.544   7.575
 2638POPC   C1B35983   3.901  35.155   8.725
 2638POPC   C2B35984   4.016  35.175   8.308
 2638POPC   C3B35985   4.034  35.081   7.868
 2638POPC   C4B35986   3.685  35.334   7.740
 2639POPC   NC335987   2.993  17.918   9.829
 2639POPC   PO435988   2.557  17.432   9.534
 2639POPC   GL135989   2.661  17.249   9.157
 2639POPC   GL235990   2.875  17.490   9.118
 2639POPC   C1A35991   2.699  17.221   8.722
 2639POPC   D2A35992   2.483  17.259   8.332
 2639POPC   C3A35993   2.804  17.325   7.991
 2639POPC   C4A35994   2.939  17.227   7.559
 2639POPC   C1B35995   2.653  17.733   8.790
 2639POPC   C2B35996   2.802  17.644   8.408
 2639POPC   C3B35997   3.133  17.692   8.125
 2639POPC   C4B35998   2.966  17.769   7.691
 2640POPC   NC335999  22.650   0.977   9.867
 2640POPC   PO436000  23.106   1.311   9.499
 2640POPC   GL136001  22.830   1.337   9.158
 2640POPC   GL236002  22.633   1.032   9.253
 2640POPC   C1A36003  22.899   1.455   8.718
 2640POPC   D2A36004  23.044   1.371   8.302
 2640POPC   C3A36005  22.833   1.481   7.901
 2640POPC   C4A36006  22.917   1.432   7.449
 2640POPC   C1B36007  22.900   0.937   8.881
 2640POPC   C2B36008  22.768   0.948   8.478
 2640POPC   C3B36009  22.874   0.947   8.053
 2640POPC   C4B36010  22.671   1.015   7.675
 2641POPC   NC336011  38.744  24.922   9.535
 2641POPC   PO436012  38.568  25.568   9.488
 2641POPC   GL136013  38.603  25.364   9.125
 2641POPC   GL236014  38.378  25.075   9.113
 2641POPC   C1A36015  38.596  25.520   8.719
 2641POPC   D2A36016  38.591  25.249   8.368
 2641POPC   C3A36017  38.510  25.319   7.983
 2641POPC   C4A36018  38.466  25.651   7.734
 2641POPC   C1B36019  38.478  24.877   8.695
 2641POPC   C2B36020  38.194  24.787   8.345
 2641POPC   C3B36021  37.980  25.068   8.088
 2641POPC   C4B36022  38.086  25.265   7.716
 2642POPC   NC336023   2.186  37.436   9.465
 2642POPC   PO436024   1.632  37.745   9.500
 2642POPC   GL136025   1.900  37.757   9.131
 2642POPC   GL236026   2.159  38.020   9.050
 2642POPC   C1A36027   1.912  37.747   8.697
 2642POPC   D2A36028   1.845  37.482   8.366
 2642POPC   C3A36029   2.034  37.536   7.964
 2642POPC   C4A36030   1.830  37.319   7.640
 2642POPC   C1B36031   2.411  37.940   8.669
 2642POPC   C2B36032   2.366  37.802   8.239
 2642POPC   C3B36033   2.346  37.915   7.793
 2642POPC   C4B36034   2.131  37.984   7.407
 2643POPC   NC336035   4.621   4.731   9.431
 2643POPC   PO436036   5.235   4.961   9.467
 2643POPC   GL136037   4.876   5.092   9.113
 2643POPC   GL236038   4.710   5.474   9.096
 2643POPC   C1A36039   4.915   5.018   8.656
 2643POPC   D2A36040   4.797   4.864   8.248
 2643POPC   C3A36041   5.110   4.884   7.917
 2643POPC   C4A36042   5.371   5.016   7.552
 2643POPC   C1B36043   4.996   5.511   8.774
 2643POPC   C2B36044   5.282   5.311   8.454
 2643POPC   C3B36045   5.298   5.361   8.013
 2643POPC   C4B36046   5.177   5.463   7.601
 2644POPC   NC336047  12.559  20.260   9.428
 2644POPC   PO436048  12.852  20.902   9.569
 2644POPC   GL136049  12.762  20.712   9.133
 2644POPC   GL236050  12.447  20.580   9.039
 2644POPC   C1A36051  12.926  20.615   8.708
 2644POPC   D2A36052  12.872  20.329   8.322
 2644POPC   C3A36053  13.197  20.318   7.962
 2644POPC   C4A36054  13.217  20.478   7.509
 2644POPC   C1B36055  12.459  20.553   8.559
 2644POPC   C2B36056  12.649  20.888   8.313
 2644POPC   C3B36057  12.755  20.703   7.977
 2644POPC   C4B36058  12.441  20.408   8.034
 2645POPC   NC336059  20.035  11.579   9.422
 2645POPC   PO436060  20.312  11.039   9.561
 2645POPC   GL136061  20.097  11.156   9.148
 2645POPC   GL236062  19.734  11.071   9.023
 2645POPC   C1A36063  20.012  11.296   8.700
 2645POPC   D2A36064  19.704  11.014   8.482
 2645POPC   C3A36065  19.812  11.006   8.075
 2645POPC   C4A36066  20.107  11.252   7.849
 2645POPC   C1B36067  19.518  11.405   8.745
 2645POPC   C2B36068  19.700  11.503   8.315
 2645POPC   C3B36069  19.628  11.434   7.850
 2645POPC   C4B36070  19.590  11.564   7.402
 2646POPC   NC336071  31.147  33.545   9.534
 2646POPC   PO436072  30.690  33.985   9.449
 2646POPC   GL136073  30.635  34.109   9.054
 2646POPC   GL236074  30.825  33.837   8.974
 2646POPC   C1A36075  30.566  34.080   8.610
 2646POPC   D2A36076  30.500  33.771   8.314
 2646POPC   C3A36077  30.499  33.954   7.910
 2646POPC   C4A36078  30.534  34.043   7.482
 2646POPC   C1B36079  31.118  33.899   8.659
 2646POPC   C2B36080  31.017  33.893   8.235
 2646POPC   C3B36081  31.003  33.763   7.828
 2646POPC   C4B36082  30.648  33.543   7.642
 2647POPC   NC336083   0.918  31.987   9.476
 2647POPC   PO436084   0.330  32.363   9.487
 2647POPC   GL136085   0.509  32.210   9.131
 2647POPC   GL236086   0.774  32.422   9.161
 2647POPC   C1A36087   0.460  32.059   8.699
 2647POPC   D2A36088   0.172  31.994   8.355
 2647POPC   C3A36089   0.297  32.210   7.963
 2647POPC   C4A36090   0.613  32.144   7.653
 2647POPC   C1B36091   0.652  32.533   8.734
 2647POPC   C2B36092   0.661  32.392   8.301
 2647POPC   C3B36093   0.651  32.581   7.893
 2647POPC   C4B36094   0.674  32.624   7.424
 2648POPC   NC336095  10.440  33.594   9.430
 2648POPC   PO436096  10.907  34.085   9.387
 2648POPC   GL136097  10.801  33.757   9.110
 2648POPC   GL236098  10.436  33.853   8.996
 2648POPC   C1A36099  10.701  33.517   8.755
 2648POPC   D2A36100  10.438  33.397   8.455
 2648POPC   C3A36101  10.566  33.573   8.090
 2648POPC   C4A36102  10.221  33.744   7.871
 2648POPC   C1B36103  10.721  34.017   8.689
 2648POPC   C2B36104  10.871  33.931   8.300
 2648POPC   C3B36105  10.682  34.021   7.884
 2648POPC   C4B36106  10.581  33.868   7.471
 2649POPC   NC336107  17.569  25.653   9.509
 2649POPC   PO436108  17.887  26.247   9.501
 2649POPC   GL136109  17.648  26.075   9.188
 2649POPC   GL236110  17.804  25.763   9.078
 2649POPC   C1A36111  17.552  26.225   8.772
 2649POPC   D2A36112  17.411  26.392   8.360
 2649POPC   C3A36113  17.613  26.250   7.942
 2649POPC   C4A36114  17.444  26.285   7.491
 2649POPC   C1B36115  17.354  25.775   8.901
 2649POPC   C2B36116  17.279  25.719   8.483
 2649POPC   C3B36117  17.298  25.618   8.078
 2649POPC   C4B36118  17.309  25.884   7.741
 2650POPC   NC336119  41.912  18.152   9.432
 2650POPC   PO436120  41.291  18.420   9.538
 2650POPC   GL136121  41.541  18.349   9.155
 2650POPC   GL236122  41.466  18.012   9.146
 2650POPC   C1A36123  41.681  18.225   8.708
 2650POPC   D2A36124  41.522  18.397   8.305
 2650POPC   C3A36125  41.688  18.386   7.855
 2650POPC   C4A36126  41.671  18.498   7.385
 2650POPC   C1B36127  41.367  17.830   8.740
 2650POPC   C2B36128  41.523  17.820   8.319
 2650POPC   C3B36129  41.539  17.875   7.871
 2650POPC   C4B36130  41.443  18.061   7.474
 2651POPC   NC336131  27.968   9.216   9.738
 2651POPC   PO436132  27.350   9.120   9.579
 2651POPC   GL136133  27.553   9.016   9.180
 2651POPC   GL236134  27.893   8.961   9.282
 2651POPC   C1A36135  27.640   9.163   8.738
 2651POPC   D2A36136  27.625   9.439   8.365
 2651POPC   C3A36137  27.516   9.226   7.972
 2651POPC   C4A36138  27.555   8.768   7.903
 2651POPC   C1B36139  28.013   8.722   8.917
 2651POPC   C2B36140  28.170   8.787   8.526
 2651POPC   C3B36141  27.943   8.609   8.200
 2651POPC   C4B36142  28.067   8.725   7.794
 2652POPC   NC336143   1.805  29.359   9.461
 2652POPC   PO436144   1.834  28.685   9.457
 2652POPC   GL136145   2.099  28.876   9.121
 2652POPC   GL236146   2.086  29.255   9.051
 2652POPC   C1A36147   2.218  28.930   8.695
 2652POPC   D2A36148   1.966  29.146   8.416
 2652POPC   C3A36149   1.924  28.977   8.008
 2652POPC   C4A36150   2.094  28.832   7.576
 2652POPC   C1B36151   1.710  29.397   8.789
 2652POPC   C2B36152   1.547  29.444   8.353
 2652POPC   C3B36153   1.608  29.371   7.898
 2652POPC   C4B36154   1.779  29.636   7.573
 2653POPC   NC336155  43.577  44.067   9.501
 2653POPC   PO436156  44.084  43.630   9.449
 2653POPC   GL136157  43.874  43.850   9.106
 2653POPC   GL236158  43.518  43.946   9.026
 2653POPC   C1A36159  43.813  43.682   8.681
 2653POPC   D2A36160  44.081  43.589   8.364
 2653POPC   C3A36161  43.893  43.715   8.014
 2653POPC   C4A36162  43.818  43.860   7.613
 2653POPC   C1B36163  43.722  44.178   8.721
 2653POPC   C2B36164  43.919  44.136   8.360
 2653POPC   C3B36165  43.757  44.234   7.976
 2653POPC   C4B36166  43.599  44.322   7.587
 2654POPC   NC336167  17.068  42.283   9.439
 2654POPC   PO436168  16.784  42.801   9.567
 2654POPC   GL136169  16.876  42.627   9.124
 2654POPC   GL236170  17.173  42.731   9.019
 2654POPC   C1A36171  17.001  42.273   8.778
 2654POPC   D2A36172  17.193  42.223   8.332
 2654POPC   C3A36173  16.938  42.216   7.978
 2654POPC   C4A36174  16.527  42.096   7.815
 2654POPC   C1B36175  17.202  42.688   8.595
 2654POPC   C2B36176  16.917  42.650   8.256
 2654POPC   C3B36177  16.790  42.682   7.824
 2654POPC   C4B36178  16.688  42.785   7.400
 2655POPC   NC336179  19.183  20.580   9.657
 2655POPC   PO436180  18.673  20.244   9.443
 2655POPC   GL136181  18.742  20.600   9.186
 2655POPC   GL236182  19.091  20.719   9.187
 2655POPC   C1A36183  18.641  20.590   8.763
 2655POPC   D2A36184  18.774  20.457   8.378
 2655POPC   C3A36185  18.565  20.661   8.068
 2655POPC   C4A36186  18.699  20.669   7.640
 2655POPC   C1B36187  19.190  20.576   8.792
 2655POPC   C2B36188  19.238  20.639   8.359
 2655POPC   C3B36189  19.085  20.484   7.950
 2655POPC   C4B36190  19.193  20.679   7.569
 2656POPC   NC336191   1.712   3.128   9.708
 2656POPC   PO436192   2.156   3.636   9.490
 2656POPC   GL136193   2.202   3.680   9.077
 2656POPC   GL236194   1.846   3.727   9.046
 2656POPC   C1A36195   2.086   3.523   8.669
 2656POPC   D2A36196   1.706   3.551   8.468
 2656POPC   C3A36197   1.867   3.434   8.098
 2656POPC   C4A36198   2.118   3.599   7.805
 2656POPC   C1B36199   1.534   3.927   8.813
 2656POPC   C2B36200   1.544   4.043   8.396
 2656POPC   C3B36201   1.567   3.840   8.017
 2656POPC   C4B36202   1.681   3.727   7.578
 2657POPC   NC336203  22.050   4.855   9.417
 2657POPC   PO436204  22.565   5.326   9.218
 2657POPC   GL136205  22.253   5.130   9.048
 2657POPC   GL236206  22.012   5.334   9.178
 2657POPC   C1A36207  22.243   5.024   8.643
 2657POPC   D2A36208  22.515   5.002   8.351
 2657POPC   C3A36209  22.260   5.009   7.978
 2657POPC   C4A36210  22.354   5.205   7.562
 2657POPC   C1B36211  21.796   5.199   8.799
 2657POPC   C2B36212  21.791   5.015   8.390
 2657POPC   C3B36213  21.758   5.189   8.007
 2657POPC   C4B36214  21.862   5.122   7.609
 2658POPC   NC336215  30.332  26.423   9.471
 2658POPC   PO436216  29.993  25.877   9.512
 2658POPC   GL136217  30.097  26.062   9.141
 2658POPC   GL236218  29.880  26.334   9.145
 2658POPC   C1A36219  29.952  25.988   8.729
 2658POPC   D2A36220  29.815  25.819   8.376
 2658POPC   C3A36221  29.960  25.975   8.008
 2658POPC   C4A36222  29.853  25.840   7.600
 2658POPC   C1B36223  30.077  26.477   8.753
 2658POPC   C2B36224  30.162  26.341   8.329
 2658POPC   C3B36225  30.198  26.547   7.926
 2658POPC   C4B36226  30.096  26.273   7.629
 2659POPC   NC336227  11.852  19.187   9.687
 2659POPC   PO436228  11.145  19.133   9.545
 2659POPC   GL136229  11.377  19.175   9.209
 2659POPC   GL236230  11.601  19.432   9.313
 2659POPC   C1A36231  11.375  19.032   8.789
 2659POPC   D2A36232  11.205  19.113   8.374
 2659POPC   C3A36233  11.359  18.948   8.002
 2659POPC   C4A36234  11.322  18.648   7.700
 2659POPC   C1B36235  11.736  19.387   8.874
 2659POPC   C2B36236  11.723  19.210   8.449
 2659POPC   C3B36237  11.536  19.420   8.116
 2659POPC   C4B36238  11.575  19.349   7.719
 2660POPC   NC336239  41.885  41.109   9.234
 2660POPC   PO436240  41.551  40.595   9.660
 2660POPC   GL136241  41.514  40.542   9.227
 2660POPC   GL236242  41.401  40.893   9.211
 2660POPC   C1A36243  41.625  40.626   8.795
 2660POPC   D2A36244  41.859  40.921   8.537
 2660POPC   C3A36245  41.892  40.756   8.122
 2660POPC   C4A36246  41.724  40.966   7.790
 2660POPC   C1B36247  41.309  41.070   8.830
 2660POPC   C2B36248  41.277  40.893   8.433
 2660POPC   C3B36249  41.353  40.717   8.035
 2660POPC   C4B36250  41.247  40.890   7.634
 2661POPC   NC336251  23.193  20.837   9.431
 2661POPC   PO436252  23.809  20.475   9.459
 2661POPC   GL136253  23.560  20.439   9.070
 2661POPC   GL236254  23.525  20.787   9.009
 2661POPC   C1A36255  23.478  20.515   8.582
 2661POPC   D2A36256  23.502  20.450   8.109
 2661POPC   C3A36257  23.722  20.523   7.703
 2661POPC   C4A36258  23.919  20.313   7.333
 2661POPC   C1B36259  23.264  21.008   8.715
 2661POPC   C2B36260  23.237  20.885   8.288
 2661POPC   C3B36261  23.563  20.933   7.965
 2661POPC   C4B36262  23.503  20.977   7.529
 2662POPC   NC336263   1.154   8.453   9.452
 2662POPC   PO436264   1.427   7.830   9.487
 2662POPC   GL136265   1.468   8.181   9.160
 2662POPC   GL236266   1.125   8.162   9.029
 2662POPC   C1A36267   1.444   8.413   8.734
 2662POPC   D2A36268   1.541   8.179   8.337
 2662POPC   C3A36269   1.631   8.418   7.944
 2662POPC   C4A36270   1.607   8.366   7.471
 2662POPC   C1B36271   1.083   8.075   8.578
 2662POPC   C2B36272   1.079   8.343   8.188
 2662POPC   C3B36273   1.087   8.215   7.758
 2662POPC   C4B36274   0.906   7.800   7.638
 2663POPC   NC336275  14.426  15.643   9.644
 2663POPC   PO436276  14.427  16.325   9.611
 2663POPC   GL136277  14.350  16.192   9.163
 2663POPC   GL236278  14.241  15.829   9.058
 2663POPC   C1A36279  14.432  16.214   8.707
 2663POPC   D2A36280  14.237  16.189   8.303
 2663POPC   C3A36281  14.445  16.141   7.910
 2663POPC   C4A36282  14.596  16.121   7.474
 2663POPC   C1B36283  14.185  15.617   8.651
 2663POPC   C2B36284  14.443  15.610   8.296
 2663POPC   C3B36285  14.457  15.610   7.855
 2663POPC   C4B36286  14.132  15.843   7.650
 2664POPC   NC336287  21.761  42.179   9.237
 2664POPC   PO436288  22.394  42.282   9.435
 2664POPC   GL136289  22.170  42.532   9.111
 2664POPC   GL236290  22.111  42.254   8.880
 2664POPC   C1A36291  22.207  42.682   8.676
 2664POPC   D2A36292  22.246  42.382   8.342
 2664POPC   C3A36293  22.162  42.626   8.022
 2664POPC   C4A36294  22.197  42.766   7.617
 2664POPC   C1B36295  21.786  42.365   8.611
 2664POPC   C2B36296  21.737  42.153   8.267
 2664POPC   C3B36297  21.925  42.201   7.921
 2664POPC   C4B36298  21.816  42.424   7.597
 2665POPC   NC336299  35.317   2.272   9.521
 2665POPC   PO436300  35.389   2.960   9.685
 2665POPC   GL136301  35.209   2.865   9.234
 2665POPC   GL236302  35.261   2.536   9.076
 2665POPC   C1A36303  35.248   2.954   8.772
 2665POPC   D2A36304  35.407   2.729   8.390
 2665POPC   C3A36305  35.326   2.836   7.940
 2665POPC   C4A36306  35.472   3.092   7.568
 2665POPC   C1B36307  35.058   2.424   8.683
 2665POPC   C2B36308  34.990   2.486   8.229
 2665POPC   C3B36309  35.207   2.361   7.817
 2665POPC   C4B36310  35.232   2.282   7.350
 2666POPC   NC336311  27.154  36.981   9.674
 2666POPC   PO436312  27.745  36.912   9.434
 2666POPC   GL136313  27.657  37.107   9.114
 2666POPC   GL236314  27.615  36.778   8.928
 2666POPC   C1A36315  27.634  37.286   8.748
 2666POPC   D2A36316  27.575  37.006   8.422
 2666POPC   C3A36317  27.745  37.100   8.051
 2666POPC   C4A36318  27.631  36.898   7.701
 2666POPC   C1B36319  27.421  36.533   8.583
 2666POPC   C2B36320  27.237  36.467   8.184
 2666POPC   C3B36321  27.334  36.504   7.754
 2666POPC   C4B36322  27.459  36.461   7.321
 2667POPC   NC336323  13.134  40.810   9.280
 2667POPC   PO436324  12.471  40.741   9.492
 2667POPC   GL136325  12.688  40.501   9.130
 2667POPC   GL236326  13.039  40.330   9.144
 2667POPC   C1A36327  12.819  40.720   8.727
 2667POPC   D2A36328  12.587  40.922   8.392
 2667POPC   C3A36329  12.836  40.915   8.056
 2667POPC   C4A36330  12.710  40.989   7.688
 2667POPC   C1B36331  12.873  40.215   8.710
 2667POPC   C2B36332  12.579  40.396   8.391
 2667POPC   C3B36333  12.586  40.491   7.939
 2667POPC   C4B36334  12.982  40.505   7.730
 2668POPC   NC336335  26.206  11.560   9.616
 2668POPC   PO436336  25.810  11.038   9.403
 2668POPC   GL136337  26.038  11.185   9.061
 2668POPC   GL236338  26.101  11.541   9.032
 2668POPC   C1A36339  25.965  11.109   8.632
 2668POPC   D2A36340  25.714  11.230   8.291
 2668POPC   C3A36341  26.000  11.334   8.002
 2668POPC   C4A36342  26.084  10.962   7.862
 2668POPC   C1B36343  25.778  11.570   8.696
 2668POPC   C2B36344  25.716  11.735   8.287
 2668POPC   C3B36345  25.605  11.611   7.861
 2668POPC   C4B36346  25.710  11.490   7.441
 2669POPC   NC336347  42.552  42.630   9.505
 2669POPC   PO436348  41.940  42.318   9.476
 2669POPC   GL136349  42.213  42.501   9.087
 2669POPC   GL236350  42.540  42.385   9.065
 2669POPC   C1A36351  42.413  42.482   8.594
 2669POPC   D2A36352  42.488  42.567   8.135
 2669POPC   C3A36353  42.227  42.427   7.837
 2669POPC   C4A36354  42.198  42.064   7.677
 2669POPC   C1B36355  42.675  42.071   8.783
 2669POPC   C2B36356  42.434  41.990   8.396
 2669POPC   C3B36357  42.618  41.940   8.002
 2669POPC   C4B36358  42.730  42.216   7.736
 2670POPC   NC336359   4.553   7.974   9.524
 2670POPC   PO436360   4.128   8.465   9.687
 2670POPC   GL136361   4.311   8.323   9.227
 2670POPC   GL236362   4.612   8.116   9.037
 2670POPC   C1A36363   4.175   8.256   8.792
 2670POPC   D2A36364   4.369   8.193   8.380
 2670POPC   C3A36365   4.093   8.125   8.025
 2670POPC   C4A36366   4.229   8.158   7.594
 2670POPC   C1B36367   4.491   7.798   8.681
 2670POPC   C2B36368   4.447   7.707   8.241
 2670POPC   C3B36369   4.576   7.947   7.877
 2670POPC   C4B36370   4.579   7.809   7.414
 2671POPC   NC336371  43.388  23.809   9.451
 2671POPC   PO436372  44.048  23.666   9.487
 2671POPC   GL136373  43.804  23.760   9.096
 2671POPC   GL236374  43.569  24.035   9.009
 2671POPC   C1A36375  43.743  23.741   8.628
 2671POPC   D2A36376  43.512  23.571   8.305
 2671POPC   C3A36377  43.668  23.829   7.972
 2671POPC   C4A36378  43.898  23.704   7.620
 2671POPC   C1B36379  43.995  24.146   8.797
 2671POPC   C2B36380  44.217  24.191   8.384
 2671POPC   C3B36381  44.229  24.120   7.942
 2671POPC   C4B36382  43.968  24.196   7.571
 2672POPC   NC336383   5.759   9.909   9.434
 2672POPC   PO436384   6.376   9.582   9.445
 2672POPC   GL136385   6.084   9.641   9.113
 2672POPC   GL236386   5.711   9.635   9.003
 2672POPC   C1A36387   6.097   9.763   8.680
 2672POPC   D2A36388   6.029   9.796   8.259
 2672POPC   C3A36389   6.310   9.995   8.021
 2672POPC   C4A36390   6.144  10.095   7.657
 2672POPC   C1B36391   5.444   9.578   8.651
 2672POPC   C2B36392   5.498   9.818   8.260
 2672POPC   C3B36393   5.703   9.794   7.842
 2672POPC   C4B36394   5.489   9.787   7.414
 2673POPC   NC336395  27.003  40.920   9.257
 2673POPC   PO436396  26.397  40.703   9.477
 2673POPC   GL136397  26.594  40.591   9.079
 2673POPC   GL236398  26.943  40.436   9.105
 2673POPC   C1A36399  26.560  40.848   8.678
 2673POPC   D2A36400  26.735  41.064   8.301
 2673POPC   C3A36401  26.819  40.819   7.964
 2673POPC   C4A36402  26.582  40.449   7.805
 2673POPC   C1B36403  26.969  40.534   8.701
 2673POPC   C2B36404  26.821  40.431   8.310
 2673POPC   C3B36405  27.105  40.389   7.969
 2673POPC   C4B36406  27.026  40.555   7.593
 2674POPC   NC336407  27.426   1.430   9.614
 2674POPC   PO436408  27.903   1.052   9.584
 2674POPC   GL136409  27.618   1.071   9.212
 2674POPC   GL236410  27.608   1.425   9.155
 2674POPC   C1A36411  27.531   1.162   8.740
 2674POPC   D2A36412  27.771   0.949   8.413
 2674POPC   C3A36413  27.673   1.050   7.993
 2674POPC   C4A36414  27.452   0.972   7.618
 2674POPC   C1B36415  27.629   1.676   8.820
 2674POPC   C2B36416  27.763   1.803   8.436
 2674POPC   C3B36417  27.678   1.558   8.068
 2674POPC   C4B36418  27.477   1.480   7.658
 2675POPC   NC336419  29.672  30.746   9.315
 2675POPC   PO436420  30.181  30.307   9.494
 2675POPC   GL136421  30.148  30.585   9.113
 2675POPC   GL236422  30.458  30.805   9.024
 2675POPC   C1A36423  29.984  30.793   8.728
 2675POPC   D2A36424  30.083  31.014   8.330
 2675POPC   C3A36425  29.887  30.869   7.959
 2675POPC   C4A36426  29.814  30.606   7.585
 2675POPC   C1B36427  30.416  30.553   8.629
 2675POPC   C2B36428  30.064  30.466   8.329
 2675POPC   C3B36429  30.188  30.472   7.936
 2675POPC   C4B36430  30.368  30.899   7.858
 2676POPC   NC336431  25.138  42.819   9.559
 2676POPC   PO436432  25.338  43.426   9.555
 2676POPC   GL136433  25.397  43.121   9.249
 2676POPC   GL236434  25.050  43.089   9.132
 2676POPC   C1A36435  25.524  43.201   8.845
 2676POPC   D2A36436  25.610  42.997   8.467
 2676POPC   C3A36437  25.425  43.165   8.115
 2676POPC   C4A36438  25.437  43.120   7.657
 2676POPC   C1B36439  25.168  42.860   8.778
 2676POPC   C2B36440  25.146  42.771   8.342
 2676POPC   C3B36441  25.338  42.698   7.921
 2676POPC   C4B36442  25.001  42.869   7.611
 2677POPC   NC336443   4.965  14.014   9.523
 2677POPC   PO436444   4.944  13.358   9.693
 2677POPC   GL136445   5.125  13.642   9.263
 2677POPC   GL236446   5.361  13.507   9.058
 2677POPC   C1A36447   5.066  13.817   8.811
 2677POPC   D2A36448   4.922  13.878   8.375
 2677POPC   C3A36449   5.134  13.697   8.023
 2677POPC   C4A36450   5.044  13.868   7.642
 2677POPC   C1B36451   5.417  13.164   8.751
 2677POPC   C2B36452   5.437  13.114   8.322
 2677POPC   C3B36453   5.558  13.395   8.016
 2677POPC   C4B36454   5.408  13.513   7.589
 2678POPC   NC336455   9.513   8.869   9.519
 2678POPC   PO436456  10.165   9.225   9.408
 2678POPC   GL136457   9.839   9.074   9.127
 2678POPC   GL236458   9.800   8.736   9.095
 2678POPC   C1A36459   9.562   9.036   8.761
 2678POPC   D2A36460   9.392   9.134   8.345
 2678POPC   C3A36461   9.649   9.183   8.005
 2678POPC   C4A36462   9.595   9.079   7.602
 2678POPC   C1B36463  10.027   8.765   8.712
 2678POPC   C2B36464   9.792   8.799   8.330
 2678POPC   C3B36465   9.764   8.665   7.887
 2678POPC   C4B36466  10.007   8.679   7.479
 2679POPC   NC336467   4.819   9.586   9.542
 2679POPC   PO436468   5.499   9.520   9.451
 2679POPC   GL136469   5.208   9.742   9.149
 2679POPC   GL236470   4.985  10.068   9.147
 2679POPC   C1A36471   4.929   9.542   8.839
 2679POPC   D2A36472   4.944   9.250   8.474
 2679POPC   C3A36473   4.980   9.458   8.071
 2679POPC   C4A36474   5.168   9.801   7.842
 2679POPC   C1B36475   5.118   9.999   8.697
 2679POPC   C2B36476   4.984  10.043   8.263
 2679POPC   C3B36477   4.948  10.253   7.866
 2679POPC   C4B36478   5.068  10.130   7.413
 2680POPC   NC336479  13.168   9.301   9.754
 2680POPC   PO436480  13.548   9.872   9.735
 2680POPC   GL136481  13.649   9.859   9.244
 2680POPC   GL236482  13.750   9.534   9.082
 2680POPC   C1A36483  13.492   9.843   8.799
 2680POPC   D2A36484  13.425  10.067   8.443
 2680POPC   C3A36485  13.518   9.856   8.070
 2680POPC   C4A36486  13.446  10.059   7.703
 2680POPC   C1B36487  13.674   9.283   8.740
 2680POPC   C2B36488  13.543   9.270   8.337
 2680POPC   C3B36489  13.674   9.352   7.953
 2680POPC   C4B36490  13.463   9.549   7.639
 2681POPC   NC336491  23.696  15.719   9.775
 2681POPC   PO436492  23.638  16.349   9.545
 2681POPC   GL136493  23.718  16.013   9.278
 2681POPC   GL236494  23.417  16.062   9.140
 2681POPC   C1A36495  23.824  15.897   8.839
 2681POPC   D2A36496  23.942  16.069   8.447
 2681POPC   C3A36497  23.842  15.854   8.059
 2681POPC   C4A36498  23.781  16.012   7.646
 2681POPC   C1B36499  23.307  15.914   8.778
 2681POPC   C2B36500  23.439  16.014   8.404
 2681POPC   C3B36501  23.333  15.849   8.029
 2681POPC   C4B36502  23.499  15.592   7.698
 2682POPC   NC336503  33.179  37.878   9.368
 2682POPC   PO436504  32.978  37.552   9.876
 2682POPC   GL136505  33.014  37.404   9.329
 2682POPC   GL236506  32.805  37.671   9.121
 2682POPC   C1A36507  33.038  37.371   8.820
 2682POPC   D2A36508  33.070  37.266   8.372
 2682POPC   C3A36509  32.945  37.593   8.094
 2682POPC   C4A36510  33.113  37.542   7.703
 2682POPC   C1B36511  32.981  37.914   8.774
 2682POPC   C2B36512  32.971  38.116   8.407
 2682POPC   C3B36513  32.939  38.114   8.000
 2682POPC   C4B36514  32.909  37.980   7.590
 2683POPC   NC336515  23.144  28.701   9.480
 2683POPC   PO436516  23.251  28.103   9.300
 2683POPC   GL136517  22.955  28.335   9.071
 2683POPC   GL236518  23.197  28.557   8.986
 2683POPC   C1A36519  22.834  28.547   8.675
 2683POPC   D2A36520  22.707  28.574   8.297
 2683POPC   C3A36521  22.971  28.355   8.132
 2683POPC   C4A36522  22.933  28.435   7.756
 2683POPC   C1B36523  23.182  28.178   8.649
 2683POPC   C2B36524  23.235  27.937   8.276
 2683POPC   C3B36525  23.247  28.004   7.833
 2683POPC   C4B36526  23.220  28.136   7.418
 2684POPC   NC336527  40.965  10.625   9.587
 2684POPC   PO436528  40.363  10.583   9.284
 2684POPC   GL136529  40.759  10.593   9.117
 2684POPC   GL236530  41.020  10.315   9.190
 2684POPC   C1A36531  40.954  10.806   8.808
 2684POPC   D2A36532  41.040  10.623   8.406
 2684POPC   C3A36533  40.942  10.836   8.021
 2684POPC   C4A36534  40.772  10.597   7.672
 2684POPC   C1B36535  41.229  10.360   8.801
 2684POPC   C2B36536  41.216  10.096   8.447
 2684POPC   C3B36537  41.055  10.065   8.033
 2684POPC   C4B36538  41.160  10.237   7.601
 2685POPC   NC336539  38.779  14.613   9.530
 2685POPC   PO436540  38.136  14.520   9.583
 2685POPC   GL136541  38.386  14.374   9.241
 2685POPC   GL236542  38.676  14.174   9.280
 2685POPC   C1A36543  38.319  14.335   8.818
 2685POPC   D2A36544  38.481  14.116   8.461
 2685POPC   C3A36545  38.331  14.267   8.081
 2685POPC   C4A36546  38.142  14.011   7.753
 2685POPC   C1B36547  38.823  14.091   8.856
 2685POPC   C2B36548  38.986  14.051   8.421
 2685POPC   C3B36549  38.813  14.076   8.008
 2685POPC   C4B36550  38.837  14.176   7.574
 2686POPC   NC336551  28.934  37.216   9.510
 2686POPC   PO436552  29.203  36.618   9.607
 2686POPC   GL136553  29.002  36.753   9.218
 2686POPC   GL236554  29.307  36.600   9.101
 2686POPC   C1A36555  28.911  37.038   8.838
 2686POPC   D2A36556  29.150  37.169   8.428
 2686POPC   C3A36557  29.044  36.999   7.997
 2686POPC   C4A36558  29.049  37.200   7.572
 2686POPC   C1B36559  29.353  36.824   8.743
 2686POPC   C2B36560  29.295  36.634   8.331
 2686POPC   C3B36561  29.422  36.432   7.939
 2686POPC   C4B36562  29.459  36.742   7.616
 2687POPC   NC336563  39.975  24.043   9.807
 2687POPC   PO436564  39.516  23.587   9.612
 2687POPC   GL136565  39.807  23.681   9.211
 2687POPC   GL236566  39.880  24.034   9.097
 2687POPC   C1A36567  39.874  23.487   8.756
 2687POPC   D2A36568  39.720  23.556   8.323
 2687POPC   C3A36569  39.982  23.364   8.030
 2687POPC   C4A36570  40.065  23.525   7.643
 2687POPC   C1B36571  40.195  23.881   8.803
 2687POPC   C2B36572  40.213  23.698   8.389
 2687POPC   C3B36573  40.101  23.894   7.998
 2687POPC   C4B36574  40.376  23.988   7.640
 2688POPC   NC336575  18.488  31.380   9.816
 2688POPC   PO436576  17.991  31.614   9.332
 2688POPC   GL136577  18.022  31.444   8.964
 2688POPC   GL236578  17.763  31.210   9.027
 2688POPC   C1A36579  18.180  31.294   8.554
 2688POPC   D2A36580  18.341  31.389   8.119
 2688POPC   C3A36581  18.125  31.623   7.789
 2688POPC   C4A36582  18.313  31.723   7.422
 2688POPC   C1B36583  17.713  30.917   8.694
 2688POPC   C2B36584  17.756  30.872   8.247
 2688POPC   C3B36585  17.956  31.121   7.899
 2688POPC   C4B36586  18.319  31.184   7.622
 2689POPC   NC336587  26.637   6.801   9.408
 2689POPC   PO436588  26.331   6.234   9.579
 2689POPC   GL136589  26.664   6.293   9.233
 2689POPC   GL236590  26.887   6.582   9.024
 2689POPC   C1A36591  26.594   6.261   8.776
 2689POPC   D2A36592  26.774   6.500   8.482
 2689POPC   C3A36593  26.595   6.486   8.098
 2689POPC   C4A36594  26.932   6.418   7.852
 2689POPC   C1B36595  26.801   6.959   8.715
 2689POPC   C2B36596  26.679   6.999   8.248
 2689POPC   C3B36597  26.771   6.905   7.807
 2689POPC   C4B36598  26.637   7.019   7.377
 2690POPC   NC336599  35.498  10.893   9.352
 2690POPC   PO436600  35.488  10.226   9.583
 2690POPC   GL136601  35.435  10.365   9.183
 2690POPC   GL236602  35.079  10.444   9.180
 2690POPC   C1A36603  35.412  10.538   8.773
 2690POPC   D2A36604  35.278  10.792   8.446
 2690POPC   C3A36605  35.234  10.605   8.044
 2690POPC   C4A36606  35.336  10.761   7.630
 2690POPC   C1B36607  35.044  10.184   8.805
 2690POPC   C2B36608  35.221  10.144   8.392
 2690POPC   C3B36609  35.072  10.104   7.992
 2690POPC   C4B36610  34.952  10.391   7.678
 2691POPC   NC336611  36.185  16.135   9.552
 2691POPC   PO436612  35.826  15.580   9.422
 2691POPC   GL136613  36.053  15.853   9.132
 2691POPC   GL236614  36.226  16.182   9.045
 2691POPC   C1A36615  36.210  15.737   8.764
 2691POPC   D2A36616  36.349  15.806   8.417
 2691POPC   C3A36617  36.153  15.993   8.124
 2691POPC   C4A36618  36.278  15.836   7.713
 2691POPC   C1B36619  36.036  16.207   8.642
 2691POPC   C2B36620  35.734  16.468   8.454
 2691POPC   C3B36621  35.682  16.382   8.009
 2691POPC   C4B36622  35.953  16.223   7.736
 2692POPC   NC336623  33.638   6.602   9.590
 2692POPC   PO436624  34.299   6.598   9.584
 2692POPC   GL136625  34.018   6.724   9.251
 2692POPC   GL236626  33.866   6.415   9.156
 2692POPC   C1A36627  33.951   6.809   8.798
 2692POPC   D2A36628  33.796   6.679   8.367
 2692POPC   C3A36629  33.852   6.909   7.966
 2692POPC   C4A36630  33.935   6.818   7.531
 2692POPC   C1B36631  33.589   6.432   8.788
 2692POPC   C2B36632  33.360   6.407   8.413
 2692POPC   C3B36633  33.600   6.311   8.042
 2692POPC   C4B36634  33.995   6.427   7.845
 2693POPC   NC336635  29.390  20.268   9.575
 2693POPC   PO436636  29.020  19.633   9.524
 2693POPC   GL136637  28.981  19.729   9.127
 2693POPC   GL236638  28.969  20.057   9.112
 2693POPC   C1A36639  29.149  19.574   8.754
 2693POPC   D2A36640  29.371  19.712   8.403
 2693POPC   C3A36641  29.197  19.694   7.999
 2693POPC   C4A36642  28.909  19.932   7.804
 2693POPC   C1B36643  29.344  20.031   8.910
 2693POPC   C2B36644  29.502  20.221   8.571
 2693POPC   C3B36645  29.275  20.236   8.188
 2693POPC   C4B36646  29.384  20.177   7.766
 2694POPC   NC336647   1.651  32.198   9.553
 2694POPC   PO436648   1.035  32.495   9.601
 2694POPC   GL136649   1.268  32.516   9.246
 2694POPC   GL236650   1.262  32.186   9.145
 2694POPC   C1A36651   1.164  32.619   8.823
 2694POPC   D2A36652   1.163  32.426   8.417
 2694POPC   C3A36653   1.366  32.462   8.018
 2694POPC   C4A36654   1.100  32.472   7.664
 2694POPC   C1B36655   0.975  32.126   8.812
 2694POPC   C2B36656   0.916  31.980   8.416
 2694POPC   C3B36657   0.997  32.117   8.011
 2694POPC   C4B36658   1.322  32.019   7.722
 2695POPC   NC336659   7.563  11.555   9.745
 2695POPC   PO436660   7.058  11.113   9.631
 2695POPC   GL136661   7.305  11.316   9.314
 2695POPC   GL236662   7.677  11.346   9.234
 2695POPC   C1A36663   7.270  11.194   8.890
 2695POPC   D2A36664   7.122  11.337   8.508
 2695POPC   C3A36665   7.407  11.154   8.218
 2695POPC   C4A36666   7.264  11.082   7.803
 2695POPC   C1B36667   7.504  11.659   8.939
 2695POPC   C2B36668   7.455  11.770   8.504
 2695POPC   C3B36669   7.333  11.625   8.101
 2695POPC   C4B36670   7.413  11.739   7.713
 2696POPC   NC336671  43.772  28.338   9.542
 2696POPC   PO436672  44.069  27.822   9.218
 2696POPC   GL136673  43.763  28.083   9.069
 2696POPC   GL236674  43.799  28.473   9.049
 2696POPC   C1A36675  43.823  28.146   8.647
 2696POPC   D2A36676  43.589  28.250   8.310
 2696POPC   C3A36677  43.836  28.098   7.994
 2696POPC   C4A36678  43.848  28.138   7.580
 2696POPC   C1B36679  43.823  28.667   8.635
 2696POPC   C2B36680  43.860  28.640   8.181
 2696POPC   C3B36681  43.821  28.630   7.724
 2696POPC   C4B36682  43.606  28.667   7.296
 2697POPC   NC336683  22.356  20.385   9.739
 2697POPC   PO436684  21.994  20.903   9.576
 2697POPC   GL136685  22.036  20.521   9.270
 2697POPC   GL236686  22.356  20.315   9.224
 2697POPC   C1A36687  22.011  20.473   8.804
 2697POPC   D2A36688  22.186  20.754   8.477
 2697POPC   C3A36689  22.232  20.649   8.027
 2697POPC   C4A36690  22.278  20.809   7.559
 2697POPC   C1B36691  22.518  20.408   8.798
 2697POPC   C2B36692  22.423  20.295   8.409
 2697POPC   C3B36693  22.570  20.264   8.027
 2697POPC   C4B36694  22.646  20.481   7.653
 2698POPC   NC336695  37.290  12.557   9.379
 2698POPC   PO436696  36.718  12.658   9.690
 2698POPC   GL136697  36.885  12.867   9.260
 2698POPC   GL236698  37.122  13.186   9.160
 2698POPC   C1A36699  36.778  12.990   8.815
 2698POPC   D2A36700  36.826  13.212   8.428
 2698POPC   C3A36701  36.972  12.965   8.086
 2698POPC   C4A36702  36.918  13.141   7.691
 2698POPC   C1B36703  37.278  12.877   8.845
 2698POPC   C2B36704  37.311  12.660   8.467
 2698POPC   C3B36705  37.285  12.525   8.052
 2698POPC   C4B36706  37.132  12.672   7.660
 2699POPC   NC336707  35.404   8.106   9.514
 2699POPC   PO436708  35.266   8.711   9.501
 2699POPC   GL136709  35.448   8.525   9.135
 2699POPC   GL236710  35.352   8.189   9.030
 2699POPC   C1A36711  35.468   8.513   8.677
 2699POPC   D2A36712  35.238   8.365   8.336
 2699POPC   C3A36713  35.446   8.382   7.978
 2699POPC   C4A36714  35.271   8.248   7.656
 2699POPC   C1B36715  35.583   7.995   8.695
 2699POPC   C2B36716  35.471   7.883   8.266
 2699POPC   C3B36717  35.644   7.904   7.845
 2699POPC   C4B36718  35.592   7.990   7.373
 2700POPC   NC336719  31.062  40.133   9.470
 2700POPC   PO436720  31.588  39.783   9.595
 2700POPC   GL136721  31.542  40.058   9.274
 2700POPC   GL236722  31.507  39.742   9.069
 2700POPC   C1A36723  31.402  40.180   8.868
 2700POPC   D2A36724  31.352  39.901   8.566
 2700POPC   C3A36725  31.250  40.008   8.146
 2700POPC   C4A36726  31.539  40.099   7.787
 2700POPC   C1B36727  31.779  39.636   8.699
 2700POPC   C2B36728  31.972  39.734   8.271
 2700POPC   C3B36729  31.954  39.801   7.816
 2700POPC   C4B36730  31.931  39.959   7.360
 2701POPC   NC336731   5.489  12.314   9.508
 2701POPC   PO436732   5.821  12.955   9.431
 2701POPC   GL136733   5.647  12.788   9.055
 2701POPC   GL236734   5.776  12.461   8.953
 2701POPC   C1A36735   5.793  12.839   8.628
 2701POPC   D2A36736   5.934  13.098   8.330
 2701POPC   C3A36737   5.799  12.884   7.968
 2701POPC   C4A36738   5.534  13.008   7.653
 2701POPC   C1B36739   6.203  12.528   8.687
 2701POPC   C2B36740   6.226  12.682   8.287
 2701POPC   C3B36741   6.428  12.555   7.914
 2701POPC   C4B36742   6.330  12.494   7.450
 2702POPC   NC336743   3.595   1.629   9.390
 2702POPC   PO436744   3.270   2.196   9.428
 2702POPC   GL136745   3.391   2.057   9.074
 2702POPC   GL236746   3.678   2.037   9.099
 2702POPC   C1A36747   3.305   2.018   8.673
 2702POPC   D2A36748   3.411   1.696   8.384
 2702POPC   C3A36749   3.226   1.744   7.988
 2702POPC   C4A36750   3.347   1.902   7.586
 2702POPC   C1B36751   3.763   1.808   8.763
 2702POPC   C2B36752   3.881   1.929   8.374
 2702POPC   C3B36753   3.697   1.923   7.997
 2702POPC   C4B36754   3.760   2.149   7.658
 2703POPC   NC336755  29.310  44.132   9.582
 2703POPC   PO436756  28.880  43.705   9.421
 2703POPC   GL136757  29.077  43.917   9.120
 2703POPC   GL236758  28.916  44.226   9.140
 2703POPC   C1A36759  29.119  43.673   8.734
 2703POPC   D2A36760  29.345  43.412   8.473
 2703POPC   C3A36761  29.131  43.463   8.109
 2703POPC   C4A36762  29.327  43.481   7.736
 2703POPC   C1B36763  29.135  44.293   8.746
 2703POPC   C2B36764  29.160  44.035   8.389
 2703POPC   C3B36765  29.308  43.924   7.996
 2703POPC   C4B36766  29.158  43.962   7.567
 2704POPC   NC336767  42.095  30.173   9.582
 2704POPC   PO436768  42.513  29.674   9.501
 2704POPC   GL136769  42.360  29.903   9.214
 2704POPC   GL236770  42.640  29.934   8.997
 2704POPC   C1A36771  42.198  29.698   8.865
 2704POPC   D2A36772  42.370  29.798   8.485
 2704POPC   C3A36773  42.263  29.518   8.183
 2704POPC   C4A36774  42.059  29.553   7.811
 2704POPC   C1B36775  42.327  30.221   8.819
 2704POPC   C2B36776  42.232  30.314   8.379
 2704POPC   C3B36777  42.229  30.037   8.025
 2704POPC   C4B36778  42.535  29.986   7.705
 2705POPC   NC336779  19.440   1.364   9.475
 2705POPC   PO436780  20.073   1.042   9.426
 2705POPC   GL136781  19.932   1.287   9.080
 2705POPC   GL236782  19.604   1.268   9.011
 2705POPC   C1A36783  20.084   1.341   8.634
 2705POPC   D2A36784  20.124   1.092   8.248
 2705POPC   C3A36785  20.067   1.231   7.822
 2705POPC   C4A36786  19.941   1.080   7.411
 2705POPC   C1B36787  19.419   1.378   8.666
 2705POPC   C2B36788  19.663   1.449   8.341
 2705POPC   C3B36789  19.633   1.141   8.070
 2705POPC   C4B36790  19.510   1.098   7.661
 2706POPC   NC336791  29.726  27.030   9.984
 2706POPC   PO436792  30.126  26.868   9.514
 2706POPC   GL136793  30.015  26.834   9.111
 2706POPC   GL236794  29.683  26.822   9.168
 2706POPC   C1A36795  29.921  26.982   8.699
 2706POPC   D2A36796  29.924  26.790   8.312
 2706POPC   C3A36797  29.877  27.006   7.951
 2706POPC   C4A36798  30.054  27.021   7.583
 2706POPC   C1B36799  29.587  26.612   8.814
 2706POPC   C2B36800  29.651  26.368   8.457
 2706POPC   C3B36801  29.710  26.410   8.033
 2706POPC   C4B36802  29.735  26.613   7.632
 2707POPC   NC336803  28.539   9.331   9.894
 2707POPC   PO436804  28.263   8.850   9.635
 2707POPC   GL136805  28.415   8.958   9.238
 2707POPC   GL236806  28.380   9.289   9.252
 2707POPC   C1A36807  28.582   9.051   8.823
 2707POPC   D2A36808  28.752   9.067   8.432
 2707POPC   C3A36809  28.464   8.965   8.124
 2707POPC   C4A36810  28.557   8.897   7.706
 2707POPC   C1B36811  28.120   9.219   8.895
 2707POPC   C2B36812  28.124   9.306   8.478
 2707POPC   C3B36813  27.989   9.141   8.107
 2707POPC   C4B36814  28.162   9.211   7.717
 2708POPC   NC336815  35.159  39.427   9.521
 2708POPC   PO436816  35.433  38.804   9.660
 2708POPC   GL136817  35.486  38.889   9.231
 2708POPC   GL236818  35.205  39.049   9.172
 2708POPC   C1A36819  35.624  39.152   8.866
 2708POPC   D2A36820  35.503  39.502   8.558
 2708POPC   C3A36821  35.667  39.445   8.140
 2708POPC   C4A36822  35.565  39.518   7.710
 2708POPC   C1B36823  35.131  39.153   8.768
 2708POPC   C2B36824  35.314  39.061   8.389
 2708POPC   C3B36825  35.295  39.125   7.973
 2708POPC   C4B36826  35.218  38.739   7.694
 2709POPC   NC336827   4.630   0.693   9.333
 2709POPC   PO436828   4.999   1.287   9.529
 2709POPC   GL136829   5.047   1.048   9.177
 2709POPC   GL236830   5.397   0.983   9.068
 2709POPC   C1A36831   5.029   1.200   8.779
 2709POPC   D2A36832   4.832   1.101   8.434
 2709POPC   C3A36833   4.978   1.347   8.129
 2709POPC   C4A36834   4.812   1.253   7.737
 2709POPC   C1B36835   5.454   0.903   8.644
 2709POPC   C2B36836   5.238   0.814   8.250
 2709POPC   C3B36837   5.248   1.028   7.844
 2709POPC   C4B36838   5.559   1.339   7.720
 2710POPC   NC336839  16.526   8.123   9.562
 2710POPC   PO436840  17.066   8.477   9.574
 2710POPC   GL136841  16.914   8.375   9.165
 2710POPC   GL236842  16.547   8.319   9.114
 2710POPC   C1A36843  16.831   8.476   8.716
 2710POPC   D2A36844  16.860   8.268   8.298
 2710POPC   C3A36845  16.894   8.340   7.851
 2710POPC   C4A36846  16.921   7.976   7.639
 2710POPC   C1B36847  16.304   8.123   8.794
 2710POPC   C2B36848  16.369   8.065   8.362
 2710POPC   C3B36849  16.422   8.236   7.975
 2710POPC   C4B36850  16.491   8.234   7.521
 2711POPC   NC336851  27.822  35.147   9.424
 2711POPC   PO436852  27.365  35.629   9.563
 2711POPC   GL136853  27.522  35.479   9.144
 2711POPC   GL236854  27.857  35.574   9.084
 2711POPC   C1A36855  27.360  35.236   8.751
 2711POPC   D2A36856  27.501  35.013   8.355
 2711POPC   C3A36857  27.476  35.234   7.934
 2711POPC   C4A36858  27.258  35.623   7.951
 2711POPC   C1B36859  27.787  35.491   8.688
 2711POPC   C2B36860  27.576  35.548   8.352
 2711POPC   C3B36861  27.784  35.643   8.000
 2711POPC   C4B36862  27.629  35.627   7.604
 2712POPC   NC336863  28.810  30.367   9.452
 2712POPC   PO436864  29.289  30.770   9.568
 2712POPC   GL136865  29.172  30.628   9.145
 2712POPC   GL236866  28.819  30.749   9.105
 2712POPC   C1A36867  29.399  30.591   8.718
 2712POPC   D2A36868  29.603  30.747   8.373
 2712POPC   C3A36869  29.479  30.583   8.000
 2712POPC   C4A36870  29.297  30.511   7.621
 2712POPC   C1B36871  28.895  30.479   8.724
 2712POPC   C2B36872  29.087  30.550   8.313
 2712POPC   C3B36873  29.016  30.792   7.940
 2712POPC   C4B36874  28.879  30.804   7.512
 2713POPC   NC336875  30.286  31.582   9.405
 2713POPC   PO436876  29.742  31.203   9.443
 2713POPC   GL136877  29.854  31.166   9.047
 2713POPC   GL236878  29.899  31.521   9.006
 2713POPC   C1A36879  29.659  31.179   8.644
 2713POPC   D2A36880  29.770  31.481   8.350
 2713POPC   C3A36881  29.937  31.393   7.971
 2713POPC   C4A36882  29.818  31.641   7.642
 2713POPC   C1B36883  30.183  31.388   8.674
 2713POPC   C2B36884  30.298  31.602   8.279
 2713POPC   C3B36885  30.245  31.823   7.896
 2713POPC   C4B36886  30.255  31.848   7.439
 2714POPC   NC336887   3.204  29.457   9.569
 2714POPC   PO436888   2.452  29.393   9.403
 2714POPC   GL136889   2.651  29.461   9.034
 2714POPC   GL236890   2.954  29.596   9.143
 2714POPC   C1A36891   2.628  29.239   8.654
 2714POPC   D2A36892   2.436  29.266   8.280
 2714POPC   C3A36893   2.509  29.009   7.900
 2714POPC   C4A36894   2.859  28.851   7.658
 2714POPC   C1B36895   3.003  29.736   8.718
 2714POPC   C2B36896   2.902  29.545   8.287
 2714POPC   C3B36897   3.004  29.300   7.875
 2714POPC   C4B36898   3.008  29.270   7.406
 2715POPC   NC336899  24.197   2.487   9.465
 2715POPC   PO436900  24.622   2.989   9.572
 2715POPC   GL136901  24.442   2.847   9.146
 2715POPC   GL236902  24.576   3.048   8.866
 2715POPC   C1A36903  24.264   2.526   8.807
 2715POPC   D2A36904  24.117   2.626   8.390
 2715POPC   C3A36905  24.231   2.419   8.000
 2715POPC   C4A36906  24.225   2.806   7.774
 2715POPC   C1B36907  24.753   2.685   8.710
 2715POPC   C2B36908  24.941   2.554   8.369
 2715POPC   C3B36909  24.744   2.746   8.058
 2715POPC   C4B36910  24.681   2.562   7.727
 2716POPC   NC336911   9.812  30.814   9.424
 2716POPC   PO436912  10.141  30.197   9.452
 2716POPC   GL136913   9.890  30.410   9.077
 2716POPC   GL236914   9.607  30.692   8.964
 2716POPC   C1A36915   9.976  30.569   8.636
 2716POPC   D2A36916   9.993  30.809   8.246
 2716POPC   C3A36917   9.969  30.558   7.867
 2716POPC   C4A36918   9.582  30.318   7.729
 2716POPC   C1B36919   9.241  30.846   8.687
 2716POPC   C2B36920   9.201  30.932   8.236
 2716POPC   C3B36921   9.554  30.825   7.950
 2716POPC   C4B36922   9.687  30.966   7.527
 2717POPC   NC336923   2.972   9.242   9.468
 2717POPC   PO436924   2.309   9.234   9.398
 2717POPC   GL136925   2.510   8.966   9.080
 2717POPC   GL236926   2.878   8.842   9.093
 2717POPC   C1A36927   2.608   8.937   8.654
 2717POPC   D2A36928   2.900   9.123   8.372
 2717POPC   C3A36929   2.720   9.061   8.008
 2717POPC   C4A36930   2.733   8.936   7.605
 2717POPC   C1B36931   3.127   8.818   8.718
 2717POPC   C2B36932   3.326   8.709   8.320
 2717POPC   C3B36933   3.144   8.766   7.890
 2717POPC   C4B36934   2.967   8.490   7.525
 2718POPC   NC336935   8.124  28.887   9.468
 2718POPC   PO436936   8.586  29.417   9.507
 2718POPC   GL136937   8.346  29.218   9.115
 2718POPC   GL236938   7.998  29.118   9.043
 2718POPC   C1A36939   8.264  29.211   8.630
 2718POPC   D2A36940   8.037  28.872   8.368
 2718POPC   C3A36941   8.141  28.942   7.922
 2718POPC   C4A36942   8.361  29.298   7.767
 2718POPC   C1B36943   7.703  29.335   8.806
 2718POPC   C2B36944   7.685  29.280   8.399
 2718POPC   C3B36945   7.931  29.384   8.048
 2718POPC   C4B36946   7.801  29.418   7.641
 2719POPC   NC336947  32.648  11.446   9.716
 2719POPC   PO436948  32.162  11.040   9.401
 2719POPC   GL136949  32.313  11.349   9.116
 2719POPC   GL236950  32.669  11.427   9.192
 2719POPC   C1A36951  32.166  11.347   8.687
 2719POPC   D2A36952  31.912  11.320   8.336
 2719POPC   C3A36953  32.122  11.217   7.975
 2719POPC   C4A36954  32.087  11.486   7.634
 2719POPC   C1B36955  32.683  11.171   8.796
 2719POPC   C2B36956  32.549  11.161   8.351
 2719POPC   C3B36957  32.771  11.320   7.995
 2719POPC   C4B36958  32.647  11.661   7.721
 2720POPC   NC336959   4.328  13.533   9.373
 2720POPC   PO436960   4.905  13.227   9.137
 2720POPC   GL136961   4.631  13.521   8.946
 2720POPC   GL236962   4.381  13.254   8.879
 2720POPC   C1A36963   4.502  13.897   8.672
 2720POPC   D2A36964   4.428  14.001   8.249
 2720POPC   C3A36965   4.642  13.784   7.933
 2720POPC   C4A36966   4.597  13.694   7.481
 2720POPC   C1B36967   4.083  13.585   8.721
 2720POPC   C2B36968   3.809  13.645   8.382
 2720POPC   C3B36969   3.917  13.827   8.042
 2720POPC   C4B36970   4.191  13.649   7.800
 2721POPC   NC336971  38.769  27.000   9.535
 2721POPC   PO436972  38.126  27.198   9.364
 2721POPC   GL136973  38.381  26.922   9.066
 2721POPC   GL236974  38.712  26.929   9.036
 2721POPC   C1A36975  38.339  26.569   8.765
 2721POPC   D2A36976  38.466  26.406   8.353
 2721POPC   C3A36977  38.325  26.590   7.923
 2721POPC   C4A36978  38.579  26.866   7.649
 2721POPC   C1B36979  38.675  26.952   8.618
 2721POPC   C2B36980  38.357  26.907   8.348
 2721POPC   C3B36981  38.246  27.126   8.029
 2721POPC   C4B36982  38.387  27.355   7.684
 2722POPC   NC336983  44.709  25.061   9.916
 2722POPC   PO436984  44.554  25.552   9.463
 2722POPC   GL136985  44.718  25.448   9.093
 2722POPC   GL236986  44.815  25.159   9.190
 2722POPC   C1A36987  44.730  25.348   8.670
 2722POPC   D2A36988  44.781  25.172   8.294
 2722POPC   C3A36989  44.715  25.440   7.996
 2722POPC   C4A36990  44.447  25.406   7.625
 2722POPC   C1B36991  44.660  24.897   8.869
 2722POPC   C2B36992  44.719  24.694   8.457
 2722POPC   C3B36993  44.614  24.713   8.007
 2722POPC   C4B36994  44.792  25.029   7.734
 2723POPC   NC336995  39.888  42.867   9.421
 2723POPC   PO436996  40.359  43.418   9.421
 2723POPC   GL136997  40.201  43.092   9.097
 2723POPC   GL236998  39.851  43.046   8.933
 2723POPC   C1A36999  40.202  42.837   8.671
 2723POPC   D2A37000  39.947  43.037   8.361
 2723POPC   C3A37001  40.089  43.264   7.992
 2723POPC   C4A37002  39.903  43.489   7.651
 2723POPC   C1B37003  39.622  42.723   8.759
 2723POPC   C2B37004  39.625  42.640   8.326
 2723POPC   C3B37005  39.691  42.849   7.938
 2723POPC   C4B37006  39.603  42.669   7.554
 2724POPC   NC337007  23.505   7.252   9.444
 2724POPC   PO437008  24.015   7.654   9.488
 2724POPC   GL137009  23.818   7.512   9.140
 2724POPC   GL237010  24.003   7.199   9.087
 2724POPC   C1A37011  23.587   7.357   8.777
 2724POPC   D2A37012  23.396   7.501   8.389
 2724POPC   C3A37013  23.530   7.370   7.980
 2724POPC   C4A37014  23.490   7.635   7.639
 2724POPC   C1B37015  24.095   7.458   8.728
 2724POPC   C2B37016  23.905   7.498   8.343
 2724POPC   C3B37017  24.027   7.460   7.905
 2724POPC   C4B37018  23.954   7.182   7.587
 2725POPC   NC337019  16.478  10.712   9.504
 2725POPC   PO437020  16.941  10.249   9.500
 2725POPC   GL137021  16.873  10.408   9.099
 2725POPC   GL237022  17.088  10.214   8.916
 2725POPC   C1A37023  16.644  10.561   8.717
 2725POPC   D2A37024  16.456  10.473   8.282
 2725POPC   C3A37025  16.612  10.282   7.873
 2725POPC   C4A37026  16.640  10.562   7.496
 2725POPC   C1B37027  17.143  10.566   8.639
 2725POPC   C2B37028  17.031  10.802   8.301
 2725POPC   C3B37029  16.833  10.729   7.937
 2725POPC   C4B37030  17.088  10.406   7.702
 2726POPC   NC337031   2.115  44.662   9.590
 2726POPC   PO437032   1.497  44.747   9.683
 2726POPC   GL137033   1.781  44.734   9.222
 2726POPC   GL237034   2.104  44.534   9.113
 2726POPC   C1A37035   1.975  44.887   8.785
 2726POPC   D2A37036   2.207  44.729   8.438
 2726POPC   C3A37037   1.961  44.836   8.096
 2726POPC   C4A37038   2.045   0.020   7.727
 2726POPC   C1B37039   1.764  44.381   8.866
 2726POPC   C2B37040   1.773  44.473   8.447
 2726POPC   C3B37041   2.057  44.325   8.111
 2726POPC   C4B37042   2.225  44.545   7.746
 2727POPC   NC337043  37.451  28.167   9.599
 2727POPC   PO437044  38.018  28.486   9.367
 2727POPC   GL137045  37.768  28.363   9.040
 2727POPC   GL237046  37.662  28.048   9.136
 2727POPC   C1A37047  37.894  28.295   8.624
 2727POPC   D2A37048  37.958  28.531   8.249
 2727POPC   C3A37049  37.751  28.511   7.812
 2727POPC   C4A37050  37.915  28.670   7.399
 2727POPC   C1B37051  37.458  28.056   8.702
 2727POPC   C2B37052  37.557  28.217   8.240
 2727POPC   C3B37053  37.795  28.021   7.857
 2727POPC   C4B37054  37.617  28.146   7.445
 2728POPC   NC337055  41.699  21.278   9.269
 2728POPC   PO437056  41.290  21.775   9.477
 2728POPC   GL137057  41.501  21.710   9.044
 2728POPC   GL237058  41.881  21.696   9.063
 2728POPC   C1A37059  41.391  21.351   8.718
 2728POPC   D2A37060  41.508  21.117   8.375
 2728POPC   C3A37061  41.243  21.198   8.024
 2728POPC   C4A37062  41.330  21.535   7.768
 2728POPC   C1B37063  41.868  21.507   8.673
 2728POPC   C2B37064  41.668  21.590   8.300
 2728POPC   C3B37065  41.769  21.344   7.955
 2728POPC   C4B37066  41.930  21.484   7.570
 2729POPC   NC337067   5.445   0.993   9.571
 2729POPC   PO437068   5.997   1.336   9.474
 2729POPC   GL137069   5.789   1.344   9.087
 2729POPC   GL237070   5.924   1.024   8.994
 2729POPC   C1A37071   5.504   1.408   8.719
 2729POPC   D2A37072   5.500   1.268   8.256
 2729POPC   C3A37073   5.709   0.925   7.990
 2729POPC   C4A37074   6.093   0.794   7.759
 2729POPC   C1B37075   5.955   1.216   8.596
 2729POPC   C2B37076   6.126   1.086   8.214
 2729POPC   C3B37077   6.048   1.299   7.840
 2729POPC   C4B37078   6.006   1.643   7.568
 2730POPC   NC337079  17.717  21.024   9.822
 2730POPC   PO437080  17.516  20.393   9.681
 2730POPC   GL137081  17.419  20.454   9.230
 2730POPC   GL237082  17.413  20.842   9.221
 2730POPC   C1A37083  17.591  20.368   8.794
 2730POPC   D2A37084  17.794  20.226   8.388
 2730POPC   C3A37085  17.643  20.353   7.987
 2730POPC   C4A37086  17.681  20.725   7.753
 2730POPC   C1B37087  17.654  20.974   8.842
 2730POPC   C2B37088  17.634  20.838   8.404
 2730POPC   C3B37089  17.337  20.949   8.063
 2730POPC   C4B37090  17.154  21.228   7.716
 2731POPC   NC337091  40.115  20.056   9.434
 2731POPC   PO437092  39.711  19.536   9.398
 2731POPC   GL137093  40.060  19.641   9.078
 2731POPC   GL237094  40.348  19.906   9.022
 2731POPC   C1A37095  40.225  19.579   8.661
 2731POPC   D2A37096  40.090  19.758   8.289
 2731POPC   C3A37097  40.321  19.745   7.963
 2731POPC   C4A37098  40.038  19.567   7.739
 2731POPC   C1B37099  40.043  20.084   8.683
 2731POPC   C2B37100  39.800  20.162   8.300
 2731POPC   C3B37101  39.884  20.032   7.875
 2731POPC   C4B37102  40.235  20.031   7.558
 2732POPC   NC337103  28.016  27.879   9.513
 2732POPC   PO437104  28.479  27.388   9.570
 2732POPC   GL137105  28.428  27.550   9.160
 2732POPC   GL237106  28.075  27.516   9.134
 2732POPC   C1A37107  28.521  27.853   8.803
 2732POPC   D2A37108  28.465  27.929   8.346
 2732POPC   C3A37109  28.593  27.519   8.134
 2732POPC   C4A37110  28.342  27.379   7.794
 2732POPC   C1B37111  27.967  27.803   8.791
 2732POPC   C2B37112  27.830  27.777   8.359
 2732POPC   C3B37113  28.060  27.911   7.984
 2732POPC   C4B37114  28.504  27.881   7.795
 2733POPC   NC337115  24.214  26.809   9.905
 2733POPC   PO437116  24.595  26.873   9.303
 2733POPC   GL137117  24.473  26.730   8.968
 2733POPC   GL237118  24.237  26.509   9.158
 2733POPC   C1A37119  24.566  26.822   8.552
 2733POPC   D2A37120  24.405  27.112   8.258
 2733POPC   C3A37121  24.627  26.949   7.949
 2733POPC   C4A37122  24.952  27.172   7.847
 2733POPC   C1B37123  24.133  26.428   8.745
 2733POPC   C2B37124  24.089  26.739   8.424
 2733POPC   C3B37125  24.291  26.573   8.092
 2733POPC   C4B37126  24.683  26.428   7.939
 2734POPC   NC337127  14.599  14.753   9.831
 2734POPC   PO437128  14.289  14.307   9.373
 2734POPC   GL137129  14.181  14.356   8.967
 2734POPC   GL237130  14.519  14.253   8.901
 2734POPC   C1A37131  14.164  14.133   8.560
 2734POPC   D2A37132  14.172  14.389   8.183
 2734POPC   C3A37133  14.444  14.259   7.909
 2734POPC   C4A37134  14.349  14.026   7.567
 2734POPC   C1B37135  14.426  14.598   8.594
 2734POPC   C2B37136  14.619  14.663   8.208
 2734POPC   C3B37137  14.743  14.736   7.791
 2734POPC   C4B37138  14.831  14.705   7.319
 2735POPC   NC337139  33.187  43.448   9.502
 2735POPC   PO437140  32.832  42.957   9.317
 2735POPC   GL137141  33.062  43.234   9.053
 2735POPC   GL237142  33.379  43.054   9.047
 2735POPC   C1A37143  32.978  43.472   8.660
 2735POPC   D2A37144  32.882  43.206   8.301
 2735POPC   C3A37145  32.646  43.184   7.911
 2735POPC   C4A37146  32.787  42.936   7.545
 2735POPC   C1B37147  33.328  43.105   8.593
 2735POPC   C2B37148  33.388  43.394   8.243
 2735POPC   C3B37149  33.173  43.246   7.881
 2735POPC   C4B37150  33.064  42.820   7.978
 2736POPC   NC337151  41.174  17.953   9.596
 2736POPC   PO437152  40.521  17.928   9.551
 2736POPC   GL137153  40.646  18.177   9.191
 2736POPC   GL237154  40.977  18.264   9.185
 2736POPC   C1A37155  40.642  18.277   8.739
 2736POPC   D2A37156  40.863  18.580   8.449
 2736POPC   C3A37157  40.750  18.498   7.998
 2736POPC   C4A37158  40.697  18.183   7.659
 2736POPC   C1B37159  41.160  18.301   8.793
 2736POPC   C2B37160  41.093  18.124   8.382
 2736POPC   C3B37161  41.180  18.220   7.947
 2736POPC   C4B37162  41.133  18.445   7.560
 2737POPC   NC337163   0.588   9.277   9.482
 2737POPC   PO437164   0.553   9.954   9.623
 2737POPC   GL137165   0.497   9.956   9.156
 2737POPC   GL237166   0.437   9.587   9.081
 2737POPC   C1A37167   0.446   9.903   8.674
 2737POPC   D2A37168   0.173   9.581   8.441
 2737POPC   C3A37169   0.247   9.560   7.993
 2737POPC   C4A37170   0.482   9.927   7.840
 2737POPC   C1B37171   0.636   9.439   8.682
 2737POPC   C2B37172   0.715   9.591   8.265
 2737POPC   C3B37173   0.837   9.552   7.839
 2737POPC   C4B37174   0.602   9.362   7.513
 2738POPC   NC337175   3.985  30.830   9.423
 2738POPC   PO437176   3.476  30.425   9.238
 2738POPC   GL137177   3.753  30.688   8.997
 2738POPC   GL237178   3.610  31.012   9.125
 2738POPC   C1A37179   3.801  30.718   8.553
 2738POPC   D2A37180   3.519  30.445   8.314
 2738POPC   C3A37181   3.499  30.525   7.898
 2738POPC   C4A37182   3.506  30.919   7.871
 2738POPC   C1B37183   3.424  31.009   8.733
 2738POPC   C2B37184   3.521  31.112   8.331
 2738POPC   C3B37185   3.753  31.330   8.003
 2738POPC   C4B37186   3.814  31.198   7.559
 2739POPC   NC337187  42.959  28.470   9.500
 2739POPC   PO437188  43.424  28.007   9.549
 2739POPC   GL137189  43.320  28.311   9.194
 2739POPC   GL237190  42.947  28.318   9.028
 2739POPC   C1A37191  43.363  28.272   8.771
 2739POPC   D2A37192  43.082  28.429   8.467
 2739POPC   C3A37193  43.118  28.248   8.100
 2739POPC   C4A37194  42.911  28.366   7.749
 2739POPC   C1B37195  42.777  28.696   8.789
 2739POPC   C2B37196  42.913  28.950   8.437
 2739POPC   C3B37197  42.896  28.800   8.013
 2739POPC   C4B37198  42.711  28.792   7.605
 2740POPC   NC337199  37.350  13.501   9.647
 2740POPC   PO437200  37.747  13.948   9.655
 2740POPC   GL137201  37.832  13.726   9.277
 2740POPC   GL237202  37.520  13.564   9.179
 2740POPC   C1A37203  37.917  13.668   8.825
 2740POPC   D2A37204  37.829  13.460   8.438
 2740POPC   C3A37205  37.628  13.607   8.100
 2740POPC   C4A37206  37.755  13.594   7.708
 2740POPC   C1B37207  37.354  13.586   8.774
 2740POPC   C2B37208  37.183  13.632   8.371
 2740POPC   C3B37209  37.164  13.434   8.006
 2740POPC   C4B37210  37.251  13.516   7.585
 2741POPC   NC337211  39.079  44.140   9.570
 2741POPC   PO437212  39.587  43.873   9.386
 2741POPC   GL137213  39.429  44.053   9.052
 2741POPC   GL237214  39.099  43.930   9.071
 2741POPC   C1A37215  39.399  44.009   8.615
 2741POPC   D2A37216  39.635  43.839   8.315
 2741POPC   C3A37217  39.474  44.017   7.958
 2741POPC   C4A37218  39.417  43.713   7.711
 2741POPC   C1B37219  39.062  43.646   8.677
 2741POPC   C2B37220  39.108  43.761   8.247
 2741POPC   C3B37221  38.966  43.575   7.888
 2741POPC   C4B37222  38.977  43.977   7.742
 2742POPC   NC337223   8.717  27.699   9.541
 2742POPC   PO437224   8.188  27.342   9.586
 2742POPC   GL137225   8.156  27.701   9.313
 2742POPC   GL237226   7.818  27.705   9.205
 2742POPC   C1A37227   8.164  27.864   8.871
 2742POPC   D2A37228   8.469  27.927   8.543
 2742POPC   C3A37229   8.442  27.765   8.132
 2742POPC   C4A37230   8.381  27.552   7.745
 2742POPC   C1B37231   8.046  27.356   8.943
 2742POPC   C2B37232   8.181  27.428   8.509
 2742POPC   C3B37233   7.999  27.490   8.104
 2742POPC   C4B37234   7.920  27.239   7.775
 2743POPC   NC337235  30.998  23.255   9.512
 2743POPC   PO437236  30.717  23.919   9.596
 2743POPC   GL137237  30.696  23.751   9.216
 2743POPC   GL237238  31.033  23.681   9.210
 2743POPC   C1A37239  30.451  23.699   8.833
 2743POPC   D2A37240  30.319  23.940   8.470
 2743POPC   C3A37241  30.407  23.789   8.053
 2743POPC   C4A37242  30.494  24.048   7.712
 2743POPC   C1B37243  30.955  23.627   8.797
 2743POPC   C2B37244  30.785  23.742   8.431
 2743POPC   C3B37245  30.880  23.582   8.048
 2743POPC   C4B37246  30.904  23.736   7.683
 2744POPC   NC337247  43.403  19.197   9.582
 2744POPC   PO437248  42.965  18.619   9.484
 2744POPC   GL137249  42.971  18.844   9.152
 2744POPC   GL237250  43.301  18.913   9.166
 2744POPC   C1A37251  42.884  19.128   8.832
 2744POPC   D2A37252  42.894  19.002   8.419
 2744POPC   C3A37253  42.903  19.284   8.083
 2744POPC   C4A37254  42.981  19.156   7.673
 2744POPC   C1B37255  43.351  18.900   8.738
 2744POPC   C2B37256  43.305  18.719   8.362
 2744POPC   C3B37257  43.297  18.945   8.016
 2744POPC   C4B37258  43.527  18.787   7.715
 2745POPC   NC337259  10.243   2.457   9.487
 2745POPC   PO437260  10.469   1.763   9.399
 2745POPC   GL137261  10.376   1.896   9.005
 2745POPC   GL237262  10.315   2.258   9.022
 2745POPC   C1A37263  10.378   1.936   8.568
 2745POPC   D2A37264  10.781   1.906   8.361
 2745POPC   C3A37265  10.686   1.944   7.948
 2745POPC   C4A37266  10.328   1.894   7.628
 2745POPC   C1B37267  10.665   2.318   8.730
 2745POPC   C2B37268  10.533   2.352   8.326
 2745POPC   C3B37269  10.302   2.276   7.988
 2745POPC   C4B37270  10.575   2.345   7.624
 2746POPC   NC337271  11.650   1.804   9.399
 2746POPC   PO437272  12.230   1.918   9.422
 2746POPC   GL137273  12.068   2.168   9.080
 2746POPC   GL237274  11.709   2.092   8.970
 2746POPC   C1A37275  12.071   2.171   8.628
 2746POPC   D2A37276  11.748   2.121   8.314
 2746POPC   C3A37277  11.944   2.189   7.918
 2746POPC   C4A37278  12.252   1.941   7.686
 2746POPC   C1B37279  11.788   1.740   8.690
 2746POPC   C2B37280  11.771   1.590   8.251
 2746POPC   C3B37281  11.726   1.701   7.827
 2746POPC   C4B37282  11.576   2.039   7.601
 2747POPC   NC337283  36.256  30.995   9.640
 2747POPC   PO437284  35.767  30.574   9.496
 2747POPC   GL137285  35.975  30.825   9.208
 2747POPC   GL237286  36.316  30.735   9.220
 2747POPC   C1A37287  35.881  30.757   8.790
 2747POPC   D2A37288  36.057  30.559   8.447
 2747POPC   C3A37289  35.837  30.660   8.105
 2747POPC   C4A37290  35.929  30.844   7.768
 2747POPC   C1B37291  36.391  30.701   8.818
 2747POPC   C2B37292  36.471  30.902   8.460
 2747POPC   C3B37293  36.345  30.791   8.072
 2747POPC   C4B37294  36.263  30.431   7.849
 2748POPC   NC337295  33.216  40.924   9.359
 2748POPC   PO437296  32.639  41.336   9.444
 2748POPC   GL137297  32.804  41.076   9.077
 2748POPC   GL237298  32.670  41.196   8.793
 2748POPC   C1A37299  32.914  40.743   8.739
 2748POPC   D2A37300  33.165  40.784   8.377
 2748POPC   C3A37301  32.881  40.715   8.071
 2748POPC   C4A37302  32.895  40.388   7.764
 2748POPC   C1B37303  33.176  41.188   8.729
 2748POPC   C2B37304  33.549  41.137   8.446
 2748POPC   C3B37305  33.579  40.913   8.058
 2748POPC   C4B37306  33.220  40.868   7.737
 2749POPC   NC337307  41.383  38.739   9.440
 2749POPC   PO437308  40.654  38.603   9.464
 2749POPC   GL137309  40.710  38.381   9.119
 2749POPC   GL237310  41.051  38.571   9.086
 2749POPC   C1A37311  40.552  38.181   8.742
 2749POPC   D2A37312  40.639  37.978   8.379
 2749POPC   C3A37313  40.523  38.155   8.006
 2749POPC   C4A37314  40.225  38.017   7.753
 2749POPC   C1B37315  41.016  38.364   8.702
 2749POPC   C2B37316  40.843  38.448   8.302
 2749POPC   C3B37317  40.915  38.474   7.855
 2749POPC   C4B37318  41.019  38.279   7.445
 2750POPC   NC337319   0.334  44.202   9.655
 2750POPC   PO437320   0.589  43.538   9.584
 2750POPC   GL137321   0.567  43.582   9.145
 2750POPC   GL237322   0.645  43.896   9.142
 2750POPC   C1A37323   0.566  43.621   8.675
 2750POPC   D2A37324   0.592  43.894   8.294
 2750POPC   C3A37325   0.332  43.810   7.895
 2750POPC   C4A37326   0.420  43.705   7.446
 2750POPC   C1B37327   0.251  43.941   8.940
 2750POPC   C2B37328   0.168  44.204   8.593
 2750POPC   C3B37329   0.261  44.258   8.161
 2750POPC   C4B37330   0.183  44.279   7.738
 2751POPC   NC337331   1.517   5.608   9.569
 2751POPC   PO437332   1.038   6.164   9.580
 2751POPC   GL137333   1.161   6.005   9.141
 2751POPC   GL237334   1.345   5.689   9.099
 2751POPC   C1A37335   1.154   5.982   8.670
 2751POPC   D2A37336   1.009   6.255   8.301
 2751POPC   C3A37337   1.298   6.288   7.975
 2751POPC   C4A37338   1.366   5.946   7.798
 2751POPC   C1B37339   1.493   5.394   8.791
 2751POPC   C2B37340   1.483   5.531   8.366
 2751POPC   C3B37341   1.112   5.740   8.189
 2751POPC   C4B37342   0.966   5.613   7.787
 2752POPC   NC337343  17.115   9.652   9.699
 2752POPC   PO437344  17.678  10.018   9.511
 2752POPC   GL137345  17.474   9.877   9.125
 2752POPC   GL237346  17.273   9.562   9.063
 2752POPC   C1A37347  17.582   9.711   8.712
 2752POPC   D2A37348  17.467   9.808   8.308
 2752POPC   C3A37349  17.659   9.534   8.063
 2752POPC   C4A37350  17.691   9.484   7.655
 2752POPC   C1B37351  17.078   9.760   8.661
 2752POPC   C2B37352  16.989   9.569   8.302
 2752POPC   C3B37353  17.190   9.585   7.914
 2752POPC   C4B37354  17.442   9.939   7.779
 2753POPC   NC337355  43.680  27.656   9.390
 2753POPC   PO437356  44.305  27.483   9.589
 2753POPC   GL137357  44.178  27.345   9.107
 2753POPC   GL237358  43.782  27.343   9.019
 2753POPC   C1A37359  44.127  27.472   8.677
 2753POPC   D2A37360  44.101  27.779   8.380
 2753POPC   C3A37361  44.161  27.565   8.024
 2753POPC   C4A37362  43.872  27.626   7.709
 2753POPC   C1B37363  43.587  27.682   8.714
 2753POPC   C2B37364  43.333  27.807   8.311
 2753POPC   C3B37365  43.404  27.834   7.832
 2753POPC   C4B37366  43.524  27.770   7.377
 2754POPC   NC337367  39.374  37.041   9.449
 2754POPC   PO437368  38.835  36.716   9.563
 2754POPC   GL137369  39.068  36.786   9.127
 2754POPC   GL237370  39.289  36.489   9.100
 2754POPC   C1A37371  39.245  37.143   8.806
 2754POPC   D2A37372  39.467  37.327   8.417
 2754POPC   C3A37373  39.210  37.250   8.058
 2754POPC   C4A37374  39.304  36.949   7.720
 2754POPC   C1B37375  39.323  36.650   8.691
 2754POPC   C2B37376  39.432  36.790   8.271
 2754POPC   C3B37377  39.458  36.521   7.903
 2754POPC   C4B37378  39.458  36.523   7.421
 2755POPC   NC337379  31.788  43.292   9.568
 2755POPC   PO437380  32.427  43.312   9.521
 2755POPC   GL137381  32.153  43.113   9.169
 2755POPC   GL237382  32.444  43.005   8.984
 2755POPC   C1A37383  31.970  43.204   8.777
 2755POPC   D2A37384  31.997  43.544   8.474
 2755POPC   C3A37385  31.849  43.507   8.067
 2755POPC   C4A37386  31.830  43.148   7.838
 2755POPC   C1B37387  32.427  43.090   8.560
 2755POPC   C2B37388  32.085  43.016   8.278
 2755POPC   C3B37389  32.068  42.712   7.944
 2755POPC   C4B37390  32.280  42.942   7.639
 2756POPC   NC337391  39.490   7.583   9.460
 2756POPC   PO437392  39.105   7.072   9.513
 2756POPC   GL137393  39.218   7.278   9.119
 2756POPC   GL237394  39.045   7.628   9.107
 2756POPC   C1A37395  39.101   7.267   8.685
 2756POPC   D2A37396  38.968   7.565   8.361
 2756POPC   C3A37397  39.121   7.430   7.997
 2756POPC   C4A37398  39.150   7.469   7.578
 2756POPC   C1B37399  39.313   7.722   8.745
 2756POPC   C2B37400  39.502   7.526   8.340
 2756POPC   C3B37401  39.615   7.560   7.880
 2756POPC   C4B37402  39.626   7.387   7.438
 2757POPC   NC337403  14.155  23.467   9.567
 2757POPC   PO437404  14.709  23.761   9.397
 2757POPC   GL137405  14.470  23.530   9.124
 2757POPC   GL237406  14.175  23.748   9.129
 2757POPC   C1A37407  14.441  23.658   8.686
 2757POPC   D2A37408  14.449  23.981   8.362
 2757POPC   C3A37409  14.592  23.845   7.926
 2757POPC   C4A37410  14.614  23.508   7.605
 2757POPC   C1B37411  14.001  23.930   8.739
 2757POPC   C2B37412  14.015  23.660   8.380
 2757POPC   C3B37413  14.074  23.809   7.989
 2757POPC   C4B37414  14.142  23.873   7.581
 2758POPC   NC337415  10.007  29.152   9.536
 2758POPC   PO437416   9.366  28.959   9.444
 2758POPC   GL137417   9.577  29.279   9.192
 2758POPC   GL237418   9.865  29.110   9.040
 2758POPC   C1A37419   9.620  29.426   8.753
 2758POPC   D2A37420   9.830  29.189   8.420
 2758POPC   C3A37421   9.607  29.402   8.077
 2758POPC   C4A37422   9.317  29.316   7.747
 2758POPC   C1B37423   9.649  28.798   8.764
 2758POPC   C2B37424   9.542  28.576   8.361
 2758POPC   C3B37425   9.592  28.849   8.018
 2758POPC   C4B37426   9.954  29.103   7.884
 2759POPC   NC337427   0.502  37.237   9.423
 2759POPC   PO437428   0.597  36.539   9.502
 2759POPC   GL137429   0.629  36.811   9.157
 2759POPC   GL237430   0.298  36.938   9.054
 2759POPC   C1A37431   0.728  36.992   8.776
 2759POPC   D2A37432   0.517  36.976   8.387
 2759POPC   C3A37433   0.675  37.125   8.021
 2759POPC   C4A37434   0.799  36.810   7.741
 2759POPC   C1B37435   0.081  36.967   8.635
 2759POPC   C2B37436   0.087  37.051   8.138
 2759POPC   C3B37437   0.300  37.008   7.693
 2759POPC   C4B37438   0.225  37.251   7.263
 2760POPC   NC337439   5.649  23.920   9.467
 2760POPC   PO437440   6.164  23.578   9.510
 2760POPC   GL137441   5.902  23.643   9.147
 2760POPC   GL237442   5.889  23.362   9.042
 2760POPC   C1A37443   5.729  23.786   8.758
 2760POPC   D2A37444   5.420  23.630   8.487
 2760POPC   C3A37445   5.505  23.702   8.087
 2760POPC   C4A37446   5.785  23.970   7.871
 2760POPC   C1B37447   5.818  23.307   8.587
 2760POPC   C2B37448   6.187  23.194   8.332
 2760POPC   C3B37449   6.210  23.340   7.920
 2760POPC   C4B37450   5.819  23.463   7.758
 2761POPC   NC337451  10.531  25.228   9.600
 2761POPC   PO437452  10.811  25.053   9.053
 2761POPC   GL137453  10.489  25.297   9.061
 2761POPC   GL237454  10.630  25.592   8.958
 2761POPC   C1A37455  10.218  25.199   8.708
 2761POPC   D2A37456  10.253  25.135   8.257
 2761POPC   C3A37457  10.666  25.244   8.091
 2761POPC   C4A37458  10.866  25.035   7.730
 2761POPC   C1B37459  10.266  25.712   8.734
 2761POPC   C2B37460  10.125  25.618   8.354
 2761POPC   C3B37461  10.308  25.633   7.967
 2761POPC   C4B37462  10.293  25.268   7.731
 2762POPC   NC337463  25.207  12.180   9.660
 2762POPC   PO437464  25.747  11.826   9.603
 2762POPC   GL137465  25.512  11.968   9.197
 2762POPC   GL237466  25.125  11.972   9.170
 2762POPC   C1A37467  25.399  11.902   8.740
 2762POPC   D2A37468  25.336  12.084   8.358
 2762POPC   C3A37469  25.542  12.124   7.968
 2762POPC   C4A37470  25.416  12.272   7.576
 2762POPC   C1B37471  24.993  12.227   8.789
 2762POPC   C2B37472  24.935  12.373   8.373
 2762POPC   C3B37473  24.998  12.264   7.976
 2762POPC   C4B37474  24.765  12.625   7.829
 2763POPC   NC337475   6.518  20.917   9.488
 2763POPC   PO437476   6.679  20.229   9.585
 2763POPC   GL137477   6.783  20.588   9.185
 2763POPC   GL237478   6.682  20.956   9.032
 2763POPC   C1A37479   6.554  20.597   8.722
 2763POPC   D2A37480   6.361  20.481   8.359
 2763POPC   C3A37481   6.659  20.461   8.026
 2763POPC   C4A37482   6.821  20.455   7.616
 2763POPC   C1B37483   6.818  21.082   8.664
 2763POPC   C2B37484   6.861  20.909   8.266
 2763POPC   C3B37485   6.795  21.029   7.852
 2763POPC   C4B37486   6.658  20.928   7.446
 2764POPC   NC337487   7.000  25.899   9.413
 2764POPC   PO437488   7.543  26.128   9.672
 2764POPC   GL137489   7.492  25.987   9.238
 2764POPC   GL237490   7.763  26.176   9.153
 2764POPC   C1A37491   7.288  25.835   8.814
 2764POPC   D2A37492   7.216  25.619   8.396
 2764POPC   C3A37493   7.042  25.779   8.068
 2764POPC   C4A37494   7.139  26.095   7.793
 2764POPC   C1B37495   7.805  25.907   8.799
 2764POPC   C2B37496   7.616  25.925   8.385
 2764POPC   C3B37497   7.715  25.885   7.954
 2764POPC   C4B37498   7.636  26.140   7.601
 2765POPC   NC337499   4.279  11.421   9.329
 2765POPC   PO437500   3.826  11.182   9.818
 2765POPC   GL137501   4.082  10.976   9.335
 2765POPC   GL237502   4.446  10.918   9.208
 2765POPC   C1A37503   4.095  10.941   8.851
 2765POPC   D2A37504   4.010  11.214   8.513
 2765POPC   C3A37505   4.050  11.191   8.067
 2765POPC   C4A37506   3.884  11.258   7.657
 2765POPC   C1B37507   4.586  11.159   8.790
 2765POPC   C2B37508   4.483  11.381   8.361
 2765POPC   C3B37509   4.440  11.599   7.930
 2765POPC   C4B37510   4.649  11.492   7.508
 2766POPC   NC337511  33.258  14.994   9.492
 2766POPC   PO437512  32.724  15.361   9.456
 2766POPC   GL137513  33.064  15.371   9.178
 2766POPC   GL237514  32.988  15.027   9.071
 2766POPC   C1A37515  33.239  15.341   8.739
 2766POPC   D2A37516  33.067  15.196   8.318
 2766POPC   C3A37517  33.151  15.386   7.886
 2766POPC   C4A37518  33.157  15.301   7.410
 2766POPC   C1B37519  32.809  14.859   8.705
 2766POPC   C2B37520  32.685  14.781   8.281
 2766POPC   C3B37521  32.892  14.902   7.911
 2766POPC   C4B37522  32.713  15.048   7.551
 2767POPC   NC337523  19.399  42.468   9.524
 2767POPC   PO437524  18.830  42.199   9.790
 2767POPC   GL137525  18.841  42.302   9.287
 2767POPC   GL237526  19.127  42.458   9.103
 2767POPC   C1A37527  18.896  42.140   8.804
 2767POPC   D2A37528  18.793  42.313   8.373
 2767POPC   C3A37529  18.971  42.097   8.000
 2767POPC   C4A37530  19.294  42.298   7.767
 2767POPC   C1B37531  18.851  42.653   8.825
 2767POPC   C2B37532  19.150  42.638   8.559
 2767POPC   C3B37533  19.153  42.643   8.132
 2767POPC   C4B37534  19.194  42.800   7.750
 2768POPC   NC337535  37.437  11.114   9.428
 2768POPC   PO437536  37.911  11.583   9.642
 2768POPC   GL137537  37.813  11.470   9.154
 2768POPC   GL237538  37.745  11.112   9.035
 2768POPC   C1A37539  37.664  11.490   8.674
 2768POPC   D2A37540  37.796  11.584   8.250
 2768POPC   C3A37541  37.631  11.350   7.904
 2768POPC   C4A37542  37.701  11.402   7.461
 2768POPC   C1B37543  37.488  10.988   8.687
 2768POPC   C2B37544  37.610  10.941   8.251
 2768POPC   C3B37545  37.373  10.822   7.901
 2768POPC   C4B37546  37.276  11.107   7.604
 2769POPC   NC337547  12.251  40.260   9.416
 2769POPC   PO437548  12.042  39.588   9.481
 2769POPC   GL137549  12.247  39.786   9.121
 2769POPC   GL237550  11.942  39.959   9.025
 2769POPC   C1A37551  12.332  40.164   8.800
 2769POPC   D2A37552  11.948  40.305   8.604
 2769POPC   C3A37553  11.965  40.229   8.151
 2769POPC   C4A37554  11.675  40.241   7.791
 2769POPC   C1B37555  12.062  39.750   8.641
 2769POPC   C2B37556  11.954  39.643   8.229
 2769POPC   C3B37557  12.100  39.810   7.848
 2769POPC   C4B37558  12.372  39.910   7.491
 2770POPC   NC337559  27.039  33.025   9.373
 2770POPC   PO437560  27.612  32.943   9.739
 2770POPC   GL137561  27.553  33.049   9.276
 2770POPC   GL237562  27.374  32.789   9.078
 2770POPC   C1A37563  27.670  33.079   8.813
 2770POPC   D2A37564  27.769  33.142   8.381
 2770POPC   C3A37565  27.635  33.075   7.950
 2770POPC   C4A37566  27.934  32.927   7.648
 2770POPC   C1B37567  27.253  32.844   8.637
 2770POPC   C2B37568  27.265  32.834   8.204
 2770POPC   C3B37569  27.281  32.614   7.830
 2770POPC   C4B37570  27.279  32.686   7.379
 2771POPC   NC337571   3.002   8.427   9.421
 2771POPC   PO437572   2.324   8.270   9.512
 2771POPC   GL137573   2.538   8.427   9.152
 2771POPC   GL237574   2.726   8.111   9.130
 2771POPC   C1A37575   2.728   8.451   8.727
 2771POPC   D2A37576   2.834   8.616   8.312
 2771POPC   C3A37577   2.645   8.536   7.932
 2771POPC   C4A37578   2.497   8.292   7.611
 2771POPC   C1B37579   2.874   7.923   8.777
 2771POPC   C2B37580   3.041   8.161   8.433
 2771POPC   C3B37581   3.156   8.278   8.033
 2771POPC   C4B37582   3.204   8.068   7.659
 2772POPC   NC337583   5.722  34.443   9.418
 2772POPC   PO437584   6.346  34.692   9.398
 2772POPC   GL137585   6.056  34.692   9.099
 2772POPC   GL237586   6.059  34.364   9.037
 2772POPC   C1A37587   5.692  34.661   8.800
 2772POPC   D2A37588   5.830  34.554   8.393
 2772POPC   C3A37589   5.667  34.668   8.016
 2772POPC   C4A37590   5.621  34.411   7.688
 2772POPC   C1B37591   6.174  34.104   8.727
 2772POPC   C2B37592   6.102  34.129   8.322
 2772POPC   C3B37593   6.040  34.322   7.941
 2772POPC   C4B37594   6.260  34.261   7.556
 2773POPC   NC337595  30.102  19.569   9.518
 2773POPC   PO437596  29.849  20.145   9.514
 2773POPC   GL137597  29.815  19.817   9.166
 2773POPC   GL237598  30.158  19.675   9.037
 2773POPC   C1A37599  29.756  19.769   8.724
 2773POPC   D2A37600  29.899  19.996   8.353
 2773POPC   C3A37601  29.679  19.836   8.028
 2773POPC   C4A37602  29.769  19.659   7.661
 2773POPC   C1B37603  30.468  19.535   8.733
 2773POPC   C2B37604  30.398  19.760   8.351
 2773POPC   C3B37605  30.238  19.763   7.922
 2773POPC   C4B37606  30.383  19.524   7.562
 2774POPC   NC337607   0.249   1.423   9.396
 2774POPC   PO437608   0.815   1.464   9.700
 2774POPC   GL137609   0.651   1.170   9.204
 2774POPC   GL237610   0.288   1.018   9.069
 2774POPC   C1A37611   0.536   1.263   8.717
 2774POPC   D2A37612   0.279   1.464   8.338
 2774POPC   C3A37613   0.443   1.528   7.908
 2774POPC   C4A37614   0.321   1.294   7.497
 2774POPC   C1B37615   0.217   0.776   8.706
 2774POPC   C2B37616   0.459   0.894   8.373
 2774POPC   C3B37617   0.450   1.042   8.001
 2774POPC   C4B37618   0.665   0.955   7.641
 2775POPC   NC337619  35.722  23.478   9.494
 2775POPC   PO437620  35.436  24.025   9.704
 2775POPC   GL137621  35.355  23.825   9.288
 2775POPC   GL237622  35.253  23.487   9.231
 2775POPC   C1A37623  35.183  23.902   8.894
 2775POPC   D2A37624  35.482  23.954   8.558
 2775POPC   C3A37625  35.382  23.962   8.104
 2775POPC   C4A37626  35.163  23.988   7.720
 2775POPC   C1B37627  35.308  23.408   8.790
 2775POPC   C2B37628  35.317  23.506   8.358
 2775POPC   C3B37629  35.117  23.510   7.955
 2775POPC   C4B37630  34.934  23.260   7.624
 2776POPC   NC337631  28.105   1.486   9.615
 2776POPC   PO437632  28.619   1.921   9.639
 2776POPC   GL137633  28.400   1.699   9.244
 2776POPC   GL237634  28.021   1.766   9.179
 2776POPC   C1A37635  28.375   1.788   8.761
 2776POPC   D2A37636  28.245   1.877   8.308
 2776POPC   C3A37637  28.518   1.873   7.926
 2776POPC   C4A37638  28.638   2.057   7.485
 2776POPC   C1B37639  27.876   2.109   8.892
 2776POPC   C2B37640  27.966   2.321   8.493
 2776POPC   C3B37641  28.002   2.278   8.042
 2776POPC   C4B37642  27.978   1.889   7.819
 2777POPC   NC337643  44.926  13.580   9.524
 2777POPC   PO437644  44.404  13.954   9.326
 2777POPC   GL137645  44.634  13.703   9.081
 2777POPC   GL237646  44.984  13.798   9.082
 2777POPC   C1A37647  44.514  13.635   8.676
 2777POPC   D2A37648  44.281  13.703   8.323
 2777POPC   C3A37649  44.479  13.391   8.087
 2777POPC   C4A37650  44.637  13.477   7.719
 2777POPC   C1B37651   0.003  13.463   8.775
 2777POPC   C2B37652  44.932  13.334   8.335
 2777POPC   C3B37653   0.088  13.464   7.948
 2777POPC   C4B37654  44.989  13.836   7.751
 2778POPC   NC337655  26.931  40.443   9.606
 2778POPC   PO437656  26.575  39.881   9.508
 2778POPC   GL137657  26.639  40.026   9.119
 2778POPC   GL237658  26.359  39.887   8.946
 2778POPC   C1A37659  26.822  40.032   8.729
 2778POPC   D2A37660  26.622  39.955   8.343
 2778POPC   C3A37661  26.932  39.910   8.033
 2778POPC   C4A37662  26.908  40.047   7.623
 2778POPC   C1B37663  26.356  39.553   8.619
 2778POPC   C2B37664  26.343  39.553   8.180
 2778POPC   C3B37665  26.453  39.847   7.841
 2778POPC   C4B37666  26.531  39.804   7.388
 2779POPC   NC337667  11.068  20.575   9.654
 2779POPC   PO437668  11.362  21.201   9.571
 2779POPC   GL137669  11.469  20.772   9.289
 2779POPC   GL237670  11.167  20.545   9.164
 2779POPC   C1A37671  11.563  20.516   8.875
 2779POPC   D2A37672  11.339  20.502   8.516
 2779POPC   C3A37673  11.448  20.508   8.090
 2779POPC   C4A37674  11.486  20.300   7.728
 2779POPC   C1B37675  11.222  20.886   8.857
 2779POPC   C2B37676  11.066  20.942   8.450
 2779POPC   C3B37677  11.144  20.925   8.035
 2779POPC   C4B37678  11.244  20.764   7.653
 2780POPC   NC337679  34.900  44.641   9.576
 2780POPC   PO437680  34.370  44.948   9.538
 2780POPC   GL137681  34.476  44.723   9.150
 2780POPC   GL237682  34.656  44.416   9.178
 2780POPC   C1A37683  34.605  44.850   8.727
 2780POPC   D2A37684  34.835  44.760   8.342
 2780POPC   C3A37685  34.722  44.974   7.975
 2780POPC   C4A37686  34.735  44.876   7.561
 2780POPC   C1B37687  34.787  44.391   8.752
 2780POPC   C2B37688  34.474  44.423   8.419
 2780POPC   C3B37689  34.543  44.500   8.000
 2780POPC   C4B37690  34.534  44.417   7.595
 2781POPC   NC337691  29.483  41.681   9.375
 2781POPC   PO437692  29.980  41.221   9.407
 2781POPC   GL137693  30.114  41.322   9.058
 2781POPC   GL237694  29.942  41.616   9.045
 2781POPC   C1A37695  30.001  41.281   8.662
 2781POPC   D2A37696  29.804  41.369   8.305
 2781POPC   C3A37697  30.069  41.350   7.951
 2781POPC   C4A37698  30.113  41.161   7.537
 2781POPC   C1B37699  29.937  41.849   8.686
 2781POPC   C2B37700  30.135  41.738   8.313
 2781POPC   C3B37701  30.085  41.878   7.895
 2781POPC   C4B37702  29.911  41.657   7.550
 2782POPC   NC337703  20.101  27.211   9.311
 2782POPC   PO437704  19.748  27.802   9.327
 2782POPC   GL137705  19.954  27.619   9.012
 2782POPC   GL237706  19.746  27.352   8.942
 2782POPC   C1A37707  19.956  27.648   8.572
 2782POPC   D2A37708  19.736  27.424   8.266
 2782POPC   C3A37709  19.932  27.462   7.872
 2782POPC   C4A37710  20.150  27.693   7.585
 2782POPC   C1B37711  19.483  27.648   8.702
 2782POPC   C2B37712  19.345  27.760   8.281
 2782POPC   C3B37713  19.538  27.787   7.895
 2782POPC   C4B37714  19.449  27.871   7.461
 2783POPC   NC337715  28.856  28.463   9.527
 2783POPC   PO437716  28.160  28.335   9.558
 2783POPC   GL137717  28.342  28.508   9.176
 2783POPC   GL237718  28.673  28.735   9.135
 2783POPC   C1A37719  28.214  28.282   8.809
 2783POPC   D2A37720  28.006  28.256   8.420
 2783POPC   C3A37721  28.287  28.364   8.081
 2783POPC   C4A37722  28.212  28.285   7.656
 2783POPC   C1B37723  28.724  28.352   8.863
 2783POPC   C2B37724  28.869  28.284   8.447
 2783POPC   C3B37725  28.849  28.185   8.013
 2783POPC   C4B37726  28.680  28.486   7.724
 2784POPC   NC337727  39.341  41.510   9.460
 2784POPC   PO437728  38.916  41.064   9.363
 2784POPC   GL137729  39.076  41.385   9.054
 2784POPC   GL237730  39.053  41.766   9.103
 2784POPC   C1A37731  39.376  41.537   8.746
 2784POPC   D2A37732  39.497  41.323   8.389
 2784POPC   C3A37733  39.375  41.495   8.011
 2784POPC   C4A37734  39.494  41.666   7.648
 2784POPC   C1B37735  38.887  41.688   8.691
 2784POPC   C2B37736  39.138  41.793   8.355
 2784POPC   C3B37737  39.155  41.958   7.949
 2784POPC   C4B37738  39.057  41.863   7.533
 2785POPC   NC337739  20.789  30.406   9.524
 2785POPC   PO437740  20.227  30.550   9.362
 2785POPC   GL137741  20.476  30.554   9.031
 2785POPC   GL237742  20.770  30.738   9.116
 2785POPC   C1A37743  20.551  30.645   8.609
 2785POPC   D2A37744  20.757  30.470   8.285
 2785POPC   C3A37745  20.674  30.667   7.878
 2785POPC   C4A37746  20.509  30.526   7.463
 2785POPC   C1B37747  20.470  31.055   8.886
 2785POPC   C2B37748  20.346  31.097   8.422
 2785POPC   C3B37749  20.236  31.005   7.983
 2785POPC   C4B37750  20.501  31.149   7.667
 2786POPC   NC337751  24.249  41.555   9.789
 2786POPC   PO437752  24.788  41.378   9.551
 2786POPC   GL137753  24.518  41.450   9.195
 2786POPC   GL237754  24.206  41.648   9.230
 2786POPC   C1A37755  24.625  41.588   8.778
 2786POPC   D2A37756  24.587  41.436   8.387
 2786POPC   C3A37757  24.881  41.406   8.061
 2786POPC   C4A37758  24.749  41.573   7.714
 2786POPC   C1B37759  24.212  41.873   8.823
 2786POPC   C2B37760  24.150  41.711   8.410
 2786POPC   C3B37761  24.240  41.558   8.012
 2786POPC   C4B37762  24.291  41.827   7.682
 2787POPC   NC337763   9.585  25.618   9.424
 2787POPC   PO437764  10.072  25.288   9.685
 2787POPC   GL137765  10.018  25.400   9.233
 2787POPC   GL237766   9.771  25.149   9.174
 2787POPC   C1A37767   9.805  25.480   8.802
 2787POPC   D2A37768   9.767  25.234   8.421
 2787POPC   C3A37769   9.852  25.349   7.993
 2787POPC   C4A37770   9.510  25.491   7.756
 2787POPC   C1B37771   9.455  25.075   8.841
 2787POPC   C2B37772   9.293  25.035   8.427
 2787POPC   C3B37773   9.476  24.998   8.026
 2787POPC   C4B37774   9.300  24.843   7.671
 2788POPC   NC337775  25.554  28.942   9.649
 2788POPC   PO437776  24.944  29.179   9.669
 2788POPC   GL137777  25.202  29.108   9.249
 2788POPC   GL237778  25.586  29.175   9.179
 2788POPC   C1A37779  25.159  29.168   8.785
 2788POPC   D2A37780  24.960  29.304   8.396
 2788POPC   C3A37781  25.194  29.234   7.970
 2788POPC   C4A37782  25.310  29.282   7.489
 2788POPC   C1B37783  25.618  28.925   8.776
 2788POPC   C2B37784  25.630  28.932   8.297
 2788POPC   C3B37785  25.601  28.965   7.805
 2788POPC   C4B37786  25.769  29.096   7.405
 2789POPC   NC337787   6.434  29.621   9.465
 2789POPC   PO437788   7.043  29.935   9.670
 2789POPC   GL137789   6.806  29.950   9.252
 2789POPC   GL237790   6.503  30.146   9.304
 2789POPC   C1A37791   6.744  29.834   8.803
 2789POPC   D2A37792   6.775  29.662   8.344
 2789POPC   C3A37793   6.653  29.796   7.894
 2789POPC   C4A37794   6.924  30.050   7.590
 2789POPC   C1B37795   6.311  30.171   8.894
 2789POPC   C2B37796   6.418  30.056   8.476
 2789POPC   C3B37797   6.298  30.104   8.065
 2789POPC   C4B37798   6.432  30.220   7.681
 2790POPC   NC337799  17.027  17.683   9.536
 2790POPC   PO437800  16.340  17.500   9.557
 2790POPC   GL137801  16.647  17.498   9.229
 2790POPC   GL237802  16.628  17.844   9.192
 2790POPC   C1A37803  16.800  17.521   8.798
 2790POPC   D2A37804  16.598  17.365   8.433
 2790POPC   C3A37805  16.627  17.310   7.989
 2790POPC   C4A37806  16.807  17.158   7.617
 2790POPC   C1B37807  16.541  17.985   8.775
 2790POPC   C2B37808  16.660  17.850   8.370
 2790POPC   C3B37809  16.858  17.767   7.987
 2790POPC   C4B37810  17.163  17.446   7.864
 2791POPC   NC337811  37.127  15.810   9.460
 2791POPC   PO437812  36.575  16.055   9.781
 2791POPC   GL137813  36.668  16.066   9.278
 2791POPC   GL237814  37.014  16.126   9.095
 2791POPC   C1A37815  36.689  15.884   8.818
 2791POPC   D2A37816  36.902  15.995   8.450
 2791POPC   C3A37817  36.696  15.913   8.064
 2791POPC   C4A37818  36.753  16.012   7.655
 2791POPC   C1B37819  37.192  16.370   8.743
 2791POPC   C2B37820  37.339  16.242   8.337
 2791POPC   C3B37821  37.089  16.238   8.008
 2791POPC   C4B37822  37.064  16.457   7.672
 2792POPC   NC337823  15.322  35.957   9.250
 2792POPC   PO437824  14.872  36.413   9.331
 2792POPC   GL137825  15.130  36.381   9.019
 2792POPC   GL237826  15.474  36.462   9.141
 2792POPC   C1A37827  15.094  36.167   8.634
 2792POPC   D2A37828  15.109  36.304   8.244
 2792POPC   C3A37829  15.099  35.998   7.974
 2792POPC   C4A37830  15.088  36.250   7.610
 2792POPC   C1B37831  15.573  36.301   8.726
 2792POPC   C2B37832  15.550  36.086   8.346
 2792POPC   C3B37833  15.537  36.233   7.917
 2792POPC   C4B37834  15.506  35.905   7.658
 2793POPC   NC337835  10.672  19.140   9.628
 2793POPC   PO437836  10.076  19.105   9.459
 2793POPC   GL137837  10.414  19.239   9.164
 2793POPC   GL237838  10.796  19.295   9.144
 2793POPC   C1A37839  10.465  19.132   8.748
 2793POPC   D2A37840  10.215  19.070   8.391
 2793POPC   C3A37841  10.399  18.865   8.043
 2793POPC   C4A37842  10.369  18.976   7.612
 2793POPC   C1B37843  10.903  19.381   8.704
 2793POPC   C2B37844  10.714  19.230   8.291
 2793POPC   C3B37845  10.855  19.016   7.895
 2793POPC   C4B37846  10.841  18.734   7.541
 2794POPC   NC337847  20.281  41.998   9.484
 2794POPC   PO437848  19.849  42.556   9.495
 2794POPC   GL137849  19.720  42.358   9.105
 2794POPC   GL237850  19.848  42.001   9.131
 2794POPC   C1A37851  19.445  42.186   8.771
 2794POPC   D2A37852  19.339  42.195   8.339
 2794POPC   C3A37853  19.717  42.259   8.085
 2794POPC   C4A37854  19.803  42.319   7.660
 2794POPC   C1B37855  19.988  42.104   8.707
 2794POPC   C2B37856  20.064  41.905   8.297
 2794POPC   C3B37857  20.088  41.956   7.854
 2794POPC   C4B37858  20.129  42.012   7.378
 2795POPC   NC337859  42.396   0.916   9.662
 2795POPC   PO437860  41.946   1.404   9.570
 2795POPC   GL137861  42.218   1.155   9.246
 2795POPC   GL237862  42.561   1.091   9.120
 2795POPC   C1A37863  42.155   0.990   8.830
 2795POPC   D2A37864  42.175   1.219   8.457
 2795POPC   C3A37865  42.176   1.117   8.074
 2795POPC   C4A37866  42.087   1.364   7.769
 2795POPC   C1B37867  42.611   1.191   8.686
 2795POPC   C2B37868  42.639   1.247   8.230
 2795POPC   C3B37869  42.588   1.202   7.766
 2795POPC   C4B37870  42.627   1.022   7.342
 2796POPC   NC337871  22.182  18.825   9.342
 2796POPC   PO437872  21.753  19.279   9.725
 2796POPC   GL137873  22.147  19.319   9.243
 2796POPC   GL237874  22.423  19.179   9.068
 2796POPC   C1A37875  22.048  19.162   8.754
 2796POPC   D2A37876  22.037  18.856   8.410
 2796POPC   C3A37877  21.842  19.054   8.057
 2796POPC   C4A37878  22.004  19.189   7.635
 2796POPC   C1B37879  22.508  18.909   8.769
 2796POPC   C2B37880  22.569  18.973   8.376
 2796POPC   C3B37881  22.355  18.971   8.008
 2796POPC   C4B37882  22.385  18.722   7.674
 2797POPC   NC337883  21.565  16.875   9.631
 2797POPC   PO437884  20.865  16.671   9.743
 2797POPC   GL137885  21.130  16.949   9.359
 2797POPC   GL237886  21.362  16.711   9.199
 2797POPC   C1A37887  21.285  17.091   8.891
 2797POPC   D2A37888  21.430  16.889   8.501
 2797POPC   C3A37889  21.471  17.050   8.070
 2797POPC   C4A37890  21.323  16.885   7.685
 2797POPC   C1B37891  21.562  16.525   8.847
 2797POPC   C2B37892  21.621  16.378   8.442
 2797POPC   C3B37893  21.530  16.538   8.050
 2797POPC   C4B37894  21.687  16.458   7.660
 2798POPC   NC337895   3.144   0.123   9.525
 2798POPC   PO437896   2.477  44.957   9.617
 2798POPC   GL137897   2.561  44.708   9.278
 2798POPC   GL237898   2.914  44.727   9.222
 2798POPC   C1A37899   2.507  44.771   8.858
 2798POPC   D2A37900   2.729  44.708   8.454
 2798POPC   C3A37901   2.565  44.789   8.057
 2798POPC   C4A37902   2.766  44.722   7.660
 2798POPC   C1B37903   2.964  44.496   8.857
 2798POPC   C2B37904   3.004  44.289   8.477
 2798POPC   C3B37905   3.065  44.452   8.076
 2798POPC   C4B37906   3.026  44.269   7.663
 2799POPC   NC337907  15.585  26.742   9.678
 2799POPC   PO437908  16.223  26.498   9.518
 2799POPC   GL137909  15.933  26.753   9.258
 2799POPC   GL237910  15.670  26.554   9.207
 2799POPC   C1A37911  15.702  26.941   8.893
 2799POPC   D2A37912  15.699  26.816   8.477
 2799POPC   C3A37913  15.948  27.055   8.183
 2799POPC   C4A37914  16.203  26.886   7.857
 2799POPC   C1B37915  15.623  26.408   8.804
 2799POPC   C2B37916  15.659  26.327   8.332
 2799POPC   C3B37917  15.706  26.623   7.959
 2799POPC   C4B37918  15.664  26.679   7.501
 2800POPC   NC337919  20.549  40.291   9.413
 2800POPC   PO437920  20.958  39.824   9.600
 2800POPC   GL137921  20.706  39.837   9.195
 2800POPC   GL237922  20.346  39.967   9.085
 2800POPC   C1A37923  20.764  39.921   8.749
 2800POPC   D2A37924  20.586  40.001   8.325
 2800POPC   C3A37925  20.795  39.964   7.918
 2800POPC   C4A37926  21.039  39.618   7.748
 2800POPC   C1B37927  20.405  40.297   8.757
 2800POPC   C2B37928  20.369  40.452   8.319
 2800POPC   C3B37929  20.239  40.255   7.920
 2800POPC   C4B37930  20.468  40.098   7.559
 2801POPC   NC337931  35.536  25.079   9.271
 2801POPC   PO437932  35.106  25.457   9.436
 2801POPC   GL137933  35.106  25.223   9.004
 2801POPC   GL237934  34.778  24.964   8.990
 2801POPC   C1A37935  35.428  25.099   8.641
 2801POPC   D2A37936  35.663  24.864   8.303
 2801POPC   C3A37937  35.569  25.109   7.922
 2801POPC   C4A37938  35.402  25.534   7.787
 2801POPC   C1B37939  34.937  24.945   8.615
 2801POPC   C2B37940  35.155  24.835   8.289
 2801POPC   C3B37941  35.032  24.837   7.926
 2801POPC   C4B37942  35.068  25.121   7.684
 2802POPC   NC337943  12.179  35.166   9.413
 2802POPC   PO437944  11.788  35.732   9.302
 2802POPC   GL137945  12.013  35.421   8.987
 2802POPC   GL237946  11.902  35.067   9.005
 2802POPC   C1A37947  12.000  35.219   8.543
 2802POPC   D2A37948  11.786  35.218   8.143
 2802POPC   C3A37949  11.864  35.569   7.902
 2802POPC   C4A37950  12.237  35.721   7.752
 2802POPC   C1B37951  12.331  34.913   8.823
 2802POPC   C2B37952  12.471  34.877   8.413
 2802POPC   C3B37953  12.328  35.196   8.141
 2802POPC   C4B37954  12.211  35.189   7.758
 2803POPC   NC337955  40.097  21.668   9.555
 2803POPC   PO437956  39.885  21.089   9.359
 2803POPC   GL137957  39.981  21.431   9.094
 2803POPC   GL237958  40.309  21.631   9.101
 2803POPC   C1A37959  40.133  21.377   8.675
 2803POPC   D2A37960  40.149  21.443   8.240
 2803POPC   C3A37961  39.769  21.432   7.988
 2803POPC   C4A37962  39.899  21.223   7.613
 2803POPC   C1B37963  40.589  21.588   8.782
 2803POPC   C2B37964  40.549  21.768   8.373
 2803POPC   C3B37965  40.382  21.782   7.932
 2803POPC   C4B37966  39.976  21.844   7.765
 2804POPC   NC337967  24.045  14.847   9.563
 2804POPC   PO437968  23.650  14.322   9.654
 2804POPC   GL137969  23.617  14.369   9.197
 2804POPC   GL237970  23.656  14.704   9.185
 2804POPC   C1A37971  23.572  14.428   8.744
 2804POPC   D2A37972  23.292  14.487   8.400
 2804POPC   C3A37973  23.508  14.370   8.020
 2804POPC   C4A37974  23.912  14.256   7.821
 2804POPC   C1B37975  23.802  14.869   8.758
 2804POPC   C2B37976  23.787  14.686   8.326
 2804POPC   C3B37977  23.832  14.793   7.904
 2804POPC   C4B37978  23.783  14.800   7.472
 2805POPC   NC337979  43.125  13.200   9.323
 2805POPC   PO437980  42.952  12.601   9.574
 2805POPC   GL137981  43.095  12.630   9.162
 2805POPC   GL237982  43.424  12.743   9.257
 2805POPC   C1A37983  43.016  12.903   8.776
 2805POPC   D2A37984  42.666  12.979   8.501
 2805POPC   C3A37985  42.828  12.840   8.120
 2805POPC   C4A37986  42.913  12.833   7.691
 2805POPC   C1B37987  43.487  12.716   8.800
 2805POPC   C2B37988  43.328  12.792   8.367
 2805POPC   C3B37989  43.341  12.626   7.938
 2805POPC   C4B37990  43.384  12.842   7.526
 2806POPC   NC337991  10.380  32.868   9.402
 2806POPC   PO437992  10.924  33.334   9.478
 2806POPC   GL137993  10.767  33.177   9.107
 2806POPC   GL237994  10.404  33.175   8.988
 2806POPC   C1A37995  10.842  33.027   8.672
 2806POPC   D2A37996  10.786  33.065   8.225
 2806POPC   C3A37997  10.428  33.102   8.006
 2806POPC   C4A37998  10.450  33.370   7.608
 2806POPC   C1B37999  10.352  32.904   8.581
 2806POPC   C2B38000  10.421  32.627   8.217
 2806POPC   C3B38001  10.280  32.656   7.786
 2806POPC   C4B38002  10.076  33.003   7.654
 2807POPC   NC338003  16.065   7.479   9.971
 2807POPC   PO438004  15.672   7.064   9.691
 2807POPC   GL138005  15.851   7.206   9.269
 2807POPC   GL238006  16.094   6.982   9.161
 2807POPC   C1A38007  15.982   7.543   8.965
 2807POPC   D2A38008  16.051   7.714   8.536
 2807POPC   C3A38009  15.874   7.507   8.198
 2807POPC   C4A38010  15.731   7.561   7.787
 2807POPC   C1B38011  16.328   7.113   8.817
 2807POPC   C2B38012  16.282   7.273   8.457
 2807POPC   C3B38013  16.353   7.345   8.063
 2807POPC   C4B38014  16.107   7.184   7.766
 2808POPC   NC338015   4.871  16.630   9.580
 2808POPC   PO438016   4.283  16.863   9.410
 2808POPC   GL138017   4.054  16.692   9.069
 2808POPC   GL238018   3.791  16.471   9.241
 2808POPC   C1A38019   4.131  16.825   8.644
 2808POPC   D2A38020   4.368  17.110   8.344
 2808POPC   C3A38021   4.479  16.945   7.904
 2808POPC   C4A38022   4.473  16.501   7.768
 2808POPC   C1B38023   3.706  16.433   8.794
 2808POPC   C2B38024   3.840  16.488   8.394
 2808POPC   C3B38025   4.108  16.671   8.139
 2808POPC   C4B38026   4.010  16.737   7.755
 2809POPC   NC338027  29.509  43.193   9.691
 2809POPC   PO438028  30.080  42.825   9.525
 2809POPC   GL138029  29.803  43.049   9.237
 2809POPC   GL238030  29.925  42.837   8.998
 2809POPC   C1A38031  29.709  43.251   8.815
 2809POPC   D2A38032  29.932  43.247   8.413
 2809POPC   C3A38033  29.910  43.540   8.111
 2809POPC   C4A38034  29.886  43.426   7.741
 2809POPC   C1B38035  30.208  42.912   8.666
 2809POPC   C2B38036  30.195  42.795   8.235
 2809POPC   C3B38037  29.997  42.930   7.877
 2809POPC   C4B38038  30.026  43.047   7.456
 2810POPC   NC338039  29.578   4.461   9.841
 2810POPC   PO438040  29.090   4.267   9.622
 2810POPC   GL138041  28.977   4.215   9.143
 2810POPC   GL238042  29.047   4.535   9.018
 2810POPC   C1A38043  28.989   4.156   8.649
 2810POPC   D2A38044  29.087   4.374   8.243
 2810POPC   C3A38045  29.191   4.243   7.805
 2810POPC   C4A38046  29.579   4.219   7.527
 2810POPC   C1B38047  28.749   4.607   8.687
 2810POPC   C2B38048  28.600   4.498   8.299
 2810POPC   C3B38049  28.761   4.524   7.844
 2810POPC   C4B38050  28.824   4.909   7.606
 2811POPC   NC338051   2.780  38.239   9.516
 2811POPC   PO438052   2.980  38.889   9.518
 2811POPC   GL138053   2.818  38.647   9.162
 2811POPC   GL238054   2.491  38.431   9.122
 2811POPC   C1A38055   2.952  38.670   8.749
 2811POPC   D2A38056   2.820  38.567   8.329
 2811POPC   C3A38057   2.842  38.832   7.996
 2811POPC   C4A38058   3.007  38.668   7.612
 2811POPC   C1B38059   2.441  38.501   8.671
 2811POPC   C2B38060   2.351  38.339   8.234
 2811POPC   C3B38061   2.634  38.351   7.859
 2811POPC   C4B38062   2.565  38.259   7.425
 2812POPC   NC338063  31.240  11.530   9.585
 2812POPC   PO438064  30.677  11.159   9.507
 2812POPC   GL138065  30.620  11.294   9.076
 2812POPC   GL238066  30.903  11.527   9.120
 2812POPC   C1A38067  30.678  11.243   8.622
 2812POPC   D2A38068  31.050  11.117   8.368
 2812POPC   C3A38069  30.970  11.238   7.952
 2812POPC   C4A38070  30.525  11.238   7.847
 2812POPC   C1B38071  30.840  11.719   8.701
 2812POPC   C2B38072  30.745  11.597   8.252
 2812POPC   C3B38073  30.757  11.680   7.803
 2812POPC   C4B38074  30.847  11.437   7.435
 2813POPC   NC338075  40.940  30.966   9.416
 2813POPC   PO438076  40.662  30.370   9.458
 2813POPC   GL138077  40.625  30.645   9.103
 2813POPC   GL238078  40.518  31.008   9.157
 2813POPC   C1A38079  40.864  30.611   8.716
 2813POPC   D2A38080  41.108  30.520   8.337
 2813POPC   C3A38081  40.873  30.605   7.945
 2813POPC   C4A38082  40.990  30.749   7.514
 2813POPC   C1B38083  40.806  31.115   8.786
 2813POPC   C2B38084  40.973  31.036   8.383
 2813POPC   C3B38085  40.818  31.108   8.001
 2813POPC   C4B38086  41.032  31.225   7.656
 2814POPC   NC338087  25.773   8.009   9.496
 2814POPC   PO438088  26.019   8.585   9.254
 2814POPC   GL138089  26.089   8.172   9.114
 2814POPC   GL238090  26.461   8.079   9.150
 2814POPC   C1A38091  25.932   8.037   8.721
 2814POPC   D2A38092  25.936   8.372   8.377
 2814POPC   C3A38093  25.835   8.345   7.938
 2814POPC   C4A38094  26.034   8.269   7.535
 2814POPC   C1B38095  26.435   8.009   8.712
 2814POPC   C2B38096  26.221   7.859   8.338
 2814POPC   C3B38097  26.126   7.924   7.910
 2814POPC   C4B38098  26.326   7.815   7.506
 2815POPC   NC338099  19.251  38.009   9.562
 2815POPC   PO438100  18.578  37.902   9.512
 2815POPC   GL138101  18.780  37.934   9.108
 2815POPC   GL238102  18.731  37.597   9.012
 2815POPC   C1A38103  18.844  37.922   8.636
 2815POPC   D2A38104  18.860  37.623   8.293
 2815POPC   C3A38105  19.050  37.789   7.939
 2815POPC   C4A38106  18.785  38.135   7.879
 2815POPC   C1B38107  19.044  37.397   8.755
 2815POPC   C2B38108  19.211  37.246   8.368
 2815POPC   C3B38109  19.100  37.275   7.955
 2815POPC   C4B38110  19.228  37.417   7.552
 2816POPC   NC338111   4.039  38.293   9.759
 2816POPC   PO438112   4.638  38.441   9.468
 2816POPC   GL138113   4.411  38.520   9.097
 2816POPC   GL238114   4.343  38.207   9.138
 2816POPC   C1A38115   4.202  38.581   8.681
 2816POPC   D2A38116   4.060  38.504   8.231
 2816POPC   C3A38117   4.190  38.728   7.854
 2816POPC   C4A38118   4.362  38.569   7.487
 2816POPC   C1B38119   4.471  38.104   8.729
 2816POPC   C2B38120   4.468  38.121   8.304
 2816POPC   C3B38121   4.208  37.962   7.981
 2816POPC   C4B38122   4.015  38.249   7.732
 2817POPC   NC338123  18.039   7.384   9.563
 2817POPC   PO438124  18.643   7.619   9.632
 2817POPC   GL138125  18.339   7.759   9.311
 2817POPC   GL238126  17.980   7.671   9.155
 2817POPC   C1A38127  18.392   7.735   8.878
 2817POPC   D2A38128  18.126   7.657   8.543
 2817POPC   C3A38129  18.188   7.633   8.083
 2817POPC   C4A38130  18.334   7.970   7.816
 2817POPC   C1B38131  18.139   7.279   8.912
 2817POPC   C2B38132  18.201   7.159   8.462
 2817POPC   C3B38133  17.970   7.108   8.080
 2817POPC   C4B38134  18.134   7.136   7.675
 2818POPC   NC338135  33.615  16.814   9.735
 2818POPC   PO438136  33.959  16.223   9.627
 2818POPC   GL138137  33.945  16.595   9.280
 2818POPC   GL238138  33.549  16.718   9.189
 2818POPC   C1A38139  34.037  16.642   8.812
 2818POPC   D2A38140  34.138  16.513   8.357
 2818POPC   C3A38141  33.878  16.658   8.021
 2818POPC   C4A38142  33.964  16.791   7.627
 2818POPC   C1B38143  33.582  16.899   8.779
 2818POPC   C2B38144  33.543  16.641   8.411
 2818POPC   C3B38145  33.367  16.723   7.994
 2818POPC   C4B38146  33.516  17.058   7.757
 2819POPC   NC338147  10.868   1.547   9.221
 2819POPC   PO438148  10.685   1.077   9.651
 2819POPC   GL138149  10.509   1.034   9.209
 2819POPC   GL238150  10.407   1.355   9.102
 2819POPC   C1A38151  10.284   0.959   8.814
 2819POPC   D2A38152  10.504   1.008   8.428
 2819POPC   C3A38153  10.289   0.925   8.063
 2819POPC   C4A38154  10.270   0.812   7.626
 2819POPC   C1B38155  10.454   1.462   8.684
 2819POPC   C2B38156  10.502   1.478   8.259
 2819POPC   C3B38157  10.655   1.245   7.954
 2819POPC   C4B38158  10.684   1.544   7.660
 2820POPC   NC338159  21.086  39.448   9.365
 2820POPC   PO438160  20.463  39.115   9.508
 2820POPC   GL138161  20.623  39.258   9.129
 2820POPC   GL238162  20.383  39.467   9.032
 2820POPC   C1A38163  20.727  39.155   8.681
 2820POPC   D2A38164  20.989  38.951   8.329
 2820POPC   C3A38165  20.838  38.894   7.902
 2820POPC   C4A38166  20.736  39.140   7.553
 2820POPC   C1B38167  20.358  39.606   8.621
 2820POPC   C2B38168  20.333  39.330   8.279
 2820POPC   C3B38169  20.580  39.456   7.927
 2820POPC   C4B38170  20.482  39.566   7.500
 2821POPC   NC338171   6.106  12.625   9.289
 2821POPC   PO438172   6.769  12.639   9.473
 2821POPC   GL138173   6.613  12.866   9.113
 2821POPC   GL238174   6.307  13.091   9.177
 2821POPC   C1A38175   6.827  12.959   8.715
 2821POPC   D2A38176   6.722  12.743   8.362
 2821POPC   C3A38177   6.814  12.944   7.969
 2821POPC   C4A38178   7.021  12.761   7.617
 2821POPC   C1B38179   6.318  13.026   8.702
 2821POPC   C2B38180   6.425  13.163   8.264
 2821POPC   C3B38181   6.274  13.023   7.873
 2821POPC   C4B38182   6.527  12.958   7.543
 2822POPC   NC338183  25.319  15.156   9.369
 2822POPC   PO438184  25.102  14.566   9.375
 2822POPC   GL138185  24.916  14.935   9.136
 2822POPC   GL238186  24.976  15.319   9.016
 2822POPC   C1A38187  24.787  14.973   8.698
 2822POPC   D2A38188  24.787  14.867   8.235
 2822POPC   C3A38189  25.113  15.048   7.944
 2822POPC   C4A38190  25.517  15.088   7.725
 2822POPC   C1B38191  24.859  15.638   8.668
 2822POPC   C2B38192  24.789  15.760   8.211
 2822POPC   C3B38193  25.058  15.664   7.812
 2822POPC   C4B38194  25.079  15.726   7.336
 2823POPC   NC338195   1.604  18.991   9.713
 2823POPC   PO438196   2.235  19.076   9.482
 2823POPC   GL138197   1.886  19.107   9.232
 2823POPC   GL238198   1.695  19.380   9.357
 2823POPC   C1A38199   1.798  19.008   8.808
 2823POPC   D2A38200   1.915  18.908   8.403
 2823POPC   C3A38201   2.083  19.209   8.165
 2823POPC   C4A38202   2.120  19.240   7.766
 2823POPC   C1B38203   1.558  19.425   8.916
 2823POPC   C2B38204   1.603  19.357   8.414
 2823POPC   C3B38205   1.675  19.430   7.928
 2823POPC   C4B38206   1.717  19.224   7.467
 2824POPC   NC338207  30.339  28.122   9.482
 2824POPC   PO438208  29.978  28.608   9.572
 2824POPC   GL138209  29.986  28.412   9.175
 2824POPC   GL238210  29.665  28.469   9.038
 2824POPC   C1A38211  30.049  28.282   8.746
 2824POPC   D2A38212  29.747  28.254   8.427
 2824POPC   C3A38213  29.859  28.287   8.030
 2824POPC   C4A38214  30.209  28.527   7.893
 2824POPC   C1B38215  29.743  28.690   8.678
 2824POPC   C2B38216  29.873  28.748   8.269
 2824POPC   C3B38217  29.631  28.754   7.917
 2824POPC   C4B38218  29.773  28.529   7.590
 2825POPC   NC338219   0.735  11.710   9.341
 2825POPC   PO438220   0.505  12.239   9.642
 2825POPC   GL138221   0.556  12.184   9.145
 2825POPC   GL238222   0.856  12.029   8.963
 2825POPC   C1A38223   0.445  12.122   8.677
 2825POPC   D2A38224   0.112  11.919   8.412
 2825POPC   C3A38225   0.174  11.916   7.954
 2825POPC   C4A38226   0.212  11.908   7.497
 2825POPC   C1B38227   0.739  11.641   8.734
 2825POPC   C2B38228   0.561  11.666   8.397
 2825POPC   C3B38229   0.679  11.894   8.096
 2825POPC   C4B38230   0.620  11.746   7.713
 2826POPC   NC338231  13.869  40.182   9.536
 2826POPC   PO438232  13.292  39.812   9.699
 2826POPC   GL138233  13.458  40.021   9.280
 2826POPC   GL238234  13.784  39.980   9.095
 2826POPC   C1A38235  13.361  40.081   8.838
 2826POPC   D2A38236  13.524  40.084   8.435
 2826POPC   C3A38237  13.268  40.146   8.078
 2826POPC   C4A38238  13.356  40.077   7.665
 2826POPC   C1B38239  13.949  40.194   8.725
 2826POPC   C2B38240  14.017  40.072   8.287
 2826POPC   C3B38241  13.819  40.180   7.892
 2826POPC   C4B38242  13.727  40.342   7.456
 2827POPC   NC338243   0.945  10.090   9.419
 2827POPC   PO438244   1.375  10.537   9.671
 2827POPC   GL138245   1.289  10.499   9.216
 2827POPC   GL238246   1.500  10.785   9.122
 2827POPC   C1A38247   1.126  10.380   8.772
 2827POPC   D2A38248   1.315  10.399   8.324
 2827POPC   C3A38249   1.087  10.572   7.955
 2827POPC   C4A38250   1.180  10.564   7.517
 2827POPC   C1B38251   1.434  10.773   8.704
 2827POPC   C2B38252   1.222  10.891   8.353
 2827POPC   C3B38253   1.482  10.905   7.964
 2827POPC   C4B38254   1.446  10.990   7.531
 2828POPC   NC338255  28.637  10.984   9.472
 2828POPC   PO438256  28.255  10.451   9.693
 2828POPC   GL138257  28.273  10.420   9.226
 2828POPC   GL238258  28.587  10.577   9.157
 2828POPC   C1A38259  28.090  10.524   8.793
 2828POPC   D2A38260  27.877  10.587   8.370
 2828POPC   C3A38261  28.134  10.601   7.990
 2828POPC   C4A38262  28.195  10.215   7.739
 2828POPC   C1B38263  28.720  10.452   8.761
 2828POPC   C2B38264  28.860  10.519   8.360
 2828POPC   C3B38265  28.824  10.268   8.018
 2828POPC   C4B38266  28.631  10.506   7.745
 2829POPC   NC338267  21.260   4.635   9.535
 2829POPC   PO438268  21.615   5.193   9.440
 2829POPC   GL138269  21.428   4.941   9.124
 2829POPC   GL238270  21.674   4.779   9.044
 2829POPC   C1A38271  21.319   5.071   8.688
 2829POPC   D2A38272  21.300   4.941   8.260
 2829POPC   C3A38273  21.260   5.293   8.031
 2829POPC   C4A38274  21.430   5.476   7.699
 2829POPC   C1B38275  21.902   4.645   8.726
 2829POPC   C2B38276  22.030   4.555   8.329
 2829POPC   C3B38277  21.803   4.689   7.949
 2829POPC   C4B38278  21.415   4.883   7.759
 2830POPC   NC338279  15.937  21.673   9.597
 2830POPC   PO438280  15.818  20.969   9.601
 2830POPC   GL138281  15.886  21.249   9.296
 2830POPC   GL238282  16.120  21.046   9.141
 2830POPC   C1A38283  16.021  21.510   8.940
 2830POPC   D2A38284  15.920  21.535   8.487
 2830POPC   C3A38285  16.249  21.484   8.171
 2830POPC   C4A38286  16.231  21.483   7.701
 2830POPC   C1B38287  15.803  21.056   8.820
 2830POPC   C2B38288  15.898  21.024   8.398
 2830POPC   C3B38289  15.850  21.221   8.010
 2830POPC   C4B38290  15.847  21.080   7.610
 2831POPC   NC338291  30.597  37.821   9.599
 2831POPC   PO438292  30.879  37.267   9.477
 2831POPC   GL138293  30.778  37.639   9.156
 2831POPC   GL238294  30.524  37.954   9.119
 2831POPC   C1A38295  30.835  37.759   8.719
 2831POPC   D2A38296  31.008  37.668   8.309
 2831POPC   C3A38297  30.775  37.842   7.971
 2831POPC   C4A38298  30.565  37.586   7.663
 2831POPC   C1B38299  30.350  37.645   8.839
 2831POPC   C2B38300  30.326  37.637   8.378
 2831POPC   C3B38301  30.238  37.840   7.987
 2831POPC   C4B38302  30.411  38.095   7.693
 2832POPC   NC338303   1.373  10.978   9.581
 2832POPC   PO438304   0.959  11.446   9.642
 2832POPC   GL138305   1.142  11.305   9.224
 2832POPC   GL238306   1.509  11.308   9.159
 2832POPC   C1A38307   1.104  11.188   8.776
 2832POPC   D2A38308   1.010  11.393   8.376
 2832POPC   C3A38309   1.073  11.199   7.983
 2832POPC   C4A38310   1.026  11.450   7.676
 2832POPC   C1B38311   1.628  11.253   8.731
 2832POPC   C2B38312   1.507  11.297   8.286
 2832POPC   C3B38313   1.528  11.444   7.844
 2832POPC   C4B38314   1.661  11.418   7.411
 2833POPC   NC338315  36.290  15.546   9.524
 2833POPC   PO438316  36.003  14.970   9.627
 2833POPC   GL138317  35.977  15.111   9.185
 2833POPC   GL238318  36.177  15.356   9.083
 2833POPC   C1A38319  36.117  15.007   8.749
 2833POPC   D2A38320  36.227  15.283   8.438
 2833POPC   C3A38321  36.184  15.029   8.087
 2833POPC   C4A38322  36.277  15.121   7.679
 2833POPC   C1B38323  35.817  15.429   8.779
 2833POPC   C2B38324  35.842  15.631   8.384
 2833POPC   C3B38325  35.995  15.504   8.007
 2833POPC   C4B38326  35.831  15.570   7.624
 2834POPC   NC338327  39.619  15.897   9.550
 2834POPC   PO438328  39.518  16.488   9.829
 2834POPC   GL138329  39.235  16.246   9.411
 2834POPC   GL238330  39.341  16.005   9.154
 2834POPC   C1A38331  39.055  16.378   8.970
 2834POPC   D2A38332  39.088  16.328   8.508
 2834POPC   C3A38333  38.836  16.099   8.180
 2834POPC   C4A38334  38.950  16.220   7.752
 2834POPC   C1B38335  39.050  15.874   8.845
 2834POPC   C2B38336  39.180  15.791   8.440
 2834POPC   C3B38337  39.362  16.040   8.123
 2834POPC   C4B38338  39.514  15.784   7.809
 2835POPC   NC338339   0.334  12.673   9.626
 2835POPC   PO438340   0.774  13.202   9.644
 2835POPC   GL138341   0.716  12.797   9.320
 2835POPC   GL238342   0.926  12.483   9.338
 2835POPC   C1A38343   0.376  12.718   8.954
 2835POPC   D2A38344   0.229  13.015   8.603
 2835POPC   C3A38345   0.251  12.986   8.120
 2835POPC   C4A38346   0.355  12.736   7.766
 2835POPC   C1B38347   0.844  12.543   8.879
 2835POPC   C2B38348   0.572  12.600   8.492
 2835POPC   C3B38349   0.407  12.335   8.180
 2835POPC   C4B38350   0.519  12.253   7.765
 2836POPC   NC338351  34.194  23.542   9.413
 2836POPC   PO438352  34.728  23.925   9.539
 2836POPC   GL138353  34.561  23.816   9.153
 2836POPC   GL238354  34.282  24.019   9.080
 2836POPC   C1A38355  34.715  23.709   8.742
 2836POPC   D2A38356  34.969  23.926   8.431
 2836POPC   C3A38357  34.769  23.873   8.079
 2836POPC   C4A38358  34.744  23.722   7.671
 2836POPC   C1B38359  34.156  23.752   8.729
 2836POPC   C2B38360  34.330  23.655   8.316
 2836POPC   C3B38361  34.298  23.817   7.890
 2836POPC   C4B38362  34.351  23.914   7.429
 2837POPC   NC338363  27.684  38.093   9.492
 2837POPC   PO438364  27.441  37.407   9.530
 2837POPC   GL138365  27.608  37.667   9.154
 2837POPC   GL238366  27.487  38.027   9.042
 2837POPC   C1A38367  27.798  37.789   8.724
 2837POPC   D2A38368  27.757  37.565   8.331
 2837POPC   C3A38369  27.660  37.579   7.911
 2837POPC   C4A38370  27.339  37.326   7.724
 2837POPC   C1B38371  27.338  38.171   8.640
 2837POPC   C2B38372  27.359  37.983   8.216
 2837POPC   C3B38373  27.169  37.775   7.869
 2837POPC   C4B38374  26.976  37.823   7.458
 2838POPC   NC338375  21.810  19.614   9.412
 2838POPC   PO438376  21.203  19.766   9.475
 2838POPC   GL138377  21.448  19.902   9.103
 2838POPC   GL238378  21.786  20.069   9.088
 2838POPC   C1A38379  21.467  19.696   8.689
 2838POPC   D2A38380  21.111  19.664   8.399
 2838POPC   C3A38381  21.073  19.748   7.991
 2838POPC   C4A38382  21.412  19.805   7.755
 2838POPC   C1B38383  21.539  20.200   8.688
 2838POPC   C2B38384  21.499  20.007   8.267
 2838POPC   C3B38385  21.737  20.134   7.947
 2838POPC   C4B38386  21.589  20.239   7.544
 2839POPC   NC338387   3.919  26.751   9.432
 2839POPC   PO438388   4.316  27.234   9.514
 2839POPC   GL138389   4.334  26.989   9.156
 2839POPC   GL238390   4.248  26.632   9.048
 2839POPC   C1A38391   4.283  27.057   8.740
 2839POPC   D2A38392   4.293  26.784   8.419
 2839POPC   C3A38393   4.164  26.993   8.043
 2839POPC   C4A38394   4.380  27.130   7.686
 2839POPC   C1B38395   4.017  26.377   8.709
 2839POPC   C2B38396   3.980  26.434   8.232
 2839POPC   C3B38397   4.207  26.537   7.837
 2839POPC   C4B38398   4.172  26.414   7.406
 2840POPC   NC338399  30.036   0.015   9.475
 2840POPC   PO438400  29.713  44.375   9.572
 2840POPC   GL138401  29.892  44.599   9.242
 2840POPC   GL238402  29.681  44.856   9.133
 2840POPC   C1A38403  30.145  44.616   8.865
 2840POPC   D2A38404  29.973  44.702   8.474
 2840POPC   C3A38405  30.169  44.687   8.077
 2840POPC   C4A38406  30.060  44.385   7.775
 2840POPC   C1B38407  29.349  44.899   8.832
 2840POPC   C2B38408  29.474  44.813   8.405
 2840POPC   C3B38409  29.668  44.771   7.996
 2840POPC   C4B38410  29.576   0.017   7.636
 2841POPC   NC338411  39.630  34.714   9.554
 2841POPC   PO438412  39.819  34.072   9.534
 2841POPC   GL138413  39.914  34.382   9.214
 2841POPC   GL238414  40.239  34.550   9.221
 2841POPC   C1A38415  39.808  34.559   8.811
 2841POPC   D2A38416  39.762  34.386   8.413
 2841POPC   C3A38417  39.940  34.527   8.041
 2841POPC   C4A38418  39.712  34.740   7.733
 2841POPC   C1B38419  40.207  34.855   8.868
 2841POPC   C2B38420  40.067  34.875   8.452
 2841POPC   C3B38421  40.277  35.014   8.100
 2841POPC   C4B38422  40.217  34.843   7.732
 2842POPC   NC338423   3.294  16.328   9.581
 2842POPC   PO438424   3.487  15.727   9.789
 2842POPC   GL138425   3.558  15.952   9.319
 2842POPC   GL238426   3.361  16.216   9.109
 2842POPC   C1A38427   3.594  15.842   8.851
 2842POPC   D2A38428   3.851  15.993   8.492
 2842POPC   C3A38429   3.697  15.870   8.057
 2842POPC   C4A38430   3.523  15.904   7.619
 2842POPC   C1B38431   3.251  16.191   8.695
 2842POPC   C2B38432   3.398  16.242   8.267
 2842POPC   C3B38433   3.165  16.251   7.856
 2842POPC   C4B38434   3.122  16.240   7.376
 2843POPC   NC338435   5.330  17.381  10.055
 2843POPC   PO438436   4.892  17.087   9.676
 2843POPC   GL138437   4.886  17.194   9.184
 2843POPC   GL238438   4.953  17.550   9.146
 2843POPC   C1A38439   4.715  17.316   8.732
 2843POPC   D2A38440   4.780  17.558   8.335
 2843POPC   C3A38441   4.923  17.386   7.933
 2843POPC   C4A38442   5.231  17.331   7.568
 2843POPC   C1B38443   4.842  17.846   8.790
 2843POPC   C2B38444   4.907  18.053   8.370
 2843POPC   C3B38445   4.986  17.949   7.917
 2843POPC   C4B38446   5.347  17.812   7.673
 2844POPC   NC338447  13.436  30.973   9.451
 2844POPC   PO438448  13.915  30.451   9.615
 2844POPC   GL138449  13.736  30.673   9.225
 2844POPC   GL238450  13.409  30.540   9.172
 2844POPC   C1A38451  13.689  30.799   8.788
 2844POPC   D2A38452  13.967  30.794   8.413
 2844POPC   C3A38453  13.950  30.547   8.039
 2844POPC   C4A38454  13.911  30.793   7.672
 2844POPC   C1B38455  13.185  30.650   8.802
 2844POPC   C2B38456  13.306  30.849   8.416
 2844POPC   C3B38457  13.497  30.790   8.010
 2844POPC   C4B38458  13.539  30.473   7.668
 2845POPC   NC338459   0.012  31.942   9.491
 2845POPC   PO438460   0.477  31.391   9.466
 2845POPC   GL138461   0.537  31.690   9.166
 2845POPC   GL238462   0.197  31.772   9.037
 2845POPC   C1A38463   0.763  31.644   8.799
 2845POPC   D2A38464   0.544  31.624   8.423
 2845POPC   C3A38465   0.605  31.808   8.067
 2845POPC   C4A38466   0.611  31.564   7.754
 2845POPC   C1B38467   0.256  31.395   8.767
 2845POPC   C2B38468   0.341  31.174   8.333
 2845POPC   C3B38469   0.524  31.084   7.934
 2845POPC   C4B38470   0.296  30.953   7.572
 2846POPC   NC338471   7.488  13.437   9.803
 2846POPC   PO438472   8.122  13.538   9.502
 2846POPC   GL138473   8.211  13.461   9.098
 2846POPC   GL238474   8.002  13.215   9.030
 2846POPC   C1A38475   8.090  13.635   8.679
 2846POPC   D2A38476   8.336  13.759   8.326
 2846POPC   C3A38477   8.164  13.721   7.919
 2846POPC   C4A38478   8.090  14.076   7.637
 2846POPC   C1B38479   8.262  13.166   8.675
 2846POPC   C2B38480   8.105  13.250   8.251
 2846POPC   C3B38481   8.258  13.234   7.809
 2846POPC   C4B38482   8.182  13.382   7.369
 2847POPC   NC338483  26.283  36.228   9.486
 2847POPC   PO438484  26.540  35.654   9.531
 2847POPC   GL138485  26.224  35.750   9.157
 2847POPC   GL238486  26.082  36.108   9.051
 2847POPC   C1A38487  26.104  35.758   8.694
 2847POPC   D2A38488  26.081  36.093   8.365
 2847POPC   C3A38489  25.951  36.008   7.918
 2847POPC   C4A38490  25.815  35.805   7.495
 2847POPC   C1B38491  25.909  36.450   8.794
 2847POPC   C2B38492  25.849  36.546   8.364
 2847POPC   C3B38493  25.860  36.517   7.921
 2847POPC   C4B38494  25.878  36.319   7.506
 2848POPC   NC338495  31.188  37.003   9.275
 2848POPC   PO438496  31.758  36.624   9.459
 2848POPC   GL138497  31.555  36.595   9.058
 2848POPC   GL238498  31.223  36.644   8.926
 2848POPC   C1A38499  31.643  36.663   8.646
 2848POPC   D2A38500  31.395  36.709   8.294
 2848POPC   C3A38501  31.490  36.884   7.911
 2848POPC   C4A38502  31.626  36.661   7.551
 2848POPC   C1B38503  31.301  37.041   8.664
 2848POPC   C2B38504  31.237  37.215   8.279
 2848POPC   C3B38505  31.058  37.272   7.911
 2848POPC   C4B38506  31.293  37.215   7.538
 2849POPC   NC338507   5.569  28.147   9.405
 2849POPC   PO438508   6.142  28.574   9.565
 2849POPC   GL138509   5.892  28.554   9.196
 2849POPC   GL238510   5.598  28.460   9.013
 2849POPC   C1A38511   5.998  28.654   8.775
 2849POPC   D2A38512   6.107  28.373   8.455
 2849POPC   C3A38513   5.981  28.418   8.013
 2849POPC   C4A38514   5.827  28.110   7.709
 2849POPC   C1B38515   5.611  28.333   8.584
 2849POPC   C2B38516   5.502  28.214   8.166
 2849POPC   C3B38517   5.428  28.446   7.794
 2849POPC   C4B38518   5.611  28.416   7.368
 2850POPC   NC338519   0.545   5.654   9.376
 2850POPC   PO438520   0.628   6.263   9.169
 2850POPC   GL138521   0.687   5.982   8.909
 2850POPC   GL238522   0.399   5.779   8.897
 2850POPC   C1A38523   0.553   6.141   8.529
 2850POPC   D2A38524   0.217   6.031   8.326
 2850POPC   C3A38525   0.540   5.823   8.091
 2850POPC   C4A38526   0.807   6.077   7.871
 2850POPC   C1B38527   0.074   5.622   8.642
 2850POPC   C2B38528  44.906   5.655   8.230
 2850POPC   C3B38529   0.109   5.786   7.857
 2850POPC   C4B38530   0.471   5.546   7.631
 2851POPC   NC338531   2.528   4.449   9.490
 2851POPC   PO438532   3.167   4.697   9.264
 2851POPC   GL138533   2.887   4.457   9.074
 2851POPC   GL238534   2.578   4.640   9.020
 2851POPC   C1A38535   2.914   4.477   8.637
 2851POPC   D2A38536   2.761   4.518   8.237
 2851POPC   C3A38537   2.866   4.226   7.927
 2851POPC   C4A38538   3.039   4.583   7.761
 2851POPC   C1B38539   2.509   4.211   8.827
 2851POPC   C2B38540   2.488   4.102   8.398
 2851POPC   C3B38541   2.355   4.315   8.020
 2851POPC   C4B38542   2.520   4.473   7.631
 2852POPC   NC338543  25.943   8.997   9.460
 2852POPC   PO438544  26.441   9.484   9.374
 2852POPC   GL138545  26.206   9.195   9.046
 2852POPC   GL238546  25.847   9.012   8.974
 2852POPC   C1A38547  26.268   8.876   8.718
 2852POPC   D2A38548  26.144   8.895   8.326
 2852POPC   C3A38549  26.262   8.707   7.972
 2852POPC   C4A38550  26.308   9.090   7.733
 2852POPC   C1B38551  25.702   8.800   8.592
 2852POPC   C2B38552  25.694   8.822   8.112
 2852POPC   C3B38553  25.837   8.783   7.667
 2852POPC   C4B38554  25.836   8.695   7.223
 2853POPC   NC338555  33.827  40.183   9.637
 2853POPC   PO438556  33.851  40.831   9.458
 2853POPC   GL138557  33.942  41.008   9.044
 2853POPC   GL238558  33.633  41.202   8.962
 2853POPC   C1A38559  34.037  40.846   8.641
 2853POPC   D2A38560  34.154  40.514   8.382
 2853POPC   C3A38561  34.003  40.594   7.980
 2853POPC   C4A38562  34.084  40.956   7.748
 2853POPC   C1B38563  33.528  40.766   8.787
 2853POPC   C2B38564  33.627  40.523   8.400
 2853POPC   C3B38565  33.453  40.431   7.978
 2853POPC   C4B38566  33.621  40.627   7.603
 2854POPC   NC338567  12.654  37.627   9.488
 2854POPC   PO438568  13.105  38.230   9.470
 2854POPC   GL138569  13.048  37.871   9.200
 2854POPC   GL238570  13.293  37.586   9.199
 2854POPC   C1A38571  13.086  37.766   8.769
 2854POPC   D2A38572  12.827  37.788   8.411
 2854POPC   C3A38573  13.001  37.901   8.049
 2854POPC   C4A38574  12.859  37.802   7.677
 2854POPC   C1B38575  13.310  37.298   8.825
 2854POPC   C2B38576  13.158  37.372   8.415
 2854POPC   C3B38577  12.902  37.401   8.059
 2854POPC   C4B38578  12.988  37.327   7.665
 2855POPC   NC338579  12.939  16.569   9.657
 2855POPC   PO438580  12.659  17.033   9.382
 2855POPC   GL138581  12.767  16.696   9.124
 2855POPC   GL238582  13.117  16.587   9.176
 2855POPC   C1A38583  12.880  16.685   8.686
 2855POPC   D2A38584  12.638  16.575   8.297
 2855POPC   C3A38585  12.813  16.881   7.992
 2855POPC   C4A38586  12.788  17.042   7.548
 2855POPC   C1B38587  13.133  16.274   8.860
 2855POPC   C2B38588  13.046  16.283   8.406
 2855POPC   C3B38589  13.006  16.406   7.977
 2855POPC   C4B38590  13.189  16.643   7.688
 2856POPC   NC338591   8.075  24.523   9.485
 2856POPC   PO438592   8.507  24.173   9.104
 2856POPC   GL138593   8.316  24.591   9.029
 2856POPC   GL238594   8.004  24.839   9.105
 2856POPC   C1A38595   8.059  24.544   8.675
 2856POPC   D2A38596   7.950  24.262   8.369
 2856POPC   C3A38597   8.233  24.284   8.044
 2856POPC   C4A38598   8.032  24.224   7.670
 2856POPC   C1B38599   7.770  24.943   8.749
 2856POPC   C2B38600   7.817  24.894   8.332
 2856POPC   C3B38601   7.838  24.634   7.999
 2856POPC   C4B38602   8.107  24.715   7.666
 2857POPC   NC338603  36.906  20.490   9.559
 2857POPC   PO438604  37.425  20.187   9.256
 2857POPC   GL138605  37.121  20.483   9.078
 2857POPC   GL238606  37.036  20.829   9.183
 2857POPC   C1A38607  36.913  20.387   8.709
 2857POPC   D2A38608  36.957  20.250   8.303
 2857POPC   C3A38609  36.652  20.441   8.034
 2857POPC   C4A38610  36.598  20.591   7.626
 2857POPC   C1B38611  36.885  20.900   8.742
 2857POPC   C2B38612  37.005  20.789   8.311
 2857POPC   C3B38613  37.009  20.784   7.857
 2857POPC   C4B38614  36.927  21.016   7.468
 2858POPC   NC338615  24.970   1.918   9.410
 2858POPC   PO438616  24.241   2.025   9.538
 2858POPC   GL138617  24.510   2.069   9.180
 2858POPC   GL238618  24.651   2.375   9.097
 2858POPC   C1A38619  24.478   2.056   8.728
 2858POPC   D2A38620  24.551   2.138   8.303
 2858POPC   C3A38621  24.257   1.860   8.076
 2858POPC   C4A38622  24.095   1.982   7.682
 2858POPC   C1B38623  24.978   2.225   8.770
 2858POPC   C2B38624  25.082   2.020   8.372
 2858POPC   C3B38625  24.858   1.804   8.020
 2858POPC   C4B38626  24.604   2.052   7.764
 2859POPC   NC338627  34.437  41.995   9.509
 2859POPC   PO438628  34.693  42.630   9.512
 2859POPC   GL138629  34.682  42.288   9.166
 2859POPC   GL238630  34.327  42.176   9.029
 2859POPC   C1A38631  34.698  42.293   8.711
 2859POPC   D2A38632  34.636  42.556   8.381
 2859POPC   C3A38633  34.621  42.408   7.988
 2859POPC   C4A38634  34.456  42.748   7.739
 2859POPC   C1B38635  34.358  41.857   8.742
 2859POPC   C2B38636  34.255  41.760   8.339
 2859POPC   C3B38637  34.275  42.066   8.074
 2859POPC   C4B38638  34.215  42.300   7.679
 2860POPC   NC338639  35.818  31.858   9.472
 2860POPC   PO438640  36.225  31.431   9.733
 2860POPC   GL138641  36.210  31.451   9.247
 2860POPC   GL238642  36.454  31.218   9.100
 2860POPC   C1A38643  36.303  31.662   8.814
 2860POPC   D2A38644  36.063  31.614   8.417
 2860POPC   C3A38645  36.239  31.732   8.031
 2860POPC   C4A38646  35.962  31.743   7.699
 2860POPC   C1B38647  36.146  31.179   8.787
 2860POPC   C2B38648  35.977  31.092   8.386
 2860POPC   C3B38649  36.136  31.245   8.018
 2860POPC   C4B38650  36.320  31.150   7.648
 2861POPC   NC338651   0.118  36.513   9.469
 2861POPC   PO438652   0.398  35.782   9.435
 2861POPC   GL138653   0.508  36.126   9.129
 2861POPC   GL238654   0.340  36.401   9.042
 2861POPC   C1A38655   0.667  36.053   8.723
 2861POPC   D2A38656   0.490  35.778   8.424
 2861POPC   C3A38657   0.263  36.045   8.206
 2861POPC   C4A38658   0.267  36.054   7.787
 2861POPC   C1B38659   0.440  36.566   8.694
 2861POPC   C2B38660   0.614  36.466   8.322
 2861POPC   C3B38661   0.450  36.509   7.927
 2861POPC   C4B38662   0.641  36.337   7.589
 2862POPC   NC338663  23.613   7.924   9.521
 2862POPC   PO438664  24.073   8.357   9.397
 2862POPC   GL138665  23.708   8.347   9.140
 2862POPC   GL238666  23.650   8.022   9.048
 2862POPC   C1A38667  23.777   8.380   8.702
 2862POPC   D2A38668  23.857   8.640   8.358
 2862POPC   C3A38669  23.751   8.392   8.007
 2862POPC   C4A38670  23.498   8.407   7.615
 2862POPC   C1B38671  23.509   7.865   8.734
 2862POPC   C2B38672  23.690   7.971   8.379
 2862POPC   C3B38673  23.772   7.868   8.017
 2862POPC   C4B38674  23.835   8.013   7.652
 2863POPC   NC338675   8.893  21.785   9.476
 2863POPC   PO438676   8.925  22.410   9.520
 2863POPC   GL138677   8.997  22.201   9.133
 2863POPC   GL238678   8.654  22.332   9.060
 2863POPC   C1A38679   9.159  22.043   8.716
 2863POPC   D2A38680   9.062  22.203   8.301
 2863POPC   C3A38681   9.111  21.930   7.983
 2863POPC   C4A38682   9.219  22.114   7.674
 2863POPC   C1B38683   8.673  22.182   8.656
 2863POPC   C2B38684   8.769  21.812   8.380
 2863POPC   C3B38685   8.643  21.715   7.987
 2863POPC   C4B38686   8.683  22.123   7.772
 2864POPC   NC338687  39.211  35.602   9.744
 2864POPC   PO438688  38.915  35.176   9.354
 2864POPC   GL138689  39.068  35.437   9.088
 2864POPC   GL238690  38.929  35.239   8.825
 2864POPC   C1A38691  39.271  35.650   8.758
 2864POPC   D2A38692  39.441  35.779   8.370
 2864POPC   C3A38693  39.220  35.495   8.144
 2864POPC   C4A38694  39.027  35.393   7.733
 2864POPC   C1B38695  39.385  35.165   8.698
 2864POPC   C2B38696  39.609  35.158   8.298
 2864POPC   C3B38697  39.397  35.085   7.909
 2864POPC   C4B38698  39.416  35.138   7.464
 2865POPC   NC338699  21.192  22.467   9.488
 2865POPC   PO438700  21.500  21.952   9.508
 2865POPC   GL138701  21.246  22.087   9.160
 2865POPC   GL238702  21.450  22.390   9.037
 2865POPC   C1A38703  21.060  21.963   8.782
 2865POPC   D2A38704  21.152  22.042   8.370
 2865POPC   C3A38705  21.443  21.818   8.120
 2865POPC   C4A38706  21.772  21.906   7.823
 2865POPC   C1B38707  21.101  22.469   8.749
 2865POPC   C2B38708  21.062  22.536   8.294
 2865POPC   C3B38709  21.375  22.382   7.973
 2865POPC   C4B38710  21.344  22.407   7.508
 2866POPC   NC338711   1.783  22.034   9.571
 2866POPC   PO438712   2.267  22.436   9.478
 2866POPC   GL138713   2.172  22.156   9.118
 2866POPC   GL238714   1.870  21.929   9.061
 2866POPC   C1A38715   2.099  22.180   8.657
 2866POPC   D2A38716   1.876  21.945   8.330
 2866POPC   C3A38717   1.948  22.067   7.910
 2866POPC   C4A38718   2.221  22.295   7.631
 2866POPC   C1B38719   1.582  22.082   8.721
 2866POPC   C2B38720   1.614  22.371   8.333
 2866POPC   C3B38721   1.555  22.441   7.885
 2866POPC   C4B38722   1.584  22.138   7.546
 2867POPC   NC338723  18.045  21.951   9.642
 2867POPC   PO438724  18.370  22.532   9.318
 2867POPC   GL138725  18.153  22.408   8.996
 2867POPC   GL238726  18.020  22.115   9.159
 2867POPC   C1A38727  18.140  22.439   8.581
 2867POPC   D2A38728  18.485  22.428   8.286
 2867POPC   C3A38729  18.354  22.416   7.875
 2867POPC   C4A38730  18.587  22.290   7.482
 2867POPC   C1B38731  17.938  22.001   8.758
 2867POPC   C2B38732  18.256  21.930   8.466
 2867POPC   C3B38733  18.271  21.925   8.022
 2867POPC   C4B38734  18.174  22.001   7.596
 2868POPC   NC338735  14.072  16.559   9.454
 2868POPC   PO438736  14.576  17.018   9.565
 2868POPC   GL138737  14.399  16.855   9.199
 2868POPC   GL238738  14.022  16.977   9.157
 2868POPC   C1A38739  14.605  16.687   8.849
 2868POPC   D2A38740  14.444  16.674   8.423
 2868POPC   C3A38741  14.674  16.560   8.079
 2868POPC   C4A38742  14.505  16.636   7.701
 2868POPC   C1B38743  14.084  16.682   8.811
 2868POPC   C2B38744  13.930  16.587   8.421
 2868POPC   C3B38745  14.078  16.587   8.013
 2868POPC   C4B38746  14.052  16.849   7.665
 2869POPC   NC338747  33.207  35.008   9.571
 2869POPC   PO438748  33.117  34.340   9.506
 2869POPC   GL138749  32.964  34.485   9.141
 2869POPC   GL238750  32.821  34.802   9.233
 2869POPC   C1A38751  33.240  34.523   8.791
 2869POPC   D2A38752  33.310  34.779   8.444
 2869POPC   C3A38753  33.135  34.679   8.063
 2869POPC   C4A38754  33.130  34.516   7.661
 2869POPC   C1B38755  32.915  34.941   8.817
 2869POPC   C2B38756  32.780  34.830   8.416
 2869POPC   C3B38757  32.628  35.009   8.063
 2869POPC   C4B38758  32.864  34.967   7.713
 2870POPC   NC338759  18.835   3.684   9.400
 2870POPC   PO438760  19.363   3.201   9.390
 2870POPC   GL138761  19.100   3.377   9.089
 2870POPC   GL238762  19.276   3.729   9.094
 2870POPC   C1A38763  18.741   3.305   8.786
 2870POPC   D2A38764  18.633   3.422   8.373
 2870POPC   C3A38765  18.892   3.369   7.997
 2870POPC   C4A38766  18.782   3.223   7.609
 2870POPC   C1B38767  19.098   3.637   8.656
 2870POPC   C2B38768  19.233   3.317   8.382
 2870POPC   C3B38769  19.417   3.405   7.965
 2870POPC   C4B38770  19.212   3.773   7.761
 2871POPC   NC338771   3.356  34.065   9.451
 2871POPC   PO438772   3.152  33.501   9.448
 2871POPC   GL138773   3.387  33.663   9.105
 2871POPC   GL238774   3.739  33.779   9.129
 2871POPC   C1A38775   3.414  33.904   8.731
 2871POPC   D2A38776   3.653  33.945   8.358
 2871POPC   C3A38777   3.520  33.980   7.930
 2871POPC   C4A38778   3.691  34.247   7.593
 2871POPC   C1B38779   3.780  33.543   8.707
 2871POPC   C2B38780   3.508  33.462   8.327
 2871POPC   C3B38781   3.512  33.481   7.887
 2871POPC   C4B38782   3.133  33.650   7.743
 2872POPC   NC338783  38.845  27.592   9.610
 2872POPC   PO438784  39.475  27.763   9.734
 2872POPC   GL138785  39.306  27.668   9.285
 2872POPC   GL238786  39.443  28.000   9.245
 2872POPC   C1A38787  39.309  27.324   8.901
 2872POPC   D2A38788  39.113  27.195   8.468
 2872POPC   C3A38789  39.073  27.553   8.163
 2872POPC   C4A38790  39.101  27.739   7.733
 2872POPC   C1B38791  39.519  27.801   8.823
 2872POPC   C2B38792  39.498  27.530   8.479
 2872POPC   C3B38793  39.531  27.322   8.103
 2872POPC   C4B38794  39.578  27.573   7.760
 2873POPC   NC338795  10.303  27.993   9.508
 2873POPC   PO438796  10.627  27.367   9.592
 2873POPC   GL138797  10.509  27.583   9.239
 2873POPC   GL238798  10.676  27.895   9.145
 2873POPC   C1A38799  10.299  27.612   8.865
 2873POPC   D2A38800  10.381  27.702   8.427
 2873POPC   C3A38801  10.112  27.671   8.089
 2873POPC   C4A38802  10.169  27.641   7.646
 2873POPC   C1B38803  10.799  27.583   8.803
 2873POPC   C2B38804  10.693  27.300   8.462
 2873POPC   C3B38805  10.511  27.332   8.060
 2873POPC   C4B38806  10.645  27.641   7.789
 2874POPC   NC338807  21.530   0.339   9.356
 2874POPC   PO438808  20.989   0.761   9.486
 2874POPC   GL138809  21.079   0.503   9.081
 2874POPC   GL238810  21.228   0.194   8.953
 2874POPC   C1A38811  21.061   0.515   8.613
 2874POPC   D2A38812  21.308   0.702   8.285
 2874POPC   C3A38813  21.287   0.448   7.919
 2874POPC   C4A38814  21.615   0.483   7.603
 2874POPC   C1B38815  21.551   0.388   8.688
 2874POPC   C2B38816  21.607   0.259   8.271
 2874POPC   C3B38817  21.594   0.029   7.886
 2874POPC   C4B38818  21.621  44.967   7.455
 2875POPC   NC338819  33.563  31.785   9.570
 2875POPC   PO438820  33.904  32.394   9.607
 2875POPC   GL138821  33.746  32.384   9.207
 2875POPC   GL238822  33.825  32.018   9.187
 2875POPC   C1A38823  33.664  32.570   8.806
 2875POPC   D2A38824  33.837  32.313   8.460
 2875POPC   C3A38825  33.876  32.431   8.044
 2875POPC   C4A38826  34.185  32.212   7.783
 2875POPC   C1B38827  33.577  32.064   8.817
 2875POPC   C2B38828  33.555  31.872   8.395
 2875POPC   C3B38829  33.731  31.915   7.986
 2875POPC   C4B38830  33.637  32.109   7.612
 2876POPC   NC338831   1.132  44.477   9.608
 2876POPC   PO438832   0.689  44.925   9.329
 2876POPC   GL138833   0.988  44.643   9.081
 2876POPC   GL238834   1.324  44.534   9.142
 2876POPC   C1A38835   1.136  44.430   8.679
 2876POPC   D2A38836   1.309  44.615   8.281
 2876POPC   C3A38837   1.127  44.499   7.871
 2876POPC   C4A38838   1.077  44.228   7.515
 2876POPC   C1B38839   1.461  44.807   8.777
 2876POPC   C2B38840   1.588   0.062   8.402
 2876POPC   C3B38841   1.544   0.135   7.936
 2876POPC   C4B38842   1.194   0.100   7.668
 2877POPC   NC338843  34.935  33.399   9.511
 2877POPC   PO438844  34.809  32.796   9.748
 2877POPC   GL138845  34.726  32.988   9.263
 2877POPC   GL238846  34.930  33.171   9.050
 2877POPC   C1A38847  34.455  33.173   8.876
 2877POPC   D2A38848  34.436  33.013   8.485
 2877POPC   C3A38849  34.770  33.135   8.239
 2877POPC   C4A38850  34.526  33.073   7.921
 2877POPC   C1B38851  34.760  32.770   8.785
 2877POPC   C2B38852  34.832  32.622   8.351
 2877POPC   C3B38853  34.907  32.722   7.924
 2877POPC   C4B38854  34.926  33.069   7.621
 2878POPC   NC338855  16.662   6.270   9.837
 2878POPC   PO438856  16.475   6.650   9.263
 2878POPC   GL138857  16.877   6.517   9.088
 2878POPC   GL238858  16.948   6.829   8.968
 2878POPC   C1A38859  17.101   6.471   8.661
 2878POPC   D2A38860  17.106   6.729   8.327
 2878POPC   C3A38861  16.875   6.521   8.003
 2878POPC   C4A38862  16.807   6.592   7.570
 2878POPC   C1B38863  16.668   6.751   8.647
 2878POPC   C2B38864  16.611   6.913   8.279
 2878POPC   C3B38865  16.475   6.840   7.893
 2878POPC   C4B38866  16.500   6.987   7.481
 2879POPC   NC338867  40.240  18.293   9.491
 2879POPC   PO438868  39.556  18.191   9.530
 2879POPC   GL138869  39.867  18.267   9.137
 2879POPC   GL238870  40.236  18.434   9.023
 2879POPC   C1A38871  39.997  18.054   8.771
 2879POPC   D2A38872  39.821  17.930   8.404
 2879POPC   C3A38873  39.678  18.303   8.210
 2879POPC   C4A38874  39.719  18.202   7.804
 2879POPC   C1B38875  40.082  18.571   8.657
 2879POPC   C2B38876  40.192  18.308   8.327
 2879POPC   C3B38877  40.256  18.287   7.908
 2879POPC   C4B38878  40.412  18.609   7.611
 2880POPC   NC338879  23.168  43.374   9.441
 2880POPC   PO438880  22.765  43.934   9.380
 2880POPC   GL138881  22.987  43.699   9.089
 2880POPC   GL238882  22.748  43.448   9.116
 2880POPC   C1A38883  23.188  43.697   8.682
 2880POPC   D2A38884  23.299  44.033   8.374
 2880POPC   C3A38885  23.112  44.050   7.977
 2880POPC   C4A38886  23.231  44.253   7.673
 2880POPC   C1B38887  22.631  43.651   8.713
 2880POPC   C2B38888  22.799  43.833   8.362
 2880POPC   C3B38889  23.070  43.581   8.133
 2880POPC   C4B38890  22.756  43.592   7.819
 2881POPC   NC338891   9.765  26.441   9.706
 2881POPC   PO438892   9.993  25.916   9.294
 2881POPC   GL138893   9.606  26.040   9.125
 2881POPC   GL238894   9.516  26.382   9.137
 2881POPC   C1A38895   9.393  25.847   8.793
 2881POPC   D2A38896   9.714  25.867   8.496
 2881POPC   C3A38897   9.697  25.823   8.103
 2881POPC   C4A38898   9.474  26.002   7.790
 2881POPC   C1B38899   9.615  26.326   8.669
 2881POPC   C2B38900   9.647  26.326   8.195
 2881POPC   C3B38901   9.905  26.240   7.837
 2881POPC   C4B38902   9.943  26.442   7.466
 2882POPC   NC338903  35.218  18.633   9.420
 2882POPC   PO438904  35.810  18.128   9.477
 2882POPC   GL138905  35.539  18.180   9.128
 2882POPC   GL238906  35.218  17.984   9.064
 2882POPC   C1A38907  35.422  18.464   8.815
 2882POPC   D2A38908  35.171  18.429   8.472
 2882POPC   C3A38909  35.331  18.500   8.082
 2882POPC   C4A38910  35.453  18.190   7.816
 2882POPC   C1B38911  35.090  17.916   8.664
 2882POPC   C2B38912  35.256  17.969   8.249
 2882POPC   C3B38913  35.120  17.775   7.860
 2882POPC   C4B38914  35.073  17.981   7.491
 2883POPC   NC338915   0.232  33.494   9.508
 2883POPC   PO438916   0.552  34.121   9.400
 2883POPC   GL138917   0.449  33.791   9.110
 2883POPC   GL238918   0.119  33.711   9.031
 2883POPC   C1A38919   0.481  33.636   8.693
 2883POPC   D2A38920   0.221  33.661   8.319
 2883POPC   C3A38921   0.536  33.618   8.010
 2883POPC   C4A38922   0.469  33.518   7.606
 2883POPC   C1B38923   0.185  34.045   8.724
 2883POPC   C2B38924   0.489  34.102   8.406
 2883POPC   C3B38925   0.358  34.088   7.989
 2883POPC   C4B38926   0.615  34.066   7.662
 2884POPC   NC338927  22.384  43.666   9.487
 2884POPC   PO438928  21.791  43.518   9.224
 2884POPC   GL138929  22.049  43.816   9.108
 2884POPC   GL238930  22.259  43.558   9.023
 2884POPC   C1A38931  22.235  44.019   8.751
 2884POPC   D2A38932  22.088  44.053   8.328
 2884POPC   C3A38933  22.394  43.966   7.988
 2884POPC   C4A38934  22.116  43.998   7.635
 2884POPC   C1B38935  22.084  43.531   8.648
 2884POPC   C2B38936  22.279  43.575   8.301
 2884POPC   C3B38937  22.056  43.580   7.948
 2884POPC   C4B38938  22.300  43.534   7.601
 2885POPC   NC338939   7.695   2.173   9.611
 2885POPC   PO438940   8.244   1.742   9.442
 2885POPC   GL138941   8.304   1.855   9.016
 2885POPC   GL238942   8.672   1.833   9.074
 2885POPC   C1A38943   8.091   2.142   8.712
 2885POPC   D2A38944   7.882   2.179   8.308
 2885POPC   C3A38945   7.881   1.764   8.122
 2885POPC   C4A38946   8.192   1.660   7.786
 2885POPC   C1B38947   8.604   2.103   8.694
 2885POPC   C2B38948   8.389   1.975   8.326
 2885POPC   C3B38949   8.410   2.106   7.921
 2885POPC   C4B38950   8.479   2.117   7.472
 2886POPC   NC338951   7.059  27.590   9.432
 2886POPC   PO438952   6.468  27.646   9.745
 2886POPC   GL138953   6.551  27.503   9.289
 2886POPC   GL238954   6.752  27.173   9.318
 2886POPC   C1A38955   6.578  27.653   8.817
 2886POPC   D2A38956   6.819  27.788   8.441
 2886POPC   C3A38957   6.589  27.727   8.062
 2886POPC   C4A38958   6.309  27.984   7.831
 2886POPC   C1B38959   6.683  27.162   8.877
 2886POPC   C2B38960   6.582  27.285   8.450
 2886POPC   C3B38961   6.648  27.223   8.005
 2886POPC   C4B38962   6.971  27.304   7.779
 2887POPC   NC338963  27.508   9.588   9.591
 2887POPC   PO438964  28.220   9.589   9.620
 2887POPC   GL138965  27.892   9.482   9.247
 2887POPC   GL238966  27.527   9.523   9.105
 2887POPC   C1A38967  27.888   9.663   8.788
 2887POPC   D2A38968  28.049   9.835   8.399
 2887POPC   C3A38969  27.813   9.753   8.008
 2887POPC   C4A38970  27.761   9.523   7.616
 2887POPC   C1B38971  27.348   9.688   8.731
 2887POPC   C2B38972  27.266   9.816   8.298
 2887POPC   C3B38973  27.307   9.688   7.872
 2887POPC   C4B38974  27.533   9.983   7.625
 2888POPC   NC338975   0.480   4.039   9.492
 2888POPC   PO438976   0.765   4.586   9.695
 2888POPC   GL138977   0.585   4.455   9.207
 2888POPC   GL238978   0.665   4.080   9.021
 2888POPC   C1A38979   0.491   4.461   8.754
 2888POPC   D2A38980   0.591   4.239   8.364
 2888POPC   C3A38981   0.401   4.407   7.998
 2888POPC   C4A38982   0.586   4.533   7.603
 2888POPC   C1B38983   0.288   3.989   8.712
 2888POPC   C2B38984   0.106   4.104   8.310
 2888POPC   C3B38985   0.161   3.937   7.918
 2888POPC   C4B38986   0.169   4.221   7.573
 2889POPC   NC338987  41.145  33.476   9.387
 2889POPC   PO438988  41.533  33.987   9.628
 2889POPC   GL138989  41.271  34.002   9.291
 2889POPC   GL238990  41.492  33.744   9.131
 2889POPC   C1A38991  41.286  34.121   8.861
 2889POPC   D2A38992  41.419  33.823   8.553
 2889POPC   C3A38993  41.251  33.858   8.141
 2889POPC   C4A38994  41.516  33.866   7.766
 2889POPC   C1B38995  41.820  33.656   8.845
 2889POPC   C2B38996  41.969  33.400   8.498
 2889POPC   C3B38997  42.065  33.354   8.064
 2889POPC   C4B38998  41.995  33.614   7.720
 2890POPC   NC338999   7.441  44.675   9.428
 2890POPC   PO439000   6.899  44.858   9.191
 2890POPC   GL139001   7.295  44.904   8.982
 2890POPC   GL239002   7.640  44.969   9.076
 2890POPC   C1A39003   7.564  44.611   8.721
 2890POPC   D2A39004   7.762  44.654   8.307
 2890POPC   C3A39005   7.513  44.611   7.926
 2890POPC   C4A39006   7.072  44.733   7.874
 2890POPC   C1B39007   7.610   0.104   8.644
 2890POPC   C2B39008   7.729   0.160   8.264
 2890POPC   C3B39009   7.452   0.114   7.923
 2890POPC   C4B39010   7.511  44.947   7.518
 2891POPC   NC339011  34.338  24.204   9.567
 2891POPC   PO439012  34.684  24.654   9.899
 2891POPC   GL139013  34.702  24.545   9.368
 2891POPC   GL239014  34.389  24.545   9.166
 2891POPC   C1A39015  34.740  24.250   8.942
 2891POPC   D2A39016  34.493  24.117   8.547
 2891POPC   C3A39017  34.492  24.336   8.151
 2891POPC   C4A39018  34.611  24.234   7.743
 2891POPC   C1B39019  34.455  24.610   8.712
 2891POPC   C2B39020  34.158  24.657   8.365
 2891POPC   C3B39021  34.160  24.770   7.918
 2891POPC   C4B39022  34.208  24.907   7.486
 2892POPC   NC339023  22.539  23.874   9.450
 2892POPC   PO439024  22.942  23.279   9.552
 2892POPC   GL139025  22.834  23.538   9.194
 2892POPC   GL239026  22.534  23.441   9.034
 2892POPC   C1A39027  22.962  23.857   8.884
 2892POPC   D2A39028  23.291  23.962   8.579
 2892POPC   C3A39029  23.216  23.953   8.131
 2892POPC   C4A39030  22.949  23.949   7.794
 2892POPC   C1B39031  22.623  23.624   8.607
 2892POPC   C2B39032  22.732  23.652   8.175
 2892POPC   C3B39033  22.590  23.607   7.760
 2892POPC   C4B39034  22.418  23.416   7.407
 2893POPC   NC339035  21.575  43.246   5.620
 2893POPC   PO439036  21.149  42.701   5.429
 2893POPC   GL139037  21.202  42.955   5.804
 2893POPC   GL239038  21.482  42.902   6.033
 2893POPC   C1A39039  21.131  43.236   6.193
 2893POPC   D2A39040  21.334  43.129   6.592
 2893POPC   C3A39041  21.195  43.316   6.983
 2893POPC   C4A39042  21.398  43.282   7.403
 2893POPC   C1B39043  21.807  42.867   6.351
 2893POPC   C2B39044  21.724  42.830   6.760
 2893POPC   C3B39045  21.415  42.866   7.099
 2893POPC   C4B39046  21.541  42.845   7.568
 2894POPC   NC339047  43.591  23.615   5.461
 2894POPC   PO439048  44.107  24.008   5.515
 2894POPC   GL139049  43.784  23.957   5.841
 2894POPC   GL239050  43.914  23.642   5.880
 2894POPC   C1A39051  43.687  23.827   6.309
 2894POPC   D2A39052  43.955  23.664   6.684
 2894POPC   C3A39053  43.926  23.818   7.115
 2894POPC   C4A39054  43.556  24.013   7.280
 2894POPC   C1B39055  44.244  23.396   6.126
 2894POPC   C2B39056  44.396  23.448   6.517
 2894POPC   C3B39057  44.360  23.298   6.917
 2894POPC   C4B39058  44.269  23.447   7.312
 2895POPC   NC339059   5.230   8.398   5.356
 2895POPC   PO439060   5.529   7.744   5.363
 2895POPC   GL139061   5.125   7.994   5.675
 2895POPC   GL239062   5.096   8.384   5.830
 2895POPC   C1A39063   4.870   8.040   6.113
 2895POPC   D2A39064   5.094   8.011   6.523
 2895POPC   C3A39065   4.951   8.098   6.939
 2895POPC   C4A39066   5.117   7.961   7.306
 2895POPC   C1B39067   5.362   8.294   6.191
 2895POPC   C2B39068   5.433   8.399   6.642
 2895POPC   C3B39069   5.470   8.268   7.084
 2895POPC   C4B39070   5.246   8.454   7.476
 2896POPC   NC339071   2.168  14.280   5.526
 2896POPC   PO439072   1.536  14.041   5.349
 2896POPC   GL139073   1.711  14.174   5.750
 2896POPC   GL239074   1.772  14.546   5.806
 2896POPC   C1A39075   1.925  14.207   6.154
 2896POPC   D2A39076   2.155  14.462   6.430
 2896POPC   C3A39077   2.113  14.270   6.810
 2896POPC   C4A39078   1.952  14.263   7.210
 2896POPC   C1B39079   1.744  14.745   6.230
 2896POPC   C2B39080   1.756  14.651   6.677
 2896POPC   C3B39081   2.021  14.725   7.005
 2896POPC   C4B39082   1.901  14.746   7.445
 2897POPC   NC339083  35.768  11.193   5.087
 2897POPC   PO439084  36.255  10.962   5.469
 2897POPC   GL139085  36.130  11.104   5.877
 2897POPC   GL239086  35.964  11.441   5.861
 2897POPC   C1A39087  35.936  11.124   6.281
 2897POPC   D2A39088  35.843  11.396   6.612
 2897POPC   C3A39089  36.062  11.176   6.913
 2897POPC   C4A39090  36.075  10.834   7.134
 2897POPC   C1B39091  36.186  11.576   6.225
 2897POPC   C2B39092  36.369  11.465   6.622
 2897POPC   C3B39093  36.329  11.576   7.064
 2897POPC   C4B39094  36.218  11.256   7.438
 2898POPC   NC339095  43.724  26.929   5.224
 2898POPC   PO439096  44.422  27.056   5.179
 2898POPC   GL139097  44.128  26.840   5.558
 2898POPC   GL239098  44.190  26.487   5.668
 2898POPC   C1A39099  43.947  26.789   6.027
 2898POPC   D2A39100  43.843  26.653   6.467
 2898POPC   C3A39101  43.659  26.956   6.744
 2898POPC   C4A39102  43.721  26.928   7.192
 2898POPC   C1B39103  44.195  26.349   6.120
 2898POPC   C2B39104  44.327  26.552   6.522
 2898POPC   C3B39105  44.106  26.614   6.924
 2898POPC   C4B39106  44.086  26.252   7.213
 2899POPC   NC339107  33.967  23.263   5.660
 2899POPC   PO439108  33.792  22.688   5.353
 2899POPC   GL139109  33.685  22.762   5.792
 2899POPC   GL239110  33.511  23.061   5.800
 2899POPC   C1A39111  33.782  22.925   6.231
 2899POPC   D2A39112  33.999  22.871   6.632
 2899POPC   C3A39113  33.733  22.878   6.998
 2899POPC   C4A39114  33.878  23.210   7.285
 2899POPC   C1B39115  33.349  23.189   6.186
 2899POPC   C2B39116  33.432  23.096   6.620
 2899POPC   C3B39117  33.425  23.290   7.028
 2899POPC   C4B39118  33.406  23.117   7.463
 2900POPC   NC339119  18.167   8.414   5.389
 2900POPC   PO439120  18.519   7.862   5.225
 2900POPC   GL139121  18.265   7.981   5.663
 2900POPC   GL239122  18.314   8.322   5.867
 2900POPC   C1A39123  18.284   7.917   6.155
 2900POPC   D2A39124  18.291   8.175   6.515
 2900POPC   C3A39125  18.291   7.952   6.898
 2900POPC   C4A39126  18.273   8.062   7.329
 2900POPC   C1B39127  18.101   8.621   6.203
 2900POPC   C2B39128  18.192   8.696   6.646
 2900POPC   C3B39129  18.092   8.450   7.010
 2900POPC   C4B39130  18.072   8.531   7.462
 2901POPC   NC339131  26.127  42.539   5.203
 2901POPC   PO439132  26.381  42.035   5.540
 2901POPC   GL139133  26.013  42.131   5.776
 2901POPC   GL239134  26.007  42.517   5.794
 2901POPC   C1A39135  25.957  42.175   6.214
 2901POPC   D2A39136  25.955  42.334   6.621
 2901POPC   C3A39137  25.884  42.045   6.941
 2901POPC   C4A39138  25.872  42.032   7.360
 2901POPC   C1B39139  26.149  42.684   6.222
 2901POPC   C2B39140  25.961  42.850   6.607
 2901POPC   C3B39141  25.917  42.662   7.034
 2901POPC   C4B39142  26.222  42.417   7.299
 2902POPC   NC339143  43.497   1.050   5.305
 2902POPC   PO439144  42.892   1.426   5.170
 2902POPC   GL139145  43.108   1.255   5.571
 2902POPC   GL239146  43.171   1.566   5.696
 2902POPC   C1A39147  43.425   1.169   5.982
 2902POPC   D2A39148  43.403   1.242   6.468
 2902POPC   C3A39149  43.307   0.955   6.837
 2902POPC   C4A39150  43.121   0.971   7.232
 2902POPC   C1B39151  42.957   1.352   6.056
 2902POPC   C2B39152  42.898   1.466   6.478
 2902POPC   C3B39153  42.941   1.309   6.872
 2902POPC   C4B39154  42.837   1.464   7.249
 2903POPC   NC339155  15.184  22.846   5.544
 2903POPC   PO439156  14.811  23.257   5.276
 2903POPC   GL139157  14.790  23.137   5.775
 2903POPC   GL239158  14.907  22.804   5.964
 2903POPC   C1A39159  15.034  23.237   6.204
 2903POPC   D2A39160  15.156  22.971   6.586
 2903POPC   C3A39161  15.007  23.093   6.974
 2903POPC   C4A39162  15.036  23.301   7.357
 2903POPC   C1B39163  15.351  22.740   6.171
 2903POPC   C2B39164  15.487  22.396   6.474
 2903POPC   C3B39165  15.569  22.456   6.894
 2903POPC   C4B39166  15.411  22.711   7.199
 2904POPC   NC339167  27.451  43.423   5.464
 2904POPC   PO439168  27.730  42.794   5.487
 2904POPC   GL139169  27.526  42.997   5.912
 2904POPC   GL239170  27.315  43.308   5.930
 2904POPC   C1A39171  27.401  43.116   6.389
 2904POPC   D2A39172  27.623  43.408   6.696
 2904POPC   C3A39173  27.790  43.118   7.010
 2904POPC   C4A39174  27.519  42.839   7.241
 2904POPC   C1B39175  27.156  43.557   6.260
 2904POPC   C2B39176  27.086  43.515   6.699
 2904POPC   C3B39177  27.272  43.302   7.046
 2904POPC   C4B39178  27.505  43.363   7.384
 2905POPC   NC339179  29.083  25.302   5.344
 2905POPC   PO439180  29.538  24.877   5.480
 2905POPC   GL139181  29.437  25.256   5.797
 2905POPC   GL239182  29.135  25.467   5.823
 2905POPC   C1A39183  29.408  25.300   6.285
 2905POPC   D2A39184  29.618  25.309   6.723
 2905POPC   C3A39185  29.335  25.302   7.103
 2905POPC   C4A39186  29.310  25.351   7.573
 2905POPC   C1B39187  28.951  25.563   6.252
 2905POPC   C2B39188  29.158  25.614   6.672
 2905POPC   C3B39189  28.998  25.699   7.090
 2905POPC   C4B39190  28.810  25.445   7.417
 2906POPC   NC339191  27.632  29.748   5.172
 2906POPC   PO439192  27.508  30.488   5.299
 2906POPC   GL139193  27.611  30.150   5.573
 2906POPC   GL239194  27.301  30.029   5.709
 2906POPC   C1A39195  27.754  30.075   6.003
 2906POPC   D2A39196  27.813  30.120   6.458
 2906POPC   C3A39197  27.673  29.785   6.724
 2906POPC   C4A39198  27.700  29.795   7.152
 2906POPC   C1B39199  27.289  29.885   6.151
 2906POPC   C2B39200  27.223  29.608   6.484
 2906POPC   C3B39201  27.129  29.706   6.870
 2906POPC   C4B39202  27.192  29.899   7.229
 2907POPC   NC339203   4.557   5.165   5.399
 2907POPC   PO439204   3.912   4.961   5.408
 2907POPC   GL139205   4.000   5.090   5.847
 2907POPC   GL239206   4.367   5.077   5.886
 2907POPC   C1A39207   4.042   5.229   6.316
 2907POPC   D2A39208   4.042   5.455   6.765
 2907POPC   C3A39209   4.062   5.169   7.126
 2907POPC   C4A39210   4.215   5.244   7.585
 2907POPC   C1B39211   4.416   4.856   6.288
 2907POPC   C2B39212   4.375   5.076   6.694
 2907POPC   C3B39213   4.553   5.310   7.028
 2907POPC   C4B39214   4.712   5.285   7.450
 2908POPC   NC339215   2.151  29.552   5.423
 2908POPC   PO439216   2.208  30.156   5.785
 2908POPC   GL139217   1.918  29.852   5.930
 2908POPC   GL239218   1.998  29.484   5.912
 2908POPC   C1A39219   1.912  29.864   6.385
 2908POPC   D2A39220   1.704  29.691   6.755
 2908POPC   C3A39221   1.845  29.900   7.130
 2908POPC   C4A39222   1.892  30.127   7.492
 2908POPC   C1B39223   2.383  29.659   6.121
 2908POPC   C2B39224   2.433  29.869   6.514
 2908POPC   C3B39225   2.257  29.718   6.873
 2908POPC   C4B39226   2.197  29.550   7.265
 2909POPC   NC339227  44.991   7.726   4.974
 2909POPC   PO439228   0.433   7.283   5.293
 2909POPC   GL139229   0.540   7.252   5.745
 2909POPC   GL239230   0.776   6.985   5.877
 2909POPC   C1A39231   0.465   7.553   6.083
 2909POPC   D2A39232   0.617   7.680   6.497
 2909POPC   C3A39233   0.586   7.428   6.862
 2909POPC   C4A39234   0.510   7.588   7.247
 2909POPC   C1B39235   0.661   7.151   6.321
 2909POPC   C2B39236   0.236   7.294   6.516
 2909POPC   C3B39237   0.132   7.103   6.943
 2909POPC   C4B39238   0.456   7.094   7.261
 2910POPC   NC339239   1.686  13.593   5.473
 2910POPC   PO439240   2.338  13.806   5.625
 2910POPC   GL139241   1.999  13.669   5.914
 2910POPC   GL239242   1.697  13.438   5.965
 2910POPC   C1A39243   2.002  13.565   6.361
 2910POPC   D2A39244   1.764  13.625   6.720
 2910POPC   C3A39245   2.046  13.798   7.006
 2910POPC   C4A39246   2.278  13.898   7.358
 2910POPC   C1B39247   1.585  13.822   6.222
 2910POPC   C2B39248   1.604  14.110   6.584
 2910POPC   C3B39249   1.550  14.015   7.028
 2910POPC   C4B39250   1.632  13.624   7.233
 2911POPC   NC339251   8.604   1.507   5.724
 2911POPC   PO439252   8.873   1.050   5.269
 2911POPC   GL139253   9.004   1.123   5.688
 2911POPC   GL239254   9.311   1.323   5.702
 2911POPC   C1A39255   9.105   1.096   6.128
 2911POPC   D2A39256   8.928   1.279   6.502
 2911POPC   C3A39257   8.875   1.057   6.907
 2911POPC   C4A39258   8.888   1.304   7.297
 2911POPC   C1B39259   9.392   1.523   6.102
 2911POPC   C2B39260   9.433   1.328   6.477
 2911POPC   C3B39261   9.282   1.343   6.899
 2911POPC   C4B39262   9.401   1.160   7.297
 2912POPC   NC339263   5.953   9.523   5.270
 2912POPC   PO439264   5.745  10.081   5.538
 2912POPC   GL139265   6.035   9.796   5.758
 2912POPC   GL239266   5.758   9.522   5.772
 2912POPC   C1A39267   6.249   9.907   6.182
 2912POPC   D2A39268   6.097   9.823   6.592
 2912POPC   C3A39269   6.145  10.026   6.978
 2912POPC   C4A39270   5.991   9.775   7.309
 2912POPC   C1B39271   5.776   9.712   6.181
 2912POPC   C2B39272   5.587   9.776   6.563
 2912POPC   C3B39273   5.458   9.570   6.919
 2912POPC   C4B39274   5.494   9.265   7.179
 2913POPC   NC339275  22.246   2.942   5.177
 2913POPC   PO439276  22.014   2.426   5.464
 2913POPC   GL139277  22.019   2.788   5.742
 2913POPC   GL239278  22.332   2.978   5.720
 2913POPC   C1A39279  22.053   2.794   6.195
 2913POPC   D2A39280  21.933   2.648   6.599
 2913POPC   C3A39281  21.932   2.841   6.999
 2913POPC   C4A39282  22.011   2.467   7.252
 2913POPC   C1B39283  22.422   3.143   6.148
 2913POPC   C2B39284  22.530   2.875   6.536
 2913POPC   C3B39285  22.442   2.751   6.967
 2913POPC   C4B39286  22.318   2.848   7.389
 2914POPC   NC339287  37.360  13.981   5.526
 2914POPC   PO439288  36.666  13.651   5.411
 2914POPC   GL139289  36.967  13.694   5.714
 2914POPC   GL239290  37.058  13.326   5.704
 2914POPC   C1A39291  37.025  13.697   6.157
 2914POPC   D2A39292  37.217  13.491   6.514
 2914POPC   C3A39293  37.009  13.657   6.877
 2914POPC   C4A39294  37.020  13.842   7.263
 2914POPC   C1B39295  36.914  13.181   6.106
 2914POPC   C2B39296  36.721  13.346   6.485
 2914POPC   C3B39297  36.801  13.187   6.890
 2914POPC   C4B39298  36.783  13.388   7.267
 2915POPC   NC339299  37.327  30.718   5.442
 2915POPC   PO439300  36.699  30.597   5.299
 2915POPC   GL139301  36.868  30.560   5.745
 2915POPC   GL239302  37.075  30.844   5.870
 2915POPC   C1A39303  36.983  30.440   6.166
 2915POPC   D2A39304  37.139  30.484   6.594
 2915POPC   C3A39305  36.900  30.683   6.877
 2915POPC   C4A39306  36.664  30.639   7.184
 2915POPC   C1B39307  37.370  30.758   6.236
 2915POPC   C2B39308  37.543  30.915   6.596
 2915POPC   C3B39309  37.389  30.784   7.003
 2915POPC   C4B39310  37.091  30.867   7.365
 2916POPC   NC339311   3.295  29.366   5.456
 2916POPC   PO439312   2.589  29.332   5.367
 2916POPC   GL139313   2.740  29.309   5.773
 2916POPC   GL239314   2.788  28.984   5.890
 2916POPC   C1A39315   2.821  29.424   6.206
 2916POPC   D2A39316   2.607  29.392   6.590
 2916POPC   C3A39317   2.660  29.355   7.026
 2916POPC   C4A39318   2.494  29.109   7.382
 2916POPC   C1B39319   2.903  28.945   6.357
 2916POPC   C2B39320   3.029  29.054   6.790
 2916POPC   C3B39321   2.889  28.856   7.131
 2916POPC   C4B39322   2.495  28.635   7.137
 2917POPC   NC339323  16.540  18.207   5.404
 2917POPC   PO439324  16.921  18.712   5.406
 2917POPC   GL139325  16.838  18.427   5.761
 2917POPC   GL239326  17.121  18.210   5.878
 2917POPC   C1A39327  16.474  18.439   6.058
 2917POPC   D2A39328  16.396  18.307   6.509
 2917POPC   C3A39329  16.437  18.593   6.859
 2917POPC   C4A39330  16.729  18.435   7.120
 2917POPC   C1B39331  17.075  18.514   6.208
 2917POPC   C2B39332  16.911  18.428   6.603
 2917POPC   C3B39333  17.090  18.162   6.908
 2917POPC   C4B39334  17.121  18.151   7.331
 2918POPC   NC339335  29.972  18.799   5.474
 2918POPC   PO439336  29.735  19.359   5.196
 2918POPC   GL139337  30.135  19.296   5.621
 2918POPC   GL239338  30.221  18.976   5.856
 2918POPC   C1A39339  30.056  19.357   6.149
 2918POPC   D2A39340  29.726  19.205   6.482
 2918POPC   C3A39341  29.792  19.253   6.935
 2918POPC   C4A39342  29.580  19.524   7.193
 2918POPC   C1B39343  30.053  18.862   6.280
 2918POPC   C2B39344  29.952  18.807   6.738
 2918POPC   C3B39345  29.831  18.809   7.182
 2918POPC   C4B39346  30.155  18.773   7.514
 2919POPC   NC339347  19.014  38.288   5.201
 2919POPC   PO439348  19.407  38.820   5.425
 2919POPC   GL139349  19.155  38.513   5.701
 2919POPC   GL239350  18.838  38.301   5.699
 2919POPC   C1A39351  18.975  38.607   6.102
 2919POPC   D2A39352  18.916  38.763   6.508
 2919POPC   C3A39353  19.247  38.562   6.765
 2919POPC   C4A39354  19.235  38.332   7.136
 2919POPC   C1B39355  18.813  38.118   6.112
 2919POPC   C2B39356  18.904  38.267   6.514
 2919POPC   C3B39357  18.779  38.400   6.925
 2919POPC   C4B39358  18.757  38.154   7.311
 2920POPC   NC339359  19.129  26.445   5.420
 2920POPC   PO439360  18.862  27.155   5.427
 2920POPC   GL139361  19.012  26.855   5.752
 2920POPC   GL239362  18.808  26.532   5.783
 2920POPC   C1A39363  19.241  26.858   6.161
 2920POPC   D2A39364  19.258  26.701   6.602
 2920POPC   C3A39365  19.297  26.949   6.995
 2920POPC   C4A39366  19.042  27.068   7.387
 2920POPC   C1B39367  18.894  26.484   6.206
 2920POPC   C2B39368  18.743  26.554   6.591
 2920POPC   C3B39369  18.895  26.625   6.969
 2920POPC   C4B39370  18.750  26.420   7.278
 2921POPC   NC339371   0.577  14.631   5.470
 2921POPC   PO439372  44.931  14.502   5.265
 2921POPC   GL139373   0.144  14.412   5.630
 2921POPC   GL239374   0.395  14.157   5.624
 2921POPC   C1A39375   0.153  14.482   6.089
 2921POPC   D2A39376   0.124  14.470   6.554
 2921POPC   C3A39377   0.365  14.657   6.877
 2921POPC   C4A39378   0.458  14.482   7.276
 2921POPC   C1B39379   0.608  14.242   6.036
 2921POPC   C2B39380   0.518  14.120   6.424
 2921POPC   C3B39381   0.594  13.863   6.744
 2921POPC   C4B39382   0.566  13.996   7.156
 2922POPC   NC339383  43.974  29.119   5.420
 2922POPC   PO439384  43.413  28.693   5.372
 2922POPC   GL139385  43.583  28.844   6.022
 2922POPC   GL239386  43.859  29.157   5.944
 2922POPC   C1A39387  43.924  28.899   6.347
 2922POPC   D2A39388  43.962  29.202   6.657
 2922POPC   C3A39389  43.782  29.053   6.992
 2922POPC   C4A39390  44.071  28.826   7.211
 2922POPC   C1B39391  43.978  29.466   6.226
 2922POPC   C2B39392  44.258  29.616   6.568
 2922POPC   C3B39393  44.157  29.522   7.014
 2922POPC   C4B39394  43.734  29.504   7.230
 2923POPC   NC339395  42.695  43.873   5.296
 2923POPC   PO439396  43.348  43.912   5.332
 2923POPC   GL139397  43.110  44.018   5.663
 2923POPC   GL239398  42.983  43.708   5.791
 2923POPC   C1A39399  43.075  44.144   6.113
 2923POPC   D2A39400  43.206  43.959   6.520
 2923POPC   C3A39401  43.360  44.218   6.872
 2923POPC   C4A39402  43.039  44.282   7.164
 2923POPC   C1B39403  43.226  43.562   6.169
 2923POPC   C2B39404  43.208  43.445   6.626
 2923POPC   C3B39405  43.147  43.625   7.028
 2923POPC   C4B39406  43.099  43.532   7.487
 2924POPC   NC339407  31.913  20.746   5.451
 2924POPC   PO439408  32.499  20.599   5.133
 2924POPC   GL139409  32.397  20.568   5.642
 2924POPC   GL239410  32.064  20.486   5.871
 2924POPC   C1A39411  32.449  20.717   6.112
 2924POPC   D2A39412  32.583  20.840   6.559
 2924POPC   C3A39413  32.248  20.769   6.885
 2924POPC   C4A39414  32.313  20.672   7.312
 2924POPC   C1B39415  31.837  20.247   6.239
 2924POPC   C2B39416  31.808  20.218   6.703
 2924POPC   C3B39417  31.933  20.393   7.110
 2924POPC   C4B39418  31.935  20.403   7.563
 2925POPC   NC339419  19.130  18.692   5.426
 2925POPC   PO439420  18.914  19.376   5.513
 2925POPC   GL139421  18.985  19.040   5.787
 2925POPC   GL239422  18.659  18.903   5.824
 2925POPC   C1A39423  19.174  19.130   6.182
 2925POPC   D2A39424  19.125  19.255   6.581
 2925POPC   C3A39425  19.302  19.087   6.977
 2925POPC   C4A39426  19.157  19.177   7.443
 2925POPC   C1B39427  18.651  19.149   6.212
 2925POPC   C2B39428  18.658  19.056   6.654
 2925POPC   C3B39429  18.810  19.092   7.087
 2925POPC   C4B39430  18.743  18.878   7.514
 2926POPC   NC339431  41.254  32.868   5.346
 2926POPC   PO439432  41.550  33.392   5.623
 2926POPC   GL139433  41.574  32.998   5.819
 2926POPC   GL239434  41.873  32.806   5.732
 2926POPC   C1A39435  41.645  33.044   6.247
 2926POPC   D2A39436  41.788  33.252   6.632
 2926POPC   C3A39437  41.487  33.282   6.911
 2926POPC   C4A39438  41.406  33.136   7.309
 2926POPC   C1B39439  42.033  32.749   6.185
 2926POPC   C2B39440  41.856  32.727   6.608
 2926POPC   C3B39441  41.654  32.801   7.009
 2926POPC   C4B39442  41.787  32.759   7.454
 2927POPC   NC339443  27.446  41.555   5.171
 2927POPC   PO439444  28.019  41.895   5.335
 2927POPC   GL139445  27.699  41.682   5.621
 2927POPC   GL239446  27.643  41.310   5.667
 2927POPC   C1A39447  27.704  41.629   6.084
 2927POPC   D2A39448  27.830  41.852   6.461
 2927POPC   C3A39449  27.737  41.655   6.863
 2927POPC   C4A39450  27.776  41.850   7.270
 2927POPC   C1B39451  27.556  41.141   6.119
 2927POPC   C2B39452  27.566  41.215   6.587
 2927POPC   C3B39453  27.463  41.234   7.048
 2927POPC   C4B39454  27.542  41.194   7.543
 2928POPC   NC339455  43.721  35.756   5.400
 2928POPC   PO439456  44.311  35.345   5.443
 2928POPC   GL139457  43.968  35.326   5.808
 2928POPC   GL239458  43.593  35.443   5.795
 2928POPC   C1A39459  43.777  35.019   6.133
 2928POPC   D2A39460  43.502  34.933   6.533
 2928POPC   C3A39461  43.758  34.991   6.913
 2928POPC   C4A39462  44.072  35.247   7.141
 2928POPC   C1B39463  43.446  35.393   6.223
 2928POPC   C2B39464  43.703  35.405   6.608
 2928POPC   C3B39465  43.590  35.448   7.033
 2928POPC   C4B39466  43.658  35.628   7.448
 2929POPC   NC339467  22.068  30.311   5.276
 2929POPC   PO439468  22.281  30.788   5.660
 2929POPC   GL139469  22.058  30.612   5.922
 2929POPC   GL239470  21.796  30.872   5.878
 2929POPC   C1A39471  22.281  30.516   6.312
 2929POPC   D2A39472  22.624  30.425   6.601
 2929POPC   C3A39473  22.417  30.544   6.970
 2929POPC   C4A39474  22.043  30.521   7.177
 2929POPC   C1B39475  21.960  30.936   6.301
 2929POPC   C2B39476  21.996  30.800   6.731
 2929POPC   C3B39477  22.007  31.021   7.124
 2929POPC   C4B39478  22.406  30.982   7.256
 2930POPC   NC339479  38.586  32.713   5.478
 2930POPC   PO439480  38.111  33.126   5.304
 2930POPC   GL139481  38.343  33.134   5.716
 2930POPC   GL239482  38.562  33.413   5.803
 2930POPC   C1A39483  38.470  32.958   6.126
 2930POPC   D2A39484  38.287  32.892   6.536
 2930POPC   C3A39485  38.566  32.917   6.895
 2930POPC   C4A39486  38.663  32.963   7.337
 2930POPC   C1B39487  38.385  33.471   6.186
 2930POPC   C2B39488  38.532  33.343   6.586
 2930POPC   C3B39489  38.450  33.525   6.979
 2930POPC   C4B39490  38.348  33.393   7.361
 2931POPC   NC339491  12.406  37.236   5.534
 2931POPC   PO439492  12.933  37.628   5.218
 2931POPC   GL139493  12.956  37.745   5.673
 2931POPC   GL239494  12.599  37.779   5.777
 2931POPC   C1A39495  13.015  37.639   6.129
 2931POPC   D2A39496  12.827  37.746   6.518
 2931POPC   C3A39497  12.911  37.598   6.913
 2931POPC   C4A39498  13.161  37.696   7.272
 2931POPC   C1B39499  12.442  37.601   6.178
 2931POPC   C2B39500  12.515  37.349   6.564
 2931POPC   C3B39501  12.459  37.265   6.964
 2931POPC   C4B39502  12.630  37.454   7.334
 2932POPC   NC339503   7.877  24.701   5.249
 2932POPC   PO439504   8.451  24.235   5.280
 2932POPC   GL139505   8.370  24.569   5.628
 2932POPC   GL239506   8.715  24.551   5.760
 2932POPC   C1A39507   8.157  24.738   6.037
 2932POPC   D2A39508   8.204  24.915   6.492
 2932POPC   C3A39509   8.024  24.653   6.840
 2932POPC   C4A39510   7.812  24.633   7.250
 2932POPC   C1B39511   8.517  24.364   6.102
 2932POPC   C2B39512   8.488  24.452   6.530
 2932POPC   C3B39513   8.373  24.271   6.890
 2932POPC   C4B39514   8.277  24.431   7.265
 2933POPC   NC339515  13.236  33.419   5.524
 2933POPC   PO439516  13.590  32.886   5.523
 2933POPC   GL139517  13.750  32.981   5.880
 2933POPC   GL239518  13.702  33.316   5.872
 2933POPC   C1A39519  13.626  32.948   6.289
 2933POPC   D2A39520  13.667  33.209   6.663
 2933POPC   C3A39521  13.721  32.926   7.004
 2933POPC   C4A39522  13.806  32.930   7.426
 2933POPC   C1B39523  13.430  33.424   6.236
 2933POPC   C2B39524  13.191  33.092   6.513
 2933POPC   C3B39525  13.243  33.128   6.950
 2933POPC   C4B39526  13.319  33.100   7.373
 2934POPC   NC339527  43.007  34.336   5.325
 2934POPC   PO439528  43.403  34.966   5.470
 2934POPC   GL139529  43.040  34.749   5.665
 2934POPC   GL239530  43.185  34.428   5.800
 2934POPC   C1A39531  42.875  34.721   6.096
 2934POPC   D2A39532  43.087  34.613   6.479
 2934POPC   C3A39533  42.927  34.600   6.901
 2934POPC   C4A39534  43.005  34.774   7.323
 2934POPC   C1B39535  43.081  34.184   6.180
 2934POPC   C2B39536  43.040  34.132   6.659
 2934POPC   C3B39537  43.152  34.185   7.132
 2934POPC   C4B39538  43.416  34.089   7.533
 2935POPC   NC339539  22.290  10.675   5.167
 2935POPC   PO439540  22.128  11.313   5.241
 2935POPC   GL139541  22.051  11.173   5.695
 2935POPC   GL239542  21.836  11.461   5.767
 2935POPC   C1A39543  21.957  11.211   6.177
 2935POPC   D2A39544  21.887  11.041   6.556
 2935POPC   C3A39545  22.049  11.253   6.893
 2935POPC   C4A39546  22.204  11.111   7.265
 2935POPC   C1B39547  21.657  11.636   6.132
 2935POPC   C2B39548  21.813  11.571   6.539
 2935POPC   C3B39549  21.682  11.617   6.950
 2935POPC   C4B39550  21.918  11.541   7.325
 2936POPC   NC339551  21.516  10.459   5.337
 2936POPC   PO439552  20.993  10.264   5.609
 2936POPC   GL139553  21.105  10.423   5.952
 2936POPC   GL239554  21.394  10.557   5.831
 2936POPC   C1A39555  21.132  10.317   6.371
 2936POPC   D2A39556  21.317  10.431   6.719
 2936POPC   C3A39557  21.036  10.601   7.004
 2936POPC   C4A39558  21.200  10.936   7.253
 2936POPC   C1B39559  21.621  10.378   6.158
 2936POPC   C2B39560  21.807  10.522   6.557
 2936POPC   C3B39561  21.810  10.376   6.966
 2936POPC   C4B39562  21.480  10.470   7.222
 2937POPC   NC339563   9.238  11.589   5.514
 2937POPC   PO439564   8.888  11.053   5.260
 2937POPC   GL139565   8.970  11.192   5.666
 2937POPC   GL239566   8.730  11.406   5.767
 2937POPC   C1A39567   9.092  11.197   6.108
 2937POPC   D2A39568   8.896  11.177   6.520
 2937POPC   C3A39569   9.185  11.061   6.867
 2937POPC   C4A39570   9.221  11.193   7.299
 2937POPC   C1B39571   8.774  11.609   6.159
 2937POPC   C2B39572   9.007  11.718   6.533
 2937POPC   C3B39573   8.963  11.518   6.923
 2937POPC   C4B39574   8.706  11.153   7.065
 2938POPC   NC339575  15.162  34.884   5.444
 2938POPC   PO439576  15.160  35.512   5.340
 2938POPC   GL139577  15.109  35.320   5.790
 2938POPC   GL239578  14.977  34.985   5.896
 2938POPC   C1A39579  15.067  35.286   6.274
 2938POPC   D2A39580  15.248  35.386   6.635
 2938POPC   C3A39581  15.097  35.408   7.042
 2938POPC   C4A39582  15.383  35.514   7.354
 2938POPC   C1B39583  15.361  34.888   6.143
 2938POPC   C2B39584  15.527  34.981   6.575
 2938POPC   C3B39585  15.288  34.935   6.979
 2938POPC   C4B39586  14.810  34.986   7.090
 2939POPC   NC339587  37.224  13.129   5.251
 2939POPC   PO439588  36.664  12.873   5.380
 2939POPC   GL139589  36.833  12.774   5.744
 2939POPC   GL239590  37.148  12.637   5.656
 2939POPC   C1A39591  36.672  12.674   6.140
 2939POPC   D2A39592  36.813  12.828   6.521
 2939POPC   C3A39593  36.650  12.691   6.914
 2939POPC   C4A39594  36.796  12.857   7.308
 2939POPC   C1B39595  37.186  12.698   6.107
 2939POPC   C2B39596  37.263  12.572   6.533
 2939POPC   C3B39597  37.153  12.773   6.944
 2939POPC   C4B39598  37.222  13.140   7.227
 2940POPC   NC339599  27.840   2.813   5.605
 2940POPC   PO439600  27.455   2.503   5.145
 2940POPC   GL139601  27.408   2.576   5.736
 2940POPC   GL239602  27.515   2.838   6.018
 2940POPC   C1A39603  27.320   2.462   6.240
 2940POPC   D2A39604  27.495   2.717   6.581
 2940POPC   C3A39605  27.521   2.679   7.029
 2940POPC   C4A39606  27.702   2.416   7.381
 2940POPC   C1B39607  27.823   3.022   6.332
 2940POPC   C2B39608  27.899   2.977   6.792
 2940POPC   C3B39609  27.730   3.174   7.162
 2940POPC   C4B39610  27.850   3.226   7.606
 2941POPC   NC339611   8.147  12.304   5.506
 2941POPC   PO439612   8.179  11.679   5.228
 2941POPC   GL139613   8.157  11.829   5.708
 2941POPC   GL239614   7.841  11.656   5.804
 2941POPC   C1A39615   8.168  12.127   6.145
 2941POPC   D2A39616   8.350  12.281   6.560
 2941POPC   C3A39617   8.247  12.075   6.931
 2941POPC   C4A39618   8.118  12.119   7.317
 2941POPC   C1B39619   7.745  11.839   6.216
 2941POPC   C2B39620   7.959  11.833   6.597
 2941POPC   C3B39621   7.932  11.639   7.032
 2941POPC   C4B39622   7.858  11.727   7.494
 2942POPC   NC339623  32.671  22.819   5.507
 2942POPC   PO439624  32.127  22.785   5.223
 2942POPC   GL139625  32.114  22.852   5.711
 2942POPC   GL239626  31.912  22.551   5.729
 2942POPC   C1A39627  32.283  22.927   6.196
 2942POPC   D2A39628  32.175  23.188   6.607
 2942POPC   C3A39629  32.127  23.053   7.056
 2942POPC   C4A39630  32.531  22.950   7.283
 2942POPC   C1B39631  31.874  22.650   6.144
 2942POPC   C2B39632  31.822  22.799   6.547
 2942POPC   C3B39633  31.880  22.582   6.945
 2942POPC   C4B39634  32.174  22.589   7.287
 2943POPC   NC339635   1.743  27.091   5.448
 2943POPC   PO439636   2.408  27.130   5.376
 2943POPC   GL139637   2.155  26.877   5.675
 2943POPC   GL239638   2.017  26.518   5.734
 2943POPC   C1A39639   1.967  26.960   6.071
 2943POPC   D2A39640   1.997  27.115   6.509
 2943POPC   C3A39641   1.990  26.830   6.863
 2943POPC   C4A39642   1.998  26.879   7.298
 2943POPC   C1B39643   1.748  26.509   6.152
 2943POPC   C2B39644   1.853  26.398   6.591
 2943POPC   C3B39645   1.659  26.450   7.017
 2943POPC   C4B39646   1.595  26.520   7.466
 2944POPC   NC339647  31.542  38.806   5.502
 2944POPC   PO439648  31.303  38.211   5.329
 2944POPC   GL139649  31.557  38.339   5.678
 2944POPC   GL239650  31.208  38.416   5.795
 2944POPC   C1A39651  31.801  38.542   6.036
 2944POPC   D2A39652  31.867  38.549   6.476
 2944POPC   C3A39653  31.577  38.666   6.791
 2944POPC   C4A39654  31.581  38.585   7.216
 2944POPC   C1B39655  31.294  38.539   6.190
 2944POPC   C2B39656  31.107  38.559   6.572
 2944POPC   C3B39657  31.154  38.428   6.990
 2944POPC   C4B39658  31.095  38.763   7.275
 2945POPC   NC339659  23.366  13.984   5.513
 2945POPC   PO439660  23.401  13.349   5.431
 2945POPC   GL139661  23.659  13.330   5.791
 2945POPC   GL239662  23.644  13.694   5.863
 2945POPC   C1A39663  23.703  13.373   6.252
 2945POPC   D2A39664  23.619  13.666   6.537
 2945POPC   C3A39665  23.531  13.633   6.956
 2945POPC   C4A39666  23.642  13.738   7.397
 2945POPC   C1B39667  23.971  13.840   6.161
 2945POPC   C2B39668  23.946  14.050   6.575
 2945POPC   C3B39669  23.966  13.932   7.009
 2945POPC   C4B39670  24.201  13.893   7.396
 2946POPC   NC339671  13.698  16.359   5.520
 2946POPC   PO439672  13.271  16.883   5.284
 2946POPC   GL139673  13.484  16.843   5.742
 2946POPC   GL239674  13.858  16.751   5.804
 2946POPC   C1A39675  13.595  16.910   6.200
 2946POPC   D2A39676  13.794  16.669   6.545
 2946POPC   C3A39677  13.468  16.622   6.873
 2946POPC   C4A39678  13.370  16.393   7.264
 2946POPC   C1B39679  14.104  16.906   6.133
 2946POPC   C2B39680  14.242  16.972   6.524
 2946POPC   C3B39681  14.084  16.894   6.908
 2946POPC   C4B39682  13.853  16.659   7.223
 2947POPC   NC339683  35.396  35.780   5.546
 2947POPC   PO439684  35.159  36.351   5.459
 2947POPC   GL139685  35.190  36.147   5.849
 2947POPC   GL239686  35.284  36.476   5.964
 2947POPC   C1A39687  35.393  35.915   6.202
 2947POPC   D2A39688  35.329  36.083   6.576
 2947POPC   C3A39689  35.293  35.854   6.933
 2947POPC   C4A39690  35.485  36.100   7.212
 2947POPC   C1B39691  35.679  36.334   6.169
 2947POPC   C2B39692  35.814  36.260   6.616
 2947POPC   C3B39693  35.784  36.448   7.022
 2947POPC   C4B39694  35.699  36.493   7.487
 2948POPC   NC339695  36.771  29.055   5.474
 2948POPC   PO439696  36.979  29.739   5.364
 2948POPC   GL139697  37.090  29.453   5.683
 2948POPC   GL239698  36.754  29.482   5.817
 2948POPC   C1A39699  37.175  29.135   6.021
 2948POPC   D2A39700  36.950  29.001   6.449
 2948POPC   C3A39701  37.057  29.106   6.921
 2948POPC   C4A39702  37.063  28.978   7.385
 2948POPC   C1B39703  36.993  29.580   6.188
 2948POPC   C2B39704  36.888  29.512   6.595
 2948POPC   C3B39705  36.598  29.335   6.869
 2948POPC   C4B39706  36.718  29.349   7.283
 2949POPC   NC339707   0.315  33.434   5.371
 2949POPC   PO439708   0.563  32.815   5.464
 2949POPC   GL139709   0.715  33.021   5.841
 2949POPC   GL239710   0.579  33.381   5.841
 2949POPC   C1A39711   0.634  33.075   6.282
 2949POPC   D2A39712   0.263  33.023   6.545
 2949POPC   C3A39713   0.536  33.005   6.887
 2949POPC   C4A39714   0.322  32.972   7.250
 2949POPC   C1B39715   0.273  33.430   6.208
 2949POPC   C2B39716   0.427  33.499   6.642
 2949POPC   C3B39717   0.414  33.444   7.092
 2949POPC   C4B39718   0.783  33.208   7.302
 2950POPC   NC339719  23.688   7.755   5.239
 2950POPC   PO439720  24.127   7.310   5.454
 2950POPC   GL139721  23.997   7.259   5.845
 2950POPC   GL239722  23.610   7.308   5.840
 2950POPC   C1A39723  23.888   7.352   6.253
 2950POPC   D2A39724  23.743   7.445   6.612
 2950POPC   C3A39725  23.809   7.211   6.985
 2950POPC   C4A39726  23.501   7.282   7.276
 2950POPC   C1B39727  23.520   7.695   6.113
 2950POPC   C2B39728  23.318   7.794   6.523
 2950POPC   C3B39729  23.444   7.698   6.933
 2950POPC   C4B39730  23.513   7.977   7.257
 2951POPC   NC339731  37.258  24.714   5.421
 2951POPC   PO439732  36.833  24.103   5.527
 2951POPC   GL139733  37.049  24.278   5.895
 2951POPC   GL239734  37.097  24.629   5.893
 2951POPC   C1A39735  37.231  24.371   6.304
 2951POPC   D2A39736  37.006  24.480   6.674
 2951POPC   C3A39737  37.040  24.314   7.084
 2951POPC   C4A39738  36.664  24.255   7.379
 2951POPC   C1B39739  36.774  24.716   6.239
 2951POPC   C2B39740  36.559  24.724   6.666
 2951POPC   C3B39741  36.675  24.668   7.110
 2951POPC   C4B39742  37.015  24.619   7.498
 2952POPC   NC339743  32.088  35.526   5.310
 2952POPC   PO439744  32.064  34.922   5.665
 2952POPC   GL139745  32.222  35.323   5.840
 2952POPC   GL239746  32.572  35.392   5.767
 2952POPC   C1A39747  32.157  35.437   6.270
 2952POPC   D2A39748  32.062  35.746   6.613
 2952POPC   C3A39749  32.055  35.462   6.941
 2952POPC   C4A39750  32.184  35.263   7.334
 2952POPC   C1B39751  32.648  35.593   6.171
 2952POPC   C2B39752  32.531  35.542   6.587
 2952POPC   C3B39753  32.564  35.432   7.009
 2952POPC   C4B39754  32.538  35.621   7.432
 2953POPC   NC339755  43.496  32.227   5.383
 2953POPC   PO439756  44.143  32.002   5.533
 2953POPC   GL139757  43.843  32.219   5.806
 2953POPC   GL239758  43.747  32.567   5.705
 2953POPC   C1A39759  43.767  32.222   6.253
 2953POPC   D2A39760  43.968  32.345   6.639
 2953POPC   C3A39761  43.954  32.127   7.027
 2953POPC   C4A39762  44.267  32.308   7.247
 2953POPC   C1B39763  43.592  32.724   6.088
 2953POPC   C2B39764  43.578  32.669   6.529
 2953POPC   C3B39765  43.577  32.502   6.951
 2953POPC   C4B39766  43.781  32.482   7.361
 2954POPC   NC339767  27.007  11.215   4.917
 2954POPC   PO439768  27.097  11.029   5.494
 2954POPC   GL139769  27.012  11.263   5.845
 2954POPC   GL239770  26.861  10.975   5.974
 2954POPC   C1A39771  26.975  11.525   6.212
 2954POPC   D2A39772  27.198  11.652   6.616
 2954POPC   C3A39773  27.076  11.581   7.059
 2954POPC   C4A39774  27.084  11.311   7.445
 2954POPC   C1B39775  26.918  11.054   6.368
 2954POPC   C2B39776  26.741  11.316   6.644
 2954POPC   C3B39777  26.759  11.151   7.023
 2954POPC   C4B39778  26.562  11.238   7.358
 2955POPC   NC339779  42.093   4.378   5.008
 2955POPC   PO439780  41.513   4.245   5.306
 2955POPC   GL139781  41.467   4.334   5.756
 2955POPC   GL239782  41.560   4.665   5.881
 2955POPC   C1A39783  41.320   4.366   6.206
 2955POPC   D2A39784  41.549   4.341   6.565
 2955POPC   C3A39785  41.396   4.409   6.978
 2955POPC   C4A39786  41.391   4.092   7.273
 2955POPC   C1B39787  41.845   4.367   6.124
 2955POPC   C2B39788  42.060   4.388   6.518
 2955POPC   C3B39789  41.901   4.286   6.920
 2955POPC   C4B39790  41.881   4.259   7.340
 2956POPC   NC339791  22.539  14.272   5.463
 2956POPC   PO439792  23.010  14.639   5.257
 2956POPC   GL139793  22.946  14.459   5.745
 2956POPC   GL239794  22.657  14.251   5.934
 2956POPC   C1A39795  23.073  14.256   6.181
 2956POPC   D2A39796  23.050  14.459   6.587
 2956POPC   C3A39797  22.931  14.195   6.908
 2956POPC   C4A39798  23.017  14.297   7.301
 2956POPC   C1B39799  22.661  14.565   6.259
 2956POPC   C2B39800  22.535  14.514   6.701
 2956POPC   C3B39801  22.726  14.668   7.113
 2956POPC   C4B39802  22.655  14.544   7.590
 2957POPC   NC339803  13.187  24.551   5.053
 2957POPC   PO439804  12.715  24.783   5.545
 2957POPC   GL139805  12.867  24.591   5.940
 2957POPC   GL239806  12.996  24.267   5.896
 2957POPC   C1A39807  12.765  24.422   6.348
 2957POPC   D2A39808  12.567  24.583   6.739
 2957POPC   C3A39809  12.860  24.582   7.122
 2957POPC   C4A39810  12.793  24.400   7.548
 2957POPC   C1B39811  13.112  24.056   6.333
 2957POPC   C2B39812  13.107  24.040   6.794
 2957POPC   C3B39813  13.043  24.108   7.226
 2957POPC   C4B39814  13.150  24.042   7.674
 2958POPC   NC339815  40.324  38.187   5.446
 2958POPC   PO439816  39.778  38.568   5.349
 2958POPC   GL139817  39.963  38.377   5.758
 2958POPC   GL239818  40.325  38.536   5.828
 2958POPC   C1A39819  40.059  38.337   6.214
 2958POPC   D2A39820  39.882  38.383   6.626
 2958POPC   C3A39821  40.139  38.367   6.988
 2958POPC   C4A39822  40.060  38.506   7.408
 2958POPC   C1B39823  40.320  38.795   6.223
 2958POPC   C2B39824  40.217  38.844   6.678
 2958POPC   C3B39825  40.338  38.842   7.127
 2958POPC   C4B39826  40.319  38.919   7.597
 2959POPC   NC339827  44.506  33.340   5.350
 2959POPC   PO439828  44.799  32.699   5.452
 2959POPC   GL139829  44.618  32.774   5.852
 2959POPC   GL239830  44.427  33.113   5.832
 2959POPC   C1A39831  44.849  32.893   6.229
 2959POPC   D2A39832  44.709  32.977   6.649
 2959POPC   C3A39833  44.862  32.890   7.050
 2959POPC   C4A39834  44.624  32.652   7.328
 2959POPC   C1B39835  44.567  33.332   6.226
 2959POPC   C2B39836  44.886  33.445   6.567
 2959POPC   C3B39837  44.754  33.400   7.005
 2959POPC   C4B39838  44.361  33.252   7.190
 2960POPC   NC339839  43.461  44.447   5.317
 2960POPC   PO439840  42.846  44.766   5.196
 2960POPC   GL139841  42.904  44.514   5.633
 2960POPC   GL239842  43.253  44.501   5.768
 2960POPC   C1A39843  42.918  44.653   6.119
 2960POPC   D2A39844  43.041  44.475   6.540
 2960POPC   C3A39845  43.009  44.736   6.922
 2960POPC   C4A39846  42.838  44.712   7.351
 2960POPC   C1B39847  43.431  44.516   6.183
 2960POPC   C2B39848  43.456  44.790   6.546
 2960POPC   C3B39849  43.484  44.950   6.942
 2960POPC   C4B39850  43.372  44.668   7.292
 2961POPC   NC339851  30.317  31.224   5.526
 2961POPC   PO439852  29.715  31.459   5.339
 2961POPC   GL139853  29.829  31.644   5.714
 2961POPC   GL239854  30.093  31.487   5.915
 2961POPC   C1A39855  29.614  31.672   6.107
 2961POPC   D2A39856  29.481  31.575   6.530
 2961POPC   C3A39857  29.792  31.666   6.808
 2961POPC   C4A39858  29.949  31.496   7.187
 2961POPC   C1B39859  29.967  31.386   6.347
 2961POPC   C2B39860  30.124  31.277   6.754
 2961POPC   C3B39861  30.407  31.313   7.116
 2961POPC   C4B39862  30.286  31.341   7.580
 2962POPC   NC339863  11.512  22.559   5.553
 2962POPC   PO439864  11.506  23.270   5.529
 2962POPC   GL139865  11.320  22.967   5.819
 2962POPC   GL239866  10.953  22.992   5.823
 2962POPC   C1A39867  11.337  22.717   6.221
 2962POPC   D2A39868  11.441  22.484   6.618
 2962POPC   C3A39869  11.481  22.810   6.940
 2962POPC   C4A39870  11.204  23.102   7.163
 2962POPC   C1B39871  10.824  22.734   6.206
 2962POPC   C2B39872  10.980  22.717   6.667
 2962POPC   C3B39873  10.818  22.746   7.099
 2962POPC   C4B39874  10.941  22.852   7.550
 2963POPC   NC339875   0.663  40.307   5.446
 2963POPC   PO439876   0.337  41.019   5.408
 2963POPC   GL139877   0.420  40.860   5.810
 2963POPC   GL239878   0.373  40.504   5.811
 2963POPC   C1A39879   0.574  40.924   6.231
 2963POPC   D2A39880   0.346  41.042   6.599
 2963POPC   C3A39881   0.522  40.942   7.009
 2963POPC   C4A39882   0.137  41.019   7.217
 2963POPC   C1B39883   0.182  40.558   6.205
 2963POPC   C2B39884   0.044  40.657   6.613
 2963POPC   C3B39885   0.174  40.542   7.023
 2963POPC   C4B39886   0.214  40.309   7.398
 2964POPC   NC339887  32.968  10.109   5.399
 2964POPC   PO439888  33.149  10.773   5.374
 2964POPC   GL139889  33.127  10.508   5.752
 2964POPC   GL239890  32.759  10.447   5.814
 2964POPC   C1A39891  33.253  10.544   6.207
 2964POPC   D2A39892  33.404  10.333   6.587
 2964POPC   C3A39893  33.390  10.609   6.931
 2964POPC   C4A39894  33.254  10.612   7.367
 2964POPC   C1B39895  32.800  10.331   6.273
 2964POPC   C2B39896  32.933  10.508   6.685
 2964POPC   C3B39897  32.868  10.734   7.079
 2964POPC   C4B39898  32.570  10.706   7.463
 2965POPC   NC339899  15.037  28.686   5.476
 2965POPC   PO439900  14.904  27.998   5.539
 2965POPC   GL139901  14.905  28.334   5.867
 2965POPC   GL239902  15.260  28.449   5.895
 2965POPC   C1A39903  14.932  28.477   6.311
 2965POPC   D2A39904  15.281  28.494   6.578
 2965POPC   C3A39905  15.262  28.247   6.966
 2965POPC   C4A39906  15.253  28.127   7.401
 2965POPC   C1B39907  15.542  28.732   6.156
 2965POPC   C2B39908  15.618  28.899   6.578
 2965POPC   C3B39909  15.522  28.718   6.971
 2965POPC   C4B39910  15.340  28.637   7.342
 2966POPC   NC339911  42.001  25.181   5.455
 2966POPC   PO439912  42.582  25.493   5.555
 2966POPC   GL139913  42.352  25.283   5.814
 2966POPC   GL239914  42.446  24.987   5.675
 2966POPC   C1A39915  42.175  25.397   6.199
 2966POPC   D2A39916  42.325  25.290   6.594
 2966POPC   C3A39917  42.145  25.467   6.946
 2966POPC   C4A39918  41.982  25.624   7.288
 2966POPC   C1B39919  42.336  24.908   6.164
 2966POPC   C2B39920  42.489  24.793   6.603
 2966POPC   C3B39921  42.274  24.966   6.994
 2966POPC   C4B39922  42.431  25.234   7.302
 2967POPC   NC339923  23.190  42.565   5.404
 2967POPC   PO439924  22.622  42.302   5.415
 2967POPC   GL139925  22.795  42.519   5.790
 2967POPC   GL239926  23.151  42.419   5.883
 2967POPC   C1A39927  22.617  42.458   6.196
 2967POPC   D2A39928  22.535  42.167   6.511
 2967POPC   C3A39929  22.518  42.312   6.900
 2967POPC   C4A39930  22.806  42.385   7.224
 2967POPC   C1B39931  23.135  42.241   6.276
 2967POPC   C2B39932  23.004  42.306   6.688
 2967POPC   C3B39933  23.214  42.116   7.005
 2967POPC   C4B39934  23.081  41.948   7.365
 2968POPC   NC339935  36.164   6.350   5.349
 2968POPC   PO439936  36.319   5.689   5.311
 2968POPC   GL139937  36.058   5.821   5.719
 2968POPC   GL239938  35.993   6.184   5.796
 2968POPC   C1A39939  36.023   5.814   6.202
 2968POPC   D2A39940  36.160   6.015   6.609
 2968POPC   C3A39941  36.281   5.758   6.932
 2968POPC   C4A39942  36.092   5.665   7.302
 2968POPC   C1B39943  35.783   6.262   6.189
 2968POPC   C2B39944  35.671   6.021   6.570
 2968POPC   C3B39945  35.825   6.013   7.023
 2968POPC   C4B39946  35.821   6.040   7.498
 2969POPC   NC339947  21.234   7.969   5.392
 2969POPC   PO439948  21.670   8.433   5.284
 2969POPC   GL139949  21.447   8.432   5.711
 2969POPC   GL239950  21.130   8.614   5.774
 2969POPC   C1A39951  21.506   8.402   6.178
 2969POPC   D2A39952  21.690   8.070   6.456
 2969POPC   C3A39953  21.773   8.192   6.870
 2969POPC   C4A39954  21.549   8.234   7.242
 2969POPC   C1B39955  21.049   8.214   6.004
 2969POPC   C2B39956  21.180   8.044   6.402
 2969POPC   C3B39957  21.208   8.269   6.789
 2969POPC   C4B39958  21.057   8.094   7.166
 2970POPC   NC339959  27.339  26.442   5.458
 2970POPC   PO439960  27.918  26.087   5.444
 2970POPC   GL139961  27.713  26.344   5.800
 2970POPC   GL239962  27.908  26.598   5.898
 2970POPC   C1A39963  27.601  26.419   6.272
 2970POPC   D2A39964  27.492  26.465   6.746
 2970POPC   C3A39965  27.375  26.166   7.109
 2970POPC   C4A39966  27.244  25.950   7.506
 2970POPC   C1B39967  28.120  26.452   6.252
 2970POPC   C2B39968  28.046  26.304   6.681
 2970POPC   C3B39969  27.851  26.348   7.100
 2970POPC   C4B39970  27.696  26.289   7.540
 2971POPC   NC339971   4.346  32.955   5.443
 2971POPC   PO439972   3.908  33.511   5.471
 2971POPC   GL139973   4.066  33.220   5.788
 2971POPC   GL239974   4.417  33.343   5.854
 2971POPC   C1A39975   4.170  33.097   6.211
 2971POPC   D2A39976   4.248  33.296   6.578
 2971POPC   C3A39977   4.238  33.023   6.913
 2971POPC   C4A39978   4.071  33.048   7.313
 2971POPC   C1B39979   4.637  32.962   6.064
 2971POPC   C2B39980   4.600  32.852   6.509
 2971POPC   C3B39981   4.761  32.908   6.911
 2971POPC   C4B39982   4.557  32.906   7.325
 2972POPC   NC339983   4.636  24.972   5.402
 2972POPC   PO439984   4.172  24.675   5.632
 2972POPC   GL139985   4.405  24.522   5.911
 2972POPC   GL239986   4.707  24.690   5.841
 2972POPC   C1A39987   4.259  24.421   6.293
 2972POPC   D2A39988   4.100  24.548   6.637
 2972POPC   C3A39989   4.059  24.253   6.920
 2972POPC   C4A39990   4.111  24.581   7.173
 2972POPC   C1B39991   4.713  24.626   6.285
 2972POPC   C2B39992   4.615  24.471   6.678
 2972POPC   C3B39993   4.606  24.589   7.087
 2972POPC   C4B39994   4.753  24.255   7.257
 2973POPC   NC339995  33.544  37.298   5.526
 2973POPC   PO439996  33.731  36.731   5.436
 2973POPC   GL139997  33.839  36.970   5.813
 2973POPC   GL239998  34.146  37.208   5.822
 2973POPC   C1A39999  33.888  36.794   6.229
 2973POPC   D2A40000  33.585  36.583   6.537
 2973POPC   C3A40001  33.652  36.691   6.951
 2973POPC   C4A40002  33.534  37.008   7.178
 2973POPC   C1B40003  33.958  37.322   6.188
 2973POPC   C2B40004  33.785  37.161   6.583
 2973POPC   C3B40005  33.981  37.091   6.972
 2973POPC   C4B40006  33.930  37.315   7.342
 2974POPC   NC340007  35.605  32.756   5.447
 2974POPC   PO440008  35.118  33.197   5.503
 2974POPC   GL140009  35.291  32.953   5.790
 2974POPC   GL240010  35.612  33.098   5.838
 2974POPC   C1A40011  35.371  32.803   6.186
 2974POPC   D2A40012  35.169  32.891   6.546
 2974POPC   C3A40013  35.388  33.094   6.876
 2974POPC   C4A40014  35.300  32.947   7.291
 2974POPC   C1B40015  35.863  33.358   6.101
 2974POPC   C2B40016  35.913  33.210   6.493
 2974POPC   C3B40017  35.911  33.326   6.893
 2974POPC   C4B40018  35.733  33.212   7.254
 2975POPC   NC340019  10.924  13.392   5.523
 2975POPC   PO440020  11.394  13.939   5.435
 2975POPC   GL140021  11.338  13.654   5.777
 2975POPC   GL240022  11.422  13.313   5.625
 2975POPC   C1A40023  11.307  13.858   6.211
 2975POPC   D2A40024  11.587  14.066   6.545
 2975POPC   C3A40025  11.513  13.934   6.976
 2975POPC   C4A40026  11.356  13.503   7.092
 2975POPC   C1B40027  11.275  13.190   6.071
 2975POPC   C2B40028  11.228  13.307   6.527
 2975POPC   C3B40029  10.959  13.181   6.876
 2975POPC   C4B40030  10.947  13.280   7.300
 2976POPC   NC340031  25.118   6.305   5.616
 2976POPC   PO440032  25.391   5.723   5.363
 2976POPC   GL140033  25.392   5.893   5.783
 2976POPC   GL240034  25.038   5.792   5.850
 2976POPC   C1A40035  25.312   5.982   6.231
 2976POPC   D2A40036  25.273   5.689   6.566
 2976POPC   C3A40037  25.173   5.926   6.858
 2976POPC   C4A40038  25.331   6.077   7.210
 2976POPC   C1B40039  24.912   5.540   6.245
 2976POPC   C2B40040  24.788   5.567   6.707
 2976POPC   C3B40041  24.973   5.568   7.142
 2976POPC   C4B40042  25.391   5.487   7.211
 2977POPC   NC340043  22.812   7.310   5.008
 2977POPC   PO440044  23.135   7.257   5.574
 2977POPC   GL140045  23.080   7.458   5.958
 2977POPC   GL240046  22.723   7.497   5.973
 2977POPC   C1A40047  23.228   7.315   6.369
 2977POPC   D2A40048  23.349   7.152   6.768
 2977POPC   C3A40049  23.057   7.118   7.101
 2977POPC   C4A40050  22.679   7.048   7.305
 2977POPC   C1B40051  22.828   7.684   6.384
 2977POPC   C2B40052  22.957   7.545   6.825
 2977POPC   C3B40053  23.095   7.617   7.286
 2977POPC   C4B40054  22.998   7.693   7.731
 2978POPC   NC340055   7.471  12.491   5.653
 2978POPC   PO440056   7.198  13.094   5.461
 2978POPC   GL140057   7.344  13.002   5.852
 2978POPC   GL240058   7.234  12.727   6.035
 2978POPC   C1A40059   7.583  13.043   6.230
 2978POPC   D2A40060   7.589  12.796   6.584
 2978POPC   C3A40061   7.542  12.989   6.973
 2978POPC   C4A40062   7.155  12.926   7.152
 2978POPC   C1B40063   7.012  12.464   6.305
 2978POPC   C2B40064   7.321  12.336   6.587
 2978POPC   C3B40065   7.399  12.496   6.971
 2978POPC   C4B40066   7.129  12.401   7.274
 2979POPC   NC340067  30.489  35.087   5.192
 2979POPC   PO440068  30.897  35.607   5.389
 2979POPC   GL140069  30.747  35.301   5.710
 2979POPC   GL240070  30.433  35.401   5.696
 2979POPC   C1A40071  30.493  35.125   6.101
 2979POPC   D2A40072  30.383  35.329   6.497
 2979POPC   C3A40073  30.701  35.244   6.802
 2979POPC   C4A40074  30.726  35.106   7.241
 2979POPC   C1B40075  30.275  35.645   6.053
 2979POPC   C2B40076  30.231  35.856   6.442
 2979POPC   C3B40077  30.193  35.817   6.874
 2979POPC   C4B40078  30.480  35.592   7.117
 2980POPC   NC340079  21.464  17.811   5.366
 2980POPC   PO440080  21.140  17.185   5.380
 2980POPC   GL140081  21.402  17.409   5.706
 2980POPC   GL240082  21.642  17.165   5.794
 2980POPC   C1A40083  21.401  17.623   6.152
 2980POPC   D2A40084  21.224  17.523   6.593
 2980POPC   C3A40085  21.463  17.565   6.963
 2980POPC   C4A40086  21.751  17.761   7.266
 2980POPC   C1B40087  21.304  17.118   6.123
 2980POPC   C2B40088  21.347  17.028   6.565
 2980POPC   C3B40089  21.170  17.106   6.963
 2980POPC   C4B40090  21.280  17.296   7.350
 2981POPC   NC340091  32.970  36.553   5.316
 2981POPC   PO440092  33.121  37.226   5.364
 2981POPC   GL140093  33.163  37.099   5.820
 2981POPC   GL240094  33.295  36.778   5.698
 2981POPC   C1A40095  33.078  37.086   6.313
 2981POPC   D2A40096  33.292  37.000   6.727
 2981POPC   C3A40097  33.023  36.927   7.105
 2981POPC   C4A40098  32.824  37.232   7.384
 2981POPC   C1B40099  33.287  36.654   6.125
 2981POPC   C2B40100  33.042  36.600   6.531
 2981POPC   C3B40101  33.195  36.470   6.939
 2981POPC   C4B40102  33.357  36.578   7.369
 2982POPC   NC340103  15.635   6.971   5.429
 2982POPC   PO440104  16.114   7.423   5.246
 2982POPC   GL140105  15.971   7.320   5.667
 2982POPC   GL240106  15.721   7.581   5.741
 2982POPC   C1A40107  16.006   7.362   6.135
 2982POPC   D2A40108  15.782   7.333   6.551
 2982POPC   C3A40109  16.043   7.332   6.924
 2982POPC   C4A40110  16.231   7.427   7.340
 2982POPC   C1B40111  15.604   7.649   6.158
 2982POPC   C2B40112  15.743   7.864   6.534
 2982POPC   C3B40113  15.704   7.738   6.963
 2982POPC   C4B40114  15.704   7.435   7.300
 2983POPC   NC340115  32.205  44.429   5.715
 2983POPC   PO440116  32.702  44.752   5.535
 2983POPC   GL140117  32.459  44.854   5.875
 2983POPC   GL240118  32.089  44.938   5.761
 2983POPC   C1A40119  32.482  44.660   6.287
 2983POPC   D2A40120  32.338  44.333   6.568
 2983POPC   C3A40121  32.303  44.507   6.979
 2983POPC   C4A40122  32.566  44.690   7.270
 2983POPC   C1B40123  32.124   0.052   6.195
 2983POPC   C2B40124  32.046  44.825   6.545
 2983POPC   C3B40125  31.919  44.876   6.956
 2983POPC   C4B40126  32.041  44.817   7.380
 2984POPC   NC340127  40.824   6.317   5.381
 2984POPC   PO440128  40.464   6.951   5.420
 2984POPC   GL140129  40.655   6.879   5.834
 2984POPC   GL240130  40.810   6.537   5.841
 2984POPC   C1A40131  40.709   6.776   6.289
 2984POPC   D2A40132  40.672   6.923   6.707
 2984POPC   C3A40133  40.681   6.662   7.058
 2984POPC   C4A40134  40.816   6.704   7.455
 2984POPC   C1B40135  41.050   6.391   6.207
 2984POPC   C2B40136  40.917   6.436   6.648
 2984POPC   C3B40137  40.838   6.155   7.024
 2984POPC   C4B40138  40.746   6.196   7.458
 2985POPC   NC340139  21.075  29.231   5.004
 2985POPC   PO440140  21.419  29.074   5.622
 2985POPC   GL140141  21.357  29.149   6.012
 2985POPC   GL240142  21.050  29.012   6.025
 2985POPC   C1A40143  21.592  29.172   6.409
 2985POPC   D2A40144  21.686  29.282   6.841
 2985POPC   C3A40145  21.432  29.242   7.222
 2985POPC   C4A40146  21.308  29.385   7.677
 2985POPC   C1B40147  21.237  28.788   6.359
 2985POPC   C2B40148  21.283  28.947   6.762
 2985POPC   C3B40149  21.088  28.851   7.092
 2985POPC   C4B40150  21.156  28.474   7.322
 2986POPC   NC340151  40.146  39.876   5.589
 2986POPC   PO440152  40.121  40.499   5.582
 2986POPC   GL140153  39.910  40.219   5.888
 2986POPC   GL240154  39.880  39.847   6.028
 2986POPC   C1A40155  39.930  40.263   6.309
 2986POPC   D2A40156  39.807  39.979   6.557
 2986POPC   C3A40157  39.811  40.207   6.936
 2986POPC   C4A40158  39.926  39.921   7.245
 2986POPC   C1B40159  40.221  39.661   6.293
 2986POPC   C2B40160  40.388  39.453   6.660
 2986POPC   C3B40161  40.345  39.692   7.033
 2986POPC   C4B40162  40.389  39.822   7.455
 2987POPC   NC340163  23.092  20.220   5.264
 2987POPC   PO440164  22.717  19.719   5.529
 2987POPC   GL140165  23.123  19.826   5.769
 2987POPC   GL240166  23.090  20.199   5.765
 2987POPC   C1A40167  23.225  19.707   6.230
 2987POPC   D2A40168  23.182  19.585   6.689
 2987POPC   C3A40169  22.825  19.666   6.949
 2987POPC   C4A40170  22.785  19.740   7.386
 2987POPC   C1B40171  22.803  20.033   6.116
 2987POPC   C2B40172  22.631  19.981   6.531
 2987POPC   C3B40173  22.729  20.157   6.919
 2987POPC   C4B40174  22.543  20.169   7.274
 2988POPC   NC340175   3.710   1.831   5.442
 2988POPC   PO440176   3.477   2.509   5.343
 2988POPC   GL140177   3.412   2.208   5.700
 2988POPC   GL240178   3.763   2.141   5.834
 2988POPC   C1A40179   3.409   1.898   6.074
 2988POPC   D2A40180   3.421   1.729   6.478
 2988POPC   C3A40181   3.478   1.783   6.901
 2988POPC   C4A40182   3.176   1.599   7.209
 2988POPC   C1B40183   3.898   1.899   6.193
 2988POPC   C2B40184   3.937   2.034   6.602
 2988POPC   C3B40185   3.785   2.319   6.877
 2988POPC   C4B40186   3.568   2.177   7.200
 2989POPC   NC340187  16.919   5.475   5.503
 2989POPC   PO440188  16.601   6.082   5.379
 2989POPC   GL140189  16.715   5.996   5.817
 2989POPC   GL240190  16.887   5.715   5.951
 2989POPC   C1A40191  16.715   6.237   6.181
 2989POPC   D2A40192  16.901   6.347   6.572
 2989POPC   C3A40193  16.896   6.118   6.924
 2989POPC   C4A40194  16.736   6.142   7.346
 2989POPC   C1B40195  16.896   5.836   6.397
 2989POPC   C2B40196  16.615   5.765   6.720
 2989POPC   C3B40197  16.759   5.686   7.144
 2989POPC   C4B40198  16.958   5.663   7.565
 2990POPC   NC340199  39.680  39.281   5.672
 2990POPC   PO440200  39.232  39.392   5.195
 2990POPC   GL140201  39.193  39.477   5.714
 2990POPC   GL240202  39.452  39.542   6.006
 2990POPC   C1A40203  39.006  39.404   6.179
 2990POPC   D2A40204  38.893  39.664   6.557
 2990POPC   C3A40205  39.024  39.555   6.965
 2990POPC   C4A40206  39.071  39.319   7.321
 2990POPC   C1B40207  39.483  39.215   6.322
 2990POPC   C2B40208  39.415  39.241   6.781
 2990POPC   C3B40209  39.413  39.009   7.122
 2990POPC   C4B40210  39.130  38.727   7.226
 2991POPC   NC340211  35.215  16.206   5.026
 2991POPC   PO440212  35.588  16.031   5.583
 2991POPC   GL140213  35.481  15.918   5.954
 2991POPC   GL240214  35.638  15.592   5.853
 2991POPC   C1A40215  35.094  15.975   6.216
 2991POPC   D2A40216  34.909  16.155   6.597
 2991POPC   C3A40217  35.130  16.018   6.971
 2991POPC   C4A40218  35.571  15.964   7.025
 2991POPC   C1B40219  35.409  15.513   6.245
 2991POPC   C2B40220  35.210  15.651   6.612
 2991POPC   C3B40221  35.129  15.515   7.011
 2991POPC   C4B40222  35.438  15.546   7.299
 2992POPC   NC340223   4.874  29.627   5.362
 2992POPC   PO440224   5.102  30.228   5.386
 2992POPC   GL140225   5.027  30.081   5.804
 2992POPC   GL240226   4.716  29.921   5.798
 2992POPC   C1A40227   4.988  29.976   6.245
 2992POPC   D2A40228   5.186  29.822   6.619
 2992POPC   C3A40229   5.083  29.980   7.011
 2992POPC   C4A40230   5.408  30.054   7.269
 2992POPC   C1B40231   4.610  29.640   6.164
 2992POPC   C2B40232   4.674  29.706   6.621
 2992POPC   C3B40233   4.730  29.625   7.065
 2992POPC   C4B40234   4.734  29.626   7.527
 2993POPC   NC340235   5.312   4.977   5.438
 2993POPC   PO440236   4.679   4.721   5.354
 2993POPC   GL140237   4.817   4.823   5.771
 2993POPC   GL240238   4.894   5.183   5.840
 2993POPC   C1A40239   4.924   4.774   6.215
 2993POPC   D2A40240   4.867   5.060   6.586
 2993POPC   C3A40241   4.790   4.858   6.949
 2993POPC   C4A40242   4.935   4.852   7.349
 2993POPC   C1B40243   5.179   5.219   6.215
 2993POPC   C2B40244   5.362   4.926   6.574
 2993POPC   C3B40245   5.316   4.986   7.011
 2993POPC   C4B40246   5.076   5.361   7.107
 2994POPC   NC340247  31.174  40.247   5.292
 2994POPC   PO440248  30.852  39.701   5.409
 2994POPC   GL140249  30.962  39.985   5.729
 2994POPC   GL240250  30.666  40.183   5.767
 2994POPC   C1A40251  30.965  39.998   6.177
 2994POPC   D2A40252  30.718  39.877   6.539
 2994POPC   C3A40253  30.924  39.959   6.923
 2994POPC   C4A40254  30.891  40.061   7.345
 2994POPC   C1B40255  30.466  40.185   6.180
 2994POPC   C2B40256  30.198  40.118   6.536
 2994POPC   C3B40257  30.258  40.035   6.975
 2994POPC   C4B40258  30.370  40.122   7.414
 2995POPC   NC340259  18.119  17.598   5.314
 2995POPC   PO440260  18.767  17.559   5.343
 2995POPC   GL140261  18.479  17.770   5.689
 2995POPC   GL240262  18.091  17.740   5.803
 2995POPC   C1A40263  18.474  17.850   6.150
 2995POPC   D2A40264  18.330  17.999   6.572
 2995POPC   C3A40265  18.319  17.651   6.924
 2995POPC   C4A40266  18.492  17.311   7.211
 2995POPC   C1B40267  17.985  17.720   6.271
 2995POPC   C2B40268  17.835  17.905   6.677
 2995POPC   C3B40269  17.797  17.748   7.102
 2995POPC   C4B40270  18.026  17.442   7.332
 2996POPC   NC340271   6.271   5.264   5.030
 2996POPC   PO440272   5.691   5.189   5.241
 2996POPC   GL140273   5.807   5.013   5.660
 2996POPC   GL240274   5.565   5.191   5.874
 2996POPC   C1A40275   5.999   4.952   6.094
 2996POPC   D2A40276   6.172   5.141   6.492
 2996POPC   C3A40277   5.893   5.087   6.860
 2996POPC   C4A40278   5.793   4.919   7.266
 2996POPC   C1B40279   5.668   5.260   6.349
 2996POPC   C2B40280   5.520   5.423   6.765
 2996POPC   C3B40281   5.582   5.389   7.233
 2996POPC   C4B40282   5.721   5.347   7.701
 2997POPC   NC340283   2.886   5.808   5.273
 2997POPC   PO440284   3.239   5.337   5.657
 2997POPC   GL140285   3.012   5.664   5.987
 2997POPC   GL240286   2.818   5.918   5.794
 2997POPC   C1A40287   3.112   5.947   6.380
 2997POPC   D2A40288   2.923   6.275   6.689
 2997POPC   C3A40289   2.842   6.097   7.075
 2997POPC   C4A40290   2.921   5.657   7.102
 2997POPC   C1B40291   2.632   5.978   6.208
 2997POPC   C2B40292   2.699   5.784   6.629
 2997POPC   C3B40293   2.410   5.671   6.938
 2997POPC   C4B40294   2.490   5.779   7.326
 2998POPC   NC340295  16.363   8.225   5.536
 2998POPC   PO440296  17.021   8.157   5.457
 2998POPC   GL140297  16.812   8.260   5.793
 2998POPC   GL240298  16.682   7.921   5.820
 2998POPC   C1A40299  16.683   8.298   6.197
 2998POPC   D2A40300  16.889   8.211   6.572
 2998POPC   C3A40301  16.968   8.506   6.895
 2998POPC   C4A40302  16.935   8.367   7.308
 2998POPC   C1B40303  16.975   7.756   6.123
 2998POPC   C2B40304  17.020   7.697   6.565
 2998POPC   C3B40305  16.924   7.865   6.950
 2998POPC   C4B40306  16.566   8.175   7.001
 2999POPC   NC340307  31.500  21.614   5.264
 2999POPC   PO440308  31.525  20.947   5.296
 2999POPC   GL140309  31.653  21.288   5.634
 2999POPC   GL240310  31.330  21.485   5.724
 2999POPC   C1A40311  31.831  21.543   6.027
 2999POPC   D2A40312  31.739  21.601   6.507
 2999POPC   C3A40313  31.811  21.223   6.788
 2999POPC   C4A40314  31.503  21.149   7.112
 2999POPC   C1B40315  31.062  21.656   6.039
 2999POPC   C2B40316  31.164  21.626   6.472
 2999POPC   C3B40317  31.193  21.477   6.883
 2999POPC   C4B40318  31.257  21.572   7.332
 3000POPC   NC340319  14.890  25.337   5.359
 3000POPC   PO440320  15.405  24.947   5.251
 3000POPC   GL140321  15.215  25.181   5.716
 3000POPC   GL240322  15.031  25.504   5.828
 3000POPC   C1A40323  14.896  25.123   6.118
 3000POPC   D2A40324  15.110  25.061   6.501
 3000POPC   C3A40325  15.068  25.247   6.880
 3000POPC   C4A40326  15.116  25.068   7.270
 3000POPC   C1B40327  15.167  25.529   6.261
 3000POPC   C2B40328  15.317  25.650   6.676
 3000POPC   C3B40329  15.322  25.614   7.130
 3000POPC   C4B40330  14.971  25.527   7.424
 3001POPC   NC340331   2.474  18.827   5.258
 3001POPC   PO440332   2.952  19.295   5.375
 3001POPC   GL140333   2.743  19.084   5.770
 3001POPC   GL240334   2.521  18.794   5.765
 3001POPC   C1A40335   2.678  19.072   6.234
 3001POPC   D2A40336   2.958  19.017   6.590
 3001POPC   C3A40337   2.939  19.253   6.961
 3001POPC   C4A40338   2.546  19.085   7.091
 3001POPC   C1B40339   2.633  18.582   6.173
 3001POPC   C2B40340   2.571  18.699   6.628
 3001POPC   C3B40341   2.556  18.588   7.094
 3001POPC   C4B40342   2.620  18.701   7.549
 3002POPC   NC340343   3.254  30.870   5.531
 3002POPC   PO440344   3.922  30.618   5.552
 3002POPC   GL140345   3.580  30.581   5.837
 3002POPC   GL240346   3.259  30.361   5.731
 3002POPC   C1A40347   3.641  30.773   6.255
 3002POPC   D2A40348   3.831  30.667   6.656
 3002POPC   C3A40349   3.604  30.830   7.002
 3002POPC   C4A40350   3.500  30.776   7.406
 3002POPC   C1B40351   3.222  30.482   6.191
 3002POPC   C2B40352   3.258  30.680   6.629
 3002POPC   C3B40353   3.217  30.469   7.050
 3002POPC   C4B40354   3.131  30.455   7.499
 3003POPC   NC340355  16.703  37.368   5.449
 3003POPC   PO440356  17.092  37.890   5.321
 3003POPC   GL140357  16.919  37.762   5.724
 3003POPC   GL240358  17.051  37.448   5.864
 3003POPC   C1A40359  16.689  37.763   6.139
 3003POPC   D2A40360  16.427  37.486   6.433
 3003POPC   C3A40361  16.496  37.391   6.889
 3003POPC   C4A40362  16.613  37.303   7.303
 3003POPC   C1B40363  17.075  37.481   6.335
 3003POPC   C2B40364  16.872  37.673   6.684
 3003POPC   C3B40365  16.854  37.714   7.140
 3003POPC   C4B40366  16.987  38.003   7.473
 3004POPC   NC340367  41.328  43.273   5.408
 3004POPC   PO440368  41.695  42.751   5.362
 3004POPC   GL140369  41.666  43.036   5.717
 3004POPC   GL240370  41.337  43.060   5.853
 3004POPC   C1A40371  41.754  43.253   6.095
 3004POPC   D2A40372  41.877  43.106   6.484
 3004POPC   C3A40373  41.818  43.323   6.838
 3004POPC   C4A40374  41.801  43.165   7.248
 3004POPC   C1B40375  41.238  43.397   6.131
 3004POPC   C2B40376  41.285  43.373   6.565
 3004POPC   C3B40377  41.360  43.109   6.925
 3004POPC   C4B40378  41.301  43.332   7.292
 3005POPC   NC340379  41.278   5.427   5.360
 3005POPC   PO440380  40.611   5.267   5.257
 3005POPC   GL140381  40.790   5.216   5.641
 3005POPC   GL240382  41.100   5.046   5.662
 3005POPC   C1A40383  40.640   5.447   6.004
 3005POPC   D2A40384  40.557   5.566   6.418
 3005POPC   C3A40385  40.642   5.290   6.759
 3005POPC   C4A40386  40.658   5.056   7.134
 3005POPC   C1B40387  41.146   5.354   6.011
 3005POPC   C2B40388  41.036   5.361   6.447
 3005POPC   C3B40389  41.153   5.245   6.908
 3005POPC   C4B40390  41.133   5.025   7.310
 3006POPC   NC340391  38.164  15.380   5.645
 3006POPC   PO440392  38.662  15.167   5.235
 3006POPC   GL140393  38.569  15.056   5.709
 3006POPC   GL240394  38.583  15.373   5.920
 3006POPC   C1A40395  38.331  14.995   6.147
 3006POPC   D2A40396  38.416  15.029   6.602
 3006POPC   C3A40397  38.317  14.841   7.024
 3006POPC   C4A40398  38.522  14.963   7.407
 3006POPC   C1B40399  38.350  15.493   6.316
 3006POPC   C2B40400  38.116  15.410   6.729
 3006POPC   C3B40401  38.278  15.343   7.137
 3006POPC   C4B40402  38.140  15.353   7.581
 3007POPC   NC340403   6.261  24.712   5.332
 3007POPC   PO440404   6.836  24.298   5.276
 3007POPC   GL140405   6.585  24.330   5.662
 3007POPC   GL240406   6.654  24.678   5.676
 3007POPC   C1A40407   6.510  24.177   6.123
 3007POPC   D2A40408   6.618  24.006   6.561
 3007POPC   C3A40409   6.534  24.287   6.926
 3007POPC   C4A40410   6.396  24.755   6.949
 3007POPC   C1B40411   6.818  24.595   6.078
 3007POPC   C2B40412   6.690  24.663   6.490
 3007POPC   C3B40413   6.906  24.635   6.850
 3007POPC   C4B40414   6.798  24.590   7.245
 3008POPC   NC340415  34.870  33.582   5.447
 3008POPC   PO440416  34.420  34.130   5.579
 3008POPC   GL140417  34.741  33.929   5.805
 3008POPC   GL240418  34.624  33.590   5.895
 3008POPC   C1A40419  34.947  33.910   6.206
 3008POPC   D2A40420  34.782  33.730   6.600
 3008POPC   C3A40421  34.625  33.819   7.017
 3008POPC   C4A40422  34.810  33.504   7.300
 3008POPC   C1B40423  34.420  33.772   6.257
 3008POPC   C2B40424  34.219  33.821   6.665
 3008POPC   C3B40425  34.100  33.883   7.070
 3008POPC   C4B40426  34.212  33.753   7.433
 3009POPC   NC340427   8.620  10.026   5.522
 3009POPC   PO440428   9.119  10.247   5.806
 3009POPC   GL140429   8.868   9.852   5.938
 3009POPC   GL240430   9.147   9.613   6.064
 3009POPC   C1A40431   8.719   9.586   6.317
 3009POPC   D2A40432   9.012   9.496   6.686
 3009POPC   C3A40433   8.790   9.562   7.081
 3009POPC   C4A40434   8.600   9.979   7.068
 3009POPC   C1B40435   9.065   9.958   6.391
 3009POPC   C2B40436   9.366  10.178   6.592
 3009POPC   C3B40437   9.572  10.006   6.951
 3009POPC   C4B40438   9.375   9.978   7.357
 3010POPC   NC340439  39.250  40.959   4.941
 3010POPC   PO440440  39.190  40.390   5.235
 3010POPC   GL140441  39.161  40.746   5.589
 3010POPC   GL240442  39.455  40.921   5.786
 3010POPC   C1A40443  39.100  40.777   6.084
 3010POPC   D2A40444  39.167  40.705   6.535
 3010POPC   C3A40445  38.892  40.811   6.889
 3010POPC   C4A40446  38.961  40.880   7.349
 3010POPC   C1B40447  39.572  40.933   6.270
 3010POPC   C2B40448  39.730  40.668   6.625
 3010POPC   C3B40449  39.613  40.702   7.087
 3010POPC   C4B40450  39.486  40.971   7.458
 3011POPC   NC340451   3.819  20.978   5.409
 3011POPC   PO440452   3.159  20.824   5.505
 3011POPC   GL140453   3.469  20.563   5.711
 3011POPC   GL240454   3.328  20.239   5.845
 3011POPC   C1A40455   3.576  20.574   6.153
 3011POPC   D2A40456   3.313  20.670   6.518
 3011POPC   C3A40457   3.579  20.605   6.888
 3011POPC   C4A40458   3.737  20.637   7.285
 3011POPC   C1B40459   3.352  20.153   6.323
 3011POPC   C2B40460   3.227  20.243   6.776
 3011POPC   C3B40461   3.291  20.344   7.232
 3011POPC   C4B40462   3.475  20.405   7.649
 3012POPC   NC340463  29.795  42.355   5.449
 3012POPC   PO440464  29.586  43.006   5.557
 3012POPC   GL140465  29.647  42.618   5.878
 3012POPC   GL240466  30.011  42.445   5.889
 3012POPC   C1A40467  29.720  42.379   6.315
 3012POPC   D2A40468  29.734  42.193   6.742
 3012POPC   C3A40469  29.944  42.350   7.085
 3012POPC   C4A40470  29.775  42.629   7.406
 3012POPC   C1B40471  30.111  42.106   6.167
 3012POPC   C2B40472  30.293  42.131   6.568
 3012POPC   C3B40473  30.394  42.105   6.993
 3012POPC   C4B40474  30.219  42.056   7.422
 3013POPC   NC340475  38.438  41.300   5.394
 3013POPC   PO440476  38.857  41.760   5.541
 3013POPC   GL140477  38.551  41.516   5.859
 3013POPC   GL240478  38.187  41.379   5.829
 3013POPC   C1A40479  38.427  41.385   6.283
 3013POPC   D2A40480  38.297  41.609   6.625
 3013POPC   C3A40481  38.557  41.764   6.949
 3013POPC   C4A40482  38.702  41.582   7.308
 3013POPC   C1B40483  37.921  41.331   6.196
 3013POPC   C2B40484  37.942  41.215   6.625
 3013POPC   C3B40485  38.125  41.347   7.016
 3013POPC   C4B40486  38.200  41.300   7.431
 3014POPC   NC340487   1.712  22.012   5.358
 3014POPC   PO440488   1.058  22.336   5.407
 3014POPC   GL140489   1.207  22.381   5.808
 3014POPC   GL240490   1.362  22.061   5.758
 3014POPC   C1A40491   1.359  22.306   6.217
 3014POPC   D2A40492   1.604  22.146   6.517
 3014POPC   C3A40493   1.301  22.193   6.806
 3014POPC   C4A40494   1.216  22.102   7.208
 3014POPC   C1B40495   0.999  21.957   6.060
 3014POPC   C2B40496   0.858  22.158   6.443
 3014POPC   C3B40497   0.789  22.169   6.891
 3014POPC   C4B40498   0.942  22.524   7.126
 3015POPC   NC340499   5.112   0.574   5.323
 3015POPC   PO440500   5.440   0.018   5.406
 3015POPC   GL140501   5.214   0.339   5.764
 3015POPC   GL240502   5.006   0.705   5.797
 3015POPC   C1A40503   5.304   0.536   6.188
 3015POPC   D2A40504   5.530   0.640   6.568
 3015POPC   C3A40505   5.257   0.586   6.936
 3015POPC   C4A40506   5.347   0.380   7.308
 3015POPC   C1B40507   4.830   0.717   6.224
 3015POPC   C2B40508   4.649   0.709   6.640
 3015POPC   C3B40509   4.755   0.630   7.092
 3015POPC   C4B40510   5.036   0.777   7.439
 3016POPC   NC340511  25.331  13.225   5.441
 3016POPC   PO440512  25.045  12.646   5.366
 3016POPC   GL140513  25.066  12.612   5.781
 3016POPC   GL240514  25.376  12.710   5.820
 3016POPC   C1A40515  25.017  12.778   6.188
 3016POPC   D2A40516  25.185  12.826   6.590
 3016POPC   C3A40517  25.180  12.585   6.963
 3016POPC   C4A40518  24.893  12.928   7.065
 3016POPC   C1B40519  25.536  12.743   6.228
 3016POPC   C2B40520  25.676  12.903   6.626
 3016POPC   C3B40521  25.462  13.016   6.986
 3016POPC   C4B40522  25.581  12.827   7.335
 3017POPC   NC340523   3.240   0.047   5.407
 3017POPC   PO440524   3.263   0.692   5.422
 3017POPC   GL140525   3.496   0.390   5.690
 3017POPC   GL240526   3.466   0.653   5.900
 3017POPC   C1A40527   3.556   0.218   6.132
 3017POPC   D2A40528   3.465   0.539   6.472
 3017POPC   C3A40529   3.562   0.408   6.872
 3017POPC   C4A40530   3.572   0.189   7.229
 3017POPC   C1B40531   3.623   0.924   6.175
 3017POPC   C2B40532   3.684   1.059   6.587
 3017POPC   C3B40533   3.805   0.881   6.945
 3017POPC   C4B40534   3.624   0.719   7.295
 3018POPC   NC340535  34.688  13.316   5.363
 3018POPC   PO440536  34.155  13.669   5.560
 3018POPC   GL140537  34.511  13.613   5.775
 3018POPC   GL240538  34.668  13.931   5.816
 3018POPC   C1A40539  34.624  13.489   6.194
 3018POPC   D2A40540  34.212  13.625   6.405
 3018POPC   C3A40541  34.208  13.826   6.809
 3018POPC   C4A40542  34.451  13.577   7.113
 3018POPC   C1B40543  34.537  13.980   6.200
 3018POPC   C2B40544  34.660  13.831   6.596
 3018POPC   C3B40545  34.682  14.024   6.980
 3018POPC   C4B40546  34.345  14.056   7.251
 3019POPC   NC340547   1.943  19.674   5.299
 3019POPC   PO440548   2.492  19.976   5.588
 3019POPC   GL140549   2.113  19.925   5.759
 3019POPC   GL240550   1.858  20.154   5.623
 3019POPC   C1A40551   2.168  19.852   6.205
 3019POPC   D2A40552   2.358  19.961   6.623
 3019POPC   C3A40553   2.136  19.820   7.000
 3019POPC   C4A40554   1.741  19.687   7.172
 3019POPC   C1B40555   1.739  20.124   6.065
 3019POPC   C2B40556   1.848  20.121   6.517
 3019POPC   C3B40557   1.716  20.144   6.949
 3019POPC   C4B40558   1.881  20.163   7.359
 3020POPC   NC340559  27.169  37.458   5.488
 3020POPC   PO440560  26.649  37.967   5.518
 3020POPC   GL140561  26.940  37.872   5.810
 3020POPC   GL240562  26.834  37.557   5.909
 3020POPC   C1A40563  26.997  37.906   6.251
 3020POPC   D2A40564  26.739  37.825   6.559
 3020POPC   C3A40565  26.925  37.709   6.931
 3020POPC   C4A40566  26.617  37.564   7.215
 3020POPC   C1B40567  27.251  37.503   6.112
 3020POPC   C2B40568  27.259  37.370   6.489
 3020POPC   C3B40569  27.283  37.264   6.878
 3020POPC   C4B40570  27.126  37.379   7.275
 3021POPC   NC340571  17.143  35.966   5.320
 3021POPC   PO440572  16.498  36.305   5.392
 3021POPC   GL140573  16.575  36.216   5.821
 3021POPC   GL240574  16.916  36.264   5.717
 3021POPC   C1A40575  16.563  36.078   6.293
 3021POPC   D2A40576  16.472  35.749   6.630
 3021POPC   C3A40577  16.362  35.978   7.008
 3021POPC   C4A40578  16.620  36.360   7.153
 3021POPC   C1B40579  17.040  36.204   6.110
 3021POPC   C2B40580  17.013  36.288   6.539
 3021POPC   C3B40581  16.875  36.009   6.850
 3021POPC   C4B40582  16.971  35.967   7.257
 3022POPC   NC340583  10.366  30.375   5.067
 3022POPC   PO440584  10.263  29.847   5.467
 3022POPC   GL140585  10.506  29.948   5.794
 3022POPC   GL240586  10.843  29.820   5.736
 3022POPC   C1A40587  10.358  29.871   6.186
 3022POPC   D2A40588  10.522  29.786   6.539
 3022POPC   C3A40589  10.297  29.644   6.859
 3022POPC   C4A40590  10.363  29.816   7.242
 3022POPC   C1B40591  10.874  29.980   6.154
 3022POPC   C2B40592  10.800  30.194   6.531
 3022POPC   C3B40593  10.769  30.019   6.917
 3022POPC   C4B40594  10.694  30.207   7.284
 3023POPC   NC340595  30.801  41.022   5.288
 3023POPC   PO440596  30.525  41.627   5.225
 3023POPC   GL140597  30.484  41.594   5.713
 3023POPC   GL240598  30.516  41.207   5.715
 3023POPC   C1A40599  30.470  41.752   6.180
 3023POPC   D2A40600  30.413  41.628   6.635
 3023POPC   C3A40601  30.740  41.687   6.958
 3023POPC   C4A40602  30.675  41.869   7.345
 3023POPC   C1B40603  30.475  41.258   6.121
 3023POPC   C2B40604  30.358  41.115   6.484
 3023POPC   C3B40605  30.277  41.200   6.904
 3023POPC   C4B40606  30.638  41.254   7.212
 3024POPC   NC340607  14.907  14.202   5.612
 3024POPC   PO440608  14.662  14.720   5.289
 3024POPC   GL140609  14.424  14.633   5.737
 3024POPC   GL240610  14.484  14.326   5.945
 3024POPC   C1A40611  14.315  14.706   6.221
 3024POPC   D2A40612  14.170  14.502   6.631
 3024POPC   C3A40613  14.310  14.701   7.049
 3024POPC   C4A40614  14.363  14.574   7.505
 3024POPC   C1B40615  14.628  14.261   6.356
 3024POPC   C2B40616  14.657  14.423   6.769
 3024POPC   C3B40617  14.566  14.262   7.169
 3024POPC   C4B40618  14.814  14.255   7.562
 3025POPC   NC340619  15.624  41.913   5.154
 3025POPC   PO440620  16.087  41.545   5.444
 3025POPC   GL140621  16.241  41.423   5.859
 3025POPC   GL240622  16.539  41.593   5.925
 3025POPC   C1A40623  16.046  41.505   6.274
 3025POPC   D2A40624  15.816  41.489   6.674
 3025POPC   C3A40625  15.956  41.643   7.087
 3025POPC   C4A40626  15.737  41.611   7.497
 3025POPC   C1B40627  16.531  41.434   6.356
 3025POPC   C2B40628  16.349  41.560   6.715
 3025POPC   C3B40629  16.457  41.772   7.084
 3025POPC   C4B40630  16.254  41.797   7.497
 3026POPC   NC340631   8.572   1.439   5.192
 3026POPC   PO440632   8.019   1.493   5.681
 3026POPC   GL140633   8.210   1.197   5.878
 3026POPC   GL240634   8.478   1.025   5.674
 3026POPC   C1A40635   8.237   1.378   6.297
 3026POPC   D2A40636   8.005   1.213   6.639
 3026POPC   C3A40637   8.024   1.304   7.065
 3026POPC   C4A40638   7.961   1.284   7.499
 3026POPC   C1B40639   8.608   1.020   6.143
 3026POPC   C2B40640   8.482   1.045   6.571
 3026POPC   C3B40641   8.392   0.909   6.963
 3026POPC   C4B40642   8.369   1.004   7.391
 3027POPC   NC340643  23.908   1.273   5.310
 3027POPC   PO440644  23.353   1.621   5.386
 3027POPC   GL140645  23.660   1.516   5.724
 3027POPC   GL240646  23.737   1.160   5.773
 3027POPC   C1A40647  23.635   1.490   6.189
 3027POPC   D2A40648  23.425   1.404   6.600
 3027POPC   C3A40649  23.714   1.297   6.934
 3027POPC   C4A40650  23.908   1.460   7.302
 3027POPC   C1B40651  23.892   1.040   6.161
 3027POPC   C2B40652  23.694   0.951   6.551
 3027POPC   C3B40653  23.518   0.782   6.900
 3027POPC   C4B40654  23.625   0.933   7.276
 3028POPC   NC340655  35.764   8.634   5.310
 3028POPC   PO440656  35.282   9.153   5.476
 3028POPC   GL140657  35.295   8.948   5.874
 3028POPC   GL240658  35.462   8.616   5.784
 3028POPC   C1A40659  35.104   8.739   6.262
 3028POPC   D2A40660  35.136   8.573   6.703
 3028POPC   C3A40661  35.063   8.873   7.071
 3028POPC   C4A40662  35.291   9.171   7.387
 3028POPC   C1B40663  35.627   8.774   6.184
 3028POPC   C2B40664  35.469   8.980   6.580
 3028POPC   C3B40665  35.573   8.836   7.000
 3028POPC   C4B40666  35.942   8.655   7.212
 3029POPC   NC340667  42.860   6.570   5.310
 3029POPC   PO440668  42.136   6.525   5.315
 3029POPC   GL140669  42.165   6.539   5.746
 3029POPC   GL240670  42.531   6.554   5.798
 3029POPC   C1A40671  42.153   6.756   6.122
 3029POPC   D2A40672  42.325   6.807   6.492
 3029POPC   C3A40673  42.109   6.628   6.802
 3029POPC   C4A40674  42.301   6.633   7.158
 3029POPC   C1B40675  42.705   6.336   6.183
 3029POPC   C2B40676  42.682   6.471   6.623
 3029POPC   C3B40677  42.608   6.241   7.022
 3029POPC   C4B40678  42.446   6.011   7.384
 3030POPC   NC340679  31.807  15.118   5.508
 3030POPC   PO440680  31.221  14.999   5.337
 3030POPC   GL140681  31.380  14.925   5.778
 3030POPC   GL240682  31.740  14.827   5.917
 3030POPC   C1A40683  31.393  15.088   6.200
 3030POPC   D2A40684  31.409  14.921   6.570
 3030POPC   C3A40685  31.344  15.148   6.929
 3030POPC   C4A40686  31.479  15.013   7.321
 3030POPC   C1B40687  31.889  15.186   6.168
 3030POPC   C2B40688  31.790  15.266   6.629
 3030POPC   C3B40689  31.765  15.406   7.072
 3030POPC   C4B40690  31.482  15.500   7.464
 3031POPC   NC340691  25.745   6.048   5.419
 3031POPC   PO440692  26.385   5.759   5.467
 3031POPC   GL140693  26.359   6.049   5.791
 3031POPC   GL240694  26.029   5.932   5.838
 3031POPC   C1A40695  26.307   6.253   6.172
 3031POPC   D2A40696  26.112   6.221   6.557
 3031POPC   C3A40697  26.176   5.949   6.899
 3031POPC   C4A40698  26.396   6.086   7.251
 3031POPC   C1B40699  25.779   5.784   6.144
 3031POPC   C2B40700  25.722   5.912   6.548
 3031POPC   C3B40701  25.677   5.792   6.935
 3031POPC   C4B40702  25.817   5.954   7.295
 3032POPC   NC340703  19.921  18.761   5.407
 3032POPC   PO440704  20.214  18.181   5.203
 3032POPC   GL140705  19.967  18.211   5.662
 3032POPC   GL240706  19.646  17.996   5.745
 3032POPC   C1A40707  19.984  18.136   6.146
 3032POPC   D2A40708  20.038  17.832   6.523
 3032POPC   C3A40709  19.961  17.968   6.952
 3032POPC   C4A40710  19.815  18.342   7.130
 3032POPC   C1B40711  19.485  18.239   6.121
 3032POPC   C2B40712  19.610  18.413   6.506
 3032POPC   C3B40713  19.383  18.415   6.882
 3032POPC   C4B40714  19.320  18.199   7.279
 3033POPC   NC340715   1.352  11.348   5.365
 3033POPC   PO440716   1.034  10.742   5.276
 3033POPC   GL140717   1.235  10.980   5.693
 3033POPC   GL240718   1.286  10.866   6.043
 3033POPC   C1A40719   1.307  11.378   6.016
 3033POPC   D2A40720   1.407  11.497   6.461
 3033POPC   C3A40721   1.152  11.287   6.778
 3033POPC   C4A40722   1.212  11.326   7.201
 3033POPC   C1B40723   0.958  11.118   6.301
 3033POPC   C2B40724   0.653  11.079   6.648
 3033POPC   C3B40725   0.714  11.105   7.100
 3033POPC   C4B40726   0.946  11.009   7.473
 3034POPC   NC340727  38.763  42.199   5.395
 3034POPC   PO440728  38.113  42.330   5.371
 3034POPC   GL140729  38.233  42.208   5.811
 3034POPC   GL240730  38.609  42.328   5.846
 3034POPC   C1A40731  38.337  42.291   6.258
 3034POPC   D2A40732  38.594  42.091   6.546
 3034POPC   C3A40733  38.462  42.266   6.924
 3034POPC   C4A40734  38.190  42.095   7.216
 3034POPC   C1B40735  38.783  42.601   6.150
 3034POPC   C2B40736  38.624  42.595   6.559
 3034POPC   C3B40737  38.814  42.660   6.959
 3034POPC   C4B40738  38.615  42.664   7.335
 3035POPC   NC340739  34.054   8.973   5.511
 3035POPC   PO440740  33.411   8.753   5.518
 3035POPC   GL140741  33.645   8.850   5.833
 3035POPC   GL240742  33.630   9.204   5.810
 3035POPC   C1A40743  33.547   8.844   6.236
 3035POPC   D2A40744  33.716   8.906   6.595
 3035POPC   C3A40745  33.494   8.904   6.951
 3035POPC   C4A40746  33.755   8.787   7.251
 3035POPC   C1B40747  33.908   9.225   6.172
 3035POPC   C2B40748  34.150   9.171   6.556
 3035POPC   C3B40749  33.917   9.256   6.925
 3035POPC   C4B40750  33.720   9.300   7.297
 3036POPC   NC340751  36.384  40.394   5.474
 3036POPC   PO440752  36.958  40.066   5.462
 3036POPC   GL140753  36.927  39.994   5.905
 3036POPC   GL240754  36.754  39.689   5.940
 3036POPC   C1A40755  37.178  39.974   6.307
 3036POPC   D2A40756  37.515  39.733   6.566
 3036POPC   C3A40757  37.318  39.593   6.951
 3036POPC   C4A40758  37.018  39.899   7.136
 3036POPC   C1B40759  36.630  39.922   6.313
 3036POPC   C2B40760  36.814  40.237   6.589
 3036POPC   C3B40761  36.646  40.250   6.998
 3036POPC   C4B40762  36.506  39.810   7.133
 3037POPC   NC340763  36.448   7.779   5.147
 3037POPC   PO440764  36.055   7.367   5.477
 3037POPC   GL140765  36.315   7.528   5.803
 3037POPC   GL240766  36.011   7.570   5.965
 3037POPC   C1A40767  36.384   7.649   6.281
 3037POPC   D2A40768  36.196   7.427   6.651
 3037POPC   C3A40769  36.371   7.442   7.027
 3037POPC   C4A40770  36.051   7.663   7.193
 3037POPC   C1B40771  35.831   7.247   6.228
 3037POPC   C2B40772  35.849   7.049   6.602
 3037POPC   C3B40773  35.819   7.243   7.006
 3037POPC   C4B40774  35.725   7.017   7.413
 3038POPC   NC340775  26.223  11.780   5.174
 3038POPC   PO440776  25.972  12.308   5.531
 3038POPC   GL140777  26.248  12.250   5.885
 3038POPC   GL240778  26.201  11.899   5.896
 3038POPC   C1A40779  26.314  12.117   6.350
 3038POPC   D2A40780  26.327  12.095   6.782
 3038POPC   C3A40781  26.295  12.330   7.128
 3038POPC   C4A40782  26.311  11.990   7.353
 3038POPC   C1B40783  25.848  12.033   6.191
 3038POPC   C2B40784  25.871  11.912   6.625
 3038POPC   C3B40785  25.891  12.032   7.044
 3038POPC   C4B40786  25.797  12.375   7.270
 3039POPC   NC340787   5.656  25.488   5.489
 3039POPC   PO440788   5.811  24.831   5.394
 3039POPC   GL140789   5.799  25.078   5.785
 3039POPC   GL240790   5.972  25.407   5.874
 3039POPC   C1A40791   5.885  25.026   6.223
 3039POPC   D2A40792   6.005  24.811   6.600
 3039POPC   C3A40793   5.922  25.110   6.912
 3039POPC   C4A40794   5.630  25.297   7.201
 3039POPC   C1B40795   5.780  25.603   6.222
 3039POPC   C2B40796   5.913  25.592   6.657
 3039POPC   C3B40797   6.025  25.596   7.092
 3039POPC   C4B40798   6.117  25.633   7.514
 3040POPC   NC340799  35.583  23.362   5.285
 3040POPC   PO440800  35.373  24.035   5.285
 3040POPC   GL140801  35.420  23.816   5.660
 3040POPC   GL240802  35.246  23.515   5.666
 3040POPC   C1A40803  35.504  23.846   6.107
 3040POPC   D2A40804  35.244  23.811   6.482
 3040POPC   C3A40805  35.424  23.979   6.862
 3040POPC   C4A40806  35.268  23.844   7.236
 3040POPC   C1B40807  35.281  23.398   6.109
 3040POPC   C2B40808  35.312  23.268   6.533
 3040POPC   C3B40809  35.232  23.463   6.886
 3040POPC   C4B40810  35.313  23.324   7.299
 3041POPC   NC340811  13.918  21.599   5.427
 3041POPC   PO440812  13.247  21.526   5.476
 3041POPC   GL140813  13.469  21.569   5.861
 3041POPC   GL240814  13.749  21.308   5.840
 3041POPC   C1A40815  13.483  21.404   6.279
 3041POPC   D2A40816  13.802  21.266   6.580
 3041POPC   C3A40817  13.617  21.300   6.968
 3041POPC   C4A40818  13.344  21.521   7.219
 3041POPC   C1B40819  13.969  21.568   6.185
 3041POPC   C2B40820  14.050  21.711   6.662
 3041POPC   C3B40821  14.006  21.579   7.143
 3041POPC   C4B40822  13.748  21.696   7.499
 3042POPC   NC340823  13.228   6.475   5.323
 3042POPC   PO440824  13.901   6.655   5.235
 3042POPC   GL140825  13.838   6.613   5.705
 3042POPC   GL240826  13.491   6.457   5.802
 3042POPC   C1A40827  13.782   6.744   6.153
 3042POPC   D2A40828  13.628   6.773   6.597
 3042POPC   C3A40829  13.629   6.443   6.900
 3042POPC   C4A40830  13.810   6.430   7.310
 3042POPC   C1B40831  13.290   6.559   6.221
 3042POPC   C2B40832  13.138   6.640   6.662
 3042POPC   C3B40833  13.295   6.822   7.049
 3042POPC   C4B40834  13.445   6.866   7.487
 3043POPC   NC340835   7.982   9.892   5.129
 3043POPC   PO440836   8.478   9.560   5.461
 3043POPC   GL140837   8.330   9.757   5.850
 3043POPC   GL240838   7.971   9.869   5.841
 3043POPC   C1A40839   8.203   9.602   6.252
 3043POPC   D2A40840   8.009   9.593   6.649
 3043POPC   C3A40841   8.212   9.668   7.066
 3043POPC   C4A40842   8.464   9.709   7.479
 3043POPC   C1B40843   8.143  10.126   6.156
 3043POPC   C2B40844   8.281  10.037   6.564
 3043POPC   C3B40845   8.140  10.168   6.943
 3043POPC   C4B40846   7.925  10.006   7.308
 3044POPC   NC340847  11.572   4.892   5.379
 3044POPC   PO440848  11.080   5.350   5.307
 3044POPC   GL140849  11.020   5.112   5.743
 3044POPC   GL240850  11.341   4.906   5.826
 3044POPC   C1A40851  10.936   4.834   6.122
 3044POPC   D2A40852  11.141   4.866   6.515
 3044POPC   C3A40853  10.895   4.840   6.898
 3044POPC   C4A40854  11.064   4.830   7.316
 3044POPC   C1B40855  11.545   5.096   6.167
 3044POPC   C2B40856  11.501   5.226   6.590
 3044POPC   C3B40857  11.384   5.051   6.978
 3044POPC   C4B40858  11.593   4.801   7.304
 3045POPC   NC340859  42.181  35.022   5.437
 3045POPC   PO440860  42.550  34.448   5.403
 3045POPC   GL140861  42.211  34.331   5.748
 3045POPC   GL240862  42.057  34.660   5.781
 3045POPC   C1A40863  42.075  34.410   6.214
 3045POPC   D2A40864  42.151  34.660   6.587
 3045POPC   C3A40865  42.216  34.443   6.991
 3045POPC   C4A40866  42.587  34.452   7.259
 3045POPC   C1B40867  42.361  34.825   6.088
 3045POPC   C2B40868  42.374  35.119   6.440
 3045POPC   C3B40869  42.252  35.085   6.867
 3045POPC   C4B40870  42.284  34.882   7.252
 3046POPC   NC340871  19.708  32.041   5.441
 3046POPC   PO440872  19.521  32.621   5.486
 3046POPC   GL140873  19.767  32.375   5.850
 3046POPC   GL240874  19.670  32.030   5.943
 3046POPC   C1A40875  19.847  32.327   6.330
 3046POPC   D2A40876  19.588  32.371   6.699
 3046POPC   C3A40877  19.727  32.289   7.102
 3046POPC   C4A40878  20.149  32.295   7.309
 3046POPC   C1B40879  19.439  31.888   6.301
 3046POPC   C2B40880  19.239  31.972   6.705
 3046POPC   C3B40881  19.366  31.844   7.126
 3046POPC   C4B40882  19.559  32.008   7.487
 3047POPC   NC340883  26.215  38.120   5.464
 3047POPC   PO440884  26.106  38.766   5.421
 3047POPC   GL140885  26.009  38.471   5.763
 3047POPC   GL240886  25.750  38.218   5.663
 3047POPC   C1A40887  26.147  38.369   6.171
 3047POPC   D2A40888  26.124  38.651   6.532
 3047POPC   C3A40889  26.181  38.441   6.880
 3047POPC   C4A40890  26.307  38.366   7.264
 3047POPC   C1B40891  25.625  38.252   6.094
 3047POPC   C2B40892  25.771  38.284   6.523
 3047POPC   C3B40893  25.741  38.200   6.947
 3047POPC   C4B40894  25.884  38.077   7.343
 3048POPC   NC340895  43.008  20.438   5.302
 3048POPC   PO440896  42.985  21.133   5.312
 3048POPC   GL140897  42.969  20.811   5.700
 3048POPC   GL240898  43.239  20.565   5.774
 3048POPC   C1A40899  42.908  20.713   6.160
 3048POPC   D2A40900  43.048  20.911   6.570
 3048POPC   C3A40901  43.055  20.666   6.929
 3048POPC   C4A40902  42.895  20.639   7.307
 3048POPC   C1B40903  43.419  20.705   6.167
 3048POPC   C2B40904  43.403  20.517   6.564
 3048POPC   C3B40905  43.555  20.629   6.965
 3048POPC   C4B40906  43.404  20.672   7.381
 3049POPC   NC340907  35.578  12.706   5.539
 3049POPC   PO440908  35.143  13.211   5.342
 3049POPC   GL140909  35.150  13.006   5.733
 3049POPC   GL240910  35.008  12.711   5.770
 3049POPC   C1A40911  35.048  13.101   6.170
 3049POPC   D2A40912  35.341  13.154   6.510
 3049POPC   C3A40913  35.263  13.018   6.930
 3049POPC   C4A40914  35.589  12.973   7.233
 3049POPC   C1B40915  35.136  12.560   6.168
 3049POPC   C2B40916  35.244  12.628   6.587
 3049POPC   C3B40917  35.157  12.507   7.016
 3049POPC   C4B40918  35.366  12.507   7.418
 3050POPC   NC340919  24.967   7.519   5.475
 3050POPC   PO440920  25.561   7.253   5.367
 3050POPC   GL140921  25.354   7.290   5.790
 3050POPC   GL240922  25.041   7.195   5.862
 3050POPC   C1A40923  25.377   7.301   6.263
 3050POPC   D2A40924  25.130   7.284   6.664
 3050POPC   C3A40925  25.316   7.250   7.055
 3050POPC   C4A40926  25.287   7.031   7.433
 3050POPC   C1B40927  24.852   7.316   6.234
 3050POPC   C2B40928  24.620   7.320   6.622
 3050POPC   C3B40929  24.741   7.396   7.024
 3050POPC   C4B40930  24.963   7.443   7.369
 3051POPC   NC340931  41.940  41.570   5.400
 3051POPC   PO440932  41.365  41.200   5.167
 3051POPC   GL140933  41.553  41.228   5.615
 3051POPC   GL240934  41.614  41.571   5.792
 3051POPC   C1A40935  41.618  41.155   6.085
 3051POPC   D2A40936  41.461  41.364   6.466
 3051POPC   C3A40937  41.628  41.297   6.868
 3051POPC   C4A40938  41.847  41.461   7.202
 3051POPC   C1B40939  41.716  41.750   6.223
 3051POPC   C2B40940  41.924  41.716   6.670
 3051POPC   C3B40941  41.646  41.866   7.001
 3051POPC   C4B40942  41.260  41.691   6.846
 3052POPC   NC340943  31.039  38.578   5.237
 3052POPC   PO440944  30.546  38.227   5.446
 3052POPC   GL140945  30.690  38.506   5.771
 3052POPC   GL240946  30.580  38.831   5.803
 3052POPC   C1A40947  30.750  38.417   6.218
 3052POPC   D2A40948  30.500  38.400   6.614
 3052POPC   C3A40949  30.663  38.370   7.043
 3052POPC   C4A40950  30.748  38.458   7.492
 3052POPC   C1B40951  30.324  38.695   6.137
 3052POPC   C2B40952  30.180  38.810   6.568
 3052POPC   C3B40953  30.288  38.746   6.978
 3052POPC   C4B40954  30.543  38.883   7.317
 3053POPC   NC340955  18.751  44.468   5.422
 3053POPC   PO440956  19.121   0.126   5.438
 3053POPC   GL140957  18.955  44.941   5.825
 3053POPC   GL240958  18.967  44.586   5.859
 3053POPC   C1A40959  18.822  44.893   6.273
 3053POPC   D2A40960  18.659  44.630   6.630
 3053POPC   C3A40961  18.820  44.853   6.938
 3053POPC   C4A40962  19.209  44.819   7.188
 3053POPC   C1B40963  18.893  44.360   6.229
 3053POPC   C2B40964  18.922  44.180   6.622
 3053POPC   C3B40965  18.953  44.372   7.016
 3053POPC   C4B40966  19.094  44.292   7.408
 3054POPC   NC340967  26.870  36.666   5.219
 3054POPC   PO440968  26.955  37.114   5.688
 3054POPC   GL140969  26.626  37.056   5.841
 3054POPC   GL240970  26.582  36.718   5.674
 3054POPC   C1A40971  26.576  37.153   6.297
 3054POPC   D2A40972  26.901  37.020   6.622
 3054POPC   C3A40973  26.929  36.940   7.080
 3054POPC   C4A40974  26.957  36.511   7.277
 3054POPC   C1B40975  26.359  36.724   6.095
 3054POPC   C2B40976  26.448  36.707   6.546
 3054POPC   C3B40977  26.509  36.680   6.982
 3054POPC   C4B40978  26.579  36.782   7.442
 3055POPC   NC340979  39.036   0.039   5.276
 3055POPC   PO440980  39.255  44.416   5.156
 3055POPC   GL140981  39.199  44.406   5.613
 3055POPC   GL240982  39.081  44.750   5.723
 3055POPC   C1A40983  39.204  44.412   6.087
 3055POPC   D2A40984  39.483  44.666   6.341
 3055POPC   C3A40985  39.447  44.664   6.771
 3055POPC   C4A40986  39.305  44.713   7.168
 3055POPC   C1B40987  39.284   0.043   6.068
 3055POPC   C2B40988  39.550   0.154   6.474
 3055POPC   C3B40989  39.524   0.135   6.945
 3055POPC   C4B40990  39.250   0.213   7.326
 3056POPC   NC340991  23.622  44.090   5.496
 3056POPC   PO440992  23.232  43.638   5.246
 3056POPC   GL140993  23.477  43.660   5.743
 3056POPC   GL240994  23.845  43.777   5.845
 3056POPC   C1A40995  23.527  43.808   6.229
 3056POPC   D2A40996  23.395  43.837   6.686
 3056POPC   C3A40997  23.663  43.917   7.049
 3056POPC   C4A40998  23.431  43.861   7.411
 3056POPC   C1B40999  23.945  44.120   6.142
 3056POPC   C2B41000  23.854  44.117   6.581
 3056POPC   C3B41001  24.127  44.141   6.941
 3056POPC   C4B41002  24.151  44.132   7.384
 3057POPC   NC341003  13.282   3.171   5.477
 3057POPC   PO441004  13.750   2.779   5.390
 3057POPC   GL141005  13.567   2.884   5.783
 3057POPC   GL241006  13.806   3.162   5.860
 3057POPC   C1A41007  13.412   3.091   6.162
 3057POPC   D2A41008  13.300   2.969   6.566
 3057POPC   C3A41009  13.466   2.899   6.950
 3057POPC   C4A41010  13.305   3.089   7.234
 3057POPC   C1B41011  13.861   2.821   6.191
 3057POPC   C2B41012  13.748   2.707   6.591
 3057POPC   C3B41013  13.921   2.662   7.018
 3057POPC   C4B41014  14.134   2.910   7.355
 3058POPC   NC341015  16.032   2.922   5.379
 3058POPC   PO441016  15.584   2.415   5.386
 3058POPC   GL141017  15.897   2.567   5.727
 3058POPC   GL241018  15.836   2.920   5.838
 3058POPC   C1A41019  16.144   2.676   6.128
 3058POPC   D2A41020  16.031   2.981   6.459
 3058POPC   C3A41021  16.147   2.867   6.848
 3058POPC   C4A41022  15.962   2.598   7.119
 3058POPC   C1B41023  15.650   2.716   6.208
 3058POPC   C2B41024  15.716   2.628   6.659
 3058POPC   C3B41025  15.609   2.928   7.005
 3058POPC   C4B41026  15.628   3.319   7.200
 3059POPC   NC341027   2.407   9.132   5.391
 3059POPC   PO441028   3.151   8.902   5.393
 3059POPC   GL141029   2.939   8.825   5.779
 3059POPC   GL241030   2.624   8.719   5.656
 3059POPC   C1A41031   2.984   9.046   6.206
 3059POPC   D2A41032   2.879   9.263   6.627
 3059POPC   C3A41033   2.919   9.036   7.048
 3059POPC   C4A41034   3.194   8.915   7.373
 3059POPC   C1B41035   2.480   8.974   6.039
 3059POPC   C2B41036   2.587   8.873   6.471
 3059POPC   C3B41037   2.468   9.000   6.850
 3059POPC   C4B41038   2.429   9.128   7.253
 3060POPC   NC341039  25.391  15.626   5.122
 3060POPC   PO441040  25.167  15.038   5.300
 3060POPC   GL141041  25.092  14.951   5.739
 3060POPC   GL241042  24.756  14.837   5.818
 3060POPC   C1A41043  25.152  15.113   6.167
 3060POPC   D2A41044  25.035  15.417   6.499
 3060POPC   C3A41045  25.014  15.351   6.954
 3060POPC   C4A41046  25.354  15.245   7.269
 3060POPC   C1B41047  24.859  14.697   6.239
 3060POPC   C2B41048  24.981  14.897   6.626
 3060POPC   C3B41049  25.099  14.849   7.051
 3060POPC   C4B41050  25.092  14.837   7.481
 3061POPC   NC341051  25.232  20.011   5.319
 3061POPC   PO441052  25.274  19.386   5.453
 3061POPC   GL141053  25.362  19.689   5.732
 3061POPC   GL241054  25.058  19.823   5.785
 3061POPC   C1A41055  25.428  19.826   6.161
 3061POPC   D2A41056  25.380  20.068   6.549
 3061POPC   C3A41057  25.379  19.849   6.927
 3061POPC   C4A41058  25.147  19.912   7.266
 3061POPC   C1B41059  24.993  19.553   6.134
 3061POPC   C2B41060  25.143  19.583   6.539
 3061POPC   C3B41061  24.956  19.543   6.942
 3061POPC   C4B41062  25.102  19.361   7.311
 3062POPC   NC341063   5.515   1.199   5.388
 3062POPC   PO441064   4.850   1.460   5.433
 3062POPC   GL141065   4.979   1.285   5.805
 3062POPC   GL241066   5.317   1.374   5.809
 3062POPC   C1A41067   5.083   1.263   6.248
 3062POPC   D2A41068   5.136   0.957   6.574
 3062POPC   C3A41069   5.035   1.054   6.990
 3062POPC   C4A41070   5.213   1.228   7.363
 3062POPC   C1B41071   5.547   1.549   6.159
 3062POPC   C2B41072   5.335   1.626   6.534
 3062POPC   C3B41073   5.358   1.444   6.924
 3062POPC   C4B41074   5.527   1.629   7.299
 3063POPC   NC341075  28.046   4.533   5.335
 3063POPC   PO441076  28.641   4.555   5.262
 3063POPC   GL141077  28.413   4.474   5.694
 3063POPC   GL241078  28.267   4.151   5.771
 3063POPC   C1A41079  28.380   4.530   6.181
 3063POPC   D2A41080  28.277   4.313   6.610
 3063POPC   C3A41081  28.403   4.301   7.066
 3063POPC   C4A41082  28.768   4.482   7.310
 3063POPC   C1B41083  28.060   4.138   6.186
 3063POPC   C2B41084  27.891   3.987   6.589
 3063POPC   C3B41085  28.191   3.848   6.875
 3063POPC   C4B41086  28.345   3.831   7.278
 3064POPC   NC341087   4.920  12.886   5.337
 3064POPC   PO441088   5.620  12.912   5.301
 3064POPC   GL141089   5.344  12.771   5.703
 3064POPC   GL241090   4.959  12.776   5.839
 3064POPC   C1A41091   5.345  12.646   6.159
 3064POPC   D2A41092   5.090  12.579   6.534
 3064POPC   C3A41093   5.237  12.752   6.933
 3064POPC   C4A41094   5.250  13.106   7.248
 3064POPC   C1B41095   4.877  12.988   6.271
 3064POPC   C2B41096   4.859  13.035   6.748
 3064POPC   C3B41097   4.778  12.924   7.209
 3064POPC   C4B41098   4.656  13.203   7.579
 3065POPC   NC341099   1.357  27.798   5.398
 3065POPC   PO441100   0.780  27.451   5.458
 3065POPC   GL141101   1.061  27.677   5.794
 3065POPC   GL241102   1.444  27.678   5.875
 3065POPC   C1A41103   1.079  27.896   6.202
 3065POPC   D2A41104   0.924  27.755   6.600
 3065POPC   C3A41105   1.109  27.886   6.993
 3065POPC   C4A41106   1.036  27.622   7.337
 3065POPC   C1B41107   1.251  27.427   6.214
 3065POPC   C2B41108   1.192  27.265   6.603
 3065POPC   C3B41109   1.334  27.395   6.991
 3065POPC   C4B41110   1.539  27.657   7.289
 3066POPC   NC341111  20.669  26.208   5.264
 3066POPC   PO441112  20.207  25.792   5.502
 3066POPC   GL141113  20.557  25.970   5.730
 3066POPC   GL241114  20.398  26.247   5.770
 3066POPC   C1A41115  20.801  26.196   6.088
 3066POPC   D2A41116  20.906  26.109   6.511
 3066POPC   C3A41117  20.789  26.291   6.878
 3066POPC   C4A41118  20.823  26.065   7.267
 3066POPC   C1B41119  20.302  26.065   6.178
 3066POPC   C2B41120  20.191  26.077   6.598
 3066POPC   C3B41121  20.361  25.995   6.967
 3066POPC   C4B41122  20.345  25.879   7.383
 3067POPC   NC341123  28.423  10.928   5.312
 3067POPC   PO441124  27.997  11.440   5.348
 3067POPC   GL141125  28.201  11.180   5.725
 3067POPC   GL241126  28.513  10.936   5.800
 3067POPC   C1A41127  28.196  11.284   6.175
 3067POPC   D2A41128  28.140  11.585   6.526
 3067POPC   C3A41129  28.168  11.399   6.918
 3067POPC   C4A41130  28.322  11.343   7.317
 3067POPC   C1B41131  28.375  10.808   6.215
 3067POPC   C2B41132  28.279  10.960   6.632
 3067POPC   C3B41133  28.489  10.946   7.023
 3067POPC   C4B41134  28.444  10.876   7.456
 3068POPC   NC341135  10.203  28.129   5.543
 3068POPC   PO441136  10.696  28.610   5.487
 3068POPC   GL141137  10.337  28.608   5.716
 3068POPC   GL241138  10.499  28.312   5.907
 3068POPC   C1A41139  10.136  28.601   6.102
 3068POPC   D2A41140  10.282  28.369   6.466
 3068POPC   C3A41141  10.163  28.533   6.862
 3068POPC   C4A41142  10.147  28.355   7.275
 3068POPC   C1B41143  10.690  28.579   6.207
 3068POPC   C2B41144  10.699  28.650   6.651
 3068POPC   C3B41145  10.615  28.554   7.082
 3068POPC   C4B41146  10.870  28.272   7.229
 3069POPC   NC341147  38.024   7.593   5.506
 3069POPC   PO441148  38.302   8.220   5.348
 3069POPC   GL141149  38.533   8.202   5.782
 3069POPC   GL241150  38.646   7.844   5.850
 3069POPC   C1A41151  38.536   8.379   6.231
 3069POPC   D2A41152  38.373   8.202   6.635
 3069POPC   C3A41153  38.403   8.440   7.010
 3069POPC   C4A41154  38.424   8.445   7.466
 3069POPC   C1B41155  38.559   7.851   6.298
 3069POPC   C2B41156  38.727   7.814   6.718
 3069POPC   C3B41157  38.693   8.030   7.133
 3069POPC   C4B41158  38.920   7.938   7.493
 3070POPC   NC341159  29.571  35.880   5.503
 3070POPC   PO441160  28.981  36.252   5.416
 3070POPC   GL141161  29.188  36.182   5.797
 3070POPC   GL241162  29.192  35.876   5.975
 3070POPC   C1A41163  29.204  36.347   6.217
 3070POPC   D2A41164  29.252  36.035   6.522
 3070POPC   C3A41165  29.194  36.177   6.931
 3070POPC   C4A41166  29.308  36.351   7.335
 3070POPC   C1B41167  28.856  35.766   6.297
 3070POPC   C2B41168  28.920  35.632   6.751
 3070POPC   C3B41169  28.964  35.790   7.200
 3070POPC   C4B41170  28.807  35.852   7.636
 3071POPC   NC341171  35.597  27.498   5.381
 3071POPC   PO441172  35.214  27.160   5.585
 3071POPC   GL141173  35.554  27.330   5.885
 3071POPC   GL241174  35.563  27.688   5.902
 3071POPC   C1A41175  35.681  27.377   6.351
 3071POPC   D2A41176  35.673  27.562   6.795
 3071POPC   C3A41177  35.590  27.319   7.204
 3071POPC   C4A41178  35.190  27.339   7.451
 3071POPC   C1B41179  35.539  27.875   6.340
 3071POPC   C2B41180  35.322  27.937   6.742
 3071POPC   C3B41181  35.264  27.712   7.121
 3071POPC   C4B41182  35.333  27.826   7.572
 3072POPC   NC341183   5.439  31.847   5.551
 3072POPC   PO441184   4.981  31.536   5.107
 3072POPC   GL141185   4.948  31.650   5.641
 3072POPC   GL241186   5.190  31.552   5.883
 3072POPC   C1A41187   4.822  31.837   6.126
 3072POPC   D2A41188   4.929  31.642   6.522
 3072POPC   C3A41189   4.721  31.620   6.916
 3072POPC   C4A41190   4.819  31.503   7.303
 3072POPC   C1B41191   5.190  31.312   6.235
 3072POPC   C2B41192   5.386  31.304   6.608
 3072POPC   C3B41193   5.206  31.455   6.946
 3072POPC   C4B41194   5.291  31.752   7.209
 3073POPC   NC341195  15.993  22.458   5.526
 3073POPC   PO441196  15.714  21.879   5.318
 3073POPC   GL141197  15.691  22.063   5.754
 3073POPC   GL241198  15.557  22.377   5.869
 3073POPC   C1A41199  15.809  22.061   6.210
 3073POPC   D2A41200  15.800  21.982   6.654
 3073POPC   C3A41201  15.894  22.114   7.087
 3073POPC   C4A41202  16.099  21.883   7.412
 3073POPC   C1B41203  15.862  22.573   6.172
 3073POPC   C2B41204  16.016  22.470   6.603
 3073POPC   C3B41205  16.037  22.656   7.034
 3073POPC   C4B41206  15.933  22.512   7.459
 3074POPC   NC341207   6.448  25.638   5.661
 3074POPC   PO441208   6.763  25.136   5.425
 3074POPC   GL141209   6.671  25.187   5.866
 3074POPC   GL241210   6.330  25.047   5.835
 3074POPC   C1A41211   6.823  25.397   6.292
 3074POPC   D2A41212   6.870  25.454   6.770
 3074POPC   C3A41213   6.830  25.080   7.090
 3074POPC   C4A41214   6.706  25.009   7.522
 3074POPC   C1B41215   6.319  25.282   6.228
 3074POPC   C2B41216   6.467  25.127   6.601
 3074POPC   C3B41217   6.404  25.294   6.970
 3074POPC   C4B41218   6.558  25.451   7.361
 3075POPC   NC341219   3.631  31.745   5.153
 3075POPC   PO441220   3.220  31.289   5.344
 3075POPC   GL141221   3.419  31.403   5.716
 3075POPC   GL241222   3.708  31.606   5.651
 3075POPC   C1A41223   3.279  31.397   6.163
 3075POPC   D2A41224   3.089  31.521   6.586
 3075POPC   C3A41225   3.294  31.384   6.997
 3075POPC   C4A41226   3.755  31.329   7.075
 3075POPC   C1B41227   3.716  31.709   6.096
 3075POPC   C2B41228   3.870  31.796   6.510
 3075POPC   C3B41229   3.703  31.829   6.909
 3075POPC   C4B41230   3.977  31.812   7.229
 3076POPC   NC341231   8.074   3.077   5.482
 3076POPC   PO441232   8.582   2.603   5.511
 3076POPC   GL141233   8.248   2.679   5.808
 3076POPC   GL241234   8.203   3.006   5.956
 3076POPC   C1A41235   8.051   2.588   6.210
 3076POPC   D2A41236   8.138   2.838   6.588
 3076POPC   C3A41237   7.972   2.782   7.009
 3076POPC   C4A41238   7.733   2.837   7.391
 3076POPC   C1B41239   8.530   2.879   6.200
 3076POPC   C2B41240   8.663   2.692   6.537
 3076POPC   C3B41241   8.526   2.678   6.920
 3076POPC   C4B41242   8.388   2.720   7.314
 3077POPC   NC341243  43.247  40.685   5.374
 3077POPC   PO441244  42.556  40.485   5.566
 3077POPC   GL141245  42.886  40.772   5.769
 3077POPC   GL241246  43.265  40.842   5.849
 3077POPC   C1A41247  42.882  40.995   6.151
 3077POPC   D2A41248  42.969  40.833   6.538
 3077POPC   C3A41249  43.006  41.036   6.923
 3077POPC   C4A41250  43.028  40.864   7.324
 3077POPC   C1B41251  43.416  40.985   6.250
 3077POPC   C2B41252  43.495  40.968   6.693
 3077POPC   C3B41253  43.483  41.008   7.153
 3077POPC   C4B41254  43.342  41.254   7.539
 3078POPC   NC341255   9.092  38.653   5.037
 3078POPC   PO441256   8.749  38.112   5.236
 3078POPC   GL141257   8.847  38.327   5.630
 3078POPC   GL241258   9.162  38.533   5.638
 3078POPC   C1A41259   8.906  38.382   6.079
 3078POPC   D2A41260   8.745  38.525   6.458
 3078POPC   C3A41261   8.981  38.500   6.800
 3078POPC   C4A41262   8.878  38.429   7.218
 3078POPC   C1B41263   9.395  38.576   6.044
 3078POPC   C2B41264   9.422  38.622   6.495
 3078POPC   C3B41265   9.472  38.455   6.914
 3078POPC   C4B41266   9.331  38.623   7.296
 3079POPC   NC341267  28.879  26.802   5.466
 3079POPC   PO441268  29.383  26.423   5.171
 3079POPC   GL141269  29.286  26.465   5.651
 3079POPC   GL241270  29.303  26.794   5.794
 3079POPC   C1A41271  29.176  26.458   6.131
 3079POPC   D2A41272  29.000  26.604   6.535
 3079POPC   C3A41273  29.191  26.665   6.894
 3079POPC   C4A41274  29.394  26.592   7.255
 3079POPC   C1B41275  29.051  26.965   6.160
 3079POPC   C2B41276  29.000  27.126   6.610
 3079POPC   C3B41277  28.822  27.085   7.026
 3079POPC   C4B41278  28.981  26.899   7.378
 3080POPC   NC341279  42.690   5.193   5.087
 3080POPC   PO441280  42.200   4.761   5.256
 3080POPC   GL141281  42.402   5.023   5.631
 3080POPC   GL241282  42.678   5.223   5.616
 3080POPC   C1A41283  42.320   5.317   6.032
 3080POPC   D2A41284  42.068   5.258   6.423
 3080POPC   C3A41285  42.184   5.256   6.839
 3080POPC   C4A41286  42.089   5.099   7.229
 3080POPC   C1B41287  42.739   5.030   6.027
 3080POPC   C2B41288  42.621   5.150   6.435
 3080POPC   C3B41289  42.686   5.199   6.863
 3080POPC   C4B41290  42.631   4.922   7.183
 3081POPC   NC341291  13.282  11.830   5.436
 3081POPC   PO441292  13.768  12.357   5.427
 3081POPC   GL141293  13.724  12.105   5.816
 3081POPC   GL241294  13.420  11.913   5.902
 3081POPC   C1A41295  13.630  12.225   6.244
 3081POPC   D2A41296  13.706  12.503   6.583
 3081POPC   C3A41297  13.599  12.271   6.938
 3081POPC   C4A41298  13.937  12.221   7.209
 3081POPC   C1B41299  13.293  11.810   6.294
 3081POPC   C2B41300  13.626  11.828   6.601
 3081POPC   C3B41301  13.739  11.748   7.015
 3081POPC   C4B41302  13.416  11.888   7.230
 3082POPC   NC341303  21.362  19.672   5.344
 3082POPC   PO441304  21.078  20.297   5.632
 3082POPC   GL141305  21.235  20.036   5.960
 3082POPC   GL241306  21.503  19.780   5.833
 3082POPC   C1A41307  21.280  20.052   6.403
 3082POPC   D2A41308  21.004  20.105   6.767
 3082POPC   C3A41309  21.220  20.043   7.108
 3082POPC   C4A41310  21.563  19.812   7.248
 3082POPC   C1B41311  21.293  19.580   6.169
 3082POPC   C2B41312  21.250  19.549   6.605
 3082POPC   C3B41313  20.993  19.590   6.952
 3082POPC   C4B41314  21.056  19.682   7.412
 3083POPC   NC341315   4.608  32.014   5.555
 3083POPC   PO441316   4.103  31.584   5.320
 3083POPC   GL141317   4.277  31.530   5.735
 3083POPC   GL241318   4.558  31.304   5.643
 3083POPC   C1A41319   4.192  31.499   6.198
 3083POPC   D2A41320   4.034  31.296   6.589
 3083POPC   C3A41321   4.230  31.474   6.941
 3083POPC   C4A41322   4.305  31.377   7.370
 3083POPC   C1B41323   4.679  31.361   6.088
 3083POPC   C2B41324   4.559  31.289   6.547
 3083POPC   C3B41325   4.608  31.118   6.993
 3083POPC   C4B41326   4.707  31.025   7.436
 3084POPC   NC341327   0.955  17.213   5.569
 3084POPC   PO441328   1.584  17.378   5.338
 3084POPC   GL141329   1.384  17.501   5.762
 3084POPC   GL241330   1.029  17.572   5.915
 3084POPC   C1A41331   1.434  17.670   6.189
 3084POPC   D2A41332   1.204  17.523   6.553
 3084POPC   C3A41333   1.253  17.690   6.984
 3084POPC   C4A41334   1.530  17.613   7.320
 3084POPC   C1B41335   0.782  17.422   6.303
 3084POPC   C2B41336   0.761  17.423   6.790
 3084POPC   C3B41337   0.777  17.490   7.235
 3084POPC   C4B41338   0.961  17.413   7.657
 3085POPC   NC341339  35.377  10.866   5.507
 3085POPC   PO441340  35.448  11.503   5.338
 3085POPC   GL141341  35.466  11.363   5.767
 3085POPC   GL241342  35.625  11.056   5.880
 3085POPC   C1A41343  35.544  11.471   6.186
 3085POPC   D2A41344  35.319  11.677   6.511
 3085POPC   C3A41345  35.207  11.523   6.904
 3085POPC   C4A41346  35.363  11.636   7.287
 3085POPC   C1B41347  35.330  11.010   6.209
 3085POPC   C2B41348  35.385  11.142   6.636
 3085POPC   C3B41349  35.596  11.249   7.041
 3085POPC   C4B41350  35.721  11.065   7.414
 3086POPC   NC341351  16.101  21.523   5.187
 3086POPC   PO441352  15.722  21.131   5.552
 3086POPC   GL141353  15.979  21.309   5.833
 3086POPC   GL241354  15.962  21.624   5.701
 3086POPC   C1A41355  15.918  21.513   6.243
 3086POPC   D2A41356  15.658  21.375   6.589
 3086POPC   C3A41357  15.711  21.590   6.973
 3086POPC   C4A41358  15.951  21.401   7.232
 3086POPC   C1B41359  16.228  21.861   5.973
 3086POPC   C2B41360  16.277  21.889   6.431
 3086POPC   C3B41361  16.270  21.815   6.890
 3086POPC   C4B41362  16.432  21.518   7.199
 3087POPC   NC341363  31.895  37.001   5.520
 3087POPC   PO441364  32.523  36.789   5.247
 3087POPC   GL141365  32.386  37.127   5.620
 3087POPC   GL241366  32.214  36.902   5.903
 3087POPC   C1A41367  32.384  37.352   6.072
 3087POPC   D2A41368  32.306  37.080   6.455
 3087POPC   C3A41369  32.548  37.049   6.844
 3087POPC   C4A41370  32.352  37.190   7.219
 3087POPC   C1B41371  31.929  36.803   6.247
 3087POPC   C2B41372  31.956  36.707   6.675
 3087POPC   C3B41373  32.204  36.706   7.031
 3087POPC   C4B41374  32.102  36.802   7.454
 3088POPC   NC341375   4.249  29.337   5.370
 3088POPC   PO441376   4.692  28.810   5.310
 3088POPC   GL141377   4.489  28.816   5.729
 3088POPC   GL241378   4.140  29.002   5.780
 3088POPC   C1A41379   4.509  29.015   6.147
 3088POPC   D2A41380   4.268  29.095   6.531
 3088POPC   C3A41381   4.493  29.191   6.920
 3088POPC   C4A41382   4.375  29.123   7.369
 3088POPC   C1B41383   4.158  29.389   6.071
 3088POPC   C2B41384   4.167  29.584   6.505
 3088POPC   C3B41385   4.027  29.408   6.903
 3088POPC   C4B41386   3.857  29.369   7.327
 3089POPC   NC341387  23.100  25.629   5.326
 3089POPC   PO441388  22.602  25.190   5.454
 3089POPC   GL141389  22.724  25.463   5.749
 3089POPC   GL241390  23.043  25.335   5.806
 3089POPC   C1A41391  22.673  25.330   6.193
 3089POPC   D2A41392  22.892  25.255   6.546
 3089POPC   C3A41393  22.760  25.412   6.910
 3089POPC   C4A41394  22.783  25.670   7.233
 3089POPC   C1B41395  23.119  25.020   6.126
 3089POPC   C2B41396  23.076  24.779   6.536
 3089POPC   C3B41397  22.888  24.902   6.935
 3089POPC   C4B41398  22.957  25.152   7.314
 3090POPC   NC341399  19.925  10.366   5.357
 3090POPC   PO441400  19.539  10.872   5.429
 3090POPC   GL141401  19.830  10.693   5.765
 3090POPC   GL241402  19.924  10.335   5.857
 3090POPC   C1A41403  20.062  10.716   6.153
 3090POPC   D2A41404  20.180  10.554   6.569
 3090POPC   C3A41405  19.833  10.520   6.877
 3090POPC   C4A41406  19.843  10.748   7.225
 3090POPC   C1B41407  19.824  10.260   6.295
 3090POPC   C2B41408  19.960  10.064   6.672
 3090POPC   C3B41409  20.243  10.229   6.992
 3090POPC   C4B41410  20.215  10.340   7.455
 3091POPC   NC341411  12.347  17.221   5.421
 3091POPC   PO441412  12.016  16.666   5.307
 3091POPC   GL141413  12.209  16.666   5.733
 3091POPC   GL241414  12.331  16.343   5.878
 3091POPC   C1A41415  12.164  16.742   6.190
 3091POPC   D2A41416  12.364  16.720   6.593
 3091POPC   C3A41417  12.124  16.722   6.890
 3091POPC   C4A41418  11.794  16.876   7.078
 3091POPC   C1B41419  12.416  16.310   6.314
 3091POPC   C2B41420  12.280  16.216   6.754
 3091POPC   C3B41421  12.067  16.316   7.161
 3091POPC   C4B41422  12.258  16.371   7.501
 3092POPC   NC341423  34.756  44.918   5.482
 3092POPC   PO441424  34.256  44.389   5.475
 3092POPC   GL141425  34.421  44.659   5.835
 3092POPC   GL241426  34.731  44.497   5.793
 3092POPC   C1A41427  34.363  44.823   6.297
 3092POPC   D2A41428  34.613   0.077   6.622
 3092POPC   C3A41429  34.676  44.920   7.040
 3092POPC   C4A41430  34.333  44.725   7.248
 3092POPC   C1B41431  34.778  44.534   6.255
 3092POPC   C2B41432  34.552  44.508   6.670
 3092POPC   C3B41433  34.618  44.338   7.071
 3092POPC   C4B41434  34.950  44.494   7.315
 3093POPC   NC341435  34.170   9.885   5.491
 3093POPC   PO441436  34.833   9.981   5.284
 3093POPC   GL141437  34.712   9.976   5.731
 3093POPC   GL241438  34.384  10.054   5.916
 3093POPC   C1A41439  34.740   9.804   6.153
 3093POPC   D2A41440  34.533   9.952   6.511
 3093POPC   C3A41441  34.592   9.662   6.856
 3093POPC   C4A41442  34.630   9.785   7.270
 3093POPC   C1B41443  34.169  10.316   6.214
 3093POPC   C2B41444  34.251  10.389   6.646
 3093POPC   C3B41445  34.320  10.081   6.973
 3093POPC   C4B41446  34.203  10.025   7.430
 3094POPC   NC341447  12.540  29.388   5.532
 3094POPC   PO441448  13.209  29.210   5.467
 3094POPC   GL141449  12.941  29.149   5.790
 3094POPC   GL241450  12.711  28.859   5.716
 3094POPC   C1A41451  12.894  29.389   6.163
 3094POPC   D2A41452  12.597  29.423   6.496
 3094POPC   C3A41453  12.793  29.599   6.867
 3094POPC   C4A41454  12.815  29.435   7.274
 3094POPC   C1B41455  12.661  28.940   6.172
 3094POPC   C2B41456  12.450  28.919   6.549
 3094POPC   C3B41457  12.626  29.066   6.908
 3094POPC   C4B41458  12.791  28.806   7.222
 3095POPC   NC341459   0.517  27.370   5.081
 3095POPC   PO441460   0.006  27.700   5.261
 3095POPC   GL141461   0.168  27.795   5.728
 3095POPC   GL241462   0.550  27.782   5.812
 3095POPC   C1A41463   0.198  27.639   6.188
 3095POPC   D2A41464   0.154  27.790   6.641
 3095POPC   C3A41465   0.331  27.550   6.977
 3095POPC   C4A41466   0.571  27.792   7.268
 3095POPC   C1B41467   0.727  27.486   6.148
 3095POPC   C2B41468   0.689  27.258   6.535
 3095POPC   C3B41469   0.812  27.369   6.955
 3095POPC   C4B41470   0.625  27.299   7.350
 3096POPC   NC341471   3.376  42.766   5.188
 3096POPC   PO441472   3.776  43.117   5.427
 3096POPC   GL141473   3.392  43.000   5.677
 3096POPC   GL241474   3.286  43.296   5.859
 3096POPC   C1A41475   3.185  42.870   6.102
 3096POPC   D2A41476   3.319  42.806   6.556
 3096POPC   C3A41477   3.262  42.797   7.013
 3096POPC   C4A41478   3.469  42.550   7.341
 3096POPC   C1B41479   3.222  43.324   6.371
 3096POPC   C2B41480   3.364  43.266   6.821
 3096POPC   C3B41481   3.528  43.190   7.274
 3096POPC   C4B41482   3.337  43.373   7.672
 3097POPC   NC341483  40.106  21.940   5.262
 3097POPC   PO441484  39.744  22.529   5.213
 3097POPC   GL141485  39.996  22.421   5.621
 3097POPC   GL241486  40.140  22.104   5.736
 3097POPC   C1A41487  40.015  22.484   6.073
 3097POPC   D2A41488  40.243  22.418   6.435
 3097POPC   C3A41489  39.989  22.503   6.785
 3097POPC   C4A41490  40.098  22.259   7.115
 3097POPC   C1B41491  39.735  22.070   5.963
 3097POPC   C2B41492  39.799  22.059   6.419
 3097POPC   C3B41493  39.721  22.007   6.868
 3097POPC   C4B41494  39.893  21.825   7.270
 3098POPC   NC341495  36.871   9.034   5.265
 3098POPC   PO441496  36.313   9.117   5.692
 3098POPC   GL141497  36.795   9.138   5.837
 3098POPC   GL241498  37.091   8.923   5.746
 3098POPC   C1A41499  37.098   9.133   6.218
 3098POPC   D2A41500  37.207   9.001   6.634
 3098POPC   C3A41501  36.947   9.262   6.885
 3098POPC   C4A41502  36.716   9.328   7.254
 3098POPC   C1B41503  37.234   8.656   6.141
 3098POPC   C2B41504  37.028   8.530   6.515
 3098POPC   C3B41505  37.092   8.577   6.937
 3098POPC   C4B41506  36.955   8.897   7.233
 3099POPC   NC341507  10.885  39.203   5.655
 3099POPC   PO441508  10.242  39.415   5.402
 3099POPC   GL141509  10.393  39.201   5.766
 3099POPC   GL241510  10.196  38.953   5.816
 3099POPC   C1A41511  10.507  39.387   6.173
 3099POPC   D2A41512  10.668  39.274   6.543
 3099POPC   C3A41513  10.510  39.433   6.907
 3099POPC   C4A41514  10.781  39.305   7.237
 3099POPC   C1B41515  10.352  38.898   6.250
 3099POPC   C2B41516  10.285  38.949   6.680
 3099POPC   C3B41517  10.276  39.030   7.120
 3099POPC   C4B41518  10.241  39.001   7.553
 3100POPC   NC341519  32.796  16.988   5.140
 3100POPC   PO441520  33.265  16.622   5.460
 3100POPC   GL141521  33.085  16.637   5.834
 3100POPC   GL241522  32.941  16.961   5.721
 3100POPC   C1A41523  33.067  16.499   6.262
 3100POPC   D2A41524  32.964  16.323   6.646
 3100POPC   C3A41525  33.005  16.561   7.006
 3100POPC   C4A41526  32.782  16.596   7.359
 3100POPC   C1B41527  33.082  17.034   6.174
 3100POPC   C2B41528  33.054  16.917   6.633
 3100POPC   C3B41529  32.922  17.071   7.075
 3100POPC   C4B41530  33.076  16.991   7.502
 3101POPC   NC341531  36.869  34.979   5.479
 3101POPC   PO441532  36.524  35.451   5.112
 3101POPC   GL141533  36.684  35.384   5.674
 3101POPC   GL241534  36.600  35.061   5.890
 3101POPC   C1A41535  36.748  35.467   6.167
 3101POPC   D2A41536  37.082  35.616   6.482
 3101POPC   C3A41537  37.145  35.503   6.919
 3101POPC   C4A41538  36.867  35.475   7.246
 3101POPC   C1B41539  36.638  34.957   6.299
 3101POPC   C2B41540  36.799  35.143   6.643
 3101POPC   C3B41541  36.857  35.008   7.038
 3101POPC   C4B41542  37.217  35.040   7.200
 3102POPC   NC341543   0.961  43.463   5.387
 3102POPC   PO441544   1.381  44.011   5.500
 3102POPC   GL141545   1.222  44.122   5.898
 3102POPC   GL241546   1.307  43.769   5.999
 3102POPC   C1A41547   0.933  44.071   6.252
 3102POPC   D2A41548   1.097  43.880   6.634
 3102POPC   C3A41549   1.052  43.982   7.064
 3102POPC   C4A41550   1.372  43.771   7.277
 3102POPC   C1B41551   1.517  43.582   6.387
 3102POPC   C2B41552   1.576  43.719   6.799
 3102POPC   C3B41553   1.489  44.162   6.886
 3102POPC   C4B41554   1.532  44.255   7.316
 3103POPC   NC341555  28.404   7.688   5.276
 3103POPC   PO441556  28.704   7.137   5.557
 3103POPC   GL141557  28.677   7.326   5.947
 3103POPC   GL241558  28.551   7.677   5.838
 3103POPC   C1A41559  28.521   7.119   6.346
 3103POPC   D2A41560  28.518   7.066   6.801
 3103POPC   C3A41561  28.240   7.319   7.021
 3103POPC   C4A41562  28.257   7.365   7.474
 3103POPC   C1B41563  28.531   7.661   6.314
 3103POPC   C2B41564  28.608   7.596   6.769
 3103POPC   C3B41565  28.451   7.769   7.188
 3103POPC   C4B41566  28.596   7.741   7.643
 3104POPC   NC341567  30.040  33.547   5.351
 3104POPC   PO441568  29.553  33.968   5.387
 3104POPC   GL141569  29.748  33.729   5.733
 3104POPC   GL241570  30.066  33.904   5.773
 3104POPC   C1A41571  29.725  33.469   6.111
 3104POPC   D2A41572  29.919  33.374   6.529
 3104POPC   C3A41573  29.785  33.475   6.942
 3104POPC   C4A41574  29.636  33.503   7.359
 3104POPC   C1B41575  30.133  33.781   6.199
 3104POPC   C2B41576  29.999  33.878   6.618
 3104POPC   C3B41577  30.168  33.827   7.027
 3104POPC   C4B41578  30.112  33.764   7.488
 3105POPC   NC341579  33.280  34.097   5.506
 3105POPC   PO441580  32.813  33.559   5.523
 3105POPC   GL141581  33.182  33.670   5.817
 3105POPC   GL241582  33.050  33.982   5.951
 3105POPC   C1A41583  33.442  33.557   6.229
 3105POPC   D2A41584  33.375  33.608   6.705
 3105POPC   C3A41585  33.181  34.012   6.837
 3105POPC   C4A41586  33.138  34.294   7.190
 3105POPC   C1B41587  32.932  33.643   6.251
 3105POPC   C2B41588  32.797  33.701   6.671
 3105POPC   C3B41589  32.954  33.588   7.073
 3105POPC   C4B41590  32.799  33.509   7.487
 3106POPC   NC341591   0.089  19.827   5.386
 3106POPC   PO441592   0.654  19.480   5.391
 3106POPC   GL141593   0.528  19.756   5.766
 3106POPC   GL241594   0.224  19.609   5.872
 3106POPC   C1A41595   0.382  19.944   6.232
 3106POPC   D2A41596   0.190  19.873   6.684
 3106POPC   C3A41597   0.298  19.980   7.147
 3106POPC   C4A41598   0.144  20.203   7.545
 3106POPC   C1B41599   0.551  19.472   6.185
 3106POPC   C2B41600   0.588  19.559   6.601
 3106POPC   C3B41601   0.809  19.489   6.965
 3106POPC   C4B41602   0.688  19.653   7.332
 3107POPC   NC341603  27.661  44.171   5.443
 3107POPC   PO441604  27.949  43.499   5.533
 3107POPC   GL141605  27.665  43.712   5.864
 3107POPC   GL241606  27.636  44.063   5.922
 3107POPC   C1A41607  27.616  43.795   6.341
 3107POPC   D2A41608  27.372  43.999   6.683
 3107POPC   C3A41609  27.475  43.792   7.079
 3107POPC   C4A41610  27.894  43.601   7.144
 3107POPC   C1B41611  27.781  44.289   6.245
 3107POPC   C2B41612  27.896  44.173   6.633
 3107POPC   C3B41613  27.866  44.115   7.060
 3107POPC   C4B41614  28.029  44.152   7.440
 3108POPC   NC341615  39.970  20.253   5.431
 3108POPC   PO441616  39.985  20.928   5.564
 3108POPC   GL141617  40.162  20.595   5.757
 3108POPC   GL241618  40.401  20.793   5.845
 3108POPC   C1A41619  40.021  20.446   6.148
 3108POPC   D2A41620  39.850  20.643   6.519
 3108POPC   C3A41621  39.965  20.432   6.876
 3108POPC   C4A41622  39.800  20.320   7.264
 3108POPC   C1B41623  40.205  20.954   6.214
 3108POPC   C2B41624  40.153  21.052   6.659
 3108POPC   C3B41625  40.382  20.912   7.037
 3108POPC   C4B41626  40.274  20.909   7.489
 3109POPC   NC341627  11.101  31.711   5.420
 3109POPC   PO441628  11.369  31.099   5.439
 3109POPC   GL141629  11.099  31.300   5.786
 3109POPC   GL241630  10.949  31.643   5.882
 3109POPC   C1A41631  11.257  31.331   6.209
 3109POPC   D2A41632  11.463  31.518   6.584
 3109POPC   C3A41633  11.530  31.299   6.974
 3109POPC   C4A41634  11.255  31.462   7.244
 3109POPC   C1B41635  11.078  31.798   6.250
 3109POPC   C2B41636  10.980  31.652   6.654
 3109POPC   C3B41637  11.015  31.860   7.028
 3109POPC   C4B41638  11.194  32.024   7.398
 3110POPC   NC341639  26.638   4.168   5.499
 3110POPC   PO441640  26.927   4.644   5.228
 3110POPC   GL141641  26.915   4.509   5.722
 3110POPC   GL241642  27.058   4.228   5.825
 3110POPC   C1A41643  26.663   4.368   6.123
 3110POPC   D2A41644  26.788   4.148   6.509
 3110POPC   C3A41645  26.536   4.273   6.868
 3110POPC   C4A41646  26.572   4.177   7.305
 3110POPC   C1B41647  27.158   4.433   6.243
 3110POPC   C2B41648  27.094   4.542   6.691
 3110POPC   C3B41649  26.950   4.471   7.123
 3110POPC   C4B41650  26.777   4.560   7.559
 3111POPC   NC341651  13.320   5.047   5.511
 3111POPC   PO441652  14.073   5.279   5.468
 3111POPC   GL141653  13.843   5.116   5.843
 3111POPC   GL241654  13.515   5.241   5.945
 3111POPC   C1A41655  13.895   5.183   6.297
 3111POPC   D2A41656  13.632   5.047   6.674
 3111POPC   C3A41657  13.771   5.045   7.106
 3111POPC   C4A41658  13.670   5.126   7.564
 3111POPC   C1B41659  13.474   4.867   6.208
 3111POPC   C2B41660  13.225   4.688   6.571
 3111POPC   C3B41661  13.152   4.835   7.024
 3111POPC   C4B41662  13.223   4.862   7.484
 3112POPC   NC341663  27.177  36.718   5.637
 3112POPC   PO441664  27.613  37.305   5.453
 3112POPC   GL141665  27.464  37.122   5.793
 3112POPC   GL241666  27.729  36.895   5.757
 3112POPC   C1A41667  27.342  36.961   6.207
 3112POPC   D2A41668  27.573  36.926   6.569
 3112POPC   C3A41669  27.396  36.748   6.901
 3112POPC   C4A41670  27.432  36.972   7.261
 3112POPC   C1B41671  27.782  36.689   6.142
 3112POPC   C2B41672  27.922  36.543   6.531
 3112POPC   C3B41673  27.852  36.462   6.952
 3112POPC   C4B41674  27.900  36.747   7.302
 3113POPC   NC341675  20.170  27.050   5.364
 3113POPC   PO441676  19.974  27.675   5.567
 3113POPC   GL141677  19.908  27.387   5.874
 3113POPC   GL241678  19.554  27.453   5.829
 3113POPC   C1A41679  19.931  27.431   6.336
 3113POPC   D2A41680  20.257  27.427   6.674
 3113POPC   C3A41681  20.152  27.550   7.077
 3113POPC   C4A41682  19.876  27.896   7.161
 3113POPC   C1B41683  19.403  27.336   6.224
 3113POPC   C2B41684  19.573  27.119   6.594
 3113POPC   C3B41685  19.758  27.220   7.001
 3113POPC   C4B41686  19.728  27.462   7.383
 3114POPC   NC341687  16.070   9.053   5.541
 3114POPC   PO441688  15.426   8.954   5.352
 3114POPC   GL141689  15.646   8.948   5.828
 3114POPC   GL241690  15.503   9.174   6.112
 3114POPC   C1A41691  15.990   9.074   6.178
 3114POPC   D2A41692  16.070   9.335   6.552
 3114POPC   C3A41693  16.045   9.077   6.930
 3114POPC   C4A41694  16.168   8.937   7.333
 3114POPC   C1B41695  15.583   8.786   6.332
 3114POPC   C2B41696  15.521   8.683   6.778
 3114POPC   C3B41697  15.671   8.771   7.191
 3114POPC   C4B41698  15.769   8.651   7.593
 3115POPC   NC341699  42.073  40.243   5.581
 3115POPC   PO441700  42.426  39.740   5.248
 3115POPC   GL141701  42.318  39.791   5.677
 3115POPC   GL241702  42.500  40.049   5.807
 3115POPC   C1A41703  42.164  39.799   6.115
 3115POPC   D2A41704  42.054  39.801   6.562
 3115POPC   C3A41705  42.123  40.190   6.824
 3115POPC   C4A41706  42.088  40.135   7.278
 3115POPC   C1B41707  42.686  39.883   6.161
 3115POPC   C2B41708  42.539  39.996   6.549
 3115POPC   C3B41709  42.580  39.987   6.976
 3115POPC   C4B41710  42.579  40.045   7.414
 3116POPC   NC341711   2.662  12.344   5.463
 3116POPC   PO441712   2.641  11.632   5.507
 3116POPC   GL141713   2.673  11.776   5.913
 3116POPC   GL241714   2.878  12.091   5.866
 3116POPC   C1A41715   2.708  11.907   6.322
 3116POPC   D2A41716   2.636  12.186   6.646
 3116POPC   C3A41717   2.547  11.984   7.020
 3116POPC   C4A41718   2.537  12.266   7.318
 3116POPC   C1B41719   3.173  12.215   6.220
 3116POPC   C2B41720   3.287  12.218   6.663
 3116POPC   C3B41721   3.013  12.233   7.026
 3116POPC   C4B41722   2.927  11.955   7.356
 3117POPC   NC341723  44.998  38.803   4.994
 3117POPC   PO441724  44.710  38.433   5.501
 3117POPC   GL141725  44.751  38.386   5.884
 3117POPC   GL241726   0.001  38.148   5.916
 3117POPC   C1A41727  44.628  38.538   6.252
 3117POPC   D2A41728  44.762  38.437   6.650
 3117POPC   C3A41729  44.518  38.537   7.014
 3117POPC   C4A41730  44.339  38.334   7.361
 3117POPC   C1B41731   0.133  38.488   6.223
 3117POPC   C2B41732   0.226  38.643   6.609
 3117POPC   C3B41733   0.074  38.594   7.015
 3117POPC   C4B41734   0.147  38.719   7.407
 3118POPC   NC341735   1.817  12.687   5.437
 3118POPC   PO441736   2.100  13.383   5.323
 3118POPC   GL141737   2.146  13.172   5.763
 3118POPC   GL241738   2.384  12.876   5.686
 3118POPC   C1A41739   2.012  13.072   6.218
 3118POPC   D2A41740   1.834  12.746   6.518
 3118POPC   C3A41741   1.838  12.853   6.939
 3118POPC   C4A41742   1.986  13.268   7.019
 3118POPC   C1B41743   2.494  12.896   6.153
 3118POPC   C2B41744   2.368  12.777   6.602
 3118POPC   C3B41745   2.257  12.592   7.044
 3118POPC   C4B41746   2.307  12.648   7.530
 3119POPC   NC341747  16.234  39.024   5.357
 3119POPC   PO441748  15.912  39.685   5.244
 3119POPC   GL141749  15.865  39.443   5.631
 3119POPC   GL241750  16.176  39.357   5.754
 3119POPC   C1A41751  15.812  39.417   6.115
 3119POPC   D2A41752  16.098  39.412   6.492
 3119POPC   C3A41753  15.976  39.379   6.900
 3119POPC   C4A41754  15.953  39.205   7.300
 3119POPC   C1B41755  16.225  39.083   6.127
 3119POPC   C2B41756  16.325  38.937   6.536
 3119POPC   C3B41757  16.230  38.933   6.970
 3119POPC   C4B41758  16.458  39.030   7.313
 3120POPC   NC341759   0.756  10.392   5.437
 3120POPC   PO441760   0.060  10.515   5.276
 3120POPC   GL141761   0.289  10.563   5.698
 3120POPC   GL241762   0.431  10.246   5.871
 3120POPC   C1A41763   0.240  10.655   6.163
 3120POPC   D2A41764   0.190  10.494   6.620
 3120POPC   C3A41765   0.316  10.756   6.981
 3120POPC   C4A41766   0.320  10.705   7.457
 3120POPC   C1B41767   0.613  10.305   6.335
 3120POPC   C2B41768   0.727  10.552   6.737
 3120POPC   C3B41769   0.760  10.620   7.220
 3120POPC   C4B41770   0.685  10.356   7.579
 3121POPC   NC341771   2.313  13.780   5.170
 3121POPC   PO441772   2.954  13.632   5.325
 3121POPC   GL141773   2.996  13.780   5.741
 3121POPC   GL241774   2.817  13.534   5.936
 3121POPC   C1A41775   2.967  13.957   6.163
 3121POPC   D2A41776   2.882  13.714   6.534
 3121POPC   C3A41777   3.068  13.880   6.904
 3121POPC   C4A41778   2.934  13.678   7.277
 3121POPC   C1B41779   2.491  13.396   6.230
 3121POPC   C2B41780   2.364  13.309   6.667
 3121POPC   C3B41781   2.477  13.530   7.059
 3121POPC   C4B41782   2.541  13.504   7.519
 3122POPC   NC341783  28.651   8.291   5.519
 3122POPC   PO441784  29.101   8.665   5.146
 3122POPC   GL141785  29.174   8.609   5.638
 3122POPC   GL241786  29.111   8.263   5.762
 3122POPC   C1A41787  29.386   8.543   6.072
 3122POPC   D2A41788  29.170   8.522   6.490
 3122POPC   C3A41789  29.298   8.210   6.802
 3122POPC   C4A41790  29.242   8.238   7.260
 3122POPC   C1B41791  28.882   8.232   6.162
 3122POPC   C2B41792  28.837   8.032   6.572
 3122POPC   C3B41793  28.885   7.966   7.000
 3122POPC   C4B41794  28.757   8.142   7.384
 3123POPC   NC341795  42.929  15.392   5.502
 3123POPC   PO441796  43.635  15.325   5.518
 3123POPC   GL141797  43.431  14.990   5.806
 3123POPC   GL241798  43.039  14.965   5.809
 3123POPC   C1A41799  43.338  15.040   6.253
 3123POPC   D2A41800  43.263  15.385   6.547
 3123POPC   C3A41801  43.428  15.330   6.949
 3123POPC   C4A41802  43.213  15.044   7.180
 3123POPC   C1B41803  42.876  15.234   6.157
 3123POPC   C2B41804  42.712  15.309   6.577
 3123POPC   C3B41805  42.901  15.403   6.969
 3123POPC   C4B41806  42.823  15.295   7.399
 3124POPC   NC341807   5.745  34.086   5.649
 3124POPC   PO441808   6.081  33.496   5.437
 3124POPC   GL141809   5.969  33.664   5.838
 3124POPC   GL241810   6.172  33.973   5.866
 3124POPC   C1A41811   5.711  33.765   6.236
 3124POPC   D2A41812   5.613  34.062   6.585
 3124POPC   C3A41813   5.622  33.910   7.021
 3124POPC   C4A41814   5.513  33.585   7.349
 3124POPC   C1B41815   6.208  33.852   6.250
 3124POPC   C2B41816   6.108  33.928   6.676
 3124POPC   C3B41817   6.360  33.729   6.981
 3124POPC   C4B41818   6.351  33.768   7.423
 3125POPC   NC341819  37.914  31.799   5.347
 3125POPC   PO441820  37.483  31.204   5.425
 3125POPC   GL141821  37.516  31.457   5.828
 3125POPC   GL241822  37.443  31.822   5.874
 3125POPC   C1A41823  37.632  31.511   6.271
 3125POPC   D2A41824  37.850  31.870   6.493
 3125POPC   C3A41825  37.966  31.717   6.885
 3125POPC   C4A41826  37.692  31.505   7.179
 3125POPC   C1B41827  37.361  31.951   6.313
 3125POPC   C2B41828  37.258  32.019   6.747
 3125POPC   C3B41829  37.270  31.776   7.112
 3125POPC   C4B41830  37.493  31.767   7.575
 3126POPC   NC341831   4.634   1.004   5.485
 3126POPC   PO441832   4.025   1.335   5.417
 3126POPC   GL141833   4.127   1.369   5.841
 3126POPC   GL241834   4.457   1.360   5.804
 3126POPC   C1A41835   4.204   1.492   6.274
 3126POPC   D2A41836   3.899   1.532   6.606
 3126POPC   C3A41837   4.073   1.350   6.930
 3126POPC   C4A41838   4.155   1.314   7.327
 3126POPC   C1B41839   4.574   1.142   6.153
 3126POPC   C2B41840   4.677   1.223   6.555
 3126POPC   C3B41841   4.591   1.307   6.942
 3126POPC   C4B41842   4.621   1.096   7.314
 3127POPC   NC341843  26.262   2.649   5.381
 3127POPC   PO441844  25.741   3.189   5.360
 3127POPC   GL141845  25.764   2.987   5.771
 3127POPC   GL241846  25.895   2.659   5.769
 3127POPC   C1A41847  25.703   2.811   6.195
 3127POPC   D2A41848  25.999   2.788   6.510
 3127POPC   C3A41849  25.962   2.980   6.921
 3127POPC   C4A41850  26.355   3.114   7.097
 3127POPC   C1B41851  26.215   2.614   6.062
 3127POPC   C2B41852  26.315   2.381   6.434
 3127POPC   C3B41853  26.178   2.464   6.862
 3127POPC   C4B41854  26.239   2.626   7.277
 3128POPC   NC341855   2.073  21.080   5.391
 3128POPC   PO441856   1.896  21.697   5.631
 3128POPC   GL141857   2.069  21.412   5.845
 3128POPC   GL241858   1.921  21.111   5.876
 3128POPC   C1A41859   1.980  21.484   6.281
 3128POPC   D2A41860   1.724  21.644   6.603
 3128POPC   C3A41861   1.969  21.557   6.958
 3128POPC   C4A41862   2.066  21.313   7.291
 3128POPC   C1B41863   1.655  21.099   6.239
 3128POPC   C2B41864   1.717  21.139   6.685
 3128POPC   C3B41865   1.584  21.224   7.107
 3128POPC   C4B41866   1.664  21.159   7.559
 3129POPC   NC341867  19.951  26.426   5.609
 3129POPC   PO441868  19.709  26.977   5.342
 3129POPC   GL141869  19.678  26.921   5.794
 3129POPC   GL241870  20.034  26.877   5.826
 3129POPC   C1A41871  19.751  26.772   6.250
 3129POPC   D2A41872  19.742  26.520   6.647
 3129POPC   C3A41873  19.768  26.714   7.030
 3129POPC   C4A41874  20.060  26.701   7.372
 3129POPC   C1B41875  20.211  27.037   6.190
 3129POPC   C2B41876  20.119  26.929   6.625
 3129POPC   C3B41877  20.252  27.042   7.049
 3129POPC   C4B41878  20.131  27.181   7.483
 3130POPC   NC341879   7.236   2.531   5.505
 3130POPC   PO441880   7.889   2.654   5.395
 3130POPC   GL141881   7.723   2.714   5.798
 3130POPC   GL241882   7.491   2.977   5.807
 3130POPC   C1A41883   7.478   2.574   6.182
 3130POPC   D2A41884   7.282   2.443   6.590
 3130POPC   C3A41885   7.497   2.494   7.005
 3130POPC   C4A41886   7.287   2.600   7.397
 3130POPC   C1B41887   7.751   3.007   6.228
 3130POPC   C2B41888   7.583   2.911   6.666
 3130POPC   C3B41889   7.240   2.937   7.017
 3130POPC   C4B41890   7.315   3.102   7.470
 3131POPC   NC341891  44.962  28.179   5.273
 3131POPC   PO441892   0.383  28.776   5.368
 3131POPC   GL141893   0.239  28.596   5.758
 3131POPC   GL241894   0.371  28.271   5.804
 3131POPC   C1A41895   0.330  28.661   6.207
 3131POPC   D2A41896   0.557  28.740   6.604
 3131POPC   C3A41897   0.303  28.668   6.971
 3131POPC   C4A41898   0.362  28.519   7.396
 3131POPC   C1B41899   0.215  28.149   6.225
 3131POPC   C2B41900   0.339  28.270   6.623
 3131POPC   C3B41901   0.297  28.137   7.036
 3131POPC   C4B41902   0.169  28.054   7.491
 3132POPC   NC341903  22.085  13.727   5.363
 3132POPC   PO441904  22.424  13.167   5.323
 3132POPC   GL141905  22.398  13.417   5.720
 3132POPC   GL241906  22.495  13.774   5.778
 3132POPC   C1A41907  22.138  13.515   6.085
 3132POPC   D2A41908  22.063  13.283   6.493
 3132POPC   C3A41909  22.106  13.508   6.890
 3132POPC   C4A41910  21.810  13.627   7.210
 3132POPC   C1B41911  22.688  13.839   6.209
 3132POPC   C2B41912  22.547  13.963   6.619
 3132POPC   C3B41913  22.579  13.755   7.015
 3132POPC   C4B41914  22.497  13.816   7.444
 3133POPC   NC341915  23.259  10.710   4.920
 3133POPC   PO441916  23.648  10.546   5.424
 3133POPC   GL141917  23.638  10.508   5.859
 3133POPC   GL241918  23.816  10.201   5.918
 3133POPC   C1A41919  23.505  10.424   6.277
 3133POPC   D2A41920  23.555  10.207   6.665
 3133POPC   C3A41921  23.545  10.522   6.987
 3133POPC   C4A41922  23.643  10.725   7.380
 3133POPC   C1B41923  24.014  10.066   6.283
 3133POPC   C2B41924  24.089  10.050   6.699
 3133POPC   C3B41925  23.925  10.204   7.059
 3133POPC   C4B41926  23.833  10.239   7.510
 3134POPC   NC341927   8.698  29.883   5.591
 3134POPC   PO441928   9.087  30.342   5.535
 3134POPC   GL141929   8.995  30.147   5.986
 3134POPC   GL241930   8.697  29.908   6.087
 3134POPC   C1A41931   9.011  30.047   6.464
 3134POPC   D2A41932   8.814  29.771   6.809
 3134POPC   C3A41933   8.771  29.888   7.223
 3134POPC   C4A41934   9.018  30.210   7.460
 3134POPC   C1B41935   9.104  29.654   6.104
 3134POPC   C2B41936   9.382  29.676   6.460
 3134POPC   C3B41937   9.355  29.610   6.919
 3134POPC   C4B41938   9.164  29.544   7.321
 3135POPC   NC341939   6.051  37.931   5.483
 3135POPC   PO441940   5.744  37.323   5.364
 3135POPC   GL141941   5.873  37.437   5.795
 3135POPC   GL241942   5.771  37.785   5.903
 3135POPC   C1A41943   5.988  37.484   6.246
 3135POPC   D2A41944   5.680  37.586   6.552
 3135POPC   C3A41945   5.833  37.840   6.863
 3135POPC   C4A41946   6.114  37.709   7.189
 3135POPC   C1B41947   5.625  38.017   6.281
 3135POPC   C2B41948   5.487  38.248   6.651
 3135POPC   C3B41949   5.618  38.285   7.064
 3135POPC   C4B41950   5.682  37.970   7.338
 3136POPC   NC341951  40.786   9.103   5.521
 3136POPC   PO441952  40.612   8.409   5.418
 3136POPC   GL141953  40.643   8.649   5.782
 3136POPC   GL241954  40.382   8.861   5.808
 3136POPC   C1A41955  40.756   8.633   6.217
 3136POPC   D2A41956  41.058   8.791   6.519
 3136POPC   C3A41957  40.880   8.994   6.874
 3136POPC   C4A41958  40.464   8.896   7.041
 3136POPC   C1B41959  40.574   9.105   6.157
 3136POPC   C2B41960  40.443   9.122   6.564
 3136POPC   C3B41961  40.417   9.398   6.854
 3136POPC   C4B41962  40.648   9.328   7.201
 3137POPC   NC341963   5.970   4.353   5.310
 3137POPC   PO441964   5.391   4.058   5.125
 3137POPC   GL141965   5.611   4.180   5.629
 3137POPC   GL241966   5.832   4.478   5.790
 3137POPC   C1A41967   5.727   4.077   6.105
 3137POPC   D2A41968   5.875   4.149   6.594
 3137POPC   C3A41969   5.719   4.451   6.966
 3137POPC   C4A41970   5.811   4.446   7.447
 3137POPC   C1B41971   6.076   4.433   6.212
 3137POPC   C2B41972   6.101   4.618   6.655
 3137POPC   C3B41973   6.222   4.493   7.104
 3137POPC   C4B41974   6.287   4.419   7.574
 3138POPC   NC341975  13.569  25.423   5.359
 3138POPC   PO441976  13.641  24.732   5.452
 3138POPC   GL141977  13.511  25.061   5.767
 3138POPC   GL241978  13.549  25.435   5.870
 3138POPC   C1A41979  13.344  25.033   6.171
 3138POPC   D2A41980  13.541  24.848   6.555
 3138POPC   C3A41981  13.321  24.981   6.908
 3138POPC   C4A41982  13.326  25.388   7.121
 3138POPC   C1B41983  13.780  25.272   6.252
 3138POPC   C2B41984  13.664  25.334   6.694
 3138POPC   C3B41985  13.801  25.587   7.023
 3138POPC   C4B41986  14.174  25.843   7.080
 3139POPC   NC341987   7.694  13.201   5.449
 3139POPC   PO441988   7.428  13.841   5.421
 3139POPC   GL141989   7.248  13.547   5.761
 3139POPC   GL241990   7.573  13.456   5.885
 3139POPC   C1A41991   7.151  13.359   6.200
 3139POPC   D2A41992   7.162  13.151   6.629
 3139POPC   C3A41993   7.173  13.432   7.007
 3139POPC   C4A41994   7.267  13.645   7.397
 3139POPC   C1B41995   7.498  13.743   6.229
 3139POPC   C2B41996   7.297  13.763   6.628
 3139POPC   C3B41997   7.464  13.920   7.029
 3139POPC   C4B41998   7.569  14.067   7.450
 3140POPC   NC341999  41.366   6.090   5.672
 3140POPC   PO442000  41.741   5.642   5.374
 3140POPC   GL142001  41.678   5.696   5.802
 3140POPC   GL242002  41.838   6.026   5.871
 3140POPC   C1A42003  41.448   5.757   6.194
 3140POPC   D2A42004  41.466   5.599   6.563
 3140POPC   C3A42005  41.491   5.876   6.866
 3140POPC   C4A42006  41.356   5.637   7.170
 3140POPC   C1B42007  41.986   5.744   6.226
 3140POPC   C2B42008  41.946   5.691   6.684
 3140POPC   C3B42009  41.893   5.692   7.141
 3140POPC   C4B42010  41.633   6.054   7.318
 3141POPC   NC342011  17.492  35.688   5.589
 3141POPC   PO442012  17.291  36.397   5.371
 3141POPC   GL142013  17.448  36.236   5.763
 3141POPC   GL242014  17.678  36.506   5.810
 3141POPC   C1A42015  17.505  36.014   6.182
 3141POPC   D2A42016  17.297  35.850   6.568
 3141POPC   C3A42017  17.436  35.990   7.004
 3141POPC   C4A42018  17.778  35.865   7.299
 3141POPC   C1B42019  17.754  36.464   6.210
 3141POPC   C2B42020  17.707  36.307   6.626
 3141POPC   C3B42021  17.858  36.317   7.051
 3141POPC   C4B42022  17.564  36.390   7.344
 3142POPC   NC342023  33.359   8.294   5.416
 3142POPC   PO442024  33.927   8.094   5.319
 3142POPC   GL142025  33.757   8.092   5.727
 3142POPC   GL242026  33.538   7.864   5.849
 3142POPC   C1A42027  33.652   8.342   6.084
 3142POPC   D2A42028  33.505   8.413   6.504
 3142POPC   C3A42029  33.757   8.440   6.868
 3142POPC   C4A42030  33.846   8.285   7.256
 3142POPC   C1B42031  33.914   7.747   6.094
 3142POPC   C2B42032  33.994   7.625   6.539
 3142POPC   C3B42033  33.769   7.744   6.926
 3142POPC   C4B42034  33.924   7.781   7.334
 3143POPC   NC342035  16.289  10.787   5.538
 3143POPC   PO442036  15.873  10.265   5.463
 3143POPC   GL142037  15.920  10.528   5.809
 3143POPC   GL242038  15.584  10.680   5.838
 3143POPC   C1A42039  16.193  10.624   6.169
 3143POPC   D2A42040  16.065  10.787   6.575
 3143POPC   C3A42041  16.188  10.635   6.955
 3143POPC   C4A42042  16.179  10.801   7.345
 3143POPC   C1B42043  15.667  10.616   6.301
 3143POPC   C2B42044  15.724  10.434   6.738
 3143POPC   C3B42045  15.748  10.532   7.201
 3143POPC   C4B42046  15.754  10.371   7.639
 3144POPC   NC342047  36.324  10.433   5.322
 3144POPC   PO442048  35.674  10.676   5.217
 3144POPC   GL142049  35.912  10.566   5.661
 3144POPC   GL242050  36.272  10.585   5.796
 3144POPC   C1A42051  36.003  10.241   6.052
 3144POPC   D2A42052  36.024  10.093   6.507
 3144POPC   C3A42053  35.991  10.385   6.855
 3144POPC   C4A42054  36.179  10.347   7.253
 3144POPC   C1B42055  36.311  10.742   6.188
 3144POPC   C2B42056  36.224  10.784   6.603
 3144POPC   C3B42057  36.477  10.636   6.913
 3144POPC   C4B42058  36.516  10.726   7.362
 3145POPC   NC342059   8.718   2.888   5.174
 3145POPC   PO442060   9.328   3.173   5.168
 3145POPC   GL142061   9.086   2.823   5.551
 3145POPC   GL242062   8.768   2.984   5.762
 3145POPC   C1A42063   9.023   2.639   6.038
 3145POPC   D2A42064   9.178   2.772   6.475
 3145POPC   C3A42065   9.044   2.611   6.900
 3145POPC   C4A42066   8.830   2.475   7.311
 3145POPC   C1B42067   8.958   3.162   6.138
 3145POPC   C2B42068   8.851   3.158   6.540
 3145POPC   C3B42069   9.067   3.147   6.918
 3145POPC   C4B42070   9.045   2.937   7.315
 3146POPC   NC342071  12.119  44.858   5.307
 3146POPC   PO442072  12.558  44.535   5.437
 3146POPC   GL142073  12.151  44.561   5.741
 3146POPC   GL242074  11.995  44.886   5.845
 3146POPC   C1A42075  11.987  44.545   6.218
 3146POPC   D2A42076  11.885  44.805   6.630
 3146POPC   C3A42077  11.977  44.563   6.983
 3146POPC   C4A42078  12.061  44.498   7.407
 3146POPC   C1B42079  12.220  44.988   6.278
 3146POPC   C2B42080  12.392  44.766   6.680
 3146POPC   C3B42081  12.419  44.790   7.139
 3146POPC   C4B42082  12.434   0.180   7.425
 3147POPC   NC342083  33.159  23.542   5.313
 3147POPC   PO442084  32.752  24.042   5.288
 3147POPC   GL142085  32.824  23.774   5.687
 3147POPC   GL242086  32.490  23.893   5.758
 3147POPC   C1A42087  33.026  23.568   6.067
 3147POPC   D2A42088  33.147  23.552   6.520
 3147POPC   C3A42089  32.947  23.661   6.896
 3147POPC   C4A42090  33.022  23.777   7.279
 3147POPC   C1B42091  32.617  23.834   6.171
 3147POPC   C2B42092  32.776  23.970   6.536
 3147POPC   C3B42093  32.619  24.094   6.938
 3147POPC   C4B42094  32.511  23.851   7.227
 3148POPC   NC342095   2.860  22.382   5.375
 3148POPC   PO442096   2.885  21.786   5.350
 3148POPC   GL142097   2.705  22.022   5.720
 3148POPC   GL242098   2.925  22.260   5.895
 3148POPC   C1A42099   2.549  22.008   6.156
 3148POPC   D2A42100   2.404  22.324   6.446
 3148POPC   C3A42101   2.518  22.254   6.864
 3148POPC   C4A42102   2.456  22.015   7.249
 3148POPC   C1B42103   2.951  22.244   6.372
 3148POPC   C2B42104   3.043  22.216   6.827
 3148POPC   C3B42105   2.983  22.310   7.286
 3148POPC   C4B42106   3.114  22.404   7.721
 3149POPC   NC342107  42.176   8.379   5.422
 3149POPC   PO442108  42.834   8.312   5.580
 3149POPC   GL142109  42.475   8.241   5.894
 3149POPC   GL242110  42.164   8.026   5.813
 3149POPC   C1A42111  42.301   8.335   6.325
 3149POPC   D2A42112  42.030   8.485   6.682
 3149POPC   C3A42113  42.272   8.460   7.068
 3149POPC   C4A42114  42.510   8.044   7.104
 3149POPC   C1B42115  41.887   8.067   6.200
 3149POPC   C2B42116  41.900   7.929   6.654
 3149POPC   C3B42117  41.966   8.053   7.121
 3149POPC   C4B42118  41.932   8.300   7.523
 3150POPC   NC342119  12.874   3.820   5.244
 3150POPC   PO442120  12.204   3.908   5.341
 3150POPC   GL142121  12.439   3.605   5.686
 3150POPC   GL242122  12.809   3.498   5.636
 3150POPC   C1A42123  12.585   3.611   6.166
 3150POPC   D2A42124  12.750   3.744   6.617
 3150POPC   C3A42125  12.615   3.571   7.038
 3150POPC   C4A42126  12.704   3.589   7.528
 3150POPC   C1B42127  13.004   3.371   6.017
 3150POPC   C2B42128  12.956   3.310   6.420
 3150POPC   C3B42129  13.003   3.284   6.848
 3150POPC   C4B42130  13.134   3.555   7.194
 3151POPC   NC342131   1.283   3.847   5.630
 3151POPC   PO442132   1.609   3.281   5.573
 3151POPC   GL142133   1.409   3.391   5.941
 3151POPC   GL242134   1.082   3.357   5.810
 3151POPC   C1A42135   1.507   3.555   6.379
 3151POPC   D2A42136   1.547   3.935   6.665
 3151POPC   C3A42137   1.358   3.908   7.090
 3151POPC   C4A42138   1.286   3.529   7.317
 3151POPC   C1B42139   0.980   3.557   6.207
 3151POPC   C2B42140   0.722   3.542   6.581
 3151POPC   C3B42141   0.801   3.785   6.948
 3151POPC   C4B42142   0.833   3.727   7.358
 3152POPC   NC342143   3.592  33.740   5.207
 3152POPC   PO442144   3.329  34.326   5.466
 3152POPC   GL142145   3.541  33.953   5.697
 3152POPC   GL242146   3.242  33.818   5.842
 3152POPC   C1A42147   3.618  33.919   6.161
 3152POPC   D2A42148   3.367  33.881   6.540
 3152POPC   C3A42149   3.438  33.747   6.974
 3152POPC   C4A42150   3.467  33.851   7.404
 3152POPC   C1B42151   3.264  33.512   6.201
 3152POPC   C2B42152   3.357  33.340   6.598
 3152POPC   C3B42153   3.092  33.368   6.966
 3152POPC   C4B42154   3.281  33.393   7.333
 3153POPC   NC342155  24.754   2.567   5.316
 3153POPC   PO442156  24.232   2.896   5.463
 3153POPC   GL142157  24.507   2.785   5.794
 3153POPC   GL242158  24.842   2.628   5.812
 3153POPC   C1A42159  24.554   2.753   6.215
 3153POPC   D2A42160  24.346   2.677   6.559
 3153POPC   C3A42161  24.514   2.777   6.909
 3153POPC   C4A42162  24.666   2.806   7.288
 3153POPC   C1B42163  24.792   2.310   6.143
 3153POPC   C2B42164  24.616   2.233   6.558
 3153POPC   C3B42165  24.749   2.333   6.958
 3153POPC   C4B42166  24.578   2.290   7.330
 3154POPC   NC342167  44.217  19.408   5.131
 3154POPC   PO442168  43.774  19.925   5.369
 3154POPC   GL142169  43.781  19.959   5.807
 3154POPC   GL242170  43.618  19.660   5.814
 3154POPC   C1A42171  43.949  19.751   6.196
 3154POPC   D2A42172  43.835  19.508   6.556
 3154POPC   C3A42173  44.015  19.674   6.915
 3154POPC   C4A42174  43.875  19.845   7.293
 3154POPC   C1B42175  43.436  19.770   6.192
 3154POPC   C2B42176  43.501  19.901   6.607
 3154POPC   C3B42177  43.478  19.695   7.007
 3154POPC   C4B42178  43.412  19.580   7.452
 3155POPC   NC342179  32.612  37.317   5.164
 3155POPC   PO442180  32.883  37.820   5.440
 3155POPC   GL142181  33.051  37.845   5.798
 3155POPC   GL242182  33.286  37.627   5.778
 3155POPC   C1A42183  32.966  37.575   6.168
 3155POPC   D2A42184  32.700  37.427   6.504
 3155POPC   C3A42185  32.951  37.389   6.880
 3155POPC   C4A42186  33.015  37.680   7.198
 3155POPC   C1B42187  33.453  37.395   6.151
 3155POPC   C2B42188  33.340  37.484   6.547
 3155POPC   C3B42189  33.518  37.459   6.931
 3155POPC   C4B42190  33.447  37.456   7.347
 3156POPC   NC342191  19.247   4.447   5.425
 3156POPC   PO442192  18.965   3.798   5.252
 3156POPC   GL142193  19.022   4.012   5.648
 3156POPC   GL242194  18.778   4.289   5.668
 3156POPC   C1A42195  19.081   4.085   6.111
 3156POPC   D2A42196  19.200   4.268   6.553
 3156POPC   C3A42197  19.287   4.088   7.010
 3156POPC   C4A42198  19.449   4.201   7.466
 3156POPC   C1B42199  18.781   4.480   6.088
 3156POPC   C2B42200  18.585   4.275   6.483
 3156POPC   C3B42201  18.806   4.252   6.896
 3156POPC   C4B42202  19.040   4.540   7.166
 3157POPC   NC342203  11.918   3.530   5.293
 3157POPC   PO442204  12.051   2.917   5.361
 3157POPC   GL142205  11.981   3.319   5.756
 3157POPC   GL242206  11.940   3.738   5.747
 3157POPC   C1A42207  11.884   3.519   6.205
 3157POPC   D2A42208  11.781   3.598   6.666
 3157POPC   C3A42209  12.117   3.408   6.897
 3157POPC   C4A42210  12.229   3.351   7.327
 3157POPC   C1B42211  12.179   3.906   6.076
 3157POPC   C2B42212  12.240   3.800   6.508
 3157POPC   C3B42213  12.197   3.910   6.925
 3157POPC   C4B42214  12.321   3.858   7.338
 3158POPC   NC342215  22.353  18.265   5.431
 3158POPC   PO442216  21.740  18.545   5.524
 3158POPC   GL142217  22.079  18.461   5.837
 3158POPC   GL242218  22.450  18.564   5.822
 3158POPC   C1A42219  22.151  18.313   6.243
 3158POPC   D2A42220  22.330  18.228   6.639
 3158POPC   C3A42221  22.102  18.128   7.047
 3158POPC   C4A42222  22.016  18.232   7.493
 3158POPC   C1B42223  22.600  18.555   6.229
 3158POPC   C2B42224  22.442  18.757   6.600
 3158POPC   C3B42225  22.236  18.633   6.950
 3158POPC   C4B42226  22.450  18.447   7.267
 3159POPC   NC342227  11.372  36.010   5.429
 3159POPC   PO442228  11.002  36.585   5.301
 3159POPC   GL142229  11.206  36.406   5.714
 3159POPC   GL242230  11.138  36.051   5.869
 3159POPC   C1A42231  11.422  36.384   6.157
 3159POPC   D2A42232  11.692  36.151   6.474
 3159POPC   C3A42233  11.453  36.237   6.867
 3159POPC   C4A42234  11.252  36.387   7.264
 3159POPC   C1B42235  10.903  36.352   6.110
 3159POPC   C2B42236  10.903  36.314   6.531
 3159POPC   C3B42237  10.978  36.042   6.881
 3159POPC   C4B42238  11.243  35.878   7.210
 3160POPC   NC342239  36.115  23.156   5.475
 3160POPC   PO442240  35.772  22.607   5.152
 3160POPC   GL142241  35.991  22.632   5.665
 3160POPC   GL242242  35.758  22.603   5.902
 3160POPC   C1A42243  36.104  22.954   6.098
 3160POPC   D2A42244  35.954  23.052   6.573
 3160POPC   C3A42245  36.155  23.257   6.984
 3160POPC   C4A42246  36.318  23.196   7.459
 3160POPC   C1B42247  35.876  22.580   6.338
 3160POPC   C2B42248  35.933  22.416   6.698
 3160POPC   C3B42249  35.776  22.514   7.067
 3160POPC   C4B42250  36.056  22.832   7.216
 3161POPC   NC342251  35.599  32.047   5.291
 3161POPC   PO442252  35.156  32.474   5.483
 3161POPC   GL142253  35.366  32.158   5.763
 3161POPC   GL242254  35.708  31.991   5.803
 3161POPC   C1A42255  35.550  32.320   6.146
 3161POPC   D2A42256  35.327  32.369   6.513
 3161POPC   C3A42257  35.498  32.589   6.843
 3161POPC   C4A42258  35.375  32.417   7.211
 3161POPC   C1B42259  35.618  31.829   6.260
 3161POPC   C2B42260  35.609  31.936   6.724
 3161POPC   C3B42261  35.479  31.927   7.171
 3161POPC   C4B42262  35.640  32.125   7.560
 3162POPC   NC342263   8.797  21.833   5.451
 3162POPC   PO442264   8.881  21.166   5.329
 3162POPC   GL142265   8.955  21.256   5.783
 3162POPC   GL242266   8.749  21.537   5.856
 3162POPC   C1A42267   8.916  21.268   6.257
 3162POPC   D2A42268   9.044  21.568   6.587
 3162POPC   C3A42269   9.168  21.424   6.955
 3162POPC   C4A42270   8.925  21.151   7.172
 3162POPC   C1B42271   8.491  21.662   6.213
 3162POPC   C2B42272   8.527  21.541   6.619
 3162POPC   C3B42273   8.660  21.565   7.028
 3162POPC   C4B42274   8.568  21.883   7.317
 3163POPC   NC342275   4.688   7.596   5.607
 3163POPC   PO442276   4.065   7.580   5.467
 3163POPC   GL142277   4.262   7.418   5.854
 3163POPC   GL242278   4.466   7.098   5.878
 3163POPC   C1A42279   4.382   7.540   6.260
 3163POPC   D2A42280   4.228   7.710   6.666
 3163POPC   C3A42281   4.423   7.535   7.015
 3163POPC   C4A42282   4.245   7.343   7.379
 3163POPC   C1B42283   4.687   7.127   6.258
 3163POPC   C2B42284   4.496   7.192   6.624
 3163POPC   C3B42285   4.386   7.026   6.982
 3163POPC   C4B42286   4.786   7.114   7.176
 3164POPC   NC342287  37.371  40.274   5.364
 3164POPC   PO442288  37.661  39.679   5.460
 3164POPC   GL142289  37.730  39.857   5.883
 3164POPC   GL242290  38.040  40.112   5.928
 3164POPC   C1A42291  37.661  40.149   6.252
 3164POPC   D2A42292  37.510  40.295   6.636
 3164POPC   C3A42293  37.557  40.049   6.994
 3164POPC   C4A42294  37.398  40.129   7.383
 3164POPC   C1B42295  38.067  39.840   6.261
 3164POPC   C2B42296  37.978  40.040   6.646
 3164POPC   C3B42297  38.143  40.161   7.033
 3164POPC   C4B42298  37.926  40.098   7.439
 3165POPC   NC342299  16.169   3.776   5.345
 3165POPC   PO442300  15.737   3.284   5.311
 3165POPC   GL142301  15.983   3.373   5.643
 3165POPC   GL242302  15.831   3.663   5.727
 3165POPC   C1A42303  15.905   3.337   6.110
 3165POPC   D2A42304  15.725   3.412   6.535
 3165POPC   C3A42305  16.035   3.358   6.867
 3165POPC   C4A42306  16.121   3.154   7.278
 3165POPC   C1B42307  15.719   3.801   6.150
 3165POPC   C2B42308  15.805   3.921   6.553
 3165POPC   C3B42309  15.739   3.772   6.958
 3165POPC   C4B42310  16.002   3.660   7.269
 3166POPC   NC342311   6.003   3.353   5.062
 3166POPC   PO442312   5.858   3.727   5.524
 3166POPC   GL142313   6.024   3.461   5.848
 3166POPC   GL242314   6.278   3.726   5.845
 3166POPC   C1A42315   5.839   3.275   6.253
 3166POPC   D2A42316   5.525   3.215   6.620
 3166POPC   C3A42317   5.863   3.307   6.923
 3166POPC   C4A42318   6.060   3.244   7.309
 3166POPC   C1B42319   6.105   3.747   6.263
 3166POPC   C2B42320   6.198   3.685   6.669
 3166POPC   C3B42321   5.987   3.822   6.989
 3166POPC   C4B42322   6.085   4.043   7.317
 3167POPC   NC342323  36.415  38.962   5.566
 3167POPC   PO442324  35.810  39.176   5.367
 3167POPC   GL142325  35.968  39.255   5.747
 3167POPC   GL242326  35.683  39.089   5.868
 3167POPC   C1A42327  36.285  39.447   6.044
 3167POPC   D2A42328  36.582  39.344   6.381
 3167POPC   C3A42329  36.406  39.403   6.805
 3167POPC   C4A42330  36.359  39.245   7.232
 3167POPC   C1B42331  35.597  38.956   6.288
 3167POPC   C2B42332  35.758  39.263   6.554
 3167POPC   C3B42333  35.945  39.200   6.937
 3167POPC   C4B42334  35.868  39.335   7.326
 3168POPC   NC342335  44.926  24.143   5.095
 3168POPC   PO442336  44.576  24.676   5.330
 3168POPC   GL142337  44.495  24.517   5.770
 3168POPC   GL242338  44.657  24.174   5.850
 3168POPC   C1A42339  44.521  24.459   6.243
 3168POPC   D2A42340  44.765  24.655   6.580
 3168POPC   C3A42341  44.723  24.552   7.029
 3168POPC   C4A42342  44.940  24.696   7.387
 3168POPC   C1B42343  44.940  24.163   6.274
 3168POPC   C2B42344  44.947  24.188   6.746
 3168POPC   C3B42345   0.184  24.309   7.141
 3168POPC   C4B42346   0.215  24.361   7.650
 3169POPC   NC342347  35.514  31.099   5.569
 3169POPC   PO442348  35.220  31.700   5.359
 3169POPC   GL142349  35.364  31.603   5.762
 3169POPC   GL242350  35.710  31.481   5.861
 3169POPC   C1A42351  35.139  31.718   6.108
 3169POPC   D2A42352  35.131  31.850   6.530
 3169POPC   C3A42353  35.275  31.563   6.873
 3169POPC   C4A42354  35.042  31.656   7.262
 3169POPC   C1B42355  35.456  31.317   6.203
 3169POPC   C2B42356  35.332  31.123   6.576
 3169POPC   C3B42357  35.566  31.063   6.916
 3169POPC   C4B42358  35.393  31.226   7.257
 3170POPC   NC342359  14.705   3.502   5.578
 3170POPC   PO442360  14.253   3.828   5.274
 3170POPC   GL142361  14.328   3.851   5.744
 3170POPC   GL242362  14.244   3.480   5.807
 3170POPC   C1A42363  14.441   3.715   6.205
 3170POPC   D2A42364  14.225   3.504   6.578
 3170POPC   C3A42365  14.157   3.743   6.935
 3170POPC   C4A42366  14.514   3.790   7.202
 3170POPC   C1B42367  14.234   3.176   6.171
 3170POPC   C2B42368  14.208   2.982   6.599
 3170POPC   C3B42369  14.399   3.172   6.968
 3170POPC   C4B42370  14.596   3.227   7.371
 3171POPC   NC342371  40.443  42.816   5.488
 3171POPC   PO442372  40.886  43.379   5.407
 3171POPC   GL142373  40.830  43.233   5.835
 3171POPC   GL242374  40.854  42.880   5.806
 3171POPC   C1A42375  40.528  43.086   6.183
 3171POPC   D2A42376  40.307  43.182   6.592
 3171POPC   C3A42377  40.407  42.986   6.997
 3171POPC   C4A42378  40.430  43.248   7.350
 3171POPC   C1B42379  41.025  42.908   6.229
 3171POPC   C2B42380  40.850  43.088   6.611
 3171POPC   C3B42381  40.863  43.219   7.033
 3171POPC   C4B42382  40.899  43.032   7.448
 3172POPC   NC342383  17.331  18.495   5.473
 3172POPC   PO442384  17.880  18.020   5.306
 3172POPC   GL142385  17.677  18.097   5.759
 3172POPC   GL242386  17.585  18.403   5.945
 3172POPC   C1A42387  17.572  18.008   6.225
 3172POPC   D2A42388  17.436  18.293   6.557
 3172POPC   C3A42389  17.577  18.223   6.992
 3172POPC   C4A42390  17.736  18.158   7.387
 3172POPC   C1B42391  17.580  18.705   6.236
 3172POPC   C2B42392  17.376  18.811   6.613
 3172POPC   C3B42393  17.209  18.639   6.995
 3172POPC   C4B42394  17.417  18.578   7.360
 3173POPC   NC342395  25.774  20.519   5.359
 3173POPC   PO442396  25.162  20.469   5.277
 3173POPC   GL142397  25.211  20.320   5.715
 3173POPC   GL242398  25.063  20.603   5.853
 3173POPC   C1A42399  25.072  20.190   6.152
 3173POPC   D2A42400  24.981  20.426   6.533
 3173POPC   C3A42401  25.098  20.313   6.946
 3173POPC   C4A42402  25.199  20.413   7.374
 3173POPC   C1B42403  25.272  20.727   6.255
 3173POPC   C2B42404  25.140  20.898   6.667
 3173POPC   C3B42405  25.226  20.846   7.108
 3173POPC   C4B42406  25.577  20.985   7.396
 3174POPC   NC342407   4.645  10.623   5.455
 3174POPC   PO442408   4.096  10.256   5.356
 3174POPC   GL142409   4.327  10.285   5.729
 3174POPC   GL242410   4.309  10.642   5.839
 3174POPC   C1A42411   4.238  10.241   6.163
 3174POPC   D2A42412   4.018  10.365   6.506
 3174POPC   C3A42413   4.252  10.289   6.892
 3174POPC   C4A42414   4.163  10.492   7.273
 3174POPC   C1B42415   4.616  10.554   6.172
 3174POPC   C2B42416   4.560  10.589   6.615
 3174POPC   C3B42417   4.407  10.818   6.983
 3174POPC   C4B42418   4.556  10.812   7.420
 3175POPC   NC342419  32.356  42.851   5.448
 3175POPC   PO442420  31.962  43.371   5.270
 3175POPC   GL142421  32.120  43.245   5.724
 3175POPC   GL242422  32.499  43.182   5.790
 3175POPC   C1A42423  32.131  43.110   6.166
 3175POPC   D2A42424  32.316  42.945   6.569
 3175POPC   C3A42425  32.025  42.930   6.926
 3175POPC   C4A42426  31.966  43.182   7.314
 3175POPC   C1B42427  32.594  43.329   6.181
 3175POPC   C2B42428  32.301  43.458   6.512
 3175POPC   C3B42429  32.286  43.385   6.932
 3175POPC   C4B42430  32.468  43.284   7.320
 3176POPC   NC342431  23.263   6.147   5.415
 3176POPC   PO442432  22.749   5.687   5.455
 3176POPC   GL142433  22.947   5.611   5.815
 3176POPC   GL242434  23.238   5.813   5.827
 3176POPC   C1A42435  22.881   5.770   6.215
 3176POPC   D2A42436  23.087   5.774   6.586
 3176POPC   C3A42437  22.868   5.905   6.936
 3176POPC   C4A42438  22.973   5.776   7.337
 3176POPC   C1B42439  23.282   6.099   6.212
 3176POPC   C2B42440  23.157   6.277   6.640
 3176POPC   C3B42441  23.214   6.240   7.078
 3176POPC   C4B42442  22.960   6.258   7.459
 3177POPC   NC342443  20.831   3.257   5.448
 3177POPC   PO442444  20.582   3.866   5.419
 3177POPC   GL142445  20.750   3.678   5.790
 3177POPC   GL242446  21.045   3.838   5.853
 3177POPC   C1A42447  20.529   3.566   6.183
 3177POPC   D2A42448  20.298   3.627   6.578
 3177POPC   C3A42449  20.520   3.438   6.919
 3177POPC   C4A42450  20.368   3.258   7.256
 3177POPC   C1B42451  20.999   3.776   6.301
 3177POPC   C2B42452  20.771   3.832   6.709
 3177POPC   C3B42453  20.652   3.870   7.178
 3177POPC   C4B42454  20.825   3.716   7.581
 3178POPC   NC342455  18.953  30.408   5.361
 3178POPC   PO442456  19.386  30.929   5.373
 3178POPC   GL142457  19.130  30.780   5.678
 3178POPC   GL242458  19.374  30.566   5.775
 3178POPC   C1A42459  19.058  30.800   6.128
 3178POPC   D2A42460  18.839  31.038   6.505
 3178POPC   C3A42461  18.936  30.969   6.971
 3178POPC   C4A42462  19.078  30.619   7.229
 3178POPC   C1B42463  19.434  30.410   6.193
 3178POPC   C2B42464  19.339  30.267   6.639
 3178POPC   C3B42465  19.499  30.326   7.110
 3178POPC   C4B42466  19.364  30.360   7.597
 3179POPC   NC342467  25.543  38.556   5.311
 3179POPC   PO442468  25.316  37.980   5.458
 3179POPC   GL142469  25.279  38.412   5.734
 3179POPC   GL242470  25.558  38.705   5.776
 3179POPC   C1A42471  25.248  38.615   6.157
 3179POPC   D2A42472  25.275  38.343   6.494
 3179POPC   C3A42473  25.223  38.537   6.885
 3179POPC   C4A42474  25.410  38.405   7.250
 3179POPC   C1B42475  25.779  38.743   6.153
 3179POPC   C2B42476  25.579  38.776   6.535
 3179POPC   C3B42477  25.704  38.723   6.926
 3179POPC   C4B42478  25.506  38.907   7.290
 3180POPC   NC342479  35.077  38.301   5.229
 3180POPC   PO442480  34.416  38.285   5.305
 3180POPC   GL142481  34.317  38.258   5.753
 3180POPC   GL242482  34.666  38.290   5.885
 3180POPC   C1A42483  34.260  38.400   6.191
 3180POPC   D2A42484  34.550  38.398   6.540
 3180POPC   C3A42485  34.677  38.440   6.933
 3180POPC   C4A42486  34.503  38.393   7.330
 3180POPC   C1B42487  34.723  38.674   6.168
 3180POPC   C2B42488  35.008  38.697   6.540
 3180POPC   C3B42489  35.054  38.802   6.957
 3180POPC   C4B42490  34.894  38.825   7.327
 3181POPC   NC342491   9.999  12.438   5.356
 3181POPC   PO442492  10.541  12.007   5.469
 3181POPC   GL142493  10.615  11.924   5.873
 3181POPC   GL242494  10.663  12.272   5.919
 3181POPC   C1A42495  10.737  11.962   6.316
 3181POPC   D2A42496  10.931  11.761   6.649
 3181POPC   C3A42497  10.704  11.916   7.003
 3181POPC   C4A42498  10.826  12.300   7.161
 3181POPC   C1B42499  10.549  12.444   6.300
 3181POPC   C2B42500  10.682  12.322   6.664
 3181POPC   C3B42501  10.374  12.337   6.929
 3181POPC   C4B42502  10.355  12.494   7.297
 3182POPC   NC342503  22.483  24.219   5.392
 3182POPC   PO442504  21.945  24.677   5.499
 3182POPC   GL142505  22.041  24.672   5.881
 3182POPC   GL242506  22.361  24.525   5.828
 3182POPC   C1A42507  22.076  24.485   6.256
 3182POPC   D2A42508  22.073  24.660   6.608
 3182POPC   C3A42509  21.908  24.438   6.901
 3182POPC   C4A42510  22.029  24.091   7.105
 3182POPC   C1B42511  22.521  24.286   6.190
 3182POPC   C2B42512  22.340  24.194   6.634
 3182POPC   C3B42513  22.552  24.183   7.049
 3182POPC   C4B42514  22.724  24.281   7.476
 3183POPC   NC342515   1.896   9.941   5.454
 3183POPC   PO442516   1.951   9.235   5.430
 3183POPC   GL142517   2.026   9.531   5.767
 3183POPC   GL242518   1.681   9.621   5.837
 3183POPC   C1A42519   2.272   9.619   6.145
 3183POPC   D2A42520   2.366   9.360   6.497
 3183POPC   C3A42521   2.279   9.484   6.931
 3183POPC   C4A42522   2.093   9.547   7.361
 3183POPC   C1B42523   1.810   9.832   6.222
 3183POPC   C2B42524   2.086   9.864   6.586
 3183POPC   C3B42525   1.895   9.821   6.982
 3183POPC   C4B42526   1.570   9.830   7.286
 3184POPC   NC342527   7.890  34.296   5.453
 3184POPC   PO442528   7.186  34.485   5.423
 3184POPC   GL142529   7.295  34.659   5.796
 3184POPC   GL242530   7.647  34.623   5.758
 3184POPC   C1A42531   7.230  34.797   6.225
 3184POPC   D2A42532   7.314  34.563   6.597
 3184POPC   C3A42533   7.225  34.686   7.046
 3184POPC   C4A42534   7.218  34.832   7.458
 3184POPC   C1B42535   7.720  34.751   6.131
 3184POPC   C2B42536   7.788  34.746   6.555
 3184POPC   C3B42537   7.703  34.572   6.949
 3184POPC   C4B42538   7.660  34.575   7.381
 3185POPC   NC342539  39.676  34.101   5.342
 3185POPC   PO442540  40.152  33.695   5.486
 3185POPC   GL142541  39.925  33.821   5.884
 3185POPC   GL242542  39.589  33.939   5.847
 3185POPC   C1A42543  40.030  33.786   6.337
 3185POPC   D2A42544  40.416  33.760   6.608
 3185POPC   C3A42545  40.235  33.762   7.010
 3185POPC   C4A42546  39.804  33.632   7.118
 3185POPC   C1B42547  39.649  34.136   6.252
 3185POPC   C2B42548  39.644  34.015   6.719
 3185POPC   C3B42549  39.836  34.169   7.104
 3185POPC   C4B42550  39.738  34.271   7.552
 3186POPC   NC342551   8.545  28.975   5.579
 3186POPC   PO442552   7.906  29.081   5.306
 3186POPC   GL142553   7.864  29.121   5.731
 3186POPC   GL242554   8.169  29.285   5.785
 3186POPC   C1A42555   7.859  29.181   6.190
 3186POPC   D2A42556   8.013  28.926   6.531
 3186POPC   C3A42557   7.983  29.113   6.924
 3186POPC   C4A42558   8.126  29.193   7.328
 3186POPC   C1B42559   8.365  29.132   6.185
 3186POPC   C2B42560   8.529  29.084   6.596
 3186POPC   C3B42561   8.494  29.065   7.012
 3186POPC   C4B42562   8.631  29.355   7.335
 3187POPC   NC342563  39.165  24.456   5.296
 3187POPC   PO442564  39.774  24.780   5.434
 3187POPC   GL142565  39.481  24.576   5.737
 3187POPC   GL242566  39.263  24.281   5.766
 3187POPC   C1A42567  39.415  24.570   6.181
 3187POPC   D2A42568  39.426  24.772   6.578
 3187POPC   C3A42569  39.079  24.727   6.857
 3187POPC   C4A42570  39.365  24.613   7.131
 3187POPC   C1B42571  38.973  24.324   6.110
 3187POPC   C2B42572  39.115  24.324   6.529
 3187POPC   C3B42573  39.037  24.227   6.933
 3187POPC   C4B42574  38.974  24.386   7.337
 3188POPC   NC342575  40.214   6.636   5.205
 3188POPC   PO442576  39.617   6.851   5.449
 3188POPC   GL142577  39.970   6.778   5.753
 3188POPC   GL242578  40.271   6.545   5.709
 3188POPC   C1A42579  40.097   6.992   6.144
 3188POPC   D2A42580  39.921   7.007   6.566
 3188POPC   C3A42581  40.170   6.826   6.885
 3188POPC   C4A42582  40.009   6.595   7.216
 3188POPC   C1B42583  40.147   6.475   6.150
 3188POPC   C2B42584  40.362   6.475   6.583
 3188POPC   C3B42585  40.347   6.287   7.020
 3188POPC   C4B42586  40.259   6.268   7.516
 3189POPC   NC342587  30.417  35.838   5.429
 3189POPC   PO442588  30.733  36.517   5.411
 3189POPC   GL142589  30.700  36.192   5.756
 3189POPC   GL242590  30.746  35.823   5.817
 3189POPC   C1A42591  30.579  36.119   6.192
 3189POPC   D2A42592  30.655  36.316   6.577
 3189POPC   C3A42593  30.639  36.086   6.935
 3189POPC   C4A42594  30.787  36.156   7.306
 3189POPC   C1B42595  30.747  35.587   6.188
 3189POPC   C2B42596  30.711  35.729   6.588
 3189POPC   C3B42597  30.965  35.667   6.942
 3189POPC   C4B42598  30.912  35.678   7.366
 3190POPC   NC342599  41.965  15.173   5.355
 3190POPC   PO442600  42.697  14.994   5.411
 3190POPC   GL142601  42.498  15.164   5.791
 3190POPC   GL242602  42.152  15.044   5.799
 3190POPC   C1A42603  42.433  14.989   6.222
 3190POPC   D2A42604  42.338  14.821   6.628
 3190POPC   C3A42605  42.527  15.036   7.000
 3190POPC   C4A42606  42.572  14.861   7.426
 3190POPC   C1B42607  41.996  15.280   6.127
 3190POPC   C2B42608  42.144  15.304   6.531
 3190POPC   C3B42609  42.080  15.355   6.945
 3190POPC   C4B42610  42.378  15.505   7.249
 3191POPC   NC342611  25.351  18.936   5.421
 3191POPC   PO442612  24.773  18.963   5.727
 3191POPC   GL142613  25.191  19.115   5.884
 3191POPC   GL242614  25.481  18.863   5.903
 3191POPC   C1A42615  25.366  19.191   6.283
 3191POPC   D2A42616  25.139  19.092   6.659
 3191POPC   C3A42617  25.404  19.310   6.910
 3191POPC   C4A42618  25.594  19.169   7.228
 3191POPC   C1B42619  25.251  18.674   6.264
 3191POPC   C2B42620  25.257  18.593   6.733
 3191POPC   C3B42621  25.186  18.867   7.141
 3191POPC   C4B42622  25.449  18.796   7.526
 3192POPC   NC342623  22.447  16.323   5.551
 3192POPC   PO442624  22.008  15.794   5.507
 3192POPC   GL142625  21.819  15.910   5.897
 3192POPC   GL242626  21.967  16.228   5.805
 3192POPC   C1A42627  21.849  15.943   6.384
 3192POPC   D2A42628  22.179  15.764   6.638
 3192POPC   C3A42629  22.379  15.951   6.989
 3192POPC   C4A42630  22.369  15.942   7.440
 3192POPC   C1B42631  22.259  16.123   6.150
 3192POPC   C2B42632  22.215  16.280   6.570
 3192POPC   C3B42633  21.942  16.217   6.898
 3192POPC   C4B42634  21.905  16.111   7.328
 3193POPC   NC342635  40.336   7.881   5.650
 3193POPC   PO442636  39.967   8.350   5.286
 3193POPC   GL142637  40.158   8.409   5.677
 3193POPC   GL242638  39.845   8.297   5.812
 3193POPC   C1A42639  40.245   8.384   6.119
 3193POPC   D2A42640  40.061   7.993   6.269
 3193POPC   C3A42641  40.130   7.829   6.682
 3193POPC   C4A42642  40.156   7.980   7.108
 3193POPC   C1B42643  39.746   8.512   6.203
 3193POPC   C2B42644  39.890   8.492   6.593
 3193POPC   C3B42645  39.697   8.470   6.989
 3193POPC   C4B42646  39.742   8.277   7.367
 3194POPC   NC342647   5.097   9.950   5.517
 3194POPC   PO442648   5.445   9.435   5.221
 3194POPC   GL142649   5.253   9.450   5.687
 3194POPC   GL242650   4.904   9.486   5.848
 3194POPC   C1A42651   5.274   9.678   6.129
 3194POPC   D2A42652   5.069   9.658   6.555
 3194POPC   C3A42653   5.099   9.917   6.929
 3194POPC   C4A42654   5.029   9.599   7.271
 3194POPC   C1B42655   4.722   9.810   6.200
 3194POPC   C2B42656   4.625   9.942   6.679
 3194POPC   C3B42657   4.651   9.925   7.166
 3194POPC   C4B42658   4.696   9.817   7.621
 3195POPC   NC342659  15.396  28.024   5.514
 3195POPC   PO442660  15.493  27.405   5.463
 3195POPC   GL142661  15.219  27.564   5.836
 3195POPC   GL242662  15.191  27.907   5.976
 3195POPC   C1A42663  15.035  27.487   6.260
 3195POPC   D2A42664  14.990  27.636   6.703
 3195POPC   C3A42665  15.248  27.731   7.068
 3195POPC   C4A42666  15.155  27.633   7.497
 3195POPC   C1B42667  14.848  27.978   6.306
 3195POPC   C2B42668  14.793  28.112   6.768
 3195POPC   C3B42669  14.809  27.935   7.216
 3195POPC   C4B42670  14.886  28.022   7.724
 3196POPC   NC342671  27.509  34.980   5.323
 3196POPC   PO442672  27.150  34.789   5.872
 3196POPC   GL142673  27.625  34.815   5.868
 3196POPC   GL242674  27.661  34.508   5.656
 3196POPC   C1A42675  27.885  34.799   6.285
 3196POPC   D2A42676  27.932  34.633   6.741
 3196POPC   C3A42677  27.662  34.641   7.113
 3196POPC   C4A42678  27.407  34.741   7.486
 3196POPC   C1B42679  27.666  34.366   6.106
 3196POPC   C2B42680  27.505  34.459   6.517
 3196POPC   C3B42681  27.426  34.239   6.891
 3196POPC   C4B42682  27.333  34.275   7.294
 3197POPC   NC342683  11.865  19.289   5.350
 3197POPC   PO442684  11.176  19.022   5.318
 3197POPC   GL142685  11.279  19.131   5.777
 3197POPC   GL242686  11.639  19.095   5.771
 3197POPC   C1A42687  11.199  19.309   6.239
 3197POPC   D2A42688  11.245  19.430   6.701
 3197POPC   C3A42689  11.047  19.226   7.056
 3197POPC   C4A42690  11.199  19.096   7.479
 3197POPC   C1B42691  11.486  18.890   6.175
 3197POPC   C2B42692  11.279  18.894   6.606
 3197POPC   C3B42693  11.491  19.026   6.997
 3197POPC   C4B42694  11.671  18.957   7.404
 3198POPC   NC342695  18.194  29.748   5.225
 3198POPC   PO442696  18.680  30.071   5.551
 3198POPC   GL142697  18.521  29.983   5.929
 3198POPC   GL242698  18.362  30.277   6.053
 3198POPC   C1A42699  18.340  29.704   6.225
 3198POPC   D2A42700  18.253  29.451   6.591
 3198POPC   C3A42701  18.214  29.671   7.003
 3198POPC   C4A42702  18.497  30.005   7.174
 3198POPC   C1B42703  17.975  30.100   6.184
 3198POPC   C2B42704  18.009  29.931   6.575
 3198POPC   C3B42705  17.901  30.080   6.956
 3198POPC   C4B42706  18.012  29.976   7.381
 3199POPC   NC342707  13.146  27.125   5.411
 3199POPC   PO442708  12.737  26.499   5.494
 3199POPC   GL142709  13.092  26.650   5.702
 3199POPC   GL242710  12.881  26.917   5.827
 3199POPC   C1A42711  13.197  26.636   6.137
 3199POPC   D2A42712  12.980  26.837   6.489
 3199POPC   C3A42713  13.015  26.734   6.900
 3199POPC   C4A42714  12.832  26.875   7.283
 3199POPC   C1B42715  12.678  27.129   6.204
 3199POPC   C2B42716  12.674  27.246   6.674
 3199POPC   C3B42717  12.437  27.131   7.092
 3199POPC   C4B42718  12.391  26.923   7.540
 3200POPC   NC342719  25.919   3.670   5.326
 3200POPC   PO442720  26.485   3.780   5.672
 3200POPC   GL142721  26.156   3.428   5.734
 3200POPC   GL242722  25.784   3.492   5.783
 3200POPC   C1A42723  26.093   3.161   6.115
 3200POPC   D2A42724  26.218   3.261   6.543
 3200POPC   C3A42725  25.963   3.522   6.796
 3200POPC   C4A42726  25.982   3.460   7.214
 3200POPC   C1B42727  25.868   3.618   6.223
 3200POPC   C2B42728  25.744   3.937   6.541
 3200POPC   C3B42729  25.577   3.899   6.966
 3200POPC   C4B42730  25.768   3.921   7.355
 3201POPC   NC342731  43.804  30.103   5.471
 3201POPC   PO442732  43.687  29.471   5.572
 3201POPC   GL142733  43.811  29.838   5.908
 3201POPC   GL242734  43.782  30.245   5.955
 3201POPC   C1A42735  43.855  29.930   6.369
 3201POPC   D2A42736  43.776  29.696   6.741
 3201POPC   C3A42737  43.906  29.965   7.099
 3201POPC   C4A42738  43.862  29.902   7.551
 3201POPC   C1B42739  44.105  30.359   6.273
 3201POPC   C2B42740  44.138  30.234   6.722
 3201POPC   C3B42741  44.279  30.329   7.158
 3201POPC   C4B42742  44.117  30.332   7.586
 3202POPC   NC342743  40.117  13.583   5.374
 3202POPC   PO442744  39.544  13.815   5.456
 3202POPC   GL142745  39.807  13.608   5.796
 3202POPC   GL242746  40.124  13.418   5.847
 3202POPC   C1A42747  39.952  13.731   6.195
 3202POPC   D2A42748  40.244  13.832   6.499
 3202POPC   C3A42749  40.007  13.855   6.872
 3202POPC   C4A42750  39.956  13.674   7.266
 3202POPC   C1B42751  40.165  13.227   6.228
 3202POPC   C2B42752  40.315  13.308   6.608
 3202POPC   C3B42753  40.200  13.291   7.007
 3202POPC   C4B42754  40.430  13.472   7.334
 3203POPC   NC342755  40.410  33.258   5.446
 3203POPC   PO442756  40.833  32.686   5.391
 3203POPC   GL142757  40.832  33.001   5.708
 3203POPC   GL242758  40.725  32.711   5.925
 3203POPC   C1A42759  40.778  33.158   6.143
 3203POPC   D2A42760  40.751  32.825   6.477
 3203POPC   C3A42761  40.612  32.960   6.869
 3203POPC   C4A42762  40.640  33.381   7.085
 3203POPC   C1B42763  41.160  32.817   6.128
 3203POPC   C2B42764  41.316  32.863   6.573
 3203POPC   C3B42765  41.105  32.935   6.960
 3203POPC   C4B42766  40.931  33.024   7.377
 3204POPC   NC342767  44.684  27.659   5.611
 3204POPC   PO442768  44.851  28.248   5.710
 3204POPC   GL142769  44.716  27.959   6.008
 3204POPC   GL242770  44.356  27.796   5.981
 3204POPC   C1A42771  44.723  27.746   6.380
 3204POPC   D2A42772  44.657  27.915   6.796
 3204POPC   C3A42773  44.908  27.778   7.140
 3204POPC   C4A42774  44.740  27.766   7.549
 3204POPC   C1B42775  44.234  27.604   6.380
 3204POPC   C2B42776  44.483  27.429   6.717
 3204POPC   C3B42777  44.466  27.532   7.147
 3204POPC   C4B42778  44.315  27.457   7.539
 3205POPC   NC342779  10.631  16.621   5.342
 3205POPC   PO442780  10.124  16.444   5.484
 3205POPC   GL142781  10.421  16.594   5.845
 3205POPC   GL242782  10.808  16.584   5.828
 3205POPC   C1A42783  10.406  16.687   6.322
 3205POPC   D2A42784  10.428  16.918   6.752
 3205POPC   C3A42785  10.316  16.698   7.142
 3205POPC   C4A42786  10.115  16.709   7.546
 3205POPC   C1B42787  10.906  16.777   6.265
 3205POPC   C2B42788  10.920  16.774   6.746
 3205POPC   C3B42789  10.800  16.901   7.193
 3205POPC   C4B42790  11.026  17.160   7.553
 3206POPC   NC342791  17.277  41.131   5.406
 3206POPC   PO442792  17.713  40.660   5.325
 3206POPC   GL142793  17.610  40.804   5.714
 3206POPC   GL242794  17.702  41.137   5.744
 3206POPC   C1A42795  17.620  40.626   6.157
 3206POPC   D2A42796  17.814  40.537   6.544
 3206POPC   C3A42797  17.530  40.551   6.868
 3206POPC   C4A42798  17.484  40.374   7.260
 3206POPC   C1B42799  17.390  41.062   6.080
 3206POPC   C2B42800  17.366  40.924   6.508
 3206POPC   C3B42801  17.589  41.075   6.879
 3206POPC   C4B42802  17.455  40.886   7.255
 3207POPC   NC342803  39.376   6.476   5.563
 3207POPC   PO442804  38.867   6.788   5.401
 3207POPC   GL142805  38.957   6.921   5.839
 3207POPC   GL242806  39.331   6.885   5.885
 3207POPC   C1A42807  39.037   6.860   6.299
 3207POPC   D2A42808  39.289   6.611   6.602
 3207POPC   C3A42809  39.102   6.659   7.032
 3207POPC   C4A42810  39.070   6.689   7.532
 3207POPC   C1B42811  39.662   6.680   6.175
 3207POPC   C2B42812  39.827   6.471   6.567
 3207POPC   C3B42813  39.621   6.401   6.953
 3207POPC   C4B42814  39.514   6.633   7.315
 3208POPC   NC342815  14.422  15.079   5.459
 3208POPC   PO442816  14.075  15.684   5.519
 3208POPC   GL142817  14.322  15.441   5.856
 3208POPC   GL242818  14.193  15.098   5.910
 3208POPC   C1A42819  14.560  15.209   6.225
 3208POPC   D2A42820  14.475  15.390   6.639
 3208POPC   C3A42821  14.454  15.195   7.045
 3208POPC   C4A42822  14.364  15.505   7.348
 3208POPC   C1B42823  14.058  15.259   6.318
 3208POPC   C2B42824  13.959  15.005   6.666
 3208POPC   C3B42825  13.827  14.926   7.071
 3208POPC   C4B42826  14.016  14.949   7.431
 3209POPC   NC342827  34.495   6.368   5.088
 3209POPC   PO442828  34.435   5.795   5.444
 3209POPC   GL142829  34.576   5.819   5.856
 3209POPC   GL242830  34.734   6.114   5.935
 3209POPC   C1A42831  34.587   5.789   6.319
 3209POPC   D2A42832  34.904   5.842   6.640
 3209POPC   C3A42833  34.804   5.585   6.993
 3209POPC   C4A42834  34.351   5.512   7.041
 3209POPC   C1B42835  34.817   6.240   6.283
 3209POPC   C2B42836  34.561   6.256   6.584
 3209POPC   C3B42837  34.611   6.099   6.964
 3209POPC   C4B42838  34.949   6.307   7.076
 3210POPC   NC342839  27.724  20.890   5.504
 3210POPC   PO442840  27.428  20.372   5.470
 3210POPC   GL142841  27.658  20.490   5.861
 3210POPC   GL242842  27.943  20.320   5.947
 3210POPC   C1A42843  27.616  20.412   6.335
 3210POPC   D2A42844  27.246  20.280   6.549
 3210POPC   C3A42845  27.164  20.370   6.989
 3210POPC   C4A42846  27.470  20.413   7.324
 3210POPC   C1B42847  28.026  20.678   6.204
 3210POPC   C2B42848  28.038  20.559   6.631
 3210POPC   C3B42849  27.852  20.571   7.009
 3210POPC   C4B42850  27.951  20.875   7.324
 3211POPC   NC342851  19.732   8.393   5.003
 3211POPC   PO442852  20.059   7.890   5.368
 3211POPC   GL142853  20.083   8.112   5.795
 3211POPC   GL242854  20.223   8.437   5.815
 3211POPC   C1A42855  19.885   8.223   6.236
 3211POPC   D2A42856  19.829   8.099   6.664
 3211POPC   C3A42857  19.682   8.287   7.045
 3211POPC   C4A42858  19.700   7.960   7.371
 3211POPC   C1B42859  20.380   8.263   6.212
 3211POPC   C2B42860  20.320   8.269   6.633
 3211POPC   C3B42861  20.185   8.191   7.047
 3211POPC   C4B42862  20.102   8.249   7.489
 3212POPC   NC342863  12.593  25.239   5.472
 3212POPC   PO442864  13.243  25.100   5.325
 3212POPC   GL142865  13.066  25.318   5.711
 3212POPC   GL242866  12.876  25.102   5.915
 3212POPC   C1A42867  13.101  25.486   6.173
 3212POPC   D2A42868  13.150  25.340   6.587
 3212POPC   C3A42869  12.869  25.518   6.910
 3212POPC   C4A42870  12.978  25.795   7.221
 3212POPC   C1B42871  12.868  24.928   6.347
 3212POPC   C2B42872  12.804  25.020   6.780
 3212POPC   C3B42873  12.905  25.080   7.200
 3212POPC   C4B42874  12.703  24.891   7.546
 3213POPC   NC342875  32.073  36.179   5.081
 3213POPC   PO442876  32.461  35.808   5.432
 3213POPC   GL142877  32.147  35.875   5.711
 3213POPC   GL242878  32.198  36.232   5.636
 3213POPC   C1A42879  32.225  35.915   6.141
 3213POPC   D2A42880  32.490  36.071   6.466
 3213POPC   C3A42881  32.551  35.948   6.887
 3213POPC   C4A42882  32.426  36.076   7.266
 3213POPC   C1B42883  32.011  36.365   6.007
 3213POPC   C2B42884  31.983  36.246   6.447
 3213POPC   C3B42885  32.123  36.231   6.866
 3213POPC   C4B42886  31.985  36.321   7.305
 3214POPC   NC342887  32.141  20.324   5.220
 3214POPC   PO442888  32.432  19.697   5.381
 3214POPC   GL142889  32.336  19.841   5.816
 3214POPC   GL242890  32.467  20.103   5.789
 3214POPC   C1A42891  32.035  19.769   6.188
 3214POPC   D2A42892  31.773  19.709   6.575
 3214POPC   C3A42893  31.985  19.628   6.958
 3214POPC   C4A42894  32.109  19.939   7.278
 3214POPC   C1B42895  32.363  20.196   6.191
 3214POPC   C2B42896  32.273  20.379   6.551
 3214POPC   C3B42897  32.392  20.242   6.947
 3214POPC   C4B42898  32.557  20.235   7.348
 3215POPC   NC342899  10.616  22.562   5.276
 3215POPC   PO442900  10.479  21.926   5.058
 3215POPC   GL142901  10.538  22.076   5.514
 3215POPC   GL242902  10.233  21.978   5.704
 3215POPC   C1A42903  10.609  22.218   5.978
 3215POPC   D2A42904  10.387  22.394   6.362
 3215POPC   C3A42905  10.565  22.358   6.795
 3215POPC   C4A42906  10.306  22.488   7.131
 3215POPC   C1B42907  10.329  21.777   6.103
 3215POPC   C2B42908  10.518  21.913   6.499
 3215POPC   C3B42909  10.579  21.832   6.943
 3215POPC   C4B42910  10.836  22.036   7.232
 3216POPC   NC342911  35.816  38.677   5.270
 3216POPC   PO442912  36.483  38.492   5.409
 3216POPC   GL142913  36.340  38.539   5.828
 3216POPC   GL242914  36.026  38.705   5.758
 3216POPC   C1A42915  36.224  38.477   6.244
 3216POPC   D2A42916  36.205  38.372   6.668
 3216POPC   C3A42917  35.914  38.374   6.995
 3216POPC   C4A42918  36.208  38.392   7.321
 3216POPC   C1B42919  36.097  38.957   6.144
 3216POPC   C2B42920  36.095  38.868   6.572
 3216POPC   C3B42921  36.239  38.790   6.984
 3216POPC   C4B42922  35.938  38.807   7.308
 3217POPC   NC342923  38.978  35.036   5.550
 3217POPC   PO442924  39.385  34.468   5.239
 3217POPC   GL142925  39.442  34.432   5.709
 3217POPC   GL242926  39.568  34.728   5.809
 3217POPC   C1A42927  39.146  34.602   6.053
 3217POPC   D2A42928  39.073  34.836   6.428
 3217POPC   C3A42929  39.024  34.676   6.803
 3217POPC   C4A42930  39.014  34.506   7.202
 3217POPC   C1B42931  39.512  34.974   6.166
 3217POPC   C2B42932  39.545  34.763   6.560
 3217POPC   C3B42933  39.472  34.482   6.902
 3217POPC   C4B42934  39.495  34.648   7.295
 3218POPC   NC342935   2.961   4.991   5.473
 3218POPC   PO442936   2.388   5.454   5.561
 3218POPC   GL142937   2.550   5.082   5.786
 3218POPC   GL242938   2.851   5.176   5.940
 3218POPC   C1A42939   2.539   4.891   6.217
 3218POPC   D2A42940   2.732   4.769   6.633
 3218POPC   C3A42941   2.609   4.806   7.067
 3218POPC   C4A42942   2.744   4.917   7.520
 3218POPC   C1B42943   2.580   5.451   6.184
 3218POPC   C2B42944   2.439   5.318   6.547
 3218POPC   C3B42945   2.726   5.257   6.840
 3218POPC   C4B42946   2.576   5.284   7.225
 3219POPC   NC342947   3.946  25.827   5.449
 3219POPC   PO442948   4.585  26.005   5.231
 3219POPC   GL142949   4.433  25.926   5.675
 3219POPC   GL242950   4.173  26.139   5.813
 3219POPC   C1A42951   4.416  25.819   6.145
 3219POPC   D2A42952   4.503  25.973   6.601
 3219POPC   C3A42953   4.293  25.753   6.950
 3219POPC   C4A42954   4.070  25.927   7.337
 3219POPC   C1B42955   4.219  26.291   6.230
 3219POPC   C2B42956   4.009  26.405   6.599
 3219POPC   C3B42957   4.076  26.226   6.935
 3219POPC   C4B42958   4.493  26.212   7.090
 3220POPC   NC342959  21.599   2.227   5.441
 3220POPC   PO442960  21.088   1.864   5.170
 3220POPC   GL142961  21.229   1.911   5.660
 3220POPC   GL242962  21.496   1.646   5.833
 3220POPC   C1A42963  21.205   1.945   6.122
 3220POPC   D2A42964  21.453   2.066   6.516
 3220POPC   C3A42965  21.335   1.980   6.944
 3220POPC   C4A42966  21.402   1.661   7.287
 3220POPC   C1B42967  21.712   1.997   6.075
 3220POPC   C2B42968  21.946   2.178   6.416
 3220POPC   C3B42969  21.935   2.115   6.860
 3220POPC   C4B42970  21.753   2.022   7.257
 3221POPC   NC342971   1.640  17.861   5.530
 3221POPC   PO442972   2.018  18.422   5.420
 3221POPC   GL142973   2.098  18.397   5.867
 3221POPC   GL242974   1.727  18.308   5.834
 3221POPC   C1A42975   2.177  18.382   6.331
 3221POPC   D2A42976   2.273  18.324   6.762
 3221POPC   C3A42977   2.078  18.332   7.144
 3221POPC   C4A42978   2.204  18.364   7.543
 3221POPC   C1B42979   1.733  18.608   6.172
 3221POPC   C2B42980   1.783  18.595   6.619
 3221POPC   C3B42981   1.643  18.564   7.046
 3221POPC   C4B42982   1.733  18.653   7.483
 3222POPC   NC342983   2.865  39.895   5.194
 3222POPC   PO442984   2.384  40.197   5.600
 3222POPC   GL142985   2.562  39.938   5.827
 3222POPC   GL242986   2.912  39.961   5.728
 3222POPC   C1A42987   2.593  40.031   6.239
 3222POPC   D2A42988   2.855  40.174   6.532
 3222POPC   C3A42989   2.651  40.099   6.887
 3222POPC   C4A42990   2.765  40.310   7.263
 3222POPC   C1B42991   2.977  39.728   6.121
 3222POPC   C2B42992   2.826  39.660   6.561
 3222POPC   C3B42993   3.054  39.820   6.916
 3222POPC   C4B42994   3.129  39.960   7.328
 3223POPC   NC342995  40.887  22.361   5.568
 3223POPC   PO442996  40.510  21.773   5.462
 3223POPC   GL142997  40.631  22.008   5.860
 3223POPC   GL242998  40.534  22.371   5.959
 3223POPC   C1A42999  40.519  21.959   6.300
 3223POPC   D2A43000  40.663  21.770   6.677
 3223POPC   C3A43001  40.734  22.009   7.036
 3223POPC   C4A43002  40.583  22.375   7.206
 3223POPC   C1B43003  40.934  22.253   6.214
 3223POPC   C2B43004  41.055  22.116   6.627
 3223POPC   C3B43005  41.075  22.382   6.986
 3223POPC   C4B43006  41.044  22.266   7.382
 3224POPC   NC343007  16.963  33.226   5.624
 3224POPC   PO443008  16.801  33.797   5.308
 3224POPC   GL143009  16.778  33.709   5.740
 3224POPC   GL243010  16.450  33.625   5.809
 3224POPC   C1A43011  16.881  33.777   6.185
 3224POPC   D2A43012  17.043  34.045   6.561
 3224POPC   C3A43013  16.843  33.921   6.961
 3224POPC   C4A43014  16.799  33.859   7.403
 3224POPC   C1B43015  16.513  33.420   6.208
 3224POPC   C2B43016  16.591  33.603   6.607
 3224POPC   C3B43017  16.593  33.473   7.064
 3224POPC   C4B43018  16.411  33.562   7.472
 3225POPC   NC343019   7.083  24.794   5.420
 3225POPC   PO443020   7.482  24.355   5.063
 3225POPC   GL143021   7.440  24.476   5.590
 3225POPC   GL243022   7.106  24.366   5.711
 3225POPC   C1A43023   7.378  24.495   6.119
 3225POPC   D2A43024   7.531  24.221   6.512
 3225POPC   C3A43025   7.471  24.424   6.922
 3225POPC   C4A43026   7.290  24.744   7.169
 3225POPC   C1B43027   7.033  24.106   6.087
 3225POPC   C2B43028   7.034  24.274   6.501
 3225POPC   C3B43029   7.038  24.150   6.937
 3225POPC   C4B43030   7.148  24.278   7.366
 3226POPC   NC343031  29.377   6.308   5.406
 3226POPC   PO443032  28.769   6.164   5.351
 3226POPC   GL143033  28.985   5.931   5.710
 3226POPC   GL243034  29.340   5.983   5.786
 3226POPC   C1A43035  29.106   5.652   6.103
 3226POPC   D2A43036  29.349   5.774   6.507
 3226POPC   C3A43037  29.202   5.668   6.939
 3226POPC   C4A43038  29.146   5.920   7.328
 3226POPC   C1B43039  29.148   6.140   6.165
 3226POPC   C2B43040  29.177   6.302   6.569
 3226POPC   C3B43041  29.401   6.124   6.916
 3226POPC   C4B43042  29.673   5.892   7.210
 3227POPC   NC343043  21.643  26.757   5.174
 3227POPC   PO443044  22.236  26.687   5.491
 3227POPC   GL143045  22.236  26.864   5.856
 3227POPC   GL243046  22.333  27.206   5.952
 3227POPC   C1A43047  22.312  26.650   6.209
 3227POPC   D2A43048  22.493  26.621   6.572
 3227POPC   C3A43049  22.219  26.625   6.899
 3227POPC   C4A43050  22.365  26.734   7.299
 3227POPC   C1B43051  22.024  27.072   6.268
 3227POPC   C2B43052  22.055  27.070   6.686
 3227POPC   C3B43053  22.053  27.075   7.113
 3227POPC   C4B43054  21.991  27.288   7.484
 3228POPC   NC343055  30.183   0.759   5.411
 3228POPC   PO443056  29.655   0.382   5.352
 3228POPC   GL143057  29.864   0.403   5.753
 3228POPC   GL243058  29.890   0.729   5.842
 3228POPC   C1A43059  30.113   0.416   6.169
 3228POPC   D2A43060  30.146   0.279   6.604
 3228POPC   C3A43061  30.231   0.575   6.903
 3228POPC   C4A43062  30.432   0.632   7.278
 3228POPC   C1B43063  29.639   0.636   6.208
 3228POPC   C2B43064  29.760   0.607   6.616
 3228POPC   C3B43065  29.738   0.500   7.003
 3228POPC   C4B43066  29.537   0.238   7.203
 3229POPC   NC343067  44.674  16.332   5.574
 3229POPC   PO443068  44.842  16.945   5.210
 3229POPC   GL143069  44.960  16.829   5.713
 3229POPC   GL243070  44.830  16.585   5.971
 3229POPC   C1A43071  44.890  17.030   6.163
 3229POPC   D2A43072  44.763  17.183   6.602
 3229POPC   C3A43073  44.595  16.887   6.924
 3229POPC   C4A43074  44.759  16.715   7.322
 3229POPC   C1B43075  44.975  16.278   6.281
 3229POPC   C2B43076   0.233  16.271   6.615
 3229POPC   C3B43077  44.971  16.348   6.991
 3229POPC   C4B43078  44.504  16.313   7.077
 3230POPC   NC343079  36.682  21.803   5.451
 3230POPC   PO443080  36.943  22.413   5.192
 3230POPC   GL143081  37.011  22.293   5.671
 3230POPC   GL243082  36.709  22.122   5.850
 3230POPC   C1A43083  37.138  22.127   6.125
 3230POPC   D2A43084  37.205  22.173   6.594
 3230POPC   C3A43085  36.934  21.910   6.909
 3230POPC   C4A43086  36.991  21.847   7.369
 3230POPC   C1B43087  36.660  22.024   6.313
 3230POPC   C2B43088  36.715  22.339   6.650
 3230POPC   C3B43089  36.751  22.361   7.084
 3230POPC   C4B43090  36.737  22.268   7.518
 3231POPC   NC343091   9.809  37.272   5.465
 3231POPC   PO443092   9.419  36.788   5.295
 3231POPC   GL143093   9.556  36.874   5.747
 3231POPC   GL243094   9.913  36.977   5.858
 3231POPC   C1A43095   9.575  36.803   6.206
 3231POPC   D2A43096   9.865  36.993   6.530
 3231POPC   C3A43097   9.712  36.923   6.933
 3231POPC   C4A43098   9.928  36.838   7.324
 3231POPC   C1B43099   9.706  37.288   6.133
 3231POPC   C2B43100   9.509  37.334   6.548
 3231POPC   C3B43101   9.558  37.426   6.970
 3231POPC   C4B43102   9.752  37.313   7.329
 3232POPC   NC343103   9.045   3.315   5.511
 3232POPC   PO443104   9.022   4.047   5.314
 3232POPC   GL143105   8.939   3.820   5.688
 3232POPC   GL243106   8.585   3.874   5.712
 3232POPC   C1A43107   9.120   3.686   6.089
 3232POPC   D2A43108   9.219   3.516   6.489
 3232POPC   C3A43109   9.064   3.705   6.893
 3232POPC   C4A43110   8.910   3.511   7.272
 3232POPC   C1B43111   8.621   3.562   6.055
 3232POPC   C2B43112   8.721   3.658   6.484
 3232POPC   C3B43113   8.617   3.447   6.860
 3232POPC   C4B43114   8.583   3.141   7.126
 3233POPC   NC343115  20.099   3.934   5.526
 3233POPC   PO443116  19.713   3.374   5.471
 3233POPC   GL143117  19.752   3.664   5.803
 3233POPC   GL243118  19.464   3.850   5.881
 3233POPC   C1A43119  20.006   3.523   6.140
 3233POPC   D2A43120  19.930   3.158   6.410
 3233POPC   C3A43121  20.038   3.211   6.849
 3233POPC   C4A43122  19.719   3.229   7.182
 3233POPC   C1B43123  19.554   4.002   6.271
 3233POPC   C2B43124  19.816   3.809   6.516
 3233POPC   C3B43125  19.814   3.665   6.877
 3233POPC   C4B43126  20.082   3.669   7.176
 3234POPC   NC343127  39.215   7.091   5.406
 3234POPC   PO443128  39.177   7.738   5.306
 3234POPC   GL143129  39.231   7.642   5.747
 3234POPC   GL243130  38.951   7.424   5.716
 3234POPC   C1A43131  39.322   7.621   6.220
 3234POPC   D2A43132  39.238   7.784   6.668
 3234POPC   C3A43133  39.319   7.491   7.031
 3234POPC   C4A43134  39.260   7.086   7.267
 3234POPC   C1B43135  38.847   7.446   6.143
 3234POPC   C2B43136  39.021   7.321   6.532
 3234POPC   C3B43137  38.917   7.183   6.916
 3234POPC   C4B43138  38.830   7.527   7.182
 3235POPC   NC343139  13.480   4.080   5.540
 3235POPC   PO443140  13.528   4.675   5.355
 3235POPC   GL143141  13.637   4.553   5.802
 3235POPC   GL243142  13.819   4.218   5.914
 3235POPC   C1A43143  13.452   4.361   6.203
 3235POPC   D2A43144  13.591   4.237   6.623
 3235POPC   C3A43145  13.591   4.575   6.926
 3235POPC   C4A43146  13.658   4.624   7.373
 3235POPC   C1B43147  13.922   4.552   6.245
 3235POPC   C2B43148  14.052   4.482   6.675
 3235POPC   C3B43149  13.972   4.285   7.092
 3235POPC   C4B43150  14.088   4.417   7.549
 3236POPC   NC343151  12.783  22.798   5.490
 3236POPC   PO443152  12.976  23.418   5.484
 3236POPC   GL143153  12.880  23.145   5.868
 3236POPC   GL243154  12.859  22.735   5.980
 3236POPC   C1A43155  12.850  23.119   6.297
 3236POPC   D2A43156  12.747  22.743   6.522
 3236POPC   C3A43157  12.804  22.885   6.933
 3236POPC   C4A43158  12.930  23.270   7.188
 3236POPC   C1B43159  13.107  22.450   6.259
 3236POPC   C2B43160  13.011  22.343   6.689
 3236POPC   C3B43161  13.164  22.521   7.068
 3236POPC   C4B43162  13.066  22.834   7.375
 3237POPC   NC343163  17.312  22.319   5.503
 3237POPC   PO443164  17.992  22.145   5.423
 3237POPC   GL143165  17.707  22.228   5.838
 3237POPC   GL243166  17.441  22.506   5.929
 3237POPC   C1A43167  17.590  22.215   6.300
 3237POPC   D2A43168  17.707  22.193   6.717
 3237POPC   C3A43169  17.469  22.014   7.029
 3237POPC   C4A43170  17.643  22.175   7.401
 3237POPC   C1B43171  17.208  22.747   6.189
 3237POPC   C2B43172  17.238  22.586   6.591
 3237POPC   C3B43173  17.408  22.549   6.970
 3237POPC   C4B43174  17.222  22.505   7.366
 3238POPC   NC343175  42.821  39.823   5.475
 3238POPC   PO443176  43.284  40.234   5.232
 3238POPC   GL143177  43.269  39.992   5.686
 3238POPC   GL243178  43.587  39.931   5.866
 3238POPC   C1A43179  43.210  39.871   6.180
 3238POPC   D2A43180  43.055  40.101   6.548
 3238POPC   C3A43181  43.112  40.034   7.005
 3238POPC   C4A43182  43.076  40.133   7.479
 3238POPC   C1B43183  43.330  40.341   6.055
 3238POPC   C2B43184  43.363  40.509   6.467
 3238POPC   C3B43185  43.234  40.552   6.887
 3238POPC   C4B43186  43.392  40.494   7.275
 3239POPC   NC343187  39.710  40.664   5.436
 3239POPC   PO443188  40.359  40.919   5.259
 3239POPC   GL143189  40.012  40.999   5.678
 3239POPC   GL243190  39.882  40.729   5.941
 3239POPC   C1A43191  40.053  41.167   6.108
 3239POPC   D2A43192  40.129  41.064   6.540
 3239POPC   C3A43193  39.835  41.105   6.870
 3239POPC   C4A43194  39.951  41.058   7.290
 3239POPC   C1B43195  40.223  40.672   6.201
 3239POPC   C2B43196  40.267  40.561   6.596
 3239POPC   C3B43197  40.142  40.697   6.960
 3239POPC   C4B43198  40.034  40.524   7.326
 3240POPC   NC343199   3.752  24.868   5.655
 3240POPC   PO443200   3.363  24.861   5.073
 3240POPC   GL143201   3.480  24.451   5.456
 3240POPC   GL243202   3.279  24.454   5.800
 3240POPC   C1A43203   3.734  24.262   5.884
 3240POPC   D2A43204   3.754  24.309   6.341
 3240POPC   C3A43205   3.579  24.463   6.727
 3240POPC   C4A43206   3.610  24.498   7.184
 3240POPC   C1B43207   3.403  24.692   6.227
 3240POPC   C2B43208   3.325  24.918   6.642
 3240POPC   C3B43209   3.210  24.800   7.065
 3240POPC   C4B43210   3.444  24.876   7.466
 3241POPC   NC343211   1.449  20.352   5.343
 3241POPC   PO443212   0.960  20.774   5.362
 3241POPC   GL143213   1.317  20.759   5.682
 3241POPC   GL243214   1.371  20.415   5.829
 3241POPC   C1A43215   1.259  20.771   6.158
 3241POPC   D2A43216   1.255  20.603   6.564
 3241POPC   C3A43217   0.973  20.724   6.889
 3241POPC   C4A43218   1.294  20.807   7.174
 3241POPC   C1B43219   1.239  20.230   6.201
 3241POPC   C2B43220   1.321  20.106   6.607
 3241POPC   C3B43221   1.240  20.304   7.007
 3241POPC   C4B43222   1.418  20.361   7.421
 3242POPC   NC343223  26.493  33.365   5.502
 3242POPC   PO443224  27.174  33.087   5.521
 3242POPC   GL143225  26.971  32.792   5.816
 3242POPC   GL243226  26.651  32.934   5.842
 3242POPC   C1A43227  26.918  32.809   6.269
 3242POPC   D2A43228  26.899  32.661   6.668
 3242POPC   C3A43229  27.178  32.850   6.884
 3242POPC   C4A43230  27.085  33.094   7.165
 3242POPC   C1B43231  26.670  33.256   6.171
 3242POPC   C2B43232  26.873  33.252   6.585
 3242POPC   C3B43233  26.793  33.456   6.979
 3242POPC   C4B43234  26.653  33.284   7.369
 3243POPC   NC343235  30.269  27.818   5.457
 3243POPC   PO443236  29.939  28.369   5.180
 3243POPC   GL143237  29.850  28.232   5.634
 3243POPC   GL243238  29.580  28.008   5.669
 3243POPC   C1A43239  29.805  28.326   6.110
 3243POPC   D2A43240  30.006  28.371   6.575
 3243POPC   C3A43241  29.934  28.374   7.042
 3243POPC   C4A43242  30.228  28.550   7.369
 3243POPC   C1B43243  29.474  27.943   6.127
 3243POPC   C2B43244  29.483  28.214   6.503
 3243POPC   C3B43245  29.447  28.153   6.925
 3243POPC   C4B43246  29.546  28.175   7.341
 3244POPC   NC343247   0.106  34.024   5.056
 3244POPC   PO443248   0.659  33.727   5.242
 3244POPC   GL143249   0.466  33.857   5.630
 3244POPC   GL243250   0.782  33.888   5.798
 3244POPC   C1A43251   0.150  33.893   5.986
 3244POPC   D2A43252   0.183  33.907   6.461
 3244POPC   C3A43253   0.065  33.806   6.899
 3244POPC   C4A43254   0.212  33.884   7.327
 3244POPC   C1B43255   0.631  33.794   6.190
 3244POPC   C2B43256   0.688  34.003   6.569
 3244POPC   C3B43257   0.588  33.895   6.939
 3244POPC   C4B43258   0.748  33.772   7.286
 3245POPC   NC343259  16.152   5.061   5.262
 3245POPC   PO443260  16.814   5.030   5.388
 3245POPC   GL143261  16.695   5.157   5.839
 3245POPC   GL243262  16.467   5.439   5.807
 3245POPC   C1A43263  16.735   4.968   6.265
 3245POPC   D2A43264  16.992   4.996   6.645
 3245POPC   C3A43265  16.745   4.938   7.012
 3245POPC   C4A43266  16.758   4.740   7.400
 3245POPC   C1B43267  16.554   5.461   6.257
 3245POPC   C2B43268  16.562   5.274   6.655
 3245POPC   C3B43269  16.364   5.428   7.031
 3245POPC   C4B43270  16.588   5.258   7.384
 3246POPC   NC343271  29.283  44.002   5.352
 3246POPC   PO443272  28.682  44.002   5.209
 3246POPC   GL143273  28.926  43.932   5.692
 3246POPC   GL243274  29.210  43.642   5.782
 3246POPC   C1A43275  29.119  44.005   6.129
 3246POPC   D2A43276  28.900  43.954   6.559
 3246POPC   C3A43277  29.129  44.026   6.962
 3246POPC   C4A43278  29.457  43.819   7.184
 3246POPC   C1B43279  29.149  43.493   6.258
 3246POPC   C2B43280  28.828  43.433   6.609
 3246POPC   C3B43281  28.772  43.651   7.013
 3246POPC   C4B43282  28.745  43.675   7.487
 3247POPC   NC343283  38.562  18.317   5.330
 3247POPC   PO443284  38.512  17.887   5.816
 3247POPC   GL143285  38.586  18.331   5.839
 3247POPC   GL243286  38.353  18.589   5.751
 3247POPC   C1A43287  38.690  18.527   6.184
 3247POPC   D2A43288  38.455  18.328   6.525
 3247POPC   C3A43289  38.663  18.370   6.904
 3247POPC   C4A43290  38.812  18.061   7.119
 3247POPC   C1B43291  38.123  18.476   6.131
 3247POPC   C2B43292  37.924  18.458   6.545
 3247POPC   C3B43293  38.172  18.464   6.932
 3247POPC   C4B43294  38.352  18.185   7.312
 3248POPC   NC343295  33.928  32.585   5.430
 3248POPC   PO443296  33.529  32.102   5.511
 3248POPC   GL143297  33.821  32.267   5.822
 3248POPC   GL243298  33.636  32.594   5.867
 3248POPC   C1A43299  33.877  32.325   6.278
 3248POPC   D2A43300  33.577  32.206   6.652
 3248POPC   C3A43301  33.749  32.078   7.065
 3248POPC   C4A43302  34.148  32.252   7.267
 3248POPC   C1B43303  33.506  32.658   6.305
 3248POPC   C2B43304  33.797  32.667   6.645
 3248POPC   C3B43305  33.825  32.563   7.074
 3248POPC   C4B43306  33.850  32.562   7.543
 3249POPC   NC343307  40.224  27.343   5.623
 3249POPC   PO443308  40.340  28.038   5.523
 3249POPC   GL143309  40.249  27.772   5.879
 3249POPC   GL243310  39.909  27.673   5.853
 3249POPC   C1A43311  40.225  27.555   6.266
 3249POPC   D2A43312  40.215  27.776   6.640
 3249POPC   C3A43313  39.971  27.531   6.847
 3249POPC   C4A43314  40.106  27.279   7.160
 3249POPC   C1B43315  39.720  27.514   6.253
 3249POPC   C2B43316  39.489  27.481   6.634
 3249POPC   C3B43317  39.519  27.711   7.013
 3249POPC   C4B43318  39.790  27.644   7.309
 3250POPC   NC343319  41.717  22.778   5.710
 3250POPC   PO443320  41.120  22.737   5.699
 3250POPC   GL143321  41.379  22.962   6.019
 3250POPC   GL243322  41.759  22.830   6.194
 3250POPC   C1A43323  41.379  23.060   6.437
 3250POPC   D2A43324  41.396  23.199   6.825
 3250POPC   C3A43325  41.788  23.123   6.983
 3250POPC   C4A43326  41.955  22.791   7.253
 3250POPC   C1B43327  41.431  22.507   6.232
 3250POPC   C2B43328  41.222  22.587   6.544
 3250POPC   C3B43329  41.503  22.671   6.856
 3250POPC   C4B43330  41.446  22.620   7.271
 3251POPC   NC343331  30.753  22.480   5.471
 3251POPC   PO443332  31.103  21.853   5.329
 3251POPC   GL143333  30.820  21.997   5.713
 3251POPC   GL243334  30.581  21.739   5.879
 3251POPC   C1A43335  30.668  22.238   6.100
 3251POPC   D2A43336  30.418  22.261   6.491
 3251POPC   C3A43337  30.530  22.278   6.929
 3251POPC   C4A43338  30.777  22.317   7.273
 3251POPC   C1B43339  30.623  21.774   6.335
 3251POPC   C2B43340  30.878  22.031   6.623
 3251POPC   C3B43341  30.983  21.915   7.035
 3251POPC   C4B43342  30.760  21.735   7.393
 3252POPC   NC343343  21.738  24.280   5.592
 3252POPC   PO443344  21.162  24.058   5.441
 3252POPC   GL143345  21.214  24.346   5.807
 3252POPC   GL243346  21.507  24.369   6.023
 3252POPC   C1A43347  21.051  24.390   6.244
 3252POPC   D2A43348  21.283  24.443   6.616
 3252POPC   C3A43349  21.140  24.269   6.972
 3252POPC   C4A43350  21.125  24.432   7.383
 3252POPC   C1B43351  21.617  24.682   6.300
 3252POPC   C2B43352  21.606  24.844   6.716
 3252POPC   C3B43353  21.467  24.680   7.083
 3252POPC   C4B43354  21.557  24.634   7.517
 3253POPC   NC343355  44.199   7.647   5.464
 3253POPC   PO443356  43.807   7.089   5.311
 3253POPC   GL143357  43.843   7.361   5.730
 3253POPC   GL243358  43.724   7.713   5.872
 3253POPC   C1A43359  43.964   7.327   6.196
 3253POPC   D2A43360  43.793   7.501   6.595
 3253POPC   C3A43361  43.784   7.295   6.978
 3253POPC   C4A43362  44.150   7.280   7.206
 3253POPC   C1B43363  44.030   7.827   6.227
 3253POPC   C2B43364  44.280   7.694   6.594
 3253POPC   C3B43365  44.053   7.764   6.971
 3253POPC   C4B43366  43.567   7.751   7.030
 3254POPC   NC343367  31.966   0.939   5.367
 3254POPC   PO443368  32.417   1.404   5.338
 3254POPC   GL143369  32.303   1.118   5.721
 3254POPC   GL243370  32.546   0.842   5.680
 3254POPC   C1A43371  32.126   1.078   6.186
 3254POPC   D2A43372  32.002   0.881   6.611
 3254POPC   C3A43373  32.028   1.112   6.977
 3254POPC   C4A43374  31.695   1.380   7.188
 3254POPC   C1B43375  32.566   0.810   6.134
 3254POPC   C2B43376  32.514   1.000   6.542
 3254POPC   C3B43377  32.510   0.878   6.961
 3254POPC   C4B43378  32.404   0.991   7.360
 3255POPC   NC343379  28.378  33.630   5.380
 3255POPC   PO443380  28.687  33.008   5.469
 3255POPC   GL143381  28.443  33.199   5.761
 3255POPC   GL243382  28.675  33.471   5.773
 3255POPC   C1A43383  28.271  33.052   6.138
 3255POPC   D2A43384  28.153  32.862   6.526
 3255POPC   C3A43385  28.072  33.083   6.918
 3255POPC   C4A43386  28.260  32.888   7.264
 3255POPC   C1B43387  28.579  33.498   6.194
 3255POPC   C2B43388  28.437  33.299   6.548
 3255POPC   C3B43389  28.566  33.089   6.867
 3255POPC   C4B43390  28.490  33.393   7.221
 3256POPC   NC343391  13.048  18.238   5.524
 3256POPC   PO443392  12.401  18.155   5.510
 3256POPC   GL143393  12.648  18.377   5.820
 3256POPC   GL243394  12.437  18.643   5.880
 3256POPC   C1A43395  12.951  18.304   6.186
 3256POPC   D2A43396  12.805  18.123   6.595
 3256POPC   C3A43397  12.944  18.175   7.023
 3256POPC   C4A43398  12.980  17.969   7.419
 3256POPC   C1B43399  12.467  18.469   6.306
 3256POPC   C2B43400  12.620  18.580   6.712
 3256POPC   C3B43401  12.452  18.518   7.109
 3256POPC   C4B43402  12.607  18.291   7.429
 3257POPC   NC343403   2.329  44.785   5.317
 3257POPC   PO443404   3.016  44.651   5.312
 3257POPC   GL143405   2.734  44.585   5.667
 3257POPC   GL243406   2.764  44.923   5.732
 3257POPC   C1A43407   2.779  44.481   6.145
 3257POPC   D2A43408   2.488  44.395   6.525
 3257POPC   C3A43409   2.644  44.526   6.944
 3257POPC   C4A43410   2.996  44.538   7.223
 3257POPC   C1B43411   2.653   0.079   6.137
 3257POPC   C2B43412   2.785  44.865   6.530
 3257POPC   C3B43413   2.632   0.054   6.909
 3257POPC   C4B43414   2.810   0.092   7.302
 3258POPC   NC343415  41.347  17.770   5.369
 3258POPC   PO443416  41.368  17.072   5.459
 3258POPC   GL143417  41.406  17.395   5.740
 3258POPC   GL243418  41.086  17.515   5.744
 3258POPC   C1A43419  41.602  17.592   6.106
 3258POPC   D2A43420  41.789  17.430   6.493
 3258POPC   C3A43421  41.662  17.524   6.923
 3258POPC   C4A43422  41.613  17.199   7.233
 3258POPC   C1B43423  41.104  17.405   6.157
 3258POPC   C2B43424  41.275  17.578   6.517
 3258POPC   C3B43425  41.150  17.461   6.902
 3258POPC   C4B43426  41.286  17.637   7.257
 3259POPC   NC343427   7.343  20.516   5.326
 3259POPC   PO443428   7.866  20.832   5.197
 3259POPC   GL143429   7.638  20.669   5.687
 3259POPC   GL243430   7.398  20.427   5.834
 3259POPC   C1A43431   7.542  20.832   6.151
 3259POPC   D2A43432   7.764  20.924   6.556
 3259POPC   C3A43433   7.669  20.927   7.028
 3259POPC   C4A43434   7.692  20.667   7.429
 3259POPC   C1B43435   7.198  20.484   6.245
 3259POPC   C2B43436   7.308  20.658   6.640
 3259POPC   C3B43437   7.395  20.481   7.033
 3259POPC   C4B43438   7.279  20.324   7.426
 3260POPC   NC343439   9.555  41.659   5.511
 3260POPC   PO443440   9.919  41.335   5.091
 3260POPC   GL143441  10.000  41.475   5.606
 3260POPC   GL243442  10.252  41.284   5.841
 3260POPC   C1A43443   9.842  41.523   6.068
 3260POPC   D2A43444   9.767  41.711   6.480
 3260POPC   C3A43445   9.578  41.529   6.883
 3260POPC   C4A43446   9.688  41.662   7.309
 3260POPC   C1B43447  10.211  41.249   6.287
 3260POPC   C2B43448  10.021  41.315   6.666
 3260POPC   C3B43449  10.074  41.491   7.038
 3260POPC   C4B43450  10.054  41.313   7.473
 3261POPC   NC343451  30.160  41.380   5.387
 3261POPC   PO443452  29.751  41.904   5.594
 3261POPC   GL143453  29.982  41.573   5.849
 3261POPC   GL243454  29.965  41.207   5.827
 3261POPC   C1A43455  30.034  41.471   6.278
 3261POPC   D2A43456  29.922  41.776   6.535
 3261POPC   C3A43457  30.004  41.788   6.946
 3261POPC   C4A43458  30.276  41.605   7.197
 3261POPC   C1B43459  29.632  41.182   6.143
 3261POPC   C2B43460  29.444  41.310   6.518
 3261POPC   C3B43461  29.513  41.365   6.925
 3261POPC   C4B43462  29.844  41.335   7.150
 3262POPC   NC343463   7.573  19.545   5.390
 3262POPC   PO443464   7.593  20.143   5.419
 3262POPC   GL143465   7.382  19.924   5.738
 3262POPC   GL243466   7.676  19.983   5.915
 3262POPC   C1A43467   7.240  19.990   6.192
 3262POPC   D2A43468   7.386  20.147   6.618
 3262POPC   C3A43469   7.372  19.964   7.045
 3262POPC   C4A43470   7.144  19.619   7.228
 3262POPC   C1B43471   7.705  19.828   6.323
 3262POPC   C2B43472   7.452  19.626   6.634
 3262POPC   C3B43473   7.605  19.506   7.029
 3262POPC   C4B43474   7.877  19.726   7.308
 3263POPC   NC343475  38.469  27.629   5.400
 3263POPC   PO443476  39.035  27.246   5.498
 3263POPC   GL143477  38.872  27.532   5.865
 3263POPC   GL243478  38.549  27.764   5.888
 3263POPC   C1A43479  38.563  27.371   6.205
 3263POPC   D2A43480  38.355  27.288   6.619
 3263POPC   C3A43481  38.602  27.508   6.927
 3263POPC   C4A43482  38.746  27.536   7.338
 3263POPC   C1B43483  38.305  27.818   6.318
 3263POPC   C2B43484  38.167  27.739   6.781
 3263POPC   C3B43485  38.201  27.601   7.237
 3263POPC   C4B43486  38.245  27.834   7.612
 3264POPC   NC343487  41.045  21.612   5.357
 3264POPC   PO443488  40.746  21.029   5.549
 3264POPC   GL143489  40.701  21.188   5.965
 3264POPC   GL243490  40.517  21.512   5.944
 3264POPC   C1A43491  40.798  20.995   6.382
 3264POPC   D2A43492  41.118  21.128   6.712
 3264POPC   C3A43493  40.942  21.148   7.147
 3264POPC   C4A43494  40.910  21.247   7.591
 3264POPC   C1B43495  40.433  21.402   6.372
 3264POPC   C2B43496  40.606  21.283   6.775
 3264POPC   C3B43497  40.606  21.523   7.151
 3264POPC   C4B43498  40.383  21.856   7.383
 3265POPC   NC343499  25.826  43.523   5.205
 3265POPC   PO443500  26.309  43.906   4.973
 3265POPC   GL143501  26.242  43.861   5.554
 3265POPC   GL243502  26.094  43.534   5.772
 3265POPC   C1A43503  26.149  43.996   6.055
 3265POPC   D2A43504  25.900  43.999   6.490
 3265POPC   C3A43505  26.096  44.027   6.923
 3265POPC   C4A43506  26.100  44.178   7.352
 3265POPC   C1B43507  25.797  43.604   6.155
 3265POPC   C2B43508  25.548  43.611   6.552
 3265POPC   C3B43509  25.710  43.675   6.947
 3265POPC   C4B43510  26.006  43.615   7.279
 3266POPC   NC343511  20.503  43.437   5.560
 3266POPC   PO443512  20.758  44.114   5.494
 3266POPC   GL143513  20.706  43.826   5.853
 3266POPC   GL243514  20.349  43.777   5.918
 3266POPC   C1A43515  20.691  43.633   6.293
 3266POPC   D2A43516  20.937  43.654   6.701
 3266POPC   C3A43517  20.860  43.756   7.182
 3266POPC   C4A43518  20.695  43.875   7.656
 3266POPC   C1B43519  20.299  44.040   6.275
 3266POPC   C2B43520  20.531  44.274   6.585
 3266POPC   C3B43521  20.704  44.200   7.008
 3266POPC   C4B43522  20.406  44.064   7.303
 3267POPC   NC343523  20.502  28.540   5.172
 3267POPC   PO443524  20.814  27.959   5.355
 3267POPC   GL143525  20.670  28.319   5.661
 3267POPC   GL243526  20.450  28.646   5.669
 3267POPC   C1A43527  20.753  28.500   6.087
 3267POPC   D2A43528  20.722  28.277   6.485
 3267POPC   C3A43529  20.883  28.405   6.881
 3267POPC   C4A43530  20.686  28.331   7.299
 3267POPC   C1B43531  20.323  28.743   6.092
 3267POPC   C2B43532  20.551  28.787   6.532
 3267POPC   C3B43533  20.446  28.635   6.992
 3267POPC   C4B43534  20.373  28.654   7.519
 3268POPC   NC343535  13.044  15.817   5.427
 3268POPC   PO443536  12.589  16.278   5.352
 3268POPC   GL143537  12.833  16.239   5.729
 3268POPC   GL243538  12.701  15.977   5.906
 3268POPC   C1A43539  12.913  16.364   6.177
 3268POPC   D2A43540  13.056  16.209   6.596
 3268POPC   C3A43541  12.792  16.135   6.956
 3268POPC   C4A43542  12.958  16.093   7.364
 3268POPC   C1B43543  12.916  15.827   6.269
 3268POPC   C2B43544  12.819  15.700   6.691
 3268POPC   C3B43545  12.873  15.636   7.145
 3268POPC   C4B43546  13.042  15.348   7.462
 3269POPC   NC343547  38.743  36.579   5.486
 3269POPC   PO443548  38.086  36.783   5.191
 3269POPC   GL143549  38.332  36.921   5.615
 3269POPC   GL243550  38.400  36.665   5.869
 3269POPC   C1A43551  38.551  37.121   6.027
 3269POPC   D2A43552  38.530  37.207   6.500
 3269POPC   C3A43553  38.675  37.047   6.935
 3269POPC   C4A43554  38.518  37.133   7.354
 3269POPC   C1B43555  38.245  36.785   6.307
 3269POPC   C2B43556  38.286  36.724   6.767
 3269POPC   C3B43557  38.396  36.671   7.205
 3269POPC   C4B43558  38.525  36.651   7.650
 3270POPC   NC343559  12.139  16.243   5.421
 3270POPC   PO443560  11.775  15.701   5.413
 3270POPC   GL143561  11.952  15.930   5.799
 3270POPC   GL243562  12.239  15.754   5.929
 3270POPC   C1A43563  11.971  16.018   6.274
 3270POPC   D2A43564  11.824  15.985   6.690
 3270POPC   C3A43565  12.003  15.838   7.064
 3270POPC   C4A43566  11.766  15.939   7.440
 3270POPC   C1B43567  12.410  15.815   6.371
 3270POPC   C2B43568  12.317  15.600   6.730
 3270POPC   C3B43569  12.374  15.494   7.148
 3270POPC   C4B43570  12.461  15.917   7.316
 3271POPC   NC343571  18.533  28.801   5.372
 3271POPC   PO443572  18.591  29.537   5.331
 3271POPC   GL143573  18.345  29.415   5.744
 3271POPC   GL243574  18.334  29.034   5.812
 3271POPC   C1A43575  18.013  29.321   6.108
 3271POPC   D2A43576  17.913  29.060   6.484
 3271POPC   C3A43577  17.984  29.189   6.924
 3271POPC   C4A43578  17.922  28.962   7.315
 3271POPC   C1B43579  18.422  29.070   6.265
 3271POPC   C2B43580  18.323  28.827   6.635
 3271POPC   C3B43581  18.341  28.857   7.046
 3271POPC   C4B43582  18.347  29.248   7.270
 3272POPC   NC343583  32.489  33.204   5.490
 3272POPC   PO443584  32.045  32.712   5.506
 3272POPC   GL143585  32.137  33.055   5.815
 3272POPC   GL243586  32.453  32.923   5.919
 3272POPC   C1A43587  32.122  33.239   6.223
 3272POPC   D2A43588  32.141  33.066   6.629
 3272POPC   C3A43589  31.914  33.291   6.921
 3272POPC   C4A43590  32.128  33.455   7.284
 3272POPC   C1B43591  32.142  32.726   6.203
 3272POPC   C2B43592  32.210  32.559   6.594
 3272POPC   C3B43593  32.487  32.746   6.877
 3272POPC   C4B43594  32.257  32.986   7.172
 3273POPC   NC343595   2.952  37.544   5.270
 3273POPC   PO443596   2.334  37.907   5.380
 3273POPC   GL143597   2.471  37.727   5.801
 3273POPC   GL243598   2.582  37.382   5.756
 3273POPC   C1A43599   2.771  37.731   6.189
 3273POPC   D2A43600   3.067  37.524   6.528
 3273POPC   C3A43601   2.902  37.690   6.934
 3273POPC   C4A43602   2.524  37.989   6.999
 3273POPC   C1B43603   2.750  37.224   6.171
 3273POPC   C2B43604   2.604  37.362   6.603
 3273POPC   C3B43605   2.680  37.207   7.008
 3273POPC   C4B43606   2.670  37.214   7.461
 3274POPC   NC343607   5.876  34.719   5.093
 3274POPC   PO443608   6.238  34.985   5.618
 3274POPC   GL143609   6.022  34.535   5.805
 3274POPC   GL243610   5.655  34.518   5.906
 3274POPC   C1A43611   5.943  34.320   6.251
 3274POPC   D2A43612   5.816  34.640   6.577
 3274POPC   C3A43613   5.980  34.663   6.998
 3274POPC   C4A43614   5.855  34.325   7.240
 3274POPC   C1B43615   5.473  34.790   6.190
 3274POPC   C2B43616   5.327  34.804   6.593
 3274POPC   C3B43617   5.543  34.971   6.920
 3274POPC   C4B43618   5.559  34.751   7.317
 3275POPC   NC343619  19.222   0.688   5.382
 3275POPC   PO443620  19.913   0.444   5.354
 3275POPC   GL143621  19.691   0.408   5.721
 3275POPC   GL243622  19.568   0.701   5.800
 3275POPC   C1A43623  19.814   0.401   6.162
 3275POPC   D2A43624  19.703   0.224   6.567
 3275POPC   C3A43625  19.900   0.361   6.949
 3275POPC   C4A43626  19.842   0.183   7.351
 3275POPC   C1B43627  19.466   0.785   6.212
 3275POPC   C2B43628  19.744   0.735   6.569
 3275POPC   C3B43629  19.498   0.675   6.927
 3275POPC   C4B43630  19.319   0.936   7.233
 3276POPC   NC343631  20.527   7.975   5.346
 3276POPC   PO443632  20.960   8.389   5.296
 3276POPC   GL143633  20.690   8.373   5.650
 3276POPC   GL243634  20.602   8.027   5.829
 3276POPC   C1A43635  20.701   8.610   6.057
 3276POPC   D2A43636  20.814   8.391   6.451
 3276POPC   C3A43637  20.714   8.447   6.897
 3276POPC   C4A43638  20.855   8.671   7.251
 3276POPC   C1B43639  20.722   7.835   6.223
 3276POPC   C2B43640  20.749   7.932   6.675
 3276POPC   C3B43641  20.601   7.850   7.083
 3276POPC   C4B43642  20.590   8.196   7.335
 3277POPC   NC343643   1.184  21.172   5.347
 3277POPC   PO443644   1.759  21.446   5.187
 3277POPC   GL143645   1.509  21.371   5.682
 3277POPC   GL243646   1.197  21.583   5.702
 3277POPC   C1A43647   1.196  21.280   6.104
 3277POPC   D2A43648   1.214  21.124   6.574
 3277POPC   C3A43649   1.021  21.222   7.001
 3277POPC   C4A43650   1.176  21.235   7.443
 3277POPC   C1B43651   1.453  21.715   6.117
 3277POPC   C2B43652   1.237  21.767   6.503
 3277POPC   C3B43653   1.296  21.662   6.937
 3277POPC   C4B43654   0.972  21.664   7.273
 3278POPC   NC343655  14.924  19.807   5.452
 3278POPC   PO443656  15.558  19.516   5.427
 3278POPC   GL143657  15.364  19.846   5.775
 3278POPC   GL243658  15.008  19.791   5.946
 3278POPC   C1A43659  15.379  20.020   6.228
 3278POPC   D2A43660  15.357  19.810   6.640
 3278POPC   C3A43661  15.200  19.966   7.034
 3278POPC   C4A43662  15.263  19.833   7.453
 3278POPC   C1B43663  14.866  19.940   6.325
 3278POPC   C2B43664  14.820  19.793   6.732
 3278POPC   C3B43665  14.774  19.576   7.085
 3278POPC   C4B43666  14.774  19.675   7.534
 3279POPC   NC343667  16.411  25.538   5.317
 3279POPC   PO443668  16.814  24.990   5.204
 3279POPC   GL143669  16.800  25.147   5.660
 3279POPC   GL243670  16.913  24.825   5.802
 3279POPC   C1A43671  16.602  25.364   6.061
 3279POPC   D2A43672  16.601  25.608   6.452
 3279POPC   C3A43673  16.544  25.391   6.829
 3279POPC   C4A43674  16.673  25.325   7.227
 3279POPC   C1B43675  16.696  24.884   6.190
 3279POPC   C2B43676  16.491  24.956   6.560
 3279POPC   C3B43677  16.719  24.915   6.917
 3279POPC   C4B43678  16.651  24.710   7.257
 3280POPC   NC343679  43.688  40.086   5.402
 3280POPC   PO443680  44.370  40.231   5.318
 3280POPC   GL143681  44.099  40.047   5.707
 3280POPC   GL243682  43.945  40.306   5.927
 3280POPC   C1A43683  44.090  39.778   6.119
 3280POPC   D2A43684  44.036  39.872   6.578
 3280POPC   C3A43685  44.245  39.795   6.970
 3280POPC   C4A43686  44.288  40.213   7.073
 3280POPC   C1B43687  43.711  40.138   6.306
 3280POPC   C2B43688  43.540  39.800   6.587
 3280POPC   C3B43689  43.731  39.786   7.000
 3280POPC   C4B43690  43.540  40.008   7.304
 3281POPC   NC343691   4.967  25.909   5.512
 3281POPC   PO443692   4.939  25.262   5.163
 3281POPC   GL143693   5.155  25.364   5.588
 3281POPC   GL243694   5.274  25.030   5.719
 3281POPC   C1A43695   5.296  25.440   6.044
 3281POPC   D2A43696   5.111  25.379   6.444
 3281POPC   C3A43697   5.267  25.319   6.839
 3281POPC   C4A43698   5.089  25.458   7.215
 3281POPC   C1B43699   5.035  24.983   6.132
 3281POPC   C2B43700   4.967  24.924   6.611
 3281POPC   C3B43701   4.956  24.959   7.048
 3281POPC   C4B43702   5.022  25.006   7.483
 3282POPC   NC343703  42.736  36.082   5.068
 3282POPC   PO443704  42.192  36.179   5.487
 3282POPC   GL143705  42.234  36.290   5.884
 3282POPC   GL243706  41.892  36.396   5.919
 3282POPC   C1A43707  42.454  36.153   6.256
 3282POPC   D2A43708  42.531  35.958   6.663
 3282POPC   C3A43709  42.744  36.001   7.049
 3282POPC   C4A43710  42.527  36.151   7.381
 3282POPC   C1B43711  41.962  36.507   6.308
 3282POPC   C2B43712  42.282  36.487   6.626
 3282POPC   C3B43713  42.227  36.237   6.969
 3282POPC   C4B43714  41.876  36.308   7.213
 3283POPC   NC343715   9.162  13.141   5.238
 3283POPC   PO443716   8.770  12.661   5.501
 3283POPC   GL143717   9.021  12.855   5.780
 3283POPC   GL243718   9.000  12.563   6.000
 3283POPC   C1A43719   9.161  12.994   6.189
 3283POPC   D2A43720   8.894  13.058   6.542
 3283POPC   C3A43721   8.985  12.889   6.957
 3283POPC   C4A43722   9.143  13.127   7.307
 3283POPC   C1B43723   8.686  12.627   6.343
 3283POPC   C2B43724   8.457  12.774   6.707
 3283POPC   C3B43725   8.419  12.538   7.071
 3283POPC   C4B43726   8.822  12.443   7.223
 3284POPC   NC343727   2.108  34.180   5.366
 3284POPC   PO443728   1.840  34.771   5.268
 3284POPC   GL143729   2.063  34.619   5.658
 3284POPC   GL243730   1.802  34.372   5.764
 3284POPC   C1A43731   2.155  34.486   6.109
 3284POPC   D2A43732   2.046  34.669   6.523
 3284POPC   C3A43733   2.212  34.493   6.893
 3284POPC   C4A43734   2.129  34.679   7.257
 3284POPC   C1B43735   1.647  34.658   6.114
 3284POPC   C2B43736   1.523  34.677   6.571
 3284POPC   C3B43737   1.694  34.776   6.991
 3284POPC   C4B43738   1.667  34.587   7.436
 3285POPC   NC343739  32.378  13.770   5.552
 3285POPC   PO443740  31.722  13.525   5.741
 3285POPC   GL143741  32.098  13.508   5.918
 3285POPC   GL243742  32.087  13.874   5.976
 3285POPC   C1A43743  32.421  13.362   6.227
 3285POPC   D2A43744  32.690  13.347   6.615
 3285POPC   C3A43745  32.471  13.254   6.985
 3285POPC   C4A43746  32.208  13.498   7.256
 3285POPC   C1B43747  32.003  13.663   6.374
 3285POPC   C2B43748  32.231  13.688   6.766
 3285POPC   C3B43749  32.301  13.978   7.126
 3285POPC   C4B43750  32.097  13.948   7.532
 3286POPC   NC343751  41.506   1.158   5.381
 3286POPC   PO443752  42.119   1.449   5.333
 3286POPC   GL143753  41.850   1.321   5.727
 3286POPC   GL243754  41.793   0.960   5.829
 3286POPC   C1A43755  41.490   1.275   6.066
 3286POPC   D2A43756  41.465   0.981   6.422
 3286POPC   C3A43757  41.430   1.049   6.897
 3286POPC   C4A43758  41.288   1.371   7.222
 3286POPC   C1B43759  41.977   1.154   6.204
 3286POPC   C2B43760  41.959   1.146   6.651
 3286POPC   C3B43761  41.861   1.268   7.095
 3286POPC   C4B43762  41.617   1.041   7.426
 3287POPC   NC343763   2.473  15.469   5.474
 3287POPC   PO443764   2.850  16.032   5.235
 3287POPC   GL143765   2.803  15.849   5.622
 3287POPC   GL243766   2.448  15.959   5.627
 3287POPC   C1A43767   2.896  15.844   6.071
 3287POPC   D2A43768   2.973  15.931   6.512
 3287POPC   C3A43769   3.018  15.643   6.852
 3287POPC   C4A43770   3.189  15.749   7.255
 3287POPC   C1B43771   2.503  16.178   6.014
 3287POPC   C2B43772   2.472  15.987   6.408
 3287POPC   C3B43773   2.489  16.086   6.832
 3287POPC   C4B43774   2.709  15.936   7.188
 3288POPC   NC343775  24.739  30.358   5.257
 3288POPC   PO443776  24.267  30.778   5.364
 3288POPC   GL143777  24.605  30.704   5.656
 3288POPC   GL243778  24.396  30.804   5.910
 3288POPC   C1A43779  24.769  30.506   6.064
 3288POPC   D2A43780  24.620  30.305   6.462
 3288POPC   C3A43781  24.506  30.608   6.801
 3288POPC   C4A43782  24.632  30.723   7.205
 3288POPC   C1B43783  24.334  30.727   6.326
 3288POPC   C2B43784  24.106  30.968   6.590
 3288POPC   C3B43785  24.222  31.087   6.961
 3288POPC   C4B43786  24.162  30.874   7.330
 3289POPC   NC343787   9.006  20.737   5.251
 3289POPC   PO443788   8.470  20.532   5.357
 3289POPC   GL143789   8.716  20.767   5.699
 3289POPC   GL243790   9.088  20.755   5.821
 3289POPC   C1A43791   8.707  20.790   6.182
 3289POPC   D2A43792   8.740  20.982   6.640
 3289POPC   C3A43793   8.794  20.693   7.000
 3289POPC   C4A43794   9.165  20.705   7.262
 3289POPC   C1B43795   9.191  20.625   6.292
 3289POPC   C2B43796   9.292  20.508   6.772
 3289POPC   C3B43797   9.279  20.232   7.173
 3289POPC   C4B43798   9.276  20.353   7.647
 3290POPC   NC343799  16.461   6.443   5.627
 3290POPC   PO443800  15.818   6.480   5.400
 3290POPC   GL143801  15.964   6.391   5.766
 3290POPC   GL243802  15.966   6.763   5.806
 3290POPC   C1A43803  16.147   6.419   6.179
 3290POPC   D2A43804  15.986   6.593   6.531
 3290POPC   C3A43805  15.920   6.388   6.918
 3290POPC   C4A43806  15.756   6.567   7.289
 3290POPC   C1B43807  16.239   6.929   6.064
 3290POPC   C2B43808  16.242   7.053   6.499
 3290POPC   C3B43809  16.231   6.851   6.894
 3290POPC   C4B43810  16.053   6.962   7.269
 3291POPC   NC343811  38.793  11.137   5.585
 3291POPC   PO443812  39.457  11.499   5.481
 3291POPC   GL143813  39.148  11.516   5.815
 3291POPC   GL243814  39.413  11.566   6.037
 3291POPC   C1A43815  38.980  11.359   6.228
 3291POPC   D2A43816  39.093  11.245   6.672
 3291POPC   C3A43817  39.078  11.474   7.057
 3291POPC   C4A43818  39.018  11.163   7.371
 3291POPC   C1B43819  39.473  11.220   6.345
 3291POPC   C2B43820  39.645  11.098   6.713
 3291POPC   C3B43821  39.468  11.106   7.113
 3291POPC   C4B43822  39.462  11.439   7.455
 3292POPC   NC343823  27.201  30.974   5.247
 3292POPC   PO443824  26.626  30.569   5.402
 3292POPC   GL143825  26.688  30.856   5.713
 3292POPC   GL243826  27.052  30.910   5.783
 3292POPC   C1A43827  26.641  30.917   6.144
 3292POPC   D2A43828  26.745  30.597   6.461
 3292POPC   C3A43829  26.651  30.731   6.871
 3292POPC   C4A43830  26.412  30.760   7.236
 3292POPC   C1B43831  27.172  30.845   6.244
 3292POPC   C2B43832  27.187  30.668   6.705
 3292POPC   C3B43833  27.074  30.649   7.160
 3292POPC   C4B43834  26.867  30.992   7.392
 3293POPC   NC343835   9.406  10.124   5.474
 3293POPC   PO443836   9.770  10.594   5.148
 3293POPC   GL143837   9.721  10.540   5.620
 3293POPC   GL243838   9.738  10.869   5.777
 3293POPC   C1A43839   9.786  10.469   6.112
 3293POPC   D2A43840   9.864  10.254   6.552
 3293POPC   C3A43841   9.864  10.423   7.012
 3293POPC   C4A43842  10.113  10.674   7.282
 3293POPC   C1B43843   9.856  11.028   6.144
 3293POPC   C2B43844   9.972  10.819   6.474
 3293POPC   C3B43845   9.934  10.915   6.880
 3293POPC   C4B43846   9.629  10.875   7.242
 3294POPC   NC343847  23.747  20.515   5.436
 3294POPC   PO443848  23.153  20.639   5.436
 3294POPC   GL143849  23.421  20.612   5.833
 3294POPC   GL243850  23.677  20.870   5.861
 3294POPC   C1A43851  23.736  20.477   6.217
 3294POPC   D2A43852  23.947  20.357   6.630
 3294POPC   C3A43853  23.619  20.266   6.931
 3294POPC   C4A43854  23.475  20.571   7.231
 3294POPC   C1B43855  23.391  20.861   6.259
 3294POPC   C2B43856  23.534  20.719   6.696
 3294POPC   C3B43857  23.900  20.728   7.001
 3294POPC   C4B43858  23.968  20.968   7.376
 3295POPC   NC343859  22.697  27.882   5.434
 3295POPC   PO443860  22.958  27.278   5.477
 3295POPC   GL143861  22.731  27.508   5.788
 3295POPC   GL243862  22.999  27.723   5.884
 3295POPC   C1A43863  22.619  27.618   6.210
 3295POPC   D2A43864  22.942  27.681   6.505
 3295POPC   C3A43865  22.948  27.386   6.804
 3295POPC   C4A43866  22.693  27.520   7.098
 3295POPC   C1B43867  23.201  27.995   6.197
 3295POPC   C2B43868  23.295  28.101   6.620
 3295POPC   C3B43869  23.017  27.969   6.957
 3295POPC   C4B43870  23.189  27.638   7.183
 3296POPC   NC343871  40.441  28.431   5.740
 3296POPC   PO443872  40.985  28.743   5.523
 3296POPC   GL143873  40.940  28.365   5.810
 3296POPC   GL243874  41.117  28.120   5.626
 3296POPC   C1A43875  40.817  28.336   6.278
 3296POPC   D2A43876  40.732  28.561   6.663
 3296POPC   C3A43877  40.822  28.414   7.082
 3296POPC   C4A43878  40.986  28.681   7.434
 3296POPC   C1B43879  41.186  28.014   6.104
 3296POPC   C2B43880  41.050  27.908   6.545
 3296POPC   C3B43881  40.876  27.908   6.981
 3296POPC   C4B43882  40.847  28.030   7.427
 3297POPC   NC343883  44.720  28.658   5.571
 3297POPC   PO443884  44.520  28.015   5.310
 3297POPC   GL143885  44.346  28.261   5.764
 3297POPC   GL243886  44.562  28.498   6.021
 3297POPC   C1A43887  44.176  28.333   6.256
 3297POPC   D2A43888  44.376  28.659   6.584
 3297POPC   C3A43889  44.479  28.593   7.051
 3297POPC   C4A43890  44.698  28.677   7.488
 3297POPC   C1B43891  44.700  28.282   6.406
 3297POPC   C2B43892  44.884  28.404   6.789
 3297POPC   C3B43893  44.849  28.293   7.190
 3297POPC   C4B43894  44.489  28.096   7.256
 3298POPC   NC343895  40.255  24.662   5.445
 3298POPC   PO443896  40.177  24.021   5.556
 3298POPC   GL143897  40.229  24.322   5.849
 3298POPC   GL243898  39.979  24.601   5.870
 3298POPC   C1A43899  40.274  24.502   6.257
 3298POPC   D2A43900  40.295  24.826   6.565
 3298POPC   C3A43901  40.168  24.540   6.882
 3298POPC   C4A43902  40.301  24.322   7.265
 3298POPC   C1B43903  39.760  24.217   6.042
 3298POPC   C2B43904  39.619  24.182   6.468
 3298POPC   C3B43905  39.561  24.204   6.889
 3298POPC   C4B43906  39.803  24.375   7.193
 3299POPC   NC343907  43.249  43.430   5.432
 3299POPC   PO443908  43.446  42.775   5.522
 3299POPC   GL143909  43.326  43.027   5.863
 3299POPC   GL243910  43.021  43.178   5.814
 3299POPC   C1A43911  43.223  43.032   6.316
 3299POPC   D2A43912  43.181  42.937   6.784
 3299POPC   C3A43913  43.240  43.126   7.183
 3299POPC   C4A43914  43.232  43.042   7.634
 3299POPC   C1B43915  42.787  43.296   6.183
 3299POPC   C2B43916  42.721  43.172   6.609
 3299POPC   C3B43917  42.750  43.294   7.043
 3299POPC   C4B43918  42.777  43.140   7.478
 3300POPC   NC343919  42.320  29.248   5.493
 3300POPC   PO443920  41.754  28.800   5.469
 3300POPC   GL143921  42.047  28.916   5.817
 3300POPC   GL243922  42.430  28.836   5.799
 3300POPC   C1A43923  42.171  29.255   6.126
 3300POPC   D2A43924  42.031  29.517   6.489
 3300POPC   C3A43925  41.958  29.317   6.888
 3300POPC   C4A43926  42.145  29.412   7.303
 3300POPC   C1B43927  42.622  28.995   6.177
 3300POPC   C2B43928  42.387  29.020   6.550
 3300POPC   C3B43929  42.416  29.118   6.956
 3300POPC   C4B43930  42.627  29.175   7.298
 3301POPC   NC343931   7.112  11.875   5.432
 3301POPC   PO443932   7.742  12.124   5.631
 3301POPC   GL143933   7.398  11.917   5.843
 3301POPC   GL243934   7.363  12.196   6.059
 3301POPC   C1A43935   7.204  11.765   6.241
 3301POPC   D2A43936   7.412  11.834   6.621
 3301POPC   C3A43937   7.221  11.993   6.968
 3301POPC   C4A43938   7.445  11.752   7.208
 3301POPC   C1B43939   7.718  12.392   6.256
 3301POPC   C2B43940   7.865  12.373   6.664
 3301POPC   C3B43941   7.731  12.110   6.958
 3301POPC   C4B43942   7.605  12.193   7.336
 3302POPC   NC343943   0.061   7.535   5.493
 3302POPC   PO443944  44.463   7.225   5.525
 3302POPC   GL143945  44.666   7.414   5.843
 3302POPC   GL243946   0.009   7.250   5.930
 3302POPC   C1A43947  44.543   7.336   6.259
 3302POPC   D2A43948  44.726   7.117   6.603
 3302POPC   C3A43949  44.613   7.347   6.959
 3302POPC   C4A43950  44.764   7.413   7.345
 3302POPC   C1B43951  44.979   7.622   6.188
 3302POPC   C2B43952  44.833   7.617   6.579
 3302POPC   C3B43953   0.075   7.601   6.946
 3302POPC   C4B43954   0.073   7.846   7.285
 3303POPC   NC343955  37.783  41.998   5.378
 3303POPC   PO443956  37.970  41.341   5.351
 3303POPC   GL143957  37.685  41.490   5.709
 3303POPC   GL243958  37.838  41.796   5.848
 3303POPC   C1A43959  37.475  41.576   6.132
 3303POPC   D2A43960  37.663  41.673   6.527
 3303POPC   C3A43961  37.523  41.405   6.848
 3303POPC   C4A43962  37.532  41.492   7.237
 3303POPC   C1B43963  38.090  41.837   6.218
 3303POPC   C2B43964  38.049  42.042   6.649
 3303POPC   C3B43965  37.851  41.803   7.003
 3303POPC   C4B43966  37.823  41.816   7.487
 3304POPC   NC343967  14.036  23.187   5.241
 3304POPC   PO443968  13.417  23.112   5.101
 3304POPC   GL143969  13.583  22.994   5.534
 3304POPC   GL243970  13.287  22.848   5.704
 3304POPC   C1A43971  13.770  22.961   5.993
 3304POPC   D2A43972  13.731  22.915   6.472
 3304POPC   C3A43973  13.843  23.133   6.882
 3304POPC   C4A43974  14.090  22.908   7.198
 3304POPC   C1B43975  13.297  22.921   6.168
 3304POPC   C2B43976  13.249  22.805   6.608
 3304POPC   C3B43977  13.324  23.018   6.972
 3304POPC   C4B43978  13.457  23.230   7.336
 3305POPC   NC343979  38.936  25.381   5.064
 3305POPC   PO443980  38.379  25.336   5.459
 3305POPC   GL143981  38.516  25.140   5.804
 3305POPC   GL243982  38.835  24.985   5.779
 3305POPC   C1A43983  38.471  25.149   6.226
 3305POPC   D2A43984  38.410  25.417   6.576
 3305POPC   C3A43985  38.207  25.299   6.958
 3305POPC   C4A43986  38.406  25.384   7.317
 3305POPC   C1B43987  38.874  24.824   6.237
 3305POPC   C2B43988  38.642  24.884   6.649
 3305POPC   C3B43989  38.604  24.946   7.114
 3305POPC   C4B43990  38.558  24.984   7.589
 3306POPC   NC343991  26.296  12.630   5.495
 3306POPC   PO443992  25.683  12.868   5.411
 3306POPC   GL143993  25.877  12.738   5.803
 3306POPC   GL243994  25.787  13.060   5.918
 3306POPC   C1A43995  25.995  12.541   6.215
 3306POPC   D2A43996  25.927  12.419   6.653
 3306POPC   C3A43997  26.006  12.727   6.970
 3306POPC   C4A43998  26.122  12.761   7.386
 3306POPC   C1B43999  26.033  13.054   6.303
 3306POPC   C2B44000  26.120  13.169   6.744
 3306POPC   C3B44001  25.913  13.203   7.169
 3306POPC   C4B44002  25.864  13.132   7.638
 3307POPC   NC344003  40.203  36.577   5.300
 3307POPC   PO444004  39.580  36.207   5.308
 3307POPC   GL144005  39.960  36.255   5.647
 3307POPC   GL244006  40.017  35.929   5.825
 3307POPC   C1A44007  39.935  36.351   6.127
 3307POPC   D2A44008  39.987  36.161   6.592
 3307POPC   C3A44009  39.828  36.383   7.014
 3307POPC   C4A44010  40.147  36.600   7.297
 3307POPC   C1B44011  40.140  35.717   6.228
 3307POPC   C2B44012  40.240  35.573   6.656
 3307POPC   C3B44013  40.118  35.681   7.084
 3307POPC   C4B44014  40.147  36.088   7.236
 3308POPC   NC344015   0.740  11.050   5.472
 3308POPC   PO444016   0.167  11.337   5.369
 3308POPC   GL144017   0.314  11.202   5.743
 3308POPC   GL244018   0.568  11.463   5.742
 3308POPC   C1A44019   0.426  11.200   6.179
 3308POPC   D2A44020   0.297  11.470   6.518
 3308POPC   C3A44021   0.253  11.268   6.927
 3308POPC   C4A44022   0.134  11.439   7.308
 3308POPC   C1B44023   0.804  11.574   6.093
 3308POPC   C2B44024   0.903  11.648   6.504
 3308POPC   C3B44025   0.688  11.554   6.855
 3308POPC   C4B44026   0.768  11.592   7.264
 3309POPC   NC344027  10.782  13.062   4.993
 3309POPC   PO444028  10.364  12.761   5.412
 3309POPC   GL144029  10.565  12.768   5.758
 3309POPC   GL244030  10.292  12.645   5.919
 3309POPC   C1A44031  10.820  12.832   6.102
 3309POPC   D2A44032  10.664  12.909   6.512
 3309POPC   C3A44033  10.648  12.763   6.913
 3309POPC   C4A44034  10.575  12.946   7.275
 3309POPC   C1B44035  10.212  12.878   6.275
 3309POPC   C2B44036  10.172  12.783   6.699
 3309POPC   C3B44037  10.094  12.958   7.101
 3309POPC   C4B44038  10.112  12.885   7.521
 3310POPC   NC344039  35.626  34.224   5.324
 3310POPC   PO444040  35.463  34.874   5.404
 3310POPC   GL144041  35.180  34.664   5.706
 3310POPC   GL244042  35.205  34.298   5.765
 3310POPC   C1A44043  35.105  34.653   6.162
 3310POPC   D2A44044  35.149  34.553   6.619
 3310POPC   C3A44045  35.320  34.876   6.889
 3310POPC   C4A44046  35.490  34.940   7.312
 3310POPC   C1B44047  35.466  34.267   6.161
 3310POPC   C2B44048  35.702  34.207   6.568
 3310POPC   C3B44049  35.558  34.420   6.973
 3310POPC   C4B44050  35.189  34.509   7.231
 3311POPC   NC344051  25.259  34.562   5.246
 3311POPC   PO444052  25.884  34.611   5.478
 3311POPC   GL144053  25.466  34.518   5.747
 3311POPC   GL244054  25.159  34.769   5.699
 3311POPC   C1A44055  25.230  34.551   6.188
 3311POPC   D2A44056  25.343  34.674   6.631
 3311POPC   C3A44057  25.121  34.558   7.021
 3311POPC   C4A44058  25.284  34.492   7.432
 3311POPC   C1B44059  24.840  34.888   6.032
 3311POPC   C2B44060  24.937  34.988   6.505
 3311POPC   C3B44061  24.791  34.941   6.969
 3311POPC   C4B44062  24.849  34.750   7.435
 3312POPC   NC344063   9.111  34.922   5.385
 3312POPC   PO444064   9.121  35.563   5.267
 3312POPC   GL144065   8.904  35.399   5.673
 3312POPC   GL244066   8.720  35.047   5.698
 3312POPC   C1A44067   8.977  35.519   6.131
 3312POPC   D2A44068   8.702  35.528   6.506
 3312POPC   C3A44069   8.762  35.574   6.950
 3312POPC   C4A44070   9.043  35.441   7.298
 3312POPC   C1B44071   9.006  35.001   6.037
 3312POPC   C2B44072   9.028  35.109   6.451
 3312POPC   C3B44073   9.061  35.123   6.871
 3312POPC   C4B44074   9.309  35.035   7.182
 3313POPC   NC344075  32.876  20.876   5.612
 3313POPC   PO444076  32.722  21.520   5.383
 3313POPC   GL144077  33.011  21.359   5.783
 3313POPC   GL244078  32.881  21.101   6.073
 3313POPC   C1A44079  33.307  21.347   6.178
 3313POPC   D2A44080  33.126  21.217   6.608
 3313POPC   C3A44081  33.203  21.410   7.015
 3313POPC   C4A44082  32.969  21.737   7.187
 3313POPC   C1B44083  32.841  21.520   6.282
 3313POPC   C2B44084  32.844  21.711   6.673
 3313POPC   C3B44085  32.701  21.394   6.918
 3313POPC   C4B44086  32.630  21.024   7.086
 3314POPC   NC344087  12.359  38.975   5.568
 3314POPC   PO444088  11.998  38.398   5.389
 3314POPC   GL144089  12.080  38.484   5.798
 3314POPC   GL244090  12.417  38.430   5.689
 3314POPC   C1A44091  11.835  38.417   6.191
 3314POPC   D2A44092  11.630  38.369   6.616
 3314POPC   C3A44093  11.850  38.489   7.004
 3314POPC   C4A44094  11.803  38.465   7.437
 3314POPC   C1B44095  12.544  38.546   6.092
 3314POPC   C2B44096  12.468  38.680   6.509
 3314POPC   C3B44097  12.388  38.437   6.897
 3314POPC   C4B44098  12.300  38.567   7.320
 3315POPC   NC344099  42.116  42.938   5.323
 3315POPC   PO444100  42.691  43.428   5.459
 3315POPC   GL144101  42.520  43.098   5.777
 3315POPC   GL244102  42.164  43.014   5.831
 3315POPC   C1A44103  42.517  42.845   6.164
 3315POPC   D2A44104  42.199  42.712   6.474
 3315POPC   C3A44105  42.292  42.948   6.849
 3315POPC   C4A44106  42.631  42.798   7.131
 3315POPC   C1B44107  42.268  43.294   6.195
 3315POPC   C2B44108  42.279  43.463   6.613
 3315POPC   C3B44109  42.257  43.453   7.051
 3315POPC   C4B44110  42.299  43.148   7.326
 3316POPC   NC344111  32.351  12.695   5.409
 3316POPC   PO444112  32.230  13.351   5.457
 3316POPC   GL144113  32.320  13.040   5.800
 3316POPC   GL244114  32.053  12.777   5.903
 3316POPC   C1A44115  32.481  12.836   6.159
 3316POPC   D2A44116  32.383  12.952   6.559
 3316POPC   C3A44117  32.290  12.703   6.866
 3316POPC   C4A44118  32.384  12.822   7.264
 3316POPC   C1B44119  31.980  13.093   6.238
 3316POPC   C2B44120  31.949  13.244   6.653
 3316POPC   C3B44121  31.987  13.079   7.030
 3316POPC   C4B44122  31.890  12.673   7.201
 3317POPC   NC344123  38.136  30.303   5.342
 3317POPC   PO444124  38.588  29.817   5.351
 3317POPC   GL144125  38.388  29.870   5.745
 3317POPC   GL244126  38.459  29.566   5.846
 3317POPC   C1A44127  38.223  29.905   6.189
 3317POPC   D2A44128  38.089  30.140   6.605
 3317POPC   C3A44129  38.208  30.030   7.057
 3317POPC   C4A44130  38.410  30.061   7.474
 3317POPC   C1B44131  38.632  29.585   6.242
 3317POPC   C2B44132  38.429  29.694   6.610
 3317POPC   C3B44133  38.303  29.540   6.969
 3317POPC   C4B44134  38.596  29.636   7.271
 3318POPC   NC344135  37.614  14.705   5.426
 3318POPC   PO444136  37.839  14.032   5.571
 3318POPC   GL144137  37.624  14.342   5.822
 3318POPC   GL244138  37.737  14.701   5.918
 3318POPC   C1A44139  37.694  14.258   6.250
 3318POPC   D2A44140  37.620  14.370   6.647
 3318POPC   C3A44141  37.785  14.161   6.989
 3318POPC   C4A44142  37.913  14.318   7.373
 3318POPC   C1B44143  37.493  14.731   6.289
 3318POPC   C2B44144  37.403  14.830   6.717
 3318POPC   C3B44145  37.589  14.638   7.093
 3318POPC   C4B44146  37.565  14.662   7.525
 3319POPC   NC344147  18.389  23.580   5.420
 3319POPC   PO444148  17.787  23.879   5.425
 3319POPC   GL144149  17.969  23.611   5.742
 3319POPC   GL244150  18.231  23.856   5.818
 3319POPC   C1A44151  17.889  23.524   6.185
 3319POPC   D2A44152  17.961  23.756   6.594
 3319POPC   C3A44153  17.923  23.433   6.909
 3319POPC   C4A44154  17.992  23.475   7.339
 3319POPC   C1B44155  18.337  23.771   6.242
 3319POPC   C2B44156  18.349  23.441   6.584
 3319POPC   C3B44157  18.407  23.576   7.039
 3319POPC   C4B44158  18.568  23.312   7.394
 3320POPC   NC344159  44.767  23.157   5.148
 3320POPC   PO444160  44.416  22.635   5.436
 3320POPC   GL144161  44.656  22.785   5.764
 3320POPC   GL244162  44.751  22.511   5.931
 3320POPC   C1A44163  44.570  22.963   6.148
 3320POPC   D2A44164  44.384  22.932   6.532
 3320POPC   C3A44165  44.624  22.854   6.923
 3320POPC   C4A44166  44.739  23.039   7.332
 3320POPC   C1B44167   0.048  22.348   6.205
 3320POPC   C2B44168   0.016  22.552   6.591
 3320POPC   C3B44169  44.908  22.383   6.955
 3320POPC   C4B44170  44.873  22.532   7.333
 3321POPC   NC344171  37.555  19.565   5.562
 3321POPC   PO444172  37.952  20.044   5.461
 3321POPC   GL144173  37.864  19.914   5.839
 3321POPC   GL244174  37.536  20.013   5.860
 3321POPC   C1A44175  37.799  19.802   6.265
 3321POPC   D2A44176  38.072  19.872   6.618
 3321POPC   C3A44177  37.981  19.632   6.991
 3321POPC   C4A44178  37.572  19.730   7.173
 3321POPC   C1B44179  37.312  19.981   6.222
 3321POPC   C2B44180  37.352  19.752   6.613
 3321POPC   C3B44181  37.265  20.046   6.939
 3321POPC   C4B44182  37.147  19.962   7.350
 3322POPC   NC344183  40.603   9.872   5.480
 3322POPC   PO444184  40.991   9.418   5.166
 3322POPC   GL144185  40.967   9.545   5.673
 3322POPC   GL244186  41.292   9.632   5.856
 3322POPC   C1A44187  40.726   9.656   6.104
 3322POPC   D2A44188  40.799   9.936   6.491
 3322POPC   C3A44189  40.615   9.875   6.918
 3322POPC   C4A44190  40.828   9.765   7.311
 3322POPC   C1B44191  41.091   9.298   6.122
 3322POPC   C2B44192  40.879   9.369   6.509
 3322POPC   C3B44193  41.004   9.531   6.882
 3322POPC   C4B44194  41.173   9.383   7.265
 3323POPC   NC344195  29.554   9.971   5.375
 3323POPC   PO444196  30.158   9.662   5.507
 3323POPC   GL144197  30.108   9.849   5.850
 3323POPC   GL244198  29.812   9.996   5.805
 3323POPC   C1A44199  29.923   9.671   6.206
 3323POPC   D2A44200  29.603   9.487   6.441
 3323POPC   C3A44201  29.753   9.553   6.836
 3323POPC   C4A44202  29.979   9.729   7.122
 3323POPC   C1B44203  29.745  10.189   6.171
 3323POPC   C2B44204  29.748  10.011   6.538
 3323POPC   C3B44205  29.776  10.132   6.887
 3323POPC   C4B44206  29.540  10.070   7.194
 3324POPC   NC344207  42.815   4.240   5.345
 3324POPC   PO444208  43.495   4.439   5.327
 3324POPC   GL144209  43.205   4.289   5.716
 3324POPC   GL244210  42.856   4.120   5.838
 3324POPC   C1A44211  43.209   4.308   6.182
 3324POPC   D2A44212  43.318   4.560   6.557
 3324POPC   C3A44213  43.256   4.366   6.974
 3324POPC   C4A44214  43.096   4.029   7.240
 3324POPC   C1B44215  42.766   4.521   6.022
 3324POPC   C2B44216  42.817   4.674   6.451
 3324POPC   C3B44217  42.748   4.509   6.878
 3324POPC   C4B44218  42.833   4.467   7.298
 3325POPC   NC344219  34.700   2.490   5.405
 3325POPC   PO444220  34.316   2.936   5.271
 3325POPC   GL144221  34.512   2.897   5.754
 3325POPC   GL244222  34.641   2.592   5.889
 3325POPC   C1A44223  34.420   2.872   6.238
 3325POPC   D2A44224  34.315   2.723   6.650
 3325POPC   C3A44225  34.582   2.828   6.999
 3325POPC   C4A44226  34.577   2.906   7.460
 3325POPC   C1B44227  34.920   2.810   6.185
 3325POPC   C2B44228  34.989   2.848   6.646
 3325POPC   C3B44229  34.980   2.506   6.932
 3325POPC   C4B44230  34.753   2.437   7.299
 3326POPC   NC344231  31.812  34.662   5.377
 3326POPC   PO444232  31.329  34.183   5.269
 3326POPC   GL144233  31.512  34.250   5.738
 3326POPC   GL244234  31.810  34.469   5.852
 3326POPC   C1A44235  31.386  34.458   6.154
 3326POPC   D2A44236  31.055  34.453   6.477
 3326POPC   C3A44237  31.103  34.419   6.934
 3326POPC   C4A44238  31.150  34.791   7.162
 3326POPC   C1B44239  31.892  34.381   6.287
 3326POPC   C2B44240  31.870  34.549   6.717
 3326POPC   C3B44241  31.662  34.569   7.111
 3326POPC   C4B44242  31.807  34.358   7.476
 3327POPC   NC344243  36.012  21.448   5.396
 3327POPC   PO444244  36.665  21.255   5.451
 3327POPC   GL144245  36.318  21.262   5.785
 3327POPC   GL244246  36.160  21.618   5.865
 3327POPC   C1A44247  36.035  21.220   6.165
 3327POPC   D2A44248  36.000  21.290   6.608
 3327POPC   C3A44249  36.210  21.587   6.840
 3327POPC   C4A44250  36.221  21.441   7.248
 3327POPC   C1B44251  35.768  21.650   6.177
 3327POPC   C2B44252  35.581  21.584   6.618
 3327POPC   C3B44253  35.732  21.480   7.027
 3327POPC   C4B44254  35.725  21.517   7.469
 3328POPC   NC344255   0.070  21.571   5.372
 3328POPC   PO444256   0.777  21.416   5.373
 3328POPC   GL144257   0.548  21.528   5.736
 3328POPC   GL244258   0.263  21.270   5.801
 3328POPC   C1A44259   0.705  21.489   6.168
 3328POPC   D2A44260   0.687  21.182   6.529
 3328POPC   C3A44261   0.537  21.399   6.906
 3328POPC   C4A44262   0.586  21.303   7.332
 3328POPC   C1B44263   0.011  21.123   6.190
 3328POPC   C2B44264   0.119  21.201   6.645
 3328POPC   C3B44265   0.076  21.205   7.098
 3328POPC   C4B44266   0.018  21.575   7.309
 3329POPC   NC344267  29.301  11.627   5.471
 3329POPC   PO444268  28.732  11.291   5.271
 3329POPC   GL144269  28.972  11.260   5.722
 3329POPC   GL244270  28.655  11.442   5.785
 3329POPC   C1A44271  29.233  11.207   6.217
 3329POPC   D2A44272  29.212  11.265   6.765
 3329POPC   C3A44273  29.283  11.095   7.241
 3329POPC   C4A44274  29.485  10.963   7.638
 3329POPC   C1B44275  28.724  11.205   6.164
 3329POPC   C2B44276  28.750  11.141   6.567
 3329POPC   C3B44277  28.723  11.390   6.906
 3329POPC   C4B44278  28.819  11.293   7.316
 3330POPC   NC344279  30.256  38.627   5.448
 3330POPC   PO444280  29.641  38.490   5.485
 3330POPC   GL144281  29.910  38.543   5.817
 3330POPC   GL244282  30.174  38.269   5.852
 3330POPC   C1A44283  29.856  38.561   6.237
 3330POPC   D2A44284  29.960  38.368   6.599
 3330POPC   C3A44285  29.792  38.569   6.959
 3330POPC   C4A44286  29.743  38.373   7.344
 3330POPC   C1B44287  30.353  38.037   6.229
 3330POPC   C2B44288  30.391  37.900   6.677
 3330POPC   C3B44289  30.202  38.162   6.988
 3330POPC   C4B44290  30.247  38.419   7.357
 3331POPC   NC344291  36.539  12.438   5.482
 3331POPC   PO444292  36.031  12.896   5.576
 3331POPC   GL144293  36.201  12.618   5.878
 3331POPC   GL244294  35.905  12.444   5.910
 3331POPC   C1A44295  36.191  12.692   6.336
 3331POPC   D2A44296  36.304  13.030   6.613
 3331POPC   C3A44297  36.046  13.069   6.962
 3331POPC   C4A44298  36.378  13.082   7.177
 3331POPC   C1B44299  35.676  12.732   6.222
 3331POPC   C2B44300  35.714  12.813   6.659
 3331POPC   C3B44301  35.654  12.519   6.977
 3331POPC   C4B44302  35.865  12.544   7.352
 3332POPC   NC344303  23.169  39.711   5.213
 3332POPC   PO444304  22.724  40.192   5.360
 3332POPC   GL144305  22.905  40.119   5.779
 3332POPC   GL244306  23.129  39.804   5.738
 3332POPC   C1A44307  22.656  40.103   6.180
 3332POPC   D2A44308  22.564  39.765   6.437
 3332POPC   C3A44309  22.573  39.926   6.810
 3332POPC   C4A44310  22.818  39.863   7.135
 3332POPC   C1B44311  23.056  39.779   6.192
 3332POPC   C2B44312  23.068  39.923   6.614
 3332POPC   C3B44313  23.290  39.797   6.987
 3332POPC   C4B44314  23.264  39.958   7.413
 3333POPC   NC344315  21.386  39.704   5.177
 3333POPC   PO444316  21.135  40.219   5.586
 3333POPC   GL144317  21.442  40.269   5.907
 3333POPC   GL244318  21.577  39.936   6.035
 3333POPC   C1A44319  21.423  40.301   6.348
 3333POPC   D2A44320  21.097  40.089   6.591
 3333POPC   C3A44321  21.107  40.225   6.996
 3333POPC   C4A44322  21.444  40.419   7.177
 3333POPC   C1B44323  21.271  39.674   6.291
 3333POPC   C2B44324  21.159  39.595   6.724
 3333POPC   C3B44325  21.298  39.760   7.085
 3333POPC   C4B44326  21.666  39.966   7.239
 3334POPC   NC344327  37.360  11.536   5.470
 3334POPC   PO444328  37.670  10.915   5.413
 3334POPC   GL144329  37.644  11.191   5.808
 3334POPC   GL244330  37.835  11.496   5.832
 3334POPC   C1A44331  37.802  11.245   6.269
 3334POPC   D2A44332  38.082  11.228   6.645
 3334POPC   C3A44333  37.832  11.200   7.011
 3334POPC   C4A44334  37.427  11.126   7.130
 3334POPC   C1B44335  37.839  11.810   6.139
 3334POPC   C2B44336  37.913  11.742   6.565
 3334POPC   C3B44337  38.078  11.706   6.957
 3334POPC   C4B44338  37.815  11.874   7.254
 3335POPC   NC344339   1.590  17.755   5.018
 3335POPC   PO444340   2.130  17.634   5.457
 3335POPC   GL144341   1.918  17.569   5.841
 3335POPC   GL244342   2.029  17.884   5.923
 3335POPC   C1A44343   1.893  17.425   6.259
 3335POPC   D2A44344   1.706  17.601   6.629
 3335POPC   C3A44345   1.907  17.463   6.995
 3335POPC   C4A44346   2.185  17.208   7.182
 3335POPC   C1B44347   1.796  18.032   6.250
 3335POPC   C2B44348   1.844  18.097   6.656
 3335POPC   C3B44349   1.748  17.956   7.021
 3335POPC   C4B44350   2.094  17.841   7.309
 3336POPC   NC344351   1.340  16.291   5.527
 3336POPC   PO444352   0.989  15.791   5.485
 3336POPC   GL144353   1.074  16.011   5.876
 3336POPC   GL244354   0.946  16.339   5.912
 3336POPC   C1A44355   1.173  16.151   6.329
 3336POPC   D2A44356   1.422  16.003   6.673
 3336POPC   C3A44357   1.125  15.831   7.000
 3336POPC   C4A44358   1.141  15.863   7.445
 3336POPC   C1B44359   0.686  16.378   6.268
 3336POPC   C2B44360   0.835  16.490   6.657
 3336POPC   C3B44361   1.162  16.351   6.928
 3336POPC   C4B44362   1.186  16.367   7.414
 3337POPC   NC344363  28.754  19.765   5.388
 3337POPC   PO444364  29.352  20.016   5.462
 3337POPC   GL144365  29.226  19.940   5.876
 3337POPC   GL244366  28.902  20.059   5.787
 3337POPC   C1A44367  29.271  19.758   6.319
 3337POPC   D2A44368  29.342  19.497   6.712
 3337POPC   C3A44369  29.119  19.702   7.064
 3337POPC   C4A44370  29.259  19.751   7.496
 3337POPC   C1B44371  28.827  20.201   6.211
 3337POPC   C2B44372  28.938  20.060   6.599
 3337POPC   C3B44373  29.134  20.220   6.965
 3337POPC   C4B44374  29.030  20.198   7.387
 3338POPC   NC344375  39.001  11.901   5.493
 3338POPC   PO444376  39.619  12.234   5.626
 3338POPC   GL144377  39.309  12.066   5.908
 3338POPC   GL244378  38.967  12.183   5.903
 3338POPC   C1A44379  39.326  11.975   6.340
 3338POPC   D2A44380  39.409  11.665   6.638
 3338POPC   C3A44381  39.388  11.911   7.013
 3338POPC   C4A44382  39.377  11.963   7.455
 3338POPC   C1B44383  39.020  12.425   6.264
 3338POPC   C2B44384  39.040  12.555   6.655
 3338POPC   C3B44385  39.049  12.320   7.018
 3338POPC   C4B44386  38.910  11.994   7.258
 3339POPC   NC344387   1.014  35.778   5.530
 3339POPC   PO444388   0.920  35.141   5.401
 3339POPC   GL144389   1.004  35.321   5.772
 3339POPC   GL244390   1.358  35.336   5.686
 3339POPC   C1A44391   1.137  35.395   6.184
 3339POPC   D2A44392   1.248  35.638   6.510
 3339POPC   C3A44393   1.156  35.514   6.893
 3339POPC   C4A44394   0.978  35.517   7.335
 3339POPC   C1B44395   1.575  35.168   6.052
 3339POPC   C2B44396   1.507  35.184   6.498
 3339POPC   C3B44397   1.632  35.316   6.902
 3339POPC   C4B44398   1.495  35.566   7.265
 3340POPC   NC344399  18.058  10.705   5.413
 3340POPC   PO444400  18.554  11.039   5.466
 3340POPC   GL144401  18.397  10.851   5.849
 3340POPC   GL244402  18.351  10.486   5.834
 3340POPC   C1A44403  18.308  10.761   6.295
 3340POPC   D2A44404  18.478  10.509   6.642
 3340POPC   C3A44405  18.332  10.718   7.041
 3340POPC   C4A44406  18.075  10.777   7.417
 3340POPC   C1B44407  18.236  10.262   6.235
 3340POPC   C2B44408  18.136  10.099   6.689
 3340POPC   C3B44409  18.073  10.258   7.139
 3340POPC   C4B44410  17.958  10.299   7.586
 3341POPC   NC344411  28.654  20.431   5.436
 3341POPC   PO444412  28.075  20.617   5.529
 3341POPC   GL144413  28.387  20.595   5.840
 3341POPC   GL244414  28.450  20.279   5.881
 3341POPC   C1A44415  28.539  20.721   6.230
 3341POPC   D2A44416  28.344  20.969   6.541
 3341POPC   C3A44417  28.349  20.830   6.979
 3341POPC   C4A44418  28.495  20.901   7.416
 3341POPC   C1B44419  28.319  20.276   6.306
 3341POPC   C2B44420  28.525  20.416   6.699
 3341POPC   C3B44421  28.296  20.329   7.131
 3341POPC   C4B44422  27.965  20.377   7.468
 3342POPC   NC344423  19.404  21.144   5.612
 3342POPC   PO444424  19.155  21.750   5.351
 3342POPC   GL144425  19.097  21.573   5.757
 3342POPC   GL244426  18.915  21.269   5.731
 3342POPC   C1A44427  19.106  21.758   6.187
 3342POPC   D2A44428  19.279  21.814   6.616
 3342POPC   C3A44429  19.214  21.437   6.907
 3342POPC   C4A44430  19.114  21.507   7.331
 3342POPC   C1B44431  18.885  21.307   6.152
 3342POPC   C2B44432  19.059  21.106   6.482
 3342POPC   C3B44433  19.075  20.914   6.838
 3342POPC   C4B44434  18.869  20.925   7.214
 3343POPC   NC344435  13.410  37.878   5.435
 3343POPC   PO444436  13.907  37.494   5.398
 3343POPC   GL144437  13.586  37.450   5.685
 3343POPC   GL244438  13.724  37.238   5.896
 3343POPC   C1A44439  13.523  37.687   6.077
 3343POPC   D2A44440  13.675  37.844   6.481
 3343POPC   C3A44441  13.424  37.822   6.844
 3343POPC   C4A44442  13.561  38.052   7.219
 3343POPC   C1B44443  13.593  37.236   6.341
 3343POPC   C2B44444  13.769  37.383   6.708
 3343POPC   C3B44445  13.595  37.413   7.109
 3343POPC   C4B44446  13.468  37.349   7.526
 3344POPC   NC344447  25.355   1.783   5.470
 3344POPC   PO444448  25.815   2.357   5.386
 3344POPC   GL144449  25.551   2.193   5.779
 3344POPC   GL244450  25.626   1.869   5.893
 3344POPC   C1A44451  25.204   1.999   6.118
 3344POPC   D2A44452  24.932   1.820   6.463
 3344POPC   C3A44453  25.022   1.899   6.908
 3344POPC   C4A44454  25.008   2.021   7.341
 3344POPC   C1B44455  25.652   1.800   6.329
 3344POPC   C2B44456  25.488   1.922   6.717
 3344POPC   C3B44457  25.509   1.937   7.163
 3344POPC   C4B44458  25.490   2.251   7.459
 3345POPC   NC344459  36.396  35.749   5.540
 3345POPC   PO444460  36.158  36.320   5.431
 3345POPC   GL144461  36.078  36.146   5.856
 3345POPC   GL244462  35.973  35.767   5.833
 3345POPC   C1A44463  36.234  36.289   6.291
 3345POPC   D2A44464  36.326  36.100   6.704
 3345POPC   C3A44465  36.444  36.311   7.087
 3345POPC   C4A44466  36.104  36.246   7.356
 3345POPC   C1B44467  35.922  35.871   6.272
 3345POPC   C2B44468  35.730  35.760   6.658
 3345POPC   C3B44469  35.929  35.899   7.033
 3345POPC   C4B44470  36.118  35.702   7.429
 3346POPC   NC344471   2.323  18.075   5.530
 3346POPC   PO444472   2.758  18.411   5.271
 3346POPC   GL144473   2.727  18.334   5.723
 3346POPC   GL244474   2.995  18.603   5.789
 3346POPC   C1A44475   2.569  18.081   6.116
 3346POPC   D2A44476   2.712  18.202   6.517
 3346POPC   C3A44477   2.634  17.996   6.890
 3346POPC   C4A44478   2.697  18.148   7.275
 3346POPC   C1B44479   3.123  18.746   6.190
 3346POPC   C2B44480   3.113  18.521   6.558
 3346POPC   C3B44481   3.016  18.357   6.920
 3346POPC   C4B44482   3.040  18.561   7.290
 3347POPC   NC344483   0.602  34.756   5.523
 3347POPC   PO444484  44.990  34.463   5.199
 3347POPC   GL144485   0.192  34.456   5.666
 3347POPC   GL244486   0.522  34.337   5.796
 3347POPC   C1A44487   0.254  34.711   6.087
 3347POPC   D2A44488   0.245  34.982   6.468
 3347POPC   C3A44489   0.549  34.906   6.769
 3347POPC   C4A44490   0.638  34.773   7.171
 3347POPC   C1B44491   0.430  34.265   6.206
 3347POPC   C2B44492   0.265  34.460   6.570
 3347POPC   C3B44493   0.426  34.362   6.958
 3347POPC   C4B44494   0.806  34.292   7.216
 3348POPC   NC344495  16.599  35.238   5.607
 3348POPC   PO444496  17.035  35.675   5.663
 3348POPC   GL144497  16.924  35.351   5.981
 3348POPC   GL244498  16.953  34.979   5.892
 3348POPC   C1A44499  16.864  35.375   6.440
 3348POPC   D2A44500  16.607  35.254   6.794
 3348POPC   C3A44501  16.665  35.547   7.121
 3348POPC   C4A44502  16.913  35.537   7.506
 3348POPC   C1B44503  17.153  34.982   6.269
 3348POPC   C2B44504  17.005  34.917   6.708
 3348POPC   C3B44505  17.022  35.083   7.127
 3348POPC   C4B44506  16.954  34.832   7.463
 3349POPC   NC344507   4.228   6.370   5.319
 3349POPC   PO444508   4.244   5.671   5.451
 3349POPC   GL144509   4.208   5.888   5.856
 3349POPC   GL244510   3.906   5.967   6.010
 3349POPC   C1A44511   4.438   5.933   6.239
 3349POPC   D2A44512   4.524   5.628   6.609
 3349POPC   C3A44513   4.695   5.831   6.998
 3349POPC   C4A44514   4.517   6.176   7.289
 3349POPC   C1B44515   3.930   5.736   6.335
 3349POPC   C2B44516   4.125   5.961   6.637
 3349POPC   C3B44517   4.159   5.924   7.022
 3349POPC   C4B44518   3.803   6.090   7.132
 3350POPC   NC344519  43.661  17.741   4.970
 3350POPC   PO444520  43.909  17.250   5.406
 3350POPC   GL144521  44.054  17.471   5.745
 3350POPC   GL244522  43.774  17.625   5.782
 3350POPC   C1A44523  44.110  17.660   6.165
 3350POPC   D2A44524  43.927  17.593   6.558
 3350POPC   C3A44525  44.095  17.819   6.897
 3350POPC   C4A44526  44.108  17.647   7.279
 3350POPC   C1B44527  43.636  17.418   6.146
 3350POPC   C2B44528  43.420  17.563   6.503
 3350POPC   C3B44529  43.590  17.651   6.957
 3350POPC   C4B44530  43.514  17.370   7.283
 3351POPC   NC344531  17.536  31.637   4.923
 3351POPC   PO444532  17.692  31.082   5.321
 3351POPC   GL144533  17.559  31.341   5.725
 3351POPC   GL244534  17.317  31.644   5.711
 3351POPC   C1A44535  17.734  31.310   6.173
 3351POPC   D2A44536  17.452  31.335   6.529
 3351POPC   C3A44537  17.622  31.410   6.913
 3351POPC   C4A44538  17.426  31.608   7.262
 3351POPC   C1B44539  17.567  31.760   6.098
 3351POPC   C2B44540  17.780  31.733   6.523
 3351POPC   C3B44541  17.715  31.921   6.941
 3351POPC   C4B44542  17.825  31.878   7.381
 3352POPC   NC344543  37.816  42.675   5.492
 3352POPC   PO444544  37.418  42.095   5.629
 3352POPC   GL144545  37.710  42.308   5.820
 3352POPC   GL244546  37.554  42.621   5.946
 3352POPC   C1A44547  37.828  42.279   6.217
 3352POPC   D2A44548  37.785  42.510   6.569
 3352POPC   C3A44549  37.605  42.229   6.842
 3352POPC   C4A44550  37.703  42.262   7.243
 3352POPC   C1B44551  37.600  42.942   6.282
 3352POPC   C2B44552  37.626  43.035   6.699
 3352POPC   C3B44553  37.536  42.725   6.977
 3352POPC   C4B44554  37.583  42.751   7.352
 3353POPC   NC344555  15.329  29.960   5.057
 3353POPC   PO444556  15.395  30.160   5.673
 3353POPC   GL144557  15.194  29.970   5.968
 3353POPC   GL244558  14.892  30.112   5.929
 3353POPC   C1A44559  15.221  29.893   6.390
 3353POPC   D2A44560  15.388  29.723   6.712
 3353POPC   C3A44561  15.297  29.918   7.064
 3353POPC   C4A44562  15.519  29.977   7.465
 3353POPC   C1B44563  14.735  29.877   6.280
 3353POPC   C2B44564  14.816  29.860   6.715
 3353POPC   C3B44565  14.931  29.575   7.036
 3353POPC   C4B44566  15.061  29.734   7.457
 3354POPC   NC344567  15.411  10.326   5.410
 3354POPC   PO444568  14.793  10.583   5.367
 3354POPC   GL144569  14.964  10.664   5.769
 3354POPC   GL244570  14.934  10.315   5.854
 3354POPC   C1A44571  15.122  10.662   6.218
 3354POPC   D2A44572  15.265  10.650   6.659
 3354POPC   C3A44573  15.091  10.661   7.073
 3354POPC   C4A44574  15.340  10.669   7.483
 3354POPC   C1B44575  14.714  10.130   6.221
 3354POPC   C2B44576  14.871   9.990   6.640
 3354POPC   C3B44577  14.967  10.135   7.097
 3354POPC   C4B44578  14.830  10.052   7.554
 3355POPC   NC344579  31.979  19.626   5.535
 3355POPC   PO444580  32.226  18.947   5.362
 3355POPC   GL144581  32.424  19.024   5.795
 3355POPC   GL244582  32.476  19.365   5.811
 3355POPC   C1A44583  32.305  19.141   6.268
 3355POPC   D2A44584  32.299  19.313   6.708
 3355POPC   C3A44585  32.155  19.044   7.046
 3355POPC   C4A44586  31.881  18.661   7.060
 3355POPC   C1B44587  32.532  19.603   6.212
 3355POPC   C2B44588  32.368  19.832   6.586
 3355POPC   C3B44589  32.499  19.735   7.003
 3355POPC   C4B44590  32.317  19.455   7.309
 3356POPC   NC344591  13.672   7.958   5.255
 3356POPC   PO444592  13.528   8.605   5.385
 3356POPC   GL144593  13.648   8.292   5.721
 3356POPC   GL244594  13.430   7.988   5.716
 3356POPC   C1A44595  13.540   8.358   6.184
 3356POPC   D2A44596  13.690   8.477   6.621
 3356POPC   C3A44597  13.459   8.356   7.012
 3356POPC   C4A44598  13.526   8.397   7.476
 3356POPC   C1B44599  13.548   7.832   6.129
 3356POPC   C2B44600  13.510   7.977   6.557
 3356POPC   C3B44601  13.497   7.827   6.967
 3356POPC   C4B44602  13.649   7.917   7.365
 3357POPC   NC344603  24.074  35.914   5.396
 3357POPC   PO444604  23.519  36.021   5.312
 3357POPC   GL144605  23.591  36.090   5.755
 3357POPC   GL244606  23.890  36.232   5.894
 3357POPC   C1A44607  23.487  36.142   6.210
 3357POPC   D2A44608  23.552  36.309   6.658
 3357POPC   C3A44609  23.490  36.070   7.087
 3357POPC   C4A44610  23.549  36.256   7.554
 3357POPC   C1B44611  24.005  36.145   6.379
 3357POPC   C2B44612  23.977  36.115   6.878
 3357POPC   C3B44613  23.957  36.021   7.344
 3357POPC   C4B44614  23.920  35.762   7.751
 3358POPC   NC344615  15.408  33.288   5.308
 3358POPC   PO444616  15.479  32.668   5.616
 3358POPC   GL144617  15.356  33.078   5.799
 3358POPC   GL244618  15.181  33.408   5.763
 3358POPC   C1A44619  15.420  33.180   6.197
 3358POPC   D2A44620  15.189  33.076   6.568
 3358POPC   C3A44621  15.338  32.923   6.967
 3358POPC   C4A44622  15.226  33.051   7.364
 3358POPC   C1B44623  14.930  33.282   6.133
 3358POPC   C2B44624  14.758  33.334   6.560
 3358POPC   C3B44625  14.873  33.161   6.972
 3358POPC   C4B44626  14.799  33.324   7.358
 3359POPC   NC344627  19.780  40.453   5.398
 3359POPC   PO444628  19.652  39.769   5.335
 3359POPC   GL144629  19.726  39.957   5.772
 3359POPC   GL244630  19.659  40.311   5.872
 3359POPC   C1A44631  19.744  39.906   6.252
 3359POPC   D2A44632  19.846  39.734   6.676
 3359POPC   C3A44633  19.803  39.883   7.110
 3359POPC   C4A44634  19.605  39.623   7.439
 3359POPC   C1B44635  19.783  40.441   6.289
 3359POPC   C2B44636  19.986  40.228   6.629
 3359POPC   C3B44637  20.093  40.331   7.031
 3359POPC   C4B44638  20.010  40.303   7.445
 3360POPC   NC344639   3.772  14.198   5.220
 3360POPC   PO444640   4.364  14.238   5.596
 3360POPC   GL144641   4.293  14.469   5.942
 3360POPC   GL244642   4.612  14.600   6.013
 3360POPC   C1A44643   4.055  14.408   6.324
 3360POPC   D2A44644   4.040  14.249   6.736
 3360POPC   C3A44645   4.012  14.574   7.028
 3360POPC   C4A44646   4.120  14.468   7.429
 3360POPC   C1B44647   4.457  14.707   6.387
 3360POPC   C2B44648   4.443  14.610   6.779
 3360POPC   C3B44649   4.489  14.326   7.100
 3360POPC   C4B44650   4.619  14.194   7.523
 3361POPC   NC344651  24.123  21.203   5.540
 3361POPC   PO444652  23.734  21.688   5.416
 3361POPC   GL144653  23.722  21.430   5.818
 3361POPC   GL244654  23.384  21.310   5.867
 3361POPC   C1A44655  23.703  21.298   6.274
 3361POPC   D2A44656  23.399  21.219   6.618
 3361POPC   C3A44657  23.588  21.170   7.043
 3361POPC   C4A44658  23.948  21.447   7.187
 3361POPC   C1B44659  23.318  21.630   6.204
 3361POPC   C2B44660  23.380  21.730   6.639
 3361POPC   C3B44661  23.520  21.683   7.046
 3361POPC   C4B44662  23.477  21.846   7.447
 3362POPC   NC344663  37.656   6.424   5.315
 3362POPC   PO444664  37.196   6.897   5.340
 3362POPC   GL144665  37.477   6.766   5.738
 3362POPC   GL244666  37.695   6.452   5.818
 3362POPC   C1A44667  37.564   6.793   6.225
 3362POPC   D2A44668  37.378   6.781   6.681
 3362POPC   C3A44669  37.613   6.809   7.084
 3362POPC   C4A44670  37.435   6.579   7.477
 3362POPC   C1B44671  37.976   6.440   6.183
 3362POPC   C2B44672  37.858   6.564   6.618
 3362POPC   C3B44673  37.728   6.338   7.013
 3362POPC   C4B44674  37.892   6.402   7.422
 3363POPC   NC344675  31.680  22.837   5.357
 3363POPC   PO444676  31.363  23.391   5.419
 3363POPC   GL144677  31.683  23.214   5.717
 3363POPC   GL244678  31.531  22.894   5.838
 3363POPC   C1A44679  31.843  23.196   6.140
 3363POPC   D2A44680  31.696  23.364   6.541
 3363POPC   C3A44681  31.504  23.064   6.861
 3363POPC   C4A44682  31.457  22.761   7.206
 3363POPC   C1B44683  31.397  22.967   6.254
 3363POPC   C2B44684  31.041  23.069   6.509
 3363POPC   C3B44685  30.994  23.242   6.891
 3363POPC   C4B44686  31.166  23.161   7.276
 3364POPC   NC344687  33.169  34.826   5.466
 3364POPC   PO444688  32.817  34.284   5.563
 3364POPC   GL144689  32.894  34.576   5.863
 3364POPC   GL244690  33.225  34.470   5.852
 3364POPC   C1A44691  32.797  34.616   6.298
 3364POPC   D2A44692  32.917  34.447   6.688
 3364POPC   C3A44693  32.760  34.708   6.987
 3364POPC   C4A44694  32.723  34.602   7.379
 3364POPC   C1B44695  33.288  34.744   6.167
 3364POPC   C2B44696  33.217  34.862   6.572
 3364POPC   C3B44697  33.279  34.726   6.969
 3364POPC   C4B44698  33.221  34.904   7.363
 3365POPC   NC344699  22.521  27.125   5.484
 3365POPC   PO444700  23.055  26.718   5.385
 3365POPC   GL144701  22.833  26.820   5.753
 3365POPC   GL244702  23.152  26.950   5.853
 3365POPC   C1A44703  22.865  26.676   6.193
 3365POPC   D2A44704  23.241  26.542   6.435
 3365POPC   C3A44705  23.103  26.578   6.849
 3365POPC   C4A44706  22.705  26.517   7.018
 3365POPC   C1B44707  22.872  27.181   6.137
 3365POPC   C2B44708  22.547  27.116   6.436
 3365POPC   C3B44709  22.544  27.047   6.895
 3365POPC   C4B44710  22.904  26.976   7.172
 3366POPC   NC344711  24.042  14.442   5.466
 3366POPC   PO444712  24.472  13.938   5.421
 3366POPC   GL144713  24.294  14.154   5.815
 3366POPC   GL244714  24.330  14.552   5.852
 3366POPC   C1A44715  24.298  14.256   6.266
 3366POPC   D2A44716  24.446  14.082   6.638
 3366POPC   C3A44717  24.398  14.260   7.043
 3366POPC   C4A44718  24.696  14.562   7.239
 3366POPC   C1B44719  24.359  14.766   6.235
 3366POPC   C2B44720  24.481  14.648   6.651
 3366POPC   C3B44721  24.234  14.741   7.006
 3366POPC   C4B44722  24.277  14.779   7.448
 3367POPC   NC344723  22.592  10.285   5.532
 3367POPC   PO444724  21.972  10.326   5.277
 3367POPC   GL144725  21.904  10.624   5.650
 3367POPC   GL244726  22.248  10.619   5.734
 3367POPC   C1A44727  21.960  10.731   6.111
 3367POPC   D2A44728  22.285  10.722   6.417
 3367POPC   C3A44729  22.186  10.740   6.866
 3367POPC   C4A44730  22.310  10.631   7.280
 3367POPC   C1B44731  22.122  10.250   6.020
 3367POPC   C2B44732  22.129  10.146   6.475
 3367POPC   C3B44733  22.320  10.221   6.875
 3367POPC   C4B44734  22.170  10.161   7.278
 3368POPC   NC344735  30.208  20.691   5.336
 3368POPC   PO444736  30.832  20.384   5.201
 3368POPC   GL144737  30.811  20.686   5.595
 3368POPC   GL244738  30.473  20.747   5.776
 3368POPC   C1A44739  30.975  20.635   6.038
 3368POPC   D2A44740  30.915  20.333   6.389
 3368POPC   C3A44741  30.941  20.452   6.853
 3368POPC   C4A44742  30.944  20.344   7.329
 3368POPC   C1B44743  30.483  20.568   6.190
 3368POPC   C2B44744  30.452  20.371   6.634
 3368POPC   C3B44745  30.488  20.384   7.102
 3368POPC   C4B44746  30.365  20.725   7.356
 3369POPC   NC344747  27.727   0.889   5.495
 3369POPC   PO444748  27.509   1.556   5.462
 3369POPC   GL144749  27.719   1.440   5.872
 3369POPC   GL244750  27.615   1.073   5.962
 3369POPC   C1A44751  27.520   1.434   6.304
 3369POPC   D2A44752  27.341   1.223   6.650
 3369POPC   C3A44753  27.543   1.403   6.970
 3369POPC   C4A44754  27.746   1.207   7.270
 3369POPC   C1B44755  27.340   0.854   6.283
 3369POPC   C2B44756  27.360   0.666   6.715
 3369POPC   C3B44757  27.364   0.905   7.093
 3369POPC   C4B44758  27.180   1.253   7.307
 3370POPC   NC344759   3.701  25.230   5.160
 3370POPC   PO444760   3.293  24.898   5.589
 3370POPC   GL144761   3.457  25.256   5.822
 3370POPC   GL244762   3.793  25.418   5.767
 3370POPC   C1A44763   3.536  25.221   6.272
 3370POPC   D2A44764   3.707  25.372   6.683
 3370POPC   C3A44765   3.463  25.266   7.063
 3370POPC   C4A44766   3.507  25.380   7.499
 3370POPC   C1B44767   4.023  25.377   6.166
 3370POPC   C2B44768   3.978  25.008   6.451
 3370POPC   C3B44769   3.799  24.900   6.879
 3370POPC   C4B44770   3.897  25.015   7.303
 3371POPC   NC344771  30.929  13.414   5.351
 3371POPC   PO444772  30.930  14.047   5.424
 3371POPC   GL144773  30.770  13.767   5.770
 3371POPC   GL244774  30.692  13.398   5.802
 3371POPC   C1A44775  30.654  13.737   6.209
 3371POPC   D2A44776  30.657  13.570   6.624
 3371POPC   C3A44777  30.630  13.833   6.993
 3371POPC   C4A44778  30.895  13.833   7.342
 3371POPC   C1B44779  30.614  13.212   6.228
 3371POPC   C2B44780  30.462  13.116   6.671
 3371POPC   C3B44781  30.605  13.320   7.095
 3371POPC   C4B44782  30.658  13.446   7.568
 3372POPC   NC344783  23.582   8.383   5.320
 3372POPC   PO444784  24.078   7.994   5.273
 3372POPC   GL144785  23.795   8.046   5.657
 3372POPC   GL244786  23.899   7.739   5.728
 3372POPC   C1A44787  23.749   8.242   6.092
 3372POPC   D2A44788  23.837   8.489   6.469
 3372POPC   C3A44789  23.699   8.331   6.875
 3372POPC   C4A44790  23.878   8.326   7.270
 3372POPC   C1B44791  24.039   7.838   6.130
 3372POPC   C2B44792  23.797   7.944   6.517
 3372POPC   C3B44793  23.923   7.869   6.945
 3372POPC   C4B44794  23.886   7.615   7.321
 3373POPC   NC344795  21.007  16.743   5.228
 3373POPC   PO444796  20.390  16.546   5.280
 3373POPC   GL144797  20.536  16.708   5.710
 3373POPC   GL244798  20.857  16.888   5.811
 3373POPC   C1A44799  20.688  16.544   6.138
 3373POPC   D2A44800  20.521  16.416   6.530
 3373POPC   C3A44801  20.655  16.540   6.938
 3373POPC   C4A44802  20.701  16.327   7.330
 3373POPC   C1B44803  20.766  17.054   6.216
 3373POPC   C2B44804  20.800  17.223   6.631
 3373POPC   C3B44805  20.650  17.088   7.046
 3373POPC   C4B44806  20.473  16.789   7.348
 3374POPC   NC344807  44.937   9.895   5.152
 3374POPC   PO444808   0.539   9.796   5.468
 3374POPC   GL144809   0.441   9.674   5.847
 3374POPC   GL244810   0.138   9.528   5.941
 3374POPC   C1A44811   0.442   9.828   6.244
 3374POPC   D2A44812   0.537   9.696   6.646
 3374POPC   C3A44813   0.724  10.023   6.857
 3374POPC   C4A44814   0.450  10.270   7.101
 3374POPC   C1B44815  44.954   9.702   6.335
 3374POPC   C2B44816   0.035   9.915   6.725
 3374POPC   C3B44817   0.266   9.811   7.066
 3374POPC   C4B44818   0.216   9.677   7.478
 3375POPC   NC344819  33.498  14.768   5.399
 3375POPC   PO444820  33.972  14.279   5.328
 3375POPC   GL144821  33.895  14.318   5.744
 3375POPC   GL244822  33.546  14.343   5.744
 3375POPC   C1A44823  33.907  14.409   6.196
 3375POPC   D2A44824  33.850  14.119   6.552
 3375POPC   C3A44825  33.930  14.255   6.972
 3375POPC   C4A44826  33.801  14.294   7.428
 3375POPC   C1B44827  33.389  14.367   6.176
 3375POPC   C2B44828  33.534  14.534   6.599
 3375POPC   C3B44829  33.450  14.412   7.023
 3375POPC   C4B44830  33.277  14.279   7.431
 3376POPC   NC344831  36.422  26.519   5.454
 3376POPC   PO444832  36.875  25.919   5.439
 3376POPC   GL144833  36.872  26.018   5.863
 3376POPC   GL244834  36.538  26.150   5.817
 3376POPC   C1A44835  36.964  25.876   6.318
 3376POPC   D2A44836  37.070  25.837   6.773
 3376POPC   C3A44837  36.886  25.990   7.165
 3376POPC   C4A44838  37.114  26.017   7.580
 3376POPC   C1B44839  36.548  26.178   6.261
 3376POPC   C2B44840  36.727  26.206   6.655
 3376POPC   C3B44841  36.543  26.383   7.001
 3376POPC   C4B44842  36.405  26.208   7.352
 3377POPC   NC344843  34.811  34.341   5.410
 3377POPC   PO444844  34.357  34.861   5.482
 3377POPC   GL144845  34.669  34.742   5.801
 3377POPC   GL244846  34.722  34.436   5.893
 3377POPC   C1A44847  34.622  34.792   6.269
 3377POPC   D2A44848  34.512  34.807   6.724
 3377POPC   C3A44849  34.714  34.519   7.004
 3377POPC   C4A44850  34.704  34.542   7.440
 3377POPC   C1B44851  34.563  34.259   6.227
 3377POPC   C2B44852  34.518  34.224   6.626
 3377POPC   C3B44853  34.220  34.357   6.899
 3377POPC   C4B44854  34.335  34.265   7.280
 3378POPC   NC344855   0.197  13.397   5.495
 3378POPC   PO444856   0.807  13.483   5.271
 3378POPC   GL144857   0.603  13.672   5.631
 3378POPC   GL244858   0.803  13.859   5.777
 3378POPC   C1A44859   0.345  13.793   6.040
 3378POPC   D2A44860   0.296  13.528   6.456
 3378POPC   C3A44861   0.151  13.626   6.904
 3378POPC   C4A44862   0.222  13.487   7.345
 3378POPC   C1B44863   0.756  13.523   6.149
 3378POPC   C2B44864   0.783  13.384   6.621
 3378POPC   C3B44865   0.691  13.482   7.086
 3378POPC   C4B44866   0.934  13.743   7.371
 3379POPC   NC344867  15.333  38.668   5.406
 3379POPC   PO444868  15.656  38.009   5.510
 3379POPC   GL144869  15.553  38.320   5.810
 3379POPC   GL244870  15.193  38.357   5.852
 3379POPC   C1A44871  15.496  38.319   6.277
 3379POPC   D2A44872  15.559  38.475   6.701
 3379POPC   C3A44873  15.229  38.520   6.999
 3379POPC   C4A44874  15.406  38.492   7.389
 3379POPC   C1B44875  14.977  38.287   6.269
 3379POPC   C2B44876  14.781  38.306   6.724
 3379POPC   C3B44877  14.899  38.130   7.167
 3379POPC   C4B44878  14.806  37.955   7.612
 3380POPC   NC344879  24.238  13.525   5.345
 3380POPC   PO444880  24.878  13.383   5.549
 3380POPC   GL144881  24.515  13.567   5.796
 3380POPC   GL244882  24.164  13.450   5.854
 3380POPC   C1A44883  24.490  13.769   6.193
 3380POPC   D2A44884  24.637  13.601   6.589
 3380POPC   C3A44885  24.468  13.716   6.985
 3380POPC   C4A44886  24.468  13.450   7.294
 3380POPC   C1B44887  24.220  13.350   6.298
 3380POPC   C2B44888  24.097  13.540   6.681
 3380POPC   C3B44889  23.985  13.421   7.117
 3380POPC   C4B44890  24.047  13.453   7.575
 3381POPC   NC344891  14.002   7.153   5.342
 3381POPC   PO444892  13.453   7.546   5.294
 3381POPC   GL144893  13.728   7.560   5.672
 3381POPC   GL244894  13.970   7.848   5.716
 3381POPC   C1A44895  13.677   7.294   6.054
 3381POPC   D2A44896  13.895   7.183   6.437
 3381POPC   C3A44897  13.662   7.258   6.837
 3381POPC   C4A44898  13.569   7.320   7.272
 3381POPC   C1B44899  14.027   7.647   6.150
 3381POPC   C2B44900  13.896   7.662   6.596
 3381POPC   C3B44901  13.975   7.645   7.049
 3381POPC   C4B44902  13.983   7.543   7.502
 3382POPC   NC344903   0.774  15.375   5.461
 3382POPC   PO444904   1.334  15.018   5.414
 3382POPC   GL144905   1.174  15.204   5.776
 3382POPC   GL244906   1.317  15.512   5.781
 3382POPC   C1A44907   1.258  15.068   6.197
 3382POPC   D2A44908   1.015  15.029   6.551
 3382POPC   C3A44909   1.253  14.968   6.891
 3382POPC   C4A44910   1.150  15.011   7.282
 3382POPC   C1B44911   1.248  15.631   6.199
 3382POPC   C2B44912   1.283  15.500   6.608
 3382POPC   C3B44913   1.584  15.586   6.939
 3382POPC   C4B44914   1.376  15.453   7.282
 3383POPC   NC344915  40.551  43.683   5.342
 3383POPC   PO444916  41.123  44.183   5.359
 3383POPC   GL144917  40.814  44.105   5.710
 3383POPC   GL244918  40.736  43.757   5.805
 3383POPC   C1A44919  40.757  44.102   6.181
 3383POPC   D2A44920  40.749  44.152   6.611
 3383POPC   C3A44921  40.536  43.978   6.952
 3383POPC   C4A44922  40.590  43.969   7.369
 3383POPC   C1B44923  40.759  43.581   6.229
 3383POPC   C2B44924  40.789  43.609   6.674
 3383POPC   C3B44925  41.010  43.730   7.056
 3383POPC   C4B44926  40.844  43.545   7.431
 3384POPC   NC344927   8.941  36.787   5.368
 3384POPC   PO444928   8.664  37.441   5.357
 3384POPC   GL144929   8.810  37.228   5.783
 3384POPC   GL244930   9.025  36.896   5.866
 3384POPC   C1A44931   8.711  37.072   6.233
 3384POPC   D2A44932   9.013  37.091   6.598
 3384POPC   C3A44933   9.031  36.830   6.969
 3384POPC   C4A44934   9.302  37.061   7.245
 3384POPC   C1B44935   9.060  36.672   6.289
 3384POPC   C2B44936   9.374  36.602   6.642
 3384POPC   C3B44937   9.452  36.515   7.080
 3384POPC   C4B44938   9.145  36.376   7.339
 3385POPC   NC344939  35.068  17.874   5.300
 3385POPC   PO444940  35.506  17.370   5.285
 3385POPC   GL144941  35.376  17.378   5.713
 3385POPC   GL244942  35.265  17.717   5.765
 3385POPC   C1A44943  35.515  17.400   6.171
 3385POPC   D2A44944  35.687  17.246   6.591
 3385POPC   C3A44945  35.472  17.437   6.928
 3385POPC   C4A44946  35.513  17.182   7.249
 3385POPC   C1B44947  35.114  17.792   6.193
 3385POPC   C2B44948  35.029  17.655   6.605
 3385POPC   C3B44949  35.008  17.776   7.025
 3385POPC   C4B44950  35.122  17.497   7.365
 3386POPC   NC344951  23.339  31.598   5.534
 3386POPC   PO444952  23.815  31.192   5.430
 3386POPC   GL144953  23.783  31.392   5.816
 3386POPC   GL244954  23.497  31.201   5.948
 3386POPC   C1A44955  23.905  31.322   6.252
 3386POPC   D2A44956  23.733  31.408   6.672
 3386POPC   C3A44957  23.960  31.538   7.036
 3386POPC   C4A44958  24.080  31.368   7.424
 3386POPC   C1B44959  23.418  31.557   6.237
 3386POPC   C2B44960  23.289  31.679   6.662
 3386POPC   C3B44961  23.497  31.746   7.048
 3386POPC   C4B44962  23.607  31.510   7.418
 3387POPC   NC344963  38.287  19.005   5.315
 3387POPC   PO444964  38.793  19.505   5.418
 3387POPC   GL144965  38.711  19.278   5.797
 3387POPC   GL244966  38.747  18.912   5.789
 3387POPC   C1A44967  38.612  19.428   6.212
 3387POPC   D2A44968  38.302  19.399   6.523
 3387POPC   C3A44969  38.481  19.386   6.918
 3387POPC   C4A44970  38.305  19.227   7.311
 3387POPC   C1B44971  38.416  18.953   6.123
 3387POPC   C2B44972  38.505  18.832   6.547
 3387POPC   C3B44973  38.461  18.877   6.985
 3387POPC   C4B44974  38.366  18.686   7.370
 3388POPC   NC344975  40.458  29.221   5.127
 3388POPC   PO444976  41.004  29.283   5.528
 3388POPC   GL144977  40.903  29.119   5.907
 3388POPC   GL244978  40.730  28.802   5.979
 3388POPC   C1A44979  40.693  29.206   6.299
 3388POPC   D2A44980  40.875  29.286   6.680
 3388POPC   C3A44981  40.604  29.370   6.996
 3388POPC   C4A44982  40.828  29.231   7.344
 3388POPC   C1B44983  40.390  28.781   6.309
 3388POPC   C2B44984  40.405  28.958   6.725
 3388POPC   C3B44985  40.604  28.860   7.099
 3388POPC   C4B44986  40.538  28.872   7.559
 3389POPC   NC344987  43.998  20.373   5.401
 3389POPC   PO444988  43.419  20.718   5.329
 3389POPC   GL144989  43.728  20.767   5.686
 3389POPC   GL244990  43.755  20.466   5.844
 3389POPC   C1A44991  43.909  20.856   6.131
 3389POPC   D2A44992  43.885  20.639   6.541
 3389POPC   C3A44993  44.008  20.831   6.937
 3389POPC   C4A44994  43.830  20.948   7.310
 3389POPC   C1B44995  43.703  20.242   6.222
 3389POPC   C2B44996  43.965  20.122   6.550
 3389POPC   C3B44997  43.831  20.196   6.931
 3389POPC   C4B44998  43.917  20.438   7.273
 3390POPC   NC344999  14.088  24.810   5.401
 3390POPC   PO445000  14.280  25.464   5.403
 3390POPC   GL145001  14.360  25.357   5.816
 3390POPC   GL245002  14.062  25.539   5.899
 3390POPC   C1A45003  14.382  25.187   6.255
 3390POPC   D2A45004  14.608  24.953   6.599
 3390POPC   C3A45005  14.635  25.060   7.045
 3390POPC   C4A45006  14.631  25.107   7.497
 3390POPC   C1B45007  14.141  25.651   6.310
 3390POPC   C2B45008  14.213  25.417   6.700
 3390POPC   C3B45009  14.204  25.308   7.129
 3390POPC   C4B45010  14.313  25.524   7.476
 3391POPC   NC345011  43.897   5.970   5.373
 3391POPC   PO445012  44.330   6.321   5.682
 3391POPC   GL145013  44.037   6.088   5.889
 3391POPC   GL245014  43.970   5.754   5.827
 3391POPC   C1A45015  43.874   5.938   6.293
 3391POPC   D2A45016  43.998   5.921   6.711
 3391POPC   C3A45017  43.825   6.118   7.037
 3391POPC   C4A45018  43.872   5.838   7.323
 3391POPC   C1B45019  43.529   5.680   5.993
 3391POPC   C2B45020  43.442   5.595   6.432
 3391POPC   C3B45021  43.596   5.637   6.881
 3391POPC   C4B45022  43.383   5.644   7.294
 3392POPC   NC345023  11.630  16.930   5.305
 3392POPC   PO445024  11.060  16.739   5.297
 3392POPC   GL145025  11.339  16.624   5.690
 3392POPC   GL245026  11.671  16.455   5.604
 3392POPC   C1A45027  11.404  16.654   6.196
 3392POPC   D2A45028  11.487  16.843   6.648
 3392POPC   C3A45029  11.295  16.788   7.091
 3392POPC   C4A45030  11.134  16.664   7.515
 3392POPC   C1B45031  11.824  16.419   6.021
 3392POPC   C2B45032  11.860  16.477   6.506
 3392POPC   C3B45033  11.628  16.414   6.912
 3392POPC   C4B45034  11.589  16.457   7.366
 3393POPC   NC345035  24.864  37.935   5.556
 3393POPC   PO445036  24.276  38.218   5.464
 3393POPC   GL145037  24.488  38.530   5.798
 3393POPC   GL245038  24.845  38.678   5.833
 3393POPC   C1A45039  24.522  38.696   6.237
 3393POPC   D2A45040  24.334  38.523   6.574
 3393POPC   C3A45041  24.540  38.606   6.925
 3393POPC   C4A45042  24.426  38.400   7.256
 3393POPC   C1B45043  24.840  38.322   6.147
 3393POPC   C2B45044  24.796  38.313   6.607
 3393POPC   C3B45045  24.854  38.208   7.058
 3393POPC   C4B45046  24.916  38.566   7.323
 3394POPC   NC345047  16.192  28.193   5.656
 3394POPC   PO445048  15.575  28.586   5.472
 3394POPC   GL145049  15.784  28.430   5.824
 3394POPC   GL245050  15.679  28.122   5.951
 3394POPC   C1A45051  16.034  28.547   6.203
 3394POPC   D2A45052  16.112  28.711   6.617
 3394POPC   C3A45053  16.006  28.538   7.036
 3394POPC   C4A45054  15.711  28.277   7.261
 3394POPC   C1B45055  16.013  28.034   6.285
 3394POPC   C2B45056  16.146  28.164   6.677
 3394POPC   C3B45057  15.978  27.955   6.992
 3394POPC   C4B45058  16.060  27.885   7.379
 3395POPC   NC345059  25.885   7.674   5.291
 3395POPC   PO445060  26.310   7.252   5.540
 3395POPC   GL145061  26.135   7.466   5.870
 3395POPC   GL245062  25.793   7.537   5.788
 3395POPC   C1A45063  25.909   7.261   6.213
 3395POPC   D2A45064  25.785   7.395   6.603
 3395POPC   C3A45065  26.122   7.529   6.880
 3395POPC   C4A45066  26.233   7.362   7.292
 3395POPC   C1B45067  25.674   7.741   6.199
 3395POPC   C2B45068  25.717   7.891   6.657
 3395POPC   C3B45069  25.630   7.658   7.082
 3395POPC   C4B45070  25.773   7.787   7.540
 3396POPC   NC345071  34.158   0.551   5.565
 3396POPC   PO445072  33.623   0.158   5.570
 3396POPC   GL145073  33.842   0.362   5.909
 3396POPC   GL245074  34.133   0.174   6.032
 3396POPC   C1A45075  33.904   0.494   6.335
 3396POPC   D2A45076  33.833   0.707   6.692
 3396POPC   C3A45077  34.029   0.611   7.092
 3396POPC   C4A45078  33.625   0.570   7.208
 3396POPC   C1B45079  33.771  44.981   6.243
 3396POPC   C2B45080  33.515   0.019   6.603
 3396POPC   C3B45081  33.767   0.220   6.867
 3396POPC   C4B45082  34.193   0.116   6.928
 3397POPC   NC345083  14.678   6.945   5.139
 3397POPC   PO445084  14.405   7.514   5.319
 3397POPC   GL145085  14.456   7.507   5.790
 3397POPC   GL245086  14.766   7.704   5.839
 3397POPC   C1A45087  14.397   7.306   6.237
 3397POPC   D2A45088  14.302   7.382   6.698
 3397POPC   C3A45089  14.141   7.156   7.087
 3397POPC   C4A45090  14.344   7.194   7.517
 3397POPC   C1B45091  14.841   7.619   6.279
 3397POPC   C2B45092  14.851   7.369   6.669
 3397POPC   C3B45093  14.638   7.293   7.063
 3397POPC   C4B45094  14.436   7.649   7.277
 3398POPC   NC345095   4.696  30.379   5.522
 3398POPC   PO445096   4.431  29.771   5.394
 3398POPC   GL145097   4.211  29.843   5.766
 3398POPC   GL245098   4.281  30.216   5.804
 3398POPC   C1A45099   4.041  29.928   6.158
 3398POPC   D2A45100   4.000  30.103   6.586
 3398POPC   C3A45101   4.272  29.894   6.904
 3398POPC   C4A45102   4.273  29.643   7.284
 3398POPC   C1B45103   4.502  30.190   6.182
 3398POPC   C2B45104   4.511  30.364   6.588
 3398POPC   C3B45105   4.223  30.416   6.947
 3398POPC   C4B45106   4.105  30.154   7.310
 3399POPC   NC345107  18.646   0.264   5.433
 3399POPC   PO445108  18.838   0.983   5.377
 3399POPC   GL145109  18.838   0.693   5.736
 3399POPC   GL245110  19.113   0.454   5.856
 3399POPC   C1A45111  18.919   0.803   6.179
 3399POPC   D2A45112  19.088   0.718   6.585
 3399POPC   C3A45113  18.797   0.399   6.745
 3399POPC   C4A45114  18.864   0.280   7.177
 3399POPC   C1B45115  19.218   0.283   6.312
 3399POPC   C2B45116  19.252   0.170   6.794
 3399POPC   C3B45117  19.363   0.297   7.241
 3399POPC   C4B45118  19.476   0.266   7.697
 3400POPC   NC345119  33.909  33.349   5.296
 3400POPC   PO445120  33.513  32.852   5.421
 3400POPC   GL145121  33.619  33.089   5.742
 3400POPC   GL245122  33.968  33.012   5.707
 3400POPC   C1A45123  33.723  33.102   6.180
 3400POPC   D2A45124  33.544  33.122   6.595
 3400POPC   C3A45125  33.704  33.027   6.988
 3400POPC   C4A45126  33.490  32.868   7.348
 3400POPC   C1B45127  34.091  32.769   6.060
 3400POPC   C2B45128  34.172  32.940   6.457
 3400POPC   C3B45129  34.223  32.881   6.878
 3400POPC   C4B45130  34.163  32.880   7.280
 3401POPC   NC345131  11.752   2.649   5.646
 3401POPC   PO445132  12.159   2.367   5.201
 3401POPC   GL145133  12.283   2.558   5.664
 3401POPC   GL245134  12.130   2.846   5.884
 3401POPC   C1A45135  12.414   2.550   6.149
 3401POPC   D2A45136  12.306   2.770   6.544
 3401POPC   C3A45137  11.981   2.650   6.828
 3401POPC   C4A45138  12.027   2.775   7.241
 3401POPC   C1B45139  11.991   3.038   6.264
 3401POPC   C2B45140  11.753   3.087   6.663
 3401POPC   C3B45141  11.733   3.184   7.140
 3401POPC   C4B45142  11.738   3.043   7.585
 3402POPC   NC345143   0.912  26.564   5.272
 3402POPC   PO445144   1.558  26.679   5.520
 3402POPC   GL145145   1.188  26.830   5.728
 3402POPC   GL245146   1.311  27.173   5.778
 3402POPC   C1A45147   0.978  26.990   6.120
 3402POPC   D2A45148   1.009  26.794   6.512
 3402POPC   C3A45149   0.982  26.884   6.921
 3402POPC   C4A45150   1.135  26.608   7.241
 3402POPC   C1B45151   1.478  26.971   6.203
 3402POPC   C2B45152   1.519  26.869   6.660
 3402POPC   C3B45153   1.518  26.936   7.121
 3402POPC   C4B45154   1.576  27.210   7.496
 3403POPC   NC345155  33.953   5.790   5.406
 3403POPC   PO445156  33.516   5.448   5.630
 3403POPC   GL145157  33.688   5.853   5.894
 3403POPC   GL245158  33.964   6.092   5.828
 3403POPC   C1A45159  33.742   6.009   6.376
 3403POPC   D2A45160  33.747   6.149   6.847
 3403POPC   C3A45161  33.652   5.889   7.217
 3403POPC   C4A45162  33.647   5.944   7.673
 3403POPC   C1B45163  34.217   6.147   6.221
 3403POPC   C2B45164  34.187   5.944   6.670
 3403POPC   C3B45165  34.152   5.995   7.142
 3403POPC   C4B45166  34.139   6.025   7.581
 3404POPC   NC345167   7.438   0.764   5.094
 3404POPC   PO445168   6.997   0.535   5.488
 3404POPC   GL145169   7.271   0.349   5.813
 3404POPC   GL245170   7.322   0.685   5.932
 3404POPC   C1A45171   7.462   0.279   6.233
 3404POPC   D2A45172   7.667   0.523   6.553
 3404POPC   C3A45173   7.449   0.577   6.956
 3404POPC   C4A45174   7.340   0.272   7.179
 3404POPC   C1B45175   7.093   0.622   6.316
 3404POPC   C2B45176   7.015   0.452   6.697
 3404POPC   C3B45177   6.857   0.375   7.092
 3404POPC   C4B45178   6.998   0.592   7.430
 3405POPC   NC345179  33.838  13.836   5.273
 3405POPC   PO445180  33.892  13.196   5.156
 3405POPC   GL145181  33.692  13.416   5.600
 3405POPC   GL245182  33.591  13.792   5.708
 3405POPC   C1A45183  33.817  13.448   6.092
 3405POPC   D2A45184  33.715  13.600   6.537
 3405POPC   C3A45185  33.878  13.488   6.970
 3405POPC   C4A45186  33.882  13.825   7.250
 3405POPC   C1B45187  33.389  13.798   6.120
 3405POPC   C2B45188  33.363  13.956   6.518
 3405POPC   C3B45189  33.524  13.910   6.913
 3405POPC   C4B45190  33.316  13.766   7.286
 3406POPC   NC345191  40.549  40.494   5.420
 3406POPC   PO445192  41.082  40.848   5.529
 3406POPC   GL145193  40.827  40.784   5.859
 3406POPC   GL245194  40.491  40.871   5.781
 3406POPC   C1A45195  40.723  40.566   6.230
 3406POPC   D2A45196  40.720  40.342   6.622
 3406POPC   C3A45197  40.683  40.598   6.988
 3406POPC   C4A45198  40.898  40.923   7.213
 3406POPC   C1B45199  40.553  41.068   6.188
 3406POPC   C2B45200  40.630  40.939   6.592
 3406POPC   C3B45201  40.468  41.100   6.970
 3406POPC   C4B45202  40.412  40.889   7.367
 3407POPC   NC345203   3.636   0.965   5.456
 3407POPC   PO445204   3.333   1.550   5.412
 3407POPC   GL145205   3.599   1.413   5.726
 3407POPC   GL245206   3.324   1.178   5.814
 3407POPC   C1A45207   3.659   1.424   6.147
 3407POPC   D2A45208   3.275   1.260   6.351
 3407POPC   C3A45209   3.268   1.328   6.789
 3407POPC   C4A45210   3.610   1.324   7.143
 3407POPC   C1B45211   3.050   0.906   6.039
 3407POPC   C2B45212   3.028   0.835   6.488
 3407POPC   C3B45213   3.279   0.837   6.876
 3407POPC   C4B45214   3.177   1.055   7.248
 3408POPC   NC345215  39.532  20.932   5.610
 3408POPC   PO445216  39.511  20.197   5.485
 3408POPC   GL145217  39.497  20.439   5.843
 3408POPC   GL245218  39.118  20.453   5.839
 3408POPC   C1A45219  39.428  20.700   6.209
 3408POPC   D2A45220  39.294  20.650   6.603
 3408POPC   C3A45221  39.461  20.626   6.995
 3408POPC   C4A45222  39.175  20.402   7.210
 3408POPC   C1B45223  38.898  20.705   6.154
 3408POPC   C2B45224  38.827  20.862   6.554
 3408POPC   C3B45225  39.033  20.945   6.917
 3408POPC   C4B45226  38.988  20.949   7.319
 3409POPC   NC345227  12.468   2.711   5.124
 3409POPC   PO445228  13.050   2.777   5.399
 3409POPC   GL145229  12.875   2.953   5.753
 3409POPC   GL245230  12.532   3.069   5.694
 3409POPC   C1A45231  12.946   2.846   6.189
 3409POPC   D2A45232  12.801   2.855   6.625
 3409POPC   C3A45233  12.988   2.717   7.036
 3409POPC   C4A45234  13.004   2.353   7.357
 3409POPC   C1B45235  12.507   3.101   6.150
 3409POPC   C2B45236  12.470   3.267   6.570
 3409POPC   C3B45237  12.501   3.063   6.987
 3409POPC   C4B45238  12.810   3.154   7.296
 3410POPC   NC345239  23.031  25.055   5.371
 3410POPC   PO445240  22.908  24.413   5.277
 3410POPC   GL145241  22.864  24.446   5.726
 3410POPC   GL245242  22.785  24.821   5.768
 3410POPC   C1A45243  23.010  24.411   6.160
 3410POPC   D2A45244  22.867  24.212   6.571
 3410POPC   C3A45245  23.003  24.403   6.962
 3410POPC   C4A45246  23.145  24.663   7.330
 3410POPC   C1B45247  22.672  24.790   6.190
 3410POPC   C2B45248  22.583  24.635   6.592
 3410POPC   C3B45249  22.417  24.679   7.002
 3410POPC   C4B45250  22.466  25.077   7.171
 3411POPC   NC345251  14.527  18.868   5.455
 3411POPC   PO445252  14.177  19.457   5.366
 3411POPC   GL145253  14.330  19.257   5.749
 3411POPC   GL245254  14.699  19.255   5.829
 3411POPC   C1A45255  14.364  19.177   6.209
 3411POPC   D2A45256  14.594  19.337   6.583
 3411POPC   C3A45257  14.392  19.177   6.959
 3411POPC   C4A45258  14.232  19.039   7.354
 3411POPC   C1B45259  14.794  18.899   6.152
 3411POPC   C2B45260  14.704  18.820   6.604
 3411POPC   C3B45261  14.884  19.054   6.955
 3411POPC   C4B45262  14.739  19.156   7.365
 3412POPC   NC345263  10.020  12.979   5.636
 3412POPC   PO445264   9.416  12.828   5.444
 3412POPC   GL145265   9.546  12.822   5.857
 3412POPC   GL245266   9.780  12.561   5.832
 3412POPC   C1A45267   9.673  12.953   6.285
 3412POPC   D2A45268   9.429  13.094   6.663
 3412POPC   C3A45269   9.528  12.862   7.051
 3412POPC   C4A45270   9.613  12.979   7.479
 3412POPC   C1B45271   9.925  12.440   6.228
 3412POPC   C2B45272   9.932  12.295   6.649
 3412POPC   C3B45273   9.899  12.489   7.050
 3412POPC   C4B45274   9.793  12.485   7.465
 3413POPC   NC345275  29.824  22.030   5.381
 3413POPC   PO445276  30.297  21.713   5.439
 3413POPC   GL145277  30.285  22.119   5.689
 3413POPC   GL245278  30.015  22.371   5.785
 3413POPC   C1A45279  30.200  22.008   6.112
 3413POPC   D2A45280  30.040  21.914   6.517
 3413POPC   C3A45281  30.014  22.227   6.821
 3413POPC   C4A45282  30.130  22.043   7.178
 3413POPC   C1B45283  29.818  22.317   6.238
 3413POPC   C2B45284  29.582  22.424   6.633
 3413POPC   C3B45285  29.713  22.587   7.053
 3413POPC   C4B45286  29.672  22.249   7.314
 3414POPC   NC345287   3.007  20.395   5.428
 3414POPC   PO445288   2.500  20.902   5.580
 3414POPC   GL145289   2.693  20.600   5.841
 3414POPC   GL245290   3.036  20.645   6.005
 3414POPC   C1A45291   2.582  20.746   6.248
 3414POPC   D2A45292   2.815  20.838   6.614
 3414POPC   C3A45293   2.510  20.810   6.908
 3414POPC   C4A45294   2.470  20.986   7.287
 3414POPC   C1B45295   2.892  20.376   6.377
 3414POPC   C2B45296   2.686  20.330   6.779
 3414POPC   C3B45297   2.812  20.499   7.162
 3414POPC   C4B45298   3.129  20.812   7.045
 3415POPC   NC345299   5.320  13.781   5.144
 3415POPC   PO445300   4.808  13.400   5.296
 3415POPC   GL145301   5.037  13.634   5.673
 3415POPC   GL245302   4.801  13.812   5.895
 3415POPC   C1A45303   5.174  13.558   6.137
 3415POPC   D2A45304   5.229  13.294   6.492
 3415POPC   C3A45305   5.297  13.449   6.871
 3415POPC   C4A45306   5.045  13.595   7.215
 3415POPC   C1B45307   4.630  13.543   6.205
 3415POPC   C2B45308   4.780  13.549   6.615
 3415POPC   C3B45309   4.989  13.898   6.789
 3415POPC   C4B45310   4.988  14.128   7.176
 3416POPC   NC345311  38.114  17.287   5.245
 3416POPC   PO445312  38.445  16.661   5.320
 3416POPC   GL145313  38.451  16.622   5.752
 3416POPC   GL245314  38.283  16.910   5.818
 3416POPC   C1A45315  38.635  16.554   6.169
 3416POPC   D2A45316  38.911  16.488   6.547
 3416POPC   C3A45317  38.697  16.481   6.950
 3416POPC   C4A45318  38.722  16.654   7.366
 3416POPC   C1B45319  38.265  16.924   6.271
 3416POPC   C2B45320  38.564  16.880   6.614
 3416POPC   C3B45321  38.529  17.017   7.038
 3416POPC   C4B45322  38.265  16.868   7.378
 3417POPC   NC345323  15.514  24.533   5.454
 3417POPC   PO445324  16.174  24.290   5.496
 3417POPC   GL145325  16.113  24.348   5.921
 3417POPC   GL245326  15.795  24.487   5.887
 3417POPC   C1A45327  16.219  24.583   6.296
 3417POPC   D2A45328  16.033  24.710   6.679
 3417POPC   C3A45329  16.163  24.539   7.084
 3417POPC   C4A45330  16.050  24.730   7.453
 3417POPC   C1B45331  15.696  24.695   6.270
 3417POPC   C2B45332  15.485  24.679   6.660
 3417POPC   C3B45333  15.688  24.740   7.056
 3417POPC   C4B45334  15.675  24.404   7.366
 3418POPC   NC345335  13.097  38.938   5.213
 3418POPC   PO445336  12.575  39.309   5.182
 3418POPC   GL145337  12.868  39.115   5.630
 3418POPC   GL245338  12.972  39.401   5.876
 3418POPC   C1A45339  12.751  39.004   6.130
 3418POPC   D2A45340  12.895  39.262   6.502
 3418POPC   C3A45341  12.871  39.206   6.963
 3418POPC   C4A45342  12.566  38.994   7.204
 3418POPC   C1B45343  13.237  39.085   6.093
 3418POPC   C2B45344  13.322  38.946   6.485
 3418POPC   C3B45345  13.388  39.100   6.883
 3418POPC   C4B45346  13.196  38.871   7.207
 3419POPC   NC345347   6.842  32.245   5.105
 3419POPC   PO445348   6.782  31.670   5.445
 3419POPC   GL145349   6.853  32.032   5.756
 3419POPC   GL245350   6.597  32.291   5.830
 3419POPC   C1A45351   6.942  32.268   6.177
 3419POPC   D2A45352   6.649  32.288   6.519
 3419POPC   C3A45353   6.634  32.033   6.879
 3419POPC   C4A45354   6.693  32.158   7.303
 3419POPC   C1B45355   6.478  32.628   6.156
 3419POPC   C2B45356   6.268  32.642   6.563
 3419POPC   C3B45357   6.285  32.426   6.943
 3419POPC   C4B45358   6.255  32.433   7.374
 3420POPC   NC345359  13.638  15.480   5.460
 3420POPC   PO445360  13.992  14.860   5.499
 3420POPC   GL145361  13.690  15.082   5.833
 3420POPC   GL245362  13.793  15.427   5.924
 3420POPC   C1A45363  13.553  15.085   6.301
 3420POPC   D2A45364  13.439  14.978   6.747
 3420POPC   C3A45365  13.480  15.314   7.061
 3420POPC   C4A45366  13.554  15.256   7.494
 3420POPC   C1B45367  13.566  15.603   6.246
 3420POPC   C2B45368  13.718  15.517   6.635
 3420POPC   C3B45369  14.015  15.458   6.933
 3420POPC   C4B45370  13.863  15.584   7.303
 3421POPC   NC345371  35.018   7.850   5.437
 3421POPC   PO445372  35.635   8.217   5.455
 3421POPC   GL145373  35.510   8.096   5.846
 3421POPC   GL245374  35.184   8.180   5.824
 3421POPC   C1A45375  35.396   8.314   6.271
 3421POPC   D2A45376  35.636   8.498   6.598
 3421POPC   C3A45377  35.565   8.272   6.938
 3421POPC   C4A45378  35.260   8.415   7.188
 3421POPC   C1B45379  35.134   7.910   6.130
 3421POPC   C2B45380  35.275   7.873   6.542
 3421POPC   C3B45381  35.122   8.018   6.884
 3421POPC   C4B45382  35.098   7.941   7.297
 3422POPC   NC345383  28.257  39.293   5.376
 3422POPC   PO445384  27.830  39.298   5.902
 3422POPC   GL145385  28.314  39.311   5.884
 3422POPC   GL245386  28.536  39.008   5.906
 3422POPC   C1A45387  28.609  39.394   6.240
 3422POPC   D2A45388  28.424  39.543   6.643
 3422POPC   C3A45389  28.552  39.355   7.063
 3422POPC   C4A45390  28.336  39.246   7.477
 3422POPC   C1B45391  28.281  38.997   6.290
 3422POPC   C2B45392  28.494  39.025   6.666
 3422POPC   C3B45393  28.370  38.876   7.070
 3422POPC   C4B45394  28.238  38.733   7.492
 3423POPC   NC345395  30.618  23.944   5.396
 3423POPC   PO445396  30.440  23.302   5.605
 3423POPC   GL145397  30.698  23.556   5.856
 3423POPC   GL245398  30.745  23.925   5.879
 3423POPC   C1A45399  30.731  23.569   6.296
 3423POPC   D2A45400  30.467  23.747   6.619
 3423POPC   C3A45401  30.685  23.631   6.956
 3423POPC   C4A45402  30.736  23.422   7.324
 3423POPC   C1B45403  30.706  24.083   6.227
 3423POPC   C2B45404  30.888  23.987   6.566
 3423POPC   C3B45405  30.660  24.134   6.920
 3423POPC   C4B45406  30.773  24.021   7.294
 3424POPC   NC345407  37.808  44.244   5.347
 3424POPC   PO445408  37.743  44.842   5.382
 3424POPC   GL145409  37.659  44.548   5.737
 3424POPC   GL245410  37.966  44.692   5.846
 3424POPC   C1A45411  37.461  44.338   6.126
 3424POPC   D2A45412  37.285  44.289   6.581
 3424POPC   C3A45413  37.420  44.540   6.913
 3424POPC   C4A45414  37.508  44.890   7.145
 3424POPC   C1B45415  37.961  44.456   6.222
 3424POPC   C2B45416  37.835  44.320   6.627
 3424POPC   C3B45417  37.921  44.566   7.008
 3424POPC   C4B45418  38.000   0.011   7.164
 3425POPC   NC345419  28.033  10.146   5.491
 3425POPC   PO445420  28.597  10.501   5.415
 3425POPC   GL145421  28.492  10.322   5.797
 3425POPC   GL245422  28.217  10.513   5.822
 3425POPC   C1A45423  28.617  10.362   6.229
 3425POPC   D2A45424  28.683  10.624   6.577
 3425POPC   C3A45425  28.628  10.432   6.953
 3425POPC   C4A45426  28.438  10.361   7.314
 3425POPC   C1B45427  28.108  10.308   6.200
 3425POPC   C2B45428  28.231  10.370   6.626
 3425POPC   C3B45429  28.117  10.594   7.011
 3425POPC   C4B45430  28.019  10.619   7.476
 3426POPC   NC345431  13.964   4.813   5.444
 3426POPC   PO445432  14.646   4.737   5.415
 3426POPC   GL145433  14.379   4.891   5.794
 3426POPC   GL245434  14.345   5.210   5.888
 3426POPC   C1A45435  14.325   4.890   6.268
 3426POPC   D2A45436  14.172   4.995   6.688
 3426POPC   C3A45437  14.211   4.751   7.076
 3426POPC   C4A45438  14.155   4.946   7.453
 3426POPC   C1B45439  14.432   5.430   6.261
 3426POPC   C2B45440  14.555   5.372   6.673
 3426POPC   C3B45441  14.458   5.198   7.065
 3426POPC   C4B45442  14.514   5.354   7.482
 3427POPC   NC345443  19.523  39.372   5.559
 3427POPC   PO445444  20.084  39.127   5.242
 3427POPC   GL145445  20.007  39.225   5.695
 3427POPC   GL245446  19.776  38.950   5.798
 3427POPC   C1A45447  19.899  39.328   6.148
 3427POPC   D2A45448  19.960  39.204   6.594
 3427POPC   C3A45449  19.714  39.338   6.974
 3427POPC   C4A45450  20.038  39.434   7.272
 3427POPC   C1B45451  19.774  38.819   6.259
 3427POPC   C2B45452  19.710  38.779   6.723
 3427POPC   C3B45453  19.979  38.920   7.086
 3427POPC   C4B45454  20.175  38.916   7.507
 3428POPC   NC345455  10.007   4.881   5.386
 3428POPC   PO445456   9.768   5.361   5.108
 3428POPC   GL145457   9.645   5.131   5.608
 3428POPC   GL245458   9.964   5.226   5.776
 3428POPC   C1A45459   9.626   5.089   6.141
 3428POPC   D2A45460   9.614   5.325   6.591
 3428POPC   C3A45461   9.437   5.095   6.986
 3428POPC   C4A45462   9.598   4.949   7.379
 3428POPC   C1B45463  10.132   5.110   6.187
 3428POPC   C2B45464  10.000   5.007   6.625
 3428POPC   C3B45465   9.943   5.151   7.058
 3428POPC   C4B45466  10.080   5.173   7.492
 3429POPC   NC345467  42.499  41.055   5.596
 3429POPC   PO445468  42.392  41.702   5.464
 3429POPC   GL145469  42.194  41.552   5.835
 3429POPC   GL245470  42.036  41.884   5.823
 3429POPC   C1A45471  42.080  41.401   6.251
 3429POPC   D2A45472  41.922  41.074   6.521
 3429POPC   C3A45473  42.143  41.167   6.905
 3429POPC   C4A45474  42.388  41.421   7.180
 3429POPC   C1B45475  42.203  41.907   6.227
 3429POPC   C2B45476  42.492  41.974   6.544
 3429POPC   C3B45477  42.468  41.910   6.964
 3429POPC   C4B45478  42.123  41.892   7.207
 3430POPC   NC345479  24.177  16.013   5.293
 3430POPC   PO445480  24.523  15.550   5.383
 3430POPC   GL145481  24.390  15.795   5.786
 3430POPC   GL245482  24.383  16.166   5.728
 3430POPC   C1A45483  24.528  15.842   6.266
 3430POPC   D2A45484  24.643  15.663   6.699
 3430POPC   C3A45485  24.597  15.839   7.116
 3430POPC   C4A45486  24.810  16.165   7.386
 3430POPC   C1B45487  24.371  16.352   6.124
 3430POPC   C2B45488  24.350  16.525   6.534
 3430POPC   C3B45489  24.436  16.327   6.943
 3430POPC   C4B45490  24.292  16.180   7.348
 3431POPC   NC345491  35.634  24.320   5.569
 3431POPC   PO445492  35.187  24.897   5.525
 3431POPC   GL145493  35.286  24.705   5.896
 3431POPC   GL245494  35.614  24.821   5.881
 3431POPC   C1A45495  35.148  24.688   6.346
 3431POPC   D2A45496  34.963  24.395   6.634
 3431POPC   C3A45497  35.100  24.403   7.045
 3431POPC   C4A45498  35.428  24.313   7.295
 3431POPC   C1B45499  35.669  24.660   6.295
 3431POPC   C2B45500  35.511  24.549   6.712
 3431POPC   C3B45501  35.617  24.754   7.093
 3431POPC   C4B45502  35.875  24.511   7.381
 3432POPC   NC345503  41.716  21.818   5.430
 3432POPC   PO445504  41.358  21.341   5.153
 3432POPC   GL145505  41.337  21.304   5.656
 3432POPC   GL245506  41.364  21.650   5.775
 3432POPC   C1A45507  41.554  21.300   6.098
 3432POPC   D2A45508  41.722  21.632   6.387
 3432POPC   C3A45509  41.599  21.550   6.818
 3432POPC   C4A45510  41.809  21.266   7.120
 3432POPC   C1B45511  41.020  21.658   6.078
 3432POPC   C2B45512  41.132  21.617   6.517
 3432POPC   C3B45513  41.094  21.638   6.967
 3432POPC   C4B45514  41.342  21.440   7.274
 3433POPC   NC345515  27.925  12.375   5.299
 3433POPC   PO445516  27.355  12.098   5.218
 3433POPC   GL145517  27.587  11.908   5.620
 3433POPC   GL245518  27.312  11.697   5.792
 3433POPC   C1A45519  27.782  11.934   6.083
 3433POPC   D2A45520  27.623  11.985   6.552
 3433POPC   C3A45521  27.798  12.209   6.962
 3433POPC   C4A45522  27.855  12.076   7.401
 3433POPC   C1B45523  27.251  11.952   6.179
 3433POPC   C2B45524  27.188  12.277   6.504
 3433POPC   C3B45525  27.293  12.393   6.936
 3433POPC   C4B45526  27.365  12.084   7.231
 3434POPC   NC345527  41.222  16.611   5.471
 3434POPC   PO445528  41.933  16.373   5.468
 3434POPC   GL145529  41.795  16.516   5.883
 3434POPC   GL245530  41.591  16.786   5.819
 3434POPC   C1A45531  41.738  16.626   6.318
 3434POPC   D2A45532  41.682  16.811   6.722
 3434POPC   C3A45533  41.622  16.611   7.101
 3434POPC   C4A45534  41.908  16.791   7.405
 3434POPC   C1B45535  41.534  17.077   6.158
 3434POPC   C2B45536  41.295  17.070   6.523
 3434POPC   C3B45537  41.240  16.958   6.960
 3434POPC   C4B45538  41.060  17.171   7.316
 3435POPC   NC345539  40.948  30.594   5.525
 3435POPC   PO445540  40.692  31.155   5.342
 3435POPC   GL145541  40.640  30.930   5.768
 3435POPC   GL245542  40.584  30.554   5.878
 3435POPC   C1A45543  40.755  30.972   6.199
 3435POPC   D2A45544  40.916  30.671   6.521
 3435POPC   C3A45545  41.015  30.772   6.962
 3435POPC   C4A45546  40.808  31.130   7.200
 3435POPC   C1B45547  40.609  30.318   6.266
 3435POPC   C2B45548  40.535  30.365   6.711
 3435POPC   C3B45549  40.501  30.279   7.153
 3435POPC   C4B45550  40.576  30.479   7.532
 3436POPC   NC345551   2.436  17.301   5.297
 3436POPC   PO445552   3.059  17.265   5.473
 3436POPC   GL145553   2.732  17.409   5.759
 3436POPC   GL245554   2.750  17.791   5.692
 3436POPC   C1A45555   2.559  17.299   6.202
 3436POPC   D2A45556   2.387  17.290   6.663
 3436POPC   C3A45557   2.669  17.290   7.033
 3436POPC   C4A45558   2.675  17.645   7.280
 3436POPC   C1B45559   2.955  17.722   6.094
 3436POPC   C2B45560   2.784  17.682   6.493
 3436POPC   C3B45561   2.993  17.643   6.861
 3436POPC   C4B45562   3.174  17.598   7.252
 3437POPC   NC345563   7.124  26.277   5.459
 3437POPC   PO445564   7.516  25.784   5.313
 3437POPC   GL145565   7.438  25.706   5.740
 3437POPC   GL245566   7.455  26.044   5.803
 3437POPC   C1A45567   7.185  25.779   6.138
 3437POPC   D2A45568   7.190  26.065   6.510
 3437POPC   C3A45569   7.197  25.883   6.907
 3437POPC   C4A45570   7.277  25.959   7.311
 3437POPC   C1B45571   7.622  26.108   6.227
 3437POPC   C2B45572   7.725  25.949   6.648
 3437POPC   C3B45573   7.720  26.070   7.076
 3437POPC   C4B45574   7.723  26.494   7.211
 3438POPC   NC345575  35.154   6.606   5.402
 3438POPC   PO445576  35.755   6.541   5.430
 3438POPC   GL145577  35.683   6.764   5.795
 3438POPC   GL245578  35.313   6.815   5.840
 3438POPC   C1A45579  35.629   6.775   6.221
 3438POPC   D2A45580  35.424   6.708   6.562
 3438POPC   C3A45581  35.634   6.778   6.968
 3438POPC   C4A45582  35.804   6.524   7.308
 3438POPC   C1B45583  35.026   6.801   6.218
 3438POPC   C2B45584  34.905   6.633   6.606
 3438POPC   C3B45585  35.102   6.759   6.940
 3438POPC   C4B45586  35.278   6.704   7.319
 3439POPC   NC345587  42.142  12.668   5.473
 3439POPC   PO445588  42.326  12.102   5.231
 3439POPC   GL145589  42.177  12.017   5.649
 3439POPC   GL245590  42.026  12.310   5.836
 3439POPC   C1A45591  42.364  11.921   6.069
 3439POPC   D2A45592  42.504  12.079   6.486
 3439POPC   C3A45593  42.246  11.973   6.838
 3439POPC   C4A45594  42.129  12.096   7.249
 3439POPC   C1B45595  42.068  12.532   6.267
 3439POPC   C2B45596  41.861  12.692   6.669
 3439POPC   C3B45597  42.028  12.616   7.096
 3439POPC   C4B45598  42.203  12.597   7.529
 3440POPC   NC345599  26.056   8.489   5.622
 3440POPC   PO445600  26.096   9.070   5.224
 3440POPC   GL145601  26.111   8.997   5.720
 3440POPC   GL245602  26.369   8.804   5.865
 3440POPC   C1A45603  26.024   8.844   6.220
 3440POPC   D2A45604  25.878   8.796   6.674
 3440POPC   C3A45605  25.913   9.160   6.929
 3440POPC   C4A45606  26.131   9.121   7.275
 3440POPC   C1B45607  26.500   8.588   6.245
 3440POPC   C2B45608  26.578   8.726   6.660
 3440POPC   C3B45609  26.318   8.725   7.009
 3440POPC   C4B45610  26.313   8.674   7.456
 3441POPC   NC345611  39.686  11.257   5.151
 3441POPC   PO445612  40.231  11.596   5.422
 3441POPC   GL145613  40.027  11.437   5.796
 3441POPC   GL245614  40.137  11.134   5.898
 3441POPC   C1A45615  39.879  11.501   6.232
 3441POPC   D2A45616  40.032  11.550   6.654
 3441POPC   C3A45617  39.765  11.538   6.993
 3441POPC   C4A45618  39.967  11.472   7.359
 3441POPC   C1B45619  40.331  11.236   6.252
 3441POPC   C2B45620  40.170  11.078   6.610
 3441POPC   C3B45621  40.044  11.098   7.040
 3441POPC   C4B45622  40.275  11.034   7.437
 3442POPC   NC345623  42.313  42.143   5.396
 3442POPC   PO445624  42.544  42.781   5.384
 3442POPC   GL145625  42.402  42.552   5.724
 3442POPC   GL245626  42.052  42.509   5.682
 3442POPC   C1A45627  42.474  42.339   6.126
 3442POPC   D2A45628  42.662  42.477   6.521
 3442POPC   C3A45629  42.402  42.417   6.879
 3442POPC   C4A45630  42.462  42.310   7.316
 3442POPC   C1B45631  41.955  42.374   6.139
 3442POPC   C2B45632  41.998  42.220   6.598
 3442POPC   C3B45633  41.920  42.327   7.048
 3442POPC   C4B45634  42.120  42.674   7.281
 3443POPC   NC345635  14.203  16.925   5.451
 3443POPC   PO445636  14.730  16.427   5.388
 3443POPC   GL145637  14.588  16.750   5.733
 3443POPC   GL245638  14.409  16.564   5.915
 3443POPC   C1A45639  14.637  16.969   6.148
 3443POPC   D2A45640  14.637  17.281   6.500
 3443POPC   C3A45641  14.633  17.061   6.910
 3443POPC   C4A45642  14.428  16.883   7.280
 3443POPC   C1B45643  14.320  16.486   6.336
 3443POPC   C2B45644  14.438  16.551   6.759
 3443POPC   C3B45645  14.287  16.427   7.139
 3443POPC   C4B45646  14.135  16.340   7.540
 3444POPC   NC345647  17.512  37.816   5.494
 3444POPC   PO445648  18.014  37.485   5.359
 3444POPC   GL145649  17.947  37.572   5.790
 3444POPC   GL245650  17.588  37.503   5.902
 3444POPC   C1A45651  17.947  37.811   6.160
 3444POPC   D2A45652  17.806  38.022   6.516
 3444POPC   C3A45653  17.686  37.688   6.801
 3444POPC   C4A45654  17.940  37.476   7.062
 3444POPC   C1B45655  17.414  37.830   6.179
 3444POPC   C2B45656  17.304  37.961   6.608
 3444POPC   C3B45657  17.296  37.954   7.042
 3444POPC   C4B45658  17.395  37.622   7.304
 3445POPC   NC345659   9.973   9.228   5.657
 3445POPC   PO445660   9.787   9.748   5.254
 3445POPC   GL145661   9.899   9.886   5.696
 3445POPC   GL245662  10.256   9.842   5.813
 3445POPC   C1A45663   9.668   9.940   6.128
 3445POPC   D2A45664   9.494   9.668   6.471
 3445POPC   C3A45665   9.750   9.481   6.798
 3445POPC   C4A45666   9.598   9.524   7.222
 3445POPC   C1B45667  10.156   9.823   6.244
 3445POPC   C2B45668  10.314  10.008   6.599
 3445POPC   C3B45669  10.113   9.981   6.949
 3445POPC   C4B45670  10.083   9.625   7.154
 3446POPC   NC345671  10.046  13.961   5.449
 3446POPC   PO445672  10.678  13.704   5.304
 3446POPC   GL145673  10.484  13.578   5.694
 3446POPC   GL245674  10.772  13.685   5.936
 3446POPC   C1A45675  10.517  13.262   6.067
 3446POPC   D2A45676  10.709  13.405   6.465
 3446POPC   C3A45677  10.454  13.248   6.842
 3446POPC   C4A45678  10.223  13.483   7.147
 3446POPC   C1B45679  10.333  13.731   6.146
 3446POPC   C2B45680  10.291  13.669   6.580
 3446POPC   C3B45681  10.624  13.727   6.879
 3446POPC   C4B45682  10.665  13.705   7.289
 3447POPC   NC345683  24.933  35.245   5.258
 3447POPC   PO445684  24.475  35.701   5.411
 3447POPC   GL145685  24.591  35.441   5.756
 3447POPC   GL245686  24.247  35.335   5.767
 3447POPC   C1A45687  24.825  35.384   6.173
 3447POPC   D2A45688  24.806  35.580   6.579
 3447POPC   C3A45689  24.738  35.560   7.037
 3447POPC   C4A45690  24.611  35.254   7.329
 3447POPC   C1B45691  24.383  35.101   6.137
 3447POPC   C2B45692  24.463  35.144   6.579
 3447POPC   C3B45693  24.245  35.172   6.959
 3447POPC   C4B45694  24.121  35.201   7.415
 3448POPC   NC345695  19.742  25.783   5.385
 3448POPC   PO445696  19.503  26.433   5.686
 3448POPC   GL145697  19.642  26.075   5.856
 3448POPC   GL245698  19.924  25.883   5.894
 3448POPC   C1A45699  19.789  26.169   6.287
 3448POPC   D2A45700  19.702  25.982   6.705
 3448POPC   C3A45701  19.868  26.205   7.066
 3448POPC   C4A45702  19.682  26.384   7.429
 3448POPC   C1B45703  19.914  25.673   6.303
 3448POPC   C2B45704  20.069  25.575   6.705
 3448POPC   C3B45705  19.945  25.704   7.100
 3448POPC   C4B45706  19.843  25.904   7.490
 3449POPC   NC345707   2.232  32.296   5.640
 3449POPC   PO445708   1.724  32.293   5.208
 3449POPC   GL145709   1.738  32.255   5.708
 3449POPC   GL245710   1.905  32.617   5.826
 3449POPC   C1A45711   1.712  32.043   6.160
 3449POPC   D2A45712   1.984  31.995   6.582
 3449POPC   C3A45713   1.879  32.152   7.031
 3449POPC   C4A45714   2.156  32.106   7.463
 3449POPC   C1B45715   1.907  32.507   6.238
 3449POPC   C2B45716   1.949  32.507   6.654
 3449POPC   C3B45717   2.189  32.574   7.004
 3449POPC   C4B45718   1.962  32.555   7.345
 3450POPC   NC345719   9.252  39.046   5.581
 3450POPC   PO445720   8.703  39.363   5.395
 3450POPC   GL145721   8.816  39.215   5.814
 3450POPC   GL245722   8.763  38.840   5.811
 3450POPC   C1A45723   9.099  39.402   6.156
 3450POPC   D2A45724   9.295  39.575   6.546
 3450POPC   C3A45725   9.154  39.396   6.957
 3450POPC   C4A45726   8.986  39.334   7.415
 3450POPC   C1B45727   9.010  38.888   6.198
 3450POPC   C2B45728   9.056  38.997   6.626
 3450POPC   C3B45729   8.985  38.920   7.090
 3450POPC   C4B45730   8.796  38.850   7.525
 3451POPC   NC345731  30.633  17.511   4.940
 3451POPC   PO445732  30.970  17.406   5.481
 3451POPC   GL145733  30.953  17.720   5.797
 3451POPC   GL245734  30.594  17.660   5.832
 3451POPC   C1A45735  31.117  17.870   6.209
 3451POPC   D2A45736  30.997  17.893   6.656
 3451POPC   C3A45737  30.921  17.579   6.918
 3451POPC   C4A45738  30.938  17.520   7.332
 3451POPC   C1B45739  30.650  17.678   6.293
 3451POPC   C2B45740  30.475  17.748   6.703
 3451POPC   C3B45741  30.459  17.663   7.156
 3451POPC   C4B45742  30.171  17.530   7.504
 3452POPC   NC345743   5.538  30.374   5.369
 3452POPC   PO445744   5.992  29.941   5.376
 3452POPC   GL145745   5.924  29.699   5.748
 3452POPC   GL245746   5.544  29.625   5.725
 3452POPC   C1A45747   6.085  29.836   6.168
 3452POPC   D2A45748   6.218  30.041   6.554
 3452POPC   C3A45749   6.230  29.822   6.959
 3452POPC   C4A45750   6.107  30.122   7.297
 3452POPC   C1B45751   5.496  29.920   6.074
 3452POPC   C2B45752   5.661  30.054   6.487
 3452POPC   C3B45753   5.756  29.976   6.927
 3452POPC   C4B45754   5.828  29.655   7.290
 3453POPC   NC345755   5.208   1.820   5.451
 3453POPC   PO445756   5.534   2.434   5.483
 3453POPC   GL145757   5.336   2.178   5.843
 3453POPC   GL245758   5.144   1.831   5.941
 3453POPC   C1A45759   5.433   2.062   6.256
 3453POPC   D2A45760   5.288   2.182   6.616
 3453POPC   C3A45761   5.297   1.942   6.947
 3453POPC   C4A45762   5.218   2.012   7.351
 3453POPC   C1B45763   4.907   2.114   6.206
 3453POPC   C2B45764   4.801   2.266   6.623
 3453POPC   C3B45765   4.798   2.013   7.003
 3453POPC   C4B45766   4.933   1.611   7.182
 3454POPC   NC345767  41.865   2.988   5.163
 3454POPC   PO445768  41.860   2.404   5.478
 3454POPC   GL145769  41.655   2.734   5.739
 3454POPC   GL245770  41.853   2.987   5.914
 3454POPC   C1A45771  41.607   2.715   6.239
 3454POPC   D2A45772  41.779   2.703   6.676
 3454POPC   C3A45773  41.476   2.613   7.019
 3454POPC   C4A45774  41.401   2.816   7.434
 3454POPC   C1B45775  41.974   3.137   6.338
 3454POPC   C2B45776  42.010   3.135   6.811
 3454POPC   C3B45777  41.859   2.909   7.176
 3454POPC   C4B45778  41.899   2.944   7.611
 3455POPC   NC345779   5.488  35.601   5.147
 3455POPC   PO445780   5.254  34.974   5.440
 3455POPC   GL145781   5.076  35.183   5.812
 3455POPC   GL245782   5.371  35.411   5.728
 3455POPC   C1A45783   4.866  35.359   6.235
 3455POPC   D2A45784   4.931  35.584   6.662
 3455POPC   C3A45785   4.943  35.349   7.062
 3455POPC   C4A45786   5.303  35.211   7.324
 3455POPC   C1B45787   5.369  35.342   6.183
 3455POPC   C2B45788   5.452  35.611   6.517
 3455POPC   C3B45789   5.396  35.525   6.918
 3455POPC   C4B45790   5.630  35.608   7.271
 3456POPC   NC345791   2.554  13.357   5.515
 3456POPC   PO445792   2.869  12.754   5.414
 3456POPC   GL145793   2.841  12.669   5.818
 3456POPC   GL245794   2.878  13.035   5.831
 3456POPC   C1A45795   2.710  12.443   6.189
 3456POPC   D2A45796   2.938  12.611   6.525
 3456POPC   C3A45797   2.749  12.650   6.921
 3456POPC   C4A45798   2.793  12.699   7.354
 3456POPC   C1B45799   2.996  13.099   6.235
 3456POPC   C2B45800   2.862  13.152   6.626
 3456POPC   C3B45801   2.810  13.143   7.038
 3456POPC   C4B45802   2.415  13.049   7.224
 3457POPC   NC345803  42.901   0.260   5.160
 3457POPC   PO445804  42.422   0.655   5.367
 3457POPC   GL145805  42.435   0.490   5.805
 3457POPC   GL245806  42.730   0.298   5.906
 3457POPC   C1A45807  42.262   0.316   6.198
 3457POPC   D2A45808  41.951   0.201   6.505
 3457POPC   C3A45809  42.161   0.206   6.885
 3457POPC   C4A45810  42.317   0.482   7.195
 3457POPC   C1B45811  42.738   0.476   6.290
 3457POPC   C2B45812  42.597   0.332   6.646
 3457POPC   C3B45813  42.685   0.158   7.007
 3457POPC   C4B45814  42.626   0.147   7.452
 3458POPC   NC345815  32.032  10.241   5.431
 3458POPC   PO445816  32.203  10.905   5.669
 3458POPC   GL145817  32.231  10.491   5.831
 3458POPC   GL245818  31.905  10.399   5.913
 3458POPC   C1A45819  32.307  10.388   6.244
 3458POPC   D2A45820  32.475  10.675   6.536
 3458POPC   C3A45821  32.397  10.614   6.974
 3458POPC   C4A45822  32.052  10.537   7.238
 3458POPC   C1B45823  31.957  10.748   6.268
 3458POPC   C2B45824  31.982  10.682   6.693
 3458POPC   C3B45825  31.976  10.968   7.012
 3458POPC   C4B45826  32.062  11.042   7.407
 3459POPC   NC345827  28.602  31.649   5.430
 3459POPC   PO445828  28.401  30.936   5.339
 3459POPC   GL145829  28.480  31.242   5.712
 3459POPC   GL245830  28.220  31.489   5.742
 3459POPC   C1A45831  28.542  31.482   6.133
 3459POPC   D2A45832  28.357  31.499   6.582
 3459POPC   C3A45833  28.553  31.436   7.019
 3459POPC   C4A45834  28.535  31.177   7.416
 3459POPC   C1B45835  28.043  31.626   6.151
 3459POPC   C2B45836  27.852  31.627   6.586
 3459POPC   C3B45837  28.056  31.607   7.012
 3459POPC   C4B45838  28.265  31.623   7.427
 3460POPC   NC345839  19.686  30.510   5.375
 3460POPC   PO445840  20.175  30.945   5.318
 3460POPC   GL145841  19.855  30.871   5.696
 3460POPC   GL245842  19.885  30.525   5.849
 3460POPC   C1A45843  19.595  30.901   6.107
 3460POPC   D2A45844  19.359  30.799   6.535
 3460POPC   C3A45845  19.471  30.842   6.978
 3460POPC   C4A45846  19.649  30.709   7.405
 3460POPC   C1B45847  20.082  30.771   6.177
 3460POPC   C2B45848  19.878  30.859   6.585
 3460POPC   C3B45849  19.975  30.759   7.016
 3460POPC   C4B45850  20.127  30.870   7.464
 3461POPC   NC345851  12.366  11.362   5.454
 3461POPC   PO445852  11.711  11.561   5.499
 3461POPC   GL145853  11.986  11.479   5.808
 3461POPC   GL245854  11.966  11.121   5.763
 3461POPC   C1A45855  12.191  11.504   6.198
 3461POPC   D2A45856  11.936  11.394   6.556
 3461POPC   C3A45857  12.053  11.548   6.936
 3461POPC   C4A45858  11.937  11.678   7.291
 3461POPC   C1B45859  12.027  11.017   6.190
 3461POPC   C2B45860  12.301  11.010   6.509
 3461POPC   C3B45861  12.160  11.065   6.889
 3461POPC   C4B45862  12.172  11.191   7.284
 3462POPC   NC345863  36.480  20.825   5.505
 3462POPC   PO445864  35.932  20.568   5.286
 3462POPC   GL145865  36.139  20.500   5.715
 3462POPC   GL245866  36.476  20.395   5.829
 3462POPC   C1A45867  36.233  20.763   6.100
 3462POPC   D2A45868  36.005  20.786   6.477
 3462POPC   C3A45869  36.193  20.773   6.878
 3462POPC   C4A45870  35.970  20.750   7.279
 3462POPC   C1B45871  36.212  20.274   6.213
 3462POPC   C2B45872  35.948  20.158   6.557
 3462POPC   C3B45873  35.944  20.329   6.978
 3462POPC   C4B45874  36.328  20.381   7.235
 3463POPC   NC345875  15.954  27.451   5.493
 3463POPC   PO445876  16.075  26.789   5.363
 3463POPC   GL145877  16.221  26.889   5.770
 3463POPC   GL245878  15.964  27.126   5.888
 3463POPC   C1A45879  16.263  26.620   6.173
 3463POPC   D2A45880  16.088  26.430   6.587
 3463POPC   C3A45881  16.165  26.714   6.958
 3463POPC   C4A45882  16.337  26.931   7.310
 3463POPC   C1B45883  15.945  27.015   6.330
 3463POPC   C2B45884  15.813  27.067   6.760
 3463POPC   C3B45885  15.851  27.046   7.199
 3463POPC   C4B45886  15.825  27.136   7.657
 3464POPC   NC345887  27.112   1.783   5.337
 3464POPC   PO445888  26.537   2.238   5.322
 3464POPC   GL145889  26.760   2.120   5.713
 3464POPC   GL245890  26.566   1.907   5.939
 3464POPC   C1A45891  26.878   2.228   6.157
 3464POPC   D2A45892  26.791   2.233   6.575
 3464POPC   C3A45893  27.136   2.373   6.800
 3464POPC   C4A45894  27.268   2.250   7.182
 3464POPC   C1B45895  26.884   1.741   6.275
 3464POPC   C2B45896  27.086   1.806   6.723
 3464POPC   C3B45897  26.844   2.005   7.046
 3464POPC   C4B45898  26.403   2.051   7.065
 3465POPC   NC345899  34.775  36.106   5.396
 3465POPC   PO445900  34.256  36.429   5.444
 3465POPC   GL145901  34.476  36.229   5.801
 3465POPC   GL245902  34.762  36.444   5.865
 3465POPC   C1A45903  34.510  36.038   6.221
 3465POPC   D2A45904  34.344  36.145   6.629
 3465POPC   C3A45905  34.331  35.929   7.037
 3465POPC   C4A45906  34.303  36.124   7.472
 3465POPC   C1B45907  34.920  36.360   6.296
 3465POPC   C2B45908  34.863  36.219   6.718
 3465POPC   C3B45909  34.953  36.175   7.143
 3465POPC   C4B45910  34.731  35.882   7.374
 3466POPC   NC345911  42.238  43.450   5.522
 3466POPC   PO445912  42.294  44.082   5.243
 3466POPC   GL145913  42.363  43.926   5.686
 3466POPC   GL245914  42.633  44.085   5.848
 3466POPC   C1A45915  42.209  43.810   6.113
 3466POPC   D2A45916  42.294  43.970   6.533
 3466POPC   C3A45917  42.027  43.881   6.871
 3466POPC   C4A45918  42.177  43.896   7.280
 3466POPC   C1B45919  42.711  43.808   6.225
 3466POPC   C2B45920  42.751  43.711   6.663
 3466POPC   C3B45921  42.656  43.821   7.082
 3466POPC   C4B45922  42.576  43.588   7.445
 3467POPC   NC345923  20.849  22.341   5.599
 3467POPC   PO445924  20.709  22.939   5.355
 3467POPC   GL145925  20.778  23.160   5.705
 3467POPC   GL245926  20.440  23.302   5.695
 3467POPC   C1A45927  20.706  23.009   6.133
 3467POPC   D2A45928  20.521  22.973   6.560
 3467POPC   C3A45929  20.710  22.700   6.880
 3467POPC   C4A45930  20.919  22.586   7.252
 3467POPC   C1B45931  20.250  23.254   6.134
 3467POPC   C2B45932  20.107  23.255   6.577
 3467POPC   C3B45933  20.209  23.164   7.011
 3467POPC   C4B45934  20.564  23.024   7.262
 3468POPC   NC345935   4.505  27.395   5.393
 3468POPC   PO445936   4.168  27.958   5.291
 3468POPC   GL145937   4.353  27.748   5.740
 3468POPC   GL245938   4.277  27.368   5.842
 3468POPC   C1A45939   4.264  27.697   6.218
 3468POPC   D2A45940   4.477  27.516   6.552
 3468POPC   C3A45941   4.509  27.679   6.953
 3468POPC   C4A45942   4.224  27.941   7.070
 3468POPC   C1B45943   4.191  27.184   6.257
 3468POPC   C2B45944   4.429  27.032   6.646
 3468POPC   C3B45945   4.317  27.204   7.067
 3468POPC   C4B45946   4.668  27.337   7.318
 3469POPC   NC345947  42.148  31.079   5.448
 3469POPC   PO445948  42.095  30.400   5.365
 3469POPC   GL145949  42.339  30.588   5.727
 3469POPC   GL245950  42.653  30.400   5.800
 3469POPC   C1A45951  42.257  30.763   6.158
 3469POPC   D2A45952  41.924  30.855   6.495
 3469POPC   C3A45953  42.002  30.579   6.866
 3469POPC   C4A45954  42.340  30.692   7.155
 3469POPC   C1B45955  42.733  30.543   6.228
 3469POPC   C2B45956  42.571  30.582   6.671
 3469POPC   C3B45957  42.771  30.454   7.074
 3469POPC   C4B45958  42.720  30.450   7.544
 3470POPC   NC345959   8.281  39.147   5.364
 3470POPC   PO445960   7.664  39.277   5.449
 3470POPC   GL145961   7.889  39.032   5.784
 3470POPC   GL245962   8.265  39.044   5.863
 3470POPC   C1A45963   7.893  38.857   6.192
 3470POPC   D2A45964   7.758  39.091   6.580
 3470POPC   C3A45965   8.112  39.163   6.886
 3470POPC   C4A45966   8.186  39.475   7.247
 3470POPC   C1B45967   8.447  38.892   6.270
 3470POPC   C2B45968   8.562  38.904   6.752
 3470POPC   C3B45969   8.555  39.152   7.164
 3470POPC   C4B45970   8.329  39.047   7.559
 3471POPC   NC345971  43.494  13.675   5.413
 3471POPC   PO445972  44.170  13.616   5.299
 3471POPC   GL145973  43.931  13.614   5.681
 3471POPC   GL245974  43.734  13.300   5.676
 3471POPC   C1A45975  43.987  13.593   6.126
 3471POPC   D2A45976  43.979  13.886   6.464
 3471POPC   C3A45977  44.058  13.669   6.823
 3471POPC   C4A45978  44.054  13.591   7.239
 3471POPC   C1B45979  43.602  13.270   6.109
 3471POPC   C2B45980  43.674  13.457   6.530
 3471POPC   C3B45981  43.683  13.285   6.932
 3471POPC   C4B45982  43.305  13.182   7.145
 3472POPC   NC345983   2.221  25.340   5.502
 3472POPC   PO445984   1.807  25.032   5.080
 3472POPC   GL145985   1.755  25.134   5.571
 3472POPC   GL245986   1.919  24.857   5.713
 3472POPC   C1A45987   1.813  25.346   6.028
 3472POPC   D2A45988   2.132  25.376   6.395
 3472POPC   C3A45989   2.091  25.516   6.841
 3472POPC   C4A45990   1.869  25.290   7.150
 3472POPC   C1B45991   2.096  24.917   6.116
 3472POPC   C2B45992   2.406  24.927   6.435
 3472POPC   C3B45993   2.197  25.007   6.791
 3472POPC   C4B45994   2.241  24.922   7.178
 3473POPC   NC345995  12.724  30.228   5.423
 3473POPC   PO445996  13.086  30.828   5.409
 3473POPC   GL145997  12.942  30.859   5.802
 3473POPC   GL245998  12.682  30.610   5.778
 3473POPC   C1A45999  13.036  30.782   6.203
 3473POPC   D2A46000  12.952  30.799   6.590
 3473POPC   C3A46001  13.070  30.476   6.837
 3473POPC   C4A46002  13.252  30.489   7.250
 3473POPC   C1B46003  12.780  30.365   6.125
 3473POPC   C2B46004  12.592  30.455   6.527
 3473POPC   C3B46005  12.591  30.671   6.928
 3473POPC   C4B46006  12.546  30.415   7.293
 3474POPC   NC346007  44.149  21.931   5.451
 3474POPC   PO446008  43.653  22.362   5.425
 3474POPC   GL146009  43.748  22.315   5.815
 3474POPC   GL246010  43.759  21.971   5.787
 3474POPC   C1A46011  43.915  22.238   6.221
 3474POPC   D2A46012  44.069  22.145   6.646
 3474POPC   C3A46013  43.847  22.377   6.951
 3474POPC   C4A46014  43.665  22.294   7.336
 3474POPC   C1B46015  43.785  21.750   6.177
 3474POPC   C2B46016  43.661  21.787   6.612
 3474POPC   C3B46017  43.770  21.846   7.046
 3474POPC   C4B46018  43.521  21.808   7.414
 3475POPC   NC346019  41.051  27.078   5.628
 3475POPC   PO446020  40.680  26.692   5.183
 3475POPC   GL146021  40.656  26.701   5.689
 3475POPC   GL246022  40.475  26.964   5.879
 3475POPC   C1A46023  40.702  26.622   6.185
 3475POPC   D2A46024  40.933  26.616   6.639
 3475POPC   C3A46025  40.786  26.514   7.083
 3475POPC   C4A46026  40.367  26.494   7.236
 3475POPC   C1B46027  40.566  27.173   6.263
 3475POPC   C2B46028  40.318  27.171   6.668
 3475POPC   C3B46029  40.495  26.963   7.046
 3475POPC   C4B46030  40.944  26.996   7.189
 3476POPC   NC346031   5.861   0.271   5.382
 3476POPC   PO446032   5.457   0.771   5.534
 3476POPC   GL146033   5.705   0.558   5.873
 3476POPC   GL246034   5.982   0.324   5.874
 3476POPC   C1A46035   5.969   0.716   6.241
 3476POPC   D2A46036   6.016   0.743   6.714
 3476POPC   C3A46037   5.771   0.490   7.021
 3476POPC   C4A46038   5.837   0.419   7.472
 3476POPC   C1B46039   6.221   0.242   6.266
 3476POPC   C2B46040   6.071   0.226   6.692
 3476POPC   C3B46041   6.018   0.021   7.102
 3476POPC   C4B46042   6.223  44.865   7.478
 3477POPC   NC346043  19.128  28.358   5.189
 3477POPC   PO446044  18.586  28.116   5.408
 3477POPC   GL146045  18.754  28.332   5.768
 3477POPC   GL246046  19.093  28.486   5.716
 3477POPC   C1A46047  18.909  28.332   6.203
 3477POPC   D2A46048  19.186  28.393   6.572
 3477POPC   C3A46049  19.012  28.257   6.989
 3477POPC   C4A46050  18.698  28.500   7.190
 3477POPC   C1B46051  19.283  28.697   6.116
 3477POPC   C2B46052  19.304  28.917   6.546
 3477POPC   C3B46053  19.083  28.771   6.905
 3477POPC   C4B46054  19.188  28.671   7.312
 3478POPC   NC346055  22.665   7.022   5.582
 3478POPC   PO446056  23.102   6.582   5.419
 3478POPC   GL146057  23.129   6.439   5.844
 3478POPC   GL246058  22.873   6.165   5.836
 3478POPC   C1A46059  23.178   6.634   6.276
 3478POPC   D2A46060  22.950   6.804   6.659
 3478POPC   C3A46061  22.908   6.634   7.077
 3478POPC   C4A46062  23.117   6.733   7.477
 3478POPC   C1B46063  22.767   6.305   6.275
 3478POPC   C2B46064  22.649   6.331   6.722
 3478POPC   C3B46065  22.542   6.281   7.156
 3478POPC   C4B46066  22.533   6.587   7.485
 3479POPC   NC346067  39.343  38.368   5.387
 3479POPC   PO446068  39.309  38.967   5.689
 3479POPC   GL146069  39.472  38.562   5.858
 3479POPC   GL246070  39.237  38.280   5.868
 3479POPC   C1A46071  39.468  38.392   6.306
 3479POPC   D2A46072  39.293  38.534   6.718
 3479POPC   C3A46073  39.531  38.345   7.030
 3479POPC   C4A46074  39.562  38.549   7.386
 3479POPC   C1B46075  38.972  38.492   6.146
 3479POPC   C2B46076  38.739  38.499   6.530
 3479POPC   C3B46077  38.746  38.230   6.884
 3479POPC   C4B46078  39.052  38.218   7.179
 3480POPC   NC346079  24.598   1.583   5.391
 3480POPC   PO446080  24.236   0.959   5.372
 3480POPC   GL146081  24.259   1.309   5.696
 3480POPC   GL246082  24.621   1.319   5.819
 3480POPC   C1A46083  24.219   1.443   6.127
 3480POPC   D2A46084  24.015   1.386   6.526
 3480POPC   C3A46085  24.207   1.143   6.841
 3480POPC   C4A46086  24.395   1.338   7.188
 3480POPC   C1B46087  24.826   1.214   6.205
 3480POPC   C2B46088  24.683   1.305   6.607
 3480POPC   C3B46089  24.836   1.436   6.969
 3480POPC   C4B46090  24.912   1.159   7.261
 3481POPC   NC346091  24.718  41.776   5.494
 3481POPC   PO446092  25.039  41.146   5.438
 3481POPC   GL146093  24.897  41.406   5.842
 3481POPC   GL246094  24.525  41.427   5.845
 3481POPC   C1A46095  24.754  41.753   6.147
 3481POPC   D2A46096  24.424  41.772   6.469
 3481POPC   C3A46097  24.501  41.556   6.853
 3481POPC   C4A46098  24.607  41.685   7.253
 3481POPC   C1B46099  24.544  41.282   6.304
 3481POPC   C2B46100  24.334  41.088   6.676
 3481POPC   C3B46101  24.110  41.255   7.050
 3481POPC   C4B46102  24.291  41.345   7.525
 3482POPC   NC346103  19.805  37.981   5.356
 3482POPC   PO446104  19.688  37.322   5.501
 3482POPC   GL146105  19.608  37.606   5.880
 3482POPC   GL246106  19.763  37.949   5.910
 3482POPC   C1A46107  19.615  37.602   6.363
 3482POPC   D2A46108  19.336  37.571   6.711
 3482POPC   C3A46109  19.503  37.437   7.080
 3482POPC   C4A46110  19.776  37.656   7.292
 3482POPC   C1B46111  20.028  37.873   6.287
 3482POPC   C2B46112  19.979  37.767   6.737
 3482POPC   C3B46113  20.114  37.967   7.131
 3482POPC   C4B46114  20.068  37.971   7.611
 3483POPC   NC346115  36.076   9.521   5.651
 3483POPC   PO446116  36.117   8.996   5.211
 3483POPC   GL146117  35.914   8.845   5.731
 3483POPC   GL246118  35.767   9.153   5.845
 3483POPC   C1A46119  36.133   8.738   6.184
 3483POPC   D2A46120  36.461   8.964   6.466
 3483POPC   C3A46121  36.506   8.915   6.934
 3483POPC   C4A46122  36.372   8.893   7.374
 3483POPC   C1B46123  35.907   9.187   6.291
 3483POPC   C2B46124  35.981   8.904   6.661
 3483POPC   C3B46125  36.023   9.118   7.038
 3483POPC   C4B46126  35.760   9.396   7.261
 3484POPC   NC346127  24.189  32.667   5.296
 3484POPC   PO446128  24.592  33.133   5.326
 3484POPC   GL146129  24.437  32.928   5.694
 3484POPC   GL246130  24.737  32.823   5.843
 3484POPC   C1A46131  24.387  32.990   6.159
 3484POPC   D2A46132  24.608  33.017   6.557
 3484POPC   C3A46133  24.340  32.853   6.864
 3484POPC   C4A46134  24.149  33.114   7.181
 3484POPC   C1B46135  24.731  32.600   6.229
 3484POPC   C2B46136  24.589  32.468   6.618
 3484POPC   C3B46137  24.767  32.572   7.005
 3484POPC   C4B46138  24.591  32.876   7.300
 3485POPC   NC346139  10.121  43.107   5.550
 3485POPC   PO446140   9.551  42.882   5.277
 3485POPC   GL146141   9.634  43.023   5.714
 3485POPC   GL246142   9.715  43.416   5.791
 3485POPC   C1A46143   9.688  43.096   6.179
 3485POPC   D2A46144   9.955  43.135   6.540
 3485POPC   C3A46145   9.818  43.041   6.954
 3485POPC   C4A46146   9.711  43.088   7.406
 3485POPC   C1B46147  10.014  43.496   6.172
 3485POPC   C2B46148  10.152  43.615   6.601
 3485POPC   C3B46149  10.070  43.559   7.057
 3485POPC   C4B46150  10.002  43.514   7.505
 3486POPC   NC346151  26.243  41.036   5.594
 3486POPC   PO446152  25.873  40.547   5.425
 3486POPC   GL146153  25.863  40.689   5.861
 3486POPC   GL246154  25.938  41.034   6.018
 3486POPC   C1A46155  26.059  40.582   6.255
 3486POPC   D2A46156  25.900  40.664   6.643
 3486POPC   C3A46157  26.132  40.509   6.988
 3486POPC   C4A46158  25.830  40.411   7.255
 3486POPC   C1B46159  26.328  41.025   6.286
 3486POPC   C2B46160  26.320  40.919   6.726
 3486POPC   C3B46161  26.102  41.034   7.078
 3486POPC   C4B46162  26.427  41.265   7.267
 3487POPC   NC346163  29.079  39.787   5.520
 3487POPC   PO446164  29.129  40.486   5.532
 3487POPC   GL146165  29.069  40.169   5.884
 3487POPC   GL246166  28.779  39.896   5.919
 3487POPC   C1A46167  29.311  39.947   6.209
 3487POPC   D2A46168  29.305  39.778   6.628
 3487POPC   C3A46169  29.256  40.118   6.886
 3487POPC   C4A46170  29.083  40.185   7.266
 3487POPC   C1B46171  28.832  39.846   6.366
 3487POPC   C2B46172  28.806  39.900   6.805
 3487POPC   C3B46173  28.720  39.814   7.234
 3487POPC   C4B46174  28.530  39.700   7.651
 3488POPC   NC346175  34.696   7.179   5.364
 3488POPC   PO446176  34.556   7.778   5.348
 3488POPC   GL146177  34.551   7.548   5.739
 3488POPC   GL246178  34.850   7.591   5.889
 3488POPC   C1A46179  34.408   7.613   6.189
 3488POPC   D2A46180  34.505   7.752   6.628
 3488POPC   C3A46181  34.295   7.546   6.988
 3488POPC   C4A46182  34.369   7.541   7.433
 3488POPC   C1B46183  34.914   7.529   6.362
 3488POPC   C2B46184  34.963   7.539   6.838
 3488POPC   C3B46185  34.907   7.476   7.286
 3488POPC   C4B46186  34.731   7.193   7.587
 3489POPC   NC346187  30.213  28.766   5.146
 3489POPC   PO446188  29.806  29.258   5.446
 3489POPC   GL146189  29.964  29.111   5.792
 3489POPC   GL246190  29.878  28.749   5.721
 3489POPC   C1A46191  29.983  29.279   6.212
 3489POPC   D2A46192  30.176  29.253   6.588
 3489POPC   C3A46193  29.971  29.325   6.932
 3489POPC   C4A46194  30.013  29.355   7.351
 3489POPC   C1B46195  30.033  28.766   6.148
 3489POPC   C2B46196  29.890  28.848   6.529
 3489POPC   C3B46197  30.075  28.836   6.902
 3489POPC   C4B46198  29.858  28.883   7.238
 3490POPC   NC346199  15.787  40.141   5.355
 3490POPC   PO446200  16.337  40.147   5.722
 3490POPC   GL146201  16.038  39.891   5.810
 3490POPC   GL246202  15.816  40.154   5.861
 3490POPC   C1A46203  16.039  39.863   6.241
 3490POPC   D2A46204  15.997  40.113   6.596
 3490POPC   C3A46205  15.784  39.857   6.889
 3490POPC   C4A46206  15.875  39.703   7.313
 3490POPC   C1B46207  15.641  40.471   6.103
 3490POPC   C2B46208  15.722  40.570   6.544
 3490POPC   C3B46209  15.676  40.358   6.917
 3490POPC   C4B46210  15.664  40.194   7.339
 3491POPC   NC346211  13.399  13.569   5.508
 3491POPC   PO446212  13.939  13.886   5.280
 3491POPC   GL146213  13.870  13.624   5.694
 3491POPC   GL246214  13.775  13.898   5.898
 3491POPC   C1A46215  13.925  13.511   6.171
 3491POPC   D2A46216  13.713  13.478   6.585
 3491POPC   C3A46217  13.853  13.567   7.014
 3491POPC   C4A46218  13.680  13.468   7.401
 3491POPC   C1B46219  13.472  13.777   6.249
 3491POPC   C2B46220  13.392  13.881   6.718
 3491POPC   C3B46221  13.416  13.859   7.200
 3491POPC   C4B46222  13.461  13.811   7.696
 3492POPC   NC346223   1.280  37.322   5.154
 3492POPC   PO446224   0.811  36.991   5.492
 3492POPC   GL146225   1.154  36.826   5.783
 3492POPC   GL246226   1.439  36.550   5.800
 3492POPC   C1A46227   1.333  36.961   6.188
 3492POPC   D2A46228   1.097  37.088   6.558
 3492POPC   C3A46229   1.192  37.264   6.939
 3492POPC   C4A46230   1.195  36.986   7.274
 3492POPC   C1B46231   1.150  36.478   6.168
 3492POPC   C2B46232   0.972  36.535   6.592
 3492POPC   C3B46233   1.180  36.499   6.991
 3492POPC   C4B46234   1.552  36.591   7.256
 3493POPC   NC346235   9.843  23.021   5.373
 3493POPC   PO446236   9.655  22.435   5.306
 3493POPC   GL146237   9.617  22.697   5.731
 3493POPC   GL246238   9.927  22.914   5.865
 3493POPC   C1A46239   9.489  22.905   6.156
 3493POPC   D2A46240   9.648  23.028   6.600
 3493POPC   C3A46241   9.401  23.235   6.965
 3493POPC   C4A46242   9.531  23.097   7.420
 3493POPC   C1B46243   9.937  22.670   6.262
 3493POPC   C2B46244  10.020  22.661   6.708
 3493POPC   C3B46245   9.898  22.888   7.074
 3493POPC   C4B46246   9.787  22.630   7.380
 3494POPC   NC346247  14.778  33.656   5.464
 3494POPC   PO446248  14.074  33.469   5.452
 3494POPC   GL146249  14.349  33.677   5.750
 3494POPC   GL246250  14.288  34.021   5.759
 3494POPC   C1A46251  14.482  33.542   6.171
 3494POPC   D2A46252  14.454  33.748   6.587
 3494POPC   C3A46253  14.537  33.552   6.979
 3494POPC   C4A46254  14.370  33.596   7.373
 3494POPC   C1B46255  14.492  34.054   6.170
 3494POPC   C2B46256  14.678  34.209   6.575
 3494POPC   C3B46257  14.576  34.066   6.992
 3494POPC   C4B46258  14.628  34.054   7.463
 3495POPC   NC346259  14.082  11.896   5.494
 3495POPC   PO446260  14.549  12.391   5.547
 3495POPC   GL146261  14.344  12.125   5.896
 3495POPC   GL246262  14.308  11.747   5.921
 3495POPC   C1A46263  14.487  12.006   6.331
 3495POPC   D2A46264  14.654  12.008   6.766
 3495POPC   C3A46265  14.443  12.187   7.141
 3495POPC   C4A46266  14.621  12.274   7.592
 3495POPC   C1B46267  13.987  11.814   6.222
 3495POPC   C2B46268  14.130  11.832   6.656
 3495POPC   C3B46269  14.278  11.707   7.037
 3495POPC   C4B46270  14.126  11.818   7.438
 3496POPC   NC346271  17.792  20.143   5.609
 3496POPC   PO446272  17.639  19.714   5.095
 3496POPC   GL146273  17.526  19.708   5.588
 3496POPC   GL246274  17.348  19.979   5.843
 3496POPC   C1A46275  17.672  19.680   6.058
 3496POPC   D2A46276  17.582  19.709   6.478
 3496POPC   C3A46277  17.808  19.949   6.767
 3496POPC   C4A46278  17.740  19.967   7.188
 3496POPC   C1B46279  17.310  20.163   6.262
 3496POPC   C2B46280  17.247  20.216   6.714
 3496POPC   C3B46281  17.233  19.990   7.128
 3496POPC   C4B46282  17.113  20.018   7.587
 3497POPC   NC346283  13.916  33.939   5.409
 3497POPC   PO446284  13.227  33.870   5.477
 3497POPC   GL146285  13.486  33.792   5.850
 3497POPC   GL246286  13.851  33.796   5.882
 3497POPC   C1A46287  13.570  33.980   6.277
 3497POPC   D2A46288  13.622  34.230   6.666
 3497POPC   C3A46289  13.597  34.023   7.095
 3497POPC   C4A46290  13.505  33.550   7.172
 3497POPC   C1B46291  14.004  33.720   6.277
 3497POPC   C2B46292  13.796  33.730   6.678
 3497POPC   C3B46293  14.077  33.828   6.988
 3497POPC   C4B46294  14.157  34.082   7.310
 3498POPC   NC346295   2.700  33.279   5.287
 3498POPC   PO446296   2.361  32.734   5.551
 3498POPC   GL146297   2.658  32.946   5.836
 3498POPC   GL246298   2.954  33.134   5.721
 3498POPC   C1A46299   2.689  33.230   6.194
 3498POPC   D2A46300   2.461  33.294   6.584
 3498POPC   C3A46301   2.671  33.063   6.915
 3498POPC   C4A46302   2.546  32.836   7.284
 3498POPC   C1B46303   3.140  33.011   6.114
 3498POPC   C2B46304   3.071  32.914   6.532
 3498POPC   C3B46305   3.266  32.890   6.914
 3498POPC   C4B46306   3.042  32.944   7.284
 3499POPC   NC346307  42.479  12.461   4.990
 3499POPC   PO446308  42.193  13.091   5.285
 3499POPC   GL146309  42.357  13.016   5.768
 3499POPC   GL246310  42.414  12.660   5.894
 3499POPC   C1A46311  42.302  13.001   6.237
 3499POPC   D2A46312  42.371  12.793   6.638
 3499POPC   C3A46313  42.211  13.104   6.873
 3499POPC   C4A46314  42.381  13.401   7.152
 3499POPC   C1B46315  42.705  12.679   6.251
 3499POPC   C2B46316  42.784  12.464   6.668
 3499POPC   C3B46317  42.515  12.419   6.996
 3499POPC   C4B46318  42.493  12.827   7.187
 3500POPC   NC346319  10.612  14.785   5.439
 3500POPC   PO446320  10.842  15.333   5.380
 3500POPC   GL146321  10.616  15.156   5.788
 3500POPC   GL246322  10.292  14.933   5.795
 3500POPC   C1A46323  10.703  15.164   6.256
 3500POPC   D2A46324  10.727  15.376   6.685
 3500POPC   C3A46325  10.807  15.140   7.075
 3500POPC   C4A46326  10.596  14.890   7.415
 3500POPC   C1B46327  10.207  15.033   6.246
 3500POPC   C2B46328  10.414  14.972   6.665
 3500POPC   C3B46329  10.297  15.144   7.082
 3500POPC   C4B46330  10.178  15.189   7.532
 3501POPC   NC346331  22.873  20.995   5.363
 3501POPC   PO446332  22.661  20.392   5.244
 3501POPC   GL146333  22.736  20.589   5.711
 3501POPC   GL246334  22.990  20.890   5.839
 3501POPC   C1A46335  22.893  20.535   6.155
 3501POPC   D2A46336  22.759  20.541   6.573
 3501POPC   C3A46337  23.080  20.527   6.889
 3501POPC   C4A46338  23.019  20.366   7.303
 3501POPC   C1B46339  22.585  21.020   6.041
 3501POPC   C2B46340  22.561  21.139   6.493
 3501POPC   C3B46341  22.836  21.009   6.830
 3501POPC   C4B46342  23.117  20.933   7.193
 3502POPC   NC346343  14.988   8.798   5.357
 3502POPC   PO446344  15.374   9.364   5.660
 3502POPC   GL146345  15.108   9.017   5.822
 3502POPC   GL246346  15.202   8.666   5.848
 3502POPC   C1A46347  15.040   8.976   6.270
 3502POPC   D2A46348  15.271   9.107   6.621
 3502POPC   C3A46349  15.068   9.121   7.001
 3502POPC   C4A46350  15.245   9.126   7.407
 3502POPC   C1B46351  15.171   8.489   6.290
 3502POPC   C2B46352  15.007   8.590   6.729
 3502POPC   C3B46353  15.178   8.635   7.174
 3502POPC   C4B46354  15.271   8.662   7.636
 3503POPC   NC346355  34.485  16.478   5.554
 3503POPC   PO446356  34.796  17.105   5.552
 3503POPC   GL146357  34.503  16.918   5.844
 3503POPC   GL246358  34.703  16.680   5.961
 3503POPC   C1A46359  34.325  16.886   6.263
 3503POPC   D2A46360  34.340  17.011   6.706
 3503POPC   C3A46361  34.558  16.769   7.027
 3503POPC   C4A46362  34.388  16.571   7.403
 3503POPC   C1B46363  35.030  16.506   6.195
 3503POPC   C2B46364  35.011  16.684   6.589
 3503POPC   C3B46365  35.004  16.512   6.956
 3503POPC   C4B46366  34.728  16.283   7.138
 3504POPC   NC346367  34.540  22.979   5.319
 3504POPC   PO446368  35.109  23.261   5.215
 3504POPC   GL146369  34.882  23.172   5.642
 3504POPC   GL246370  34.665  22.898   5.824
 3504POPC   C1A46371  34.775  23.368   6.030
 3504POPC   D2A46372  34.851  23.475   6.466
 3504POPC   C3A46373  34.717  23.238   6.804
 3504POPC   C4A46374  34.669  23.046   7.203
 3504POPC   C1B46375  34.550  22.961   6.317
 3504POPC   C2B46376  34.501  22.759   6.768
 3504POPC   C3B46377  34.223  22.799   7.146
 3504POPC   C4B46378  34.227  22.973   7.584
 3505POPC   NC346379   0.320  25.052   5.228
 3505POPC   PO446380   0.907  25.455   5.182
 3505POPC   GL146381   0.678  25.342   5.612
 3505POPC   GL246382   0.468  25.075   5.721
 3505POPC   C1A46383   0.596  25.414   6.080
 3505POPC   D2A46384   0.554  25.133   6.472
 3505POPC   C3A46385   0.563  25.382   6.866
 3505POPC   C4A46386   0.487  25.594   7.270
 3505POPC   C1B46387   0.126  25.182   6.037
 3505POPC   C2B46388   0.039  25.071   6.457
 3505POPC   C3B46389   0.084  25.192   6.876
 3505POPC   C4B46390   0.286  25.131   7.285
 3506POPC   NC346391  29.160  26.057   5.331
 3506POPC   PO446392  28.700  25.540   5.436
 3506POPC   GL146393  28.851  25.897   5.724
 3506POPC   GL246394  29.220  25.969   5.813
 3506POPC   C1A46395  28.866  26.059   6.162
 3506POPC   D2A46396  29.134  26.093   6.505
 3506POPC   C3A46397  28.997  26.186   6.897
 3506POPC   C4A46398  29.040  26.193   7.340
 3506POPC   C1B46399  29.395  25.786   6.165
 3506POPC   C2B46400  29.609  25.856   6.535
 3506POPC   C3B46401  29.583  25.752   6.964
 3506POPC   C4B46402  29.421  25.805   7.331
 3507POPC   NC346403  35.235  14.743   5.607
 3507POPC   PO446404  35.521  14.109   5.462
 3507POPC   GL146405  35.366  14.231   5.858
 3507POPC   GL246406  35.554  14.006   6.061
 3507POPC   C1A46407  35.392  14.580   6.195
 3507POPC   D2A46408  35.258  14.724   6.584
 3507POPC   C3A46409  35.413  14.480   6.902
 3507POPC   C4A46410  35.302  14.600   7.297
 3507POPC   C1B46411  35.323  14.137   6.431
 3507POPC   C2B46412  35.163  13.986   6.812
 3507POPC   C3B46413  35.176  14.108   7.238
 3507POPC   C4B46414  35.270  13.929   7.642
 3508POPC   NC346415  32.868   7.231   5.239
 3508POPC   PO446416  33.217   7.809   5.446
 3508POPC   GL146417  33.095   7.447   5.651
 3508POPC   GL246418  33.095   7.622   5.939
 3508POPC   C1A46419  33.122   7.117   5.979
 3508POPC   D2A46420  33.204   7.063   6.430
 3508POPC   C3A46421  32.921   7.206   6.770
 3508POPC   C4A46422  33.013   7.196   7.228
 3508POPC   C1B46423  33.020   7.541   6.360
 3508POPC   C2B46424  32.668   7.634   6.609
 3508POPC   C3B46425  32.706   7.599   7.066
 3508POPC   C4B46426  32.673   7.811   7.479
 3509POPC   NC346427  43.205  41.700   5.301
 3509POPC   PO446428  42.901  41.029   5.311
 3509POPC   GL146429  43.052  41.276   5.626
 3509POPC   GL246430  42.798  41.509   5.706
 3509POPC   C1A46431  43.187  41.405   6.049
 3509POPC   D2A46432  43.075  41.336   6.499
 3509POPC   C3A46433  43.335  41.437   6.863
 3509POPC   C4A46434  43.272  41.728   7.195
 3509POPC   C1B46435  42.603  41.439   6.138
 3509POPC   C2B46436  42.537  41.435   6.599
 3509POPC   C3B46437  42.830  41.548   6.934
 3509POPC   C4B46438  42.894  41.366   7.324
 3510POPC   NC346439  19.201  39.905   5.255
 3510POPC   PO446440  19.325  40.537   5.428
 3510POPC   GL146441  19.161  40.233   5.767
 3510POPC   GL246442  18.986  39.901   5.717
 3510POPC   C1A46443  19.304  40.175   6.248
 3510POPC   D2A46444  19.486  40.123   6.726
 3510POPC   C3A46445  19.326  40.008   7.205
 3510POPC   C4A46446  19.197  39.842   7.663
 3510POPC   C1B46447  18.921  39.807   6.154
 3510POPC   C2B46448  18.899  40.072   6.540
 3510POPC   C3B46449  18.897  39.959   6.960
 3510POPC   C4B46450  18.841  40.051   7.365
 3511POPC   NC346451  41.714  39.176   5.387
 3511POPC   PO446452  41.076  39.358   5.475
 3511POPC   GL146453  41.322  39.121   5.792
 3511POPC   GL246454  41.664  39.199   5.881
 3511POPC   C1A46455  41.348  39.217   6.255
 3511POPC   D2A46456  41.493  39.433   6.601
 3511POPC   C3A46457  41.337  39.251   6.928
 3511POPC   C4A46458  41.506  38.949   7.186
 3511POPC   C1B46459  41.888  39.374   6.258
 3511POPC   C2B46460  41.970  39.310   6.709
 3511POPC   C3B46461  41.801  39.493   7.074
 3511POPC   C4B46462  41.524  39.408   7.400
 3512POPC   NC346463  19.626  39.074   5.112
 3512POPC   PO446464  19.089  39.466   5.398
 3512POPC   GL146465  18.896  39.340   5.757
 3512POPC   GL246466  19.073  39.026   5.796
 3512POPC   C1A46467  18.853  39.282   6.207
 3512POPC   D2A46468  18.792  39.228   6.640
 3512POPC   C3A46469  19.053  39.476   6.872
 3512POPC   C4A46470  19.117  39.525   7.285
 3512POPC   C1B46471  19.302  39.005   6.185
 3512POPC   C2B46472  19.300  39.076   6.635
 3512POPC   C3B46473  19.033  38.960   7.001
 3512POPC   C4B46474  19.206  39.019   7.378
 3513POPC   NC346475  22.618  21.883   5.459
 3513POPC   PO446476  23.078  22.203   5.160
 3513POPC   GL146477  22.837  22.284   5.678
 3513POPC   GL246478  22.633  22.065   5.926
 3513POPC   C1A46479  22.929  22.407   6.150
 3513POPC   D2A46480  23.124  22.462   6.601
 3513POPC   C3A46481  22.985  22.421   7.038
 3513POPC   C4A46482  22.871  22.664   7.410
 3513POPC   C1B46483  22.892  21.924   6.283
 3513POPC   C2B46484  22.946  21.989   6.705
 3513POPC   C3B46485  23.066  21.891   7.093
 3513POPC   C4B46486  22.771  21.987   7.280
 3514POPC   NC346487   8.492  13.039   5.490
 3514POPC   PO446488   7.893  12.719   5.543
 3514POPC   GL146489   8.213  12.661   5.881
 3514POPC   GL246490   8.527  12.845   5.940
 3514POPC   C1A46491   8.131  12.694   6.319
 3514POPC   D2A46492   8.026  13.054   6.604
 3514POPC   C3A46493   8.056  12.967   7.018
 3514POPC   C4A46494   7.894  12.578   7.159
 3514POPC   C1B46495   8.409  13.120   6.274
 3514POPC   C2B46496   8.475  13.295   6.682
 3514POPC   C3B46497   8.549  13.142   7.074
 3514POPC   C4B46498   8.395  12.914   7.408
 3515POPC   NC346499  34.334  35.343   5.428
 3515POPC   PO446500  34.925  35.658   5.457
 3515POPC   GL146501  34.634  35.552   5.817
 3515POPC   GL246502  34.512  35.207   5.903
 3515POPC   C1A46503  34.292  35.581   6.139
 3515POPC   D2A46504  34.332  35.639   6.580
 3515POPC   C3A46505  34.461  35.317   6.871
 3515POPC   C4A46506  34.405  35.476   7.273
 3515POPC   C1B46507  34.691  35.308   6.341
 3515POPC   C2B46508  34.927  35.157   6.709
 3515POPC   C3B46509  34.860  34.994   7.123
 3515POPC   C4B46510  34.454  34.954   7.279
 3516POPC   NC346511  41.021  32.260   5.417
 3516POPC   PO446512  40.370  32.019   5.438
 3516POPC   GL146513  40.539  31.901   5.835
 3516POPC   GL246514  40.770  32.171   5.871
 3516POPC   C1A46515  40.603  31.956   6.308
 3516POPC   D2A46516  40.583  32.268   6.630
 3516POPC   C3A46517  40.451  32.191   7.019
 3516POPC   C4A46518  40.833  32.086   7.211
 3516POPC   C1B46519  40.919  32.379   6.266
 3516POPC   C2B46520  41.052  32.455   6.722
 3516POPC   C3B46521  41.160  32.469   7.147
 3516POPC   C4B46522  40.742  32.589   7.210
 3517POPC   NC346523   0.537  37.355   5.531
 3517POPC   PO446524   0.286  36.668   5.478
 3517POPC   GL146525   0.450  36.944   5.844
 3517POPC   GL246526   0.779  37.171   5.950
 3517POPC   C1A46527   0.292  37.155   6.205
 3517POPC   D2A46528   0.218  37.179   6.659
 3517POPC   C3A46529   0.250  36.802   6.934
 3517POPC   C4A46530   0.428  36.686   7.318
 3517POPC   C1B46531   0.788  36.860   6.216
 3517POPC   C2B46532   0.628  36.900   6.598
 3517POPC   C3B46533   0.789  36.863   6.988
 3517POPC   C4B46534   0.703  37.103   7.357
 3518POPC   NC346535  24.946  32.031   5.448
 3518POPC   PO446536  25.388  32.533   5.406
 3518POPC   GL146537  25.372  32.250   5.771
 3518POPC   GL246538  25.675  32.433   5.888
 3518POPC   C1A46539  25.235  32.111   6.207
 3518POPC   D2A46540  25.044  32.250   6.607
 3518POPC   C3A46541  25.215  32.114   6.997
 3518POPC   C4A46542  25.609  31.915   7.065
 3518POPC   C1B46543  25.743  32.088   6.178
 3518POPC   C2B46544  25.589  32.189   6.599
 3518POPC   C3B46545  25.460  32.550   6.831
 3518POPC   C4B46546  25.335  32.533   7.238
 3519POPC   NC346547  42.040   5.286   5.388
 3519POPC   PO446548  41.510   4.861   5.420
 3519POPC   GL146549  41.623   5.174   5.710
 3519POPC   GL246550  41.929   5.024   5.847
 3519POPC   C1A46551  41.630   5.289   6.153
 3519POPC   D2A46552  41.480   5.094   6.536
 3519POPC   C3A46553  41.670   5.275   6.914
 3519POPC   C4A46554  41.597   5.209   7.345
 3519POPC   C1B46555  41.839   4.834   6.286
 3519POPC   C2B46556  41.857   4.810   6.760
 3519POPC   C3B46557  41.726   4.731   7.191
 3519POPC   C4B46558  41.632   4.777   7.631
 3520POPC   NC346559  26.141   2.022   5.339
 3520POPC   PO446560  25.771   1.520   5.436
 3520POPC   GL146561  26.088   1.756   5.783
 3520POPC   GL246562  26.075   2.151   5.833
 3520POPC   C1A46563  26.154   1.878   6.253
 3520POPC   D2A46564  25.985   2.044   6.658
 3520POPC   C3A46565  25.959   1.745   6.975
 3520POPC   C4A46566  26.293   1.485   7.081
 3520POPC   C1B46567  25.823   2.298   6.219
 3520POPC   C2B46568  25.641   2.451   6.638
 3520POPC   C3B46569  25.733   2.518   7.088
 3520POPC   C4B46570  25.959   2.182   7.257
 3521POPC   NC346571   3.965  36.942   5.501
 3521POPC   PO446572   4.548  36.609   5.274
 3521POPC   GL146573   4.368  36.681   5.735
 3521POPC   GL246574   4.252  37.033   5.893
 3521POPC   C1A46575   4.382  36.635   6.200
 3521POPC   D2A46576   4.341  36.815   6.613
 3521POPC   C3A46577   4.398  36.617   7.008
 3521POPC   C4A46578   4.205  36.752   7.354
 3521POPC   C1B46579   4.495  37.159   6.233
 3521POPC   C2B46580   4.627  37.253   6.655
 3521POPC   C3B46581   4.379  37.139   7.037
 3521POPC   C4B46582   4.369  37.195   7.495
 3522POPC   NC346583   4.702  17.730   5.374
 3522POPC   PO446584   5.169  17.357   5.472
 3522POPC   GL146585   4.882  17.480   5.802
 3522POPC   GL246586   4.854  17.832   5.863
 3522POPC   C1A46587   4.653  17.428   6.218
 3522POPC   D2A46588   4.563  17.188   6.617
 3522POPC   C3A46589   4.668  17.351   7.065
 3522POPC   C4A46590   4.779  17.121   7.470
 3522POPC   C1B46591   5.090  17.683   6.249
 3522POPC   C2B46592   5.011  17.546   6.699
 3522POPC   C3B46593   5.136  17.687   7.128
 3522POPC   C4B46594   5.052  18.090   7.361
 3523POPC   NC346595   4.497  28.370   5.316
 3523POPC   PO446596   3.851  28.312   5.521
 3523POPC   GL146597   4.110  28.475   5.850
 3523POPC   GL246598   4.370  28.283   5.791
 3523POPC   C1A46599   4.351  28.546   6.265
 3523POPC   D2A46600   4.618  28.746   6.608
 3523POPC   C3A46601   4.467  28.700   7.051
 3523POPC   C4A46602   4.628  28.300   7.206
 3523POPC   C1B46603   4.569  28.078   6.089
 3523POPC   C2B46604   4.513  28.057   6.526
 3523POPC   C3B46605   4.275  28.349   6.763
 3523POPC   C4B46606   3.993  28.390   7.139
 3524POPC   NC346607  25.870  35.061   5.421
 3524POPC   PO446608  26.080  35.675   5.349
 3524POPC   GL146609  25.853  35.614   5.746
 3524POPC   GL246610  26.059  35.350   5.786
 3524POPC   C1A46611  25.898  35.553   6.221
 3524POPC   D2A46612  26.268  35.619   6.457
 3524POPC   C3A46613  26.200  35.460   6.871
 3524POPC   C4A46614  25.761  35.465   7.062
 3524POPC   C1B46615  25.816  35.077   6.096
 3524POPC   C2B46616  25.924  35.126   6.553
 3524POPC   C3B46617  26.153  34.943   6.904
 3524POPC   C4B46618  25.992  35.004   7.275
 3525POPC   NC346619  14.910  42.471   5.266
 3525POPC   PO446620  15.160  41.899   5.322
 3525POPC   GL146621  14.972  42.134   5.705
 3525POPC   GL246622  15.086  42.489   5.778
 3525POPC   C1A46623  14.929  42.177   6.190
 3525POPC   D2A46624  15.119  41.993   6.593
 3525POPC   C3A46625  15.097  42.111   7.074
 3525POPC   C4A46626  14.821  42.242   7.433
 3525POPC   C1B46627  15.235  42.590   6.224
 3525POPC   C2B46628  15.178  42.504   6.690
 3525POPC   C3B46629  15.357  42.547   7.129
 3525POPC   C4B46630  15.536  42.680   7.549
 3526POPC   NC346631   0.890   7.222   5.192
 3526POPC   PO446632   1.528   7.558   5.206
 3526POPC   GL146633   1.425   7.474   5.662
 3526POPC   GL246634   1.076   7.361   5.676
 3526POPC   C1A46635   1.453   7.344   6.109
 3526POPC   D2A46636   1.197   7.182   6.443
 3526POPC   C3A46637   1.413   7.161   6.825
 3526POPC   C4A46638   1.356   7.101   7.259
 3526POPC   C1B46639   0.974   7.514   6.095
 3526POPC   C2B46640   1.202   7.695   6.455
 3526POPC   C3B46641   1.089   7.560   6.863
 3526POPC   C4B46642   0.982   7.440   7.267
 3527POPC   NC346643   4.792   4.321   5.593
 3527POPC   PO446644   4.197   4.032   5.360
 3527POPC   GL146645   4.147   4.272   5.730
 3527POPC   GL246646   4.243   4.619   5.694
 3527POPC   C1A46647   4.367   4.300   6.124
 3527POPC   D2A46648   4.482   4.336   6.562
 3527POPC   C3A46649   4.256   4.000   6.778
 3527POPC   C4A46650   4.213   3.940   7.185
 3527POPC   C1B46651   3.969   4.645   6.096
 3527POPC   C2B46652   3.983   4.764   6.565
 3527POPC   C3B46653   4.251   4.653   6.945
 3527POPC   C4B46654   4.412   4.857   7.309
 3528POPC   NC346655  44.958  10.913   5.486
 3528POPC   PO446656  44.669  10.273   5.593
 3528POPC   GL146657  44.777  10.612   5.876
 3528POPC   GL246658  44.536  10.878   5.827
 3528POPC   C1A46659  44.725  10.640   6.344
 3528POPC   D2A46660  44.373  10.595   6.661
 3528POPC   C3A46661  44.523  10.237   6.922
 3528POPC   C4A46662  44.953  10.369   7.088
 3528POPC   C1B46663  44.428  11.036   6.274
 3528POPC   C2B46664  44.312  11.127   6.688
 3528POPC   C3B46665  44.307  10.999   7.091
 3528POPC   C4B46666  44.538  10.659   7.186
 3529POPC   NC346667   4.956  19.677   5.503
 3529POPC   PO446668   5.550  19.969   5.534
 3529POPC   GL146669   5.210  19.964   5.846
 3529POPC   GL246670   4.881  20.127   5.760
 3529POPC   C1A46671   4.974  19.673   6.157
 3529POPC   D2A46672   5.134  19.496   6.584
 3529POPC   C3A46673   5.261  19.780   6.877
 3529POPC   C4A46674   5.112  20.004   7.218
 3529POPC   C1B46675   4.950  20.186   6.224
 3529POPC   C2B46676   4.874  19.933   6.577
 3529POPC   C3B46677   4.698  19.917   6.936
 3529POPC   C4B46678   4.638  20.237   7.233
 3530POPC   NC346679  36.598  19.938   5.500
 3530POPC   PO446680  37.240  19.911   5.484
 3530POPC   GL146681  37.033  19.757   5.814
 3530POPC   GL246682  36.910  20.079   5.896
 3530POPC   C1A46683  36.939  19.651   6.241
 3530POPC   D2A46684  36.881  19.918   6.587
 3530POPC   C3A46685  36.891  19.692   6.954
 3530POPC   C4A46686  36.834  19.539   7.366
 3530POPC   C1B46687  36.731  20.266   6.249
 3530POPC   C2B46688  36.592  20.356   6.672
 3530POPC   C3B46689  36.780  20.201   7.052
 3530POPC   C4B46690  36.710  20.119   7.500
 3531POPC   NC346691  14.671  21.323   5.387
 3531POPC   PO446692  14.052  21.179   5.269
 3531POPC   GL146693  14.260  21.340   5.715
 3531POPC   GL246694  14.483  21.567   5.795
 3531POPC   C1A46695  14.378  21.226   6.180
 3531POPC   D2A46696  14.412  21.350   6.595
 3531POPC   C3A46697  14.254  21.151   6.958
 3531POPC   C4A46698  14.414  21.227   7.359
 3531POPC   C1B46699  14.454  21.722   6.196
 3531POPC   C2B46700  14.547  21.842   6.601
 3531POPC   C3B46701  14.477  21.656   7.020
 3531POPC   C4B46702  14.420  21.723   7.472
 3532POPC   NC346703  17.106  42.330   5.598
 3532POPC   PO446704  17.743  42.281   5.377
 3532POPC   GL146705  17.568  42.336   5.850
 3532POPC   GL246706  17.269  42.087   6.016
 3532POPC   C1A46707  17.609  42.314   6.318
 3532POPC   D2A46708  17.958  42.345   6.612
 3532POPC   C3A46709  17.871  42.434   7.037
 3532POPC   C4A46710  17.869  42.169   7.417
 3532POPC   C1B46711  17.246  42.004   6.486
 3532POPC   C2B46712  17.380  42.281   6.815
 3532POPC   C3B46713  17.404  42.293   7.251
 3532POPC   C4B46714  17.315  42.157   7.657
 3533POPC   NC346715  27.827   8.708   5.082
 3533POPC   PO446716  27.530   9.152   5.455
 3533POPC   GL146717  27.562   9.129   5.898
 3533POPC   GL246718  27.557   9.423   5.983
 3533POPC   C1A46719  27.636   8.902   6.270
 3533POPC   D2A46720  27.805   8.919   6.674
 3533POPC   C3A46721  27.600   8.705   7.017
 3533POPC   C4A46722  27.771   8.548   7.405
 3533POPC   C1B46723  27.554   9.430   6.414
 3533POPC   C2B46724  27.334   9.406   6.803
 3533POPC   C3B46725  27.599   9.210   7.116
 3533POPC   C4B46726  27.717   9.035   7.505
 3534POPC   NC346727  19.813  24.593   5.713
 3534POPC   PO446728  19.506  24.155   5.279
 3534POPC   GL146729  19.602  24.104   5.805
 3534POPC   GL246730  19.508  24.401   6.107
 3534POPC   C1A46731  19.707  23.978   6.238
 3534POPC   D2A46732  19.458  24.173   6.581
 3534POPC   C3A46733  19.733  24.384   6.862
 3534POPC   C4A46734  19.931  24.239   7.247
 3534POPC   C1B46735  19.877  24.497   6.378
 3534POPC   C2B46736  20.141  24.709   6.685
 3534POPC   C3B46737  20.020  24.747   7.121
 3534POPC   C4B46738  19.560  24.745   7.166
 3535POPC   NC346739   4.881  15.443   5.411
 3535POPC   PO446740   5.160  14.842   5.571
 3535POPC   GL146741   5.091  15.155   5.844
 3535POPC   GL246742   4.781  15.183   5.868
 3535POPC   C1A46743   5.302  15.247   6.245
 3535POPC   D2A46744   5.138  15.337   6.661
 3535POPC   C3A46745   5.223  15.183   7.097
 3535POPC   C4A46746   5.178  15.411   7.479
 3535POPC   C1B46747   4.884  14.954   6.243
 3535POPC   C2B46748   4.764  15.018   6.634
 3535POPC   C3B46749   4.855  14.838   6.998
 3535POPC   C4B46750   4.815  14.625   7.340
 3536POPC   NC346751  13.929   5.727   5.372
 3536POPC   PO446752  13.431   5.393   5.244
 3536POPC   GL146753  13.509   5.669   5.652
 3536POPC   GL246754  13.242   5.684   5.874
 3536POPC   C1A46755  13.630   6.000   6.037
 3536POPC   D2A46756  13.814   6.281   6.414
 3536POPC   C3A46757  14.018   6.090   6.812
 3536POPC   C4A46758  13.885   5.921   7.237
 3536POPC   C1B46759  13.114   6.010   6.194
 3536POPC   C2B46760  13.307   6.165   6.576
 3536POPC   C3B46761  13.493   5.940   6.922
 3536POPC   C4B46762  13.554   5.523   7.157
 3537POPC   NC346763  34.381   0.771   5.142
 3537POPC   PO446764  34.401   0.173   5.608
 3537POPC   GL146765  34.527   0.467   5.890
 3537POPC   GL246766  34.706   0.728   5.875
 3537POPC   C1A46767  34.506   0.440   6.287
 3537POPC   D2A46768  34.318   0.548   6.643
 3537POPC   C3A46769  34.529   0.472   7.009
 3537POPC   C4A46770  34.518   0.296   7.417
 3537POPC   C1B46771  34.723   0.901   6.275
 3537POPC   C2B46772  34.830   0.716   6.649
 3537POPC   C3B46773  34.855   0.846   7.074
 3537POPC   C4B46774  34.790   0.733   7.518
 3538POPC   NC346775  11.414   9.419   5.536
 3538POPC   PO446776  11.481   8.769   5.523
 3538POPC   GL146777  11.190   8.771   5.809
 3538POPC   GL246778  11.223   9.117   5.919
 3538POPC   C1A46779  11.210   8.694   6.234
 3538POPC   D2A46780  11.197   8.924   6.606
 3538POPC   C3A46781  11.278   8.736   6.986
 3538POPC   C4A46782  11.037   8.889   7.316
 3538POPC   C1B46783  11.201   9.406   6.275
 3538POPC   C2B46784  11.413   9.387   6.646
 3538POPC   C3B46785  11.319   9.255   7.042
 3538POPC   C4B46786  11.416   9.197   7.457
 3539POPC   NC346787  36.247  33.671   5.373
 3539POPC   PO446788  35.738  33.903   5.622
 3539POPC   GL146789  36.071  33.829   5.856
 3539POPC   GL246790  36.396  33.990   5.879
 3539POPC   C1A46791  36.018  33.852   6.268
 3539POPC   D2A46792  36.171  33.644   6.568
 3539POPC   C3A46793  36.060  33.829   6.860
 3539POPC   C4A46794  36.045  33.657   7.251
 3539POPC   C1B46795  36.504  33.650   6.179
 3539POPC   C2B46796  36.698  33.661   6.613
 3539POPC   C3B46797  36.483  33.580   7.004
 3539POPC   C4B46798  36.504  33.787   7.426
 3540POPC   NC346799  36.375  13.234   5.453
 3540POPC   PO446800  35.894  13.717   5.251
 3540POPC   GL146801  35.953  13.795   5.718
 3540POPC   GL246802  36.302  13.967   5.731
 3540POPC   C1A46803  35.918  13.580   6.126
 3540POPC   D2A46804  35.863  13.293   6.507
 3540POPC   C3A46805  35.900  13.554   6.897
 3540POPC   C4A46806  36.053  13.460   7.321
 3540POPC   C1B46807  36.433  13.691   6.085
 3540POPC   C2B46808  36.274  13.612   6.507
 3540POPC   C3B46809  36.418  13.531   6.912
 3540POPC   C4B46810  36.501  13.826   7.227
 3541POPC   NC346811   2.480  26.519   5.444
 3541POPC   PO446812   3.225  26.795   5.449
 3541POPC   GL146813   2.922  26.660   5.719
 3541POPC   GL246814   2.668  26.900   5.768
 3541POPC   C1A46815   2.881  26.616   6.174
 3541POPC   D2A46816   3.031  26.951   6.479
 3541POPC   C3A46817   2.886  26.903   6.903
 3541POPC   C4A46818   3.049  27.008   7.290
 3541POPC   C1B46819   2.450  26.879   6.158
 3541POPC   C2B46820   2.519  27.079   6.557
 3541POPC   C3B46821   2.380  27.148   6.972
 3541POPC   C4B46822   2.544  26.887   7.310
 3542POPC   NC346823   2.169   8.157   5.372
 3542POPC   PO446824   1.677   8.574   5.172
 3542POPC   GL146825   1.703   8.379   5.656
 3542POPC   GL246826   2.011   8.210   5.833
 3542POPC   C1A46827   1.645   8.309   6.145
 3542POPC   D2A46828   1.881   8.435   6.557
 3542POPC   C3A46829   1.766   8.320   6.987
 3542POPC   C4A46830   1.842   7.950   7.244
 3542POPC   C1B46831   2.093   8.078   6.256
 3542POPC   C2B46832   2.336   7.795   6.519
 3542POPC   C3B46833   2.360   7.896   6.935
 3542POPC   C4B46834   2.252   8.251   7.161
 3543POPC   NC346835  12.420   4.365   5.425
 3543POPC   PO446836  13.043   4.254   5.193
 3543POPC   GL146837  12.918   4.284   5.651
 3543POPC   GL246838  12.645   4.059   5.805
 3543POPC   C1A46839  12.963   4.458   6.096
 3543POPC   D2A46840  13.081   4.177   6.483
 3543POPC   C3A46841  13.119   4.294   6.915
 3543POPC   C4A46842  12.893   3.999   7.188
 3543POPC   C1B46843  12.604   4.132   6.271
 3543POPC   C2B46844  12.693   4.503   6.527
 3543POPC   C3B46845  12.707   4.587   6.943
 3543POPC   C4B46846  12.507   4.317   7.242
 3544POPC   NC346847  29.461  20.438   5.604
 3544POPC   PO446848  29.778  20.909   5.321
 3544POPC   GL146849  29.952  20.915   5.732
 3544POPC   GL246850  29.961  20.554   5.772
 3544POPC   C1A46851  30.043  20.879   6.177
 3544POPC   D2A46852  30.274  20.869   6.566
 3544POPC   C3A46853  30.120  20.695   6.927
 3544POPC   C4A46854  29.829  20.847   7.222
 3544POPC   C1B46855  30.034  20.364   6.171
 3544POPC   C2B46856  29.972  20.159   6.568
 3544POPC   C3B46857  30.038  20.162   6.990
 3544POPC   C4B46858  29.987  20.402   7.346
 3545POPC   NC346859  11.680   5.848   5.597
 3545POPC   PO446860  12.216   5.983   5.319
 3545POPC   GL146861  12.209   5.795   5.742
 3545POPC   GL246862  11.960   5.536   5.868
 3545POPC   C1A46863  12.109   5.962   6.160
 3545POPC   D2A46864  12.124   5.809   6.569
 3545POPC   C3A46865  11.912   6.061   6.890
 3545POPC   C4A46866  12.182   5.924   7.171
 3545POPC   C1B46867  11.702   5.594   6.236
 3545POPC   C2B46868  11.632   5.713   6.655
 3545POPC   C3B46869  11.824   5.527   7.006
 3545POPC   C4B46870  11.622   5.328   7.362
 3546POPC   NC346871  34.580  38.653   5.530
 3546POPC   PO446872  34.424  39.231   5.153
 3546POPC   GL146873  34.473  39.157   5.622
 3546POPC   GL246874  34.220  38.905   5.800
 3546POPC   C1A46875  34.512  39.356   6.050
 3546POPC   D2A46876  34.375  39.402   6.511
 3546POPC   C3A46877  34.537  39.353   6.921
 3546POPC   C4A46878  34.667  39.272   7.340
 3546POPC   C1B46879  34.307  38.951   6.257
 3546POPC   C2B46880  34.527  38.898   6.662
 3546POPC   C3B46881  34.445  38.861   7.110
 3546POPC   C4B46882  34.399  38.889   7.560
 3547POPC   NC346883  31.861  30.668   5.322
 3547POPC   PO446884  31.400  31.074   5.192
 3547POPC   GL146885  31.426  30.832   5.613
 3547POPC   GL246886  31.726  30.896   5.791
 3547POPC   C1A46887  31.320  30.726   6.099
 3547POPC   D2A46888  31.427  30.630   6.588
 3547POPC   C3A46889  31.244  30.637   7.055
 3547POPC   C4A46890  31.163  30.349   7.449
 3547POPC   C1B46891  31.847  30.819   6.237
 3547POPC   C2B46892  31.929  30.593   6.642
 3547POPC   C3B46893  31.779  30.764   7.031
 3547POPC   C4B46894  31.770  31.172   7.200
 3548POPC   NC346895   8.684  24.880   5.361
 3548POPC   PO446896   9.067  25.431   5.543
 3548POPC   GL146897   8.934  25.284   5.896
 3548POPC   GL246898   8.995  24.969   5.808
 3548POPC   C1A46899   8.908  25.319   6.327
 3548POPC   D2A46900   9.173  25.504   6.648
 3548POPC   C3A46901   8.938  25.547   7.037
 3548POPC   C4A46902   8.584  25.255   7.040
 3548POPC   C1B46903   9.113  24.802   6.198
 3548POPC   C2B46904   9.228  25.000   6.554
 3548POPC   C3B46905   9.079  25.073   6.950
 3548POPC   C4B46906   8.909  24.995   7.336
 3549POPC   NC346907  13.707  36.399   5.223
 3549POPC   PO446908  13.424  35.837   5.460
 3549POPC   GL146909  13.534  36.002   5.851
 3549POPC   GL246910  13.479  36.345   5.798
 3549POPC   C1A46911  13.357  36.041   6.279
 3549POPC   D2A46912  13.134  36.096   6.675
 3549POPC   C3A46913  13.401  36.100   7.020
 3549POPC   C4A46914  13.748  36.087   7.322
 3549POPC   C1B46915  13.709  36.398   6.189
 3549POPC   C2B46916  13.772  36.338   6.637
 3549POPC   C3B46917  13.702  36.525   7.032
 3549POPC   C4B46918  13.405  36.460   7.396
 3550POPC   NC346919  27.764  34.013   5.331
 3550POPC   PO446920  28.348  34.110   5.368
 3550POPC   GL146921  28.445  33.939   5.789
 3550POPC   GL246922  28.198  33.661   5.858
 3550POPC   C1A46923  28.487  33.995   6.225
 3550POPC   D2A46924  28.337  33.806   6.578
 3550POPC   C3A46925  28.584  33.886   6.904
 3550POPC   C4A46926  28.372  33.915   7.273
 3550POPC   C1B46927  28.059  33.495   6.225
 3550POPC   C2B46928  27.898  33.496   6.618
 3550POPC   C3B46929  28.041  33.602   7.023
 3550POPC   C4B46930  27.990  33.391   7.422
 3551POPC   NC346931  22.268  40.119   5.362
 3551POPC   PO446932  21.875  39.648   5.288
 3551POPC   GL146933  21.972  39.838   5.715
 3551POPC   GL246934  21.943  40.219   5.770
 3551POPC   C1A46935  22.117  39.858   6.169
 3551POPC   D2A46936  21.960  40.025   6.585
 3551POPC   C3A46937  22.117  39.922   7.018
 3551POPC   C4A46938  22.380  39.913   7.397
 3551POPC   C1B46939  22.092  40.369   6.189
 3551POPC   C2B46940  22.332  40.366   6.583
 3551POPC   C3B46941  22.079  40.459   6.959
 3551POPC   C4B46942  22.036  40.291   7.359
 3552POPC   NC346943   1.734  35.932   5.560
 3552POPC   PO446944   1.167  36.200   5.500
 3552POPC   GL146945   1.195  36.073   5.887
 3552POPC   GL246946   1.395  35.785   5.931
 3552POPC   C1A46947   0.944  35.908   6.206
 3552POPC   D2A46948   0.769  36.050   6.578
 3552POPC   C3A46949   0.819  35.877   6.965
 3552POPC   C4A46950   0.963  36.022   7.381
 3552POPC   C1B46951   1.476  36.068   6.288
 3552POPC   C2B46952   1.265  36.127   6.636
 3552POPC   C3B46953   1.316  35.980   7.023
 3552POPC   C4B46954   1.474  36.103   7.397
 3553POPC   NC346955  11.813  34.364   5.408
 3553POPC   PO446956  11.260  34.759   5.666
 3553POPC   GL146957  11.421  34.398   5.841
 3553POPC   GL246958  11.119  34.300   6.003
 3553POPC   C1A46959  11.555  34.353   6.266
 3553POPC   D2A46960  11.661  34.725   6.517
 3553POPC   C3A46961  11.629  34.632   6.968
 3553POPC   C4A46962  11.581  34.205   7.139
 3553POPC   C1B46963  11.135  34.631   6.310
 3553POPC   C2B46964  11.077  34.328   6.616
 3553POPC   C3B46965  11.136  34.399   7.013
 3553POPC   C4B46966  11.196  34.843   7.144
 3554POPC   NC346967  25.801   9.412   5.092
 3554POPC   PO446968  26.122   9.997   5.343
 3554POPC   GL146969  26.111   9.910   5.785
 3554POPC   GL246970  25.946  10.200   5.885
 3554POPC   C1A46971  26.314   9.794   6.189
 3554POPC   D2A46972  26.177   9.877   6.622
 3554POPC   C3A46973  26.304   9.621   6.988
 3554POPC   C4A46974  26.440   9.482   7.413
 3554POPC   C1B46975  25.828  10.031   6.259
 3554POPC   C2B46976  25.702  10.099   6.682
 3554POPC   C3B46977  25.780   9.762   6.943
 3554POPC   C4B46978  25.919   9.578   7.319
 3555POPC   NC346979  21.261  21.958   5.051
 3555POPC   PO446980  21.281  22.494   5.584
 3555POPC   GL146981  21.347  22.241   5.929
 3555POPC   GL246982  21.556  21.956   5.952
 3555POPC   C1A46983  21.386  22.274   6.361
 3555POPC   D2A46984  21.174  22.308   6.748
 3555POPC   C3A46985  21.514  22.381   7.032
 3555POPC   C4A46986  21.692  22.101   7.359
 3555POPC   C1B46987  21.259  21.768   6.263
 3555POPC   C2B46988  21.170  21.763   6.723
 3555POPC   C3B46989  21.258  21.948   7.134
 3555POPC   C4B46990  21.301  21.921   7.636
 3556POPC   NC346991  36.076  20.137   5.306
 3556POPC   PO446992  36.391  19.518   5.396
 3556POPC   GL146993  36.173  19.631   5.774
 3556POPC   GL246994  36.192  19.968   5.812
 3556POPC   C1A46995  35.929  19.730   6.182
 3556POPC   D2A46996  35.755  19.664   6.599
 3556POPC   C3A46997  35.971  19.824   6.948
 3556POPC   C4A46998  35.830  19.957   7.325
 3556POPC   C1B46999  36.441  19.818   6.217
 3556POPC   C2B47000  36.400  19.859   6.698
 3556POPC   C3B47001  36.422  19.814   7.179
 3556POPC   C4B47002  36.245  19.989   7.573
 3557POPC   NC347003  19.663  22.034   5.636
 3557POPC   PO447004  20.321  22.237   5.474
 3557POPC   GL147005  20.063  22.369   5.834
 3557POPC   GL247006  20.031  22.044   5.981
 3557POPC   C1A47007  19.787  22.457   6.193
 3557POPC   D2A47008  19.936  22.194   6.495
 3557POPC   C3A47009  19.795  22.119   6.899
 3557POPC   C4A47010  19.637  22.368   7.240
 3557POPC   C1B47011  20.242  21.782   6.273
 3557POPC   C2B47012  20.235  21.847   6.705
 3557POPC   C3B47013  20.150  21.676   7.046
 3557POPC   C4B47014  19.906  21.847   7.319
 3558POPC   NC347015  42.059  39.988   5.118
 3558POPC   PO447016  41.595  40.210   5.544
 3558POPC   GL147017  41.713  40.064   5.948
 3558POPC   GL247018  41.710  39.708   5.882
 3558POPC   C1A47019  41.645  40.104   6.420
 3558POPC   D2A47020  41.668  39.942   6.871
 3558POPC   C3A47021  41.575  40.138   7.281
 3558POPC   C4A47022  41.765  40.479   7.581
 3558POPC   C1B47023  41.355  39.735   6.210
 3558POPC   C2B47024  41.207  39.841   6.665
 3558POPC   C3B47025  41.265  39.729   7.118
 3558POPC   C4B47026  41.309  39.815   7.608
 3559POPC   NC347027   7.643   4.874   5.449
 3559POPC   PO447028   7.078   5.151   5.710
 3559POPC   GL147029   7.329   5.145   6.032
 3559POPC   GL247030   7.641   5.044   5.928
 3559POPC   C1A47031   7.339   5.420   6.372
 3559POPC   D2A47032   7.149   5.459   6.796
 3559POPC   C3A47033   7.458   5.343   7.108
 3559POPC   C4A47034   7.587   5.244   7.535
 3559POPC   C1B47035   7.688   5.041   6.390
 3559POPC   C2B47036   7.425   4.934   6.749
 3559POPC   C3B47037   7.540   4.847   7.191
 3559POPC   C4B47038   7.697   4.753   7.621
 3560POPC   NC347039  38.708  14.712   5.136
 3560POPC   PO447040  38.158  14.304   5.204
 3560POPC   GL147041  38.126  14.509   5.610
 3560POPC   GL247042  38.502  14.548   5.603
 3560POPC   C1A47043  38.136  14.432   6.073
 3560POPC   D2A47044  38.170  14.149   6.428
 3560POPC   C3A47045  38.214  14.379   6.794
 3560POPC   C4A47046  38.372  14.274   7.172
 3560POPC   C1B47047  38.598  14.605   6.032
 3560POPC   C2B47048  38.584  14.555   6.469
 3560POPC   C3B47049  38.764  14.720   6.846
 3560POPC   C4B47050  38.785  14.563   7.247
 3561POPC   NC347051  42.982   5.620   5.416
 3561POPC   PO447052  43.227   6.275   5.356
 3561POPC   GL147053  43.200   6.113   5.797
 3561POPC   GL247054  43.553   6.142   5.774
 3561POPC   C1A47055  43.087   5.969   6.258
 3561POPC   D2A47056  42.781   5.982   6.614
 3561POPC   C3A47057  42.855   5.759   7.021
 3561POPC   C4A47058  42.942   5.965   7.362
 3561POPC   C1B47059  43.500   6.267   6.204
 3561POPC   C2B47060  43.489   6.066   6.607
 3561POPC   C3B47061  43.276   6.037   6.966
 3561POPC   C4B47062  43.426   6.146   7.368
 3562POPC   NC347063   4.436   9.162   5.460
 3562POPC   PO447064   4.052   8.573   5.436
 3562POPC   GL147065   4.221   8.848   5.794
 3562POPC   GL247066   4.593   8.917   5.877
 3562POPC   C1A47067   4.152   8.991   6.210
 3562POPC   D2A47068   4.003   8.974   6.623
 3562POPC   C3A47069   4.128   9.230   6.958
 3562POPC   C4A47070   4.015   8.967   7.276
 3562POPC   C1B47071   4.666   8.900   6.341
 3562POPC   C2B47072   4.539   8.981   6.771
 3562POPC   C3B47073   4.565   9.037   7.235
 3562POPC   C4B47074   4.746   9.280   7.636
 3563POPC   NC347075  19.212   8.899   5.293
 3563POPC   PO447076  18.609   8.630   5.440
 3563POPC   GL147077  18.844   8.969   5.747
 3563POPC   GL247078  19.242   9.052   5.767
 3563POPC   C1A47079  18.984   9.125   6.184
 3563POPC   D2A47080  19.184   8.987   6.579
 3563POPC   C3A47081  19.120   8.914   7.019
 3563POPC   C4A47082  19.361   8.707   7.374
 3563POPC   C1B47083  19.434   9.384   6.025
 3563POPC   C2B47084  19.365   9.444   6.461
 3563POPC   C3B47085  19.393   9.345   6.901
 3563POPC   C4B47086  19.192   9.321   7.322
 3564POPC   NC347087  30.334  44.999   5.475
 3564POPC   PO447088  29.812  44.576   5.526
 3564POPC   GL147089  29.804  44.676   5.928
 3564POPC   GL247090  30.027  44.942   5.919
 3564POPC   C1A47091  30.116  44.525   6.241
 3564POPC   D2A47092  30.254  44.429   6.660
 3564POPC   C3A47093  30.026  44.571   7.024
 3564POPC   C4A47094  29.602  44.679   7.237
 3564POPC   C1B47095  29.734   0.095   6.265
 3564POPC   C2B47096  29.703   0.064   6.736
 3564POPC   C3B47097  30.029   0.079   7.098
 3564POPC   C4B47098  30.030  44.815   7.486
 3565POPC   NC347099   6.514  23.040   5.177
 3565POPC   PO447100   6.908  22.619   5.523
 3565POPC   GL147101   6.708  22.917   5.767
 3565POPC   GL247102   6.392  22.817   5.656
 3565POPC   C1A47103   6.611  23.126   6.194
 3565POPC   D2A47104   6.680  22.855   6.560
 3565POPC   C3A47105   6.708  23.076   6.949
 3565POPC   C4A47106   6.654  23.235   7.371
 3565POPC   C1B47107   6.364  22.697   6.107
 3565POPC   C2B47108   6.177  22.665   6.524
 3565POPC   C3B47109   6.302  22.753   6.928
 3565POPC   C4B47110   6.510  22.744   7.309
 3566POPC   NC347111  23.177   5.373   5.398
 3566POPC   PO447112  22.638   4.893   5.543
 3566POPC   GL147113  22.938   5.084   5.769
 3566POPC   GL247114  23.155   4.883   5.670
 3566POPC   C1A47115  22.937   5.235   6.179
 3566POPC   D2A47116  22.721   5.115   6.532
 3566POPC   C3A47117  22.721   5.427   6.820
 3566POPC   C4A47118  22.752   5.339   7.249
 3566POPC   C1B47119  23.275   4.863   6.126
 3566POPC   C2B47120  23.205   4.802   6.578
 3566POPC   C3B47121  23.040   4.994   6.957
 3566POPC   C4B47122  23.186   4.963   7.374
 3567POPC   NC347123  28.956  10.096   5.467
 3567POPC   PO447124  29.428   9.488   5.323
 3567POPC   GL147125  29.129   9.562   5.656
 3567POPC   GL247126  29.373   9.724   5.834
 3567POPC   C1A47127  28.950   9.560   6.091
 3567POPC   D2A47128  29.101   9.417   6.526
 3567POPC   C3A47129  29.257   9.643   6.905
 3567POPC   C4A47130  28.958   9.704   7.228
 3567POPC   C1B47131  29.325   9.880   6.260
 3567POPC   C2B47132  29.101  10.024   6.615
 3567POPC   C3B47133  29.087  10.227   7.016
 3567POPC   C4B47134  28.934  10.224   7.439
 3568POPC   NC347135  26.173  39.324   5.426
 3568POPC   PO447136  25.637  39.601   5.222
 3568POPC   GL147137  25.711  39.466   5.693
 3568POPC   GL247138  25.908  39.134   5.823
 3568POPC   C1A47139  25.753  39.488   6.160
 3568POPC   D2A47140  25.925  39.155   6.473
 3568POPC   C3A47141  25.840  39.219   6.942
 3568POPC   C4A47142  25.889  39.257   7.417
 3568POPC   C1B47143  26.250  39.368   6.103
 3568POPC   C2B47144  26.296  39.495   6.561
 3568POPC   C3B47145  26.372  39.198   6.919
 3568POPC   C4B47146  26.575  39.298   7.274
 3569POPC   NC347147   2.077   0.341   5.421
 3569POPC   PO447148   1.426   0.050   5.602
 3569POPC   GL147149   1.792   0.282   5.845
 3569POPC   GL247150   2.122   0.504   5.897
 3569POPC   C1A47151   1.984   0.150   6.227
 3569POPC   D2A47152   1.841   0.063   6.644
 3569POPC   C3A47153   2.117   0.259   6.916
 3569POPC   C4A47154   2.178   0.285   7.306
 3569POPC   C1B47155   2.024   0.749   6.271
 3569POPC   C2B47156   1.962   0.684   6.710
 3569POPC   C3B47157   2.115   0.782   7.152
 3569POPC   C4B47158   2.287   0.712   7.597
 3570POPC   NC347159  20.599  18.205   5.451
 3570POPC   PO447160  20.857  18.799   5.609
 3570POPC   GL147161  20.575  18.631   5.921
 3570POPC   GL247162  20.264  18.610   5.767
 3570POPC   C1A47163  20.428  18.372   6.280
 3570POPC   D2A47164  20.414  18.171   6.708
 3570POPC   C3A47165  20.752  18.352   6.988
 3570POPC   C4A47166  21.085  18.366   7.309
 3570POPC   C1B47167  20.005  18.656   6.155
 3570POPC   C2B47168  20.079  18.613   6.615
 3570POPC   C3B47169  20.272  18.531   7.039
 3570POPC   C4B47170  20.362  18.106   7.264
 3571POPC   NC347171  15.611  35.552   5.329
 3571POPC   PO447172  16.179  35.391   5.469
 3571POPC   GL147173  15.964  35.264   5.813
 3571POPC   GL247174  15.614  35.292   5.776
 3571POPC   C1A47175  16.112  35.350   6.222
 3571POPC   D2A47176  16.055  35.165   6.600
 3571POPC   C3A47177  16.150  35.457   6.921
 3571POPC   C4A47178  16.166  35.135   7.193
 3571POPC   C1B47179  15.603  35.348   6.226
 3571POPC   C2B47180  15.743  35.547   6.606
 3571POPC   C3B47181  15.661  35.315   6.972
 3571POPC   C4B47182  15.661  35.059   7.330
 3572POPC   NC347183  18.566   2.978   5.390
 3572POPC   PO447184  17.964   2.617   5.327
 3572POPC   GL147185  18.041   2.880   5.725
 3572POPC   GL247186  18.312   2.716   5.749
 3572POPC   C1A47187  18.133   3.078   6.159
 3572POPC   D2A47188  18.059   3.246   6.613
 3572POPC   C3A47189  18.197   2.991   6.986
 3572POPC   C4A47190  18.569   2.946   7.239
 3572POPC   C1B47191  18.433   2.666   6.160
 3572POPC   C2B47192  18.484   2.851   6.545
 3572POPC   C3B47193  18.564   2.586   6.894
 3572POPC   C4B47194  18.786   2.506   7.301
 3573POPC   NC347195  24.901  40.014   5.433
 3573POPC   PO447196  24.271  40.082   5.221
 3573POPC   GL147197  24.469  39.981   5.710
 3573POPC   GL247198  24.804  39.850   5.896
 3573POPC   C1A47199  24.373  39.811   6.132
 3573POPC   D2A47200  24.687  39.821   6.485
 3573POPC   C3A47201  24.523  39.783   6.918
 3573POPC   C4A47202  24.661  39.832   7.361
 3573POPC   C1B47203  25.067  40.093   6.189
 3573POPC   C2B47204  25.135  40.211   6.619
 3573POPC   C3B47205  24.901  40.123   6.971
 3573POPC   C4B47206  24.893  40.280   7.345
 3574POPC   NC347207  44.970  17.284   5.493
 3574POPC   PO447208   0.599  17.509   5.582
 3574POPC   GL147209   0.337  17.280   5.882
 3574POPC   GL247210   0.023  17.485   5.954
 3574POPC   C1A47211   0.315  17.236   6.320
 3574POPC   D2A47212   0.248  17.337   6.710
 3574POPC   C3A47213   0.335  17.174   7.037
 3574POPC   C4A47214   0.295  17.419   7.352
 3574POPC   C1B47215   0.278  17.814   6.124
 3574POPC   C2B47216   0.444  17.776   6.540
 3574POPC   C3B47217   0.401  17.764   7.000
 3574POPC   C4B47218   0.126  17.874   7.373
 3575POPC   NC347219  36.639  14.105   5.358
 3575POPC   PO447220  37.210  14.453   5.485
 3575POPC   GL147221  36.918  14.288   5.742
 3575POPC   GL247222  36.999  14.545   5.971
 3575POPC   C1A47223  36.689  14.133   6.114
 3575POPC   D2A47224  36.716  13.922   6.549
 3575POPC   C3A47225  36.754  14.197   6.963
 3575POPC   C4A47226  36.643  14.582   7.253
 3575POPC   C1B47227  37.204  14.199   6.162
 3575POPC   C2B47228  37.247  14.008   6.545
 3575POPC   C3B47229  37.272  14.137   6.940
 3575POPC   C4B47230  37.319  14.264   7.349
 3576POPC   NC347231   4.771  20.680   5.479
 3576POPC   PO447232   4.117  20.593   5.421
 3576POPC   GL147233   4.327  20.651   5.791
 3576POPC   GL247234   4.179  20.975   5.797
 3576POPC   C1A47235   4.543  20.486   6.171
 3576POPC   D2A47236   4.509  20.288   6.585
 3576POPC   C3A47237   4.150  20.391   6.834
 3576POPC   C4A47238   4.191  20.449   7.255
 3576POPC   C1B47239   4.444  20.993   6.156
 3576POPC   C2B47240   4.437  20.864   6.577
 3576POPC   C3B47241   4.558  20.666   6.932
 3576POPC   C4B47242   4.587  20.796   7.303
 3577POPC   NC347243  43.309  21.971   5.435
 3577POPC   PO447244  43.020  22.517   5.387
 3577POPC   GL147245  42.967  22.273   5.750
 3577POPC   GL247246  43.103  21.994   5.902
 3577POPC   C1A47247  42.877  22.396   6.162
 3577POPC   D2A47248  43.024  22.341   6.598
 3577POPC   C3A47249  42.791  22.418   6.997
 3577POPC   C4A47250  42.809  22.386   7.457
 3577POPC   C1B47251  43.377  22.241   6.144
 3577POPC   C2B47252  43.531  22.372   6.541
 3577POPC   C3B47253  43.393  22.142   6.893
 3577POPC   C4B47254  43.167  22.121   7.243
 3578POPC   NC347255  16.695  38.092   5.217
 3578POPC   PO447256  16.608  38.745   5.424
 3578POPC   GL147257  16.596  38.549   5.807
 3578POPC   GL247258  16.609  38.194   5.729
 3578POPC   C1A47259  16.672  38.638   6.242
 3578POPC   D2A47260  16.478  38.450   6.609
 3578POPC   C3A47261  16.586  38.594   7.012
 3578POPC   C4A47262  16.875  38.480   7.284
 3578POPC   C1B47263  16.970  38.202   6.010
 3578POPC   C2B47264  16.934  38.245   6.452
 3578POPC   C3B47265  16.838  38.158   6.884
 3578POPC   C4B47266  16.438  38.078   7.121
 3579POPC   NC347267  43.445   7.380   5.335
 3579POPC   PO447268  42.924   7.326   5.715
 3579POPC   GL147269  43.179   7.626   5.884
 3579POPC   GL247270  42.893   7.886   5.944
 3579POPC   C1A47271  43.421   7.489   6.254
 3579POPC   D2A47272  43.369   7.205   6.637
 3579POPC   C3A47273  43.260   7.358   7.048
 3579POPC   C4A47274  42.895   7.226   7.185
 3579POPC   C1B47275  42.920   7.636   6.334
 3579POPC   C2B47276  43.151   7.703   6.706
 3579POPC   C3B47277  42.988   7.780   7.152
 3579POPC   C4B47278  42.758   7.910   7.527
 3580POPC   NC347279   2.756   3.599   5.043
 3580POPC   PO447280   2.682   3.614   5.666
 3580POPC   GL147281   2.684   3.369   5.975
 3580POPC   GL247282   2.372   3.164   5.935
 3580POPC   C1A47283   2.837   3.543   6.357
 3580POPC   D2A47284   2.969   3.916   6.596
 3580POPC   C3A47285   2.987   3.794   7.033
 3580POPC   C4A47286   3.007   3.382   7.244
 3580POPC   C1B47287   2.482   3.180   6.403
 3580POPC   C2B47288   2.730   3.269   6.780
 3580POPC   C3B47289   2.524   3.261   7.174
 3580POPC   C4B47290   2.237   3.191   7.523
 3581POPC   NC347291  37.530  27.795   5.133
 3581POPC   PO447292  38.042  27.410   5.392
 3581POPC   GL147293  37.658  27.655   5.625
 3581POPC   GL247294  37.380  27.452   5.787
 3581POPC   C1A47295  37.565  27.849   6.053
 3581POPC   D2A47296  37.794  27.893   6.460
 3581POPC   C3A47297  37.600  27.882   6.881
 3581POPC   C4A47298  37.610  27.668   7.273
 3581POPC   C1B47299  37.364  27.341   6.254
 3581POPC   C2B47300  37.338  27.380   6.728
 3581POPC   C3B47301  37.375  27.222   7.152
 3581POPC   C4B47302  37.433  27.308   7.613
 3582POPC   NC347303  25.897   6.928   5.543
 3582POPC   PO447304  26.437   6.529   5.395
 3582POPC   GL147305  26.300   6.603   5.781
 3582POPC   GL247306  25.993   6.442   5.784
 3582POPC   C1A47307  26.109   6.754   6.172
 3582POPC   D2A47308  25.949   6.688   6.567
 3582POPC   C3A47309  26.105   6.960   6.830
 3582POPC   C4A47310  25.826   7.157   7.049
 3582POPC   C1B47311  25.786   6.309   6.167
 3582POPC   C2B47312  25.534   6.384   6.537
 3582POPC   C3B47313  25.734   6.318   6.933
 3582POPC   C4B47314  26.155   6.468   7.003
 3583POPC   NC347315  22.342   4.783   5.215
 3583POPC   PO447316  21.826   4.324   5.408
 3583POPC   GL147317  21.913   4.268   5.837
 3583POPC   GL247318  22.182   4.526   5.820
 3583POPC   C1A47319  21.902   4.195   6.303
 3583POPC   D2A47320  21.851   4.171   6.755
 3583POPC   C3A47321  21.954   4.446   7.088
 3583POPC   C4A47322  21.816   4.390   7.545
 3583POPC   C1B47323  22.382   4.327   6.187
 3583POPC   C2B47324  22.318   4.361   6.626
 3583POPC   C3B47325  22.337   4.116   6.985
 3583POPC   C4B47326  22.272   4.212   7.417
 3584POPC   NC347327  14.722  11.038   5.372
 3584POPC   PO447328  14.520  11.699   5.447
 3584POPC   GL147329  14.439  11.305   5.701
 3584POPC   GL247330  14.072  11.304   5.741
 3584POPC   C1A47331  14.588  11.170   6.113
 3584POPC   D2A47332  14.590  11.476   6.503
 3584POPC   C3A47333  14.577  11.295   6.935
 3584POPC   C4A47334  14.486  11.335   7.393
 3584POPC   C1B47335  14.120  11.306   6.193
 3584POPC   C2B47336  14.281  11.047   6.549
 3584POPC   C3B47337  14.135  11.032   6.991
 3584POPC   C4B47338  13.976  11.364   7.271
 3585POPC   NC347339  36.930  38.879   5.255
 3585POPC   PO447340  37.015  38.235   5.419
 3585POPC   GL147341  36.858  38.427   5.779
 3585POPC   GL247342  36.903  38.759   5.826
 3585POPC   C1A47343  36.740  38.402   6.213
 3585POPC   D2A47344  36.670  38.185   6.613
 3585POPC   C3A47345  36.618  38.422   7.003
 3585POPC   C4A47346  36.693  38.338   7.443
 3585POPC   C1B47347  36.936  38.863   6.299
 3585POPC   C2B47348  37.050  38.587   6.672
 3585POPC   C3B47349  37.120  38.504   7.120
 3585POPC   C4B47350  36.959  38.792   7.436
 3586POPC   NC347351  22.643   4.422   5.599
 3586POPC   PO447352  23.312   4.156   5.495
 3586POPC   GL147353  23.243   4.393   5.883
 3586POPC   GL247354  22.920   4.555   5.976
 3586POPC   C1A47355  23.146   4.182   6.272
 3586POPC   D2A47356  23.099   3.878   6.616
 3586POPC   C3A47357  22.957   4.174   6.897
 3586POPC   C4A47358  23.082   4.518   7.164
 3586POPC   C1B47359  22.769   4.638   6.350
 3586POPC   C2B47360  22.716   4.651   6.780
 3586POPC   C3B47361  22.583   4.504   7.160
 3586POPC   C4B47362  22.749   4.066   7.336
 3587POPC   NC347363  32.371  22.385   5.145
 3587POPC   PO447364  31.849  21.901   5.349
 3587POPC   GL147365  32.192  22.156   5.599
 3587POPC   GL247366  32.010  22.010   5.857
 3587POPC   C1A47367  32.356  22.334   6.052
 3587POPC   D2A47368  32.248  22.479   6.521
 3587POPC   C3A47369  32.454  22.352   6.950
 3587POPC   C4A47370  32.454  22.188   7.413
 3587POPC   C1B47371  31.925  22.138   6.279
 3587POPC   C2B47372  31.908  22.085   6.713
 3587POPC   C3B47373  32.030  22.079   7.117
 3587POPC   C4B47374  32.114  21.806   7.443
 3588POPC   NC347375  17.998  41.093   5.297
 3588POPC   PO447376  18.408  40.676   5.304
 3588POPC   GL147377  18.133  40.745   5.654
 3588POPC   GL247378  18.228  41.102   5.742
 3588POPC   C1A47379  18.100  40.751   6.094
 3588POPC   D2A47380  18.382  40.581   6.384
 3588POPC   C3A47381  18.257  40.558   6.816
 3588POPC   C4A47382  17.954  40.659   7.133
 3588POPC   C1B47383  18.442  41.155   6.122
 3588POPC   C2B47384  18.257  41.059   6.505
 3588POPC   C3B47385  18.211  41.084   6.937
 3588POPC   C4B47386  18.470  40.877   7.204
 3589POPC   NC347387   8.933  44.022   5.280
 3589POPC   PO447388   9.480  44.162   5.505
 3589POPC   GL147389   9.117  43.970   5.755
 3589POPC   GL247390   9.279  43.726   5.850
 3589POPC   C1A47391   8.892  43.681   6.147
 3589POPC   D2A47392   8.984  43.695   6.628
 3589POPC   C3A47393   8.779  43.952   6.977
 3589POPC   C4A47394   8.707  44.027   7.442
 3589POPC   C1B47395   9.199  44.057   6.243
 3589POPC   C2B47396   9.366  44.018   6.663
 3589POPC   C3B47397   9.270  43.882   7.089
 3589POPC   C4B47398   9.011  43.539   7.243
 3590POPC   NC347399  34.155  36.891   5.398
 3590POPC   PO447400  34.763  37.211   5.488
 3590POPC   GL147401  34.599  36.964   5.863
 3590POPC   GL247402  34.308  36.725   5.863
 3590POPC   C1A47403  34.392  37.042   6.282
 3590POPC   D2A47404  34.385  37.266   6.687
 3590POPC   C3A47405  34.473  36.972   7.038
 3590POPC   C4A47406  34.821  36.739   7.186
 3590POPC   C1B47407  34.412  36.539   6.246
 3590POPC   C2B47408  34.584  36.631   6.640
 3590POPC   C3B47409  34.490  36.417   7.040
 3590POPC   C4B47410  34.360  36.625   7.426
 3591POPC   NC347411  29.376  38.113   5.380
 3591POPC   PO447412  28.700  37.828   5.581
 3591POPC   GL147413  29.150  37.702   5.676
 3591POPC   GL247414  29.148  37.995   5.855
 3591POPC   C1A47415  29.439  37.638   6.063
 3591POPC   D2A47416  29.388  37.836   6.479
 3591POPC   C3A47417  29.410  37.622   6.870
 3591POPC   C4A47418  29.437  37.411   7.278
 3591POPC   C1B47419  28.941  37.759   6.222
 3591POPC   C2B47420  28.856  37.601   6.673
 3591POPC   C3B47421  28.974  37.467   7.086
 3591POPC   C4B47422  29.081  37.693   7.483
 3592POPC   NC347423  14.978  12.351   5.701
 3592POPC   PO447424  15.383  11.842   5.494
 3592POPC   GL147425  15.161  11.907   5.875
 3592POPC   GL247426  15.471  11.902   6.048
 3592POPC   C1A47427  14.991  11.846   6.305
 3592POPC   D2A47428  15.152  11.621   6.666
 3592POPC   C3A47429  15.016  11.777   7.052
 3592POPC   C4A47430  14.946  12.195   7.220
 3592POPC   C1B47431  15.298  12.249   6.305
 3592POPC   C2B47432  15.161  12.167   6.727
 3592POPC   C3B47433  15.425  12.094   7.092
 3592POPC   C4B47434  15.306  11.957   7.513
 3593POPC   NC347435  39.578  36.593   5.585
 3593POPC   PO447436  39.017  36.278   5.209
 3593POPC   GL147437  39.176  36.198   5.668
 3593POPC   GL247438  39.503  36.125   5.796
 3593POPC   C1A47439  39.175  36.265   6.155
 3593POPC   D2A47440  38.902  36.183   6.520
 3593POPC   C3A47441  39.028  36.012   6.927
 3593POPC   C4A47442  39.173  36.082   7.344
 3593POPC   C1B47443  39.620  35.982   6.198
 3593POPC   C2B47444  39.467  36.134   6.604
 3593POPC   C3B47445  39.561  35.941   7.001
 3593POPC   C4B47446  39.669  36.033   7.418
 3594POPC   NC347447  15.207  37.040   5.487
 3594POPC   PO447448  14.852  36.540   5.263
 3594POPC   GL147449  14.905  36.690   5.710
 3594POPC   GL247450  14.796  37.061   5.795
 3594POPC   C1A47451  15.122  36.844   6.135
 3594POPC   D2A47452  15.097  36.984   6.582
 3594POPC   C3A47453  15.214  36.750   6.955
 3594POPC   C4A47454  15.360  36.539   7.313
 3594POPC   C1B47455  14.880  37.327   6.180
 3594POPC   C2B47456  14.737  37.366   6.612
 3594POPC   C3B47457  14.871  37.211   7.011
 3594POPC   C4B47458  15.312  37.226   7.105
 3595POPC   NC347459  29.119   9.135   5.258
 3595POPC   PO447460  28.639   8.756   5.532
 3595POPC   GL147461  28.948   9.051   5.782
 3595POPC   GL247462  29.348   9.091   5.709
 3595POPC   C1A47463  28.863   9.059   6.239
 3595POPC   D2A47464  28.888   8.946   6.679
 3595POPC   C3A47465  29.082   9.172   7.025
 3595POPC   C4A47466  28.974   8.996   7.430
 3595POPC   C1B47467  29.375   9.077   6.154
 3595POPC   C2B47468  29.410   8.988   6.591
 3595POPC   C3B47469  29.335   8.724   6.947
 3595POPC   C4B47470  29.395   8.722   7.383
 3596POPC   NC347471  19.095  17.216   5.343
 3596POPC   PO447472  19.443  17.777   5.279
 3596POPC   GL147473  19.214  17.697   5.697
 3596POPC   GL247474  19.420  17.454   5.870
 3596POPC   C1A47475  18.927  17.537   6.048
 3596POPC   D2A47476  18.915  17.299   6.465
 3596POPC   C3A47477  18.862  17.504   6.882
 3596POPC   C4A47478  18.975  17.408   7.301
 3596POPC   C1B47479  19.357  17.768   6.229
 3596POPC   C2B47480  19.476  17.919   6.684
 3596POPC   C3B47481  19.391  17.727   7.112
 3596POPC   C4B47482  19.263  17.744   7.558
 3597POPC   NC347483  36.333  17.242   5.283
 3597POPC   PO447484  35.941  17.767   5.659
 3597POPC   GL147485  36.167  17.486   5.920
 3597POPC   GL247486  36.452  17.272   5.803
 3597POPC   C1A47487  36.019  17.510   6.313
 3597POPC   D2A47488  35.749  17.753   6.553
 3597POPC   C3A47489  35.949  17.655   6.927
 3597POPC   C4A47490  35.912  17.482   7.342
 3597POPC   C1B47491  36.511  17.385   6.271
 3597POPC   C2B47492  36.347  17.181   6.657
 3597POPC   C3B47493  36.305  17.297   7.090
 3597POPC   C4B47494  36.384  17.692   7.309
 3598POPC   NC347495   1.495   0.480   5.431
 3598POPC   PO447496   0.871   0.731   5.488
 3598POPC   GL147497   0.987   0.491   5.860
 3598POPC   GL247498   1.330   0.492   5.905
 3598POPC   C1A47499   1.063   0.366   6.319
 3598POPC   D2A47500   1.012   0.652   6.678
 3598POPC   C3A47501   1.019   0.414   7.045
 3598POPC   C4A47502   0.902   0.047   7.250
 3598POPC   C1B47503   1.581   0.464   6.287
 3598POPC   C2B47504   1.466   0.388   6.698
 3598POPC   C3B47505   1.668   0.479   7.080
 3598POPC   C4B47506   1.389   0.476   7.392
 3599POPC   NC347507  36.653  36.407   5.291
 3599POPC   PO447508  36.812  35.907   5.650
 3599POPC   GL147509  36.582  36.065   5.967
 3599POPC   GL247510  36.525  36.406   5.820
 3599POPC   C1A47511  36.736  36.027   6.405
 3599POPC   D2A47512  37.048  36.080   6.761
 3599POPC   C3A47513  36.846  35.987   7.151
 3599POPC   C4A47514  36.956  35.834   7.580
 3599POPC   C1B47515  36.711  36.519   6.233
 3599POPC   C2B47516  36.724  36.509   6.691
 3599POPC   C3B47517  36.992  36.507   7.077
 3599POPC   C4B47518  36.936  36.359   7.506
 3600POPC   NC347519  42.880  33.249   5.457
 3600POPC   PO447520  43.299  32.651   5.425
 3600POPC   GL147521  43.165  32.765   5.802
 3600POPC   GL247522  43.244  33.091   5.791
 3600POPC   C1A47523  43.081  32.701   6.225
 3600POPC   D2A47524  43.162  32.964   6.576
 3600POPC   C3A47525  43.112  32.826   6.992
 3600POPC   C4A47526  43.453  32.869   7.289
 3600POPC   C1B47527  43.047  33.268   6.161
 3600POPC   C2B47528  43.222  33.476   6.543
 3600POPC   C3B47529  43.349  33.317   6.970
 3600POPC   C4B47530  43.078  33.212   7.331
 3601POPC   NC347531   5.642  21.995   5.466
 3601POPC   PO447532   5.940  22.549   5.319
 3601POPC   GL147533   5.848  22.401   5.764
 3601POPC   GL247534   6.107  22.289   6.018
 3601POPC   C1A47535   5.548  22.290   6.113
 3601POPC   D2A47536   5.760  22.335   6.514
 3601POPC   C3A47537   5.638  22.484   6.865
 3601POPC   C4A47538   5.698  22.253   7.237
 3601POPC   C1B47539   5.941  21.948   6.257
 3601POPC   C2B47540   5.893  21.829   6.714
 3601POPC   C3B47541   6.007  21.837   7.188
 3601POPC   C4B47542   6.166  21.673   7.593
 3602POPC   NC347543  25.601   1.001   5.415
 3602POPC   PO447544  25.043   1.448   5.480
 3602POPC   GL147545  25.254   1.164   5.779
 3602POPC   GL247546  25.534   1.363   5.839
 3602POPC   C1A47547  25.542   0.946   6.114
 3602POPC   D2A47548  25.707   0.934   6.542
 3602POPC   C3A47549  25.393   0.994   6.872
 3602POPC   C4A47550  25.402   1.086   7.337
 3602POPC   C1B47551  25.274   1.491   6.172
 3602POPC   C2B47552  25.210   1.407   6.595
 3602POPC   C3B47553  25.346   1.488   6.992
 3602POPC   C4B47554  25.203   1.563   7.399
 3603POPC   NC347555  42.101   0.264   5.431
 3603POPC   PO447556  41.487   0.687   5.479
 3603POPC   GL147557  41.585   0.476   5.817
 3603POPC   GL247558  41.918   0.456   5.860
 3603POPC   C1A47559  41.366   0.512   6.183
 3603POPC   D2A47560  41.269   0.531   6.591
 3603POPC   C3A47561  41.447   0.295   6.903
 3603POPC   C4A47562  41.344   0.332   7.340
 3603POPC   C1B47563  41.863   0.658   6.260
 3603POPC   C2B47564  41.754   0.668   6.688
 3603POPC   C3B47565  41.818   0.649   7.099
 3603POPC   C4B47566  41.838   0.233   7.270
 3604POPC   NC347567  44.247  43.125   5.392
 3604POPC   PO447568  43.638  43.336   5.205
 3604POPC   GL147569  43.784  43.166   5.614
 3604POPC   GL247570  43.954  43.446   5.771
 3604POPC   C1A47571  43.806  43.050   6.070
 3604POPC   D2A47572  43.681  43.347   6.412
 3604POPC   C3A47573  43.668  43.243   6.861
 3604POPC   C4A47574  43.631  43.456   7.271
 3604POPC   C1B47575  44.225  43.373   6.130
 3604POPC   C2B47576  44.150  43.114   6.480
 3604POPC   C3B47577  44.201  43.266   6.872
 3604POPC   C4B47578  44.083  43.134   7.227
 3605POPC   NC347579   6.048  19.594   5.401
 3605POPC   PO447580   5.781  19.051   5.210
 3605POPC   GL147581   5.703  19.284   5.674
 3605POPC   GL247582   5.352  19.447   5.759
 3605POPC   C1A47583   5.787  19.184   6.174
 3605POPC   D2A47584   5.722  18.983   6.633
 3605POPC   C3A47585   5.951  19.045   7.053
 3605POPC   C4A47586   6.050  19.038   7.508
 3605POPC   C1B47587   5.474  19.583   6.184
 3605POPC   C2B47588   5.645  19.493   6.616
 3605POPC   C3B47589   5.513  19.308   7.020
 3605POPC   C4B47590   5.582  19.279   7.494
 3606POPC   NC347591   0.132  31.494   5.559
 3606POPC   PO447592   0.755  31.236   5.472
 3606POPC   GL147593   0.514  31.339   5.849
 3606POPC   GL247594   0.500  31.724   5.816
 3606POPC   C1A47595   0.179  31.297   6.204
 3606POPC   D2A47596  44.966  31.400   6.625
 3606POPC   C3A47597   0.137  31.205   7.025
 3606POPC   C4A47598   0.203  31.440   7.442
 3606POPC   C1B47599   0.231  31.804   6.160
 3606POPC   C2B47600   0.392  31.662   6.525
 3606POPC   C3B47601   0.423  31.615   6.951
 3606POPC   C4B47602   0.572  31.780   7.311
 3607POPC   NC347603  42.176  17.786   5.261
 3607POPC   PO447604  42.454  17.203   5.387
 3607POPC   GL147605  42.364  17.553   5.683
 3607POPC   GL247606  42.635  17.811   5.726
 3607POPC   C1A47607  42.129  17.541   6.095
 3607POPC   D2A47608  42.316  17.473   6.505
 3607POPC   C3A47609  42.153  17.401   6.895
 3607POPC   C4A47610  42.152  17.713   7.186
 3607POPC   C1B47611  42.648  17.518   6.113
 3607POPC   C2B47612  42.828  17.446   6.550
 3607POPC   C3B47613  42.639  17.589   6.962
 3607POPC   C4B47614  42.597  17.536   7.418
 3608POPC   NC347615  38.461  23.780   5.410
 3608POPC   PO447616  39.201  23.965   5.345
 3608POPC   GL147617  39.359  23.775   5.726
 3608POPC   GL247618  39.052  23.608   5.842
 3608POPC   C1A47619  39.317  23.922   6.154
 3608POPC   D2A47620  39.131  23.804   6.523
 3608POPC   C3A47621  39.287  23.786   6.894
 3608POPC   C4A47622  39.102  23.878   7.287
 3608POPC   C1B47623  38.993  23.430   6.226
 3608POPC   C2B47624  38.912  23.352   6.689
 3608POPC   C3B47625  39.060  23.415   7.127
 3608POPC   C4B47626  39.102  23.486   7.611
 3609POPC   NC347627  10.312  42.146   5.349
 3609POPC   PO447628  10.883  42.094   5.255
 3609POPC   GL147629  10.713  42.125   5.700
 3609POPC   GL247630  10.611  42.445   5.741
 3609POPC   C1A47631  10.564  42.151   6.164
 3609POPC   D2A47632  10.384  42.261   6.557
 3609POPC   C3A47633  10.654  42.326   6.885
 3609POPC   C4A47634  10.718  42.084   7.278
 3609POPC   C1B47635  10.316  42.591   6.094
 3609POPC   C2B47636  10.067  42.635   6.490
 3609POPC   C3B47637  10.218  42.662   6.927
 3609POPC   C4B47638  10.402  42.473   7.287
 3610POPC   NC347639  36.959  43.717   5.389
 3610POPC   PO447640  37.096  44.410   5.459
 3610POPC   GL147641  37.100  44.052   5.782
 3610POPC   GL247642  36.778  43.835   5.891
 3610POPC   C1A47643  37.091  43.975   6.238
 3610POPC   D2A47644  36.891  43.714   6.553
 3610POPC   C3A47645  36.999  43.783   6.977
 3610POPC   C4A47646  37.238  43.644   7.295
 3610POPC   C1B47647  36.603  44.069   6.311
 3610POPC   C2B47648  36.770  44.189   6.749
 3610POPC   C3B47649  36.676  44.115   7.230
 3610POPC   C4B47650  36.458  44.080   7.700
 3611POPC   NC347651   4.115   8.100   5.341
 3611POPC   PO447652   3.424   8.182   5.393
 3611POPC   GL147653   3.462   8.250   5.804
 3611POPC   GL247654   3.780   8.122   5.886
 3611POPC   C1A47655   3.370   8.145   6.229
 3611POPC   D2A47656   3.307   7.790   6.506
 3611POPC   C3A47657   3.528   7.847   6.917
 3611POPC   C4A47658   3.403   8.193   7.200
 3611POPC   C1B47659   3.869   8.353   6.301
 3611POPC   C2B47660   3.959   8.209   6.752
 3611POPC   C3B47661   3.920   8.321   7.216
 3611POPC   C4B47662   3.960   8.591   7.625
 3612POPC   NC347663  41.997   9.984   5.321
 3612POPC   PO447664  42.649   9.824   5.307
 3612POPC   GL147665  42.446   9.814   5.705
 3612POPC   GL247666  42.336  10.120   5.712
 3612POPC   C1A47667  42.438   9.590   6.092
 3612POPC   D2A47668  42.369   9.712   6.520
 3612POPC   C3A47669  42.621   9.459   6.814
 3612POPC   C4A47670  42.474   9.605   7.192
 3612POPC   C1B47671  42.202  10.069   6.134
 3612POPC   C2B47672  42.320  10.220   6.528
 3612POPC   C3B47673  42.234  10.070   6.931
 3612POPC   C4B47674  41.971   9.787   7.182
 3613POPC   NC347675   0.385  44.360   5.391
 3613POPC   PO447676   0.429   0.082   5.530
 3613POPC   GL147677   0.466  44.722   5.812
 3613POPC   GL247678   0.141  44.534   5.811
 3613POPC   C1A47679   0.630  44.788   6.241
 3613POPC   D2A47680   0.795  44.901   6.672
 3613POPC   C3A47681   0.637  44.659   7.038
 3613POPC   C4A47682   0.746  44.627   7.501
 3613POPC   C1B47683   0.114  44.665   6.219
 3613POPC   C2B47684   0.312  44.635   6.613
 3613POPC   C3B47685   0.076  44.690   6.961
 3613POPC   C4B47686   0.220  44.533   7.308
 3614POPC   NC347687   6.378  35.318   5.327
 3614POPC   PO447688   6.659  35.888   5.371
 3614POPC   GL147689   6.732  35.609   5.720
 3614POPC   GL247690   6.623  35.255   5.816
 3614POPC   C1A47691   6.709  35.600   6.164
 3614POPC   D2A47692   6.791  35.400   6.534
 3614POPC   C3A47693   6.754  35.645   6.895
 3614POPC   C4A47694   6.690  35.500   7.303
 3614POPC   C1B47695   6.746  34.977   6.194
 3614POPC   C2B47696   6.925  34.910   6.627
 3614POPC   C3B47697   6.829  35.042   7.035
 3614POPC   C4B47698   6.747  35.026   7.462
 3615POPC   NC347699  28.292  25.802   5.484
 3615POPC   PO447700  28.639  26.376   5.495
 3615POPC   GL147701  28.450  26.180   5.879
 3615POPC   GL247702  28.154  26.110   5.881
 3615POPC   C1A47703  28.396  26.020   6.334
 3615POPC   D2A47704  28.677  25.849   6.664
 3615POPC   C3A47705  28.582  26.000   7.096
 3615POPC   C4A47706  28.324  26.317   7.249
 3615POPC   C1B47707  27.895  25.982   6.211
 3615POPC   C2B47708  27.994  25.799   6.607
 3615POPC   C3B47709  28.097  25.887   7.031
 3615POPC   C4B47710  28.318  25.611   7.333
 3616POPC   NC347711  38.958  44.062   5.055
 3616POPC   PO447712  39.519  43.830   5.362
 3616POPC   GL147713  39.271  43.853   5.741
 3616POPC   GL247714  38.942  43.660   5.703
 3616POPC   C1A47715  39.356  43.908   6.193
 3616POPC   D2A47716  39.390  44.217   6.546
 3616POPC   C3A47717  39.164  44.253   6.960
 3616POPC   C4A47718  39.315  44.042   7.344
 3616POPC   C1B47719  38.880  43.758   6.149
 3616POPC   C2B47720  38.988  43.913   6.567
 3616POPC   C3B47721  39.144  43.746   6.954
 3616POPC   C4B47722  38.843  43.840   7.283
 3617POPC   NC347723  38.951  28.661   5.663
 3617POPC   PO447724  38.587  28.096   5.405
 3617POPC   GL147725  38.677  28.255   5.823
 3617POPC   GL247726  38.987  28.072   5.849
 3617POPC   C1A47727  38.456  28.324   6.247
 3617POPC   D2A47728  38.194  28.246   6.641
 3617POPC   C3A47729  38.315  28.455   7.050
 3617POPC   C4A47730  38.256  28.307   7.495
 3617POPC   C1B47731  38.818  27.953   6.272
 3617POPC   C2B47732  38.630  27.976   6.685
 3617POPC   C3B47733  38.533  27.988   7.127
 3617POPC   C4B47734  38.712  27.991   7.539
 3618POPC   NC347735  22.049  22.700   5.373
 3618POPC   PO447736  21.871  23.357   5.513
 3618POPC   GL147737  22.090  23.164   5.863
 3618POPC   GL247738  22.128  22.839   5.871
 3618POPC   C1A47739  22.343  23.208   6.255
 3618POPC   D2A47740  22.033  23.259   6.603
 3618POPC   C3A47741  22.173  23.201   7.012
 3618POPC   C4A47742  22.283  22.817   7.219
 3618POPC   C1B47743  22.017  22.822   6.280
 3618POPC   C2B47744  22.088  22.751   6.704
 3618POPC   C3B47745  21.815  22.817   7.035
 3618POPC   C4B47746  21.827  22.607   7.437
 3619POPC   NC347747  36.277  32.683   5.263
 3619POPC   PO447748  35.871  33.168   5.390
 3619POPC   GL147749  36.118  32.962   5.689
 3619POPC   GL247750  35.950  32.681   5.793
 3619POPC   C1A47751  36.290  33.044   6.112
 3619POPC   D2A47752  36.442  33.235   6.484
 3619POPC   C3A47753  36.379  33.101   6.873
 3619POPC   C4A47754  36.256  33.185   7.271
 3619POPC   C1B47755  35.894  32.724   6.203
 3619POPC   C2B47756  36.150  32.773   6.552
 3619POPC   C3B47757  35.966  32.814   6.946
 3619POPC   C4B47758  35.771  32.702   7.299
 3620POPC   NC347759  20.109  21.128   5.636
 3620POPC   PO447760  20.690  21.305   5.340
 3620POPC   GL147761  20.722  21.458   5.791
 3620POPC   GL247762  20.433  21.315   5.988
 3620POPC   C1A47763  20.743  21.635   6.239
 3620POPC   D2A47764  20.523  21.455   6.592
 3620POPC   C3A47765  20.659  21.637   6.992
 3620POPC   C4A47766  20.549  21.404   7.341
 3620POPC   C1B47767  20.784  21.141   6.223
 3620POPC   C2B47768  20.992  21.276   6.589
 3620POPC   C3B47769  20.897  21.184   7.005
 3620POPC   C4B47770  20.953  20.900   7.321
 3621POPC   NC347771   5.113  28.831   5.097
 3621POPC   PO447772   4.940  28.253   5.461
 3621POPC   GL147773   5.040  28.254   5.883
 3621POPC   GL247774   4.819  28.518   6.011
 3621POPC   C1A47775   5.021  28.137   6.315
 3621POPC   D2A47776   4.924  28.334   6.704
 3621POPC   C3A47777   5.228  28.339   7.033
 3621POPC   C4A47778   5.098  28.248   7.450
 3621POPC   C1B47779   5.194  28.601   6.267
 3621POPC   C2B47780   5.134  28.820   6.621
 3621POPC   C3B47781   4.971  28.764   7.024
 3621POPC   C4B47782   5.224  28.742   7.403
 3622POPC   NC347783  39.146  23.459   5.374
 3622POPC   PO447784  39.114  22.808   5.171
 3622POPC   GL147785  39.174  22.964   5.614
 3622POPC   GL247786  38.871  23.022   5.822
 3622POPC   C1A47787  39.288  23.014   6.087
 3622POPC   D2A47788  39.397  23.242   6.471
 3622POPC   C3A47789  39.390  23.115   6.864
 3622POPC   C4A47790  39.374  23.057   7.280
 3622POPC   C1B47791  38.731  23.015   6.240
 3622POPC   C2B47792  39.039  22.859   6.548
 3622POPC   C3B47793  39.031  22.764   6.996
 3622POPC   C4B47794  38.765  23.046   7.229
 3623POPC   NC347795   1.224   8.721   5.160
 3623POPC   PO447796   0.956   9.180   5.509
 3623POPC   GL147797   1.253   9.106   5.879
 3623POPC   GL247798   1.393   8.756   5.904
 3623POPC   C1A47799   1.224   9.060   6.347
 3623POPC   D2A47800   1.124   8.740   6.673
 3623POPC   C3A47801   0.972   8.919   7.034
 3623POPC   C4A47802   1.244   9.100   7.318
 3623POPC   C1B47803   1.649   8.805   6.264
 3623POPC   C2B47804   1.611   8.906   6.704
 3623POPC   C3B47805   1.560   8.762   7.118
 3623POPC   C4B47806   1.624   8.865   7.569
 3624POPC   NC347807  26.590  42.913   5.475
 3624POPC   PO447808  26.981  43.452   5.559
 3624POPC   GL147809  26.797  43.231   5.901
 3624POPC   GL247810  26.954  42.910   5.878
 3624POPC   C1A47811  26.810  43.188   6.353
 3624POPC   D2A47812  26.556  43.060   6.689
 3624POPC   C3A47813  26.731  43.253   7.025
 3624POPC   C4A47814  26.567  43.440   7.355
 3624POPC   C1B47815  26.669  42.731   6.187
 3624POPC   C2B47816  26.859  42.600   6.570
 3624POPC   C3B47817  27.062  42.906   6.805
 3624POPC   C4B47818  27.023  42.919   7.258
 3625POPC   NC347819  26.510  34.951   5.334
 3625POPC   PO447820  26.591  35.514   5.470
 3625POPC   GL147821  26.602  35.439   5.872
 3625POPC   GL247822  26.521  35.121   5.813
 3625POPC   C1A47823  26.834  35.311   6.268
 3625POPC   D2A47824  27.092  35.325   6.667
 3625POPC   C3A47825  26.998  35.354   7.136
 3625POPC   C4A47826  27.104  35.615   7.467
 3625POPC   C1B47827  26.303  35.194   6.188
 3625POPC   C2B47828  26.458  35.141   6.559
 3625POPC   C3B47829  26.680  35.059   6.884
 3625POPC   C4B47830  26.519  35.096   7.304
 3626POPC   NC347831  32.716  18.478   5.320
 3626POPC   PO447832  33.198  18.071   5.501
 3626POPC   GL147833  33.055  18.189   5.854
 3626POPC   GL247834  32.759  18.091   5.777
 3626POPC   C1A47835  33.041  18.531   6.153
 3626POPC   D2A47836  32.942  18.455   6.552
 3626POPC   C3A47837  33.156  18.565   6.906
 3626POPC   C4A47838  33.071  18.449   7.303
 3626POPC   C1B47839  32.661  18.176   6.199
 3626POPC   C2B47840  32.514  18.167   6.608
 3626POPC   C3B47841  32.718  18.263   6.977
 3626POPC   C4B47842  32.599  18.284   7.389
 3627POPC   NC347843  38.222  28.330   5.566
 3627POPC   PO447844  37.612  28.287   5.285
 3627POPC   GL147845  37.636  28.304   5.747
 3627POPC   GL247846  37.460  28.621   5.793
 3627POPC   C1A47847  37.833  28.355   6.183
 3627POPC   D2A47848  37.885  28.653   6.557
 3627POPC   C3A47849  37.818  28.431   6.957
 3627POPC   C4A47850  38.003  28.055   7.143
 3627POPC   C1B47851  37.461  28.736   6.254
 3627POPC   C2B47852  37.395  28.796   6.685
 3627POPC   C3B47853  37.521  28.851   7.102
 3627POPC   C4B47854  37.393  28.593   7.440
 3628POPC   NC347855  34.019  44.908   5.614
 3628POPC   PO447856  33.614  44.347   5.621
 3628POPC   GL147857  33.774  44.516   5.975
 3628POPC   GL247858  34.050  44.340   5.950
 3628POPC   C1A47859  33.733  44.517   6.427
 3628POPC   D2A47860  34.042  44.665   6.725
 3628POPC   C3A47861  33.836  44.768   7.105
 3628POPC   C4A47862  33.473   0.001   7.225
 3628POPC   C1B47863  34.200  44.319   6.341
 3628POPC   C2B47864  33.979  44.136   6.694
 3628POPC   C3B47865  34.035  44.289   7.091
 3628POPC   C4B47866  34.023  44.413   7.516
 3629POPC   NC347867  11.632  14.374   5.500
 3629POPC   PO447868  11.038  14.636   5.361
 3629POPC   GL147869  11.176  14.429   5.731
 3629POPC   GL247870  11.073  14.106   5.794
 3629POPC   C1A47871  11.403  14.404   6.148
 3629POPC   D2A47872  11.212  14.433   6.563
 3629POPC   C3A47873  11.475  14.446   6.930
 3629POPC   C4A47874  11.320  14.420   7.358
 3629POPC   C1B47875  10.904  14.269   6.146
 3629POPC   C2B47876  10.851  14.041   6.510
 3629POPC   C3B47877  10.895  14.182   6.924
 3629POPC   C4B47878  11.084  13.976   7.264
 3630POPC   NC347879  33.985  39.377   5.181
 3630POPC   PO447880  33.755  38.806   5.513
 3630POPC   GL147881  33.745  39.138   5.808
 3630POPC   GL247882  34.019  39.393   5.720
 3630POPC   C1A47883  33.489  39.292   6.183
 3630POPC   D2A47884  33.399  39.473   6.614
 3630POPC   C3A47885  33.600  39.308   6.987
 3630POPC   C4A47886  33.672  38.898   7.183
 3630POPC   C1B47887  33.995  39.386   6.169
 3630POPC   C2B47888  33.878  39.191   6.532
 3630POPC   C3B47889  34.069  39.105   6.899
 3630POPC   C4B47890  34.071  39.207   7.329
 3631POPC   NC347891  16.101  36.571   5.393
 3631POPC   PO447892  15.651  37.015   5.402
 3631POPC   GL147893  15.763  37.047   5.824
 3631POPC   GL247894  16.109  37.047   5.803
 3631POPC   C1A47895  15.772  36.946   6.281
 3631POPC   D2A47896  15.608  37.000   6.711
 3631POPC   C3A47897  15.740  36.805   7.103
 3631POPC   C4A47898  15.789  36.734   7.555
 3631POPC   C1B47899  16.356  37.001   6.181
 3631POPC   C2B47900  16.210  37.046   6.596
 3631POPC   C3B47901  16.024  37.203   6.957
 3631POPC   C4B47902  16.175  37.059   7.327
 3632POPC   NC347903   6.398   6.159   5.459
 3632POPC   PO447904   6.412   6.864   5.316
 3632POPC   GL147905   6.734   6.764   5.630
 3632POPC   GL247906   6.536   6.524   5.796
 3632POPC   C1A47907   6.864   6.769   6.099
 3632POPC   D2A47908   6.615   6.605   6.451
 3632POPC   C3A47909   6.589   6.844   6.813
 3632POPC   C4A47910   6.545   6.734   7.219
 3632POPC   C1B47911   6.258   6.401   6.138
 3632POPC   C2B47912   6.183   6.303   6.604
 3632POPC   C3B47913   6.474   6.316   6.962
 3632POPC   C4B47914   6.420   6.312   7.455
 3633POPC   NC347915  33.999  31.095   5.449
 3633POPC   PO447916  33.635  31.540   5.378
 3633POPC   GL147917  33.900  31.473   5.801
 3633POPC   GL247918  34.192  31.712   5.904
 3633POPC   C1A47919  33.998  31.351   6.261
 3633POPC   D2A47920  34.098  31.294   6.731
 3633POPC   C3A47921  33.771  31.352   7.055
 3633POPC   C4A47922  33.660  31.090   7.414
 3633POPC   C1B47923  33.863  31.833   6.198
 3633POPC   C2B47924  33.840  31.736   6.653
 3633POPC   C3B47925  34.105  31.735   7.042
 3633POPC   C4B47926  34.037  31.829   7.471
 3634POPC   NC347927  24.193  27.165   5.493
 3634POPC   PO447928  24.681  26.616   5.482
 3634POPC   GL147929  24.550  26.743   5.911
 3634POPC   GL247930  24.184  26.856   5.928
 3634POPC   C1A47931  24.657  27.019   6.263
 3634POPC   D2A47932  24.494  27.129   6.659
 3634POPC   C3A47933  24.739  27.089   7.024
 3634POPC   C4A47934  24.662  27.045   7.438
 3634POPC   C1B47935  24.145  26.832   6.365
 3634POPC   C2B47936  24.323  26.655   6.722
 3634POPC   C3B47937  24.353  26.718   7.154
 3634POPC   C4B47938  24.370  26.677   7.600
 3635POPC   NC347939  43.154  22.955   5.355
 3635POPC   PO447940  42.532  22.909   5.433
 3635POPC   GL147941  42.828  22.784   5.810
 3635POPC   GL247942  43.220  22.714   5.813
 3635POPC   C1A47943  43.002  22.884   6.264
 3635POPC   D2A47944  43.012  23.165   6.659
 3635POPC   C3A47945  42.865  22.990   7.081
 3635POPC   C4A47946  42.942  22.859   7.516
 3635POPC   C1B47947  43.553  22.733   6.101
 3635POPC   C2B47948  43.509  22.917   6.478
 3635POPC   C3B47949  43.577  22.834   6.894
 3635POPC   C4B47950  43.260  22.607   7.098
 3636POPC   NC347951  12.435   7.924   5.394
 3636POPC   PO447952  11.990   8.366   5.328
 3636POPC   GL147953  12.024   8.387   5.778
 3636POPC   GL247954  12.301   8.636   5.800
 3636POPC   C1A47955  12.098   8.068   6.127
 3636POPC   D2A47956  12.275   7.982   6.553
 3636POPC   C3A47957  11.996   8.134   6.899
 3636POPC   C4A47958  11.870   8.028   7.302
 3636POPC   C1B47959  12.357   8.517   6.219
 3636POPC   C2B47960  12.295   8.654   6.645
 3636POPC   C3B47961  12.463   8.334   6.906
 3636POPC   C4B47962  12.344   8.193   7.317
 3637POPC   NC347963  15.757  17.404   5.300
 3637POPC   PO447964  16.228  17.864   5.438
 3637POPC   GL147965  16.080  17.547   5.702
 3637POPC   GL247966  15.736  17.579   5.785
 3637POPC   C1A47967  16.161  17.439   6.112
 3637POPC   D2A47968  15.965  17.366   6.497
 3637POPC   C3A47969  16.150  17.438   6.905
 3637POPC   C4A47970  15.984  17.383   7.276
 3637POPC   C1B47971  15.545  17.231   6.025
 3637POPC   C2B47972  15.453  17.201   6.473
 3637POPC   C3B47973  15.617  17.354   6.874
 3637POPC   C4B47974  15.494  17.504   7.276
 3638POPC   NC347975  12.450  26.927   5.518
 3638POPC   PO447976  11.830  26.895   5.389
 3638POPC   GL147977  12.014  26.860   5.804
 3638POPC   GL247978  12.299  26.573   5.852
 3638POPC   C1A47979  12.188  26.955   6.184
 3638POPC   D2A47980  12.196  27.204   6.529
 3638POPC   C3A47981  12.063  26.906   6.803
 3638POPC   C4A47982  12.044  26.808   7.195
 3638POPC   C1B47983  12.642  26.589   6.168
 3638POPC   C2B47984  12.668  26.439   6.610
 3638POPC   C3B47985  12.484  26.601   6.983
 3638POPC   C4B47986  12.348  26.427   7.363
 3639POPC   NC347987  44.265  13.242   5.584
 3639POPC   PO447988  44.614  12.719   5.361
 3639POPC   GL147989  44.678  12.720   5.824
 3639POPC   GL247990  44.838  12.382   5.822
 3639POPC   C1A47991  44.628  12.941   6.291
 3639POPC   D2A47992  44.875  12.951   6.718
 3639POPC   C3A47993  44.822  13.084   7.172
 3639POPC   C4A47994   0.003  13.102   7.603
 3639POPC   C1B47995  44.655  12.431   6.240
 3639POPC   C2B47996  44.594  12.502   6.697
 3639POPC   C3B47997  44.874  12.554   7.049
 3639POPC   C4B47998  44.789  12.657   7.492
 3640POPC   NC347999  26.150  44.468   5.257
 3640POPC   PO448000  25.701  44.822   5.605
 3640POPC   GL148001  26.125  44.629   5.780
 3640POPC   GL248002  26.510  44.776   5.779
 3640POPC   C1A48003  26.345  44.472   6.166
 3640POPC   D2A48004  26.379  44.276   6.577
 3640POPC   C3A48005  26.199  44.540   6.918
 3640POPC   C4A48006  25.841  44.581   7.191
 3640POPC   C1B48007  26.327  44.988   6.118
 3640POPC   C2B48008  26.028  44.897   6.432
 3640POPC   C3B48009  25.886  44.955   6.851
 3640POPC   C4B48010  26.153   0.001   7.232
 3641POPC   NC348011  35.647  42.877   5.402
 3641POPC   PO448012  35.551  42.309   5.297
 3641POPC   GL148013  35.484  42.405   5.697
 3641POPC   GL248014  35.652  42.110   5.813
 3641POPC   C1A48015  35.492  42.439   6.166
 3641POPC   D2A48016  35.201  42.510   6.496
 3641POPC   C3A48017  35.269  42.261   6.850
 3641POPC   C4A48018  35.255  42.312   7.304
 3641POPC   C1B48019  35.741  41.990   6.231
 3641POPC   C2B48020  35.742  42.230   6.599
 3641POPC   C3B48021  35.743  42.168   7.019
 3641POPC   C4B48022  35.433  41.867   7.152
 3642POPC   NC348023  36.584  32.038   5.462
 3642POPC   PO448024  35.944  32.372   5.353
 3642POPC   GL148025  36.163  32.218   5.739
 3642POPC   GL248026  36.397  32.463   5.705
 3642POPC   C1A48027  36.055  32.129   6.201
 3642POPC   D2A48028  35.874  32.353   6.572
 3642POPC   C3A48029  35.874  32.277   7.022
 3642POPC   C4A48030  35.979  31.927   7.224
 3642POPC   C1B48031  36.390  32.540   6.138
 3642POPC   C2B48032  36.433  32.329   6.516
 3642POPC   C3B48033  36.344  32.451   6.915
 3642POPC   C4B48034  36.275  32.591   7.326
 3643POPC   NC348035  20.368  29.846   5.355
 3643POPC   PO448036  20.825  30.262   5.322
 3643POPC   GL148037  20.627  30.084   5.713
 3643POPC   GL248038  20.933  29.940   5.783
 3643POPC   C1A48039  20.549  29.841   6.147
 3643POPC   D2A48040  20.860  29.813   6.518
 3643POPC   C3A48041  20.751  29.814   6.971
 3643POPC   C4A48042  20.426  29.567   7.175
 3643POPC   C1B48043  20.836  30.248   6.137
 3643POPC   C2B48044  20.698  30.289   6.563
 3643POPC   C3B48045  20.742  30.373   6.989
 3643POPC   C4B48046  20.855  30.166   7.335
 3644POPC   NC348047  29.795   6.895   5.425
 3644POPC   PO448048  29.818   6.290   5.490
 3644POPC   GL148049  29.854   6.655   5.852
 3644POPC   GL248050  29.553   6.930   5.874
 3644POPC   C1A48051  30.076   6.852   6.238
 3644POPC   D2A48052  29.890   6.872   6.675
 3644POPC   C3A48053  30.153   6.820   7.030
 3644POPC   C4A48054  30.252   6.432   7.253
 3644POPC   C1B48055  29.589   6.772   6.281
 3644POPC   C2B48056  29.696   6.409   6.583
 3644POPC   C3B48057  29.773   6.448   7.026
 3644POPC   C4B48058  29.747   6.714   7.363
 3645POPC   NC348059  24.572  12.573   5.421
 3645POPC   PO448060  24.116  13.068   5.284
 3645POPC   GL148061  24.405  13.018   5.685
 3645POPC   GL248062  24.446  12.695   5.906
 3645POPC   C1A48063  24.639  13.136   6.088
 3645POPC   D2A48064  24.747  13.086   6.521
 3645POPC   C3A48065  24.473  13.191   6.846
 3645POPC   C4A48066  24.295  12.953   7.160
 3645POPC   C1B48067  24.217  12.570   6.295
 3645POPC   C2B48068  24.223  12.436   6.747
 3645POPC   C3B48069  24.179  12.427   7.181
 3645POPC   C4B48070  24.112  12.262   7.602
 3646POPC   NC348071   2.932  19.710   5.153
 3646POPC   PO448072   3.543  19.880   5.401
 3646POPC   GL148073   3.668  19.846   5.822
 3646POPC   GL248074   3.555  19.501   5.858
 3646POPC   C1A48075   3.863  20.027   6.227
 3646POPC   D2A48076   3.729  20.185   6.645
 3646POPC   C3A48077   3.756  20.146   7.095
 3646POPC   C4A48078   3.789  20.021   7.528
 3646POPC   C1B48079   3.508  19.657   6.260
 3646POPC   C2B48080   3.721  19.672   6.625
 3646POPC   C3B48081   3.426  19.773   6.905
 3646POPC   C4B48082   3.352  19.848   7.302
 3647POPC   NC348083  26.700   6.920   5.454
 3647POPC   PO448084  27.197   6.323   5.474
 3647POPC   GL148085  26.910   6.573   5.767
 3647POPC   GL248086  27.066   6.914   5.823
 3647POPC   C1A48087  26.628   6.781   6.123
 3647POPC   D2A48088  26.459   6.629   6.549
 3647POPC   C3A48089  26.605   6.693   7.000
 3647POPC   C4A48090  26.533   6.524   7.473
 3647POPC   C1B48091  27.108   6.725   6.249
 3647POPC   C2B48092  27.206   6.914   6.647
 3647POPC   C3B48093  27.055   6.962   7.065
 3647POPC   C4B48094  27.006   6.669   7.407
 3648POPC   NC348095   4.626  11.562   5.368
 3648POPC   PO448096   5.266  11.596   5.530
 3648POPC   GL148097   5.180  11.519   5.956
 3648POPC   GL248098   4.854  11.421   5.847
 3648POPC   C1A48099   5.310  11.256   6.309
 3648POPC   D2A48100   5.152  11.208   6.747
 3648POPC   C3A48101   5.304  11.039   7.165
 3648POPC   C4A48102   5.505  11.128   7.569
 3648POPC   C1B48103   4.741  11.285   6.238
 3648POPC   C2B48104   4.661  11.091   6.633
 3648POPC   C3B48105   4.701  11.237   7.047
 3648POPC   C4B48106   5.040  11.480   7.177
 3649POPC   NC348107  38.310  34.301   5.433
 3649POPC   PO448108  38.498  33.640   5.358
 3649POPC   GL148109  38.333  33.870   5.720
 3649POPC   GL248110  38.653  34.029   5.824
 3649POPC   C1A48111  38.236  34.001   6.141
 3649POPC   D2A48112  38.278  33.821   6.556
 3649POPC   C3A48113  38.457  34.045   6.894
 3649POPC   C4A48114  38.332  33.922   7.306
 3649POPC   C1B48115  38.734  33.846   6.269
 3649POPC   C2B48116  38.822  33.734   6.711
 3649POPC   C3B48117  38.846  33.823   7.169
 3649POPC   C4B48118  38.755  34.173   7.487
 3650POPC   NC348119  30.956  37.914   5.403
 3650POPC   PO448120  30.599  37.476   5.661
 3650POPC   GL148121  30.869  37.679   5.904
 3650POPC   GL248122  30.770  38.010   5.874
 3650POPC   C1A48123  30.752  37.680   6.356
 3650POPC   D2A48124  30.780  37.364   6.702
 3650POPC   C3A48125  30.465  37.313   7.013
 3650POPC   C4A48126  30.408  37.709   7.187
 3650POPC   C1B48127  31.093  38.046   6.195
 3650POPC   C2B48128  30.969  38.078   6.621
 3650POPC   C3B48129  30.843  37.858   6.964
 3650POPC   C4B48130  30.783  37.985   7.378
 3651POPC   NC348131   1.943  40.211   5.417
 3651POPC   PO448132   2.096  39.571   5.204
 3651POPC   GL148133   2.054  39.805   5.690
 3651POPC   GL248134   1.706  39.831   5.710
 3651POPC   C1A48135   2.073  40.056   6.143
 3651POPC   D2A48136   1.888  40.071   6.572
 3651POPC   C3A48137   2.129  40.069   6.975
 3651POPC   C4A48138   2.425  39.941   7.297
 3651POPC   C1B48139   1.832  39.619   6.115
 3651POPC   C2B48140   1.894  39.454   6.490
 3651POPC   C3B48141   1.823  39.647   6.871
 3651POPC   C4B48142   2.040  39.612   7.245
 3652POPC   NC348143  35.384   4.737   5.421
 3652POPC   PO448144  35.361   5.420   5.414
 3652POPC   GL148145  35.267   5.140   5.764
 3652POPC   GL248146  35.568   5.012   5.840
 3652POPC   C1A48147  35.292   5.138   6.247
 3652POPC   D2A48148  35.533   5.137   6.638
 3652POPC   C3A48149  35.315   5.281   6.986
 3652POPC   C4A48150  35.163   4.961   7.235
 3652POPC   C1B48151  35.646   4.743   6.199
 3652POPC   C2B48152  35.593   4.639   6.638
 3652POPC   C3B48153  35.622   4.829   7.067
 3652POPC   C4B48154  35.517   4.689   7.510
 3653POPC   NC348155  34.279  40.546   5.530
 3653POPC   PO448156  34.591  41.068   5.243
 3653POPC   GL148157  34.592  40.919   5.743
 3653POPC   GL248158  34.507  40.649   5.973
 3653POPC   C1A48159  34.777  41.022   6.165
 3653POPC   D2A48160  34.978  40.880   6.522
 3653POPC   C3A48161  34.748  40.804   6.939
 3653POPC   C4A48162  34.902  40.663   7.343
 3653POPC   C1B48163  34.510  40.690   6.436
 3653POPC   C2B48164  34.424  40.428   6.775
 3653POPC   C3B48165  34.296  40.533   7.147
 3653POPC   C4B48166  34.058  40.480   7.473
 3654POPC   NC348167  10.298  44.847   5.329
 3654POPC   PO448168  10.822  44.355   5.386
 3654POPC   GL148169  10.593  44.599   5.716
 3654POPC   GL248170  10.224  44.592   5.741
 3654POPC   C1A48171  10.523  44.692   6.169
 3654POPC   D2A48172  10.504  44.916   6.561
 3654POPC   C3A48173  10.506  44.735   6.955
 3654POPC   C4A48174  10.535   0.012   7.325
 3654POPC   C1B48175  10.055  44.528   6.109
 3654POPC   C2B48176  10.111  44.541   6.538
 3654POPC   C3B48177   9.954  44.473   6.940
 3654POPC   C4B48178  10.174  44.574   7.284
 3655POPC   NC348179  23.584   9.108   5.548
 3655POPC   PO448180  23.944   8.523   5.554
 3655POPC   GL148181  23.608   8.639   5.792
 3655POPC   GL248182  23.804   8.897   5.949
 3655POPC   C1A48183  23.425   8.676   6.209
 3655POPC   D2A48184  23.484   8.846   6.633
 3655POPC   C3A48185  23.827   8.839   6.879
 3655POPC   C4A48186  23.602   8.735   7.235
 3655POPC   C1B48187  23.814   9.066   6.340
 3655POPC   C2B48188  23.702   9.352   6.631
 3655POPC   C3B48189  23.516   9.248   7.007
 3655POPC   C4B48190  23.772   9.190   7.353
 3656POPC   NC348191  30.502  39.414   5.357
 3656POPC   PO448192  31.149  39.025   5.289
 3656POPC   GL148193  31.055  39.026   5.717
 3656POPC   GL248194  30.802  39.302   5.766
 3656POPC   C1A48195  30.982  38.971   6.171
 3656POPC   D2A48196  30.679  38.854   6.463
 3656POPC   C3A48197  30.789  38.844   6.862
 3656POPC   C4A48198  30.944  39.197   7.058
 3656POPC   C1B48199  30.781  39.494   6.168
 3656POPC   C2B48200  30.756  39.335   6.587
 3656POPC   C3B48201  30.459  39.249   6.914
 3656POPC   C4B48202  30.527  39.652   7.156
 3657POPC   NC348203  44.482  32.358   5.481
 3657POPC   PO448204  44.937  31.887   5.449
 3657POPC   GL148205  44.842  32.134   5.778
 3657POPC   GL248206  44.517  32.038   5.869
 3657POPC   C1A48207  44.836  32.366   6.151
 3657POPC   D2A48208   0.015  32.514   6.532
 3657POPC   C3A48209  44.782  32.409   6.895
 3657POPC   C4A48210  44.751  32.143   7.232
 3657POPC   C1B48211  44.307  32.314   6.140
 3657POPC   C2B48212  44.464  32.237   6.533
 3657POPC   C3B48213  44.417  31.985   6.864
 3657POPC   C4B48214  44.393  31.728   7.205
 3658POPC   NC348215  34.176  42.919   5.472
 3658POPC   PO448216  33.611  43.261   5.198
 3658POPC   GL148217  33.658  43.333   5.693
 3658POPC   GL248218  33.842  43.057   5.836
 3658POPC   C1A48219  33.871  43.487   6.101
 3658POPC   D2A48220  33.851  43.228   6.463
 3658POPC   C3A48221  33.850  43.267   6.900
 3658POPC   C4A48222  33.758  43.196   7.335
 3658POPC   C1B48223  34.124  42.915   6.177
 3658POPC   C2B48224  34.006  42.775   6.614
 3658POPC   C3B48225  34.124  42.842   7.011
 3658POPC   C4B48226  34.030  42.770   7.444
 3659POPC   NC348227  40.379  37.192   5.591
 3659POPC   PO448228  39.802  36.892   5.296
 3659POPC   GL148229  39.858  36.997   5.778
 3659POPC   GL248230  40.155  37.065   6.052
 3659POPC   C1A48231  39.726  36.827   6.194
 3659POPC   D2A48232  39.759  36.645   6.601
 3659POPC   C3A48233  39.843  36.899   7.024
 3659POPC   C4A48234  39.810  36.892   7.531
 3659POPC   C1B48235  40.215  36.700   6.354
 3659POPC   C2B48236  40.249  36.618   6.785
 3659POPC   C3B48237  40.346  36.989   7.003
 3659POPC   C4B48238  40.296  37.098   7.397
 3660POPC   NC348239  11.329  10.387   5.403
 3660POPC   PO448240  11.279   9.685   5.177
 3660POPC   GL148241  11.208   9.903   5.599
 3660POPC   GL248242  11.495   9.887   5.770
 3660POPC   C1A48243  11.115   9.886   6.090
 3660POPC   D2A48244  11.266   9.944   6.529
 3660POPC   C3A48245  11.107   9.694   6.892
 3660POPC   C4A48246  11.006   9.723   7.304
 3660POPC   C1B48247  11.601   9.713   6.160
 3660POPC   C2B48248  11.746   9.749   6.541
 3660POPC   C3B48249  11.597   9.840   6.925
 3660POPC   C4B48250  11.501   9.677   7.313
 3661POPC   NC348251   0.334   3.003   5.407
 3661POPC   PO448252   0.174   2.360   5.271
 3661POPC   GL148253   0.261   2.387   5.715
 3661POPC   GL248254   0.474   2.703   5.839
 3661POPC   C1A48255   0.166   2.347   6.146
 3661POPC   D2A48256   0.143   2.434   6.592
 3661POPC   C3A48257   0.502   2.525   6.850
 3661POPC   C4A48258   0.871   2.357   7.053
 3661POPC   C1B48259   0.558   2.713   6.322
 3661POPC   C2B48260   0.584   2.998   6.697
 3661POPC   C3B48261   0.270   2.934   7.050
 3661POPC   C4B48262   0.303   2.651   7.414
 3662POPC   NC348263  36.045   6.905   5.419
 3662POPC   PO448264  36.523   6.458   5.615
 3662POPC   GL148265  36.200   6.660   5.855
 3662POPC   GL248266  36.144   7.033   5.892
 3662POPC   C1A48267  36.111   6.656   6.289
 3662POPC   D2A48268  35.893   6.493   6.634
 3662POPC   C3A48269  36.148   6.418   6.957
 3662POPC   C4A48270  36.246   6.265   7.360
 3662POPC   C1B48271  36.307   7.113   6.291
 3662POPC   C2B48272  36.337   6.899   6.707
 3662POPC   C3B48273  36.159   6.900   7.134
 3662POPC   C4B48274  36.247   6.765   7.569
 3663POPC   NC348275  41.978  38.490   4.999
 3663POPC   PO448276  42.455  38.796   5.287
 3663POPC   GL148277  42.443  38.463   5.687
 3663POPC   GL248278  42.134  38.472   5.871
 3663POPC   C1A48279  42.522  38.220   6.147
 3663POPC   D2A48280  42.590  38.157   6.656
 3663POPC   C3A48281  42.373  38.317   7.038
 3663POPC   C4A48282  42.379  38.673   7.354
 3663POPC   C1B48283  42.173  38.526   6.328
 3663POPC   C2B48284  42.026  38.514   6.726
 3663POPC   C3B48285  41.927  38.666   7.146
 3663POPC   C4B48286  41.943  38.497   7.578
 3664POPC   NC348287  39.823  28.236   5.421
 3664POPC   PO448288  40.169  28.786   5.620
 3664POPC   GL148289  39.913  28.556   5.882
 3664POPC   GL248290  39.994  28.211   5.888
 3664POPC   C1A48291  39.947  28.465   6.318
 3664POPC   D2A48292  40.291  28.292   6.534
 3664POPC   C3A48293  40.288  28.462   6.939
 3664POPC   C4A48294  40.384  28.279   7.328
 3664POPC   C1B48295  39.764  28.016   6.193
 3664POPC   C2B48296  39.716  27.972   6.623
 3664POPC   C3B48297  39.916  28.071   7.016
 3664POPC   C4B48298  39.838  28.416   7.300
 3665POPC   NC348299  21.697   4.743   5.647
 3665POPC   PO448300  21.114   4.541   5.336
 3665POPC   GL148301  21.358   4.326   5.715
 3665POPC   GL248302  21.498   3.972   5.628
 3665POPC   C1A48303  21.460   4.436   6.198
 3665POPC   D2A48304  21.337   4.586   6.621
 3665POPC   C3A48305  21.439   4.385   7.013
 3665POPC   C4A48306  21.303   4.427   7.449
 3665POPC   C1B48307  21.477   3.948   6.083
 3665POPC   C2B48308  21.424   4.003   6.523
 3665POPC   C3B48309  21.510   3.797   6.907
 3665POPC   C4B48310  21.709   4.012   7.234
 3666POPC   NC348311  12.848  15.062   5.690
 3666POPC   PO448312  12.766  14.523   5.277
 3666POPC   GL148313  13.031  14.558   5.697
 3666POPC   GL248314  12.948  14.304   5.936
 3666POPC   C1A48315  13.196  14.704   6.140
 3666POPC   D2A48316  12.997  14.888   6.517
 3666POPC   C3A48317  12.861  14.646   6.904
 3666POPC   C4A48318  12.894  14.535   7.369
 3666POPC   C1B48319  12.693  14.577   6.224
 3666POPC   C2B48320  12.452  14.475   6.590
 3666POPC   C3B48321  12.522  14.189   6.903
 3666POPC   C4B48322  12.586  14.134   7.311
 3667POPC   NC348323   6.486  30.534   5.292
 3667POPC   PO448324   7.126  30.756   5.311
 3667POPC   GL148325   6.835  30.586   5.694
 3667POPC   GL248326   6.459  30.628   5.783
 3667POPC   C1A48327   6.769  30.706   6.178
 3667POPC   D2A48328   6.912  30.941   6.541
 3667POPC   C3A48329   6.831  30.706   6.902
 3667POPC   C4A48330   6.742  30.841   7.299
 3667POPC   C1B48331   6.354  30.390   6.152
 3667POPC   C2B48332   6.486  30.492   6.554
 3667POPC   C3B48333   6.258  30.535   6.958
 3667POPC   C4B48334   6.293  30.643   7.400
 3668POPC   NC348335  17.177  44.606   5.444
 3668POPC   PO448336  17.610  44.117   5.455
 3668POPC   GL148337  17.651  44.475   5.784
 3668POPC   GL248338  17.368  44.629   5.926
 3668POPC   C1A48339  17.785  44.775   6.196
 3668POPC   D2A48340  17.932  44.763   6.655
 3668POPC   C3A48341  17.630  44.808   7.037
 3668POPC   C4A48342  17.180  44.780   7.167
 3668POPC   C1B48343  17.530  44.347   6.275
 3668POPC   C2B48344  17.592  44.367   6.735
 3668POPC   C3B48345  17.470  44.327   7.190
 3668POPC   C4B48346  17.493  44.136   7.627
 3669POPC   NC348347  38.121  17.941   5.561
 3669POPC   PO448348  37.718  17.446   5.413
 3669POPC   GL148349  37.729  17.371   5.836
 3669POPC   GL248350  37.733  17.740   5.840
 3669POPC   C1A48351  37.740  17.196   6.280
 3669POPC   D2A48352  37.692  17.171   6.747
 3669POPC   C3A48353  37.709  17.522   7.061
 3669POPC   C4A48354  37.986  17.830   7.234
 3669POPC   C1B48355  37.429  17.660   6.150
 3669POPC   C2B48356  37.403  17.539   6.564
 3669POPC   C3B48357  37.231  17.384   6.928
 3669POPC   C4B48358  37.362  17.241   7.330
 3670POPC   NC348359  27.974  28.147   5.453
 3670POPC   PO448360  27.373  28.337   5.183
 3670POPC   GL148361  27.560  28.361   5.652
 3670POPC   GL248362  27.625  28.020   5.849
 3670POPC   C1A48363  27.771  28.435   6.083
 3670POPC   D2A48364  27.606  28.413   6.508
 3670POPC   C3A48365  27.769  28.424   6.929
 3670POPC   C4A48366  28.098  28.200   7.144
 3670POPC   C1B48367  27.374  28.007   6.266
 3670POPC   C2B48368  27.249  28.127   6.710
 3670POPC   C3B48369  27.417  28.046   7.108
 3670POPC   C4B48370  27.240  28.167   7.505
 3671POPC   NC348371  28.599  44.441   5.346
 3671POPC   PO448372  28.361   0.065   5.274
 3671POPC   GL148373  28.320  44.732   5.672
 3671POPC   GL248374  28.630  44.607   5.834
 3671POPC   C1A48375  28.232  44.471   6.091
 3671POPC   D2A48376  28.098  44.632   6.486
 3671POPC   C3A48377  28.201  44.491   6.934
 3671POPC   C4A48378  28.306  44.558   7.374
 3671POPC   C1B48379  28.578  44.827   6.256
 3671POPC   C2B48380  28.527  44.842   6.715
 3671POPC   C3B48381  28.733  44.664   7.109
 3671POPC   C4B48382  28.715  44.791   7.571
 3672POPC   NC348383  17.640  10.066   5.391
 3672POPC   PO448384  17.252   9.595   5.298
 3672POPC   GL148385  17.375   9.521   5.715
 3672POPC   GL248386  17.439   9.838   5.802
 3672POPC   C1A48387  17.326   9.536   6.211
 3672POPC   D2A48388  17.321   9.391   6.667
 3672POPC   C3A48389  17.450   9.564   7.024
 3672POPC   C4A48390  17.270   9.619   7.413
 3672POPC   C1B48391  17.647   9.958   6.186
 3672POPC   C2B48392  17.529   9.874   6.589
 3672POPC   C3B48393  17.650  10.020   6.965
 3672POPC   C4B48394  17.727   9.902   7.353
 3673POPC   NC348395  24.117  10.917   5.389
 3673POPC   PO448396  24.636  10.397   5.447
 3673POPC   GL148397  24.500  10.587   5.792
 3673POPC   GL248398  24.366  10.271   5.931
 3673POPC   C1A48399  24.596  10.624   6.216
 3673POPC   D2A48400  24.476  10.307   6.475
 3673POPC   C3A48401  24.374  10.490   6.856
 3673POPC   C4A48402  24.608  10.605   7.186
 3673POPC   C1B48403  24.089  10.567   6.156
 3673POPC   C2B48404  23.939  10.545   6.575
 3673POPC   C3B48405  23.969  10.790   6.954
 3673POPC   C4B48406  24.130  10.596   7.331
 3674POPC   NC348407  39.836  23.735   5.469
 3674POPC   PO448408  40.487  23.456   5.412
 3674POPC   GL148409  40.244  23.559   5.790
 3674POPC   GL248410  39.949  23.389   5.830
 3674POPC   C1A48411  40.082  23.763   6.186
 3674POPC   D2A48412  40.158  23.676   6.635
 3674POPC   C3A48413  40.042  23.978   6.942
 3674POPC   C4A48414  39.914  23.915   7.366
 3674POPC   C1B48415  39.621  23.500   6.098
 3674POPC   C2B48416  39.647  23.679   6.515
 3674POPC   C3B48417  39.716  23.528   6.927
 3674POPC   C4B48418  39.529  23.572   7.332
 3675POPC   NC348419  40.824  37.741   5.310
 3675POPC   PO448420  40.784  37.047   5.401
 3675POPC   GL148421  40.801  37.431   5.747
 3675POPC   GL248422  41.024  37.751   5.779
 3675POPC   C1A48423  40.637  37.385   6.208
 3675POPC   D2A48424  40.671  37.207   6.661
 3675POPC   C3A48425  40.609  37.478   7.037
 3675POPC   C4A48426  40.504  37.929   7.118
 3675POPC   C1B48427  41.038  37.740   6.243
 3675POPC   C2B48428  40.927  37.741   6.705
 3675POPC   C3B48429  40.993  37.793   7.169
 3675POPC   C4B48430  41.191  37.808   7.573
 3676POPC   NC348431  40.518  34.090   5.464
 3676POPC   PO448432  40.831  33.513   5.431
 3676POPC   GL148433  40.782  33.819   5.814
 3676POPC   GL248434  41.077  33.754   6.037
 3676POPC   C1A48435  40.741  34.090   6.208
 3676POPC   D2A48436  40.940  33.900   6.566
 3676POPC   C3A48437  40.733  33.956   6.990
 3676POPC   C4A48438  40.576  33.799   7.400
 3676POPC   C1B48439  41.233  33.366   6.224
 3676POPC   C2B48440  41.033  33.311   6.612
 3676POPC   C3B48441  41.104  33.600   6.941
 3676POPC   C4B48442  41.059  33.553   7.324
 3677POPC   NC348443   0.866  41.116   5.451
 3677POPC   PO448444   0.666  41.727   5.425
 3677POPC   GL148445   0.518  41.527   5.802
 3677POPC   GL248446   0.318  41.852   5.803
 3677POPC   C1A48447   0.345  41.414   6.208
 3677POPC   D2A48448   0.153  41.532   6.594
 3677POPC   C3A48449   0.401  41.428   6.939
 3677POPC   C4A48450   0.358  41.500   7.355
 3677POPC   C1B48451   0.619  41.897   6.122
 3677POPC   C2B48452   0.618  41.773   6.524
 3677POPC   C3B48453   0.808  41.925   6.853
 3677POPC   C4B48454   0.780  41.767   7.229
 3678POPC   NC348455  38.206  44.927   5.408
 3678POPC   PO448456  38.327  44.199   5.461
 3678POPC   GL148457  38.406  44.447   5.833
 3678POPC   GL248458  38.567  44.755   5.784
 3678POPC   C1A48459  38.467  44.473   6.283
 3678POPC   D2A48460  38.233  44.687   6.620
 3678POPC   C3A48461  38.410  44.749   7.039
 3678POPC   C4A48462  38.226  44.570   7.402
 3678POPC   C1B48463  38.836  44.819   6.194
 3678POPC   C2B48464  39.078  44.979   6.589
 3678POPC   C3B48465  38.895  44.970   7.045
 3678POPC   C4B48466  38.633   0.225   7.338
 3679POPC   NC348467  41.397  24.645   5.002
 3679POPC   PO448468  41.588  24.181   5.494
 3679POPC   GL148469  41.518  24.479   5.893
 3679POPC   GL248470  41.162  24.695   5.976
 3679POPC   C1A48471  41.490  24.635   6.343
 3679POPC   D2A48472  41.519  24.872   6.696
 3679POPC   C3A48473  41.613  24.558   6.982
 3679POPC   C4A48474  41.642  24.263   7.303
 3679POPC   C1B48475  41.150  24.279   6.207
 3679POPC   C2B48476  41.298  24.139   6.632
 3679POPC   C3B48477  41.192  24.266   7.082
 3679POPC   C4B48478  41.226  24.575   7.454
 3680POPC   NC348479  42.918  24.789   5.513
 3680POPC   PO448480  43.165  25.320   5.179
 3680POPC   GL148481  43.222  25.258   5.658
 3680POPC   GL248482  42.901  25.199   5.811
 3680POPC   C1A48483  43.220  25.395   6.141
 3680POPC   D2A48484  43.368  25.250   6.568
 3680POPC   C3A48485  43.153  25.457   6.919
 3680POPC   C4A48486  42.922  25.403   7.299
 3680POPC   C1B48487  42.702  25.281   6.209
 3680POPC   C2B48488  42.831  25.208   6.619
 3680POPC   C3B48489  42.788  25.013   7.011
 3680POPC   C4B48490  42.879  24.928   7.471
 3681POPC   NC348491  20.262   6.242   5.683
 3681POPC   PO448492  19.699   6.395   5.323
 3681POPC   GL148493  19.764   6.642   5.712
 3681POPC   GL248494  20.074   6.698   5.772
 3681POPC   C1A48495  19.679   6.842   6.127
 3681POPC   D2A48496  19.659   6.639   6.535
 3681POPC   C3A48497  19.644   6.818   6.915
 3681POPC   C4A48498  19.767   6.654   7.311
 3681POPC   C1B48499  20.205   6.888   6.132
 3681POPC   C2B48500  20.038   6.974   6.529
 3681POPC   C3B48501  20.140   6.731   6.886
 3681POPC   C4B48502  20.217   6.917   7.262
 3682POPC   NC348503  30.088  21.293   5.385
 3682POPC   PO448504  29.512  21.639   5.348
 3682POPC   GL148505  29.723  21.455   5.727
 3682POPC   GL248506  29.916  21.749   5.780
 3682POPC   C1A48507  30.085  21.390   6.081
 3682POPC   D2A48508  30.242  21.394   6.527
 3682POPC   C3A48509  29.949  21.193   6.837
 3682POPC   C4A48510  29.820  21.332   7.251
 3682POPC   C1B48511  29.719  21.749   6.161
 3682POPC   C2B48512  29.704  21.530   6.546
 3682POPC   C3B48513  29.758  21.753   6.950
 3682POPC   C4B48514  29.611  21.753   7.389
 3683POPC   NC348515   9.455  40.632   5.366
 3683POPC   PO448516   9.958  40.972   5.582
 3683POPC   GL148517   9.861  40.699   5.901
 3683POPC   GL248518   9.500  40.664   5.887
 3683POPC   C1A48519  10.077  40.748   6.310
 3683POPC   D2A48520  10.217  40.859   6.750
 3683POPC   C3A48521   9.930  40.979   7.079
 3683POPC   C4A48522   9.919  40.580   7.246
 3683POPC   C1B48523   9.574  40.584   6.350
 3683POPC   C2B48524   9.675  40.635   6.792
 3683POPC   C3B48525   9.442  40.698   7.202
 3683POPC   C4B48526   9.057  40.811   7.418
 3684POPC   NC348527  20.373  44.380   5.495
 3684POPC   PO448528  20.739  44.998   5.359
 3684POPC   GL148529  20.748  44.680   5.709
 3684POPC   GL248530  20.404  44.734   5.852
 3684POPC   C1A48531  20.760  44.408   6.099
 3684POPC   D2A48532  21.019  44.414   6.476
 3684POPC   C3A48533  20.826  44.643   6.801
 3684POPC   C4A48534  20.710  44.803   7.189
 3684POPC   C1B48535  20.248  44.558   6.228
 3684POPC   C2B48536  20.218  44.746   6.639
 3684POPC   C3B48537  20.330  44.529   6.997
 3684POPC   C4B48538  20.379  44.536   7.449
 3685POPC   NC348539  19.307   3.133   5.399
 3685POPC   PO448540  19.680   2.661   5.079
 3685POPC   GL148541  19.684   2.871   5.590
 3685POPC   GL248542  19.914   2.671   5.828
 3685POPC   C1A48543  19.539   2.921   6.051
 3685POPC   D2A48544  19.393   2.711   6.431
 3685POPC   C3A48545  19.549   2.880   6.822
 3685POPC   C4A48546  19.555   2.724   7.235
 3685POPC   C1B48547  19.928   2.618   6.262
 3685POPC   C2B48548  20.105   2.736   6.655
 3685POPC   C3B48549  20.040   2.773   7.109
 3685POPC   C4B48550  20.047   2.968   7.496
 3686POPC   NC348551  28.042  35.415   5.412
 3686POPC   PO448552  28.552  35.071   5.182
 3686POPC   GL148553  28.487  35.200   5.636
 3686POPC   GL248554  28.204  35.079   5.804
 3686POPC   C1A48555  28.399  35.472   6.033
 3686POPC   D2A48556  28.471  35.467   6.492
 3686POPC   C3A48557  28.371  35.489   6.937
 3686POPC   C4A48558  28.422  35.816   7.282
 3686POPC   C1B48559  28.363  34.994   6.241
 3686POPC   C2B48560  28.288  34.990   6.706
 3686POPC   C3B48561  28.102  35.029   7.121
 3686POPC   C4B48562  28.246  35.184   7.534
 3687POPC   NC348563  27.124  39.322   5.360
 3687POPC   PO448564  27.783  39.262   5.375
 3687POPC   GL148565  27.400  39.136   5.733
 3687POPC   GL248566  27.173  39.433   5.862
 3687POPC   C1A48567  27.293  39.068   6.209
 3687POPC   D2A48568  27.484  39.240   6.632
 3687POPC   C3A48569  27.958  39.201   6.787
 3687POPC   C4A48570  27.911  39.059   7.235
 3687POPC   C1B48571  27.378  39.594   6.260
 3687POPC   C2B48572  27.772  39.687   6.537
 3687POPC   C3B48573  27.776  39.624   6.987
 3687POPC   C4B48574  27.459  39.392   7.166
 3688POPC   NC348575  40.419   5.673   5.381
 3688POPC   PO448576  41.042   5.829   5.487
 3688POPC   GL148577  40.861   6.005   5.811
 3688POPC   GL248578  40.524   6.091   5.748
 3688POPC   C1A48579  40.934   5.845   6.196
 3688POPC   D2A48580  41.120   5.982   6.541
 3688POPC   C3A48581  40.975   5.709   6.826
 3688POPC   C4A48582  40.830   5.528   7.200
 3688POPC   C1B48583  40.572   6.208   6.186
 3688POPC   C2B48584  40.616   6.031   6.588
 3688POPC   C3B48585  40.464   5.762   6.890
 3688POPC   C4B48586  40.413   5.856   7.270
 3689POPC   NC348587  23.061  40.498   5.436
 3689POPC   PO448588  23.031  41.117   5.134
 3689POPC   GL148589  23.036  41.008   5.629
 3689POPC   GL248590  22.834  40.721   5.796
 3689POPC   C1A48591  23.064  40.977   6.143
 3689POPC   D2A48592  23.224  40.769   6.554
 3689POPC   C3A48593  23.002  40.836   6.978
 3689POPC   C4A48594  22.666  41.064   7.234
 3689POPC   C1B48595  23.035  40.462   6.159
 3689POPC   C2B48596  22.860  40.397   6.605
 3689POPC   C3B48597  23.079  40.298   7.005
 3689POPC   C4B48598  23.237  40.464   7.392
 3690POPC   NC348599  14.232  13.521   5.329
 3690POPC   PO448600  14.471  14.173   5.474
 3690POPC   GL148601  14.298  13.884   5.752
 3690POPC   GL248602  14.489  13.570   5.777
 3690POPC   C1A48603  14.292  13.870   6.213
 3690POPC   D2A48604  14.201  13.651   6.629
 3690POPC   C3A48605  14.310  13.832   7.049
 3690POPC   C4A48606  14.705  13.771   7.304
 3690POPC   C1B48607  14.420  13.357   6.190
 3690POPC   C2B48608  14.475  13.227   6.626
 3690POPC   C3B48609  14.480  13.340   7.086
 3690POPC   C4B48610  14.608  13.291   7.536
 3691POPC   NC348611  33.872  21.459   5.456
 3691POPC   PO448612  33.318  21.014   5.529
 3691POPC   GL148613  33.652  21.150   5.838
 3691POPC   GL248614  34.015  21.067   5.807
 3691POPC   C1A48615  33.838  21.488   6.112
 3691POPC   D2A48616  34.015  21.564   6.541
 3691POPC   C3A48617  33.684  21.512   6.854
 3691POPC   C4A48618  33.654  21.617   7.327
 3691POPC   C1B48619  34.165  21.127   6.257
 3691POPC   C2B48620  34.114  21.078   6.721
 3691POPC   C3B48621  33.932  21.185   7.141
 3691POPC   C4B48622  33.946  21.135   7.595
 3692POPC   NC348623  34.461  19.324   5.303
 3692POPC   PO448624  34.806  18.784   5.310
 3692POPC   GL148625  34.755  19.113   5.657
 3692POPC   GL248626  34.403  19.030   5.805
 3692POPC   C1A48627  34.705  19.344   6.079
 3692POPC   D2A48628  34.742  19.148   6.493
 3692POPC   C3A48629  34.817  19.248   6.910
 3692POPC   C4A48630  34.508  18.975   7.121
 3692POPC   C1B48631  34.310  18.927   6.271
 3692POPC   C2B48632  34.191  18.791   6.726
 3692POPC   C3B48633  34.071  18.730   7.190
 3692POPC   C4B48634  34.240  18.917   7.576
 3693POPC   NC348635   0.311   3.643   5.509
 3693POPC   PO448636   0.770   3.143   5.449
 3693POPC   GL148637   0.517   3.281   5.827
 3693POPC   GL248638   0.705   3.139   6.093
 3693POPC   C1A48639   0.459   3.666   6.137
 3693POPC   D2A48640   0.385   3.936   6.524
 3693POPC   C3A48641   0.284   3.813   6.960
 3693POPC   C4A48642   0.349   3.739   7.431
 3693POPC   C1B48643   0.339   3.232   6.329
 3693POPC   C2B48644   0.215   3.370   6.729
 3693POPC   C3B48645   0.509   3.383   7.034
 3693POPC   C4B48646   0.539   3.259   7.389
 3694POPC   NC348647  17.440  24.192   5.481
 3694POPC   PO448648  17.258  23.477   5.358
 3694POPC   GL148649  17.391  23.447   5.787
 3694POPC   GL248650  17.479  23.795   5.839
 3694POPC   C1A48651  17.323  23.495   6.227
 3694POPC   D2A48652  17.500  23.576   6.597
 3694POPC   C3A48653  17.279  23.464   6.944
 3694POPC   C4A48654  17.458  23.486   7.330
 3694POPC   C1B48655  17.642  23.969   6.230
 3694POPC   C2B48656  17.554  24.093   6.656
 3694POPC   C3B48657  17.675  23.867   7.034
 3694POPC   C4B48658  17.942  23.970   7.405
 3695POPC   NC348659  13.243  40.551   5.509
 3695POPC   PO448660  13.899  40.434   5.354
 3695POPC   GL148661  13.890  40.615   5.796
 3695POPC   GL248662  13.574  40.743   5.864
 3695POPC   C1A48663  13.852  40.485   6.245
 3695POPC   D2A48664  13.561  40.495   6.606
 3695POPC   C3A48665  13.642  40.692   7.018
 3695POPC   C4A48666  13.673  40.840   7.450
 3695POPC   C1B48667  13.479  40.881   6.295
 3695POPC   C2B48668  13.618  41.123   6.681
 3695POPC   C3B48669  13.766  41.234   7.103
 3695POPC   C4B48670  13.629  41.342   7.546
 3696POPC   NC348671  39.335  36.606   5.108
 3696POPC   PO448672  38.991  36.997   5.481
 3696POPC   GL148673  39.294  36.983   5.739
 3696POPC   GL248674  39.147  36.662   5.842
 3696POPC   C1A48675  39.256  37.012   6.174
 3696POPC   D2A48676  39.256  36.673   6.474
 3696POPC   C3A48677  39.355  36.878   6.845
 3696POPC   C4A48678  39.404  37.033   7.245
 3696POPC   C1B48679  38.836  36.698   6.154
 3696POPC   C2B48680  38.755  36.683   6.580
 3696POPC   C3B48681  38.967  36.585   6.974
 3696POPC   C4B48682  38.938  36.791   7.357
 3697POPC   NC348683  28.651  29.946   5.519
 3697POPC   PO448684  28.058  29.653   5.314
 3697POPC   GL148685  28.182  29.869   5.730
 3697POPC   GL248686  28.275  29.569   5.888
 3697POPC   C1A48687  28.245  29.963   6.213
 3697POPC   D2A48688  28.193  29.783   6.668
 3697POPC   C3A48689  28.149  30.046   7.055
 3697POPC   C4A48690  28.480  30.279   7.285
 3697POPC   C1B48691  28.449  29.491   6.312
 3697POPC   C2B48692  28.686  29.573   6.672
 3697POPC   C3B48693  28.571  29.732   7.041
 3697POPC   C4B48694  28.289  29.574   7.273
 3698POPC   NC348695   2.134  31.310   5.506
 3698POPC   PO448696   1.649  31.720   5.557
 3698POPC   GL148697   1.848  31.478   5.905
 3698POPC   GL248698   2.158  31.260   5.998
 3698POPC   C1A48699   1.831  31.554   6.325
 3698POPC   D2A48700   1.574  31.703   6.634
 3698POPC   C3A48701   1.845  31.642   6.999
 3698POPC   C4A48702   2.255  31.786   7.096
 3698POPC   C1B48703   1.940  31.056   6.323
 3698POPC   C2B48704   1.837  31.195   6.714
 3698POPC   C3B48705   1.970  31.147   7.101
 3698POPC   C4B48706   2.374  31.302   7.227
 3699POPC   NC348707  41.920  14.117   5.572
 3699POPC   PO448708  41.271  14.333   5.357
 3699POPC   GL148709  41.539  14.418   5.751
 3699POPC   GL248710  41.717  14.740   5.822
 3699POPC   C1A48711  41.688  14.337   6.186
 3699POPC   D2A48712  41.491  14.183   6.565
 3699POPC   C3A48713  41.644  14.105   6.961
 3699POPC   C4A48714  41.474  14.262   7.324
 3699POPC   C1B48715  41.932  14.793   6.220
 3699POPC   C2B48716  41.817  14.911   6.638
 3699POPC   C3B48717  41.744  14.611   6.975
 3699POPC   C4B48718  41.850  14.588   7.411
 3700POPC   NC348719  27.324   4.539   5.432
 3700POPC   PO448720  27.826   4.122   5.413
 3700POPC   GL148721  27.825   4.406   5.769
 3700POPC   GL248722  27.536   4.349   5.856
 3700POPC   C1A48723  27.824   4.585   6.194
 3700POPC   D2A48724  27.596   4.594   6.567
 3700POPC   C3A48725  27.891   4.495   6.905
 3700POPC   C4A48726  27.900   4.146   7.164
 3700POPC   C1B48727  27.553   4.117   6.227
 3700POPC   C2B48728  27.375   4.078   6.639
 3700POPC   C3B48729  27.408   4.249   7.037
 3700POPC   C4B48730  27.453   4.696   7.058
 3701POPC   NC348731  35.050  12.591   5.258
 3701POPC   PO448732  34.393  12.845   5.351
 3701POPC   GL148733  34.506  12.792   5.779
 3701POPC   GL248734  34.630  13.101   5.836
 3701POPC   C1A48735  34.659  12.725   6.219
 3701POPC   D2A48736  34.829  12.905   6.604
 3701POPC   C3A48737  34.741  12.784   7.027
 3701POPC   C4A48738  34.859  13.138   7.235
 3701POPC   C1B48739  34.314  13.100   6.182
 3701POPC   C2B48740  34.435  13.221   6.618
 3701POPC   C3B48741  34.351  13.087   7.017
 3701POPC   C4B48742  34.164  13.221   7.371
 3702POPC   NC348743   6.207  36.275   5.319
 3702POPC   PO448744   5.697  35.858   5.459
 3702POPC   GL148745   5.756  36.043   5.808
 3702POPC   GL248746   6.091  36.162   5.846
 3702POPC   C1A48747   5.766  35.903   6.211
 3702POPC   D2A48748   5.658  36.123   6.538
 3702POPC   C3A48749   5.735  35.948   6.914
 3702POPC   C4A48750   5.570  36.204   7.207
 3702POPC   C1B48751   6.153  36.204   6.319
 3702POPC   C2B48752   6.157  36.186   6.766
 3702POPC   C3B48753   6.139  36.365   7.189
 3702POPC   C4B48754   6.289  36.313   7.627
 3703POPC   NC348755  42.486  40.717   5.180
 3703POPC   PO448756  42.047  41.108   5.537
 3703POPC   GL148757  42.142  41.004   5.954
 3703POPC   GL248758  42.296  40.662   5.960
 3703POPC   C1A48759  42.392  40.985   6.340
 3703POPC   D2A48760  42.291  40.716   6.690
 3703POPC   C3A48761  42.540  40.858   7.043
 3703POPC   C4A48762  42.561  41.011   7.463
 3703POPC   C1B48763  42.613  40.508   6.288
 3703POPC   C2B48764  42.722  40.440   6.740
 3703POPC   C3B48765  42.809  40.432   7.161
 3703POPC   C4B48766  42.704  40.513   7.579
 3704POPC   NC348767  30.931  41.841   5.364
 3704POPC   PO448768  31.019  42.446   5.569
 3704POPC   GL148769  30.573  42.469   5.796
 3704POPC   GL248770  30.448  42.131   5.782
 3704POPC   C1A48771  30.407  42.539   6.207
 3704POPC   D2A48772  30.673  42.488   6.572
 3704POPC   C3A48773  30.492  42.614   6.955
 3704POPC   C4A48774  30.663  42.592   7.356
 3704POPC   C1B48775  30.769  42.159   6.147
 3704POPC   C2B48776  30.793  41.999   6.564
 3704POPC   C3B48777  30.890  42.209   6.960
 3704POPC   C4B48778  31.032  42.232   7.374
 3705POPC   NC348779  16.143  34.715   5.454
 3705POPC   PO448780  15.496  34.572   5.392
 3705POPC   GL148781  15.679  34.778   5.732
 3705POPC   GL248782  15.866  34.489   5.834
 3705POPC   C1A48783  15.868  34.884   6.154
 3705POPC   D2A48784  15.895  34.644   6.523
 3705POPC   C3A48785  15.868  34.805   6.931
 3705POPC   C4A48786  16.048  34.671   7.336
 3705POPC   C1B48787  16.126  34.351   6.164
 3705POPC   C2B48788  16.148  34.226   6.603
 3705POPC   C3B48789  15.911  34.290   7.005
 3705POPC   C4B48790  15.849  34.243   7.510
 3706POPC   NC348791   3.571   8.660   5.436
 3706POPC   PO448792   3.973   9.266   5.413
 3706POPC   GL148793   3.748   9.040   5.776
 3706POPC   GL248794   3.763   8.663   5.904
 3706POPC   C1A48795   3.635   9.026   6.228
 3706POPC   D2A48796   3.539   8.747   6.571
 3706POPC   C3A48797   3.385   9.061   6.841
 3706POPC   C4A48798   3.571   9.241   7.193
 3706POPC   C1B48799   3.305   8.643   6.100
 3706POPC   C2B48800   3.038   8.622   6.509
 3706POPC   C3B48801   3.165   8.586   6.958
 3706POPC   C4B48802   3.595   8.699   7.143
 3707POPC   NC348803  33.502  20.538   5.421
 3707POPC   PO448804  34.199  20.668   5.423
 3707POPC   GL148805  33.952  20.553   5.823
 3707POPC   GL248806  33.600  20.620   5.900
 3707POPC   C1A48807  33.915  20.693   6.290
 3707POPC   D2A48808  33.812  20.626   6.730
 3707POPC   C3A48809  34.145  20.662   7.050
 3707POPC   C4A48810  34.035  20.354   7.348
 3707POPC   C1B48811  33.321  20.791   6.191
 3707POPC   C2B48812  33.240  20.725   6.631
 3707POPC   C3B48813  33.505  20.981   6.913
 3707POPC   C4B48814  33.681  20.741   7.251
 3708POPC   NC348815   0.959  38.663   5.046
 3708POPC   PO448816   1.459  38.379   5.480
 3708POPC   GL148817   1.197  38.491   5.788
 3708POPC   GL248818   1.295  38.835   5.751
 3708POPC   C1A48819   1.264  38.495   6.221
 3708POPC   D2A48820   1.584  38.564   6.539
 3708POPC   C3A48821   1.512  38.238   6.817
 3708POPC   C4A48822   1.327  38.256   7.200
 3708POPC   C1B48823   1.413  38.976   6.171
 3708POPC   C2B48824   1.182  38.891   6.549
 3708POPC   C3B48825   1.131  38.655   6.941
 3708POPC   C4B48826   1.210  38.698   7.380
 3709POPC   NC348827  11.778  30.848   5.510
 3709POPC   PO448828  12.324  30.465   5.396
 3709POPC   GL148829  11.997  30.438   5.733
 3709POPC   GL248830  12.177  30.727   5.837
 3709POPC   C1A48831  11.841  30.549   6.178
 3709POPC   D2A48832  11.640  30.479   6.584
 3709POPC   C3A48833  11.651  30.762   6.941
 3709POPC   C4A48834  11.793  30.855   7.347
 3709POPC   C1B48835  12.343  30.805   6.236
 3709POPC   C2B48836  12.134  30.730   6.636
 3709POPC   C3B48837  12.111  30.564   7.056
 3709POPC   C4B48838  12.292  30.904   7.315
 3710POPC   NC348839  37.189  39.669   5.544
 3710POPC   PO448840  36.792  39.194   5.559
 3710POPC   GL148841  36.983  39.243   5.949
 3710POPC   GL248842  37.293  39.281   5.848
 3710POPC   C1A48843  37.084  39.468   6.332
 3710POPC   D2A48844  36.871  39.672   6.695
 3710POPC   C3A48845  36.852  39.409   7.085
 3710POPC   C4A48846  36.739  39.401   7.516
 3710POPC   C1B48847  37.400  39.061   6.198
 3710POPC   C2B48848  37.317  39.077   6.613
 3710POPC   C3B48849  37.171  39.004   6.993
 3710POPC   C4B48850  37.302  39.200   7.325
 3711POPC   NC348851  24.022   2.186   5.421
 3711POPC   PO448852  24.724   2.072   5.322
 3711POPC   GL148853  24.568   1.984   5.739
 3711POPC   GL248854  24.390   2.278   5.786
 3711POPC   C1A48855  24.499   1.882   6.180
 3711POPC   D2A48856  24.409   1.739   6.613
 3711POPC   C3A48857  24.528   1.846   7.071
 3711POPC   C4A48858  24.697   1.630   7.482
 3711POPC   C1B48859  24.237   2.329   6.194
 3711POPC   C2B48860  24.076   2.233   6.611
 3711POPC   C3B48861  24.215   2.379   6.997
 3711POPC   C4B48862  24.113   2.442   7.464
 3712POPC   NC348863   0.814  38.803   5.572
 3712POPC   PO448864   0.537  38.416   5.095
 3712POPC   GL148865   0.458  38.298   5.600
 3712POPC   GL248866   0.444  38.575   5.845
 3712POPC   C1A48867   0.477  38.122   6.082
 3712POPC   D2A48868   0.571  37.949   6.525
 3712POPC   C3A48869   0.461  38.249   6.876
 3712POPC   C4A48870   0.298  38.243   7.310
 3712POPC   C1B48871   0.713  38.559   6.247
 3712POPC   C2B48872   0.708  38.745   6.675
 3712POPC   C3B48873   0.636  38.689   7.118
 3712POPC   C4B48874   0.797  38.392   7.335
 3713POPC   NC348875  38.734  31.784   5.377
 3713POPC   PO448876  38.272  32.369   5.409
 3713POPC   GL148877  38.519  32.316   5.819
 3713POPC   GL248878  38.762  32.016   5.827
 3713POPC   C1A48879  38.454  32.365   6.273
 3713POPC   D2A48880  38.456  32.432   6.708
 3713POPC   C3A48881  38.229  32.165   6.958
 3713POPC   C4A48882  38.438  31.863   7.144
 3713POPC   C1B48883  38.921  32.153   6.215
 3713POPC   C2B48884  38.789  32.038   6.615
 3713POPC   C3B48885  38.817  32.194   7.000
 3713POPC   C4B48886  38.578  32.491   7.199
 3714POPC   NC348887  40.693  20.566   5.484
 3714POPC   PO448888  41.362  20.481   5.501
 3714POPC   GL148889  41.201  20.803   5.765
 3714POPC   GL248890  40.897  20.689   5.933
 3714POPC   C1A48891  41.291  20.851   6.223
 3714POPC   D2A48892  41.213  20.574   6.579
 3714POPC   C3A48893  40.886  20.710   6.889
 3714POPC   C4A48894  40.733  20.732   7.361
 3714POPC   C1B48895  40.558  20.423   6.140
 3714POPC   C2B48896  40.404  20.585   6.530
 3714POPC   C3B48897  40.490  20.417   6.922
 3714POPC   C4B48898  40.301  20.444   7.273
 3715POPC   NC348899  44.216  39.161   5.538
 3715POPC   PO448900  43.712  39.594   5.454
 3715POPC   GL148901  43.798  39.346   5.842
 3715POPC   GL248902  43.583  39.049   5.960
 3715POPC   C1A48903  43.991  39.252   6.257
 3715POPC   D2A48904  43.976  39.391   6.692
 3715POPC   C3A48905  43.978  39.327   7.122
 3715POPC   C4A48906  44.153  39.510   7.490
 3715POPC   C1B48907  43.479  39.341   6.261
 3715POPC   C2B48908  43.457  39.289   6.642
 3715POPC   C3B48909  43.438  39.387   7.006
 3715POPC   C4B48910  43.455  39.085   7.265
 3716POPC   NC348911  20.193   7.440   5.308
 3716POPC   PO448912  20.855   7.643   5.398
 3716POPC   GL148913  20.590   7.441   5.705
 3716POPC   GL248914  20.773   7.137   5.786
 3716POPC   C1A48915  20.435   7.344   6.144
 3716POPC   D2A48916  20.598   7.454   6.564
 3716POPC   C3A48917  20.420   7.323   6.963
 3716POPC   C4A48918  20.580   7.425   7.382
 3716POPC   C1B48919  20.939   7.286   6.208
 3716POPC   C2B48920  21.023   7.146   6.644
 3716POPC   C3B48921  20.940   7.273   7.069
 3716POPC   C4B48922  21.030   7.395   7.554
 3717POPC   NC348923  11.574  38.442   5.576
 3717POPC   PO448924  11.085  38.877   5.394
 3717POPC   GL148925  11.136  38.603   5.782
 3717POPC   GL248926  11.101  38.253   5.765
 3717POPC   C1A48927  11.322  38.551   6.212
 3717POPC   D2A48928  11.300  38.785   6.620
 3717POPC   C3A48929  11.303  38.529   6.998
 3717POPC   C4A48930  11.475  38.142   7.094
 3717POPC   C1B48931  10.944  38.210   6.176
 3717POPC   C2B48932  11.136  38.227   6.588
 3717POPC   C3B48933  10.947  38.157   6.981
 3717POPC   C4B48934  11.013  37.891   7.322
 3718POPC   NC348935  19.703  11.304   5.478
 3718POPC   PO448936  20.158  11.736   5.483
 3718POPC   GL148937  20.149  11.338   5.762
 3718POPC   GL248938  19.842  11.179   5.946
 3718POPC   C1A48939  20.299  11.178   6.174
 3718POPC   D2A48940  20.005  11.064   6.513
 3718POPC   C3A48941  20.121  11.036   6.928
 3718POPC   C4A48942  20.005  11.250   7.341
 3718POPC   C1B48943  19.575  10.912   6.207
 3718POPC   C2B48944  19.537  10.884   6.657
 3718POPC   C3B48945  19.608  11.161   7.025
 3718POPC   C4B48946  19.538  11.061   7.483
 3719POPC   NC348947  35.021  44.218   5.432
 3719POPC   PO448948  35.561  43.777   5.382
 3719POPC   GL148949  35.522  43.773   5.826
 3719POPC   GL248950  35.166  43.835   5.872
 3719POPC   C1A48951  35.532  43.870   6.284
 3719POPC   D2A48952  35.245  43.784   6.652
 3719POPC   C3A48953  35.480  43.748   7.053
 3719POPC   C4A48954  35.698  44.103   7.168
 3719POPC   C1B48955  35.077  44.116   6.250
 3719POPC   C2B48956  35.036  44.292   6.682
 3719POPC   C3B48957  35.065  44.054   7.082
 3719POPC   C4B48958  34.846  44.020   7.478
 3720POPC   NC348959  33.361  11.690   5.403
 3720POPC   PO448960  32.864  12.148   5.173
 3720POPC   GL148961  32.876  12.053   5.664
 3720POPC   GL248962  33.242  11.993   5.780
 3720POPC   C1A48963  32.889  11.910   6.137
 3720POPC   D2A48964  32.996  12.171   6.518
 3720POPC   C3A48965  32.997  11.992   6.969
 3720POPC   C4A48966  32.655  11.960   7.223
 3720POPC   C1B48967  33.420  11.936   6.183
 3720POPC   C2B48968  33.493  12.097   6.600
 3720POPC   C3B48969  33.279  12.390   6.887
 3720POPC   C4B48970  33.407  12.164   7.267
 3721POPC   NC348971  28.825  30.890   5.128
 3721POPC   PO448972  29.302  30.582   5.585
 3721POPC   GL148973  29.254  30.871   5.840
 3721POPC   GL248974  28.938  31.010   5.834
 3721POPC   C1A48975  29.166  30.734   6.254
 3721POPC   D2A48976  29.412  30.567   6.576
 3721POPC   C3A48977  29.163  30.646   6.906
 3721POPC   C4A48978  28.997  30.400   7.211
 3721POPC   C1B48979  28.904  31.161   6.258
 3721POPC   C2B48980  28.767  31.099   6.692
 3721POPC   C3B48981  28.982  31.096   7.097
 3721POPC   C4B48982  29.346  30.905   7.305
 3722POPC   NC348983  37.931  25.467   5.475
 3722POPC   PO448984  37.806  24.826   5.349
 3722POPC   GL148985  37.867  25.016   5.743
 3722POPC   GL248986  37.504  25.016   5.814
 3722POPC   C1A48987  37.926  25.211   6.145
 3722POPC   D2A48988  37.656  25.093   6.462
 3722POPC   C3A48989  37.750  25.061   6.899
 3722POPC   C4A48990  37.742  25.276   7.287
 3722POPC   C1B48991  37.434  25.402   6.063
 3722POPC   C2B48992  37.364  25.524   6.485
 3722POPC   C3B48993  37.374  25.421   6.926
 3722POPC   C4B48994  37.359  25.639   7.318
 3723POPC   NC348995  35.888  17.347   5.527
 3723POPC   PO448996  35.730  16.758   5.469
 3723POPC   GL148997  36.048  16.908   5.783
 3723POPC   GL248998  36.231  16.604   5.923
 3723POPC   C1A48999  36.079  16.996   6.235
 3723POPC   D2A49000  35.920  16.761   6.593
 3723POPC   C3A49001  35.934  16.943   6.987
 3723POPC   C4A49002  36.274  16.787   7.224
 3723POPC   C1B49003  36.559  16.365   6.176
 3723POPC   C2B49004  36.692  16.241   6.614
 3723POPC   C3B49005  36.409  16.327   6.984
 3723POPC   C4B49006  36.352  16.303   7.437
 3724POPC   NC349007  43.285  37.432   5.315
 3724POPC   PO449008  42.920  38.009   5.436
 3724POPC   GL149009  43.043  37.645   5.723
 3724POPC   GL249010  43.425  37.626   5.757
 3724POPC   C1A49011  43.139  37.546   6.177
 3724POPC   D2A49012  42.959  37.444   6.577
 3724POPC   C3A49013  43.032  37.837   6.798
 3724POPC   C4A49014  43.132  38.047   7.176
 3724POPC   C1B49015  43.573  37.323   6.047
 3724POPC   C2B49016  43.638  37.348   6.493
 3724POPC   C3B49017  43.396  37.464   6.850
 3724POPC   C4B49018  43.095  37.516   7.205
 3725POPC   NC349019  26.532   7.700   5.544
 3725POPC   PO449020  26.995   7.298   5.391
 3725POPC   GL149021  26.808   7.355   5.801
 3725POPC   GL249022  27.006   7.635   5.908
 3725POPC   C1A49023  26.603   7.496   6.194
 3725POPC   D2A49024  26.350   7.271   6.496
 3725POPC   C3A49025  26.551   7.216   6.905
 3725POPC   C4A49026  26.723   7.507   7.219
 3725POPC   C1B49027  27.085   7.306   6.254
 3725POPC   C2B49028  26.999   7.372   6.714
 3725POPC   C3B49029  27.225   7.442   7.133
 3725POPC   C4B49030  27.091   7.231   7.533
 3726POPC   NC349031  38.167  20.452   5.449
 3726POPC   PO449032  37.531  20.868   5.457
 3726POPC   GL149033  37.850  20.789   5.723
 3726POPC   GL249034  37.805  20.448   5.796
 3726POPC   C1A49035  37.867  20.824   6.177
 3726POPC   D2A49036  37.522  20.749   6.483
 3726POPC   C3A49037  37.684  20.603   6.861
 3726POPC   C4A49038  37.875  20.638   7.224
 3726POPC   C1B49039  37.683  20.339   6.208
 3726POPC   C2B49040  37.642  20.163   6.602
 3726POPC   C3B49041  37.821  20.140   7.012
 3726POPC   C4B49042  37.524  20.297   7.307
 3727POPC   NC349043  15.468  20.724   5.479
 3727POPC   PO449044  14.955  20.222   5.681
 3727POPC   GL149045  15.308  20.389   5.829
 3727POPC   GL249046  15.121  20.699   5.882
 3727POPC   C1A49047  15.587  20.512   6.166
 3727POPC   D2A49048  15.724  20.327   6.552
 3727POPC   C3A49049  15.484  20.456   6.913
 3727POPC   C4A49050  15.337  20.357   7.350
 3727POPC   C1B49051  15.079  20.459   6.277
 3727POPC   C2B49052  15.090  20.265   6.643
 3727POPC   C3B49053  14.965  20.472   7.001
 3727POPC   C4B49054  15.185  20.841   7.124
 3728POPC   NC349055  44.997   0.984   5.227
 3728POPC   PO449056   0.467   1.404   5.290
 3728POPC   GL149057   0.487   1.383   5.814
 3728POPC   GL249058   0.690   1.237   6.088
 3728POPC   C1A49059   0.258   1.454   6.227
 3728POPC   D2A49060   0.221   1.312   6.670
 3728POPC   C3A49061   0.530   1.228   7.018
 3728POPC   C4A49062   0.811   1.364   7.386
 3728POPC   C1B49063   0.307   0.951   6.301
 3728POPC   C2B49064   0.125   0.783   6.703
 3728POPC   C3B49065   0.145   0.901   7.174
 3728POPC   C4B49066   0.174   0.812   7.641
 3729POPC   NC349067   2.879  41.531   5.456
 3729POPC   PO449068   2.248  41.382   5.567
 3729POPC   GL149069   2.522  41.486   5.850
 3729POPC   GL249070   2.386  41.760   5.991
 3729POPC   C1A49071   2.512  41.350   6.261
 3729POPC   D2A49072   2.650  41.543   6.628
 3729POPC   C3A49073   2.758  41.333   6.974
 3729POPC   C4A49074   2.487  41.150   7.244
 3729POPC   C1B49075   2.700  41.893   6.256
 3729POPC   C2B49076   2.766  42.032   6.697
 3729POPC   C3B49077   2.699  41.823   7.071
 3729POPC   C4B49078   3.024  41.722   7.273
 3730POPC   NC349079  13.842   3.942   5.129
 3730POPC   PO449080  13.281   3.661   5.435
 3730POPC   GL149081  13.463   3.559   5.832
 3730POPC   GL249082  13.793   3.720   5.759
 3730POPC   C1A49083  13.411   3.588   6.307
 3730POPC   D2A49084  13.732   3.718   6.634
 3730POPC   C3A49085  13.645   3.641   7.049
 3730POPC   C4A49086  13.440   4.002   7.191
 3730POPC   C1B49087  13.900   3.562   6.177
 3730POPC   C2B49088  13.774   3.231   6.508
 3730POPC   C3B49089  13.886   3.195   6.965
 3730POPC   C4B49090  14.118   3.430   7.317
 3731POPC   NC349091  23.970  15.302   5.456
 3731POPC   PO449092  23.609  14.695   5.479
 3731POPC   GL149093  23.751  14.963   5.803
 3731POPC   GL249094  23.574  15.307   5.791
 3731POPC   C1A49095  23.924  15.022   6.213
 3731POPC   D2A49096  24.055  15.117   6.647
 3731POPC   C3A49097  23.758  15.411   6.867
 3731POPC   C4A49098  23.586  15.338   7.271
 3731POPC   C1B49099  23.425  15.160   6.191
 3731POPC   C2B49100  23.564  14.985   6.584
 3731POPC   C3B49101  23.691  14.897   6.981
 3731POPC   C4B49102  23.382  14.651   7.208
 3732POPC   NC349103  43.592   6.583   5.269
 3732POPC   PO449104  43.014   6.995   5.228
 3732POPC   GL149105  43.016   6.822   5.721
 3732POPC   GL249106  43.343   6.627   5.777
 3732POPC   C1A49107  42.775   6.841   6.171
 3732POPC   D2A49108  42.785   7.037   6.625
 3732POPC   C3A49109  42.799   6.760   7.023
 3732POPC   C4A49110  43.049   6.448   7.194
 3732POPC   C1B49111  43.258   6.712   6.243
 3732POPC   C2B49112  43.208   6.479   6.634
 3732POPC   C3B49113  43.492   6.499   6.965
 3732POPC   C4B49114  43.344   6.878   7.087
 3733POPC   NC349115  13.275  23.761   5.545
 3733POPC   PO449116  13.951  23.641   5.455
 3733POPC   GL149117  13.767  23.866   5.831
 3733POPC   GL249118  13.427  23.995   5.951
 3733POPC   C1A49119  13.786  23.924   6.278
 3733POPC   D2A49120  13.512  23.824   6.572
 3733POPC   C3A49121  13.598  23.979   6.952
 3733POPC   C4A49122  13.791  23.627   7.123
 3733POPC   C1B49123  13.342  23.571   6.155
 3733POPC   C2B49124  13.350  23.320   6.536
 3733POPC   C3B49125  13.300  23.532   6.935
 3733POPC   C4B49126  13.324  23.707   7.320
 3734POPC   NC349127  23.376  16.278   5.612
 3734POPC   PO449128  23.574  15.686   5.347
 3734POPC   GL149129  23.568  15.825   5.748
 3734POPC   GL249130  23.888  15.960   5.742
 3734POPC   C1A49131  23.534  15.992   6.164
 3734POPC   D2A49132  23.653  15.779   6.505
 3734POPC   C3A49133  23.626  16.031   6.825
 3734POPC   C4A49134  23.581  15.847   7.210
 3734POPC   C1B49135  24.043  15.930   6.165
 3734POPC   C2B49136  24.079  16.106   6.600
 3734POPC   C3B49137  24.066  15.899   7.012
 3734POPC   C4B49138  24.106  15.685   7.427
 3735POPC   NC349139  28.295  40.292   5.385
 3735POPC   PO449140  28.630  39.664   5.428
 3735POPC   GL149141  28.291  39.822   5.717
 3735POPC   GL249142  28.344  40.179   5.886
 3735POPC   C1A49143  28.235  39.765   6.164
 3735POPC   D2A49144  28.374  40.049   6.451
 3735POPC   C3A49145  28.311  39.978   6.871
 3735POPC   C4A49146  28.223  39.719   7.210
 3735POPC   C1B49147  28.699  40.348   6.173
 3735POPC   C2B49148  28.726  40.400   6.621
 3735POPC   C3B49149  28.660  40.354   7.041
 3735POPC   C4B49150  28.265  40.351   7.195
 3736POPC   NC349151  23.509  19.459   5.409
 3736POPC   PO449152  23.613  20.092   5.289
 3736POPC   GL149153  23.649  19.871   5.681
 3736POPC   GL249154  23.633  20.163   5.836
 3736POPC   C1A49155  23.737  19.784   6.127
 3736POPC   D2A49156  23.651  19.985   6.477
 3736POPC   C3A49157  23.653  19.762   6.818
 3736POPC   C4A49158  23.713  19.823   7.253
 3736POPC   C1B49159  23.305  20.220   6.202
 3736POPC   C2B49160  23.159  20.091   6.630
 3736POPC   C3B49161  23.232  19.961   7.090
 3736POPC   C4B49162  23.431  20.147   7.505
 3737POPC   NC349163  43.280  12.872   5.517
 3737POPC   PO449164  42.607  12.597   5.414
 3737POPC   GL149165  42.896  12.646   5.743
 3737POPC   GL249166  42.868  13.016   5.791
 3737POPC   C1A49167  43.194  12.647   6.102
 3737POPC   D2A49168  43.161  12.751   6.499
 3737POPC   C3A49169  43.327  12.749   6.893
 3737POPC   C4A49170  43.004  12.732   7.196
 3737POPC   C1B49171  43.097  13.191   6.156
 3737POPC   C2B49172  43.192  13.241   6.599
 3737POPC   C3B49173  42.860  13.085   6.874
 3737POPC   C4B49174  42.811  13.201   7.321
 3738POPC   NC349175  11.851  24.861   5.340
 3738POPC   PO449176  11.922  24.177   5.486
 3738POPC   GL149177  12.074  24.307   5.870
 3738POPC   GL249178  12.398  24.436   5.851
 3738POPC   C1A49179  11.895  24.524   6.227
 3738POPC   D2A49180  12.086  24.408   6.605
 3738POPC   C3A49181  11.824  24.354   6.953
 3738POPC   C4A49182  12.004  24.174   7.313
 3738POPC   C1B49183  12.371  24.694   6.244
 3738POPC   C2B49184  12.153  24.925   6.552
 3738POPC   C3B49185  12.087  24.812   6.955
 3738POPC   C4B49186  12.374  24.649   7.231
 3739POPC   NC349187  33.905  12.736   5.205
 3739POPC   PO449188  33.832  12.019   5.389
 3739POPC   GL149189  33.786  11.882   5.791
 3739POPC   GL249190  33.812  12.215   5.876
 3739POPC   C1A49191  33.956  11.878   6.236
 3739POPC   D2A49192  34.093  12.216   6.508
 3739POPC   C3A49193  33.928  12.138   6.888
 3739POPC   C4A49194  33.977  12.222   7.305
 3739POPC   C1B49195  33.700  12.396   6.239
 3739POPC   C2B49196  33.736  12.572   6.646
 3739POPC   C3B49197  33.690  12.560   7.089
 3739POPC   C4B49198  33.659  12.530   7.533
 3740POPC   NC349199  27.727   5.428   5.650
 3740POPC   PO449200  27.688   4.820   5.408
 3740POPC   GL149201  27.603   4.883   5.846
 3740POPC   GL249202  27.272   4.806   5.894
 3740POPC   C1A49203  27.710   5.083   6.281
 3740POPC   D2A49204  27.860   5.288   6.694
 3740POPC   C3A49205  27.862   5.038   7.093
 3740POPC   C4A49206  28.069   4.957   7.518
 3740POPC   C1B49207  27.221   4.939   6.318
 3740POPC   C2B49208  27.393   5.093   6.695
 3740POPC   C3B49209  27.364   5.205   7.109
 3740POPC   C4B49210  27.094   4.921   7.324
 3741POPC   NC349211  33.828  25.983   5.321
 3741POPC   PO449212  33.438  25.808   5.483
 3741POPC   GL149213  33.771  25.873   5.817
 3741POPC   GL249214  33.792  26.220   5.852
 3741POPC   C1A49215  33.947  25.835   6.250
 3741POPC   D2A49216  33.736  25.930   6.676
 3741POPC   C3A49217  33.845  25.767   7.088
 3741POPC   C4A49218  33.656  25.903   7.474
 3741POPC   C1B49219  33.762  26.310   6.321
 3741POPC   C2B49220  33.748  26.437   6.772
 3741POPC   C3B49221  33.902  26.289   7.175
 3741POPC   C4B49222  33.974  26.423   7.595
 3742POPC   NC349223  14.664  36.967   5.151
 3742POPC   PO449224  14.073  36.695   5.324
 3742POPC   GL149225  14.341  36.826   5.664
 3742POPC   GL249226  14.195  37.148   5.682
 3742POPC   C1A49227  14.566  36.729   6.083
 3742POPC   D2A49228  14.608  36.888   6.478
 3742POPC   C3A49229  14.696  36.741   6.884
 3742POPC   C4A49230  14.461  36.930   7.209
 3742POPC   C1B49231  14.374  37.217   6.089
 3742POPC   C2B49232  14.239  37.222   6.526
 3742POPC   C3B49233  14.329  37.362   6.921
 3742POPC   C4B49234  14.165  37.378   7.307
 3743POPC   NC349235   8.841  35.900   5.420
 3743POPC   PO449236   8.634  36.571   5.637
 3743POPC   GL149237   8.955  36.333   5.838
 3743POPC   GL249238   9.319  36.412   5.931
 3743POPC   C1A49239   8.876  36.030   6.165
 3743POPC   D2A49240   8.964  35.965   6.595
 3743POPC   C3A49241   8.907  36.315   6.867
 3743POPC   C4A49242   8.645  36.252   7.208
 3743POPC   C1B49243   9.407  36.012   6.225
 3743POPC   C2B49244   9.429  35.753   6.647
 3743POPC   C3B49245   9.192  35.886   7.064
 3743POPC   C4B49246   9.169  35.893   7.542
 3744POPC   NC349247  18.769  24.649   5.508
 3744POPC   PO449248  19.372  24.509   5.649
 3744POPC   GL149249  19.043  24.545   5.927
 3744POPC   GL249250  18.927  24.253   5.768
 3744POPC   C1A49251  19.016  24.502   6.369
 3744POPC   D2A49252  19.234  24.636   6.744
 3744POPC   C3A49253  18.920  24.653   7.077
 3744POPC   C4A49254  18.690  24.493   7.452
 3744POPC   C1B49255  18.706  24.128   6.144
 3744POPC   C2B49256  18.900  24.034   6.540
 3744POPC   C3B49257  18.921  24.150   6.970
 3744POPC   C4B49258  19.304  24.298   7.134
 3745POPC   NC349259  37.256  36.257   5.587
 3745POPC   PO449260  37.801  35.867   5.502
 3745POPC   GL149261  37.794  36.184   5.841
 3745POPC   GL249262  38.131  36.244   5.936
 3745POPC   C1A49263  37.689  36.439   6.244
 3745POPC   D2A49264  37.350  36.540   6.592
 3745POPC   C3A49265  37.509  36.336   6.957
 3745POPC   C4A49266  37.963  36.392   6.996
 3745POPC   C1B49267  38.011  35.999   6.292
 3745POPC   C2B49268  37.942  35.886   6.723
 3745POPC   C3B49269  37.615  35.818   6.971
 3745POPC   C4B49270  37.331  35.903   7.242
 3746POPC   NC349271   1.032  32.750   5.504
 3746POPC   PO449272   1.507  33.205   5.328
 3746POPC   GL149273   1.269  33.174   5.758
 3746POPC   GL249274   1.199  32.895   5.976
 3746POPC   C1A49275   1.300  33.305   6.223
 3746POPC   D2A49276   1.091  33.085   6.597
 3746POPC   C3A49277   1.331  33.154   7.004
 3746POPC   C4A49278   1.395  33.215   7.487
 3746POPC   C1B49279   0.913  32.624   6.197
 3746POPC   C2B49280   0.966  32.330   6.553
 3746POPC   C3B49281   0.857  32.521   6.958
 3746POPC   C4B49282   1.139  32.745   7.233
 3747POPC   NC349283  11.956  15.300   5.306
 3747POPC   PO449284  12.542  15.064   5.347
 3747POPC   GL149285  12.242  15.066   5.714
 3747POPC   GL249286  11.938  15.313   5.809
 3747POPC   C1A49287  12.196  15.086   6.180
 3747POPC   D2A49288  12.162  14.905   6.580
 3747POPC   C3A49289  11.910  15.016   6.921
 3747POPC   C4A49290  12.063  15.080   7.301
 3747POPC   C1B49291  11.898  15.502   6.244
 3747POPC   C2B49292  11.827  15.467   6.710
 3747POPC   C3B49293  11.721  15.439   7.178
 3747POPC   C4B49294  11.883  15.467   7.614
 3748POPC   NC349295   9.774   6.429   5.417
 3748POPC   PO449296   9.772   7.145   5.355
 3748POPC   GL149297   9.756   6.881   5.763
 3748POPC   GL249298   9.547   6.562   5.839
 3748POPC   C1A49299   9.500   6.946   6.155
 3748POPC   D2A49300   9.383   6.703   6.489
 3748POPC   C3A49301   9.650   6.728   6.853
 3748POPC   C4A49302   9.673   6.803   7.289
 3748POPC   C1B49303   9.830   6.547   6.175
 3748POPC   C2B49304   9.844   6.353   6.547
 3748POPC   C3B49305   9.771   6.239   6.939
 3748POPC   C4B49306   9.513   6.319   7.256
 3749POPC   NC349307  30.814  12.450   5.448
 3749POPC   PO449308  31.179  11.911   5.438
 3749POPC   GL149309  30.946  11.872   5.845
 3749POPC   GL249310  30.596  11.841   5.784
 3749POPC   C1A49311  30.950  11.968   6.304
 3749POPC   D2A49312  30.977  12.300   6.627
 3749POPC   C3A49313  30.681  12.217   6.941
 3749POPC   C4A49314  30.836  11.835   7.117
 3749POPC   C1B49315  30.443  11.929   6.207
 3749POPC   C2B49316  30.546  11.790   6.641
 3749POPC   C3B49317  30.341  11.852   7.044
 3749POPC   C4B49318  30.494  12.041   7.423
 3750POPC   NC349319  18.397   4.684   5.508
 3750POPC   PO449320  18.597   5.424   5.499
 3750POPC   GL149321  18.500   5.096   5.781
 3750POPC   GL249322  18.158   5.078   5.933
 3750POPC   C1A49323  18.578   5.136   6.206
 3750POPC   D2A49324  18.267   5.069   6.529
 3750POPC   C3A49325  18.484   5.150   6.901
 3750POPC   C4A49326  18.626   4.898   7.296
 3750POPC   C1B49327  17.879   4.853   6.215
 3750POPC   C2B49328  17.823   4.811   6.640
 3750POPC   C3B49329  17.940   5.081   6.950
 3750POPC   C4B49330  18.161   5.062   7.281
 3751POPC   NC349331   0.312   4.642   5.465
 3751POPC   PO449332   0.621   3.990   5.459
 3751POPC   GL149333   0.460   4.272   5.777
 3751POPC   GL249334   0.667   4.592   5.804
 3751POPC   C1A49335   0.387   4.383   6.200
 3751POPC   D2A49336   0.642   4.386   6.554
 3751POPC   C3A49337   0.428   4.302   6.899
 3751POPC   C4A49338   0.558   4.160   7.249
 3751POPC   C1B49339   0.782   4.739   6.188
 3751POPC   C2B49340   0.695   4.891   6.587
 3751POPC   C3B49341   0.735   4.716   6.987
 3751POPC   C4B49342   0.647   4.948   7.343
 3752POPC   NC349343  34.957  40.829   5.415
 3752POPC   PO449344  35.480  40.425   5.611
 3752POPC   GL149345  35.316  40.783   5.777
 3752POPC   GL249346  35.022  40.648   5.908
 3752POPC   C1A49347  35.329  41.030   6.163
 3752POPC   D2A49348  35.516  41.112   6.576
 3752POPC   C3A49349  35.232  41.004   6.942
 3752POPC   C4A49350  35.442  40.932   7.307
 3752POPC   C1B49351  35.327  40.536   6.249
 3752POPC   C2B49352  35.380  40.613   6.671
 3752POPC   C3B49353  35.334  40.482   7.083
 3752POPC   C4B49354  35.667  40.300   7.304
 3753POPC   NC349355  35.950  16.349   5.520
 3753POPC   PO449356  36.210  15.746   5.324
 3753POPC   GL149357  36.064  15.876   5.732
 3753POPC   GL249358  36.339  16.099   5.798
 3753POPC   C1A49359  35.962  16.024   6.159
 3753POPC   D2A49360  36.173  16.204   6.517
 3753POPC   C3A49361  36.136  15.911   6.862
 3753POPC   C4A49362  36.000  15.955   7.295
 3753POPC   C1B49363  36.448  15.840   6.171
 3753POPC   C2B49364  36.386  15.525   6.512
 3753POPC   C3B49365  36.544  15.516   6.939
 3753POPC   C4B49366  36.505  15.876   7.221
 3754POPC   NC349367   8.100  31.328   5.295
 3754POPC   PO449368   8.649  31.599   5.530
 3754POPC   GL149369   8.241  31.609   5.733
 3754POPC   GL249370   8.104  31.251   5.794
 3754POPC   C1A49371   8.207  31.584   6.174
 3754POPC   D2A49372   8.242  31.311   6.507
 3754POPC   C3A49373   8.319  31.533   6.874
 3754POPC   C4A49374   8.003  31.548   7.168
 3754POPC   C1B49375   7.866  31.123   6.159
 3754POPC   C2B49376   7.944  30.904   6.538
 3754POPC   C3B49377   7.925  31.111   6.902
 3754POPC   C4B49378   8.006  31.045   7.325
 3755POPC   NC349379  21.589  11.457   5.327
 3755POPC   PO449380  21.270  10.850   5.418
 3755POPC   GL149381  21.239  11.064   5.809
 3755POPC   GL249382  21.581  11.026   5.900
 3755POPC   C1A49383  21.256  11.293   6.211
 3755POPC   D2A49384  21.260  11.547   6.580
 3755POPC   C3A49385  21.224  11.357   6.977
 3755POPC   C4A49386  21.432  11.380   7.384
 3755POPC   C1B49387  21.461  10.838   6.322
 3755POPC   C2B49388  21.456  10.916   6.796
 3755POPC   C3B49389  21.718  10.942   7.177
 3755POPC   C4B49390  21.811  11.105   7.596
 3756POPC   NC349391   6.527  24.034   5.067
 3756POPC   PO449392   6.835  23.434   5.121
 3756POPC   GL149393   6.611  23.545   5.584
 3756POPC   GL249394   6.825  23.414   5.820
 3756POPC   C1A49395   6.455  23.646   6.106
 3756POPC   D2A49396   6.234  23.675   6.566
 3756POPC   C3A49397   6.452  23.763   7.002
 3756POPC   C4A49398   6.777  23.914   7.295
 3756POPC   C1B49399   6.938  23.543   6.242
 3756POPC   C2B49400   6.763  23.518   6.673
 3756POPC   C3B49401   6.986  23.496   7.093
 3756POPC   C4B49402   7.028  23.488   7.599
 3757POPC   NC349403  34.077  23.864   5.370
 3757POPC   PO449404  33.589  23.382   5.423
 3757POPC   GL149405  33.696  23.715   5.703
 3757POPC   GL249406  33.352  23.792   5.727
 3757POPC   C1A49407  33.971  23.859   6.077
 3757POPC   D2A49408  34.129  23.986   6.529
 3757POPC   C3A49409  33.994  23.822   6.916
 3757POPC   C4A49410  33.882  23.969   7.305
 3757POPC   C1B49411  33.485  23.753   6.175
 3757POPC   C2B49412  33.645  23.593   6.594
 3757POPC   C3B49413  33.476  23.793   6.993
 3757POPC   C4B49414  33.482  23.649   7.437
 3758POPC   NC349415   8.923  24.024   5.369
 3758POPC   PO449416   9.106  24.659   5.424
 3758POPC   GL149417   9.286  24.511   5.804
 3758POPC   GL249418   9.353  24.152   5.735
 3758POPC   C1A49419   9.409  24.355   6.208
 3758POPC   D2A49420   9.278  24.277   6.615
 3758POPC   C3A49421   9.075  24.575   6.825
 3758POPC   C4A49422   9.222  24.612   7.226
 3758POPC   C1B49423   8.982  24.167   6.019
 3758POPC   C2B49424   8.844  24.082   6.417
 3758POPC   C3B49425   8.859  24.099   6.852
 3758POPC   C4B49426   8.797  24.341   7.210
 3759POPC   NC349427   7.792  32.642   5.376
 3759POPC   PO449428   8.372  33.162   5.428
 3759POPC   GL149429   8.234  32.996   5.816
 3759POPC   GL249430   7.901  33.159   5.867
 3759POPC   C1A49431   8.208  33.085   6.264
 3759POPC   D2A49432   7.957  33.176   6.622
 3759POPC   C3A49433   8.216  32.991   6.920
 3759POPC   C4A49434   8.553  33.105   7.175
 3759POPC   C1B49435   7.754  32.852   6.224
 3759POPC   C2B49436   7.858  32.664   6.655
 3759POPC   C3B49437   8.078  32.506   7.048
 3759POPC   C4B49438   8.229  32.805   7.394
 3760POPC   NC349439   9.496  44.584   5.310
 3760POPC   PO449440   9.956   0.049   5.567
 3760POPC   GL149441   9.642  44.873   5.799
 3760POPC   GL249442   9.629  44.528   5.813
 3760POPC   C1A49443   9.637  44.826   6.225
 3760POPC   D2A49444   9.763  44.955   6.587
 3760POPC   C3A49445   9.600  44.866   6.957
 3760POPC   C4A49446   9.698  44.687   7.345
 3760POPC   C1B49447   9.625  44.314   6.221
 3760POPC   C2B49448   9.555  44.481   6.611
 3760POPC   C3B49449   9.417  44.384   7.015
 3760POPC   C4B49450   9.545  44.203   7.392
 3761POPC   NC349451  30.724  21.587   5.396
 3761POPC   PO449452  30.493  21.051   5.351
 3761POPC   GL149453  30.487  21.254   5.737
 3761POPC   GL249454  30.852  21.232   5.764
 3761POPC   C1A49455  30.510  21.089   6.169
 3761POPC   D2A49456  30.777  20.817   6.500
 3761POPC   C3A49457  30.633  20.874   6.938
 3761POPC   C4A49458  30.353  21.180   7.145
 3761POPC   C1B49459  30.994  21.173   6.190
 3761POPC   C2B49460  30.770  21.319   6.558
 3761POPC   C3B49461  30.679  21.504   6.921
 3761POPC   C4B49462  30.876  21.240   7.214
 3762POPC   NC349463  11.837  13.789   5.433
 3762POPC   PO449464  12.062  13.193   5.326
 3762POPC   GL149465  11.919  13.381   5.734
 3762POPC   GL249466  12.211  13.594   5.754
 3762POPC   C1A49467  11.849  13.611   6.148
 3762POPC   D2A49468  12.073  13.595   6.560
 3762POPC   C3A49469  11.866  13.563   6.978
 3762POPC   C4A49470  11.838  13.396   7.400
 3762POPC   C1B49471  12.396  13.606   6.158
 3762POPC   C2B49472  12.554  13.816   6.516
 3762POPC   C3B49473  12.460  13.656   6.895
 3762POPC   C4B49474  12.284  13.706   7.278
 3763POPC   NC349475  10.121   2.402   5.501
 3763POPC   PO449476  10.630   1.951   5.445
 3763POPC   GL149477  10.385   2.070   5.791
 3763POPC   GL249478  10.088   1.850   5.677
 3763POPC   C1A49479  10.582   2.044   6.212
 3763POPC   D2A49480  10.721   2.045   6.654
 3763POPC   C3A49481  10.440   2.019   7.023
 3763POPC   C4A49482  10.756   1.966   7.348
 3763POPC   C1B49483  10.248   1.687   6.073
 3763POPC   C2B49484  10.212   1.823   6.499
 3763POPC   C3B49485  10.227   1.568   6.847
 3763POPC   C4B49486  10.366   1.547   7.259
 3764POPC   NC349487  44.076  15.203   5.391
 3764POPC   PO449488  43.953  14.588   5.209
 3764POPC   GL149489  43.954  14.786   5.713
 3764POPC   GL249490  43.941  15.125   5.867
 3764POPC   C1A49491  43.790  14.799   6.203
 3764POPC   D2A49492  43.701  15.023   6.621
 3764POPC   C3A49493  43.719  14.906   7.073
 3764POPC   C4A49494  43.982  14.919   7.460
 3764POPC   C1B49495  44.055  15.235   6.276
 3764POPC   C2B49496  44.230  15.193   6.684
 3764POPC   C3B49497  44.047  15.305   7.070
 3764POPC   C4B49498  44.000  15.519   7.434
 3765POPC   NC349499  23.762  33.438   5.141
 3765POPC   PO449500  23.742  32.846   5.281
 3765POPC   GL149501  23.855  32.838   5.725
 3765POPC   GL249502  23.509  32.904   5.850
 3765POPC   C1A49503  23.902  32.785   6.211
 3765POPC   D2A49504  23.946  32.523   6.611
 3765POPC   C3A49505  23.904  32.672   7.082
 3765POPC   C4A49506  23.855  32.849   7.522
 3765POPC   C1B49507  23.390  32.850   6.293
 3765POPC   C2B49508  23.544  32.860   6.746
 3765POPC   C3B49509  23.448  32.929   7.202
 3765POPC   C4B49510  23.524  33.249   7.552
 3766POPC   NC349511  44.994  40.696   5.490
 3766POPC   PO449512  44.447  41.082   5.428
 3766POPC   GL149513  44.621  40.932   5.786
 3766POPC   GL249514  44.552  41.237   5.917
 3766POPC   C1A49515  44.743  40.836   6.219
 3766POPC   D2A49516  44.528  40.652   6.572
 3766POPC   C3A49517  44.691  40.717   6.984
 3766POPC   C4A49518  44.348  40.699   7.216
 3766POPC   C1B49519  44.740  41.353   6.299
 3766POPC   C2B49520  44.791  41.146   6.686
 3766POPC   C3B49521  44.479  41.161   7.007
 3766POPC   C4B49522  44.488  41.111   7.456
 3767POPC   NC349523  11.204   7.386   5.327
 3767POPC   PO449524  11.640   6.959   5.489
 3767POPC   GL149525  11.480   7.246   5.791
 3767POPC   GL249526  11.181   7.454   5.823
 3767POPC   C1A49527  11.591   7.338   6.204
 3767POPC   D2A49528  11.458   7.470   6.583
 3767POPC   C3A49529  11.468   7.326   6.954
 3767POPC   C4A49530  11.130   7.549   7.149
 3767POPC   C1B49531  11.163   7.650   6.212
 3767POPC   C2B49532  10.957   7.457   6.574
 3767POPC   C3B49533  11.011   7.113   6.876
 3767POPC   C4B49534  10.906   7.096   7.288
 3768POPC   NC349535  15.453   5.466   5.117
 3768POPC   PO449536  15.769   4.837   5.420
 3768POPC   GL149537  16.105   4.951   5.769
 3768POPC   GL249538  15.984   5.272   5.869
 3768POPC   C1A49539  16.211   5.073   6.256
 3768POPC   D2A49540  16.071   5.186   6.682
 3768POPC   C3A49541  16.218   4.973   7.109
 3768POPC   C4A49542  16.263   4.864   7.527
 3768POPC   C1B49543  15.714   5.278   6.277
 3768POPC   C2B49544  15.549   5.206   6.714
 3768POPC   C3B49545  15.794   5.253   7.091
 3768POPC   C4B49546  15.744   5.007   7.428
 3769POPC   NC349547  28.495   0.472   5.450
 3769POPC   PO449548  27.832   0.430   5.542
 3769POPC   GL149549  28.154   0.431   5.842
 3769POPC   GL249550  28.451   0.195   5.898
 3769POPC   C1A49551  28.162   0.707   6.159
 3769POPC   D2A49552  28.317   0.783   6.583
 3769POPC   C3A49553  28.300   0.440   6.863
 3769POPC   C4A49554  28.563   0.632   7.156
 3769POPC   C1B49555  28.463   0.335   6.355
 3769POPC   C2B49556  28.779   0.384   6.708
 3769POPC   C3B49557  28.731   0.169   7.067
 3769POPC   C4B49558  28.380   0.023   7.186
 3770POPC   NC349559   5.671  33.272   5.541
 3770POPC   PO449560   5.486  32.684   5.470
 3770POPC   GL149561   5.715  32.852   5.861
 3770POPC   GL249562   6.057  33.054   5.795
 3770POPC   C1A49563   5.637  32.874   6.331
 3770POPC   D2A49564   5.867  32.971   6.715
 3770POPC   C3A49565   5.621  33.114   7.068
 3770POPC   C4A49566   5.514  33.103   7.511
 3770POPC   C1B49567   5.908  33.275   6.160
 3770POPC   C2B49568   6.059  33.441   6.530
 3770POPC   C3B49569   5.906  33.498   6.926
 3770POPC   C4B49570   6.005  33.358   7.334
 3771POPC   NC349571   3.290  16.032   5.389
 3771POPC   PO449572   3.816  15.776   5.195
 3771POPC   GL149573   3.659  15.917   5.697
 3771POPC   GL249574   3.313  15.688   5.769
 3771POPC   C1A49575   3.436  16.049   6.113
 3771POPC   D2A49576   3.352  16.282   6.504
 3771POPC   C3A49577   3.410  16.121   6.930
 3771POPC   C4A49578   3.644  16.285   7.288
 3771POPC   C1B49579   3.295  15.544   6.203
 3771POPC   C2B49580   3.443  15.743   6.562
 3771POPC   C3B49581   3.606  15.642   6.940
 3771POPC   C4B49582   3.611  15.468   7.319
 3772POPC   NC349583   6.961  27.124   5.681
 3772POPC   PO449584   6.419  27.379   5.392
 3772POPC   GL149585   6.604  27.551   5.825
 3772POPC   GL249586   6.963  27.610   5.847
 3772POPC   C1A49587   6.630  27.733   6.274
 3772POPC   D2A49588   6.688  27.936   6.700
 3772POPC   C3A49589   6.498  27.816   7.111
 3772POPC   C4A49590   6.576  27.603   7.549
 3772POPC   C1B49591   6.998  27.389   6.256
 3772POPC   C2B49592   6.808  27.377   6.644
 3772POPC   C3B49593   6.793  27.413   7.055
 3772POPC   C4B49594   6.991  27.165   7.307
 3773POPC   NC349595  30.388  40.407   5.355
 3773POPC   PO449596  29.922  40.060   5.324
 3773POPC   GL149597  30.081  39.892   5.719
 3773POPC   GL249598  30.428  39.733   5.758
 3773POPC   C1A49599  29.801  39.801   6.064
 3773POPC   D2A49600  29.815  39.749   6.505
 3773POPC   C3A49601  29.761  40.036   6.840
 3773POPC   C4A49602  29.581  39.904   7.223
 3773POPC   C1B49603  30.292  39.708   6.193
 3773POPC   C2B49604  30.294  39.621   6.628
 3773POPC   C3B49605  30.026  39.593   6.987
 3773POPC   C4B49606  30.027  39.740   7.429
 3774POPC   NC349607  37.397  37.885   5.410
 3774POPC   PO449608  37.775  37.375   5.255
 3774POPC   GL149609  37.876  37.646   5.681
 3774POPC   GL249610  37.579  37.759   5.852
 3774POPC   C1A49611  37.938  37.757   6.182
 3774POPC   D2A49612  37.753  37.547   6.597
 3774POPC   C3A49613  37.808  37.753   7.016
 3774POPC   C4A49614  37.446  38.039   7.117
 3774POPC   C1B49615  37.529  37.398   6.144
 3774POPC   C2B49616  37.269  37.396   6.539
 3774POPC   C3B49617  37.355  37.495   6.985
 3774POPC   C4B49618  37.241  37.678   7.406
 3775POPC   NC349619  13.023  36.453   5.591
 3775POPC   PO449620  12.624  35.964   5.409
 3775POPC   GL149621  12.901  35.991   5.796
 3775POPC   GL249622  12.720  36.299   5.967
 3775POPC   C1A49623  12.856  35.912   6.263
 3775POPC   D2A49624  12.628  36.169   6.579
 3775POPC   C3A49625  12.731  36.073   7.015
 3775POPC   C4A49626  13.020  36.062   7.355
 3775POPC   C1B49627  13.009  36.447   6.300
 3775POPC   C2B49628  13.021  36.586   6.756
 3775POPC   C3B49629  12.952  36.541   7.183
 3775POPC   C4B49630  12.561  36.423   7.377
 3776POPC   NC349631  22.310  28.693   5.014
 3776POPC   PO449632  21.913  28.285   5.260
 3776POPC   GL149633  22.200  28.453   5.640
 3776POPC   GL249634  22.449  28.191   5.764
 3776POPC   C1A49635  22.264  28.528   6.126
 3776POPC   D2A49636  22.080  28.367   6.542
 3776POPC   C3A49637  22.086  28.504   7.001
 3776POPC   C4A49638  22.276  28.639   7.377
 3776POPC   C1B49639  22.322  28.029   6.197
 3776POPC   C2B49640  22.510  28.006   6.612
 3776POPC   C3B49641  22.469  27.984   7.064
 3776POPC   C4B49642  22.254  28.147   7.453
 3777POPC   NC349643  41.954  18.564   5.346
 3777POPC   PO449644  42.452  18.154   5.271
 3777POPC   GL149645  42.291  18.196   5.711
 3777POPC   GL249646  42.363  18.552   5.761
 3777POPC   C1A49647  42.397  17.984   6.144
 3777POPC   D2A49648  42.459  17.959   6.610
 3777POPC   C3A49649  42.288  18.177   6.993
 3777POPC   C4A49650  42.443  18.064   7.409
 3777POPC   C1B49651  42.222  18.463   6.182
 3777POPC   C2B49652  42.113  18.497   6.608
 3777POPC   C3B49653  42.298  18.700   6.952
 3777POPC   C4B49654  42.648  18.548   7.219
 3778POPC   NC349655   0.363  27.327   5.612
 3778POPC   PO449656   0.658  26.941   5.114
 3778POPC   GL149657   0.686  26.937   5.627
 3778POPC   GL249658   0.691  26.617   5.754
 3778POPC   C1A49659   0.484  26.952   6.123
 3778POPC   D2A49660   0.506  26.767   6.584
 3778POPC   C3A49661   0.418  27.022   6.956
 3778POPC   C4A49662   0.200  27.038   7.364
 3778POPC   C1B49663   0.711  26.489   6.191
 3778POPC   C2B49664   0.834  26.308   6.586
 3778POPC   C3B49665   0.702  26.446   6.994
 3778POPC   C4B49666   0.283  26.568   7.180
 3779POPC   NC349667  14.268  34.694   5.482
 3779POPC   PO449668  14.705  34.127   5.499
 3779POPC   GL149669  14.513  34.466   5.866
 3779POPC   GL249670  14.484  34.861   5.915
 3779POPC   C1A49671  14.402  34.543   6.314
 3779POPC   D2A49672  14.505  34.704   6.738
 3779POPC   C3A49673  14.512  34.524   7.175
 3779POPC   C4A49674  14.653  34.744   7.515
 3779POPC   C1B49675  14.193  35.007   6.260
 3779POPC   C2B49676  14.185  35.109   6.718
 3779POPC   C3B49677  14.250  34.956   7.148
 3779POPC   C4B49678  14.176  34.893   7.624
 3780POPC   NC349679   3.080  39.080   5.379
 3780POPC   PO449680   3.762  39.214   5.526
 3780POPC   GL149681   3.642  39.348   5.930
 3780POPC   GL249682   3.313  39.385   5.929
 3780POPC   C1A49683   3.707  39.235   6.365
 3780POPC   D2A49684   3.424  38.976   6.622
 3780POPC   C3A49685   3.418  39.039   7.052
 3780POPC   C4A49686   3.699  39.301   7.296
 3780POPC   C1B49687   3.211  39.369   6.394
 3780POPC   C2B49688   3.403  39.474   6.784
 3780POPC   C3B49689   3.252  39.481   7.234
 3780POPC   C4B49690   3.242  39.562   7.676
 3781POPC   NC349691  34.965  25.311   5.559
 3781POPC   PO449692  34.428  24.885   5.385
 3781POPC   GL149693  34.619  24.979   5.769
 3781POPC   GL249694  34.476  25.307   5.794
 3781POPC   C1A49695  34.754  25.131   6.188
 3781POPC   D2A49696  34.598  25.337   6.571
 3781POPC   C3A49697  34.807  25.228   6.982
 3781POPC   C4A49698  34.639  25.232   7.401
 3781POPC   C1B49699  34.251  25.114   6.159
 3781POPC   C2B49700  34.216  24.953   6.589
 3781POPC   C3B49701  34.304  25.124   7.007
 3781POPC   C4B49702  34.143  25.414   7.350
 3782POPC   NC349703   5.701  34.900   5.581
 3782POPC   PO449704   5.905  35.256   5.060
 3782POPC   GL149705   5.905  35.399   5.528
 3782POPC   GL249706   6.160  35.675   5.637
 3782POPC   C1A49707   5.839  35.425   6.004
 3782POPC   D2A49708   5.783  35.187   6.433
 3782POPC   C3A49709   5.866  35.377   6.842
 3782POPC   C4A49710   5.876  35.155   7.258
 3782POPC   C1B49711   6.239  35.740   6.080
 3782POPC   C2B49712   6.263  35.516   6.483
 3782POPC   C3B49713   6.368  35.319   6.894
 3782POPC   C4B49714   6.187  35.555   7.225
 3783POPC   NC349715  30.241  12.968   5.227
 3783POPC   PO449716  29.697  12.852   5.495
 3783POPC   GL149717  29.950  12.673   5.840
 3783POPC   GL249718  29.720  12.427   6.023
 3783POPC   C1A49719  30.120  12.663   6.264
 3783POPC   D2A49720  29.835  12.503   6.585
 3783POPC   C3A49721  29.912  12.698   6.980
 3783POPC   C4A49722  30.171  13.047   7.090
 3783POPC   C1B49723  29.644  12.837   6.231
 3783POPC   C2B49724  29.808  13.039   6.613
 3783POPC   C3B49725  29.650  13.132   7.042
 3783POPC   C4B49726  29.230  13.163   7.228
 3784POPC   NC349727  21.472   3.141   5.366
 3784POPC   PO449728  21.229   2.517   5.450
 3784POPC   GL149729  21.467   2.706   5.747
 3784POPC   GL249730  21.182   2.966   5.762
 3784POPC   C1A49731  21.616   2.519   6.146
 3784POPC   D2A49732  21.381   2.572   6.532
 3784POPC   C3A49733  21.555   2.467   6.935
 3784POPC   C4A49734  21.543   2.677   7.325
 3784POPC   C1B49735  21.049   2.687   6.121
 3784POPC   C2B49736  20.951   2.872   6.542
 3784POPC   C3B49737  21.042   2.937   6.970
 3784POPC   C4B49738  21.030   2.674   7.299
 3785POPC   NC349739  41.047   8.327   5.612
 3785POPC   PO449740  41.773   8.173   5.523
 3785POPC   GL149741  41.497   8.195   5.877
 3785POPC   GL249742  41.253   7.914   5.890
 3785POPC   C1A49743  41.437   8.472   6.232
 3785POPC   D2A49744  41.529   8.619   6.646
 3785POPC   C3A49745  41.555   8.249   6.863
 3785POPC   C4A49746  41.493   8.225   7.279
 3785POPC   C1B49747  41.420   7.867   6.308
 3785POPC   C2B49748  41.291   7.796   6.736
 3785POPC   C3B49749  41.541   7.748   7.112
 3785POPC   C4B49750  41.671   7.819   7.555
 3786POPC   NC349751   2.943  30.092   5.320
 3786POPC   PO449752   2.329  30.168   5.254
 3786POPC   GL149753   2.686  30.145   5.723
 3786POPC   GL249754   2.906  29.802   5.747
 3786POPC   C1A49755   2.800  29.997   6.183
 3786POPC   D2A49756   2.966  29.835   6.590
 3786POPC   C3A49757   2.739  29.881   6.995
 3786POPC   C4A49758   2.392  30.019   7.287
 3786POPC   C1B49759   3.228  29.689   6.108
 3786POPC   C2B49760   3.245  29.419   6.506
 3786POPC   C3B49761   3.204  29.532   6.957
 3786POPC   C4B49762   3.266  29.963   7.119
 3787POPC   NC349763  16.411  39.792   5.439
 3787POPC   PO449764  16.886  40.303   5.399
 3787POPC   GL149765  16.825  40.296   5.848
 3787POPC   GL249766  16.573  40.479   6.029
 3787POPC   C1A49767  16.865  39.945   6.139
 3787POPC   D2A49768  17.036  39.904   6.540
 3787POPC   C3A49769  16.814  39.833   6.895
 3787POPC   C4A49770  16.606  40.233   6.932
 3787POPC   C1B49771  16.503  40.186   6.394
 3787POPC   C2B49772  16.413  39.805   6.594
 3787POPC   C3B49773  16.294  39.781   7.006
 3787POPC   C4B49774  16.129  40.180   7.109
 3788POPC   NC349775  26.886  34.321   5.324
 3788POPC   PO449776  26.531  33.849   5.443
 3788POPC   GL149777  26.843  33.693   5.779
 3788POPC   GL249778  26.744  33.921   6.048
 3788POPC   C1A49779  27.055  33.594   6.223
 3788POPC   D2A49780  26.840  33.801   6.610
 3788POPC   C3A49781  27.051  33.899   7.050
 3788POPC   C4A49782  27.001  33.973   7.534
 3788POPC   C1B49783  26.372  33.900   6.313
 3788POPC   C2B49784  26.189  34.159   6.606
 3788POPC   C3B49785  26.488  34.075   6.938
 3788POPC   C4B49786  26.604  33.795   7.301
 3789POPC   NC349787  29.528  28.545   5.370
 3789POPC   PO449788  28.991  28.104   5.283
 3789POPC   GL149789  29.139  28.233   5.733
 3789POPC   GL249790  29.400  28.481   5.838
 3789POPC   C1A49791  29.074  28.315   6.183
 3789POPC   D2A49792  28.904  28.594   6.479
 3789POPC   C3A49793  29.046  28.453   6.855
 3789POPC   C4A49794  28.884  28.582   7.242
 3789POPC   C1B49795  29.517  28.756   6.154
 3789POPC   C2B49796  29.381  28.762   6.550
 3789POPC   C3B49797  29.542  28.665   6.898
 3789POPC   C4B49798  29.392  28.665   7.284
 3790POPC   NC349799  41.753  36.331   5.440
 3790POPC   PO449800  41.146  36.192   5.606
 3790POPC   GL149801  41.485  36.045   5.896
 3790POPC   GL249802  41.792  35.900   5.730
 3790POPC   C1A49803  41.537  35.995   6.357
 3790POPC   D2A49804  41.666  36.319   6.667
 3790POPC   C3A49805  41.444  36.311   6.973
 3790POPC   C4A49806  41.410  36.003   7.204
 3790POPC   C1B49807  41.983  35.947   6.127
 3790POPC   C2B49808  42.038  36.015   6.535
 3790POPC   C3B49809  41.842  35.886   6.922
 3790POPC   C4B49810  41.869  35.822   7.373
 3791POPC   NC349811   7.863  41.124   4.854
 3791POPC   PO449812   8.210  41.251   5.336
 3791POPC   GL149813   8.272  41.391   5.832
 3791POPC   GL249814   8.367  41.743   5.883
 3791POPC   C1A49815   8.408  41.392   6.321
 3791POPC   D2A49816   8.419  41.268   6.799
 3791POPC   C3A49817   8.138  41.480   7.115
 3791POPC   C4A49818   7.950  41.463   7.548
 3791POPC   C1B49819   8.230  41.881   6.308
 3791POPC   C2B49820   8.373  41.771   6.729
 3791POPC   C3B49821   8.633  41.659   7.088
 3791POPC   C4B49822   8.726  41.900   7.453
 3792POPC   NC349823  41.341  44.600   5.476
 3792POPC   PO449824  41.912  44.796   5.320
 3792POPC   GL149825  41.721  44.875   5.771
 3792POPC   GL249826  41.393   0.019   5.927
 3792POPC   C1A49827  41.608  44.626   6.166
 3792POPC   D2A49828  41.819  44.687   6.572
 3792POPC   C3A49829  41.656  44.422   6.894
 3792POPC   C4A49830  41.882  44.274   7.198
 3792POPC   C1B49831  41.449   0.056   6.397
 3792POPC   C2B49832  41.351  44.800   6.743
 3792POPC   C3B49833  41.526  44.858   7.168
 3792POPC   C4B49834  41.287  44.847   7.545
 3793POPC   NC349835   4.636  13.841   5.420
 3793POPC   PO449836   3.948  13.739   5.297
 3793POPC   GL149837   3.972  13.598   5.725
 3793POPC   GL249838   4.289  13.766   5.832
 3793POPC   C1A49839   3.938  13.644   6.203
 3793POPC   D2A49840   4.208  13.690   6.579
 3793POPC   C3A49841   4.103  13.419   6.921
 3793POPC   C4A49842   4.142  13.471   7.347
 3793POPC   C1B49843   4.381  14.017   6.213
 3793POPC   C2B49844   4.532  14.102   6.630
 3793POPC   C3B49845   4.521  13.820   6.990
 3793POPC   C4B49846   4.597  13.382   7.074
 3794POPC   NC349847   8.687  30.521   5.361
 3794POPC   PO449848   9.239  30.840   5.277
 3794POPC   GL149849   9.048  30.801   5.736
 3794POPC   GL249850   8.748  30.574   5.861
 3794POPC   C1A49851   8.976  30.850   6.204
 3794POPC   D2A49852   9.049  30.599   6.563
 3794POPC   C3A49853   8.859  30.712   6.952
 3794POPC   C4A49854   8.926  30.713   7.348
 3794POPC   C1B49855   8.662  30.415   6.299
 3794POPC   C2B49856   8.662  30.290   6.769
 3794POPC   C3B49857   8.574  30.366   7.240
 3794POPC   C4B49858   8.648  30.509   7.721
 3795POPC   NC349859  30.125  31.721   5.253
 3795POPC   PO449860  29.773  32.359   5.301
 3795POPC   GL149861  29.871  32.280   5.758
 3795POPC   GL249862  29.791  32.595   5.875
 3795POPC   C1A49863  30.088  32.320   6.210
 3795POPC   D2A49864  30.123  32.409   6.691
 3795POPC   C3A49865  30.141  32.046   6.953
 3795POPC   C4A49866  29.780  31.978   7.206
 3795POPC   C1B49867  29.623  32.520   6.304
 3795POPC   C2B49868  29.495  32.718   6.665
 3795POPC   C3B49869  29.631  32.505   7.020
 3795POPC   C4B49870  30.025  32.467   7.244
 3796POPC   NC349871  31.754  13.938   5.560
 3796POPC   PO449872  31.347  13.505   5.184
 3796POPC   GL149873  31.245  13.612   5.666
 3796POPC   GL249874  31.319  13.915   5.857
 3796POPC   C1A49875  31.103  13.511   6.089
 3796POPC   D2A49876  31.117  13.757   6.485
 3796POPC   C3A49877  31.083  13.586   6.920
 3796POPC   C4A49878  31.352  13.631   7.273
 3796POPC   C1B49879  31.565  13.957   6.274
 3796POPC   C2B49880  31.810  13.998   6.687
 3796POPC   C3B49881  31.804  13.830   7.098
 3796POPC   C4B49882  31.602  14.020   7.460
 3797POPC   NC349883  43.726   2.176   5.503
 3797POPC   PO449884  43.648   1.490   5.421
 3797POPC   GL149885  43.629   1.746   5.813
 3797POPC   GL249886  43.948   1.804   5.828
 3797POPC   C1A49887  43.681   1.928   6.265
 3797POPC   D2A49888  43.622   2.188   6.632
 3797POPC   C3A49889  43.723   2.002   7.048
 3797POPC   C4A49890  43.858   2.082   7.507
 3797POPC   C1B49891  44.183   1.838   6.221
 3797POPC   C2B49892  44.107   1.935   6.666
 3797POPC   C3B49893  44.284   2.122   7.043
 3797POPC   C4B49894  44.270   1.843   7.392
 3798POPC   NC349895  20.630  11.743   5.485
 3798POPC   PO449896  20.508  11.036   5.546
 3798POPC   GL149897  20.740  11.225   5.855
 3798POPC   GL249898  20.580  11.546   5.948
 3798POPC   C1A49899  20.810  10.980   6.220
 3798POPC   D2A49900  20.556  11.011   6.585
 3798POPC   C3A49901  20.795  11.081   6.937
 3798POPC   C4A49902  20.503  11.197   7.212
 3798POPC   C1B49903  20.788  11.483   6.319
 3798POPC   C2B49904  20.734  11.558   6.734
 3798POPC   C3B49905  20.712  11.669   7.141
 3798POPC   C4B49906  20.909  11.416   7.409
 3799POPC   NC349907  26.211   1.370   5.470
 3799POPC   PO449908  26.041   0.770   5.441
 3799POPC   GL149909  25.975   1.060   5.798
 3799POPC   GL249910  26.322   0.946   5.836
 3799POPC   C1A49911  25.930   1.367   6.169
 3799POPC   D2A49912  26.059   1.342   6.632
 3799POPC   C3A49913  25.841   1.217   7.005
 3799POPC   C4A49914  25.708   1.472   7.344
 3799POPC   C1B49915  26.184   0.934   6.272
 3799POPC   C2B49916  26.189   0.835   6.705
 3799POPC   C3B49917  26.309   0.960   7.112
 3799POPC   C4B49918  26.342   0.817   7.536
 3800POPC   NC349919  21.042  27.538   5.347
 3800POPC   PO449920  21.486  27.998   5.614
 3800POPC   GL149921  21.591  27.640   5.898
 3800POPC   GL249922  21.296  27.433   5.801
 3800POPC   C1A49923  21.595  27.569   6.380
 3800POPC   D2A49924  21.714  27.455   6.831
 3800POPC   C3A49925  21.473  27.757   7.109
 3800POPC   C4A49926  21.067  28.000   7.143
 3800POPC   C1B49927  21.068  27.396   6.200
 3800POPC   C2B49928  21.155  27.237   6.623
 3800POPC   C3B49929  21.277  27.259   7.057
 3800POPC   C4B49930  21.105  27.061   7.468
 3801POPC   NC349931  39.336  14.180   5.634
 3801POPC   PO449932  39.158  14.782   5.294
 3801POPC   GL149933  39.009  14.651   5.748
 3801POPC   GL249934  38.904  14.280   5.854
 3801POPC   C1A49935  39.059  14.548   6.247
 3801POPC   D2A49936  39.076  14.369   6.675
 3801POPC   C3A49937  39.252  14.659   7.011
 3801POPC   C4A49938  39.609  14.633   7.283
 3801POPC   C1B49939  38.645  14.096   6.199
 3801POPC   C2B49940  38.632  14.047   6.653
 3801POPC   C3B49941  38.827  14.090   7.042
 3801POPC   C4B49942  39.205  14.184   7.214
 3802POPC   NC349943  43.677  33.847   5.546
 3802POPC   PO449944  44.029  33.332   5.365
 3802POPC   GL149945  44.162  33.569   5.742
 3802POPC   GL249946  44.065  33.908   5.871
 3802POPC   C1A49947  44.023  33.490   6.178
 3802POPC   D2A49948  43.753  33.549   6.557
 3802POPC   C3A49949  44.013  33.526   6.896
 3802POPC   C4A49950  44.129  33.715   7.276
 3802POPC   C1B49951  43.965  33.987   6.319
 3802POPC   C2B49952  43.879  34.024   6.755
 3802POPC   C3B49953  43.693  34.188   7.110
 3802POPC   C4B49954  43.926  34.196   7.434
 3803POPC   NC349955  30.816  18.516   5.251
 3803POPC   PO449956  30.650  17.971   5.031
 3803POPC   GL149957  30.560  18.122   5.519
 3803POPC   GL249958  30.582  18.482   5.698
 3803POPC   C1A49959  30.566  18.115   6.021
 3803POPC   D2A49960  30.649  18.209   6.459
 3803POPC   C3A49961  30.584  18.192   6.928
 3803POPC   C4A49962  30.800  18.037   7.294
 3803POPC   C1B49963  30.559  18.631   6.132
 3803POPC   C2B49964  30.420  18.659   6.569
 3803POPC   C3B49965  30.499  18.780   6.988
 3803POPC   C4B49966  30.568  18.504   7.359
 3804POPC   NC349967  43.020  45.000   5.571
 3804POPC   PO449968  43.349   0.550   5.256
 3804POPC   GL149969  43.144   0.504   5.664
 3804POPC   GL249970  42.862   0.751   5.645
 3804POPC   C1A49971  43.202   0.328   6.122
 3804POPC   D2A49972  43.072   0.152   6.537
 3804POPC   C3A49973  43.148   0.411   6.895
 3804POPC   C4A49974  43.125   0.142   7.241
 3804POPC   C1B49975  43.039   0.830   6.063
 3804POPC   C2B49976  42.938   0.908   6.496
 3804POPC   C3B49977  42.744   0.771   6.896
 3804POPC   C4B49978  42.836   0.560   7.287
 3805POPC   NC349979   1.290  31.997   5.602
 3805POPC   PO449980   1.469  32.667   5.603
 3805POPC   GL149981   1.288  32.411   5.896
 3805POPC   GL249982   1.045  32.176   6.005
 3805POPC   C1A49983   1.396  32.448   6.289
 3805POPC   D2A49984   1.515  32.212   6.609
 3805POPC   C3A49985   1.316  32.296   6.944
 3805POPC   C4A49986   1.469  32.315   7.323
 3805POPC   C1B49987   1.212  31.884   6.284
 3805POPC   C2B49988   0.926  31.791   6.584
 3805POPC   C3B49989   0.804  32.008   6.930
 3805POPC   C4B49990   0.983  32.136   7.309
 3806POPC   NC349991   0.115  18.858   5.111
 3806POPC   PO449992   0.289  19.172   5.642
 3806POPC   GL149993   0.321  19.065   5.989
 3806POPC   GL249994   0.650  18.965   6.100
 3806POPC   C1A49995   0.144  19.223   6.350
 3806POPC   D2A49996   0.148  19.113   6.737
 3806POPC   C3A49997   0.197  19.451   7.013
 3806POPC   C4A49998   0.438  19.238   7.246
 3806POPC   C1B49999   0.444  18.801   6.401
 3806POPC   C2B50000   0.471  18.719   6.769
 3806POPC   C3B50001   0.362  18.748   7.148
 3806POPC   C4B50002   0.589  18.807   7.514
 3807POPC   NC350003  26.714  43.905   5.459
 3807POPC   PO450004  27.362  43.850   5.308
 3807POPC   GL150005  27.183  43.931   5.734
 3807POPC   GL250006  26.875  43.794   5.913
 3807POPC   C1A50007  27.185  44.062   6.180
 3807POPC   D2A50008  26.825  43.931   6.433
 3807POPC   C3A50009  26.870  43.982   6.861
 3807POPC   C4A50010  26.982  43.694   7.184
 3807POPC   C1B50011  26.520  43.624   6.100
 3807POPC   C2B50012  26.342  43.728   6.482
 3807POPC   C3B50013  26.411  43.634   6.902
 3807POPC   C4B50014  26.521  43.926   7.227
 3808POPC   NC350015  29.490  30.953   5.331
 3808POPC   PO450016  30.138  30.795   5.427
 3808POPC   GL150017  29.784  30.776   5.713
 3808POPC   GL250018  29.761  31.112   5.788
 3808POPC   C1A50019  29.663  30.738   6.155
 3808POPC   D2A50020  29.783  30.953   6.542
 3808POPC   C3A50021  29.705  30.769   6.943
 3808POPC   C4A50022  29.546  30.431   7.178
 3808POPC   C1B50023  30.106  30.962   6.080
 3808POPC   C2B50024  30.296  30.851   6.464
 3808POPC   C3B50025  30.233  30.817   6.926
 3808POPC   C4B50026  30.000  30.995   7.289
 3809POPC   NC350027  14.258   9.413   5.057
 3809POPC   PO450028  14.384   9.819   5.584
 3809POPC   GL150029  14.376   9.692   5.950
 3809POPC   GL250030  14.246   9.355   5.856
 3809POPC   C1A50031  14.690   9.593   6.241
 3809POPC   D2A50032  14.722   9.360   6.592
 3809POPC   C3A50033  14.451   9.614   6.812
 3809POPC   C4A50034  14.585   9.818   7.162
 3809POPC   C1B50035  14.142   9.413   6.295
 3809POPC   C2B50036  13.921   9.474   6.660
 3809POPC   C3B50037  14.065   9.302   7.026
 3809POPC   C4B50038  14.217   9.543   7.361
 3810POPC   NC350039  29.394   8.310   5.311
 3810POPC   PO450040  30.007   8.125   5.048
 3810POPC   GL150041  29.953   8.095   5.574
 3810POPC   GL250042  29.613   8.098   5.738
 3810POPC   C1A50043  30.054   8.247   6.036
 3810POPC   D2A50044  30.211   8.502   6.426
 3810POPC   C3A50045  29.892   8.612   6.757
 3810POPC   C4A50046  29.696   8.376   7.081
 3810POPC   C1B50047  29.602   7.981   6.187
 3810POPC   C2B50048  29.841   8.118   6.548
 3810POPC   C3B50049  30.231   8.115   6.786
 3810POPC   C4B50050  30.119   8.127   7.211
 3811POPC   NC350051  25.835  27.658   5.663
 3811POPC   PO450052  25.338  27.350   5.309
 3811POPC   GL150053  25.170  27.421   5.765
 3811POPC   GL250054  25.420  27.558   5.933
 3811POPC   C1A50055  25.015  27.502   6.234
 3811POPC   D2A50056  24.994  27.281   6.615
 3811POPC   C3A50057  25.084  27.479   7.024
 3811POPC   C4A50058  24.754  27.517   7.343
 3811POPC   C1B50059  25.381  27.879   6.226
 3811POPC   C2B50060  25.363  27.707   6.632
 3811POPC   C3B50061  25.549  27.778   7.021
 3811POPC   C4B50062  25.526  27.511   7.355
 3812POPC   NC350063   2.496  36.548   5.404
 3812POPC   PO450064   2.898  37.093   5.240
 3812POPC   GL150065   2.753  36.911   5.654
 3812POPC   GL250066   2.941  36.648   5.811
 3812POPC   C1A50067   2.438  36.840   6.006
 3812POPC   D2A50068   2.402  36.928   6.445
 3812POPC   C3A50069   2.532  36.722   6.831
 3812POPC   C4A50070   2.647  36.748   7.249
 3812POPC   C1B50071   2.872  36.701   6.258
 3812POPC   C2B50072   2.944  36.973   6.602
 3812POPC   C3B50073   3.081  36.865   6.997
 3812POPC   C4B50074   3.226  36.666   7.361
 3813POPC   NC350075   5.470  24.485   5.385
 3813POPC   PO450076   6.099  24.103   5.225
 3813POPC   GL150077   5.932  24.328   5.627
 3813POPC   GL250078   5.615  24.237   5.797
 3813POPC   C1A50079   5.967  24.473   6.106
 3813POPC   D2A50080   6.197  24.326   6.507
 3813POPC   C3A50081   6.037  24.368   6.921
 3813POPC   C4A50082   5.904  24.683   7.191
 3813POPC   C1B50083   5.525  24.206   6.230
 3813POPC   C2B50084   5.619  24.445   6.630
 3813POPC   C3B50085   5.555  24.310   7.068
 3813POPC   C4B50086   5.640  24.385   7.534
 3814POPC   NC350087  33.632  18.773   5.126
 3814POPC   PO450088  33.985  19.366   5.244
 3814POPC   GL150089  33.817  19.098   5.617
 3814POPC   GL250090  33.651  19.338   5.853
 3814POPC   C1A50091  33.820  18.895   6.051
 3814POPC   D2A50092  33.854  19.100   6.463
 3814POPC   C3A50093  33.695  18.915   6.843
 3814POPC   C4A50094  33.501  19.068   7.187
 3814POPC   C1B50095  34.068  19.367   6.028
 3814POPC   C2B50096  34.309  19.420   6.399
 3814POPC   C3B50097  34.283  19.327   6.807
 3814POPC   C4B50098  34.007  19.228   7.146
 3815POPC   NC350099   1.784  28.392   5.231
 3815POPC   PO450100   2.409  28.302   5.265
 3815POPC   GL150101   2.091  28.237   5.631
 3815POPC   GL250102   1.788  28.011   5.622
 3815POPC   C1A50103   1.993  28.396   6.077
 3815POPC   D2A50104   2.105  28.527   6.504
 3815POPC   C3A50105   1.886  28.375   6.875
 3815POPC   C4A50106   2.062  28.402   7.288
 3815POPC   C1B50107   1.890  27.906   6.061
 3815POPC   C2B50108   1.822  28.013   6.497
 3815POPC   C3B50109   1.620  27.942   6.893
 3815POPC   C4B50110   1.596  28.158   7.314
 3816POPC   NC350111  27.863  20.196   5.471
 3816POPC   PO450112  27.415  19.656   5.349
 3816POPC   GL150113  27.606  19.816   5.692
 3816POPC   GL250114  27.889  19.606   5.611
 3816POPC   C1A50115  27.529  19.967   6.106
 3816POPC   D2A50116  27.489  19.800   6.531
 3816POPC   C3A50117  27.533  20.028   6.902
 3816POPC   C4A50118  27.268  19.944   7.257
 3816POPC   C1B50119  27.797  19.541   6.084
 3816POPC   C2B50120  27.982  19.740   6.439
 3816POPC   C3B50121  27.922  19.678   6.881
 3816POPC   C4B50122  27.843  19.878   7.276
 3817POPC   NC350123  11.074   2.122   5.401
 3817POPC   PO450124  11.552   1.621   5.377
 3817POPC   GL150125  11.306   1.817   5.793
 3817POPC   GL250126  11.254   2.173   5.866
 3817POPC   C1A50127  11.057   1.837   6.213
 3817POPC   D2A50128  11.125   1.702   6.660
 3817POPC   C3A50129  11.501   1.826   6.876
 3817POPC   C4A50130  11.294   1.878   7.219
 3817POPC   C1B50131  11.442   2.195   6.221
 3817POPC   C2B50132  11.239   2.177   6.585
 3817POPC   C3B50133  11.132   2.288   6.972
 3817POPC   C4B50134  11.553   2.301   7.151
 3818POPC   NC350135  11.197  24.312   5.359
 3818POPC   PO450136  11.420  24.908   5.165
 3818POPC   GL150137  11.415  24.708   5.642
 3818POPC   GL250138  11.132  24.473   5.835
 3818POPC   C1A50139  11.400  24.779   6.133
 3818POPC   D2A50140  11.151  24.549   6.499
 3818POPC   C3A50141  11.322  24.643   6.932
 3818POPC   C4A50142  11.593  24.970   7.100
 3818POPC   C1B50143  11.468  24.260   6.066
 3818POPC   C2B50144  11.525  24.206   6.524
 3818POPC   C3B50145  11.306  24.136   6.905
 3818POPC   C4B50146  11.493  24.210   7.324
 3819POPC   NC350147   3.337  13.374   5.353
 3819POPC   PO450148   3.514  13.967   5.544
 3819POPC   GL150149   3.476  13.657   5.880
 3819POPC   GL250150   3.301  13.343   5.864
 3819POPC   C1A50151   3.372  13.651   6.330
 3819POPC   D2A50152   3.679  13.577   6.670
 3819POPC   C3A50153   3.683  13.678   7.129
 3819POPC   C4A50154   3.773  13.802   7.543
 3819POPC   C1B50155   3.513  13.166   6.235
 3819POPC   C2B50156   3.383  13.150   6.672
 3819POPC   C3B50157   3.269  13.400   7.008
 3819POPC   C4B50158   3.350  13.427   7.468
 3820POPC   NC350159  28.192  42.198   4.995
 3820POPC   PO450160  28.283  42.571   5.540
 3820POPC   GL150161  28.262  42.288   5.814
 3820POPC   GL250162  28.578  42.374   5.900
 3820POPC   C1A50163  28.111  42.297   6.220
 3820POPC   D2A50164  28.289  42.302   6.615
 3820POPC   C3A50165  28.047  42.085   6.888
 3820POPC   C4A50166  28.188  42.180   7.275
 3820POPC   C1B50167  28.598  42.106   6.219
 3820POPC   C2B50168  28.753  42.085   6.609
 3820POPC   C3B50169  28.647  42.196   7.022
 3820POPC   C4B50170  28.746  41.899   7.329
 3821POPC   NC350171  31.856  13.121   5.588
 3821POPC   PO450172  31.256  12.661   5.432
 3821POPC   GL150173  31.525  12.778   5.792
 3821POPC   GL250174  31.543  13.117   5.975
 3821POPC   C1A50175  31.613  12.697   6.235
 3821POPC   D2A50176  31.481  12.936   6.601
 3821POPC   C3A50177  31.397  12.729   7.021
 3821POPC   C4A50178  31.187  12.742   7.458
 3821POPC   C1B50179  31.535  13.397   6.334
 3821POPC   C2B50180  31.548  13.567   6.706
 3821POPC   C3B50181  31.506  13.267   6.978
 3821POPC   C4B50182  31.580  13.085   7.329
 3822POPC   NC350183  15.709  34.158   5.489
 3822POPC   PO450184  15.211  33.773   5.328
 3822POPC   GL150185  15.133  33.924   5.712
 3822POPC   GL250186  15.420  33.873   5.821
 3822POPC   C1A50187  14.999  34.068   6.088
 3822POPC   D2A50188  15.167  34.084   6.482
 3822POPC   C3A50189  14.987  33.785   6.746
 3822POPC   C4A50190  14.971  33.801   7.179
 3822POPC   C1B50191  15.284  33.666   6.207
 3822POPC   C2B50192  15.449  33.536   6.600
 3822POPC   C3B50193  15.301  33.445   7.022
 3822POPC   C4B50194  15.249  33.517   7.494
 3823POPC   NC350195  16.410  26.362   5.263
 3823POPC   PO450196  15.971  25.795   5.375
 3823POPC   GL150197  15.903  25.726   5.844
 3823POPC   GL250198  15.565  25.548   5.874
 3823POPC   C1A50199  16.147  25.832   6.286
 3823POPC   D2A50200  16.232  25.792   6.771
 3823POPC   C3A50201  16.204  26.175   7.029
 3823POPC   C4A50202  15.791  26.395   7.076
 3823POPC   C1B50203  15.667  25.668   6.309
 3823POPC   C2B50204  15.747  25.959   6.670
 3823POPC   C3B50205  15.791  25.862   7.108
 3823POPC   C4B50206  15.843  25.677   7.496
 3824POPC   NC350207  23.882  30.165   5.487
 3824POPC   PO450208  23.802  29.446   5.473
 3824POPC   GL150209  23.717  29.761   5.822
 3824POPC   GL250210  23.614  30.147   5.901
 3824POPC   C1A50211  23.444  29.754   6.188
 3824POPC   D2A50212  23.228  29.728   6.562
 3824POPC   C3A50213  23.414  29.729   6.965
 3824POPC   C4A50214  23.729  29.546   7.208
 3824POPC   C1B50215  23.615  30.255   6.310
 3824POPC   C2B50216  23.704  29.952   6.578
 3824POPC   C3B50217  23.901  29.960   6.910
 3824POPC   C4B50218  23.780  30.080   7.276
 3825POPC   NC350219  24.821  11.566   5.217
 3825POPC   PO450220  24.405  12.077   5.335
 3825POPC   GL150221  24.478  12.167   5.740
 3825POPC   GL250222  24.834  12.169   5.675
 3825POPC   C1A50223  24.300  12.093   6.145
 3825POPC   D2A50224  24.473  12.033   6.549
 3825POPC   C3A50225  24.222  11.917   6.896
 3825POPC   C4A50226  24.499  12.041   7.191
 3825POPC   C1B50227  24.770  12.333   6.117
 3825POPC   C2B50228  24.678  12.559   6.508
 3825POPC   C3B50229  24.683  12.476   6.933
 3825POPC   C4B50230  24.643  12.564   7.334
 3826POPC   NC350231  38.999   8.868   5.448
 3826POPC   PO450232  39.598   9.154   5.469
 3826POPC   GL150233  39.353   8.953   5.810
 3826POPC   GL250234  39.069   9.158   5.878
 3826POPC   C1A50235  39.250   8.726   6.192
 3826POPC   D2A50236  39.354   8.455   6.538
 3826POPC   C3A50237  39.227   8.668   6.896
 3826POPC   C4A50238  39.338   8.740   7.304
 3826POPC   C1B50239  39.178   9.257   6.262
 3826POPC   C2B50240  39.115   9.104   6.651
 3826POPC   C3B50241  39.305   9.186   7.031
 3826POPC   C4B50242  39.100   9.183   7.426
 3827POPC   NC350243   6.862  36.299   5.261
 3827POPC   PO450244   6.365  36.726   5.295
 3827POPC   GL150245   6.547  36.305   5.670
 3827POPC   GL250246   6.925  36.201   5.749
 3827POPC   C1A50247   6.591  36.147   6.102
 3827POPC   D2A50248   6.574  35.953   6.513
 3827POPC   C3A50249   6.657  36.180   6.914
 3827POPC   C4A50250   6.496  35.984   7.282
 3827POPC   C1B50251   7.031  36.476   6.162
 3827POPC   C2B50252   6.976  36.624   6.612
 3827POPC   C3B50253   7.111  36.458   7.017
 3827POPC   C4B50254   6.931  36.283   7.372
 3828POPC   NC350255  19.659  43.245   5.530
 3828POPC   PO450256  20.279  43.068   5.384
 3828POPC   GL150257  20.056  43.109   5.829
 3828POPC   GL250258  19.804  42.892   5.883
 3828POPC   C1A50259  20.013  43.334   6.238
 3828POPC   D2A50260  20.261  43.416   6.637
 3828POPC   C3A50261  20.120  43.266   7.064
 3828POPC   C4A50262  19.709  43.195   7.278
 3828POPC   C1B50263  19.565  42.997   6.207
 3828POPC   C2B50264  19.383  42.841   6.589
 3828POPC   C3B50265  19.434  42.720   6.993
 3828POPC   C4B50266  19.560  42.686   7.417
 3829POPC   NC350267  12.659   9.446   5.410
 3829POPC   PO450268  12.855   8.860   5.414
 3829POPC   GL150269  12.635   9.029   5.730
 3829POPC   GL250270  12.931   9.217   5.807
 3829POPC   C1A50271  12.645   8.965   6.171
 3829POPC   D2A50272  12.900   9.094   6.529
 3829POPC   C3A50273  12.734   8.946   6.885
 3829POPC   C4A50274  12.768   9.066   7.263
 3829POPC   C1B50275  13.165   8.925   6.104
 3829POPC   C2B50276  13.267   8.714   6.490
 3829POPC   C3B50277  13.273   8.877   6.906
 3829POPC   C4B50278  13.171   8.773   7.334
 3830POPC   NC350279  40.981  27.054   5.098
 3830POPC   PO450280  41.525  26.757   5.399
 3830POPC   GL150281  41.548  26.769   5.807
 3830POPC   GL250282  41.233  26.586   5.782
 3830POPC   C1A50283  41.744  26.954   6.179
 3830POPC   D2A50284  41.898  26.803   6.597
 3830POPC   C3A50285  41.750  27.036   6.947
 3830POPC   C4A50286  41.858  27.053   7.379
 3830POPC   C1B50287  41.213  26.698   6.195
 3830POPC   C2B50288  41.388  26.861   6.542
 3830POPC   C3B50289  41.441  26.607   6.867
 3830POPC   C4B50290  41.475  26.745   7.265
 3831POPC   NC350291   5.340  27.937   5.484
 3831POPC   PO450292   4.890  27.367   5.648
 3831POPC   GL150293   5.281  27.438   5.863
 3831POPC   GL250294   5.258  27.785   5.964
 3831POPC   C1A50295   5.296  27.416   6.318
 3831POPC   D2A50296   5.384  27.560   6.718
 3831POPC   C3A50297   5.082  27.404   7.010
 3831POPC   C4A50298   5.055  27.021   7.255
 3831POPC   C1B50299   4.867  27.674   6.211
 3831POPC   C2B50300   4.914  27.750   6.637
 3831POPC   C3B50301   4.970  27.908   7.022
 3831POPC   C4B50302   5.345  27.856   7.242
 3832POPC   NC350303   1.457   6.453   5.442
 3832POPC   PO450304   0.895   6.804   5.376
 3832POPC   GL150305   1.238   6.861   5.687
 3832POPC   GL250306   1.130   6.564   5.816
 3832POPC   C1A50307   1.416   6.809   6.148
 3832POPC   D2A50308   1.589   6.738   6.586
 3832POPC   C3A50309   1.314   6.675   6.995
 3832POPC   C4A50310   1.321   6.652   7.474
 3832POPC   C1B50311   0.929   6.609   6.223
 3832POPC   C2B50312   0.937   6.789   6.613
 3832POPC   C3B50313   0.919   7.026   6.973
 3832POPC   C4B50314   0.845   6.767   7.334
 3833POPC   NC350315   7.494  29.332   5.256
 3833POPC   PO450316   7.118  28.803   5.444
 3833POPC   GL150317   7.267  28.943   5.830
 3833POPC   GL250318   7.375  29.265   5.751
 3833POPC   C1A50319   7.403  28.912   6.246
 3833POPC   D2A50320   7.528  29.140   6.608
 3833POPC   C3A50321   7.547  28.847   6.918
 3833POPC   C4A50322   7.303  28.845   7.279
 3833POPC   C1B50323   7.420  29.418   6.166
 3833POPC   C2B50324   7.661  29.627   6.469
 3833POPC   C3B50325   7.782  29.590   6.894
 3833POPC   C4B50326   7.571  29.311   7.184
 3834POPC   NC350327   3.168  25.277   5.367
 3834POPC   PO450328   2.545  25.435   5.170
 3834POPC   GL150329   2.709  25.378   5.651
 3834POPC   GL250330   2.937  25.151   5.822
 3834POPC   C1A50331   2.603  25.319   6.140
 3834POPC   D2A50332   2.886  25.133   6.476
 3834POPC   C3A50333   2.720  25.021   6.894
 3834POPC   C4A50334   2.522  25.326   7.172
 3834POPC   C1B50335   3.107  25.485   6.123
 3834POPC   C2B50336   3.231  25.524   6.573
 3834POPC   C3B50337   2.996  25.453   6.959
 3834POPC   C4B50338   2.991  25.169   7.334
 3835POPC   NC350339  29.000  34.999   5.236
 3835POPC   PO450340  29.429  35.431   5.501
 3835POPC   GL150341  29.236  35.356   5.897
 3835POPC   GL250342  28.894  35.454   5.868
 3835POPC   C1A50343  29.289  35.507   6.338
 3835POPC   D2A50344  29.468  35.632   6.736
 3835POPC   C3A50345  29.315  35.431   7.077
 3835POPC   C4A50346  29.105  35.074   7.056
 3835POPC   C1B50347  28.853  35.211   6.249
 3835POPC   C2B50348  28.776  35.093   6.680
 3835POPC   C3B50349  28.611  35.023   7.113
 3835POPC   C4B50350  28.680  35.380   7.367
 3836POPC   NC350351  43.506  29.053   5.613
 3836POPC   PO450352  42.774  29.068   5.505
 3836POPC   GL150353  43.048  29.049   5.853
 3836POPC   GL250354  43.109  28.695   5.913
 3836POPC   C1A50355  43.047  29.276   6.247
 3836POPC   D2A50356  42.904  29.102   6.651
 3836POPC   C3A50357  42.855  29.427   6.933
 3836POPC   C4A50358  43.049  29.564   7.294
 3836POPC   C1B50359  43.209  28.788   6.353
 3836POPC   C2B50360  43.456  29.122   6.536
 3836POPC   C3B50361  43.369  29.375   6.885
 3836POPC   C4B50362  43.316  29.125   7.254
 3837POPC   NC350363  43.845  34.764   5.447
 3837POPC   PO450364  43.508  34.186   5.284
 3837POPC   GL150365  43.753  34.322   5.691
 3837POPC   GL250366  43.596  34.139   5.956
 3837POPC   C1A50367  44.006  34.435   6.083
 3837POPC   D2A50368  43.940  34.668   6.471
 3837POPC   C3A50369  43.962  34.534   6.870
 3837POPC   C4A50370  43.953  34.670   7.272
 3837POPC   C1B50371  43.519  34.458   6.239
 3837POPC   C2B50372  43.504  34.407   6.678
 3837POPC   C3B50373  43.434  34.625   7.047
 3837POPC   C4B50374  43.495  34.581   7.478
 3838POPC   NC350375  16.645  27.100   5.459
 3838POPC   PO450376  16.862  26.509   5.472
 3838POPC   GL150377  16.745  26.742   5.831
 3838POPC   GL250378  17.058  26.900   5.887
 3838POPC   C1A50379  16.759  26.693   6.279
 3838POPC   D2A50380  16.548  26.660   6.634
 3838POPC   C3A50381  16.650  26.965   6.920
 3838POPC   C4A50382  16.873  27.065   7.277
 3838POPC   C1B50383  17.181  26.489   6.107
 3838POPC   C2B50384  17.194  26.460   6.558
 3838POPC   C3B50385  17.080  26.648   6.951
 3838POPC   C4B50386  17.092  26.634   7.390
 3839POPC   NC350387  17.964  21.682   5.476
 3839POPC   PO450388  17.448  21.278   5.353
 3839POPC   GL150389  17.463  21.477   5.741
 3839POPC   GL250390  17.780  21.338   5.830
 3839POPC   C1A50391  17.213  21.586   6.134
 3839POPC   D2A50392  17.096  21.332   6.493
 3839POPC   C3A50393  17.232  21.527   6.868
 3839POPC   C4A50394  17.458  21.360   7.207
 3839POPC   C1B50395  17.709  21.738   6.093
 3839POPC   C2B50396  17.551  21.734   6.510
 3839POPC   C3B50397  17.772  21.621   6.872
 3839POPC   C4B50398  17.825  21.711   7.320
 3840POPC   NC350399  18.180   7.549   5.337
 3840POPC   PO450400  18.741   7.822   5.705
 3840POPC   GL150401  18.519   7.511   5.943
 3840POPC   GL250402  18.213   7.501   5.846
 3840POPC   C1A50403  18.388   7.441   6.388
 3840POPC   D2A50404  18.315   7.218   6.772
 3840POPC   C3A50405  18.443   7.431   7.134
 3840POPC   C4A50406  18.428   7.537   7.565
 3840POPC   C1B50407  17.940   7.537   6.183
 3840POPC   C2B50408  17.953   7.761   6.550
 3840POPC   C3B50409  17.936   7.563   6.958
 3840POPC   C4B50410  17.981   7.201   7.206
 3841POPC   NC350411   4.515   8.597   5.476
 3841POPC   PO450412   4.559   7.973   5.390
 3841POPC   GL150413   4.319   7.948   5.791
 3841POPC   GL250414   4.248   8.298   5.810
 3841POPC   C1A50415   4.283   8.036   6.251
 3841POPC   D2A50416   4.564   8.119   6.598
 3841POPC   C3A50417   4.389   8.102   7.032
 3841POPC   C4A50418   4.073   7.833   7.246
 3841POPC   C1B50419   4.381   8.520   6.143
 3841POPC   C2B50420   4.303   8.562   6.546
 3841POPC   C3B50421   4.216   8.630   6.952
 3841POPC   C4B50422   4.376   8.570   7.342
 3842POPC   NC350423  21.915  44.882   5.450
 3842POPC   PO450424  22.411  44.382   5.452
 3842POPC   GL150425  22.304  44.683   5.743
 3842POPC   GL250426  22.007  44.505   5.800
 3842POPC   C1A50427  22.426  44.829   6.161
 3842POPC   D2A50428  22.516  44.761   6.593
 3842POPC   C3A50429  22.305  44.577   6.939
 3842POPC   C4A50430  22.023  44.762   7.223
 3842POPC   C1B50431  21.923  44.804   6.108
 3842POPC   C2B50432  21.925  44.780   6.560
 3842POPC   C3B50433  21.837  44.395   6.797
 3842POPC   C4B50434  22.001  44.214   7.177
 3843POPC   NC350435  10.791  29.082   5.466
 3843POPC   PO450436  10.114  29.231   5.222
 3843POPC   GL150437  10.283  29.139   5.629
 3843POPC   GL250438  10.476  29.433   5.690
 3843POPC   C1A50439  10.449  29.016   6.069
 3843POPC   D2A50440  10.267  28.893   6.503
 3843POPC   C3A50441  10.453  29.014   6.915
 3843POPC   C4A50442  10.368  29.305   7.247
 3843POPC   C1B50443  10.683  29.476   6.096
 3843POPC   C2B50444  10.590  29.303   6.507
 3843POPC   C3B50445  10.750  29.451   6.936
 3843POPC   C4B50446  10.866  29.141   7.231
 3844POPC   NC350447   2.254  37.432   5.354
 3844POPC   PO450448   1.633  37.699   5.401
 3844POPC   GL150449   1.957  37.735   5.703
 3844POPC   GL250450   2.040  37.397   5.806
 3844POPC   C1A50451   1.974  37.803   6.157
 3844POPC   D2A50452   1.659  37.799   6.524
 3844POPC   C3A50453   1.691  37.444   6.822
 3844POPC   C4A50454   1.837  37.587   7.209
 3844POPC   C1B50455   2.257  37.366   6.184
 3844POPC   C2B50456   2.135  37.545   6.589
 3844POPC   C3B50457   2.296  37.541   7.022
 3844POPC   C4B50458   2.269  37.510   7.485
 3845POPC   NC350459  44.754  14.078   5.338
 3845POPC   PO450460  44.404  14.531   5.587
 3845POPC   GL150461  44.694  14.307   5.870
 3845POPC   GL250462  44.897  13.997   5.805
 3845POPC   C1A50463  44.697  14.309   6.329
 3845POPC   D2A50464  44.397  14.371   6.677
 3845POPC   C3A50465  44.530  14.430   7.104
 3845POPC   C4A50466  44.940  14.473   7.306
 3845POPC   C1B50467  44.855  13.814   6.182
 3845POPC   C2B50468   0.022  13.960   6.536
 3845POPC   C3B50469  44.908  14.125   6.913
 3845POPC   C4B50470   0.093  13.987   7.286
 3846POPC   NC350471  16.784   9.664   5.227
 3846POPC   PO450472  16.351   9.401   5.685
 3846POPC   GL150473  16.566   9.772   5.786
 3846POPC   GL250474  16.918   9.757   5.728
 3846POPC   C1A50475  16.604   9.692   6.242
 3846POPC   D2A50476  16.329   9.787   6.596
 3846POPC   C3A50477  16.523   9.723   7.025
 3846POPC   C4A50478  16.754   9.533   7.367
 3846POPC   C1B50479  17.031   9.947   6.113
 3846POPC   C2B50480  17.010   9.791   6.565
 3846POPC   C3B50481  17.037   9.847   7.014
 3846POPC   C4B50482  17.272  10.120   7.307
 3847POPC   NC350483  31.357  35.547   5.379
 3847POPC   PO450484  31.790  35.107   5.191
 3847POPC   GL150485  31.751  35.352   5.629
 3847POPC   GL250486  31.463  35.230   5.779
 3847POPC   C1A50487  31.742  35.620   6.038
 3847POPC   D2A50488  31.680  35.399   6.480
 3847POPC   C3A50489  31.544  35.542   6.914
 3847POPC   C4A50490  31.684  35.273   7.264
 3847POPC   C1B50491  31.237  35.523   6.043
 3847POPC   C2B50492  31.181  35.538   6.488
 3847POPC   C3B50493  31.201  35.197   6.796
 3847POPC   C4B50494  31.186  35.285   7.218
 3848POPC   NC350495  39.580  29.358   5.320
 3848POPC   PO450496  39.070  28.941   5.309
 3848POPC   GL150497  39.277  29.102   5.684
 3848POPC   GL250498  39.332  29.449   5.752
 3848POPC   C1A50499  39.413  29.152   6.153
 3848POPC   D2A50500  39.434  29.052   6.596
 3848POPC   C3A50501  39.197  28.855   6.921
 3848POPC   C4A50502  39.368  28.967   7.319
 3848POPC   C1B50503  39.227  29.643   6.183
 3848POPC   C2B50504  39.297  29.592   6.634
 3848POPC   C3B50505  39.415  29.385   7.012
 3848POPC   C4B50506  39.448  29.452   7.484
 3849POPC   NC350507   1.292  22.773   5.485
 3849POPC   PO450508   0.644  23.092   5.398
 3849POPC   GL150509   0.885  22.901   5.767
 3849POPC   GL250510   1.211  23.083   5.887
 3849POPC   C1A50511   0.994  22.702   6.181
 3849POPC   D2A50512   1.002  22.627   6.632
 3849POPC   C3A50513   1.130  22.971   6.936
 3849POPC   C4A50514   1.009  23.032   7.376
 3849POPC   C1B50515   1.493  22.814   6.168
 3849POPC   C2B50516   1.507  22.646   6.612
 3849POPC   C3B50517   1.469  22.592   7.089
 3849POPC   C4B50518   1.436  22.820   7.497
 3850POPC   NC350519   2.866  28.166   5.247
 3850POPC   PO450520   3.079  28.863   5.415
 3850POPC   GL150521   2.850  28.515   5.697
 3850POPC   GL250522   2.874  28.137   5.750
 3850POPC   C1A50523   2.819  28.465   6.179
 3850POPC   D2A50524   2.690  28.510   6.645
 3850POPC   C3A50525   2.925  28.342   7.025
 3850POPC   C4A50526   3.100  28.482   7.413
 3850POPC   C1B50527   2.457  28.188   5.972
 3850POPC   C2B50528   2.327  28.056   6.393
 3850POPC   C3B50529   2.341  28.166   6.845
 3850POPC   C4B50530   2.484  28.130   7.266
 3851POPC   NC350531  42.563  21.305   5.471
 3851POPC   PO450532  41.835  21.362   5.498
 3851POPC   GL150533  42.102  21.229   5.778
 3851POPC   GL250534  42.247  21.559   5.811
 3851POPC   C1A50535  42.127  21.268   6.223
 3851POPC   D2A50536  41.985  21.238   6.621
 3851POPC   C3A50537  42.319  21.177   6.862
 3851POPC   C4A50538  42.293  21.232   7.255
 3851POPC   C1B50539  42.226  21.791   6.216
 3851POPC   C2B50540  42.347  21.672   6.653
 3851POPC   C3B50541  42.244  21.707   7.093
 3851POPC   C4B50542  41.844  21.805   7.197
 3852POPC   NC350543  15.553  16.718   5.249
 3852POPC   PO450544  16.105  17.053   5.273
 3852POPC   GL150545  15.889  17.057   5.681
 3852POPC   GL250546  15.693  16.769   5.749
 3852POPC   C1A50547  15.937  16.948   6.160
 3852POPC   D2A50548  15.813  16.870   6.602
 3852POPC   C3A50549  16.064  16.923   6.982
 3852POPC   C4A50550  16.247  16.573   7.219
 3852POPC   C1B50551  15.577  16.499   6.104
 3852POPC   C2B50552  15.392  16.549   6.520
 3852POPC   C3B50553  15.591  16.522   6.934
 3852POPC   C4B50554  15.361  16.416   7.286
 3853POPC   NC350555  14.221  16.044   5.289
 3853POPC   PO450556  13.499  15.944   5.383
 3853POPC   GL150557  13.413  15.827   5.791
 3853POPC   GL250558  13.738  15.935   5.869
 3853POPC   C1A50559  13.357  16.074   6.173
 3853POPC   D2A50560  13.552  16.037   6.576
 3853POPC   C3A50561  13.317  15.846   6.914
 3853POPC   C4A50562  13.342  15.739   7.344
 3853POPC   C1B50563  13.876  16.241   6.211
 3853POPC   C2B50564  14.044  16.210   6.660
 3853POPC   C3B50565  13.786  16.206   7.006
 3853POPC   C4B50566  13.737  16.066   7.404
 3854POPC   NC350567  20.380  25.367   5.431
 3854POPC   PO450568  20.937  25.009   5.429
 3854POPC   GL150569  20.737  25.160   5.831
 3854POPC   GL250570  20.397  25.021   5.914
 3854POPC   C1A50571  20.746  25.241   6.290
 3854POPC   D2A50572  20.376  25.155   6.566
 3854POPC   C3A50573  20.488  24.967   6.976
 3854POPC   C4A50574  20.777  25.213   7.249
 3854POPC   C1B50575  20.330  25.460   6.104
 3854POPC   C2B50576  20.516  25.684   6.474
 3854POPC   C3B50577  20.557  25.530   6.907
 3854POPC   C4B50578  20.281  25.358   7.217
 3855POPC   NC350579   9.395   5.506   5.340
 3855POPC   PO450580   8.887   4.918   5.278
 3855POPC   GL150581   9.106   5.080   5.665
 3855POPC   GL250582   9.239   4.789   5.794
 3855POPC   C1A50583   9.102   5.149   6.157
 3855POPC   D2A50584   9.114   5.265   6.621
 3855POPC   C3A50585   8.862   5.167   6.990
 3855POPC   C4A50586   8.510   5.055   7.286
 3855POPC   C1B50587   9.411   4.637   6.149
 3855POPC   C2B50588   9.432   4.819   6.552
 3855POPC   C3B50589   9.106   4.720   6.841
 3855POPC   C4B50590   8.901   4.726   7.237
 3856POPC   NC350591  21.733   6.445   5.418
 3856POPC   PO450592  22.232   6.874   5.454
 3856POPC   GL150593  21.986   6.723   5.800
 3856POPC   GL250594  21.777   7.003   5.861
 3856POPC   C1A50595  22.167   6.522   6.198
 3856POPC   D2A50596  22.454   6.768   6.486
 3856POPC   C3A50597  22.408   6.748   6.941
 3856POPC   C4A50598  22.073   6.487   7.114
 3856POPC   C1B50599  21.906   6.937   6.269
 3856POPC   C2B50600  21.945   6.734   6.669
 3856POPC   C3B50601  21.957   6.981   7.041
 3856POPC   C4B50602  21.787   7.063   7.424
 3857POPC   NC350603  22.573  28.863   5.579
 3857POPC   PO450604  22.909  28.291   5.348
 3857POPC   GL150605  22.979  28.229   5.775
 3857POPC   GL250606  23.344  28.294   5.811
 3857POPC   C1A50607  22.760  28.266   6.172
 3857POPC   D2A50608  22.869  28.391   6.580
 3857POPC   C3A50609  22.619  28.491   6.930
 3857POPC   C4A50610  22.737  28.329   7.316
 3857POPC   C1B50611  23.198  28.522   6.192
 3857POPC   C2B50612  23.327  28.631   6.605
 3857POPC   C3B50613  23.175  28.459   7.000
 3857POPC   C4B50614  23.204  28.641   7.395
 3858POPC   NC350615  20.631  16.209   5.487
 3858POPC   PO450616  20.539  15.578   5.479
 3858POPC   GL150617  20.669  15.841   5.844
 3858POPC   GL250618  20.907  16.126   5.935
 3858POPC   C1A50619  20.559  15.967   6.276
 3858POPC   D2A50620  20.436  15.968   6.732
 3858POPC   C3A50621  20.632  15.868   7.114
 3858POPC   C4A50622  20.439  15.875   7.518
 3858POPC   C1B50623  20.990  16.210   6.387
 3858POPC   C2B50624  20.951  16.137   6.814
 3858POPC   C3B50625  21.100  16.062   7.230
 3858POPC   C4B50626  20.934  15.926   7.620
 3859POPC   NC350627   1.403  34.889   5.371
 3859POPC   PO450628   0.937  34.408   5.500
 3859POPC   GL150629   1.180  34.454   5.841
 3859POPC   GL250630   1.198  34.830   5.842
 3859POPC   C1A50631   0.949  34.300   6.180
 3859POPC   D2A50632   0.768  34.504   6.538
 3859POPC   C3A50633   1.025  34.621   6.853
 3859POPC   C4A50634   1.320  34.435   7.104
 3859POPC   C1B50635   1.107  34.837   6.278
 3859POPC   C2B50636   1.004  35.099   6.630
 3859POPC   C3B50637   1.047  35.067   7.087
 3859POPC   C4B50638   1.401  35.032   7.346
 3860POPC   NC350639  32.814  17.758   5.388
 3860POPC   PO450640  33.314  17.519   5.020
 3860POPC   GL150641  33.328  17.426   5.574
 3860POPC   GL250642  33.107  17.647   5.771
 3860POPC   C1A50643  33.410  17.459   6.107
 3860POPC   D2A50644  33.129  17.442   6.523
 3860POPC   C3A50645  33.268  17.603   6.951
 3860POPC   C4A50646  33.363  17.351   7.306
 3860POPC   C1B50647  32.991  17.793   6.175
 3860POPC   C2B50648  32.986  17.935   6.620
 3860POPC   C3B50649  32.769  17.760   6.990
 3860POPC   C4B50650  32.595  17.476   7.298
 3861POPC   NC350651  27.039   2.458   5.394
 3861POPC   PO450652  26.626   2.930   5.506
 3861POPC   GL150653  26.986   2.947   5.797
 3861POPC   GL250654  26.908   2.622   5.869
 3861POPC   C1A50655  27.106   3.057   6.249
 3861POPC   D2A50656  27.015   2.850   6.639
 3861POPC   C3A50657  26.871   3.001   7.017
 3861POPC   C4A50658  27.068   2.733   7.267
 3861POPC   C1B50659  26.674   2.762   6.247
 3861POPC   C2B50660  26.503   2.814   6.670
 3861POPC   C3B50661  26.667   2.537   6.978
 3861POPC   C4B50662  26.723   2.379   7.360
 3862POPC   NC350663  16.978  23.829   5.238
 3862POPC   PO450664  16.476  23.441   5.340
 3862POPC   GL150665  16.641  23.554   5.742
 3862POPC   GL250666  16.960  23.729   5.748
 3862POPC   C1A50667  16.605  23.643   6.188
 3862POPC   D2A50668  16.553  23.759   6.617
 3862POPC   C3A50669  16.548  23.428   6.913
 3862POPC   C4A50670  16.472  23.559   7.338
 3862POPC   C1B50671  17.043  23.919   6.156
 3862POPC   C2B50672  17.062  23.845   6.621
 3862POPC   C3B50673  16.891  23.790   7.062
 3862POPC   C4B50674  16.968  23.637   7.496
 3863POPC   NC350675   3.399  36.122   5.474
 3863POPC   PO450676   4.065  35.802   5.290
 3863POPC   GL150677   3.803  35.884   5.714
 3863POPC   GL250678   3.661  36.212   5.897
 3863POPC   C1A50679   3.780  35.855   6.204
 3863POPC   D2A50680   3.551  36.006   6.597
 3863POPC   C3A50681   3.794  35.986   7.006
 3863POPC   C4A50682   3.852  35.970   7.505
 3863POPC   C1B50683   3.315  36.334   6.195
 3863POPC   C2B50684   3.234  36.499   6.620
 3863POPC   C3B50685   3.427  36.359   6.997
 3863POPC   C4B50686   3.803  36.425   7.245
 3864POPC   NC350687  18.074  26.069   5.379
 3864POPC   PO450688  18.724  25.928   5.313
 3864POPC   GL150689  18.537  26.080   5.717
 3864POPC   GL250690  18.256  25.869   5.837
 3864POPC   C1A50691  18.385  26.268   6.137
 3864POPC   D2A50692  18.212  26.109   6.562
 3864POPC   C3A50693  18.378  26.309   6.915
 3864POPC   C4A50694  18.376  26.050   7.253
 3864POPC   C1B50695  18.082  25.594   6.178
 3864POPC   C2B50696  17.833  25.663   6.537
 3864POPC   C3B50697  17.900  25.859   6.915
 3864POPC   C4B50698  18.044  25.674   7.288
 3865POPC   NC350699  37.255  26.199   5.382
 3865POPC   PO450700  37.857  25.899   5.345
 3865POPC   GL150701  37.805  25.995   5.808
 3865POPC   GL250702  37.467  26.155   5.840
 3865POPC   C1A50703  37.908  25.806   6.243
 3865POPC   D2A50704  37.889  25.514   6.604
 3865POPC   C3A50705  37.824  25.697   6.999
 3865POPC   C4A50706  37.926  26.116   7.167
 3865POPC   C1B50707  37.443  26.013   6.251
 3865POPC   C2B50708  37.574  25.968   6.665
 3865POPC   C3B50709  37.415  26.088   7.074
 3865POPC   C4B50710  37.378  26.407   7.379
 3866POPC   NC350711  22.996  43.992   5.009
 3866POPC   PO450712  23.095  43.986   5.668
 3866POPC   GL150713  22.793  43.937   5.945
 3866POPC   GL250714  23.025  43.699   6.099
 3866POPC   C1A50715  22.636  43.902   6.364
 3866POPC   D2A50716  22.882  43.645   6.638
 3866POPC   C3A50717  22.884  43.871   7.011
 3866POPC   C4A50718  22.924  43.920   7.462
 3866POPC   C1B50719  23.109  44.079   6.333
 3866POPC   C2B50720  23.194  44.405   6.600
 3866POPC   C3B50721  23.149  44.310   7.022
 3866POPC   C4B50722  23.447  44.381   7.253
 3867POPC   NC350723  23.991  43.892   5.049
 3867POPC   PO450724  24.707  43.788   5.159
 3867POPC   GL150725  24.649  44.025   5.551
 3867POPC   GL250726  24.697  43.724   5.755
 3867POPC   C1A50727  24.490  44.097   6.013
 3867POPC   D2A50728  24.381  44.020   6.448
 3867POPC   C3A50729  24.663  44.017   6.778
 3867POPC   C4A50730  24.585  44.007   7.170
 3867POPC   C1B50731  24.720  43.613   6.194
 3867POPC   C2B50732  24.592  43.518   6.626
 3867POPC   C3B50733  24.664  43.515   7.077
 3867POPC   C4B50734  24.924  43.717   7.398
 3868POPC   NC350735  32.715  10.952   5.598
 3868POPC   PO450736  32.316  11.316   5.267
 3868POPC   GL150737  32.212  11.408   5.741
 3868POPC   GL250738  32.558  11.381   5.872
 3868POPC   C1A50739  32.140  11.271   6.190
 3868POPC   D2A50740  32.220  11.138   6.599
 3868POPC   C3A50741  32.139  11.448   6.922
 3868POPC   C4A50742  32.380  11.562   7.255
 3868POPC   C1B50743  32.657  11.133   6.268
 3868POPC   C2B50744  32.725  11.074   6.724
 3868POPC   C3B50745  32.504  11.095   7.126
 3868POPC   C4B50746  32.495  11.178   7.603
 3869POPC   NC350747  37.918  43.532   5.617
 3869POPC   PO450748  37.477  43.004   5.610
 3869POPC   GL150749  37.829  43.073   5.837
 3869POPC   GL250750  37.602  43.357   5.970
 3869POPC   C1A50751  38.030  43.247   6.193
 3869POPC   D2A50752  37.842  43.475   6.486
 3869POPC   C3A50753  38.036  43.340   6.863
 3869POPC   C4A50754  37.924  43.082   7.200
 3869POPC   C1B50755  37.257  43.433   6.230
 3869POPC   C2B50756  37.200  43.319   6.642
 3869POPC   C3B50757  37.277  43.175   7.064
 3869POPC   C4B50758  37.504  43.250   7.431
 3870POPC   NC350759  40.393  35.038   5.120
 3870POPC   PO450760  40.960  35.238   5.370
 3870POPC   GL150761  40.736  35.387   5.728
 3870POPC   GL250762  41.069  35.483   5.829
 3870POPC   C1A50763  40.680  35.297   6.179
 3870POPC   D2A50764  40.550  35.149   6.593
 3870POPC   C3A50765  40.821  35.037   6.953
 3870POPC   C4A50766  40.679  35.337   7.245
 3870POPC   C1B50767  40.991  35.766   6.137
 3870POPC   C2B50768  40.678  35.750   6.431
 3870POPC   C3B50769  40.843  35.531   6.774
 3870POPC   C4B50770  41.029  35.686   7.150
 3871POPC   NC350771  35.458  13.584   5.351
 3871POPC   PO450772  34.744  13.782   5.338
 3871POPC   GL150773  35.111  13.742   5.661
 3871POPC   GL250774  34.988  13.485   5.792
 3871POPC   C1A50775  35.409  13.516   6.051
 3871POPC   D2A50776  35.558  13.690   6.485
 3871POPC   C3A50777  35.393  13.531   6.882
 3871POPC   C4A50778  35.509  13.672   7.282
 3871POPC   C1B50779  35.025  13.816   6.146
 3871POPC   C2B50780  35.069  13.577   6.472
 3871POPC   C3B50781  34.886  13.421   6.818
 3871POPC   C4B50782  34.960  13.649   7.199
 3872POPC   NC350783   9.608  37.496   4.802
 3872POPC   PO450784   9.828  37.747   5.466
 3872POPC   GL150785   9.842  37.697   5.859
 3872POPC   GL250786  10.107  37.473   5.852
 3872POPC   C1A50787   9.621  37.780   6.265
 3872POPC   D2A50788   9.629  38.105   6.563
 3872POPC   C3A50789   9.482  37.937   6.946
 3872POPC   C4A50790   9.685  37.816   7.320
 3872POPC   C1B50791  10.110  37.643   6.282
 3872POPC   C2B50792   9.932  37.659   6.713
 3872POPC   C3B50793  10.132  37.684   7.132
 3872POPC   C4B50794  10.084  37.632   7.594
 3873POPC   NC350795  16.302  35.880   5.480
 3873POPC   PO450796  15.734  36.246   5.385
 3873POPC   GL150797  15.956  36.146   5.765
 3873POPC   GL250798  15.864  35.772   5.725
 3873POPC   C1A50799  16.151  36.378   6.146
 3873POPC   D2A50800  16.008  36.573   6.564
 3873POPC   C3A50801  16.113  36.458   6.993
 3873POPC   C4A50802  15.787  36.280   7.310
 3873POPC   C1B50803  15.845  35.804   6.153
 3873POPC   C2B50804  16.031  36.006   6.499
 3873POPC   C3B50805  15.847  36.033   6.868
 3873POPC   C4B50806  15.813  35.759   7.200
 3874POPC   NC350807  41.295  11.519   5.594
 3874POPC   PO450808  41.789  11.273   5.270
 3874POPC   GL150809  41.695  11.143   5.734
 3874POPC   GL250810  42.066  11.104   5.810
 3874POPC   C1A50811  41.429  11.222   6.159
 3874POPC   D2A50812  41.177  11.384   6.534
 3874POPC   C3A50813  41.442  11.314   6.912
 3874POPC   C4A50814  41.350  11.069   7.243
 3874POPC   C1B50815  41.887  10.950   6.178
 3874POPC   C2B50816  41.767  11.102   6.564
 3874POPC   C3B50817  41.926  11.089   6.964
 3874POPC   C4B50818  41.823  10.889   7.319
 3875POPC   NC350819  17.466  17.833   5.389
 3875POPC   PO450820  17.789  17.313   5.416
 3875POPC   GL150821  17.622  17.531   5.832
 3875POPC   GL250822  17.320  17.726   5.862
 3875POPC   C1A50823  17.545  17.461   6.307
 3875POPC   D2A50824  17.764  17.394   6.725
 3875POPC   C3A50825  17.585  17.280   7.140
 3875POPC   C4A50826  17.223  17.297   7.367
 3875POPC   C1B50827  17.135  17.760   6.269
 3875POPC   C2B50828  17.330  17.777   6.669
 3875POPC   C3B50829  17.278  17.720   7.096
 3875POPC   C4B50830  17.437  17.749   7.524
 3876POPC   NC350831   3.753  11.897   5.448
 3876POPC   PO450832   3.148  12.145   5.396
 3876POPC   GL150833   3.401  12.053   5.790
 3876POPC   GL250834   3.605  12.349   5.838
 3876POPC   C1A50835   3.551  11.843   6.192
 3876POPC   D2A50836   3.866  11.734   6.550
 3876POPC   C3A50837   3.767  11.925   6.945
 3876POPC   C4A50838   3.397  11.940   7.166
 3876POPC   C1B50839   3.699  12.305   6.288
 3876POPC   C2B50840   3.793  12.382   6.731
 3876POPC   C3B50841   3.689  12.383   7.208
 3876POPC   C4B50842   3.680  12.379   7.720
 3877POPC   NC350843   6.417   8.892   5.439
 3877POPC   PO450844   7.044   8.999   5.490
 3877POPC   GL150845   6.876   9.206   5.815
 3877POPC   GL250846   6.603   9.071   5.880
 3877POPC   C1A50847   6.974   9.123   6.240
 3877POPC   D2A50848   6.743   9.057   6.626
 3877POPC   C3A50849   6.931   8.973   7.063
 3877POPC   C4A50850   6.837   8.844   7.535
 3877POPC   C1B50851   6.494   8.815   6.188
 3877POPC   C2B50852   6.245   8.927   6.495
 3877POPC   C3B50853   6.325   9.012   6.918
 3877POPC   C4B50854   6.410   8.888   7.298
 3878POPC   NC350855  17.580  25.615   5.275
 3878POPC   PO450856  17.483  26.280   5.406
 3878POPC   GL150857  17.640  25.998   5.740
 3878POPC   GL250858  17.907  26.266   5.816
 3878POPC   C1A50859  17.474  25.799   6.169
 3878POPC   D2A50860  17.322  25.573   6.528
 3878POPC   C3A50861  17.378  25.791   6.904
 3878POPC   C4A50862  17.547  25.804   7.299
 3878POPC   C1B50863  17.885  26.078   6.194
 3878POPC   C2B50864  17.599  26.129   6.558
 3878POPC   C3B50865  17.552  26.285   6.977
 3878POPC   C4B50866  17.890  26.211   7.289
 3879POPC   NC350867  40.924   7.312   5.401
 3879POPC   PO450868  40.294   7.571   5.297
 3879POPC   GL150869  40.495   7.398   5.725
 3879POPC   GL250870  40.852   7.374   5.889
 3879POPC   C1A50871  40.415   7.423   6.189
 3879POPC   D2A50872  40.321   7.332   6.650
 3879POPC   C3A50873  40.496   7.605   6.974
 3879POPC   C4A50874  40.823   7.590   7.302
 3879POPC   C1B50875  40.887   7.296   6.335
 3879POPC   C2B50876  40.905   7.372   6.778
 3879POPC   C3B50877  40.924   7.119   7.182
 3879POPC   C4B50878  41.062   7.107   7.659
 3880POPC   NC350879  12.280  14.676   5.299
 3880POPC   PO450880  12.048  14.171   5.534
 3880POPC   GL150881  12.145  14.523   5.760
 3880POPC   GL250882  12.506  14.507   5.744
 3880POPC   C1A50883  12.145  14.576   6.180
 3880POPC   D2A50884  11.843  14.505   6.503
 3880POPC   C3A50885  12.001  14.524   6.911
 3880POPC   C4A50886  11.790  14.638   7.305
 3880POPC   C1B50887  12.443  14.157   6.079
 3880POPC   C2B50888  12.128  14.084   6.401
 3880POPC   C3B50889  12.041  14.022   6.839
 3880POPC   C4B50890  12.022  14.153   7.265
 3881POPC   NC350891  31.148  20.708   5.180
 3881POPC   PO450892  31.671  20.354   5.233
 3881POPC   GL150893  31.450  20.563   5.642
 3881POPC   GL250894  31.281  20.919   5.737
 3881POPC   C1A50895  31.553  20.665   6.093
 3881POPC   D2A50896  31.330  20.604   6.501
 3881POPC   C3A50897  31.522  20.620   6.917
 3881POPC   C4A50898  31.461  20.362   7.312
 3881POPC   C1B50899  31.484  21.167   6.100
 3881POPC   C2B50900  31.381  21.152   6.529
 3881POPC   C3B50901  31.123  20.973   6.824
 3881POPC   C4B50902  31.146  20.784   7.202
 3882POPC   NC350903  38.764  44.141   5.623
 3882POPC   PO450904  38.665  43.612   5.228
 3882POPC   GL150905  38.424  43.675   5.646
 3882POPC   GL250906  38.424  43.946   5.930
 3882POPC   C1A50907  38.462  43.485   6.080
 3882POPC   D2A50908  38.387  43.478   6.524
 3882POPC   C3A50909  38.571  43.747   6.857
 3882POPC   C4A50910  38.347  43.986   7.216
 3882POPC   C1B50911  38.507  43.984   6.404
 3882POPC   C2B50912  38.433  44.244   6.783
 3882POPC   C3B50913  38.685  44.349   7.171
 3882POPC   C4B50914  38.561  44.259   7.622
 3883POPC   NC350915  36.323  24.879   5.108
 3883POPC   PO450916  36.022  25.416   5.341
 3883POPC   GL150917  36.275  25.186   5.661
 3883POPC   GL250918  36.041  25.090   5.892
 3883POPC   C1A50919  36.518  25.127   6.074
 3883POPC   D2A50920  36.423  25.203   6.545
 3883POPC   C3A50921  36.526  25.143   7.003
 3883POPC   C4A50922  36.331  25.231   7.396
 3883POPC   C1B50923  36.122  25.415   6.183
 3883POPC   C2B50924  36.024  25.521   6.620
 3883POPC   C3B50925  35.974  25.317   7.034
 3883POPC   C4B50926  35.904  25.517   7.447
 3884POPC   NC350927   0.254  23.330   5.576
 3884POPC   PO450928   0.483  23.933   5.403
 3884POPC   GL150929   0.495  23.737   5.807
 3884POPC   GL250930   0.742  23.446   5.784
 3884POPC   C1A50931   0.253  23.687   6.217
 3884POPC   D2A50932   0.322  23.517   6.674
 3884POPC   C3A50933   0.130  23.790   7.009
 3884POPC   C4A50934   0.142  23.887   7.462
 3884POPC   C1B50935   0.745  23.548   6.232
 3884POPC   C2B50936   0.854  23.724   6.619
 3884POPC   C3B50937   0.822  23.510   6.990
 3884POPC   C4B50938   0.567  23.643   7.287
 3885POPC   NC350939  15.879  18.186   5.462
 3885POPC   PO450940  15.577  18.760   5.504
 3885POPC   GL150941  15.719  18.472   5.850
 3885POPC   GL250942  15.642  18.089   5.916
 3885POPC   C1A50943  15.991  18.325   6.197
 3885POPC   D2A50944  15.922  18.415   6.642
 3885POPC   C3A50945  16.084  18.274   7.041
 3885POPC   C4A50946  15.907  18.238   7.452
 3885POPC   C1B50947  15.889  17.841   6.231
 3885POPC   C2B50948  16.032  17.888   6.663
 3885POPC   C3B50949  15.828  17.832   7.076
 3885POPC   C4B50950  15.812  17.761   7.569
 3886POPC   NC350951  38.025  11.244   5.425
 3886POPC   PO450952  38.623  11.594   5.543
 3886POPC   GL150953  38.340  11.390   5.830
 3886POPC   GL250954  38.156  11.085   5.933
 3886POPC   C1A50955  38.276  11.508   6.254
 3886POPC   D2A50956  38.609  11.473   6.566
 3886POPC   C3A50957  38.623  11.162   6.871
 3886POPC   C4A50958  38.318  11.273   7.117
 3886POPC   C1B50959  38.436  11.010   6.300
 3886POPC   C2B50960  38.321  10.769   6.685
 3886POPC   C3B50961  38.150  10.800   7.098
 3886POPC   C4B50962  38.550  10.872   7.329
 3887POPC   NC350963  21.890  36.918   5.000
 3887POPC   PO450964  22.183  37.056   5.438
 3887POPC   GL150965  22.130  36.933   5.838
 3887POPC   GL250966  22.033  36.581   5.794
 3887POPC   C1A50967  22.298  37.007   6.253
 3887POPC   D2A50968  22.116  36.990   6.661
 3887POPC   C3A50969  22.268  37.209   7.028
 3887POPC   C4A50970  21.993  37.223   7.369
 3887POPC   C1B50971  22.064  36.551   6.262
 3887POPC   C2B50972  22.321  36.523   6.660
 3887POPC   C3B50973  22.363  36.706   7.096
 3887POPC   C4B50974  22.299  36.808   7.548
 3888POPC   NC350975   2.801  32.708   5.399
 3888POPC   PO450976   2.599  32.026   5.611
 3888POPC   GL150977   2.750  32.394   5.784
 3888POPC   GL250978   3.102  32.348   5.741
 3888POPC   C1A50979   2.851  32.583   6.171
 3888POPC   D2A50980   3.020  32.400   6.556
 3888POPC   C3A50981   2.879  32.530   6.992
 3888POPC   C4A50982   2.572  32.281   7.220
 3888POPC   C1B50983   3.170  32.073   6.117
 3888POPC   C2B50984   3.373  32.006   6.529
 3888POPC   C3B50985   3.186  31.898   6.942
 3888POPC   C4B50986   3.081  32.103   7.322
 3889POPC   NC350987  34.242  43.967   5.670
 3889POPC   PO450988  34.834  43.785   5.388
 3889POPC   GL150989  34.664  43.723   5.843
 3889POPC   GL250990  34.585  44.067   6.038
 3889POPC   C1A50991  34.792  43.681   6.299
 3889POPC   D2A50992  34.648  43.971   6.633
 3889POPC   C3A50993  34.577  43.825   7.054
 3889POPC   C4A50994  34.326  44.013   7.395
 3889POPC   C1B50995  34.278  43.824   6.295
 3889POPC   C2B50996  34.098  43.641   6.643
 3889POPC   C3B50997  34.087  43.680   7.098
 3889POPC   C4B50998  34.040  43.598   7.542
 3890POPC   NC350999  32.894  39.214   5.048
 3890POPC   PO451000  32.213  39.320   5.212
 3890POPC   GL151001  32.120  39.227   5.682
 3890POPC   GL251002  32.054  39.487   5.878
 3890POPC   C1A51003  32.077  38.983   6.073
 3890POPC   D2A51004  32.075  39.017   6.519
 3890POPC   C3A51005  32.428  39.076   6.782
 3890POPC   C4A51006  32.337  39.029   7.207
 3890POPC   C1B51007  32.341  39.398   6.220
 3890POPC   C2B51008  32.296  39.564   6.624
 3890POPC   C3B51009  32.142  39.466   7.020
 3890POPC   C4B51010  32.113  39.483   7.460
 3891POPC   NC351011  19.785  40.965   5.343
 3891POPC   PO451012  20.141  40.321   5.632
 3891POPC   GL151013  19.946  40.749   5.794
 3891POPC   GL251014  19.767  41.111   5.814
 3891POPC   C1A51015  20.022  40.908   6.195
 3891POPC   D2A51016  19.798  40.968   6.540
 3891POPC   C3A51017  19.754  40.693   6.863
 3891POPC   C4A51018  19.944  40.775   7.260
 3891POPC   C1B51019  19.486  40.978   6.127
 3891POPC   C2B51020  19.333  41.157   6.520
 3891POPC   C3B51021  19.499  41.165   6.921
 3891POPC   C4B51022  19.473  40.978   7.311
 3892POPC   NC351023  26.668  19.295   5.400
 3892POPC   PO451024  26.897  18.761   5.337
 3892POPC   GL151025  26.749  18.928   5.747
 3892POPC   GL251026  26.994  19.144   5.857
 3892POPC   C1A51027  26.493  19.086   6.069
 3892POPC   D2A51028  26.637  19.179   6.473
 3892POPC   C3A51029  26.823  18.928   6.752
 3892POPC   C4A51030  26.674  19.097   7.139
 3892POPC   C1B51031  27.100  19.004   6.292
 3892POPC   C2B51032  27.358  18.948   6.677
 3892POPC   C3B51033  27.196  19.060   7.074
 3892POPC   C4B51034  26.981  18.657   7.155
 3893POPC   NC351035   4.869  35.430   5.416
 3893POPC   PO451036   4.270  34.986   5.272
 3893POPC   GL151037   4.286  35.340   5.621
 3893POPC   GL251038   4.528  35.228   5.853
 3893POPC   C1A51039   4.198  35.634   6.004
 3893POPC   D2A51040   4.499  35.715   6.375
 3893POPC   C3A51041   4.431  35.476   6.791
 3893POPC   C4A51042   4.141  35.635   7.123
 3893POPC   C1B51043   4.096  35.138   6.059
 3893POPC   C2B51044   3.921  35.223   6.455
 3893POPC   C3B51045   3.983  35.184   6.888
 3893POPC   C4B51046   3.929  35.158   7.311
 3894POPC   NC351047  31.291  24.671   5.515
 3894POPC   PO451048  31.656  24.276   5.143
 3894POPC   GL151049  31.639  24.265   5.608
 3894POPC   GL251050  31.342  24.206   5.725
 3894POPC   C1A51051  31.690  24.341   6.090
 3894POPC   D2A51052  31.806  24.552   6.492
 3894POPC   C3A51053  31.561  24.514   6.861
 3894POPC   C4A51054  31.698  24.427   7.248
 3894POPC   C1B51055  31.221  24.083   6.117
 3894POPC   C2B51056  31.303  24.280   6.500
 3894POPC   C3B51057  31.170  24.172   6.925
 3894POPC   C4B51058  31.273  24.187   7.311
 3895POPC   NC351059   7.830  26.159   5.310
 3895POPC   PO451060   8.246  25.690   5.473
 3895POPC   GL151061   7.946  25.843   5.776
 3895POPC   GL251062   7.952  26.216   5.817
 3895POPC   C1A51063   8.052  25.841   6.220
 3895POPC   D2A51064   8.246  26.021   6.606
 3895POPC   C3A51065   8.166  25.796   7.009
 3895POPC   C4A51066   8.480  25.647   7.329
 3895POPC   C1B51067   8.093  26.356   6.234
 3895POPC   C2B51068   7.919  26.443   6.648
 3895POPC   C3B51069   8.161  26.331   7.008
 3895POPC   C4B51070   8.419  26.145   7.305
 3896POPC   NC351071  25.681  33.262   5.440
 3896POPC   PO451072  26.311  32.910   5.476
 3896POPC   GL151073  25.923  32.901   5.747
 3896POPC   GL251074  25.988  33.233   5.852
 3896POPC   C1A51075  25.755  32.901   6.203
 3896POPC   D2A51076  25.882  33.175   6.541
 3896POPC   C3A51077  26.031  33.044   6.906
 3896POPC   C4A51078  25.808  32.803   7.236
 3896POPC   C1B51079  26.250  32.959   6.141
 3896POPC   C2B51080  26.454  32.891   6.520
 3896POPC   C3B51081  26.574  33.006   6.934
 3896POPC   C4B51082  26.329  32.905   7.281
 3897POPC   NC351083   6.181  31.738   4.889
 3897POPC   PO451084   5.881  31.604   5.537
 3897POPC   GL151085   5.715  31.446   5.879
 3897POPC   GL251086   5.531  31.138   5.898
 3897POPC   C1A51087   5.651  31.562   6.249
 3897POPC   D2A51088   5.734  31.807   6.566
 3897POPC   C3A51089   5.717  31.552   6.924
 3897POPC   C4A51090   5.935  31.529   7.272
 3897POPC   C1B51091   5.793  31.065   6.255
 3897POPC   C2B51092   5.801  30.989   6.687
 3897POPC   C3B51093   5.629  30.945   7.083
 3897POPC   C4B51094   5.492  31.260   7.339
 3898POPC   NC351095   9.217  28.101   5.374
 3898POPC   PO451096   8.865  28.727   5.340
 3898POPC   GL151097   8.990  28.478   5.686
 3898POPC   GL251098   8.729  28.228   5.642
 3898POPC   C1A51099   9.267  28.373   6.053
 3898POPC   D2A51100   9.385  28.280   6.512
 3898POPC   C3A51101   9.181  28.557   6.829
 3898POPC   C4A51102   9.191  28.531   7.281
 3898POPC   C1B51103   8.702  28.292   6.111
 3898POPC   C2B51104   8.813  28.248   6.579
 3898POPC   C3B51105   8.855  28.211   7.026
 3898POPC   C4B51106   8.710  28.622   7.077
 3899POPC   NC351107  10.223   7.085   5.467
 3899POPC   PO451108  10.769   7.362   5.210
 3899POPC   GL151109  10.678   7.357   5.695
 3899POPC   GL251110  10.355   7.287   5.915
 3899POPC   C1A51111  10.682   7.573   6.128
 3899POPC   D2A51112  10.443   7.541   6.543
 3899POPC   C3A51113  10.615   7.454   6.965
 3899POPC   C4A51114  10.380   7.154   7.216
 3899POPC   C1B51115  10.159   7.686   6.139
 3899POPC   C2B51116   9.928   7.725   6.506
 3899POPC   C3B51117  10.082   7.669   6.907
 3899POPC   C4B51118  10.274   7.704   7.258
 3900POPC   NC351119   4.702  22.623   5.413
 3900POPC   PO451120   4.198  22.104   5.468
 3900POPC   GL151121   4.218  21.974   5.889
 3900POPC   GL251122   4.545  21.859   5.814
 3900POPC   C1A51123   4.166  22.077   6.348
 3900POPC   D2A51124   4.179  22.443   6.660
 3900POPC   C3A51125   4.418  22.379   7.018
 3900POPC   C4A51126   4.360  22.510   7.408
 3900POPC   C1B51127   4.676  21.967   6.215
 3900POPC   C2B51128   4.657  22.122   6.629
 3900POPC   C3B51129   4.725  21.949   7.036
 3900POPC   C4B51130   4.436  21.880   7.391
 3901POPC   NC351131  32.701  40.569   5.385
 3901POPC   PO451132  32.148  40.942   5.471
 3901POPC   GL151133  32.193  40.951   5.892
 3901POPC   GL251134  32.521  40.916   5.860
 3901POPC   C1A51135  32.325  40.773   6.322
 3901POPC   D2A51136  32.638  40.652   6.633
 3901POPC   C3A51137  32.485  40.722   7.023
 3901POPC   C4A51138  32.089  40.864   7.091
 3901POPC   C1B51139  32.488  41.245   6.194
 3901POPC   C2B51140  32.618  41.202   6.607
 3901POPC   C3B51141  32.449  41.249   7.022
 3901POPC   C4B51142  32.423  41.067   7.423
 3902POPC   NC351143  14.038  25.845   5.487
 3902POPC   PO451144  14.313  26.462   5.457
 3902POPC   GL151145  14.433  26.256   5.818
 3902POPC   GL251146  14.480  25.875   5.774
 3902POPC   C1A51147  14.461  26.109   6.241
 3902POPC   D2A51148  14.447  25.897   6.637
 3902POPC   C3A51149  14.535  26.213   6.920
 3902POPC   C4A51150  14.381  26.326   7.318
 3902POPC   C1B51151  14.649  25.633   6.140
 3902POPC   C2B51152  14.729  25.454   6.549
 3902POPC   C3B51153  14.652  25.563   6.984
 3902POPC   C4B51154  14.633  25.870   7.285
 3903POPC   NC351155   9.909  39.786   5.510
 3903POPC   PO451156   9.753  40.345   5.167
 3903POPC   GL151157   9.698  40.253   5.652
 3903POPC   GL251158   9.512  39.947   5.775
 3903POPC   C1A51159   9.815  40.205   6.118
 3903POPC   D2A51160  10.062  40.287   6.507
 3903POPC   C3A51161   9.897  40.175   6.916
 3903POPC   C4A51162   9.661  40.121   7.290
 3903POPC   C1B51163   9.669  39.703   6.141
 3903POPC   C2B51164   9.795  39.812   6.547
 3903POPC   C3B51165   9.604  39.739   6.920
 3903POPC   C4B51166   9.451  39.660   7.295
 3904POPC   NC351167   8.641   4.532   5.405
 3904POPC   PO451168   8.040   4.239   5.289
 3904POPC   GL151169   8.039   4.472   5.661
 3904POPC   GL251170   8.295   4.302   5.863
 3904POPC   C1A51171   7.967   4.678   6.065
 3904POPC   D2A51172   7.875   4.560   6.509
 3904POPC   C3A51173   8.167   4.570   6.844
 3904POPC   C4A51174   8.026   4.696   7.230
 3904POPC   C1B51175   7.880   4.184   6.103
 3904POPC   C2B51176   7.824   3.951   6.482
 3904POPC   C3B51177   7.892   4.116   6.859
 3904POPC   C4B51178   8.145   4.180   7.195
 3905POPC   NC351179   4.797  16.163   5.308
 3905POPC   PO451180   5.284  15.678   5.437
 3905POPC   GL151181   5.128  15.663   5.860
 3905POPC   GL251182   4.750  15.694   5.840
 3905POPC   C1A51183   5.307  15.747   6.312
 3905POPC   D2A51184   5.509  15.660   6.739
 3905POPC   C3A51185   5.164  15.691   7.039
 3905POPC   C4A51186   4.930  16.075   7.119
 3905POPC   C1B51187   4.836  15.536   6.258
 3905POPC   C2B51188   4.809  15.729   6.656
 3905POPC   C3B51189   4.701  15.500   7.017
 3905POPC   C4B51190   4.756  15.702   7.421
 3906POPC   NC351191  25.019  29.414   5.581
 3906POPC   PO451192  25.226  28.923   5.236
 3906POPC   GL151193  25.261  28.876   5.724
 3906POPC   GL251194  24.940  28.808   5.912
 3906POPC   C1A51195  25.453  28.880   6.163
 3906POPC   D2A51196  25.584  28.786   6.636
 3906POPC   C3A51197  25.442  29.090   6.981
 3906POPC   C4A51198  25.627  29.506   7.103
 3906POPC   C1B51199  24.986  29.128   6.259
 3906POPC   C2B51200  25.212  29.382   6.596
 3906POPC   C3B51201  25.063  29.433   7.034
 3906POPC   C4B51202  24.857  29.053   7.105
 3907POPC   NC351203  27.293  10.617   5.505
 3907POPC   PO451204  26.651  10.623   5.449
 3907POPC   GL151205  26.744  10.492   5.861
 3907POPC   GL251206  27.048  10.298   5.826
 3907POPC   C1A51207  26.633  10.636   6.302
 3907POPC   D2A51208  26.492  10.780   6.700
 3907POPC   C3A51209  26.658  10.632   7.080
 3907POPC   C4A51210  26.937  10.823   7.404
 3907POPC   C1B51211  27.115  10.555   6.214
 3907POPC   C2B51212  26.999  10.645   6.674
 3907POPC   C3B51213  27.220  10.542   7.056
 3907POPC   C4B51214  27.239  10.378   7.474
 3908POPC   NC351215   0.442  11.763   5.345
 3908POPC   PO451216   0.567  12.425   5.294
 3908POPC   GL151217   0.653  12.113   5.646
 3908POPC   GL251218   0.338  11.948   5.813
 3908POPC   C1A51219   0.734  12.089   6.103
 3908POPC   D2A51220   0.506  11.973   6.487
 3908POPC   C3A51221   0.709  12.057   6.874
 3908POPC   C4A51222   0.637  12.088   7.302
 3908POPC   C1B51223   0.167  12.193   6.165
 3908POPC   C2B51224   0.025  12.229   6.586
 3908POPC   C3B51225   0.200  12.157   7.007
 3908POPC   C4B51226   0.207  12.399   7.403
 3909POPC   NC351227  15.991  37.317   5.356
 3909POPC   PO451228  16.392  37.816   5.442
 3909POPC   GL151229  16.113  37.607   5.765
 3909POPC   GL251230  15.732  37.560   5.752
 3909POPC   C1A51231  16.002  37.391   6.148
 3909POPC   D2A51232  15.847  37.428   6.530
 3909POPC   C3A51233  16.103  37.701   6.794
 3909POPC   C4A51234  16.169  37.626   7.220
 3909POPC   C1B51235  15.729  37.832   6.155
 3909POPC   C2B51236  15.667  37.897   6.613
 3909POPC   C3B51237  15.639  37.621   7.002
 3909POPC   C4B51238  15.694  37.763   7.440
 3910POPC   NC351239  43.802  31.700   5.701
 3910POPC   PO451240  44.197  31.216   5.505
 3910POPC   GL151241  44.204  31.232   5.918
 3910POPC   GL251242  44.278  31.574   5.909
 3910POPC   C1A51243  44.057  31.324   6.328
 3910POPC   D2A51244  43.709  31.332   6.593
 3910POPC   C3A51245  43.805  31.161   7.028
 3910POPC   C4A51246  44.192  31.227   7.301
 3910POPC   C1B51247  44.231  31.822   6.248
 3910POPC   C2B51248  43.986  31.828   6.577
 3910POPC   C3B51249  43.992  31.616   6.927
 3910POPC   C4B51250  43.764  31.680   7.274
 3911POPC   NC351251  17.697   9.294   5.325
 3911POPC   PO451252  17.170   9.026   5.630
 3911POPC   GL151253  17.343   9.085   5.967
 3911POPC   GL251254  17.677   8.994   5.946
 3911POPC   C1A51255  17.344   9.013   6.354
 3911POPC   D2A51256  17.731   8.922   6.548
 3911POPC   C3A51257  17.662   9.085   6.944
 3911POPC   C4A51258  17.445   9.143   7.339
 3911POPC   C1B51259  17.550   8.609   6.161
 3911POPC   C2B51260  17.365   8.542   6.560
 3911POPC   C3B51261  17.596   8.569   6.925
 3911POPC   C4B51262  17.601   8.652   7.329
 3912POPC   NC351263  34.129  13.178   5.544
 3912POPC   PO451264  33.493  12.814   5.461
 3912POPC   GL151265  33.688  12.729   5.822
 3912POPC   GL251266  34.014  12.671   5.708
 3912POPC   C1A51267  33.821  12.916   6.203
 3912POPC   D2A51268  33.939  13.158   6.541
 3912POPC   C3A51269  33.867  12.989   6.920
 3912POPC   C4A51270  33.675  13.031   7.323
 3912POPC   C1B51271  34.181  12.556   6.114
 3912POPC   C2B51272  34.227  12.725   6.537
 3912POPC   C3B51273  34.214  12.568   6.952
 3912POPC   C4B51274  34.101  12.721   7.325
 3913POPC   NC351275  18.795  27.703   5.337
 3913POPC   PO451276  18.148  27.611   5.237
 3913POPC   GL151277  18.271  27.510   5.654
 3913POPC   GL251278  18.530  27.741   5.775
 3913POPC   C1A51279  18.366  27.340   6.086
 3913POPC   D2A51280  18.556  27.496   6.485
 3913POPC   C3A51281  18.350  27.350   6.869
 3913POPC   C4A51282  18.194  27.465   7.273
 3913POPC   C1B51283  18.449  28.048   6.092
 3913POPC   C2B51284  18.204  28.076   6.463
 3913POPC   C3B51285  18.319  27.861   6.842
 3913POPC   C4B51286  18.569  27.992   7.157
 3914POPC   NC351287  40.877  35.845   5.469
 3914POPC   PO451288  40.654  36.436   5.249
 3914POPC   GL151289  40.642  36.259   5.762
 3914POPC   GL251290  40.548  35.902   5.872
 3914POPC   C1A51291  40.893  36.256   6.223
 3914POPC   D2A51292  41.078  36.031   6.615
 3914POPC   C3A51293  40.949  36.216   7.006
 3914POPC   C4A51294  40.560  36.367   7.138
 3914POPC   C1B51295  40.398  36.173   6.223
 3914POPC   C2B51296  40.536  36.199   6.645
 3914POPC   C3B51297  40.558  35.892   6.960
 3914POPC   C4B51298  40.542  35.818   7.400
 3915POPC   NC351299  13.182   4.689   5.054
 3915POPC   PO451300  12.821   5.190   5.392
 3915POPC   GL151301  12.729   5.125   5.812
 3915POPC   GL251302  12.402   5.277   5.821
 3915POPC   C1A51303  12.957   5.003   6.195
 3915POPC   D2A51304  12.801   4.991   6.612
 3915POPC   C3A51305  12.902   5.299   6.891
 3915POPC   C4A51306  13.100   5.315   7.269
 3915POPC   C1B51307  12.379   5.523   6.162
 3915POPC   C2B51308  12.521   5.445   6.537
 3915POPC   C3B51309  12.551   5.687   6.880
 3915POPC   C4B51310  12.549   5.526   7.279
 3916POPC   NC351311  43.059  11.214   5.213
 3916POPC   PO451312  42.913  11.731   5.626
 3916POPC   GL151313  43.018  11.388   5.887
 3916POPC   GL251314  43.189  11.125   5.762
 3916POPC   C1A51315  43.173  11.324   6.286
 3916POPC   D2A51316  43.395  11.615   6.517
 3916POPC   C3A51317  43.162  11.642   6.860
 3916POPC   C4A51318  42.916  11.422   7.132
 3916POPC   C1B51319  43.546  11.055   6.083
 3916POPC   C2B51320  43.506  11.033   6.566
 3916POPC   C3B51321  43.312  11.123   6.979
 3916POPC   C4B51322  43.234  11.114   7.473
 3917POPC   NC351323   5.253  21.127   5.478
 3917POPC   PO451324   5.176  20.460   5.454
 3917POPC   GL151325   5.168  20.539   5.885
 3917POPC   GL251326   5.294  20.843   5.889
 3917POPC   C1A51327   5.253  20.615   6.325
 3917POPC   D2A51328   4.904  20.614   6.545
 3917POPC   C3A51329   4.981  20.371   6.877
 3917POPC   C4A51330   5.050  20.517   7.293
 3917POPC   C1B51331   4.961  21.023   6.124
 3917POPC   C2B51332   4.930  21.117   6.561
 3917POPC   C3B51333   4.984  20.918   6.980
 3917POPC   C4B51334   5.018  21.046   7.398
 3918POPC   NC351335  36.864   5.663   5.254
 3918POPC   PO451336  37.235   6.230   5.384
 3918POPC   GL151337  36.917   6.069   5.738
 3918POPC   GL251338  36.540   5.981   5.789
 3918POPC   C1A51339  36.842   6.136   6.202
 3918POPC   D2A51340  36.657   5.895   6.560
 3918POPC   C3A51341  36.903   5.759   6.956
 3918POPC   C4A51342  36.911   5.449   7.310
 3918POPC   C1B51343  36.342   6.213   6.172
 3918POPC   C2B51344  36.482   6.401   6.564
 3918POPC   C3B51345  36.591   6.170   6.980
 3918POPC   C4B51346  36.585   5.874   7.341
 3919POPC   NC351347  36.569  34.114   5.413
 3919POPC   PO451348  37.122  34.428   5.397
 3919POPC   GL151349  36.965  34.571   5.788
 3919POPC   GL251350  36.624  34.557   5.687
 3919POPC   C1A51351  37.099  34.553   6.244
 3919POPC   D2A51352  37.186  34.781   6.660
 3919POPC   C3A51353  37.129  34.550   7.052
 3919POPC   C4A51354  37.058  34.567   7.549
 3919POPC   C1B51355  36.558  34.489   6.130
 3919POPC   C2B51356  36.716  34.508   6.591
 3919POPC   C3B51357  36.530  34.626   6.985
 3919POPC   C4B51358  36.592  34.702   7.440
 3920POPC   NC351359  25.090  29.302   4.996
 3920POPC   PO451360  24.424  29.107   5.272
 3920POPC   GL151361  24.536  29.066   5.667
 3920POPC   GL251362  24.488  29.407   5.758
 3920POPC   C1A51363  24.473  28.994   6.100
 3920POPC   D2A51364  24.235  29.184   6.441
 3920POPC   C3A51365  24.395  29.010   6.803
 3920POPC   C4A51366  24.376  29.025   7.222
 3920POPC   C1B51367  24.600  29.489   6.183
 3920POPC   C2B51368  24.692  29.388   6.622
 3920POPC   C3B51369  24.500  29.486   7.015
 3920POPC   C4B51370  24.509  29.481   7.472
 3921POPC   NC351371  27.876  42.333   5.479
 3921POPC   PO451372  27.254  41.917   5.418
 3921POPC   GL151373  27.430  42.201   5.704
 3921POPC   GL251374  27.753  42.105   5.907
 3921POPC   C1A51375  27.357  42.524   6.031
 3921POPC   D2A51376  27.672  42.655   6.332
 3921POPC   C3A51377  27.578  42.625   6.775
 3921POPC   C4A51378  27.741  42.397   7.150
 3921POPC   C1B51379  27.402  42.045   6.174
 3921POPC   C2B51380  27.287  42.258   6.520
 3921POPC   C3B51381  27.467  42.095   6.864
 3921POPC   C4B51382  27.317  42.075   7.274
 3922POPC   NC351383   8.949  37.778   5.499
 3922POPC   PO451384   9.456  37.479   5.230
 3922POPC   GL151385   9.368  37.424   5.717
 3922POPC   GL251386   9.318  37.769   5.857
 3922POPC   C1A51387   9.166  37.397   6.171
 3922POPC   D2A51388   9.165  37.693   6.576
 3922POPC   C3A51389   9.055  37.512   6.994
 3922POPC   C4A51390   9.263  37.553   7.407
 3922POPC   C1B51391   8.930  37.858   6.143
 3922POPC   C2B51392   8.760  38.016   6.534
 3922POPC   C3B51393   8.918  38.004   6.948
 3922POPC   C4B51394   8.735  37.940   7.359
 3923POPC   NC351395   7.269  39.488   5.478
 3923POPC   PO451396   7.083  38.918   5.437
 3923POPC   GL151397   7.321  39.089   5.806
 3923POPC   GL251398   7.225  39.410   5.980
 3923POPC   C1A51399   7.390  38.958   6.218
 3923POPC   D2A51400   7.202  38.925   6.638
 3923POPC   C3A51401   7.499  38.926   6.984
 3923POPC   C4A51402   7.695  39.300   7.137
 3923POPC   C1B51403   7.305  39.423   6.437
 3923POPC   C2B51404   7.260  39.381   6.883
 3923POPC   C3B51405   7.095  39.125   7.217
 3923POPC   C4B51406   7.020  39.087   7.678
 3924POPC   NC351407  37.341  38.585   5.591
 3924POPC   PO451408  37.820  38.140   5.524
 3924POPC   GL151409  37.653  38.292   5.887
 3924POPC   GL251410  37.295  38.191   5.923
 3924POPC   C1A51411  37.850  38.326   6.273
 3924POPC   D2A51412  37.861  38.060   6.613
 3924POPC   C3A51413  37.875  38.281   6.980
 3924POPC   C4A51414  38.057  38.572   7.239
 3924POPC   C1B51415  37.353  38.533   6.246
 3924POPC   C2B51416  37.580  38.580   6.638
 3924POPC   C3B51417  37.595  38.712   7.057
 3924POPC   C4B51418  37.457  38.713   7.495
 3925POPC   NC351419  29.298  13.067   5.547
 3925POPC   PO451420  28.698  12.879   5.526
 3925POPC   GL151421  28.995  12.777   5.856
 3925POPC   GL251422  29.300  12.592   5.758
 3925POPC   C1A51423  29.166  13.017   6.230
 3925POPC   D2A51424  29.283  13.016   6.684
 3925POPC   C3A51425  28.950  12.815   6.983
 3925POPC   C4A51426  28.844  12.829   7.452
 3925POPC   C1B51427  29.251  12.509   6.208
 3925POPC   C2B51428  29.311  12.507   6.655
 3925POPC   C3B51429  29.421  12.656   7.059
 3925POPC   C4B51430  29.232  12.510   7.420
 3926POPC   NC351431  14.406  28.100   5.393
 3926POPC   PO451432  14.619  28.809   5.282
 3926POPC   GL151433  14.536  28.658   5.692
 3926POPC   GL251434  14.184  28.625   5.814
 3926POPC   C1A51435  14.561  28.757   6.126
 3926POPC   D2A51436  14.393  28.570   6.486
 3926POPC   C3A51437  14.592  28.585   6.862
 3926POPC   C4A51438  14.807  28.437   7.243
 3926POPC   C1B51439  14.390  28.255   6.073
 3926POPC   C2B51440  14.332  28.060   6.514
 3926POPC   C3B51441  14.300  28.155   6.975
 3926POPC   C4B51442  14.176  28.498   7.243
 3927POPC   NC351443  11.073  19.463   5.445
 3927POPC   PO451444  11.054  20.149   5.421
 3927POPC   GL151445  11.240  19.850   5.750
 3927POPC   GL251446  11.495  19.604   5.647
 3927POPC   C1A51447  11.237  19.829   6.212
 3927POPC   D2A51448  11.027  19.899   6.612
 3927POPC   C3A51449  11.253  19.889   7.006
 3927POPC   C4A51450  11.138  20.104   7.414
 3927POPC   C1B51451  11.616  19.536   6.033
 3927POPC   C2B51452  11.673  19.572   6.460
 3927POPC   C3B51453  11.715  19.669   6.892
 3927POPC   C4B51454  11.567  19.482   7.245
 3928POPC   NC351455   6.997   8.194   5.254
 3928POPC   PO451456   7.678   8.341   5.455
 3928POPC   GL151457   7.447   8.066   5.723
 3928POPC   GL251458   7.147   8.215   5.842
 3928POPC   C1A51459   7.424   7.808   6.108
 3928POPC   D2A51460   7.223   7.627   6.470
 3928POPC   C3A51461   7.259   7.838   6.848
 3928POPC   C4A51462   7.371   7.783   7.265
 3928POPC   C1B51463   7.074   8.141   6.308
 3928POPC   C2B51464   7.094   8.310   6.757
 3928POPC   C3B51465   7.143   8.239   7.225
 3928POPC   C4B51466   7.208   8.499   7.631
 3929POPC   NC351467   3.200  35.151   5.600
 3929POPC   PO451468   2.630  35.348   5.303
 3929POPC   GL151469   2.653  35.322   5.777
 3929POPC   GL251470   2.942  35.458   5.912
 3929POPC   C1A51471   2.545  35.306   6.244
 3929POPC   D2A51472   2.672  35.543   6.597
 3929POPC   C3A51473   2.647  35.351   7.000
 3929POPC   C4A51474   3.040  35.363   7.160
 3929POPC   C1B51475   3.052  35.279   6.293
 3929POPC   C2B51476   2.995  35.079   6.700
 3929POPC   C3B51477   3.084  34.865   7.100
 3929POPC   C4B51478   2.897  35.054   7.524
 3930POPC   NC351479   2.271   4.249   5.394
 3930POPC   PO451480   1.882   4.768   5.278
 3930POPC   GL151481   1.809   4.518   5.685
 3930POPC   GL251482   1.864   4.150   5.705
 3930POPC   C1A51483   1.671   4.465   6.123
 3930POPC   D2A51484   1.926   4.424   6.513
 3930POPC   C3A51485   1.972   4.553   6.952
 3930POPC   C4A51486   2.338   4.388   7.169
 3930POPC   C1B51487   2.090   4.110   6.083
 3930POPC   C2B51488   2.041   3.931   6.483
 3930POPC   C3B51489   2.080   4.054   6.877
 3930POPC   C4B51490   1.834   4.068   7.224
 3931POPC   NC351491  17.322  26.726   5.451
 3931POPC   PO451492  17.865  27.184   5.495
 3931POPC   GL151493  17.567  27.021   5.819
 3931POPC   GL251494  17.577  26.668   5.868
 3931POPC   C1A51495  17.423  26.970   6.267
 3931POPC   D2A51496  17.551  26.821   6.703
 3931POPC   C3A51497  17.356  27.086   7.034
 3931POPC   C4A51498  17.348  27.112   7.469
 3931POPC   C1B51499  17.704  26.547   6.259
 3931POPC   C2B51500  18.022  26.575   6.558
 3931POPC   C3B51501  17.956  26.615   6.988
 3931POPC   C4B51502  17.638  26.722   7.297
 3932POPC   NC351503  14.815   5.900   5.394
 3932POPC   PO451504  15.527   5.885   5.300
 3932POPC   GL151505  15.393   5.963   5.777
 3932POPC   GL251506  15.027   5.973   5.867
 3932POPC   C1A51507  15.378   5.936   6.258
 3932POPC   D2A51508  15.575   5.720   6.621
 3932POPC   C3A51509  15.541   6.005   6.963
 3932POPC   C4A51510  15.084   6.056   7.066
 3932POPC   C1B51511  14.946   5.641   6.209
 3932POPC   C2B51512  15.015   5.646   6.666
 3932POPC   C3B51513  14.838   5.576   7.075
 3932POPC   C4B51514  14.658   5.834   7.356
 3933POPC   NC351515   5.783  29.368   5.345
 3933POPC   PO451516   6.194  29.027   5.728
 3933POPC   GL151517   5.788  29.173   5.824
 3933POPC   GL251518   5.595  28.918   5.640
 3933POPC   C1A51519   5.725  29.458   6.182
 3933POPC   D2A51520   5.880  29.595   6.602
 3933POPC   C3A51521   5.872  29.266   6.921
 3933POPC   C4A51522   6.143  29.153   7.250
 3933POPC   C1B51523   5.659  28.734   6.077
 3933POPC   C2B51524   5.650  28.846   6.543
 3933POPC   C3B51525   5.485  28.916   6.978
 3933POPC   C4B51526   5.625  29.092   7.374
 3934POPC   NC351527  42.723  12.138   5.504
 3934POPC   PO451528  43.383  12.401   5.498
 3934POPC   GL151529  43.129  12.188   5.841
 3934POPC   GL251530  43.211  11.848   6.049
 3934POPC   C1A51531  42.934  12.222   6.229
 3934POPC   D2A51532  43.101  12.057   6.595
 3934POPC   C3A51533  43.147  12.276   7.002
 3934POPC   C4A51534  43.203  12.371   7.477
 3934POPC   C1B51535  42.822  11.696   6.282
 3934POPC   C2B51536  42.659  11.627   6.693
 3934POPC   C3B51537  42.744  11.930   6.999
 3934POPC   C4B51538  43.054  11.890   7.314
 3935POPC   NC351539  28.623   1.307   5.239
 3935POPC   PO451540  28.187   0.822   5.414
 3935POPC   GL151541  28.441   0.896   5.771
 3935POPC   GL251542  28.260   1.209   5.914
 3935POPC   C1A51543  28.634   0.881   6.188
 3935POPC   D2A51544  28.591   1.223   6.505
 3935POPC   C3A51545  28.446   1.153   6.933
 3935POPC   C4A51546  28.269   1.214   7.313
 3935POPC   C1B51547  28.009   1.180   6.313
 3935POPC   C2B51548  27.935   1.103   6.763
 3935POPC   C3B51549  28.038   0.827   7.096
 3935POPC   C4B51550  27.931   0.832   7.572
 3936POPC   NC351551   8.720  32.812   5.424
 3936POPC   PO451552   9.272  33.149   5.520
 3936POPC   GL151553   9.050  32.933   5.807
 3936POPC   GL251554   9.325  32.856   6.014
 3936POPC   C1A51555   8.699  33.003   6.099
 3936POPC   D2A51556   8.627  33.158   6.540
 3936POPC   C3A51557   8.873  32.929   6.817
 3936POPC   C4A51558   9.064  32.888   7.195
 3936POPC   C1B51559   9.151  33.212   6.256
 3936POPC   C2B51560   9.264  33.220   6.674
 3936POPC   C3B51561   9.297  33.333   7.078
 3936POPC   C4B51562   9.419  33.185   7.475
 3937POPC   NC351563  44.109  26.019   5.377
 3937POPC   PO451564  43.570  25.647   5.540
 3937POPC   GL151565  43.865  25.807   5.825
 3937POPC   GL251566  43.824  26.150   5.788
 3937POPC   C1A51567  43.827  25.967   6.268
 3937POPC   D2A51568  44.072  26.105   6.585
 3937POPC   C3A51569  43.799  26.021   6.880
 3937POPC   C4A51570  43.752  25.888   7.292
 3937POPC   C1B51571  43.604  26.382   6.101
 3937POPC   C2B51572  43.506  26.276   6.539
 3937POPC   C3B51573  43.556  26.477   6.919
 3937POPC   C4B51574  43.580  26.476   7.341
 3938POPC   NC351575  16.243  32.793   5.548
 3938POPC   PO451576  15.892  33.362   5.276
 3938POPC   GL151577  15.855  33.122   5.694
 3938POPC   GL251578  16.131  33.216   5.872
 3938POPC   C1A51579  15.830  32.885   6.146
 3938POPC   D2A51580  15.708  33.066   6.585
 3938POPC   C3A51581  15.834  32.967   6.968
 3938POPC   C4A51582  16.117  32.904   7.232
 3938POPC   C1B51583  16.011  33.350   6.272
 3938POPC   C2B51584  16.223  33.236   6.689
 3938POPC   C3B51585  16.090  33.406   7.088
 3938POPC   C4B51586  15.713  33.375   7.308
 3939POPC   NC351587  10.276  37.810   5.477
 3939POPC   PO451588  10.707  37.357   5.439
 3939POPC   GL151589  10.616  37.562   5.881
 3939POPC   GL251590  10.425  37.906   5.952
 3939POPC   C1A51591  10.730  37.303   6.265
 3939POPC   D2A51592  10.805  37.080   6.666
 3939POPC   C3A51593  10.649  37.339   7.017
 3939POPC   C4A51594  10.582  37.622   7.370
 3939POPC   C1B51595  10.591  37.835   6.380
 3939POPC   C2B51596  10.548  37.840   6.850
 3939POPC   C3B51597  10.471  38.100   7.229
 3939POPC   C4B51598  10.161  38.130   7.583
 3940POPC   NC351599  33.620  16.979   5.513
 3940POPC   PO451600  34.198  16.808   5.412
 3940POPC   GL151601  34.057  16.602   5.811
 3940POPC   GL251602  33.692  16.555   5.828
 3940POPC   C1A51603  34.068  16.436   6.244
 3940POPC   D2A51604  33.939  16.593   6.665
 3940POPC   C3A51605  34.039  16.805   7.069
 3940POPC   C4A51606  33.786  17.099   7.289
 3940POPC   C1B51607  33.539  16.311   6.179
 3940POPC   C2B51608  33.461  16.397   6.625
 3940POPC   C3B51609  33.541  16.606   7.035
 3940POPC   C4B51610  33.495  16.639   7.480
 3941POPC   NC351611  11.752  12.852   5.373
 3941POPC   PO451612  11.085  12.982   5.346
 3941POPC   GL151613  11.353  12.801   5.705
 3941POPC   GL251614  11.694  12.916   5.875
 3941POPC   C1A51615  11.309  12.641   6.119
 3941POPC   D2A51616  11.166  12.804   6.495
 3941POPC   C3A51617  11.122  12.573   6.839
 3941POPC   C4A51618  11.051  12.758   7.235
 3941POPC   C1B51619  11.801  12.652   6.261
 3941POPC   C2B51620  11.637  12.642   6.699
 3941POPC   C3B51621  11.415  12.983   6.941
 3941POPC   C4B51622  11.428  13.089   7.404
 3942POPC   NC351623  11.092  28.347   5.411
 3942POPC   PO451624  11.633  28.670   5.454
 3942POPC   GL151625  11.474  28.343   5.754
 3942POPC   GL251626  11.121  28.346   5.917
 3942POPC   C1A51627  11.570  28.200   6.157
 3942POPC   D2A51628  11.606  28.416   6.551
 3942POPC   C3A51629  11.591  28.190   6.932
 3942POPC   C4A51630  11.377  28.370   7.271
 3942POPC   C1B51631  11.129  28.362   6.364
 3942POPC   C2B51632  11.143  28.412   6.793
 3942POPC   C3B51633  11.086  28.723   7.068
 3942POPC   C4B51634  10.934  28.715   7.516
 3943POPC   NC351635  14.134  27.157   5.259
 3943POPC   PO451636  13.571  26.862   5.415
 3943POPC   GL151637  13.576  26.845   5.849
 3943POPC   GL251638  13.381  27.063   5.871
 3943POPC   C1A51639  13.730  26.759   6.263
 3943POPC   D2A51640  13.986  26.823   6.625
 3943POPC   C3A51641  13.815  26.783   7.049
 3943POPC   C4A51642  13.681  26.828   7.501
 3943POPC   C1B51643  13.362  27.098   6.290
 3943POPC   C2B51644  13.454  26.952   6.705
 3943POPC   C3B51645  13.352  27.028   7.155
 3943POPC   C4B51646  13.288  27.197   7.579
 3944POPC   NC351647  35.708  25.082   5.436
 3944POPC   PO451648  35.312  25.614   5.452
 3944POPC   GL151649  35.437  25.336   5.780
 3944POPC   GL251650  35.755  25.497   5.800
 3944POPC   C1A51651  35.264  25.141   6.150
 3944POPC   D2A51652  35.104  25.199   6.556
 3944POPC   C3A51653  35.147  24.868   6.839
 3944POPC   C4A51654  35.100  24.867   7.262
 3944POPC   C1B51655  35.635  25.450   6.252
 3944POPC   C2B51656  35.616  25.120   6.588
 3944POPC   C3B51657  35.443  25.243   6.986
 3944POPC   C4B51658  35.470  25.220   7.399
 3945POPC   NC351659   6.079  37.020   5.515
 3945POPC   PO451660   5.812  36.451   5.164
 3945POPC   GL151661   5.825  36.547   5.631
 3945POPC   GL251662   5.710  36.871   5.810
 3945POPC   C1A51663   5.782  36.479   6.109
 3945POPC   D2A51664   5.948  36.624   6.508
 3945POPC   C3A51665   5.765  36.527   6.862
 3945POPC   C4A51666   5.709  36.715   7.238
 3945POPC   C1B51667   6.016  36.983   6.155
 3945POPC   C2B51668   6.183  37.087   6.586
 3945POPC   C3B51669   5.930  37.272   6.927
 3945POPC   C4B51670   5.530  37.470   7.044
 3946POPC   NC351671  36.857  41.075   5.385
 3946POPC   PO451672  37.385  40.741   5.351
 3946POPC   GL151673  37.123  40.515   5.735
 3946POPC   GL251674  37.361  40.235   5.860
 3946POPC   C1A51675  36.775  40.527   6.121
 3946POPC   D2A51676  36.540  40.667   6.564
 3946POPC   C3A51677  36.779  40.774   6.968
 3946POPC   C4A51678  37.153  41.043   7.049
 3946POPC   C1B51679  37.269  40.495   6.221
 3946POPC   C2B51680  37.144  40.663   6.613
 3946POPC   C3B51681  37.230  40.506   7.023
 3946POPC   C4B51682  37.420  40.673   7.374
 3947POPC   NC351683  22.570  11.269   5.381
 3947POPC   PO451684  23.167  10.945   5.298
 3947POPC   GL151685  23.058  11.055   5.772
 3947POPC   GL251686  22.846  11.337   5.803
 3947POPC   C1A51687  22.971  11.190   6.265
 3947POPC   D2A51688  23.156  11.250   6.703
 3947POPC   C3A51689  23.049  11.293   7.186
 3947POPC   C4A51690  23.159  11.494   7.626
 3947POPC   C1B51691  22.478  11.171   6.041
 3947POPC   C2B51692  22.382  11.247   6.477
 3947POPC   C3B51693  22.574  11.319   6.874
 3947POPC   C4B51694  22.554  11.459   7.282
 3948POPC   NC351695  14.841  24.355   5.384
 3948POPC   PO451696  15.267  24.692   5.796
 3948POPC   GL151697  15.311  24.265   5.863
 3948POPC   GL251698  14.997  24.103   5.792
 3948POPC   C1A51699  15.260  24.292   6.297
 3948POPC   D2A51700  14.953  24.574   6.462
 3948POPC   C3A51701  14.985  24.704   6.864
 3948POPC   C4A51702  15.231  24.583   7.172
 3948POPC   C1B51703  14.770  24.189   6.163
 3948POPC   C2B51704  14.743  24.120   6.614
 3948POPC   C3B51705  14.519  24.308   6.949
 3948POPC   C4B51706  14.667  24.595   7.248
 3949POPC   NC351707   6.026  12.651   5.319
 3949POPC   PO451708   5.922  11.967   5.425
 3949POPC   GL151709   5.867  12.019   5.816
 3949POPC   GL251710   6.075  12.334   5.798
 3949POPC   C1A51711   5.618  11.863   6.160
 3949POPC   D2A51712   5.538  12.093   6.538
 3949POPC   C3A51713   5.818  11.963   6.839
 3949POPC   C4A51714   5.820  12.007   7.258
 3949POPC   C1B51715   5.962  12.269   6.252
 3949POPC   C2B51716   5.912  12.471   6.666
 3949POPC   C3B51717   5.810  12.506   7.109
 3949POPC   C4B51718   5.827  12.492   7.556
 3950POPC   NC351719  24.197  31.852   5.529
 3950POPC   PO451720  24.603  32.396   5.374
 3950POPC   GL151721  24.533  32.179   5.765
 3950POPC   GL251722  24.849  32.241   5.898
 3950POPC   C1A51723  24.380  32.217   6.200
 3950POPC   D2A51724  24.300  32.017   6.623
 3950POPC   C3A51725  24.237  32.286   6.955
 3950POPC   C4A51726  24.393  32.405   7.304
 3950POPC   C1B51727  24.771  31.884   6.169
 3950POPC   C2B51728  24.776  31.800   6.606
 3950POPC   C3B51729  24.703  32.064   6.978
 3950POPC   C4B51730  24.869  32.241   7.390
 3951POPC   NC351731  39.199  22.363   5.271
 3951POPC   PO451732  39.214  21.691   5.347
 3951POPC   GL151733  39.095  22.022   5.713
 3951POPC   GL251734  39.140  22.433   5.784
 3951POPC   C1A51735  39.119  22.108   6.173
 3951POPC   D2A51736  39.336  22.233   6.537
 3951POPC   C3A51737  39.208  22.219   6.933
 3951POPC   C4A51738  39.342  21.907   7.206
 3951POPC   C1B51739  39.467  22.527   6.137
 3951POPC   C2B51740  39.549  22.705   6.587
 3951POPC   C3B51741  39.533  22.612   7.064
 3951POPC   C4B51742  39.203  22.438   7.400
 3952POPC   NC351743  43.440  33.817   5.019
 3952POPC   PO451744  42.835  33.931   5.189
 3952POPC   GL151745  42.923  33.727   5.603
 3952POPC   GL251746  43.187  33.919   5.705
 3952POPC   C1A51747  42.830  33.742   6.092
 3952POPC   D2A51748  42.667  33.751   6.541
 3952POPC   C3A51749  42.930  33.653   6.949
 3952POPC   C4A51750  43.138  33.706   7.378
 3952POPC   C1B51751  43.345  33.715   6.090
 3952POPC   C2B51752  43.460  33.944   6.442
 3952POPC   C3B51753  43.412  33.834   6.866
 3952POPC   C4B51754  43.622  33.697   7.214
 3953POPC   NC351755  42.889  24.156   5.395
 3953POPC   PO451756  43.142  23.508   5.429
 3953POPC   GL151757  43.223  23.878   5.730
 3953POPC   GL251758  43.389  23.630   5.927
 3953POPC   C1A51759  43.175  23.998   6.190
 3953POPC   D2A51760  43.079  23.700   6.538
 3953POPC   C3A51761  43.216  23.783   6.958
 3953POPC   C4A51762  43.030  24.061   7.248
 3953POPC   C1B51763  43.264  23.344   6.228
 3953POPC   C2B51764  43.476  23.397   6.635
 3953POPC   C3B51765  43.351  23.288   7.019
 3953POPC   C4B51766  43.532  23.511   7.331
 3954POPC   NC351767  17.690  29.322   5.509
 3954POPC   PO451768  17.230  28.811   5.415
 3954POPC   GL151769  17.422  28.985   5.782
 3954POPC   GL251770  17.151  29.174   5.823
 3954POPC   C1A51771  17.498  29.160   6.204
 3954POPC   D2A51772  17.447  28.890   6.568
 3954POPC   C3A51773  17.502  29.119   6.875
 3954POPC   C4A51774  17.475  29.236   7.275
 3954POPC   C1B51775  17.101  28.849   6.167
 3954POPC   C2B51776  16.975  29.094   6.485
 3954POPC   C3B51777  16.990  28.989   6.878
 3954POPC   C4B51778  17.252  28.793   7.168
 3955POPC   NC351779  15.669  19.163   5.710
 3955POPC   PO451780  14.985  18.992   5.507
 3955POPC   GL151781  15.201  19.005   5.835
 3955POPC   GL251782  15.213  19.354   5.803
 3955POPC   C1A51783  15.314  18.949   6.253
 3955POPC   D2A51784  15.206  18.752   6.635
 3955POPC   C3A51785  15.387  18.932   6.983
 3955POPC   C4A51786  15.179  18.866   7.335
 3955POPC   C1B51787  15.315  19.480   6.225
 3955POPC   C2B51788  15.155  19.340   6.631
 3955POPC   C3B51789  15.254  19.430   7.068
 3955POPC   C4B51790  15.183  19.343   7.498
 3956POPC   NC351791  38.756  40.548   5.161
 3956POPC   PO451792  38.324  40.896   5.547
 3956POPC   GL151793  38.464  40.934   5.927
 3956POPC   GL251794  38.689  40.648   5.829
 3956POPC   C1A51795  38.226  40.899   6.310
 3956POPC   D2A51796  38.403  40.980   6.689
 3956POPC   C3A51797  38.197  40.832   7.040
 3956POPC   C4A51798  38.430  40.828   7.420
 3956POPC   C1B51799  38.647  40.600   6.291
 3956POPC   C2B51800  38.462  40.452   6.668
 3956POPC   C3B51801  38.547  40.463   7.087
 3956POPC   C4B51802  38.424  40.313   7.505
 3957POPC   NC351803  18.095   2.099   5.380
 3957POPC   PO451804  18.661   2.320   5.568
 3957POPC   GL151805  18.322   2.212   5.838
 3957POPC   GL251806  18.304   1.850   5.834
 3957POPC   C1A51807  18.367   2.166   6.263
 3957POPC   D2A51808  18.449   1.963   6.621
 3957POPC   C3A51809  18.272   2.160   6.958
 3957POPC   C4A51810  18.330   2.043   7.352
 3957POPC   C1B51811  18.226   1.646   6.252
 3957POPC   C2B51812  18.037   1.678   6.663
 3957POPC   C3B51813  18.170   1.643   7.085
 3957POPC   C4B51814  17.984   1.700   7.530
 3958POPC   NC351815  39.771  37.491   5.190
 3958POPC   PO451816  40.359  37.710   5.438
 3958POPC   GL151817  39.932  37.835   5.620
 3958POPC   GL251818  39.758  37.524   5.724
 3958POPC   C1A51819  39.737  37.973   6.025
 3958POPC   D2A51820  39.940  37.886   6.453
 3958POPC   C3A51821  39.815  37.932   6.886
 3958POPC   C4A51822  40.030  37.957   7.278
 3958POPC   C1B51823  40.080  37.562   6.076
 3958POPC   C2B51824  40.198  37.398   6.520
 3958POPC   C3B51825  40.106  37.476   6.980
 3958POPC   C4B51826  39.830  37.347   7.301
 3959POPC   NC351827   4.366  36.166   5.380
 3959POPC   PO451828   4.749  35.742   5.718
 3959POPC   GL151829   4.548  36.108   5.882
 3959POPC   GL251830   4.188  36.201   5.860
 3959POPC   C1A51831   4.733  36.276   6.236
 3959POPC   D2A51832   4.758  36.474   6.640
 3959POPC   C3A51833   4.718  36.177   6.978
 3959POPC   C4A51834   4.638  35.785   7.199
 3959POPC   C1B51835   4.210  36.149   6.303
 3959POPC   C2B51836   4.180  36.241   6.747
 3959POPC   C3B51837   4.236  36.156   7.202
 3959POPC   C4B51838   4.146  36.359   7.633
 3960POPC   NC351839  33.104  11.092   4.996
 3960POPC   PO451840  32.936  11.570   5.523
 3960POPC   GL151841  33.207  11.376   5.805
 3960POPC   GL251842  33.381  11.051   5.737
 3960POPC   C1A51843  33.142  11.417   6.245
 3960POPC   D2A51844  33.086  11.664   6.596
 3960POPC   C3A51845  32.799  11.527   6.936
 3960POPC   C4A51846  32.876  11.412   7.349
 3960POPC   C1B51847  33.442  11.013   6.195
 3960POPC   C2B51848  33.210  10.960   6.595
 3960POPC   C3B51849  33.205  11.106   7.066
 3960POPC   C4B51850  33.437  11.106   7.481
 3961POPC   NC351851  12.421  24.047   5.452
 3961POPC   PO451852  12.028  23.582   5.212
 3961POPC   GL151853  12.109  23.702   5.697
 3961POPC   GL251854  11.823  23.845   5.899
 3961POPC   C1A51855  12.202  23.596   6.162
 3961POPC   D2A51856  12.387  23.640   6.595
 3961POPC   C3A51857  12.238  23.751   7.033
 3961POPC   C4A51858  11.983  23.664   7.406
 3961POPC   C1B51859  11.904  24.012   6.260
 3961POPC   C2B51860  11.929  23.912   6.671
 3961POPC   C3B51861  11.691  23.834   7.040
 3961POPC   C4B51862  11.467  23.675   7.420
 3962POPC   NC351863  17.877  39.506   5.473
 3962POPC   PO451864  17.496  38.970   5.469
 3962POPC   GL151865  17.768  39.113   5.812
 3962POPC   GL251866  18.032  38.909   5.948
 3962POPC   C1A51867  17.566  39.355   6.142
 3962POPC   D2A51868  17.282  39.488   6.441
 3962POPC   C3A51869  17.139  39.366   6.852
 3962POPC   C4A51870  17.226  39.421   7.283
 3962POPC   C1B51871  17.965  39.135   6.324
 3962POPC   C2B51872  17.755  39.374   6.667
 3962POPC   C3B51873  17.691  39.394   7.109
 3962POPC   C4B51874  17.777  39.335   7.567
 3963POPC   NC351875  20.645  20.224   5.771
 3963POPC   PO451876  20.906  19.755   5.370
 3963POPC   GL151877  20.890  19.668   5.832
 3963POPC   GL251878  20.535  19.626   5.834
 3963POPC   C1A51879  20.832  19.812   6.301
 3963POPC   D2A51880  20.576  19.842   6.703
 3963POPC   C3A51881  20.686  19.939   7.151
 3963POPC   C4A51882  20.557  20.068   7.565
 3963POPC   C1B51883  20.390  19.487   6.247
 3963POPC   C2B51884  20.495  19.343   6.674
 3963POPC   C3B51885  20.404  19.524   7.094
 3963POPC   C4B51886  20.577  19.524   7.525
 3964POPC   NC351887  10.745  23.424   5.439
 3964POPC   PO451888  10.277  22.858   5.358
 3964POPC   GL151889  10.440  22.940   5.764
 3964POPC   GL251890  10.380  23.275   5.794
 3964POPC   C1A51891  10.349  22.983   6.217
 3964POPC   D2A51892  10.487  22.835   6.618
 3964POPC   C3A51893  10.379  23.002   6.994
 3964POPC   C4A51894  10.426  22.876   7.433
 3964POPC   C1B51895  10.700  23.359   6.091
 3964POPC   C2B51896  10.806  23.184   6.459
 3964POPC   C3B51897  10.794  23.304   6.855
 3964POPC   C4B51898  10.743  23.242   7.260
 3965POPC   NC351899  12.097   9.767   5.246
 3965POPC   PO451900  11.769  10.238   5.542
 3965POPC   GL151901  11.992   9.995   5.882
 3965POPC   GL251902  11.959   9.646   5.812
 3965POPC   C1A51903  12.174   9.948   6.309
 3965POPC   D2A51904  12.224   9.667   6.695
 3965POPC   C3A51905  12.135   9.839   7.094
 3965POPC   C4A51906  12.236  10.211   7.260
 3965POPC   C1B51907  12.049   9.460   6.224
 3965POPC   C2B51908  11.906   9.271   6.627
 3965POPC   C3B51909  11.853   9.422   7.039
 3965POPC   C4B51910  12.004   9.454   7.479
 3966POPC   NC351911  13.913  39.343   5.626
 3966POPC   PO451912  13.344  39.349   5.239
 3966POPC   GL151913  13.415  39.255   5.662
 3966POPC   GL251914  13.602  38.922   5.735
 3966POPC   C1A51915  13.475  39.529   6.074
 3966POPC   D2A51916  13.326  39.526   6.505
 3966POPC   C3A51917  13.572  39.599   6.862
 3966POPC   C4A51918  13.638  39.392   7.269
 3966POPC   C1B51919  13.745  39.027   6.173
 3966POPC   C2B51920  13.801  39.246   6.568
 3966POPC   C3B51921  13.989  39.167   6.994
 3966POPC   C4B51922  13.937  38.991   7.450
 3967POPC   NC351923  14.364  37.578   5.450
 3967POPC   PO451924  14.170  38.164   5.422
 3967POPC   GL151925  14.202  37.982   5.836
 3967POPC   GL251926  14.029  37.680   5.843
 3967POPC   C1A51927  14.471  37.756   6.147
 3967POPC   D2A51928  14.748  37.857   6.488
 3967POPC   C3A51929  14.566  37.840   6.903
 3967POPC   C4A51930  14.625  37.608   7.271
 3967POPC   C1B51931  14.002  37.548   6.229
 3967POPC   C2B51932  14.163  37.737   6.598
 3967POPC   C3B51933  13.951  37.770   6.997
 3967POPC   C4B51934  13.828  37.703   7.458
 3968POPC   NC351935   9.000   7.933   5.198
 3968POPC   PO451936   8.900   7.314   5.280
 3968POPC   GL151937   8.962   7.437   5.719
 3968POPC   GL251938   8.639   7.583   5.907
 3968POPC   C1A51939   9.100   7.448   6.144
 3968POPC   D2A51940   8.864   7.550   6.492
 3968POPC   C3A51941   9.063   7.552   6.878
 3968POPC   C4A51942   9.251   7.540   7.261
 3968POPC   C1B51943   8.565   7.237   6.174
 3968POPC   C2B51944   8.497   7.203   6.609
 3968POPC   C3B51945   8.597   7.404   6.999
 3968POPC   C4B51946   8.876   7.190   7.251
 3969POPC   NC351947  31.607  32.105   5.458
 3969POPC   PO451948  31.121  32.440   5.548
 3969POPC   GL151949  31.230  32.147   5.882
 3969POPC   GL251950  31.605  32.084   5.958
 3969POPC   C1A51951  31.220  32.245   6.341
 3969POPC   D2A51952  31.133  32.544   6.695
 3969POPC   C3A51953  31.366  32.527   7.100
 3969POPC   C4A51954  31.302  32.310   7.543
 3969POPC   C1B51955  31.677  32.043   6.424
 3969POPC   C2B51956  31.447  32.076   6.793
 3969POPC   C3B51957  31.533  32.019   7.211
 3969POPC   C4B51958  31.705  32.008   7.649
 3970POPC   NC351959  42.903  18.164   5.278
 3970POPC   PO451960  43.444  18.460   5.468
 3970POPC   GL151961  43.208  18.306   5.831
 3970POPC   GL251962  42.836  18.309   5.793
 3970POPC   C1A51963  43.260  18.305   6.284
 3970POPC   D2A51964  43.181  18.341   6.755
 3970POPC   C3A51965  43.313  18.147   7.150
 3970POPC   C4A51966  43.401  18.279   7.617
 3970POPC   C1B51967  42.728  18.362   6.254
 3970POPC   C2B51968  42.670  18.423   6.696
 3970POPC   C3B51969  42.793  18.114   7.022
 3970POPC   C4B51970  42.935  18.174   7.468
 3971POPC   NC351971  31.601  37.371   5.180
 3971POPC   PO451972  31.537  36.722   5.393
 3971POPC   GL151973  31.583  36.761   5.849
 3971POPC   GL251974  31.602  37.134   5.914
 3971POPC   C1A51975  31.433  36.660   6.270
 3971POPC   D2A51976  31.517  36.392   6.613
 3971POPC   C3A51977  31.599  36.542   7.031
 3971POPC   C4A51978  31.363  36.884   7.180
 3971POPC   C1B51979  31.879  37.314   6.224
 3971POPC   C2B51980  31.853  37.231   6.669
 3971POPC   C3B51981  31.842  37.065   7.073
 3971POPC   C4B51982  31.773  37.167   7.487
 3972POPC   NC351983   2.174  22.763   5.208
 3972POPC   PO451984   1.643  23.105   5.430
 3972POPC   GL151985   1.849  22.886   5.764
 3972POPC   GL251986   2.219  22.844   5.713
 3972POPC   C1A51987   1.968  23.034   6.176
 3972POPC   D2A51988   1.921  23.234   6.568
 3972POPC   C3A51989   1.778  22.984   6.894
 3972POPC   C4A51990   1.852  23.038   7.290
 3972POPC   C1B51991   2.364  22.713   6.113
 3972POPC   C2B51992   2.296  22.859   6.551
 3972POPC   C3B51993   2.304  22.825   7.010
 3972POPC   C4B51994   2.549  22.547   7.275
 3973POPC   NC351995  28.526  34.616   5.309
 3973POPC   PO451996  27.941  34.916   5.413
 3973POPC   GL151997  28.171  34.585   5.681
 3973POPC   GL251998  28.527  34.690   5.817
 3973POPC   C1A51999  28.204  34.430   6.103
 3973POPC   D2A52000  28.385  34.527   6.491
 3973POPC   C3A52001  28.295  34.300   6.870
 3973POPC   C4A52002  28.153  34.525   7.230
 3973POPC   C1B52003  28.749  34.420   6.120
 3973POPC   C2B52004  28.802  34.255   6.551
 3973POPC   C3B52005  28.752  34.548   6.897
 3973POPC   C4B52006  28.652  34.351   7.267
 3974POPC   NC352007  42.553   3.590   5.277
 3974POPC   PO452008  42.078   3.178   5.512
 3974POPC   GL152009  42.415   3.467   5.732
 3974POPC   GL252010  42.429   3.826   5.734
 3974POPC   C1A52011  42.606   3.477   6.147
 3974POPC   D2A52012  42.448   3.289   6.528
 3974POPC   C3A52013  42.355   3.493   6.936
 3974POPC   C4A52014  42.103   3.334   7.303
 3974POPC   C1B52015  42.164   3.740   6.148
 3974POPC   C2B52016  42.066   3.846   6.621
 3974POPC   C3B52017  41.982   3.808   7.107
 3974POPC   C4B52018  42.159   3.800   7.551
 3975POPC   NC352019  42.481  36.997   5.383
 3975POPC   PO452020  42.869  36.428   5.403
 3975POPC   GL152021  42.600  36.646   5.749
 3975POPC   GL252022  42.214  36.779   5.745
 3975POPC   C1A52023  42.584  36.951   6.109
 3975POPC   D2A52024  42.487  37.190   6.514
 3975POPC   C3A52025  42.447  36.934   6.918
 3975POPC   C4A52026  42.362  36.613   7.278
 3975POPC   C1B52027  42.065  36.970   6.126
 3975POPC   C2B52028  42.044  36.953   6.579
 3975POPC   C3B52029  41.968  36.780   6.999
 3975POPC   C4B52030  42.166  37.065   7.338
 3976POPC   NC352031  39.728  25.235   5.349
 3976POPC   PO452032  40.348  25.136   5.477
 3976POPC   GL152033  40.020  25.129   5.764
 3976POPC   GL252034  39.987  25.491   5.742
 3976POPC   C1A52035  39.993  25.097   6.212
 3976POPC   D2A52036  40.065  25.343   6.603
 3976POPC   C3A52037  39.941  25.069   6.943
 3976POPC   C4A52038  40.281  24.903   7.202
 3976POPC   C1B52039  39.792  25.563   6.156
 3976POPC   C2B52040  39.568  25.404   6.524
 3976POPC   C3B52041  39.702  25.550   6.941
 3976POPC   C4B52042  39.753  25.449   7.387
 3977POPC   NC352043  17.125  24.696   5.059
 3977POPC   PO452044  17.699  24.598   5.455
 3977POPC   GL152045  17.380  24.605   5.822
 3977POPC   GL252046  17.347  24.297   5.981
 3977POPC   C1A52047  17.234  24.793   6.264
 3977POPC   D2A52048  17.187  24.771   6.756
 3977POPC   C3A52049  17.511  24.895   7.107
 3977POPC   C4A52050  17.433  24.848   7.596
 3977POPC   C1B52051  17.659  24.494   6.261
 3977POPC   C2B52052  17.706  24.614   6.704
 3977POPC   C3B52053  17.642  24.386   7.089
 3977POPC   C4B52054  17.731  24.416   7.510
 3978POPC   NC352055   6.312  27.859   5.485
 3978POPC   PO452056   5.711  27.617   5.482
 3978POPC   GL152057   5.784  27.709   5.874
 3978POPC   GL252058   6.091  27.499   5.839
 3978POPC   C1A52059   5.657  27.768   6.303
 3978POPC   D2A52060   5.876  27.843   6.695
 3978POPC   C3A52061   5.749  27.619   7.054
 3978POPC   C4A52062   5.541  27.232   7.156
 3978POPC   C1B52063   6.139  27.658   6.250
 3978POPC   C2B52064   6.312  27.524   6.647
 3978POPC   C3B52065   6.197  27.410   7.057
 3978POPC   C4B52066   6.091  27.726   7.424
 3979POPC   NC352067  20.647   1.402   5.331
 3979POPC   PO452068  21.181   1.270   5.610
 3979POPC   GL152069  20.784   1.172   5.803
 3979POPC   GL252070  20.424   1.136   5.742
 3979POPC   C1A52071  20.725   1.011   6.190
 3979POPC   D2A52072  20.808   1.239   6.528
 3979POPC   C3A52073  20.810   1.009   6.854
 3979POPC   C4A52074  20.763   0.864   7.229
 3979POPC   C1B52075  20.328   1.321   6.164
 3979POPC   C2B52076  20.173   1.171   6.597
 3979POPC   C3B52077  20.303   1.110   7.058
 3979POPC   C4B52078  20.411   1.388   7.470
 3980POPC   NC352079  22.374  23.417   5.527
 3980POPC   PO452080  22.014  23.979   5.391
 3980POPC   GL152081  21.995  23.780   5.774
 3980POPC   GL252082  22.099  24.065   5.959
 3980POPC   C1A52083  21.994  23.565   6.176
 3980POPC   D2A52084  22.047  23.780   6.566
 3980POPC   C3A52085  21.865  23.632   6.933
 3980POPC   C4A52086  21.938  23.599   7.351
 3980POPC   C1B52087  22.430  23.794   6.179
 3980POPC   C2B52088  22.579  23.733   6.603
 3980POPC   C3B52089  22.370  23.711   7.006
 3980POPC   C4B52090  22.340  23.917   7.443
 3981POPC   NC352091  43.187   8.018   5.544
 3981POPC   PO452092  43.538   8.580   5.483
 3981POPC   GL152093  43.429   8.334   5.861
 3981POPC   GL252094  43.084   8.372   6.012
 3981POPC   C1A52095  43.335   8.002   6.206
 3981POPC   D2A52096  42.996   8.138   6.478
 3981POPC   C3A52097  43.192   8.196   6.862
 3981POPC   C4A52098  43.328   8.142   7.248
 3981POPC   C1B52099  42.909   8.647   6.301
 3981POPC   C2B52100  43.022   8.707   6.711
 3981POPC   C3B52101  42.787   8.479   7.007
 3981POPC   C4B52102  42.911   8.382   7.408
 3982POPC   NC352103  16.765  28.973   5.359
 3982POPC   PO452104  16.670  29.597   5.465
 3982POPC   GL152105  16.622  29.238   5.798
 3982POPC   GL252106  16.745  28.874   5.830
 3982POPC   C1A52107  16.559  29.311   6.240
 3982POPC   D2A52108  16.730  29.534   6.600
 3982POPC   C3A52109  16.669  29.386   7.020
 3982POPC   C4A52110  16.973  29.257   7.326
 3982POPC   C1B52111  16.554  28.814   6.210
 3982POPC   C2B52112  16.666  28.700   6.584
 3982POPC   C3B52113  16.498  28.676   6.949
 3982POPC   C4B52114  16.693  28.862   7.263
 3983POPC   NC352115  36.732  37.169   5.306
 3983POPC   PO452116  37.112  36.565   5.249
 3983POPC   GL152117  36.828  36.780   5.602
 3983POPC   GL252118  37.006  37.105   5.741
 3983POPC   C1A52119  36.591  36.950   5.990
 3983POPC   D2A52120  36.379  36.952   6.416
 3983POPC   C3A52121  36.535  36.982   6.863
 3983POPC   C4A52122  36.698  36.903   7.270
 3983POPC   C1B52123  37.058  37.054   6.227
 3983POPC   C2B52124  37.023  36.943   6.670
 3983POPC   C3B52125  37.166  37.011   7.080
 3983POPC   C4B52126  37.187  36.890   7.461
 3984POPC   NC352127   4.239   0.091   5.389
 3984POPC   PO452128   4.657   0.561   5.367
 3984POPC   GL152129   4.588   0.392   5.795
 3984POPC   GL252130   4.459   0.717   5.862
 3984POPC   C1A52131   4.393   0.426   6.265
 3984POPC   D2A52132   4.019   0.533   6.565
 3984POPC   C3A52133   4.073   0.423   7.006
 3984POPC   C4A52134   4.417   0.284   7.277
 3984POPC   C1B52135   4.138   0.884   6.138
 3984POPC   C2B52136   4.201   1.026   6.553
 3984POPC   C3B52137   4.310   0.885   6.965
 3984POPC   C4B52138   4.136   0.811   7.349
 3985POPC   NC352139  10.960   5.756   5.519
 3985POPC   PO452140  10.313   6.155   5.379
 3985POPC   GL152141  10.460   5.983   5.764
 3985POPC   GL252142  10.176   5.733   5.804
 3985POPC   C1A52143  10.757   6.078   6.107
 3985POPC   D2A52144  10.757   6.142   6.556
 3985POPC   C3A52145  10.646   5.774   6.809
 3985POPC   C4A52146  10.746   5.745   7.231
 3985POPC   C1B52147  10.395   5.700   6.192
 3985POPC   C2B52148  10.328   5.442   6.529
 3985POPC   C3B52149  10.118   5.563   6.819
 3985POPC   C4B52150  10.255   5.563   7.209
 3986POPC   NC352151  35.823   7.789   5.522
 3986POPC   PO452152  35.111   7.383   5.485
 3986POPC   GL152153  35.382   7.584   5.778
 3986POPC   GL252154  35.604   7.290   5.785
 3986POPC   C1A52155  35.582   7.694   6.181
 3986POPC   D2A52156  35.698   7.564   6.608
 3986POPC   C3A52157  35.482   7.662   6.984
 3986POPC   C4A52158  35.599   7.505   7.386
 3986POPC   C1B52159  35.316   7.231   6.171
 3986POPC   C2B52160  35.315   7.202   6.638
 3986POPC   C3B52161  35.303   7.190   7.097
 3986POPC   C4B52162  35.258   7.169   7.548
 3987POPC   NC352163  23.641  36.472   5.388
 3987POPC   PO452164  23.880  37.175   5.501
 3987POPC   GL152165  23.724  36.978   5.889
 3987POPC   GL252166  23.535  36.642   5.856
 3987POPC   C1A52167  23.827  37.100   6.340
 3987POPC   D2A52168  23.682  37.268   6.758
 3987POPC   C3A52169  23.777  36.956   7.073
 3987POPC   C4A52170  23.684  36.525   7.128
 3987POPC   C1B52171  23.767  36.589   6.252
 3987POPC   C2B52172  23.977  36.618   6.669
 3987POPC   C3B52173  24.188  36.569   7.062
 3987POPC   C4B52174  24.051  36.506   7.493
 3988POPC   NC352175  10.266  24.866   5.338
 3988POPC   PO452176  10.840  24.590   5.426
 3988POPC   GL152177  10.626  24.624   5.806
 3988POPC   GL252178  10.322  24.457   5.884
 3988POPC   C1A52179  10.720  24.436   6.215
 3988POPC   D2A52180  10.611  24.306   6.650
 3988POPC   C3A52181  10.782  24.605   6.961
 3988POPC   C4A52182  10.654  24.747   7.377
 3988POPC   C1B52183  10.304  24.142   6.254
 3988POPC   C2B52184  10.226  23.910   6.627
 3988POPC   C3B52185  10.270  24.054   7.054
 3988POPC   C4B52186  10.604  24.240   7.305
 3989POPC   NC352187  42.549  22.444   5.489
 3989POPC   PO452188  42.020  22.114   5.256
 3989POPC   GL152189  42.205  22.095   5.729
 3989POPC   GL252190  42.563  21.969   5.830
 3989POPC   C1A52191  42.358  22.316   6.132
 3989POPC   D2A52192  42.521  22.370   6.526
 3989POPC   C3A52193  42.368  22.150   6.844
 3989POPC   C4A52194  42.340  22.253   7.266
 3989POPC   C1B52195  42.739  21.910   6.282
 3989POPC   C2B52196  42.846  21.858   6.737
 3989POPC   C3B52197  42.706  21.910   7.169
 3989POPC   C4B52198  42.634  21.958   7.634
 3990POPC   NC352199   7.580  28.771   5.418
 3990POPC   PO452200   7.467  28.211   5.080
 3990POPC   GL152201   7.660  28.269   5.550
 3990POPC   GL252202   7.417  28.447   5.756
 3990POPC   C1A52203   7.771  28.182   6.041
 3990POPC   D2A52204   7.595  28.004   6.439
 3990POPC   C3A52205   7.579  28.128   6.883
 3990POPC   C4A52206   7.636  28.456   7.230
 3990POPC   C1B52207   7.297  28.373   6.175
 3990POPC   C2B52208   7.151  28.276   6.599
 3990POPC   C3B52209   7.162  28.375   7.042
 3990POPC   C4B52210   7.252  28.155   7.445
 3991POPC   NC352211  40.402  18.016   5.551
 3991POPC   PO452212  41.058  18.012   5.623
 3991POPC   GL152213  40.917  18.313   5.923
 3991POPC   GL252214  40.551  18.361   5.905
 3991POPC   C1A52215  41.021  18.563   6.292
 3991POPC   D2A52216  40.868  18.620   6.709
 3991POPC   C3A52217  40.741  18.241   6.898
 3991POPC   C4A52218  40.969  18.058   7.232
 3991POPC   C1B52219  40.613  18.165   6.326
 3991POPC   C2B52220  40.341  17.850   6.530
 3991POPC   C3B52221  40.194  17.815   6.945
 3991POPC   C4B52222  40.444  17.964   7.274
 3992POPC   NC352223   2.489  24.059   5.374
 3992POPC   PO452224   3.069  23.937   5.430
 3992POPC   GL152225   2.922  23.753   5.837
 3992POPC   GL252226   2.558  23.790   5.805
 3992POPC   C1A52227   3.045  23.695   6.294
 3992POPC   D2A52228   2.887  23.576   6.711
 3992POPC   C3A52229   3.071  23.747   7.091
 3992POPC   C4A52230   3.080  23.738   7.605
 3992POPC   C1B52231   2.546  23.608   6.219
 3992POPC   C2B52232   2.339  23.563   6.614
 3992POPC   C3B52233   2.399  23.702   7.008
 3992POPC   C4B52234   2.639  23.668   7.338
 3993POPC   NC352235   0.708  25.827   4.965
 3993POPC   PO452236   0.716  26.166   5.506
 3993POPC   GL152237   0.453  25.832   5.711
 3993POPC   GL252238   0.614  25.935   6.003
 3993POPC   C1A52239   0.155  25.728   6.088
 3993POPC   D2A52240   0.177  25.960   6.510
 3993POPC   C3A52241   0.143  25.714   6.885
 3993POPC   C4A52242  44.999  25.774   7.286
 3993POPC   C1B52243   0.972  25.888   6.272
 3993POPC   C2B52244   0.996  25.791   6.707
 3993POPC   C3B52245   0.617  25.909   6.863
 3993POPC   C4B52246   0.380  26.080   7.162
 3994POPC   NC352247  34.269  12.074   5.607
 3994POPC   PO452248  34.982  12.250   5.567
 3994POPC   GL152249  34.693  12.275   5.874
 3994POPC   GL252250  34.689  11.912   5.878
 3994POPC   C1A52251  34.566  12.218   6.296
 3994POPC   D2A52252  34.620  12.426   6.674
 3994POPC   C3A52253  34.706  12.256   7.084
 3994POPC   C4A52254  34.874  12.511   7.475
 3994POPC   C1B52255  34.471  11.721   6.225
 3994POPC   C2B52256  34.393  11.851   6.675
 3994POPC   C3B52257  34.315  11.890   7.144
 3994POPC   C4B52258  34.172  11.863   7.630
 3995POPC   NC352259   6.971  21.773   5.370
 3995POPC   PO452260   6.369  21.401   5.358
 3995POPC   GL152261   6.575  21.521   5.720
 3995POPC   GL252262   6.577  21.869   5.701
 3995POPC   C1A52263   6.598  21.332   6.133
 3995POPC   D2A52264   6.921  21.303   6.443
 3995POPC   C3A52265   6.870  21.467   6.862
 3995POPC   C4A52266   6.572  21.297   7.120
 3995POPC   C1B52267   6.458  21.856   6.122
 3995POPC   C2B52268   6.610  21.733   6.489
 3995POPC   C3B52269   6.383  21.708   6.840
 3995POPC   C4B52270   6.513  21.805   7.209
 3996POPC   NC352271  21.569  15.886   5.357
 3996POPC   PO452272  21.380  16.486   5.151
 3996POPC   GL152273  21.439  16.230   5.676
 3996POPC   GL252274  21.298  15.838   5.775
 3996POPC   C1A52275  21.427  16.128   6.151
 3996POPC   D2A52276  21.342  15.877   6.556
 3996POPC   C3A52277  21.520  15.945   6.970
 3996POPC   C4A52278  21.495  16.357   7.195
 3996POPC   C1B52279  21.054  15.697   6.156
 3996POPC   C2B52280  20.867  15.688   6.577
 3996POPC   C3B52281  21.079  15.642   6.962
 3996POPC   C4B52282  21.204  15.573   7.372
 3997POPC   NC352283  10.603  20.132   5.304
 3997POPC   PO452284  10.607  19.477   5.426
 3997POPC   GL152285  10.708  19.848   5.741
 3997POPC   GL252286  10.381  20.003   5.751
 3997POPC   C1A52287  10.749  20.092   6.179
 3997POPC   D2A52288  10.719  20.319   6.627
 3997POPC   C3A52289  10.770  20.099   7.052
 3997POPC   C4A52290  10.658  19.849   7.471
 3997POPC   C1B52291  10.334  19.780   6.146
 3997POPC   C2B52292  10.513  19.810   6.581
 3997POPC   C3B52293  10.473  19.675   7.026
 3997POPC   C4B52294  10.275  19.476   7.416
 3998POPC   NC352295  24.752  36.083   5.446
 3998POPC   PO452296  24.120  36.381   5.412
 3998POPC   GL152297  24.389  36.217   5.784
 3998POPC   GL252298  24.289  35.870   5.866
 3998POPC   C1A52299  24.536  36.122   6.241
 3998POPC   D2A52300  24.422  36.260   6.677
 3998POPC   C3A52301  24.454  36.101   7.111
 3998POPC   C4A52302  24.701  36.054   7.484
 3998POPC   C1B52303  24.375  35.631   6.256
 3998POPC   C2B52304  24.332  35.739   6.712
 3998POPC   C3B52305  24.224  35.641   7.144
 3998POPC   C4B52306  24.374  35.659   7.563
 3999POPC   NC352307   3.915  39.630   5.392
 3999POPC   PO452308   3.300  39.879   5.357
 3999POPC   GL152309   3.516  39.832   5.772
 3999POPC   GL252310   3.877  39.818   5.879
 3999POPC   C1A52311   3.505  39.753   6.242
 3999POPC   D2A52312   3.437  39.992   6.633
 3999POPC   C3A52313   3.571  39.868   7.070
 3999POPC   C4A52314   3.602  40.023   7.509
 3999POPC   C1B52315   3.963  39.983   6.323
 3999POPC   C2B52316   3.913  40.163   6.770
 3999POPC   C3B52317   3.665  40.383   7.112
 3999POPC   C4B52318   3.229  40.440   7.145
 4000POPC   NC352319  18.489   9.176   5.398
 4000POPC   PO452320  17.895   8.841   5.161
 4000POPC   GL152321  18.052   8.988   5.608
 4000POPC   GL252322  18.307   8.823   5.777
 4000POPC   C1A52323  18.154   9.164   6.104
 4000POPC   D2A52324  18.329   9.392   6.509
 4000POPC   C3A52325  18.323   9.302   6.941
 4000POPC   C4A52326  18.113   8.948   7.128
 4000POPC   C1B52327  18.573   8.810   6.166
 4000POPC   C2B52328  18.655   8.990   6.588
 4000POPC   C3B52329  18.613   8.896   7.022
 4000POPC   C4B52330  18.544   8.524   7.216
 4001POPC   NC352331  25.469  28.544   5.378
 4001POPC   PO452332  25.449  27.875   5.541
 4001POPC   GL152333  25.459  28.239   5.825
 4001POPC   GL252334  25.110  28.349   5.714
 4001POPC   C1A52335  25.551  28.396   6.293
 4001POPC   D2A52336  25.310  28.214   6.658
 4001POPC   C3A52337  25.463  28.285   7.067
 4001POPC   C4A52338  25.644  28.654   7.179
 4001POPC   C1B52339  25.086  28.315   6.163
 4001POPC   C2B52340  25.107  28.657   6.472
 4001POPC   C3B52341  25.151  28.657   6.918
 4001POPC   C4B52342  25.001  28.383   7.268
 4002POPC   NC352343  17.723  20.895   5.376
 4002POPC   PO452344  17.377  20.288   5.460
 4002POPC   GL152345  17.468  20.603   5.759
 4002POPC   GL252346  17.290  20.934   5.722
 4002POPC   C1A52347  17.648  20.645   6.167
 4002POPC   D2A52348  17.737  20.389   6.530
 4002POPC   C3A52349  17.610  20.427   6.984
 4002POPC   C4A52350  17.481  20.367   7.426
 4002POPC   C1B52351  17.423  21.112   6.133
 4002POPC   C2B52352  17.615  21.210   6.545
 4002POPC   C3B52353  17.684  20.958   6.918
 4002POPC   C4B52354  17.483  20.873   7.314
 4003POPC   NC352355  19.382   3.689   5.403
 4003POPC   PO452356  18.876   3.296   5.532
 4003POPC   GL152357  19.070   3.507   5.799
 4003POPC   GL252358  19.350   3.344   5.854
 4003POPC   C1A52359  19.008   3.596   6.220
 4003POPC   D2A52360  18.878   3.872   6.535
 4003POPC   C3A52361  18.863   3.703   6.913
 4003POPC   C4A52362  18.950   3.681   7.338
 4003POPC   C1B52363  19.503   3.463   6.248
 4003POPC   C2B52364  19.337   3.668   6.619
 4003POPC   C3B52365  19.346   3.572   7.029
 4003POPC   C4B52366  19.562   3.730   7.356
 4004POPC   NC352367  32.757  20.066   5.360
 4004POPC   PO452368  33.068  19.482   5.294
 4004POPC   GL152369  33.188  19.690   5.695
 4004POPC   GL252370  32.848  19.757   5.780
 4004POPC   C1A52371  33.169  19.595   6.157
 4004POPC   D2A52372  33.351  19.702   6.568
 4004POPC   C3A52373  33.109  19.576   6.931
 4004POPC   C4A52374  33.148  19.420   7.323
 4004POPC   C1B52375  32.836  20.002   6.176
 4004POPC   C2B52376  32.874  19.876   6.586
 4004POPC   C3B52377  32.905  20.042   7.001
 4004POPC   C4B52378  32.872  19.826   7.389
 4005POPC   NC352379   5.559   5.626   5.345
 4005POPC   PO452380   5.990   6.144   5.247
 4005POPC   GL152381   5.969   6.169   5.735
 4005POPC   GL252382   6.108   5.843   5.753
 4005POPC   C1A52383   5.873   6.088   6.203
 4005POPC   D2A52384   5.565   5.914   6.514
 4005POPC   C3A52385   5.726   5.870   6.939
 4005POPC   C4A52386   6.067   6.086   7.156
 4005POPC   C1B52387   5.847   5.614   6.016
 4005POPC   C2B52388   5.993   5.635   6.432
 4005POPC   C3B52389   6.200   5.767   6.755
 4005POPC   C4B52390   6.084   5.546   7.131
 4006POPC   NC352391   2.882  10.010   5.331
 4006POPC   PO452392   2.443   9.608   5.425
 4006POPC   GL152393   2.596   9.878   5.806
 4006POPC   GL252394   2.712  10.242   5.771
 4006POPC   C1A52395   2.759   9.804   6.256
 4006POPC   D2A52396   2.633   9.780   6.695
 4006POPC   C3A52397   2.883   9.567   7.042
 4006POPC   C4A52398   2.975   9.370   7.446
 4006POPC   C1B52399   3.014  10.243   6.144
 4006POPC   C2B52400   3.092  10.063   6.589
 4006POPC   C3B52401   2.900  10.077   7.025
 4006POPC   C4B52402   2.478   9.877   7.192
 4007POPC   NC352403  20.578  39.198   5.190
 4007POPC   PO452404  20.467  39.495   5.750
 4007POPC   GL152405  20.573  39.114   5.880
 4007POPC   GL252406  20.964  39.068   5.795
 4007POPC   C1A52407  20.434  39.156   6.321
 4007POPC   D2A52408  20.716  39.447   6.539
 4007POPC   C3A52409  20.772  39.357   6.973
 4007POPC   C4A52410  20.443  39.152   7.148
 4007POPC   C1B52411  20.889  38.921   6.228
 4007POPC   C2B52412  20.704  38.909   6.675
 4007POPC   C3B52413  20.896  38.880   7.097
 4007POPC   C4B52414  21.136  38.844   7.474
 4008POPC   NC352415  14.549  10.206   5.396
 4008POPC   PO452416  14.160  10.769   5.365
 4008POPC   GL152417  14.432  10.688   5.732
 4008POPC   GL252418  14.401  10.341   5.847
 4008POPC   C1A52419  14.605  10.654   6.173
 4008POPC   D2A52420  14.766  10.505   6.572
 4008POPC   C3A52421  14.601  10.766   6.857
 4008POPC   C4A52422  14.525  10.847   7.251
 4008POPC   C1B52423  14.135  10.138   6.123
 4008POPC   C2B52424  14.286   9.912   6.446
 4008POPC   C3B52425  14.427  10.150   6.805
 4008POPC   C4B52426  14.531  10.352   7.178
 4009POPC   NC352427  18.291  36.267   5.427
 4009POPC   PO452428  17.926  35.724   5.418
 4009POPC   GL152429  17.914  36.015   5.826
 4009POPC   GL252430  18.142  36.314   5.908
 4009POPC   C1A52431  18.011  36.022   6.306
 4009POPC   D2A52432  18.225  36.157   6.710
 4009POPC   C3A52433  18.251  35.939   7.126
 4009POPC   C4A52434  18.201  35.742   7.555
 4009POPC   C1B52435  18.243  36.520   6.312
 4009POPC   C2B52436  18.107  36.644   6.720
 4009POPC   C3B52437  18.313  36.554   7.096
 4009POPC   C4B52438  18.339  36.318   7.466
 4010POPC   NC352439   7.016  23.039   5.345
 4010POPC   PO452440   7.674  22.836   5.330
 4010POPC   GL152441   7.648  22.897   5.764
 4010POPC   GL252442   7.289  22.803   5.784
 4010POPC   C1A52443   7.566  22.721   6.182
 4010POPC   D2A52444   7.511  22.869   6.550
 4010POPC   C3A52445   7.617  22.645   6.896
 4010POPC   C4A52446   7.590  22.765   7.293
 4010POPC   C1B52447   7.098  23.008   6.134
 4010POPC   C2B52448   7.118  23.176   6.558
 4010POPC   C3B52449   7.208  22.973   6.944
 4010POPC   C4B52450   7.029  22.757   7.261
 4011POPC   NC352451  13.346  21.973   5.539
 4011POPC   PO452452  12.856  22.363   5.347
 4011POPC   GL152453  12.646  22.324   5.754
 4011POPC   GL252454  12.950  22.169   5.845
 4011POPC   C1A52455  12.632  22.293   6.237
 4011POPC   D2A52456  12.438  22.177   6.629
 4011POPC   C3A52457  12.598  22.400   6.986
 4011POPC   C4A52458  12.841  22.190   7.288
 4011POPC   C1B52459  13.118  21.924   6.167
 4011POPC   C2B52460  13.059  21.855   6.581
 4011POPC   C3B52461  13.194  21.966   7.011
 4011POPC   C4B52462  13.241  21.928   7.501
 4012POPC   NC352463  40.534  26.261   5.373
 4012POPC   PO452464  41.080  25.817   5.450
 4012POPC   GL152465  40.731  25.920   5.740
 4012POPC   GL252466  40.862  26.240   5.778
 4012POPC   C1A52467  40.481  26.130   6.081
 4012POPC   D2A52468  40.441  26.303   6.492
 4012POPC   C3A52469  40.754  26.124   6.739
 4012POPC   C4A52470  40.840  25.990   7.134
 4012POPC   C1B52471  41.199  26.171   6.077
 4012POPC   C2B52472  41.271  26.239   6.505
 4012POPC   C3B52473  41.296  26.099   6.902
 4012POPC   C4B52474  41.236  26.300   7.252
 4013POPC   NC352475  21.001   4.075   5.385
 4013POPC   PO452476  21.228   3.509   5.497
 4013POPC   GL152477  21.400   3.433   5.893
 4013POPC   GL252478  21.661   3.180   5.816
 4013POPC   C1A52479  21.449   3.504   6.362
 4013POPC   D2A52480  21.191   3.351   6.706
 4013POPC   C3A52481  21.064   3.574   7.077
 4013POPC   C4A52482  21.169   3.966   7.279
 4013POPC   C1B52483  21.462   3.007   6.192
 4013POPC   C2B52484  21.601   3.038   6.592
 4013POPC   C3B52485  21.721   3.315   6.890
 4013POPC   C4B52486  21.430   3.205   7.179
 4014POPC   NC352487  24.792  19.382   5.528
 4014POPC   PO452488  24.513  18.880   5.150
 4014POPC   GL152489  24.278  18.980   5.587
 4014POPC   GL252490  24.338  19.299   5.754
 4014POPC   C1A52491  24.195  18.929   6.060
 4014POPC   D2A52492  24.445  18.994   6.464
 4014POPC   C3A52493  24.297  18.867   6.879
 4014POPC   C4A52494  24.131  18.980   7.278
 4014POPC   C1B52495  24.382  19.439   6.185
 4014POPC   C2B52496  24.557  19.522   6.606
 4014POPC   C3B52497  24.464  19.388   7.014
 4014POPC   C4B52498  24.683  19.058   7.207
 4015POPC   NC352499  26.207  34.139   5.232
 4015POPC   PO452500  25.900  33.657   5.549
 4015POPC   GL152501  26.002  33.779   5.919
 4015POPC   GL252502  26.323  33.654   5.882
 4015POPC   C1A52503  25.860  33.863   6.311
 4015POPC   D2A52504  25.937  33.668   6.703
 4015POPC   C3A52505  25.987  33.936   7.023
 4015POPC   C4A52506  26.195  34.063   7.347
 4015POPC   C1B52507  26.191  33.446   6.257
 4015POPC   C2B52508  26.376  33.402   6.648
 4015POPC   C3B52509  26.265  33.484   7.072
 4015POPC   C4B52510  26.152  33.336   7.472
 4016POPC   NC352511  34.745  21.938   5.359
 4016POPC   PO452512  34.786  22.586   5.316
 4016POPC   GL152513  34.697  22.336   5.724
 4016POPC   GL252514  34.336  22.174   5.752
 4016POPC   C1A52515  34.681  22.016   6.086
 4016POPC   D2A52516  34.460  21.996   6.475
 4016POPC   C3A52517  34.670  22.235   6.778
 4016POPC   C4A52518  34.737  21.996   7.120
 4016POPC   C1B52519  34.310  22.399   6.188
 4016POPC   C2B52520  34.153  22.375   6.655
 4016POPC   C3B52521  34.280  22.286   7.107
 4016POPC   C4B52522  34.268  22.464   7.536
 4017POPC   NC352523   1.156  41.870   5.492
 4017POPC   PO452524   1.324  41.165   5.340
 4017POPC   GL152525   1.360  41.434   5.697
 4017POPC   GL252526   1.030  41.474   5.777
 4017POPC   C1A52527   1.365  41.590   6.148
 4017POPC   D2A52528   1.148  41.687   6.542
 4017POPC   C3A52529   1.393  41.580   6.883
 4017POPC   C4A52530   1.398  41.692   7.302
 4017POPC   C1B52531   0.864  41.431   6.176
 4017POPC   C2B52532   0.766  41.291   6.561
 4017POPC   C3B52533   0.913  41.386   6.927
 4017POPC   C4B52534   1.051  41.306   7.325
 4018POPC   NC352535  40.445  12.016   5.391
 4018POPC   PO452536  41.148  12.029   5.407
 4018POPC   GL152537  40.824  12.063   5.733
 4018POPC   GL252538  40.968  11.808   5.888
 4018POPC   C1A52539  40.674  12.084   6.193
 4018POPC   D2A52540  40.938  11.908   6.543
 4018POPC   C3A52541  40.761  11.874   6.942
 4018POPC   C4A52542  40.610  12.157   7.258
 4018POPC   C1B52543  41.146  12.224   6.116
 4018POPC   C2B52544  41.283  12.292   6.553
 4018POPC   C3B52545  41.073  12.348   6.944
 4018POPC   C4B52546  41.129  12.025   7.236
 4019POPC   NC352547   2.429  14.772   5.130
 4019POPC   PO452548   2.837  15.314   5.208
 4019POPC   GL152549   2.954  15.313   5.638
 4019POPC   GL252550   2.949  14.932   5.696
 4019POPC   C1A52551   2.816  15.333   6.089
 4019POPC   D2A52552   2.524  15.322   6.464
 4019POPC   C3A52553   2.678  15.172   6.874
 4019POPC   C4A52554   2.899  15.321   7.248
 4019POPC   C1B52555   2.659  14.835   6.023
 4019POPC   C2B52556   2.563  14.765   6.447
 4019POPC   C3B52557   2.552  14.665   6.888
 4019POPC   C4B52558   2.762  14.780   7.298
 4020POPC   NC352559  19.728   8.481   5.669
 4020POPC   PO452560  20.003   8.942   5.303
 4020POPC   GL152561  19.825   8.987   5.728
 4020POPC   GL252562  20.179   8.969   5.797
 4020POPC   C1A52563  19.598   8.918   6.156
 4020POPC   D2A52564  19.698   9.061   6.560
 4020POPC   C3A52565  19.613   8.879   6.933
 4020POPC   C4A52566  19.653   9.152   7.301
 4020POPC   C1B52567  20.079   8.736   6.186
 4020POPC   C2B52568  19.945   8.617   6.564
 4020POPC   C3B52569  20.077   8.669   6.942
 4020POPC   C4B52570  19.878   8.672   7.311
 4021POPC   NC352571  37.470  29.769   5.427
 4021POPC   PO452572  37.693  30.432   5.259
 4021POPC   GL152573  37.833  30.115   5.694
 4021POPC   GL252574  37.875  29.750   5.762
 4021POPC   C1A52575  37.750  30.076   6.169
 4021POPC   D2A52576  37.594  30.269   6.565
 4021POPC   C3A52577  37.685  30.167   7.017
 4021POPC   C4A52578  37.902  30.091   7.458
 4021POPC   C1B52579  37.537  29.627   6.060
 4021POPC   C2B52580  37.778  29.604   6.429
 4021POPC   C3B52581  37.864  29.726   6.800
 4021POPC   C4B52582  37.738  29.700   7.186
 4022POPC   NC352583  37.848  40.889   5.407
 4022POPC   PO452584  37.800  40.204   5.503
 4022POPC   GL152585  37.750  40.569   5.836
 4022POPC   GL252586  37.935  40.910   5.892
 4022POPC   C1A52587  37.736  40.676   6.304
 4022POPC   D2A52588  37.963  40.565   6.663
 4022POPC   C3A52589  37.782  40.499   7.072
 4022POPC   C4A52590  37.961  40.621   7.463
 4022POPC   C1B52591  37.520  41.055   6.012
 4022POPC   C2B52592  37.432  41.089   6.448
 4022POPC   C3B52593  37.588  40.894   6.831
 4022POPC   C4B52594  37.764  41.037   7.236
 4023POPC   NC352595  18.679   7.463   5.428
 4023POPC   PO452596  19.339   7.208   5.493
 4023POPC   GL152597  19.020   7.344   5.832
 4023POPC   GL252598  18.778   7.095   5.802
 4023POPC   C1A52599  18.901   7.498   6.290
 4023POPC   D2A52600  18.707   7.678   6.717
 4023POPC   C3A52601  18.935   7.579   7.118
 4023POPC   C4A52602  19.330   7.583   7.346
 4023POPC   C1B52603  18.677   7.029   6.255
 4023POPC   C2B52604  18.826   7.164   6.678
 4023POPC   C3B52605  18.823   7.054   7.119
 4023POPC   C4B52606  18.650   7.060   7.545
 4024POPC   NC352607  14.970   9.369   5.462
 4024POPC   PO452608  15.313   9.914   5.227
 4024POPC   GL152609  15.238   9.889   5.658
 4024POPC   GL252610  15.558   9.959   5.759
 4024POPC   C1A52611  15.128   9.838   6.106
 4024POPC   D2A52612  15.193   9.596   6.487
 4024POPC   C3A52613  15.081   9.629   6.928
 4024POPC   C4A52614  15.409   9.622   7.249
 4024POPC   C1B52615  15.423  10.245   6.057
 4024POPC   C2B52616  15.319  10.185   6.463
 4024POPC   C3B52617  15.395  10.033   6.867
 4024POPC   C4B52618  15.422  10.131   7.328
 4025POPC   NC352619   1.871  33.489   5.378
 4025POPC   PO452620   2.415  33.908   5.564
 4025POPC   GL152621   2.025  33.891   5.818
 4025POPC   GL252622   1.810  33.601   5.885
 4025POPC   C1A52623   1.958  33.968   6.282
 4025POPC   D2A52624   1.828  34.170   6.703
 4025POPC   C3A52625   2.049  34.028   7.115
 4025POPC   C4A52626   1.932  33.900   7.556
 4025POPC   C1B52627   1.861  33.432   6.324
 4025POPC   C2B52628   2.014  33.546   6.758
 4025POPC   C3B52629   1.819  33.548   7.177
 4025POPC   C4B52630   1.885  33.394   7.584
 4026POPC   NC352631  21.057  42.211   5.492
 4026POPC   PO452632  20.429  42.481   5.464
 4026POPC   GL152633  20.627  42.300   5.766
 4026POPC   GL252634  20.874  42.553   5.823
 4026POPC   C1A52635  20.556  42.090   6.153
 4026POPC   D2A52636  20.669  42.235   6.559
 4026POPC   C3A52637  20.390  42.356   6.890
 4026POPC   C4A52638  20.591  42.214   7.260
 4026POPC   C1B52639  21.025  42.729   6.231
 4026POPC   C2B52640  21.082  42.645   6.670
 4026POPC   C3B52641  20.825  42.628   7.033
 4026POPC   C4B52642  20.793  42.620   7.501
 4027POPC   NC352643  11.170  35.211   5.568
 4027POPC   PO452644  11.678  35.650   5.492
 4027POPC   GL152645  11.385  35.581   5.869
 4027POPC   GL252646  11.423  35.743   6.196
 4027POPC   C1A52647  10.973  35.481   6.130
 4027POPC   D2A52648  10.858  35.624   6.536
 4027POPC   C3A52649  11.190  35.571   6.798
 4027POPC   C4A52650  11.183  35.373   7.162
 4027POPC   C1B52651  11.360  35.306   6.386
 4027POPC   C2B52652  11.456  35.120   6.788
 4027POPC   C3B52653  11.645  35.142   7.201
 4027POPC   C4B52654  11.734  35.140   7.642
 4028POPC   NC352655  16.929  29.971   5.539
 4028POPC   PO452656  16.298  30.217   5.539
 4028POPC   GL152657  16.547  30.044   5.890
 4028POPC   GL252658  16.513  29.715   5.936
 4028POPC   C1A52659  16.549  29.982   6.373
 4028POPC   D2A52660  16.421  29.872   6.816
 4028POPC   C3A52661  16.830  29.897   7.034
 4028POPC   C4A52662  17.064  30.226   7.247
 4028POPC   C1B52663  16.948  29.594   6.106
 4028POPC   C2B52664  17.228  29.560   6.465
 4028POPC   C3B52665  17.166  29.488   6.908
 4028POPC   C4B52666  17.210  29.695   7.321
 4029POPC   NC352667  44.286  23.572   5.514
 4029POPC   PO452668  44.916  23.736   5.339
 4029POPC   GL152669  44.794  23.660   5.747
 4029POPC   GL252670  44.714  23.307   5.739
 4029POPC   C1A52671  44.637  23.756   6.159
 4029POPC   D2A52672  44.844  23.705   6.562
 4029POPC   C3A52673  44.595  23.776   6.941
 4029POPC   C4A52674  44.745  24.076   7.226
 4029POPC   C1B52675  44.906  23.327   6.158
 4029POPC   C2B52676  44.818  23.184   6.559
 4029POPC   C3B52677  44.874  23.336   6.937
 4029POPC   C4B52678   0.192  23.334   7.206
 4030POPC   NC352679  15.326  23.493   5.235
 4030POPC   PO452680  15.292  24.132   5.328
 4030POPC   GL152681  15.369  23.771   5.680
 4030POPC   GL252682  15.072  23.576   5.739
 4030POPC   C1A52683  15.539  23.558   6.091
 4030POPC   D2A52684  15.484  23.360   6.522
 4030POPC   C3A52685  15.307  23.546   6.928
 4030POPC   C4A52686  15.446  23.924   7.159
 4030POPC   C1B52687  15.086  23.767   6.174
 4030POPC   C2B52688  15.359  23.867   6.528
 4030POPC   C3B52689  15.253  24.219   6.799
 4030POPC   C4B52690  14.963  24.152   7.131
 4031POPC   NC352691   7.126   9.473   5.433
 4031POPC   PO452692   7.582   9.979   5.317
 4031POPC   GL152693   7.474   9.768   5.772
 4031POPC   GL252694   7.304   9.451   5.907
 4031POPC   C1A52695   7.678   9.606   6.195
 4031POPC   D2A52696   7.516   9.483   6.611
 4031POPC   C3A52697   7.636   9.683   7.016
 4031POPC   C4A52698   7.403   9.991   7.285
 4031POPC   C1B52699   7.124   9.613   6.268
 4031POPC   C2B52700   6.984   9.495   6.674
 4031POPC   C3B52701   7.128   9.489   7.088
 4031POPC   C4B52702   6.971   9.734   7.421
 4032POPC   NC352703   3.661  26.999   5.447
 4032POPC   PO452704   3.856  26.336   5.463
 4032POPC   GL152705   3.581  26.576   5.784
 4032POPC   GL252706   3.614  26.950   5.922
 4032POPC   C1A52707   3.374  26.620   6.188
 4032POPC   D2A52708   3.512  26.741   6.549
 4032POPC   C3A52709   3.423  26.809   6.949
 4032POPC   C4A52710   3.521  26.809   7.395
 4032POPC   C1B52711   3.656  27.171   6.293
 4032POPC   C2B52712   3.416  27.378   6.609
 4032POPC   C3B52713   3.382  27.305   7.022
 4032POPC   C4B52714   3.785  27.184   7.104
 4033POPC   NC352715  10.989  34.348   5.520
 4033POPC   PO452716  10.540  34.813   5.385
 4033POPC   GL152717  10.435  34.710   5.819
 4033POPC   GL252718  10.748  34.618   5.856
 4033POPC   C1A52719  10.252  34.773   6.230
 4033POPC   D2A52720  10.175  34.445   6.521
 4033POPC   C3A52721  10.252  34.547   6.948
 4033POPC   C4A52722  10.385  34.735   7.360
 4033POPC   C1B52723  10.668  34.464   6.238
 4033POPC   C2B52724  10.630  34.689   6.597
 4033POPC   C3B52725  10.732  34.697   7.005
 4033POPC   C4B52726  10.748  34.379   7.366
 4034POPC   NC352727  44.465  30.841   5.607
 4034POPC   PO452728   0.027  30.438   5.475
 4034POPC   GL152729  44.856  30.606   5.849
 4034POPC   GL252730  44.521  30.499   5.989
 4034POPC   C1A52731  44.870  30.881   6.207
 4034POPC   D2A52732  44.720  30.954   6.634
 4034POPC   C3A52733  44.916  30.709   6.959
 4034POPC   C4A52734  44.930  30.258   7.140
 4034POPC   C1B52735  44.347  30.861   6.269
 4034POPC   C2B52736  44.210  30.998   6.713
 4034POPC   C3B52737  44.410  30.820   7.108
 4034POPC   C4B52738  44.405  30.765   7.574
 4035POPC   NC352739   2.636  40.565   5.544
 4035POPC   PO452740   2.772  41.073   5.274
 4035POPC   GL152741   2.815  41.068   5.763
 4035POPC   GL252742   2.515  40.943   5.898
 4035POPC   C1A52743   2.853  40.978   6.259
 4035POPC   D2A52744   2.588  40.954   6.665
 4035POPC   C3A52745   2.855  40.825   7.067
 4035POPC   C4A52746   2.986  40.732   7.513
 4035POPC   C1B52747   2.539  40.569   6.224
 4035POPC   C2B52748   2.343  40.346   6.564
 4035POPC   C3B52749   2.424  40.552   6.969
 4035POPC   C4B52750   2.485  40.695   7.445
 4036POPC   NC352751  16.279  20.938   5.518
 4036POPC   PO452752  15.864  20.440   5.378
 4036POPC   GL152753  16.118  20.468   5.751
 4036POPC   GL252754  15.902  20.748   5.823
 4036POPC   C1A52755  16.175  20.585   6.216
 4036POPC   D2A52756  16.254  20.778   6.628
 4036POPC   C3A52757  16.021  20.578   6.963
 4036POPC   C4A52758  15.836  20.248   7.219
 4036POPC   C1B52759  15.820  20.982   6.201
 4036POPC   C2B52760  15.708  20.846   6.585
 4036POPC   C3B52761  15.681  21.002   6.968
 4036POPC   C4B52762  15.666  20.750   7.291
 4037POPC   NC352763  37.775  35.402   5.446
 4037POPC   PO452764  37.286  35.027   5.670
 4037POPC   GL152765  37.694  35.146   5.876
 4037POPC   GL252766  37.793  35.550   5.924
 4037POPC   C1A52767  37.681  35.214   6.291
 4037POPC   D2A52768  37.593  35.512   6.570
 4037POPC   C3A52769  37.622  35.285   6.948
 4037POPC   C4A52770  37.686  35.107   7.335
 4037POPC   C1B52771  38.093  35.503   6.236
 4037POPC   C2B52772  38.063  35.328   6.639
 4037POPC   C3B52773  38.079  35.506   7.045
 4037POPC   C4B52774  37.819  35.619   7.382
 4038POPC   NC352775  16.382  30.672   5.393
 4038POPC   PO452776  17.088  30.499   5.463
 4038POPC   GL152777  16.724  30.518   5.742
 4038POPC   GL252778  16.605  30.870   5.811
 4038POPC   C1A52779  16.587  30.464   6.156
 4038POPC   D2A52780  16.621  30.650   6.536
 4038POPC   C3A52781  16.768  30.364   6.811
 4038POPC   C4A52782  16.752  30.602   7.151
 4038POPC   C1B52783  16.929  30.853   6.148
 4038POPC   C2B52784  17.023  31.011   6.578
 4038POPC   C3B52785  17.162  30.889   7.020
 4038POPC   C4B52786  17.153  30.713   7.471
 4039POPC   NC352787   9.933  26.476   5.247
 4039POPC   PO452788   9.885  25.834   5.497
 4039POPC   GL152789   9.616  26.088   5.724
 4039POPC   GL252790   9.527  25.791   5.942
 4039POPC   C1A52791   9.728  26.231   6.134
 4039POPC   D2A52792   9.503  26.113   6.512
 4039POPC   C3A52793   9.693  26.272   6.905
 4039POPC   C4A52794   9.520  26.211   7.304
 4039POPC   C1B52795   9.796  25.722   6.321
 4039POPC   C2B52796   9.813  25.767   6.788
 4039POPC   C3B52797   9.756  25.767   7.240
 4039POPC   C4B52798   9.932  25.773   7.645
 4040POPC   NC352799  33.507  35.710   5.331
 4040POPC   PO452800  32.980  35.253   5.440
 4040POPC   GL152801  33.078  35.171   5.847
 4040POPC   GL252802  33.107  35.493   5.972
 4040POPC   C1A52803  32.916  35.127   6.249
 4040POPC   D2A52804  32.772  35.095   6.643
 4040POPC   C3A52805  33.022  35.170   6.969
 4040POPC   C4A52806  32.919  35.301   7.354
 4040POPC   C1B52807  33.242  35.681   6.349
 4040POPC   C2B52808  33.023  35.590   6.701
 4040POPC   C3B52809  32.970  35.751   7.103
 4040POPC   C4B52810  33.081  35.748   7.514
 4041POPC   NC352811  18.540   3.756   5.441
 4041POPC   PO452812  18.155   3.220   5.358
 4041POPC   GL152813  18.348   3.327   5.722
 4041POPC   GL252814  18.199   3.663   5.789
 4041POPC   C1A52815  18.550   3.381   6.112
 4041POPC   D2A52816  18.490   3.547   6.504
 4041POPC   C3A52817  18.571   3.290   6.823
 4041POPC   C4A52818  18.525   3.431   7.228
 4041POPC   C1B52819  18.064   3.596   6.197
 4041POPC   C2B52820  18.064   3.819   6.593
 4041POPC   C3B52821  18.189   3.653   6.945
 4041POPC   C4B52822  18.102   3.719   7.375
 4042POPC   NC352823  31.166  44.444   5.490
 4042POPC   PO452824  30.489  44.574   5.570
 4042POPC   GL152825  30.651  44.665   5.972
 4042POPC   GL252826  31.019  44.672   5.918
 4042POPC   C1A52827  30.686  44.556   6.425
 4042POPC   D2A52828  30.719  44.458   6.902
 4042POPC   C3A52829  30.490  44.722   7.223
 4042POPC   C4A52830  30.490  44.698   7.670
 4042POPC   C1B52831  31.176  44.644   6.340
 4042POPC   C2B52832  31.000  44.869   6.709
 4042POPC   C3B52833  30.989  44.864   7.153
 4042POPC   C4B52834  31.153  44.908   7.584
 4043POPC   NC352835  22.692  12.845   5.138
 4043POPC   PO452836  23.191  12.843   5.443
 4043POPC   GL152837  22.965  12.748   5.776
 4043POPC   GL252838  22.651  12.944   5.778
 4043POPC   C1A52839  23.164  12.555   6.142
 4043POPC   D2A52840  23.345  12.774   6.466
 4043POPC   C3A52841  23.320  12.618   6.896
 4043POPC   C4A52842  23.083  12.831   7.203
 4043POPC   C1B52843  22.835  12.941   6.229
 4043POPC   C2B52844  22.902  12.884   6.679
 4043POPC   C3B52845  22.637  12.722   6.987
 4043POPC   C4B52846  22.552  12.942   7.338
 4044POPC   NC352847   7.947  30.370   5.427
 4044POPC   PO452848   8.396  30.943   5.339
 4044POPC   GL152849   8.288  30.733   5.720
 4044POPC   GL252850   7.959  30.730   5.833
 4044POPC   C1A52851   8.329  30.816   6.180
 4044POPC   D2A52852   8.591  30.897   6.540
 4044POPC   C3A52853   8.440  31.036   6.923
 4044POPC   C4A52854   8.457  30.853   7.300
 4044POPC   C1B52855   7.915  30.493   6.228
 4044POPC   C2B52856   8.216  30.474   6.582
 4044POPC   C3B52857   8.149  30.580   6.991
 4044POPC   C4B52858   7.787  30.558   7.241
 4045POPC   NC352859  26.551  40.108   5.388
 4045POPC   PO452860  27.200  39.836   5.515
 4045POPC   GL152861  26.904  40.016   5.757
 4045POPC   GL252862  26.613  39.759   5.761
 4045POPC   C1A52863  26.721  40.206   6.126
 4045POPC   D2A52864  26.846  40.371   6.540
 4045POPC   C3A52865  26.872  40.146   6.946
 4045POPC   C4A52866  26.646  40.320   7.292
 4045POPC   C1B52867  26.829  39.699   6.147
 4045POPC   C2B52868  26.715  39.845   6.540
 4045POPC   C3B52869  26.658  39.654   6.906
 4045POPC   C4B52870  26.975  39.621   7.187
 4046POPC   NC352871   3.752  22.002   5.351
 4046POPC   PO452872   3.307  22.552   5.397
 4046POPC   GL152873   3.411  22.223   5.693
 4046POPC   GL252874   3.311  21.883   5.622
 4046POPC   C1A52875   3.692  22.118   6.041
 4046POPC   D2A52876   3.718  22.348   6.428
 4046POPC   C3A52877   3.799  22.106   6.805
 4046POPC   C4A52878   3.911  22.263   7.210
 4046POPC   C1B52879   3.226  21.907   6.073
 4046POPC   C2B52880   3.380  21.968   6.486
 4046POPC   C3B52881   3.363  21.812   6.886
 4046POPC   C4B52882   3.408  22.079   7.197
 4047POPC   NC352883  25.393  31.138   5.402
 4047POPC   PO452884  25.450  31.866   5.411
 4047POPC   GL152885  25.168  31.699   5.786
 4047POPC   GL252886  25.174  31.312   5.820
 4047POPC   C1A52887  25.190  31.585   6.243
 4047POPC   D2A52888  25.300  31.766   6.627
 4047POPC   C3A52889  25.123  31.619   7.006
 4047POPC   C4A52890  25.279  31.707   7.450
 4047POPC   C1B52891  25.567  31.200   6.044
 4047POPC   C2B52892  25.622  31.143   6.481
 4047POPC   C3B52893  25.565  31.002   6.903
 4047POPC   C4B52894  25.326  31.211   7.222
 4048POPC   NC352895  25.573   2.752   5.359
 4048POPC   PO452896  24.978   2.972   5.421
 4048POPC   GL152897  25.234   2.984   5.762
 4048POPC   GL252898  25.363   2.671   5.819
 4048POPC   C1A52899  25.076   2.923   6.184
 4048POPC   D2A52900  24.835   3.003   6.571
 4048POPC   C3A52901  25.035   2.813   6.925
 4048POPC   C4A52902  25.393   2.891   7.196
 4048POPC   C1B52903  25.321   2.473   6.211
 4048POPC   C2B52904  25.138   2.300   6.579
 4048POPC   C3B52905  25.257   2.354   7.005
 4048POPC   C4B52906  25.065   2.519   7.376
 4049POPC   NC352907  21.628  14.918   5.443
 4049POPC   PO452908  21.284  15.516   5.374
 4049POPC   GL152909  21.341  15.259   5.733
 4049POPC   GL252910  21.674  15.354   5.807
 4049POPC   C1A52911  21.349  15.110   6.189
 4049POPC   D2A52912  21.244  15.328   6.600
 4049POPC   C3A52913  21.124  15.132   7.037
 4049POPC   C4A52914  21.353  15.072   7.442
 4049POPC   C1B52915  21.549  15.575   6.199
 4049POPC   C2B52916  21.705  15.541   6.667
 4049POPC   C3B52917  21.563  15.395   7.065
 4049POPC   C4B52918  21.661  15.453   7.541
 4050POPC   NC352919  38.924  35.793   5.519
 4050POPC   PO452920  39.395  35.315   5.559
 4050POPC   GL152921  39.081  35.438   5.849
 4050POPC   GL252922  39.285  35.696   5.916
 4050POPC   C1A52923  39.077  35.299   6.253
 4050POPC   D2A52924  39.403  35.264   6.575
 4050POPC   C3A52925  39.360  35.030   6.957
 4050POPC   C4A52926  38.973  35.030   7.177
 4050POPC   C1B52927  39.186  35.780   6.340
 4050POPC   C2B52928  38.895  35.638   6.595
 4050POPC   C3B52929  39.077  35.465   6.914
 4050POPC   C4B52930  39.288  35.592   7.274
 4051POPC   NC352931   0.510  20.902   5.379
 4051POPC   PO452932   0.100  20.302   5.364
 4051POPC   GL152933   0.225  20.578   5.694
 4051POPC   GL252934   0.375  20.271   5.831
 4051POPC   C1A52935   0.371  20.753   6.095
 4051POPC   D2A52936   0.240  20.721   6.533
 4051POPC   C3A52937   0.467  20.893   6.908
 4051POPC   C4A52938   0.357  20.830   7.328
 4051POPC   C1B52939   0.753  20.370   6.060
 4051POPC   C2B52940   0.743  20.573   6.456
 4051POPC   C3B52941   0.533  20.399   6.830
 4051POPC   C4B52942   0.622  20.387   7.262
 4052POPC   NC352943  38.422   8.632   5.516
 4052POPC   PO452944  38.775   9.276   5.476
 4052POPC   GL152945  38.574   9.044   5.813
 4052POPC   GL252946  38.782   8.711   5.888
 4052POPC   C1A52947  38.463   9.291   6.187
 4052POPC   D2A52948  38.643   9.306   6.612
 4052POPC   C3A52949  38.403   9.208   6.970
 4052POPC   C4A52950  38.336   8.890   7.243
 4052POPC   C1B52951  38.769   8.890   6.289
 4052POPC   C2B52952  38.641   8.807   6.704
 4052POPC   C3B52953  38.824   8.913   7.084
 4052POPC   C4B52954  38.882   8.527   7.291
 4053POPC   NC352955  27.596  35.975   5.349
 4053POPC   PO452956  27.477  36.663   5.288
 4053POPC   GL152957  27.620  36.392   5.691
 4053POPC   GL252958  27.330  36.176   5.738
 4053POPC   C1A52959  27.889  36.184   6.081
 4053POPC   D2A52960  27.864  35.829   6.431
 4053POPC   C3A52961  27.984  35.905   6.903
 4053POPC   C4A52962  27.736  36.041   7.283
 4053POPC   C1B52963  27.402  36.015   6.120
 4053POPC   C2B52964  27.523  36.241   6.470
 4053POPC   C3B52965  27.505  36.067   6.847
 4053POPC   C4B52966  27.478  35.651   7.100
 4054POPC   NC352967  43.005  42.817   5.415
 4054POPC   PO452968  43.228  42.166   5.233
 4054POPC   GL152969  42.964  42.347   5.603
 4054POPC   GL252970  43.260  42.331   5.776
 4054POPC   C1A52971  42.964  42.574   6.083
 4054POPC   D2A52972  43.196  42.512   6.515
 4054POPC   C3A52973  42.987  42.456   6.935
 4054POPC   C4A52974  42.912  42.091   7.204
 4054POPC   C1B52975  43.354  42.117   6.220
 4054POPC   C2B52976  43.274  41.994   6.705
 4054POPC   C3B52977  43.420  42.217   7.102
 4054POPC   C4B52978  43.354  42.624   7.330
 4055POPC   NC352979  21.119  43.840   5.478
 4055POPC   PO452980  21.686  43.698   5.530
 4055POPC   GL152981  21.524  44.078   5.697
 4055POPC   GL252982  21.750  44.094   5.969
 4055POPC   C1A52983  21.251  44.171   6.065
 4055POPC   D2A52984  21.462  44.152   6.495
 4055POPC   C3A52985  21.193  44.068   6.839
 4055POPC   C4A52986  21.170  44.207   7.238
 4055POPC   C1B52987  21.496  43.726   6.168
 4055POPC   C2B52988  21.453  43.646   6.606
 4055POPC   C3B52989  21.664  43.865   6.924
 4055POPC   C4B52990  21.373  43.737   7.214
 4056POPC   NC352991  27.006  42.090   5.048
 4056POPC   PO452992  26.606  42.517   5.258
 4056POPC   GL152993  26.709  42.451   5.738
 4056POPC   GL252994  26.451  42.330   5.957
 4056POPC   C1A52995  26.903  42.260   6.166
 4056POPC   D2A52996  26.821  41.928   6.495
 4056POPC   C3A52997  26.937  42.118   6.877
 4056POPC   C4A52998  27.169  42.482   7.053
 4056POPC   C1B52999  26.442  42.318   6.417
 4056POPC   C2B53000  26.376  42.591   6.766
 4056POPC   C3B53001  26.670  42.587   7.069
 4056POPC   C4B53002  26.742  42.242   7.318
 4057POPC   NC353003  21.657   5.538   5.406
 4057POPC   PO453004  21.156   5.954   5.041
 4057POPC   GL153005  21.136   5.892   5.533
 4057POPC   GL253006  21.175   5.599   5.736
 4057POPC   C1A53007  21.302   6.096   5.922
 4057POPC   D2A53008  21.380   5.981   6.358
 4057POPC   C3A53009  21.146   6.154   6.697
 4057POPC   C4A53010  21.219   6.148   7.151
 4057POPC   C1B53011  21.509   5.546   6.064
 4057POPC   C2B53012  21.482   5.508   6.520
 4057POPC   C3B53013  21.435   5.760   6.880
 4057POPC   C4B53014  21.544   5.773   7.300
 4058POPC   NC353015  26.377  35.897   5.633
 4058POPC   PO453016  26.941  36.259   5.421
 4058POPC   GL153017  26.762  36.200   5.823
 4058POPC   GL253018  26.898  35.857   5.791
 4058POPC   C1A53019  26.477  36.257   6.212
 4058POPC   D2A53020  26.338  36.166   6.642
 4058POPC   C3A53021  26.671  36.117   6.933
 4058POPC   C4A53022  26.632  35.734   7.174
 4058POPC   C1B53023  26.706  35.805   6.214
 4058POPC   C2B53024  26.721  35.674   6.648
 4058POPC   C3B53025  27.056  35.791   6.872
 4058POPC   C4B53026  27.136  36.054   7.186
 4059POPC   NC353027  42.204  20.289   5.539
 4059POPC   PO453028  42.469  20.869   5.603
 4059POPC   GL153029  42.419  20.899   6.014
 4059POPC   GL253030  42.191  20.651   6.006
 4059POPC   C1A53031  42.493  20.893   6.440
 4059POPC   D2A53032  42.688  20.536   6.600
 4059POPC   C3A53033  42.543  20.486   6.965
 4059POPC   C4A53034  42.356  20.744   7.200
 4059POPC   C1B53035  42.203  20.466   6.409
 4059POPC   C2B53036  42.083  20.722   6.768
 4059POPC   C3B53037  41.862  20.737   7.185
 4059POPC   C4B53038  42.036  20.526   7.551
 4060POPC   NC353039  24.294  36.925   5.424
 4060POPC   PO453040  24.883  36.571   5.578
 4060POPC   GL153041  24.534  36.752   5.839
 4060POPC   GL253042  24.146  36.681   5.846
 4060POPC   C1A53043  24.503  37.053   6.184
 4060POPC   D2A53044  24.716  37.270   6.565
 4060POPC   C3A53045  24.523  37.135   6.976
 4060POPC   C4A53046  24.740  36.983   7.316
 4060POPC   C1B53047  24.286  36.576   6.258
 4060POPC   C2B53048  24.494  36.757   6.628
 4060POPC   C3B53049  24.695  36.574   7.005
 4060POPC   C4B53050  24.554  36.529   7.443
 4061POPC   NC353051   9.867  27.750   5.242
 4061POPC   PO453052   9.207  27.600   5.393
 4061POPC   GL153053   9.522  27.721   5.682
 4061POPC   GL253054   9.632  27.386   5.759
 4061POPC   C1A53055   9.548  27.754   6.152
 4061POPC   D2A53056   9.441  27.737   6.609
 4061POPC   C3A53057   9.738  27.690   6.937
 4061POPC   C4A53058   9.960  27.890   7.255
 4061POPC   C1B53059   9.565  27.218   6.186
 4061POPC   C2B53060   9.696  27.237   6.629
 4061POPC   C3B53061   9.545  27.236   7.072
 4061POPC   C4B53062   9.825  27.390   7.377
 4062POPC   NC353063  39.022  19.933   5.438
 4062POPC   PO453064  39.497  19.452   5.374
 4062POPC   GL153065  39.428  19.704   5.732
 4062POPC   GL253066  39.111  19.615   5.821
 4062POPC   C1A53067  39.333  19.987   6.091
 4062POPC   D2A53068  39.367  19.877   6.521
 4062POPC   C3A53069  39.502  20.135   6.843
 4062POPC   C4A53070  39.334  19.924   7.181
 4062POPC   C1B53071  39.115  19.518   6.255
 4062POPC   C2B53072  38.961  19.592   6.688
 4062POPC   C3B53073  38.957  19.516   7.145
 4062POPC   C4B53074  38.729  19.411   7.537
 4063POPC   NC353075   4.992  21.725   5.593
 4063POPC   PO453076   5.163  22.372   5.479
 4063POPC   GL153077   5.001  22.432   5.874
 4063POPC   GL253078   4.651  22.370   5.857
 4063POPC   C1A53079   5.004  22.350   6.293
 4063POPC   D2A53080   5.140  21.974   6.491
 4063POPC   C3A53081   5.413  22.005   6.834
 4063POPC   C4A53082   5.221  21.937   7.209
 4063POPC   C1B53083   4.494  22.469   6.254
 4063POPC   C2B53084   4.680  22.646   6.640
 4063POPC   C3B53085   4.963  22.454   6.939
 4063POPC   C4B53086   4.841  22.331   7.351
 4064POPC   NC353087  34.402   6.238   5.591
 4064POPC   PO453088  34.749   6.742   5.209
 4064POPC   GL153089  34.750   6.746   5.693
 4064POPC   GL253090  34.867   7.074   5.825
 4064POPC   C1A53091  34.559   6.622   6.098
 4064POPC   D2A53092  34.418   6.767   6.492
 4064POPC   C3A53093  34.446   6.621   6.914
 4064POPC   C4A53094  34.248   6.499   7.284
 4064POPC   C1B53095  34.621   7.139   6.185
 4064POPC   C2B53096  34.765   7.120   6.613
 4064POPC   C3B53097  34.726   7.072   7.039
 4064POPC   C4B53098  34.748   6.713   7.325
 4065POPC   NC353099  29.412  10.847   5.436
 4065POPC   PO453100  29.336  10.226   5.693
 4065POPC   GL153101  29.015  10.404   5.907
 4065POPC   GL253102  29.016  10.783   5.950
 4065POPC   C1A53103  29.113  10.445   6.337
 4065POPC   D2A53104  29.168  10.811   6.540
 4065POPC   C3A53105  28.984  10.831   6.933
 4065POPC   C4A53106  28.886  10.715   7.328
 4065POPC   C1B53107  29.474  10.737   6.121
 4065POPC   C2B53108  29.645  10.548   6.522
 4065POPC   C3B53109  29.500  10.703   6.923
 4065POPC   C4B53110  29.362  10.575   7.301
 4066POPC   NC353111   5.258  24.929   4.974
 4066POPC   PO453112   4.851  24.553   5.362
 4066POPC   GL153113   5.011  24.281   5.702
 4066POPC   GL253114   5.202  24.530   5.864
 4066POPC   C1A53115   4.973  24.182   6.157
 4066POPC   D2A53116   5.150  24.471   6.459
 4066POPC   C3A53117   5.089  24.463   6.887
 4066POPC   C4A53118   5.165  24.561   7.301
 4066POPC   C1B53119   5.487  24.721   6.145
 4066POPC   C2B53120   5.482  24.941   6.548
 4066POPC   C3B53121   5.459  24.845   6.992
 4066POPC   C4B53122   5.519  24.886   7.466
 4067POPC   NC353123  27.549   3.758   5.453
 4067POPC   PO453124  27.573   3.194   5.688
 4067POPC   GL153125  27.583   3.610   5.961
 4067POPC   GL253126  27.813   3.867   5.866
 4067POPC   C1A53127  27.539   3.609   6.415
 4067POPC   D2A53128  27.453   3.237   6.667
 4067POPC   C3A53129  27.250   3.350   7.037
 4067POPC   C4A53130  27.365   3.575   7.414
 4067POPC   C1B53131  28.026   3.621   6.214
 4067POPC   C2B53132  27.960   3.457   6.629
 4067POPC   C3B53133  27.704   3.642   6.947
 4067POPC   C4B53134  27.860   3.672   7.356
 4068POPC   NC353135  38.289   9.569   5.511
 4068POPC   PO453136  38.377  10.209   5.425
 4068POPC   GL153137  38.587   9.965   5.746
 4068POPC   GL253138  38.820   9.670   5.797
 4068POPC   C1A53139  38.386   9.843   6.138
 4068POPC   D2A53140  38.376   9.724   6.551
 4068POPC   C3A53141  38.207   9.891   6.901
 4068POPC   C4A53142  38.354   9.649   7.210
 4068POPC   C1B53143  38.848   9.640   6.252
 4068POPC   C2B53144  39.012   9.637   6.692
 4068POPC   C3B53145  38.858   9.495   7.097
 4068POPC   C4B53146  38.662   9.410   7.522
 4069POPC   NC353147   0.472   6.625   5.436
 4069POPC   PO453148   0.639   6.009   5.649
 4069POPC   GL153149   0.650   6.397   5.841
 4069POPC   GL253150   0.306   6.337   5.871
 4069POPC   C1A53151   0.436   6.721   6.140
 4069POPC   D2A53152   0.328   6.804   6.550
 4069POPC   C3A53153   0.512   6.720   6.903
 4069POPC   C4A53154   0.281   6.619   7.206
 4069POPC   C1B53155   0.519   6.230   6.286
 4069POPC   C2B53156   0.707   6.323   6.654
 4069POPC   C3B53157   0.577   6.215   7.057
 4069POPC   C4B53158   0.590   6.340   7.490
 4070POPC   NC353159   7.092  32.841   5.337
 4070POPC   PO453160   7.635  33.083   5.416
 4070POPC   GL153161   7.412  33.280   5.768
 4070POPC   GL253162   7.217  32.995   5.808
 4070POPC   C1A53163   7.340  33.214   6.235
 4070POPC   D2A53164   7.189  33.147   6.651
 4070POPC   C3A53165   7.522  33.166   6.934
 4070POPC   C4A53166   7.770  32.886   7.144
 4070POPC   C1B53167   7.266  32.681   6.140
 4070POPC   C2B53168   7.348  32.628   6.588
 4070POPC   C3B53169   7.253  32.731   7.033
 4070POPC   C4B53170   7.367  32.899   7.448
 4071POPC   NC353171  33.269  41.643   5.256
 4071POPC   PO453172  32.706  41.767   5.561
 4071POPC   GL153173  32.852  41.466   5.875
 4071POPC   GL253174  33.182  41.495   5.765
 4071POPC   C1A53175  33.022  41.423   6.310
 4071POPC   D2A53176  33.174  41.756   6.596
 4071POPC   C3A53177  33.059  41.759   7.065
 4071POPC   C4A53178  32.881  41.365   7.284
 4071POPC   C1B53179  33.480  41.607   6.104
 4071POPC   C2B53180  33.525  41.386   6.516
 4071POPC   C3B53181  33.286  41.336   6.868
 4071POPC   C4B53182  33.412  41.436   7.248
 4072POPC   NC353183  35.268   0.167   5.333
 4072POPC   PO453184  34.685   0.516   5.366
 4072POPC   GL153185  34.986   0.349   5.710
 4072POPC   GL253186  35.337   0.276   5.831
 4072POPC   C1A53187  35.014   0.459   6.174
 4072POPC   D2A53188  35.279   0.405   6.541
 4072POPC   C3A53189  35.070   0.216   6.851
 4072POPC   C4A53190  34.975   0.375   7.209
 4072POPC   C1B53191  35.547   0.083   6.228
 4072POPC   C2B53192  35.761   0.191   6.658
 4072POPC   C3B53193  35.776   0.408   7.081
 4072POPC   C4B53194  35.908   0.447   7.536
 4073POPC   NC353195   4.826  39.264   5.432
 4073POPC   PO453196   5.401  38.820   5.504
 4073POPC   GL153197   5.138  39.011   5.813
 4073POPC   GL253198   5.093  39.358   5.861
 4073POPC   C1A53199   4.883  38.983   6.203
 4073POPC   D2A53200   4.862  39.204   6.616
 4073POPC   C3A53201   4.939  39.029   7.044
 4073POPC   C4A53202   5.165  39.129   7.432
 4073POPC   C1B53203   5.278  39.313   6.278
 4073POPC   C2B53204   5.311  39.567   6.654
 4073POPC   C3B53205   5.273  39.472   7.082
 4073POPC   C4B53206   5.588  39.417   7.437
 4074POPC   NC353207  29.597  40.621   5.447
 4074POPC   PO453208  30.289  40.881   5.403
 4074POPC   GL153209  30.053  40.708   5.744
 4074POPC   GL253210  30.183  40.395   5.820
 4074POPC   C1A53211  29.987  40.816   6.196
 4074POPC   D2A53212  29.874  41.044   6.569
 4074POPC   C3A53213  29.642  40.862   6.850
 4074POPC   C4A53214  29.883  40.832   7.221
 4074POPC   C1B53215  29.877  40.311   6.138
 4074POPC   C2B53216  29.799  40.470   6.545
 4074POPC   C3B53217  30.050  40.491   6.900
 4074POPC   C4B53218  29.923  40.289   7.294
 4075POPC   NC353219  20.827   2.383   5.264
 4075POPC   PO453220  20.210   2.201   5.406
 4075POPC   GL153221  20.540   2.006   5.673
 4075POPC   GL253222  20.520   1.657   5.792
 4075POPC   C1A53223  20.741   2.186   6.059
 4075POPC   D2A53224  20.921   2.145   6.488
 4075POPC   C3A53225  20.743   1.984   6.872
 4075POPC   C4A53226  20.748   2.253   7.233
 4075POPC   C1B53227  20.717   1.657   6.206
 4075POPC   C2B53228  20.479   1.608   6.609
 4075POPC   C3B53229  20.625   1.490   7.022
 4075POPC   C4B53230  20.881   1.660   7.408
 4076POPC   NC353231  36.251  30.469   5.322
 4076POPC   PO453232  35.805  30.896   5.249
 4076POPC   GL153233  35.990  30.529   5.727
 4076POPC   GL253234  36.351  30.700   5.763
 4076POPC   C1A53235  36.121  30.576   6.213
 4076POPC   D2A53236  36.286  30.926   6.530
 4076POPC   C3A53237  36.112  30.985   6.972
 4076POPC   C4A53238  36.194  30.750   7.350
 4076POPC   C1B53239  36.598  30.772   6.151
 4076POPC   C2B53240  36.589  30.474   6.526
 4076POPC   C3B53241  36.517  30.234   6.931
 4076POPC   C4B53242  36.395  30.268   7.381
 4077POPC   NC353243  27.955  30.549   5.448
 4077POPC   PO453244  27.512  31.052   5.581
 4077POPC   GL153245  27.644  30.745   5.830
 4077POPC   GL253246  27.394  30.519   5.871
 4077POPC   C1A53247  27.740  30.756   6.273
 4077POPC   D2A53248  27.683  30.572   6.685
 4077POPC   C3A53249  27.641  30.860   7.003
 4077POPC   C4A53250  27.381  31.048   7.320
 4077POPC   C1B53251  27.385  30.370   6.289
 4077POPC   C2B53252  27.332  30.162   6.678
 4077POPC   C3B53253  27.483  30.295   7.083
 4077POPC   C4B53254  27.533  30.576   7.431
 4078POPC   NC353255  19.642   7.546   5.527
 4078POPC   PO453256  20.092   6.997   5.364
 4078POPC   GL153257  20.046   7.229   5.765
 4078POPC   GL253258  20.112   7.598   5.806
 4078POPC   C1A53259  19.888   7.322   6.178
 4078POPC   D2A53260  19.827   7.548   6.556
 4078POPC   C3A53261  19.896   7.284   6.909
 4078POPC   C4A53262  19.670   7.202   7.255
 4078POPC   C1B53263  20.188   7.784   6.245
 4078POPC   C2B53264  20.242   7.780   6.715
 4078POPC   C3B53265  20.090   7.703   7.132
 4078POPC   C4B53266  20.106   7.376   7.409
 4079POPC   NC353267  23.435  14.521   5.096
 4079POPC   PO453268  23.806  14.043   5.363
 4079POPC   GL153269  23.767  14.195   5.801
 4079POPC   GL253270  23.459  14.368   5.855
 4079POPC   C1A53271  23.876  14.511   6.123
 4079POPC   D2A53272  23.975  14.616   6.552
 4079POPC   C3A53273  23.829  14.418   6.911
 4079POPC   C4A53274  23.974  14.356   7.319
 4079POPC   C1B53275  23.550  14.120   6.251
 4079POPC   C2B53276  23.403  14.095   6.678
 4079POPC   C3B53277  23.461  14.125   7.104
 4079POPC   C4B53278  23.509  14.258   7.511
 4080POPC   NC353279  33.789  36.275   5.429
 4080POPC   PO453280  33.328  35.864   5.723
 4080POPC   GL153281  33.717  36.051   5.891
 4080POPC   GL253282  33.920  35.783   5.713
 4080POPC   C1A53283  33.956  36.269   6.285
 4080POPC   D2A53284  34.076  36.571   6.679
 4080POPC   C3A53285  33.999  36.358   7.109
 4080POPC   C4A53286  33.785  36.235   7.499
 4080POPC   C1B53287  33.785  35.628   6.153
 4080POPC   C2B53288  33.777  35.768   6.587
 4080POPC   C3B53289  33.810  35.877   7.040
 4080POPC   C4B53290  33.988  35.739   7.421
 4081POPC   NC353291  26.569  37.494   5.475
 4081POPC   PO453292  25.930  37.782   5.395
 4081POPC   GL153293  26.025  37.822   5.828
 4081POPC   GL253294  26.345  37.958   5.922
 4081POPC   C1A53295  25.944  37.876   6.244
 4081POPC   D2A53296  26.208  38.006   6.556
 4081POPC   C3A53297  26.160  37.878   6.955
 4081POPC   C4A53298  26.109  37.625   7.291
 4081POPC   C1B53299  26.408  37.642   6.204
 4081POPC   C2B53300  26.272  37.479   6.602
 4081POPC   C3B53301  26.336  37.195   6.968
 4081POPC   C4B53302  26.318  37.202   7.426
 4082POPC   NC353303  35.901  29.662   5.506
 4082POPC   PO453304  36.374  29.276   5.508
 4082POPC   GL153305  36.292  29.229   5.942
 4082POPC   GL253306  35.935  29.325   5.918
 4082POPC   C1A53307  36.358  29.164   6.416
 4082POPC   D2A53308  36.119  29.131   6.809
 4082POPC   C3A53309  36.288  29.036   7.229
 4082POPC   C4A53310  36.570  28.971   7.608
 4082POPC   C1B53311  35.977  29.568   6.312
 4082POPC   C2B53312  35.944  29.626   6.776
 4082POPC   C3B53313  35.893  29.399   7.186
 4082POPC   C4B53314  35.769  29.428   7.611
 4083POPC   NC353315  20.931  39.588   5.708
 4083POPC   PO453316  21.375  39.256   5.387
 4083POPC   GL153317  21.491  39.119   5.806
 4083POPC   GL253318  21.597  39.451   5.851
 4083POPC   C1A53319  21.389  39.147   6.242
 4083POPC   D2A53320  21.163  39.100   6.613
 4083POPC   C3A53321  21.325  39.170   6.980
 4083POPC   C4A53322  21.143  39.342   7.332
 4083POPC   C1B53323  21.766  39.498   6.267
 4083POPC   C2B53324  21.654  39.634   6.669
 4083POPC   C3B53325  21.725  39.485   7.057
 4083POPC   C4B53326  22.004  39.525   7.348
 4084POPC   NC353327  23.942  40.295   5.462
 4084POPC   PO453328  23.427  40.749   5.370
 4084POPC   GL153329  23.395  40.688   5.825
 4084POPC   GL253330  23.686  40.477   5.904
 4084POPC   C1A53331  23.575  40.940   6.186
 4084POPC   D2A53332  23.823  40.950   6.575
 4084POPC   C3A53333  23.625  40.696   6.879
 4084POPC   C4A53334  23.474  40.880   7.193
 4084POPC   C1B53335  24.016  40.638   6.194
 4084POPC   C2B53336  24.189  40.587   6.597
 4084POPC   C3B53337  24.107  40.735   7.011
 4084POPC   C4B53338  23.918  40.547   7.357
 4085POPC   NC353339  31.233  17.690   5.213
 4085POPC   PO453340  31.516  18.386   5.312
 4085POPC   GL153341  31.362  18.240   5.729
 4085POPC   GL253342  31.032  18.222   5.673
 4085POPC   C1A53343  31.525  18.228   6.155
 4085POPC   D2A53344  31.656  18.484   6.532
 4085POPC   C3A53345  31.608  18.259   6.904
 4085POPC   C4A53346  31.749  18.095   7.267
 4085POPC   C1B53347  31.004  18.357   6.101
 4085POPC   C2B53348  31.157  18.360   6.530
 4085POPC   C3B53349  31.111  18.278   6.978
 4085POPC   C4B53350  31.291  17.881   7.178
 4086POPC   NC353351  37.144  21.174   5.410
 4086POPC   PO453352  37.135  21.781   5.558
 4086POPC   GL153353  36.984  21.463   5.812
 4086POPC   GL253354  36.684  21.606   5.918
 4086POPC   C1A53355  36.927  21.251   6.211
 4086POPC   D2A53356  36.869  21.390   6.630
 4086POPC   C3A53357  37.054  21.133   6.960
 4086POPC   C4A53358  37.241  21.385   7.282
 4086POPC   C1B53359  36.457  21.488   6.276
 4086POPC   C2B53360  36.452  21.096   6.483
 4086POPC   C3B53361  36.514  21.169   6.901
 4086POPC   C4B53362  36.731  21.437   7.202
 4087POPC   NC353363   7.936  33.430   5.373
 4087POPC   PO453364   8.282  33.947   5.579
 4087POPC   GL153365   8.034  33.692   5.808
 4087POPC   GL253366   7.902  33.982   5.962
 4087POPC   C1A53367   7.976  33.548   6.231
 4087POPC   D2A53368   8.022  33.712   6.654
 4087POPC   C3A53369   8.290  33.491   6.925
 4087POPC   C4A53370   8.478  33.593   7.299
 4087POPC   C1B53371   8.344  33.976   6.216
 4087POPC   C2B53372   8.542  34.183   6.581
 4087POPC   C3B53373   8.450  34.011   6.991
 4087POPC   C4B53374   8.030  33.852   7.191
 4088POPC   NC353375  20.776  19.272   5.494
 4088POPC   PO453376  20.056  19.238   5.473
 4088POPC   GL153377  20.323  19.117   5.866
 4088POPC   GL253378  20.683  19.145   5.958
 4088POPC   C1A53379  20.387  18.959   6.312
 4088POPC   D2A53380  20.560  18.794   6.692
 4088POPC   C3A53381  20.455  19.011   7.078
 4088POPC   C4A53382  20.540  18.990   7.524
 4088POPC   C1B53383  20.880  19.296   6.304
 4088POPC   C2B53384  20.972  19.116   6.686
 4088POPC   C3B53385  20.965  18.864   7.042
 4088POPC   C4B53386  20.910  19.210   7.275
 4089POPC   NC353387  16.542   7.255   5.328
 4089POPC   PO453388  17.163   7.398   5.437
 4089POPC   GL153389  16.851   7.278   5.791
 4089POPC   GL253390  16.487   7.416   5.804
 4089POPC   C1A53391  16.664   7.182   6.209
 4089POPC   D2A53392  16.632   7.374   6.598
 4089POPC   C3A53393  16.590   7.204   7.015
 4089POPC   C4A53394  16.890   6.901   7.172
 4089POPC   C1B53395  16.428   7.666   6.183
 4089POPC   C2B53396  16.202   7.636   6.551
 4089POPC   C3B53397  16.421   7.686   6.929
 4089POPC   C4B53398  16.611   7.763   7.319
 4090POPC   NC353399  27.804   8.815   5.610
 4090POPC   PO453400  28.245   8.914   5.086
 4090POPC   GL153401  28.243   9.031   5.617
 4090POPC   GL253402  28.031   9.291   5.709
 4090POPC   C1A53403  28.151   8.977   6.129
 4090POPC   D2A53404  28.377   8.966   6.553
 4090POPC   C3A53405  28.256   8.728   6.927
 4090POPC   C4A53406  28.175   8.865   7.329
 4090POPC   C1B53407  28.473   9.346   5.965
 4090POPC   C2B53408  28.566   9.445   6.433
 4090POPC   C3B53409  28.567   9.480   6.889
 4090POPC   C4B53410  28.579   9.089   7.098
 4091POPC   NC353411  27.194  27.106   5.437
 4091POPC   PO453412  27.704  26.722   5.416
 4091POPC   GL153413  27.605  26.981   5.747
 4091POPC   GL253414  27.378  26.753   5.882
 4091POPC   C1A53415  27.785  27.025   6.158
 4091POPC   D2A53416  27.890  26.790   6.547
 4091POPC   C3A53417  27.695  26.892   6.937
 4091POPC   C4A53418  27.481  26.664   7.287
 4091POPC   C1B53419  27.267  27.067   6.194
 4091POPC   C2B53420  27.157  27.134   6.650
 4091POPC   C3B53421  27.240  27.062   7.097
 4091POPC   C4B53422  27.589  27.154   7.427
 4092POPC   NC353423   1.874  38.105   5.341
 4092POPC   PO453424   2.108  38.707   5.228
 4092POPC   GL153425   2.035  38.481   5.668
 4092POPC   GL253426   1.734  38.606   5.889
 4092POPC   C1A53427   2.215  38.516   6.116
 4092POPC   D2A53428   2.397  38.658   6.536
 4092POPC   C3A53429   2.289  38.480   6.958
 4092POPC   C4A53430   2.142  38.786   7.274
 4092POPC   C1B53431   1.750  38.267   6.152
 4092POPC   C2B53432   2.009  38.196   6.519
 4092POPC   C3B53433   1.973  38.030   6.928
 4092POPC   C4B53434   1.840  38.365   7.226
 4093POPC   NC353435   4.906  36.872   5.170
 4093POPC   PO453436   5.420  36.749   5.399
 4093POPC   GL153437   5.126  36.701   5.726
 4093POPC   GL253438   5.222  37.027   5.828
 4093POPC   C1A53439   4.912  36.755   6.162
 4093POPC   D2A53440   5.029  36.908   6.582
 4093POPC   C3A53441   4.829  36.890   6.969
 4093POPC   C4A53442   4.863  36.804   7.402
 4093POPC   C1B53443   5.514  37.248   6.121
 4093POPC   C2B53444   5.659  37.073   6.497
 4093POPC   C3B53445   5.490  36.979   6.850
 4093POPC   C4B53446   5.271  37.040   7.204
 4094POPC   NC353447  37.338  34.049   5.247
 4094POPC   PO453448  36.741  33.661   5.376
 4094POPC   GL153449  36.841  33.681   5.802
 4094POPC   GL253450  36.925  34.043   5.828
 4094POPC   C1A53451  37.070  33.637   6.203
 4094POPC   D2A53452  37.262  33.966   6.424
 4094POPC   C3A53453  37.018  34.074   6.791
 4094POPC   C4A53454  36.927  33.775   7.126
 4094POPC   C1B53455  36.778  34.065   6.269
 4094POPC   C2B53456  36.405  34.102   6.535
 4094POPC   C3B53457  36.475  34.094   6.977
 4094POPC   C4B53458  36.780  34.249   7.225
 4095POPC   NC353459  41.599  12.083   5.279
 4095POPC   PO453460  41.757  11.637   5.718
 4095POPC   GL153461  41.466  11.931   5.831
 4095POPC   GL253462  41.510  12.267   5.759
 4095POPC   C1A53463  41.348  11.781   6.236
 4095POPC   D2A53464  41.620  11.638   6.532
 4095POPC   C3A53465  41.422  11.825   6.868
 4095POPC   C4A53466  41.643  11.929   7.220
 4095POPC   C1B53467  41.663  12.219   6.204
 4095POPC   C2B53468  41.769  12.168   6.659
 4095POPC   C3B53469  41.587  12.369   7.031
 4095POPC   C4B53470  41.740  12.350   7.495
 4096POPC   NC353471  37.103   7.976   5.399
 4096POPC   PO453472  37.034   8.614   5.331
 4096POPC   GL153473  37.177   8.381   5.729
 4096POPC   GL253474  37.343   8.057   5.859
 4096POPC   C1A53475  36.899   8.254   6.091
 4096POPC   D2A53476  36.772   8.100   6.511
 4096POPC   C3A53477  36.587   8.383   6.796
 4096POPC   C4A53478  36.660   8.488   7.211
 4096POPC   C1B53479  37.358   8.154   6.328
 4096POPC   C2B53480  37.261   8.102   6.782
 4096POPC   C3B53481  37.081   7.999   7.213
 4096POPC   C4B53482  37.247   8.022   7.655
 4097POPC   NC353483   6.843   4.776   5.553
 4097POPC   PO453484   6.678   5.402   5.213
 4097POPC   GL153485   6.573   5.264   5.666
 4097POPC   GL253486   6.380   4.985   5.749
 4097POPC   C1A53487   6.603   5.212   6.163
 4097POPC   D2A53488   6.964   5.096   6.449
 4097POPC   C3A53489   6.914   5.018   6.899
 4097POPC   C4A53490   7.004   5.152   7.286
 4097POPC   C1B53491   6.467   4.736   6.154
 4097POPC   C2B53492   6.563   4.813   6.566
 4097POPC   C3B53493   6.393   4.951   6.942
 4097POPC   C4B53494   6.442   4.872   7.384
 4098POPC   NC353495  40.341  21.249   5.550
 4098POPC   PO453496  39.896  21.542   5.166
 4098POPC   GL153497  39.993  21.605   5.660
 4098POPC   GL253498  39.956  21.301   5.904
 4098POPC   C1A53499  40.085  21.730   6.113
 4098POPC   D2A53500  39.936  21.551   6.503
 4098POPC   C3A53501  40.175  21.636   6.860
 4098POPC   C4A53502  40.130  21.348   7.183
 4098POPC   C1B53503  39.707  21.140   6.267
 4098POPC   C2B53504  39.618  21.062   6.714
 4098POPC   C3B53505  39.880  20.901   7.088
 4098POPC   C4B53506  39.706  20.762   7.492
 4099POPC   NC353507  44.905  14.844   4.964
 4099POPC   PO453508   0.335  15.046   5.443
 4099POPC   GL153509   0.429  15.262   5.830
 4099POPC   GL253510   0.699  15.021   5.868
 4099POPC   C1A53511   0.338  15.366   6.276
 4099POPC   D2A53512   0.137  15.174   6.657
 4099POPC   C3A53513   0.235  15.416   7.033
 4099POPC   C4A53514   0.370  15.322   7.457
 4099POPC   C1B53515   0.830  15.347   6.157
 4099POPC   C2B53516   0.757  15.485   6.595
 4099POPC   C3B53517   0.829  15.304   6.992
 4099POPC   C4B53518   0.610  14.977   7.222
 4100POPC   NC353519  35.709  39.658   5.434
 4100POPC   PO453520  35.980  40.238   5.337
 4100POPC   GL153521  36.045  40.176   5.812
 4100POPC   GL253522  36.410  40.089   5.876
 4100POPC   C1A53523  36.060  39.905   6.213
 4100POPC   D2A53524  35.806  39.811   6.582
 4100POPC   C3A53525  35.998  39.717   6.971
 4100POPC   C4A53526  35.770  39.812   7.330
 4100POPC   C1B53527  36.311  40.340   6.243
 4100POPC   C2B53528  36.258  40.183   6.667
 4100POPC   C3B53529  36.133  40.198   7.108
 4100POPC   C4B53530  36.387  40.175   7.471
 4101POPC   NC353531  39.438  31.082   5.485
 4101POPC   PO453532  38.928  30.699   5.395
 4101POPC   GL153533  39.158  30.764   5.789
 4101POPC   GL253534  39.061  30.426   5.825
 4101POPC   C1A53535  39.357  30.741   6.244
 4101POPC   D2A53536  39.337  30.828   6.727
 4101POPC   C3A53537  39.648  30.826   7.108
 4101POPC   C4A53538  39.527  30.986   7.551
 4101POPC   C1B53539  38.876  30.584   6.181
 4101POPC   C2B53540  39.004  30.437   6.563
 4101POPC   C3B53541  39.005  30.511   6.986
 4101POPC   C4B53542  39.141  30.832   7.224
 4102POPC   NC353543  24.331   0.510   5.463
 4102POPC   PO453544  24.755   0.023   5.485
 4102POPC   GL153545  24.581   0.107   5.893
 4102POPC   GL253546  24.218   0.143   5.847
 4102POPC   C1A53547  24.661   0.457   6.195
 4102POPC   D2A53548  24.612   0.795   6.515
 4102POPC   C3A53549  24.900   0.807   6.863
 4102POPC   C4A53550  24.863   0.506   7.191
 4102POPC   C1B53551  24.208   0.232   6.275
 4102POPC   C2B53552  24.298   0.051   6.671
 4102POPC   C3B53553  24.391   0.261   7.077
 4102POPC   C4B53554  24.435   0.747   7.093
 4103POPC   NC353555   6.662   0.847   5.544
 4103POPC   PO453556   6.335   0.274   5.485
 4103POPC   GL153557   6.460   0.518   5.890
 4103POPC   GL253558   6.788   0.444   5.938
 4103POPC   C1A53559   6.570   0.606   6.363
 4103POPC   D2A53560   6.752   0.937   6.604
 4103POPC   C3A53561   6.565   0.789   6.978
 4103POPC   C4A53562   6.329   0.418   7.098
 4103POPC   C1B53563   6.822   0.168   6.297
 4103POPC   C2B53564   6.580   0.192   6.694
 4103POPC   C3B53565   6.575  44.941   7.083
 4103POPC   C4B53566   6.738  44.733   7.466
 4104POPC   NC353567  10.679   7.788   5.380
 4104POPC   PO453568  10.490   8.419   5.171
 4104POPC   GL153569  10.442   8.401   5.640
 4104POPC   GL253570  10.755   8.504   5.721
 4104POPC   C1A53571  10.548   8.100   6.033
 4104POPC   D2A53572  10.735   7.962   6.469
 4104POPC   C3A53573  10.548   8.002   6.898
 4104POPC   C4A53574  10.764   7.906   7.285
 4104POPC   C1B53575  10.697   8.585   6.154
 4104POPC   C2B53576  10.874   8.480   6.561
 4104POPC   C3B53577  10.799   8.584   6.975
 4104POPC   C4B53578  10.613   8.391   7.314
 4105POPC   NC353579  11.844  21.657   5.428
 4105POPC   PO453580  12.371  21.195   5.440
 4105POPC   GL153581  12.037  21.304   5.748
 4105POPC   GL253582  12.229  21.578   5.841
 4105POPC   C1A53583  11.842  21.428   6.140
 4105POPC   D2A53584  12.051  21.350   6.510
 4105POPC   C3A53585  11.803  21.397   6.841
 4105POPC   C4A53586  11.980  21.316   7.222
 4105POPC   C1B53587  12.456  21.291   6.111
 4105POPC   C2B53588  12.544  21.172   6.522
 4105POPC   C3B53589  12.402  21.299   6.920
 4105POPC   C4B53590  12.481  21.206   7.352
 4106POPC   NC353591  17.191   8.575   5.535
 4106POPC   PO453592  17.719   8.197   5.313
 4106POPC   GL153593  17.519   8.247   5.746
 4106POPC   GL253594  17.818   8.500   5.760
 4106POPC   C1A53595  17.231   8.220   6.166
 4106POPC   D2A53596  17.377   8.043   6.610
 4106POPC   C3A53597  17.317   8.163   7.042
 4106POPC   C4A53598  17.317   7.861   7.359
 4106POPC   C1B53599  17.855   8.191   6.118
 4106POPC   C2B53600  17.814   8.292   6.550
 4106POPC   C3B53601  17.789   8.054   6.936
 4106POPC   C4B53602  17.760   8.146   7.359
 4107POPC   NC353603  26.680   6.133   5.409
 4107POPC   PO453604  26.957   5.502   5.368
 4107POPC   GL153605  26.830   5.734   5.733
 4107POPC   GL253606  26.962   6.053   5.840
 4107POPC   C1A53607  26.669   5.786   6.157
 4107POPC   D2A53608  26.911   5.922   6.538
 4107POPC   C3A53609  26.696   5.814   6.922
 4107POPC   C4A53610  26.798   5.808   7.353
 4107POPC   C1B53611  26.807   6.306   6.207
 4107POPC   C2B53612  26.939   6.432   6.656
 4107POPC   C3B53613  26.872   6.273   7.091
 4107POPC   C4B53614  27.123   6.175   7.451
 4108POPC   NC353615  44.277  40.650   5.487
 4108POPC   PO453616  43.652  40.544   5.557
 4108POPC   GL153617  43.800  40.817   5.891
 4108POPC   GL253618  44.072  41.060   5.773
 4108POPC   C1A53619  43.833  40.666   6.319
 4108POPC   D2A53620  44.063  40.399   6.599
 4108POPC   C3A53621  43.793  40.306   6.946
 4108POPC   C4A53622  43.899  40.476   7.352
 4108POPC   C1B53623  44.241  40.932   6.172
 4108POPC   C2B53624  44.130  41.010   6.589
 4108POPC   C3B53625  43.937  40.820   6.932
 4108POPC   C4B53626  43.976  41.049   7.301
 4109POPC   NC353627  43.972  28.206   5.413
 4109POPC   PO453628  43.873  28.735   5.648
 4109POPC   GL153629  43.570  28.397   5.801
 4109POPC   GL253630  43.643  28.035   5.852
 4109POPC   C1A53631  43.646  28.407   6.268
 4109POPC   D2A53632  43.879  28.512   6.655
 4109POPC   C3A53633  44.212  28.214   6.785
 4109POPC   C4A53634  43.990  28.319   7.134
 4109POPC   C1B53635  43.842  27.935   6.294
 4109POPC   C2B53636  43.720  28.042   6.765
 4109POPC   C3B53637  43.466  28.216   7.149
 4109POPC   C4B53638  43.400  28.323   7.636
 4110POPC   NC353639  34.553  39.639   5.368
 4110POPC   PO453640  34.724  40.380   5.557
 4110POPC   GL153641  34.586  40.156   5.873
 4110POPC   GL253642  34.685  39.809   5.838
 4110POPC   C1A53643  34.406  40.214   6.286
 4110POPC   D2A53644  34.607  39.917   6.549
 4110POPC   C3A53645  34.489  39.952   6.945
 4110POPC   C4A53646  34.568  40.162   7.342
 4110POPC   C1B53647  34.262  39.797   6.049
 4110POPC   C2B53648  34.097  39.825   6.481
 4110POPC   C3B53649  34.064  39.632   6.909
 4110POPC   C4B53650  34.335  39.631   7.296
 4111POPC   NC353651   6.504   2.545   5.149
 4111POPC   PO453652   6.942   2.964   5.483
 4111POPC   GL153653   6.673   2.768   5.819
 4111POPC   GL253654   6.421   2.541   5.681
 4111POPC   C1A53655   6.579   2.822   6.280
 4111POPC   D2A53656   6.769   2.969   6.682
 4111POPC   C3A53657   6.646   2.846   7.088
 4111POPC   C4A53658   6.853   2.859   7.473
 4111POPC   C1B53659   6.355   2.371   6.130
 4111POPC   C2B53660   6.217   2.479   6.577
 4111POPC   C3B53661   6.416   2.383   6.999
 4111POPC   C4B53662   6.620   2.421   7.415
 4112POPC   NC353663  29.979  27.942   4.979
 4112POPC   PO453664  29.972  27.456   5.411
 4112POPC   GL153665  29.722  27.524   5.801
 4112POPC   GL253666  29.965  27.784   5.903
 4112POPC   C1A53667  29.752  27.509   6.282
 4112POPC   D2A53668  29.839  27.230   6.642
 4112POPC   C3A53669  29.818  27.439   7.028
 4112POPC   C4A53670  29.505  27.712   7.177
 4112POPC   C1B53671  30.013  27.926   6.335
 4112POPC   C2B53672  29.851  27.890   6.761
 4112POPC   C3B53673  29.981  27.896   7.208
 4112POPC   C4B53674  29.888  27.935   7.646
 4113POPC   NC353675  40.354   8.101   5.170
 4113POPC   PO453676  40.832   7.864   5.598
 4113POPC   GL153677  40.718   7.844   6.003
 4113POPC   GL253678  40.677   8.176   5.982
 4113POPC   C1A53679  40.692   7.786   6.448
 4113POPC   D2A53680  40.555   8.126   6.693
 4113POPC   C3A53681  40.688   8.100   7.113
 4113POPC   C4A53682  40.676   8.032   7.541
 4113POPC   C1B53683  41.006   8.183   6.297
 4113POPC   C2B53684  41.064   8.295   6.729
 4113POPC   C3B53685  41.062   8.483   7.143
 4113POPC   C4B53686  41.025   8.403   7.607
 4114POPC   NC353687   0.513  37.953   5.100
 4114POPC   PO453688   0.133  37.615   5.535
 4114POPC   GL153689   0.250  37.671   5.950
 4114POPC   GL253690   0.573  37.619   6.054
 4114POPC   C1A53691   0.178  37.633   6.391
 4114POPC   D2A53692   0.075  37.634   6.822
 4114POPC   C3A53693   0.380  37.750   7.129
 4114POPC   C4A53694   0.182  37.796   7.520
 4114POPC   C1B53695   0.675  37.392   6.429
 4114POPC   C2B53696   0.667  37.360   6.860
 4114POPC   C3B53697   0.853  37.540   7.198
 4114POPC   C4B53698   0.703  37.535   7.633
 4115POPC   NC353699   7.853  27.784   5.497
 4115POPC   PO453700   7.345  27.345   5.565
 4115POPC   GL153701   7.509  27.623   5.859
 4115POPC   GL253702   7.359  27.945   5.846
 4115POPC   C1A53703   7.481  27.538   6.269
 4115POPC   D2A53704   7.621  27.525   6.683
 4115POPC   C3A53705   7.336  27.429   7.006
 4115POPC   C4A53706   7.530  27.765   7.241
 4115POPC   C1B53707   7.122  27.897   6.234
 4115POPC   C2B53708   7.167  27.762   6.649
 4115POPC   C3B53709   7.040  27.873   7.063
 4115POPC   C4B53710   7.063  27.668   7.444
 4116POPC   NC353711  14.643  39.979   5.374
 4116POPC   PO453712  15.314  40.100   5.343
 4116POPC   GL153713  15.043  40.027   5.713
 4116POPC   GL253714  15.055  39.670   5.750
 4116POPC   C1A53715  15.072  40.021   6.182
 4116POPC   D2A53716  15.305  40.260   6.514
 4116POPC   C3A53717  15.209  40.186   6.950
 4116POPC   C4A53718  14.927  39.919   7.139
 4116POPC   C1B53719  15.479  39.787   5.930
 4116POPC   C2B53720  15.548  39.812   6.392
 4116POPC   C3B53721  15.278  39.720   6.761
 4116POPC   C4B53722  15.397  39.777   7.205
 4117POPC   NC353723   9.920  29.542   5.527
 4117POPC   PO453724   9.962  30.153   5.201
 4117POPC   GL153725   9.747  30.065   5.618
 4117POPC   GL253726   9.966  29.953   5.857
 4117POPC   C1A53727   9.501  30.023   6.037
 4117POPC   D2A53728   9.473  30.305   6.406
 4117POPC   C3A53729   9.578  30.081   6.800
 4117POPC   C4A53730   9.506  30.056   7.265
 4117POPC   C1B53731   9.963  30.196   6.222
 4117POPC   C2B53732  10.088  30.064   6.618
 4117POPC   C3B53733  10.031  30.151   7.048
 4117POPC   C4B53734   9.977  30.042   7.497
 4118POPC   NC353735   1.734  36.593   5.193
 4118POPC   PO453736   2.319  36.973   5.348
 4118POPC   GL153737   2.031  36.887   5.673
 4118POPC   GL253738   2.003  36.550   5.797
 4118POPC   C1A53739   1.917  36.967   6.113
 4118POPC   D2A53740   1.912  36.847   6.542
 4118POPC   C3A53741   2.104  37.091   6.841
 4118POPC   C4A53742   2.235  37.055   7.238
 4118POPC   C1B53743   1.795  36.456   6.199
 4118POPC   C2B53744   1.486  36.584   6.527
 4118POPC   C3B53745   1.511  36.887   6.849
 4118POPC   C4B53746   1.707  37.087   7.200
 4119POPC   NC353747   5.474  15.276   5.557
 4119POPC   PO453748   6.122  15.111   5.592
 4119POPC   GL153749   5.835  15.158   5.945
 4119POPC   GL253750   5.541  14.916   5.941
 4119POPC   C1A53751   5.980  15.311   6.359
 4119POPC   D2A53752   6.065  15.082   6.754
 4119POPC   C3A53753   5.738  15.253   7.014
 4119POPC   C4A53754   5.615  15.631   7.267
 4119POPC   C1B53755   5.746  14.862   6.371
 4119POPC   C2B53756   5.676  14.726   6.809
 4119POPC   C3B53757   5.882  14.795   7.219
 4119POPC   C4B53758   6.137  15.074   7.431
 4120POPC   NC353759  23.408  37.337   5.637
 4120POPC   PO453760  23.687  37.878   5.330
 4120POPC   GL153761  23.909  37.926   5.760
 4120POPC   GL253762  23.723  38.204   5.904
 4120POPC   C1A53763  23.973  37.789   6.233
 4120POPC   D2A53764  23.852  37.788   6.723
 4120POPC   C3A53765  24.000  37.493   7.083
 4120POPC   C4A53766  23.778  37.302   7.451
 4120POPC   C1B53767  23.464  37.984   6.206
 4120POPC   C2B53768  23.381  38.023   6.651
 4120POPC   C3B53769  23.517  38.013   7.062
 4120POPC   C4B53770  23.461  37.571   7.160
 4121POPC   NC353771  27.585  32.894   5.407
 4121POPC   PO453772  27.855  33.562   5.444
 4121POPC   GL153773  27.881  33.232   5.799
 4121POPC   GL253774  27.973  32.857   5.768
 4121POPC   C1A53775  27.756  33.070   6.234
 4121POPC   D2A53776  27.658  32.916   6.671
 4121POPC   C3A53777  27.571  33.229   6.998
 4121POPC   C4A53778  27.513  33.173   7.446
 4121POPC   C1B53779  27.926  32.572   6.148
 4121POPC   C2B53780  27.877  32.434   6.601
 4121POPC   C3B53781  27.944  32.457   7.034
 4121POPC   C4B53782  27.742  32.790   7.194
 4122POPC   NC353783  26.456  18.633   5.466
 4122POPC   PO453784  25.993  18.171   5.198
 4122POPC   GL153785  26.060  18.341   5.637
 4122POPC   GL253786  25.758  18.412   5.821
 4122POPC   C1A53787  26.112  18.250   6.127
 4122POPC   D2A53788  26.197  18.112   6.556
 4122POPC   C3A53789  26.072  18.328   6.950
 4122POPC   C4A53790  26.043  18.040   7.301
 4122POPC   C1B53791  25.753  18.597   6.232
 4122POPC   C2B53792  25.802  18.699   6.657
 4122POPC   C3B53793  25.641  18.645   7.049
 4122POPC   C4B53794  25.753  18.434   7.383
 4123POPC   NC353795   5.694  31.187   5.432
 4123POPC   PO453796   6.173  30.888   5.040
 4123POPC   GL153797   6.029  30.798   5.520
 4123POPC   GL253798   6.093  31.083   5.775
 4123POPC   C1A53799   5.919  30.636   5.975
 4123POPC   D2A53800   5.992  30.580   6.451
 4123POPC   C3A53801   5.718  30.482   6.807
 4123POPC   C4A53802   5.717  30.466   7.260
 4123POPC   C1B53803   6.298  30.943   6.189
 4123POPC   C2B53804   6.329  30.958   6.645
 4123POPC   C3B53805   6.159  31.114   7.018
 4123POPC   C4B53806   6.023  31.068   7.430
 4124POPC   NC353807  44.307  21.327   5.375
 4124POPC   PO453808   0.005  21.068   5.398
 4124POPC   GL153809  44.735  21.300   5.677
 4124POPC   GL253810  44.437  21.131   5.810
 4124POPC   C1A53811  44.674  21.526   6.066
 4124POPC   D2A53812  44.621  21.351   6.475
 4124POPC   C3A53813  44.765  21.537   6.848
 4124POPC   C4A53814  44.503  21.598   7.210
 4124POPC   C1B53815  44.412  20.948   6.191
 4124POPC   C2B53816  44.199  21.055   6.537
 4124POPC   C3B53817  44.354  21.205   6.914
 4124POPC   C4B53818  44.584  20.992   7.201
 4125POPC   NC353819   7.881  11.352   5.358
 4125POPC   PO453820   7.205  11.452   5.238
 4125POPC   GL153821   7.458  11.350   5.643
 4125POPC   GL253822   7.738  11.069   5.757
 4125POPC   C1A53823   7.507  11.381   6.095
 4125POPC   D2A53824   7.686  11.410   6.512
 4125POPC   C3A53825   7.461  11.346   6.908
 4125POPC   C4A53826   7.459  11.295   7.397
 4125POPC   C1B53827   7.860  11.002   6.217
 4125POPC   C2B53828   7.710  10.925   6.667
 4125POPC   C3B53829   7.710  10.956   7.126
 4125POPC   C4B53830   7.688  10.853   7.591
 4126POPC   NC353831   1.448   4.815   5.439
 4126POPC   PO453832   0.741   4.797   5.305
 4126POPC   GL153833   1.014   4.959   5.694
 4126POPC   GL253834   1.172   5.296   5.817
 4126POPC   C1A53835   1.266   4.876   6.083
 4126POPC   D2A53836   1.173   5.042   6.466
 4126POPC   C3A53837   1.328   4.904   6.865
 4126POPC   C4A53838   1.151   4.858   7.275
 4126POPC   C1B53839   1.479   5.361   6.200
 4126POPC   C2B53840   1.394   5.438   6.679
 4126POPC   C3B53841   1.385   5.329   7.131
 4126POPC   C4B53842   1.376   5.249   7.582
 4127POPC   NC353843  12.807  33.870   5.262
 4127POPC   PO453844  12.468  33.391   5.673
 4127POPC   GL153845  12.847  33.644   5.784
 4127POPC   GL253846  12.813  33.999   5.755
 4127POPC   C1A53847  13.083  33.861   6.148
 4127POPC   D2A53848  13.133  34.137   6.498
 4127POPC   C3A53849  13.236  33.810   6.795
 4127POPC   C4A53850  13.037  33.737   7.204
 4127POPC   C1B53851  12.603  34.024   6.167
 4127POPC   C2B53852  12.694  33.852   6.550
 4127POPC   C3B53853  12.820  34.081   6.901
 4127POPC   C4B53854  12.604  34.139   7.239
 4128POPC   NC353855  38.267  24.875   5.425
 4128POPC   PO453856  38.381  24.246   5.333
 4128POPC   GL153857  38.421  24.274   5.766
 4128POPC   GL253858  38.462  24.627   5.841
 4128POPC   C1A53859  38.451  24.292   6.214
 4128POPC   D2A53860  38.329  24.463   6.583
 4128POPC   C3A53861  38.578  24.448   6.961
 4128POPC   C4A53862  38.472  24.514   7.412
 4128POPC   C1B53863  38.154  24.746   6.160
 4128POPC   C2B53864  38.142  24.958   6.565
 4128POPC   C3B53865  38.145  24.749   6.960
 4128POPC   C4B53866  38.118  24.937   7.330
 4129POPC   NC353867  35.262  38.203   5.707
 4129POPC   PO453868  35.365  38.666   5.176
 4129POPC   GL153869  35.518  38.649   5.692
 4129POPC   GL253870  35.262  38.622   6.048
 4129POPC   C1A53871  35.731  38.485   6.101
 4129POPC   D2A53872  35.487  38.355   6.477
 4129POPC   C3A53873  35.525  38.647   6.816
 4129POPC   C4A53874  35.482  38.546   7.281
 4129POPC   C1B53875  35.004  38.274   6.264
 4129POPC   C2B53876  34.968  38.100   6.610
 4129POPC   C3B53877  35.164  38.288   6.919
 4129POPC   C4B53878  35.004  38.328   7.317
 4130POPC   NC353879  20.501  41.072   5.399
 4130POPC   PO453880  20.826  41.757   5.500
 4130POPC   GL153881  20.511  41.495   5.736
 4130POPC   GL253882  20.333  41.183   5.882
 4130POPC   C1A53883  20.417  41.585   6.176
 4130POPC   D2A53884  20.696  41.721   6.514
 4130POPC   C3A53885  20.491  41.843   6.897
 4130POPC   C4A53886  20.317  41.580   7.209
 4130POPC   C1B53887  20.689  41.099   6.175
 4130POPC   C2B53888  20.805  41.030   6.642
 4130POPC   C3B53889  20.685  41.264   7.041
 4130POPC   C4B53890  20.861  41.671   7.212
 4131POPC   NC353891  12.853  27.895   5.520
 4131POPC   PO453892  12.667  27.272   5.298
 4131POPC   GL153893  12.721  27.430   5.760
 4131POPC   GL253894  13.021  27.396   5.924
 4131POPC   C1A53895  12.734  27.648   6.231
 4131POPC   D2A53896  12.788  27.957   6.580
 4131POPC   C3A53897  12.850  27.765   6.989
 4131POPC   C4A53898  12.927  27.334   7.112
 4131POPC   C1B53899  13.235  27.571   6.253
 4131POPC   C2B53900  13.167  27.429   6.646
 4131POPC   C3B53901  13.356  27.566   6.972
 4131POPC   C4B53902  13.239  27.666   7.375
 4132POPC   NC353903  29.355  31.754   5.460
 4132POPC   PO453904  28.889  31.279   5.364
 4132POPC   GL153905  28.990  31.502   5.748
 4132POPC   GL253906  29.326  31.376   5.791
 4132POPC   C1A53907  29.088  31.646   6.170
 4132POPC   D2A53908  29.064  31.868   6.572
 4132POPC   C3A53909  29.094  31.588   6.933
 4132POPC   C4A53910  28.927  31.532   7.364
 4132POPC   C1B53911  29.424  31.191   6.196
 4132POPC   C2B53912  29.298  31.090   6.630
 4132POPC   C3B53913  29.523  31.253   6.976
 4132POPC   C4B53914  29.440  31.530   7.320
 4133POPC   NC353915  33.137  44.632   5.412
 4133POPC   PO453916  33.363  44.073   5.155
 4133POPC   GL153917  33.154  44.209   5.692
 4133POPC   GL253918  32.872  44.439   5.869
 4133POPC   C1A53919  33.282  44.497   6.131
 4133POPC   D2A53920  33.154  44.656   6.506
 4133POPC   C3A53921  33.340  44.635   6.893
 4133POPC   C4A53922  33.087  44.615   7.298
 4133POPC   C1B53923  32.923  44.891   6.116
 4133POPC   C2B53924  32.993   0.134   6.524
 4133POPC   C3B53925  32.926  44.930   6.914
 4133POPC   C4B53926  32.898   0.097   7.301
 4134POPC   NC353927   4.155  23.465   5.437
 4134POPC   PO453928   4.272  22.815   5.380
 4134POPC   GL153929   4.453  22.890   5.815
 4134POPC   GL253930   4.585  23.245   5.884
 4134POPC   C1A53931   4.339  22.978   6.269
 4134POPC   D2A53932   4.400  23.147   6.686
 4134POPC   C3A53933   4.309  22.908   7.052
 4134POPC   C4A53934   3.892  22.764   7.067
 4134POPC   C1B53935   4.597  23.460   6.310
 4134POPC   C2B53936   4.716  23.538   6.770
 4134POPC   C3B53937   4.440  23.428   7.146
 4134POPC   C4B53938   4.411  23.469   7.618
 4135POPC   NC353939  41.709   9.041   5.383
 4135POPC   PO453940  41.152   8.810   5.644
 4135POPC   GL153941  41.533   8.840   5.866
 4135POPC   GL253942  41.828   8.636   5.750
 4135POPC   C1A53943  41.477   8.994   6.279
 4135POPC   D2A53944  41.355   9.195   6.672
 4135POPC   C3A53945  41.396   8.954   7.058
 4135POPC   C4A53946  41.680   9.063   7.428
 4135POPC   C1B53947  41.917   8.703   6.204
 4135POPC   C2B53948  41.884   8.990   6.565
 4135POPC   C3B53949  41.945   8.923   6.968
 4135POPC   C4B53950  41.775   8.606   7.145
 4136POPC   NC353951  37.935  33.466   5.574
 4136POPC   PO453952  37.435  32.943   5.419
 4136POPC   GL153953  37.527  32.807   5.805
 4136POPC   GL253954  37.843  32.969   5.791
 4136POPC   C1A53955  37.527  32.896   6.242
 4136POPC   D2A53956  37.778  32.912   6.611
 4136POPC   C3A53957  37.566  32.815   6.991
 4136POPC   C4A53958  37.370  33.200   7.157
 4136POPC   C1B53959  37.969  33.172   6.187
 4136POPC   C2B53960  38.022  33.371   6.591
 4136POPC   C3B53961  38.094  33.169   6.959
 4136POPC   C4B53962  37.890  33.059   7.313
 4137POPC   NC353963  41.558  20.067   5.423
 4137POPC   PO453964  42.019  19.590   5.238
 4137POPC   GL153965  41.862  19.739   5.682
 4137POPC   GL253966  42.049  19.477   5.840
 4137POPC   C1A53967  41.664  19.808   6.126
 4137POPC   D2A53968  41.399  20.009   6.481
 4137POPC   C3A53969  41.533  19.924   6.923
 4137POPC   C4A53970  41.303  20.041   7.312
 4137POPC   C1B53971  41.955  19.351   6.251
 4137POPC   C2B53972  41.772  19.521   6.614
 4137POPC   C3B53973  41.872  19.467   7.042
 4137POPC   C4B53974  41.681  19.678   7.377
 4138POPC   NC353975  32.228   9.446   5.286
 4138POPC   PO453976  32.517  10.041   5.544
 4138POPC   GL153977  32.177   9.944   5.841
 4138POPC   GL253978  32.049   9.586   5.879
 4138POPC   C1A53979  32.155   9.911   6.288
 4138POPC   D2A53980  32.486  10.021   6.614
 4138POPC   C3A53981  32.278  10.121   7.011
 4138POPC   C4A53982  32.019   9.911   7.314
 4138POPC   C1B53983  32.245   9.415   6.267
 4138POPC   C2B53984  32.182   9.553   6.689
 4138POPC   C3B53985  32.085   9.444   7.108
 4138POPC   C4B53986  32.298   9.488   7.496
 4139POPC   NC353987  11.113  30.713   5.378
 4139POPC   PO453988  11.595  30.319   5.406
 4139POPC   GL153989  11.438  30.485   5.770
 4139POPC   GL253990  11.176  30.231   5.782
 4139POPC   C1A53991  11.400  30.819   6.106
 4139POPC   D2A53992  11.459  30.992   6.532
 4139POPC   C3A53993  11.163  30.970   6.893
 4139POPC   C4A53994  11.290  30.881   7.297
 4139POPC   C1B53995  11.040  30.461   6.149
 4139POPC   C2B53996  11.134  30.568   6.591
 4139POPC   C3B53997  11.120  30.449   7.049
 4139POPC   C4B53998  11.011  30.519   7.522
 4140POPC   NC353999  17.136   3.797   5.090
 4140POPC   PO454000  16.555   3.464   5.355
 4140POPC   GL154001  16.418   3.613   5.777
 4140POPC   GL254002  16.684   3.814   5.936
 4140POPC   C1A54003  16.301   3.669   6.233
 4140POPC   D2A54004  16.640   3.715   6.549
 4140POPC   C3A54005  16.540   3.623   6.954
 4140POPC   C4A54006  16.872   3.711   7.228
 4140POPC   C1B54007  16.776   3.421   6.160
 4140POPC   C2B54008  16.925   3.132   6.457
 4140POPC   C3B54009  17.049   2.993   6.854
 4140POPC   C4B54010  17.042   3.161   7.262
 4141POPC   NC354011   3.202  34.649   5.147
 4141POPC   PO454012   2.559  34.521   5.384
 4141POPC   GL154013   2.575  34.820   5.685
 4141POPC   GL254014   2.919  34.775   5.782
 4141POPC   C1A54015   2.556  34.816   6.121
 4141POPC   D2A54016   2.572  34.576   6.472
 4141POPC   C3A54017   2.538  34.870   6.760
 4141POPC   C4A54018   2.598  34.816   7.157
 4141POPC   C1B54019   3.077  34.773   6.242
 4141POPC   C2B54020   3.075  34.574   6.674
 4141POPC   C3B54021   2.852  34.366   7.026
 4141POPC   C4B54022   2.493  34.272   7.330
 4142POPC   NC354023  43.017  29.486   5.478
 4142POPC   PO454024  43.311  30.195   5.408
 4142POPC   GL154025  43.071  30.050   5.765
 4142POPC   GL254026  43.299  29.760   5.832
 4142POPC   C1A54027  42.892  29.818   6.145
 4142POPC   D2A54028  43.065  29.704   6.558
 4142POPC   C3A54029  42.920  29.950   6.913
 4142POPC   C4A54030  42.920  30.046   7.350
 4142POPC   C1B54031  43.368  30.017   6.218
 4142POPC   C2B54032  43.435  30.051   6.676
 4142POPC   C3B54033  43.403  29.876   7.104
 4142POPC   C4B54034  43.365  29.958   7.552
 4143POPC   NC354035   1.915   7.316   5.657
 4143POPC   PO454036   1.703   6.837   5.252
 4143POPC   GL154037   1.761   6.817   5.731
 4143POPC   GL254038   2.000   6.574   5.768
 4143POPC   C1A54039   1.937   6.901   6.205
 4143POPC   D2A54040   2.141   6.721   6.608
 4143POPC   C3A54041   2.192   6.885   7.055
 4143POPC   C4A54042   2.189   6.725   7.498
 4143POPC   C1B54043   1.778   6.431   6.118
 4143POPC   C2B54044   1.860   6.292   6.486
 4143POPC   C3B54045   1.700   6.331   6.890
 4143POPC   C4B54046   1.780   6.598   7.224
 4144POPC   NC354047  28.233   7.174   5.665
 4144POPC   PO454048  28.189   6.495   5.416
 4144POPC   GL154049  28.143   6.677   5.787
 4144POPC   GL254050  28.482   6.792   5.919
 4144POPC   C1A54051  28.059   6.837   6.208
 4144POPC   D2A54052  28.231   6.700   6.580
 4144POPC   C3A54053  28.049   6.723   6.973
 4144POPC   C4A54054  28.338   6.870   7.272
 4144POPC   C1B54055  28.329   6.413   6.162
 4144POPC   C2B54056  28.463   6.218   6.523
 4144POPC   C3B54057  28.354   6.307   6.906
 4144POPC   C4B54058  28.163   6.311   7.286
 4145POPC   NC354059  41.499  43.970   5.206
 4145POPC   PO454060  41.777  43.421   5.412
 4145POPC   GL154061  41.538  43.584   5.756
 4145POPC   GL254062  41.221  43.728   5.616
 4145POPC   C1A54063  41.660  43.759   6.166
 4145POPC   D2A54064  41.647  44.026   6.530
 4145POPC   C3A54065  41.516  43.738   6.847
 4145POPC   C4A54066  41.715  43.652   7.235
 4145POPC   C1B54067  41.194  43.910   6.011
 4145POPC   C2B54068  41.161  43.881   6.448
 4145POPC   C3B54069  41.213  44.153   6.808
 4145POPC   C4B54070  41.418  44.069   7.205
 4146POPC   NC354071  27.823   7.895   5.297
 4146POPC   PO454072  27.516   8.517   5.386
 4146POPC   GL154073  27.440   8.498   5.805
 4146POPC   GL254074  27.726   8.257   5.797
 4146POPC   C1A54075  27.365   8.278   6.185
 4146POPC   D2A54076  27.508   8.406   6.588
 4146POPC   C3A54077  27.386   8.128   6.916
 4146POPC   C4A54078  27.320   8.342   7.276
 4146POPC   C1B54079  27.884   8.461   6.167
 4146POPC   C2B54080  28.052   8.460   6.560
 4146POPC   C3B54081  27.899   8.287   6.950
 4146POPC   C4B54082  27.734   8.045   7.307
 4147POPC   NC354083  22.024   3.871   5.473
 4147POPC   PO454084  21.913   3.259   5.308
 4147POPC   GL154085  22.109   3.443   5.750
 4147POPC   GL254086  21.850   3.662   5.907
 4147POPC   C1A54087  22.247   3.651   6.197
 4147POPC   D2A54088  21.919   3.699   6.546
 4147POPC   C3A54089  22.042   3.718   6.984
 4147POPC   C4A54090  22.368   3.717   7.338
 4147POPC   C1B54091  21.896   3.295   6.221
 4147POPC   C2B54092  22.099   3.158   6.557
 4147POPC   C3B54093  22.335   3.321   6.824
 4147POPC   C4B54094  22.170   3.276   7.200
 4148POPC   NC354095  28.856  27.679   5.403
 4148POPC   PO454096  29.221  27.146   5.453
 4148POPC   GL154097  29.182  27.364   5.842
 4148POPC   GL254098  29.163  27.711   5.803
 4148POPC   C1A54099  29.243  27.459   6.285
 4148POPC   D2A54100  29.423  27.577   6.673
 4148POPC   C3A54101  29.099  27.506   6.964
 4148POPC   C4A54102  29.206  27.353   7.363
 4148POPC   C1B54103  28.916  27.824   6.168
 4148POPC   C2B54104  29.051  27.923   6.614
 4148POPC   C3B54105  28.985  27.983   7.076
 4148POPC   C4B54106  28.932  27.764   7.483
 4149POPC   NC354107  35.324  16.908   5.262
 4149POPC   PO454108  34.837  16.314   5.292
 4149POPC   GL154109  35.069  16.615   5.612
 4149POPC   GL254110  35.371  16.460   5.763
 4149POPC   C1A54111  35.254  16.909   5.977
 4149POPC   D2A54112  35.469  16.832   6.384
 4149POPC   C3A54113  35.431  16.836   6.858
 4149POPC   C4A54114  35.091  16.951   7.159
 4149POPC   C1B54115  35.666  16.445   6.128
 4149POPC   C2B54116  35.661  16.299   6.571
 4149POPC   C3B54117  35.893  16.380   6.958
 4149POPC   C4B54118  35.814  16.525   7.362
 4150POPC   NC354119  16.135  23.096   5.360
 4150POPC   PO454120  15.575  22.631   5.432
 4150POPC   GL154121  15.766  22.924   5.736
 4150POPC   GL254122  16.119  22.865   5.818
 4150POPC   C1A54123  15.794  23.093   6.179
 4150POPC   D2A54124  15.689  22.883   6.592
 4150POPC   C3A54125  15.607  23.122   6.982
 4150POPC   C4A54126  15.785  23.002   7.385
 4150POPC   C1B54127  16.291  23.247   6.016
 4150POPC   C2B54128  16.245  23.356   6.463
 4150POPC   C3B54129  16.099  23.158   6.844
 4150POPC   C4B54130  16.305  23.079   7.241
 4151POPC   NC354131  39.629  31.678   5.620
 4151POPC   PO454132  39.039  31.308   5.384
 4151POPC   GL154133  39.075  31.459   5.801
 4151POPC   GL254134  39.374  31.446   5.991
 4151POPC   C1A54135  38.971  31.653   6.217
 4151POPC   D2A54136  39.185  31.728   6.617
 4151POPC   C3A54137  39.015  31.668   7.011
 4151POPC   C4A54138  39.286  31.337   7.176
 4151POPC   C1B54139  39.495  31.854   6.225
 4151POPC   C2B54140  39.678  31.891   6.649
 4151POPC   C3B54141  39.549  31.777   7.054
 4151POPC   C4B54142  39.619  31.796   7.506
 4152POPC   NC354143   6.685  34.784   5.552
 4152POPC   PO454144   6.177  34.413   5.309
 4152POPC   GL154145   6.469  34.324   5.667
 4152POPC   GL254146   6.821  34.259   5.683
 4152POPC   C1A54147   6.452  34.331   6.141
 4152POPC   D2A54148   6.312  34.395   6.597
 4152POPC   C3A54149   6.357  34.257   7.035
 4152POPC   C4A54150   6.450  34.646   7.282
 4152POPC   C1B54151   6.981  34.355   6.088
 4152POPC   C2B54152   6.833  34.421   6.488
 4152POPC   C3B54153   6.792  34.480   6.909
 4152POPC   C4B54154   6.975  34.261   7.249
 4153POPC   NC354155  29.448   0.733   5.604
 4153POPC   PO454156  28.895   0.910   5.262
 4153POPC   GL154157  28.915   1.095   5.665
 4153POPC   GL254158  29.268   1.195   5.701
 4153POPC   C1A54159  28.927   1.281   6.095
 4153POPC   D2A54160  29.110   1.319   6.509
 4153POPC   C3A54161  28.928   1.385   6.912
 4153POPC   C4A54162  29.146   1.589   7.248
 4153POPC   C1B54163  29.417   1.101   6.130
 4153POPC   C2B54164  29.537   1.050   6.541
 4153POPC   C3B54165  29.335   1.048   6.909
 4153POPC   C4B54166  29.437   0.845   7.245
 4154POPC   NC354167  28.456  18.710   5.344
 4154POPC   PO454168  28.772  19.298   5.325
 4154POPC   GL154169  28.701  19.206   5.784
 4154POPC   GL254170  28.386  19.012   5.843
 4154POPC   C1A54171  28.667  19.146   6.260
 4154POPC   D2A54172  28.483  18.908   6.621
 4154POPC   C3A54173  28.296  19.075   7.001
 4154POPC   C4A54174  28.447  19.121   7.422
 4154POPC   C1B54175  28.134  18.974   6.233
 4154POPC   C2B54176  27.937  18.830   6.615
 4154POPC   C3B54177  28.028  18.652   7.025
 4154POPC   C4B54178  28.018  18.828   7.433
 4155POPC   NC354179  15.108  34.242   5.315
 4155POPC   PO454180  14.725  34.796   5.458
 4155POPC   GL154181  14.997  34.496   5.750
 4155POPC   GL254182  15.328  34.391   5.825
 4155POPC   C1A54183  14.975  34.553   6.206
 4155POPC   D2A54184  15.001  34.826   6.560
 4155POPC   C3A54185  14.963  34.527   6.899
 4155POPC   C4A54186  15.000  34.343   7.293
 4155POPC   C1B54187  15.531  34.396   6.214
 4155POPC   C2B54188  15.414  34.493   6.621
 4155POPC   C3B54189  15.391  34.254   6.968
 4155POPC   C4B54190  15.533  34.553   7.240
 4156POPC   NC354191  21.459  18.623   5.159
 4156POPC   PO454192  21.253  19.212   5.494
 4156POPC   GL154193  21.485  19.223   5.876
 4156POPC   GL254194  21.696  18.958   5.936
 4156POPC   C1A54195  21.408  19.102   6.337
 4156POPC   D2A54196  21.445  18.950   6.756
 4156POPC   C3A54197  21.401  19.266   7.091
 4156POPC   C4A54198  21.543  19.390   7.506
 4156POPC   C1B54199  21.721  18.612   6.193
 4156POPC   C2B54200  21.586  18.452   6.543
 4156POPC   C3B54201  21.721  18.541   6.927
 4156POPC   C4B54202  21.438  18.740   7.230
 4157POPC   NC354203  42.340  23.321   5.449
 4157POPC   PO454204  42.103  22.591   5.585
 4157POPC   GL154205  42.196  22.933   5.834
 4157POPC   GL254206  41.952  23.223   5.761
 4157POPC   C1A54207  42.445  22.846   6.209
 4157POPC   D2A54208  42.607  22.857   6.633
 4157POPC   C3A54209  42.348  22.671   6.940
 4157POPC   C4A54210  42.459  22.750   7.372
 4157POPC   C1B54211  42.040  23.273   6.192
 4157POPC   C2B54212  42.138  23.076   6.598
 4157POPC   C3B54213  42.345  23.178   7.003
 4157POPC   C4B54214  42.102  23.340   7.319
 4158POPC   NC354215  15.536  32.185   5.540
 4158POPC   PO454216  16.204  32.329   5.419
 4158POPC   GL154217  16.012  32.179   5.801
 4158POPC   GL254218  16.022  31.843   5.671
 4158POPC   C1A54219  15.757  32.337   6.195
 4158POPC   D2A54220  15.653  32.536   6.637
 4158POPC   C3A54221  15.949  32.461   7.025
 4158POPC   C4A54222  16.013  32.501   7.506
 4158POPC   C1B54223  15.837  31.795   6.127
 4158POPC   C2B54224  15.755  31.959   6.557
 4158POPC   C3B54225  15.575  32.118   6.938
 4158POPC   C4B54226  15.792  32.078   7.324
 4159POPC   NC354227  14.033  17.588   5.577
 4159POPC   PO454228  14.667  17.307   5.436
 4159POPC   GL154229  14.652  17.398   5.837
 4159POPC   GL254230  14.333  17.243   5.840
 4159POPC   C1A54231  14.779  17.723   6.119
 4159POPC   D2A54232  14.647  17.837   6.510
 4159POPC   C3A54233  14.667  17.615   6.886
 4159POPC   C4A54234  14.656  17.864   7.209
 4159POPC   C1B54235  14.303  17.513   6.206
 4159POPC   C2B54236  14.204  17.602   6.641
 4159POPC   C3B54237  14.167  17.626   7.079
 4159POPC   C4B54238  14.128  17.619   7.551
 4160POPC   NC354239   1.717   2.573   5.471
 4160POPC   PO454240   1.915   1.952   5.315
 4160POPC   GL154241   1.831   1.801   5.708
 4160POPC   GL254242   1.977   2.127   5.797
 4160POPC   C1A54243   1.693   1.717   6.151
 4160POPC   D2A54244   1.904   1.670   6.568
 4160POPC   C3A54245   1.706   1.755   6.990
 4160POPC   C4A54246   1.990   1.709   7.373
 4160POPC   C1B54247   2.150   2.258   6.183
 4160POPC   C2B54248   2.053   2.152   6.579
 4160POPC   C3B54249   2.122   2.034   6.976
 4160POPC   C4B54250   1.921   2.215   7.345
 4161POPC   NC354251  37.927  22.989   5.479
 4161POPC   PO454252  37.456  22.608   5.404
 4161POPC   GL154253  37.557  22.842   5.820
 4161POPC   GL254254  37.677  23.191   5.859
 4161POPC   C1A54255  37.694  22.894   6.279
 4161POPC   D2A54256  37.857  22.857   6.707
 4161POPC   C3A54257  37.548  22.948   7.009
 4161POPC   C4A54258  37.375  22.737   7.340
 4161POPC   C1B54259  37.542  23.388   6.206
 4161POPC   C2B54260  37.429  23.265   6.629
 4161POPC   C3B54261  37.446  23.439   7.067
 4161POPC   C4B54262  37.465  23.245   7.523
 4162POPC   NC354263  21.286  30.186   5.254
 4162POPC   PO454264  21.278  29.519   5.285
 4162POPC   GL154265  21.328  29.596   5.724
 4162POPC   GL254266  21.472  29.934   5.704
 4162POPC   C1A54267  21.467  29.604   6.175
 4162POPC   D2A54268  21.352  29.751   6.577
 4162POPC   C3A54269  21.493  29.728   6.995
 4162POPC   C4A54270  21.211  29.741   7.318
 4162POPC   C1B54271  21.299  30.064   6.112
 4162POPC   C2B54272  21.213  30.235   6.514
 4162POPC   C3B54273  21.187  30.133   6.938
 4162POPC   C4B54274  21.364  30.233   7.341
 4163POPC   NC354275  27.321   9.623   5.397
 4163POPC   PO454276  27.987   9.710   5.369
 4163POPC   GL154277  27.690   9.814   5.704
 4163POPC   GL254278  27.325   9.855   5.830
 4163POPC   C1A54279  27.753   9.914   6.143
 4163POPC   D2A54280  28.011   9.895   6.525
 4163POPC   C3A54281  27.849   9.737   6.936
 4163POPC   C4A54282  27.967   9.929   7.354
 4163POPC   C1B54283  27.268  10.027   6.209
 4163POPC   C2B54284  27.453   9.898   6.592
 4163POPC   C3B54285  27.352   9.990   7.008
 4163POPC   C4B54286  27.441   9.667   7.250
 4164POPC   NC354287  17.127  10.496   5.450
 4164POPC   PO454288  17.809  10.400   5.660
 4164POPC   GL154289  17.381  10.334   5.886
 4164POPC   GL254290  17.182  10.632   5.942
 4164POPC   C1A54291  17.302  10.308   6.350
 4164POPC   D2A54292  17.683  10.386   6.612
 4164POPC   C3A54293  17.613  10.522   7.055
 4164POPC   C4A54294  17.529  10.560   7.482
 4164POPC   C1B54295  17.520  10.764   6.252
 4164POPC   C2B54296  17.609  10.903   6.699
 4164POPC   C3B54297  17.506  11.031   7.153
 4164POPC   C4B54298  17.654  11.060   7.582
 4165POPC   NC354299  27.379  10.615   4.902
 4165POPC   PO454300  27.346  10.149   5.408
 4165POPC   GL154301  27.587  10.298   5.775
 4165POPC   GL254302  27.735  10.594   5.741
 4165POPC   C1A54303  27.600  10.411   6.201
 4165POPC   D2A54304  27.445  10.397   6.597
 4165POPC   C3A54305  27.761  10.257   6.847
 4165POPC   C4A54306  27.683  10.333   7.254
 4165POPC   C1B54307  27.878  10.830   6.106
 4165POPC   C2B54308  27.858  10.696   6.544
 4165POPC   C3B54309  27.658  10.797   6.940
 4165POPC   C4B54310  27.922  11.046   7.221
 4166POPC   NC354311  37.210  28.149   5.486
 4166POPC   PO454312  37.120  28.759   5.401
 4166POPC   GL154313  36.935  28.496   5.747
 4166POPC   GL254314  37.010  28.649   6.050
 4166POPC   C1A54315  36.802  28.205   6.128
 4166POPC   D2A54316  36.992  28.281   6.557
 4166POPC   C3A54317  36.799  28.351   6.952
 4166POPC   C4A54318  36.682  28.720   7.172
 4166POPC   C1B54319  37.304  28.276   6.156
 4166POPC   C2B54320  37.500  28.293   6.574
 4166POPC   C3B54321  37.323  28.343   6.996
 4166POPC   C4B54322  37.085  28.163   7.353
 4167POPC   NC354323   6.259  13.913   5.460
 4167POPC   PO454324   5.757  13.663   5.121
 4167POPC   GL154325   5.826  13.659   5.603
 4167POPC   GL254326   6.129  13.474   5.733
 4167POPC   C1A54327   5.707  13.626   6.080
 4167POPC   D2A54328   5.740  13.430   6.530
 4167POPC   C3A54329   5.920  13.718   6.838
 4167POPC   C4A54330   5.888  13.830   7.261
 4167POPC   C1B54331   6.102  13.288   6.148
 4167POPC   C2B54332   6.267  13.438   6.553
 4167POPC   C3B54333   6.173  13.282   6.958
 4167POPC   C4B54334   6.298  13.371   7.348
 4168POPC   NC354335  39.118  19.145   5.396
 4168POPC   PO454336  39.669  18.799   5.482
 4168POPC   GL154337  39.542  19.123   5.799
 4168POPC   GL254338  39.198  19.131   5.902
 4168POPC   C1A54339  39.533  19.200   6.260
 4168POPC   D2A54340  39.445  19.379   6.649
 4168POPC   C3A54341  39.615  19.149   6.979
 4168POPC   C4A54342  39.283  19.044   7.226
 4168POPC   C1B54343  38.931  19.025   6.261
 4168POPC   C2B54344  38.891  19.098   6.710
 4168POPC   C3B54345  38.947  18.772   6.998
 4168POPC   C4B54346  38.823  18.926   7.403
 4169POPC   NC354347   9.166   2.241   5.252
 4169POPC   PO454348   8.959   1.603   5.448
 4169POPC   GL154349   9.054   1.791   5.810
 4169POPC   GL254350   9.416   1.914   5.756
 4169POPC   C1A54351   8.818   1.934   6.190
 4169POPC   D2A54352   8.930   2.270   6.479
 4169POPC   C3A54353   8.728   2.190   6.876
 4169POPC   C4A54354   8.821   1.841   7.164
 4169POPC   C1B54355   9.314   2.017   6.196
 4169POPC   C2B54356   9.178   1.796   6.570
 4169POPC   C3B54357   9.349   1.855   6.987
 4169POPC   C4B54358   9.325   1.652   7.375
 4170POPC   NC354359  15.568  11.432   5.416
 4170POPC   PO454360  16.167  11.219   5.409
 4170POPC   GL154361  15.877  11.123   5.746
 4170POPC   GL254362  15.820  11.470   5.898
 4170POPC   C1A54363  15.939  11.072   6.184
 4170POPC   D2A54364  16.072  11.302   6.555
 4170POPC   C3A54365  15.991  11.122   6.955
 4170POPC   C4A54366  15.886  11.249   7.356
 4170POPC   C1B54367  15.620  11.502   6.336
 4170POPC   C2B54368  15.638  11.503   6.799
 4170POPC   C3B54369  15.483  11.565   7.210
 4170POPC   C4B54370  15.698  11.647   7.623
 4171POPC   NC354371   3.797  22.819   5.454
 4171POPC   PO454372   3.436  23.327   5.178
 4171POPC   GL154373   3.269  23.346   5.680
 4171POPC   GL254374   3.371  23.001   5.806
 4171POPC   C1A54375   3.407  23.349   6.179
 4171POPC   D2A54376   3.591  23.086   6.539
 4171POPC   C3A54377   3.404  23.049   6.961
 4171POPC   C4A54378   3.555  23.050   7.374
 4171POPC   C1B54379   3.353  22.619   6.077
 4171POPC   C2B54380   3.278  22.615   6.522
 4171POPC   C3B54381   3.481  22.500   6.879
 4171POPC   C4B54382   3.475  22.563   7.288
 4172POPC   NC354383  41.693  19.307   5.468
 4172POPC   PO454384  41.439  18.689   5.282
 4172POPC   GL154385  41.578  18.811   5.729
 4172POPC   GL254386  41.843  18.599   5.866
 4172POPC   C1A54387  41.391  18.905   6.150
 4172POPC   D2A54388  41.381  18.833   6.627
 4172POPC   C3A54389  41.437  19.204   6.922
 4172POPC   C4A54390  41.489  19.214   7.395
 4172POPC   C1B54391  41.878  18.831   6.274
 4172POPC   C2B54392  41.928  19.015   6.691
 4172POPC   C3B54393  41.804  18.898   7.105
 4172POPC   C4B54394  41.906  18.953   7.551
 4173POPC   NC354395  27.132  20.035   5.392
 4173POPC   PO454396  26.555  19.731   5.385
 4173POPC   GL154397  26.805  19.888   5.777
 4173POPC   GL254398  27.091  19.664   5.775
 4173POPC   C1A54399  27.025  19.920   6.258
 4173POPC   D2A54400  27.038  19.878   6.777
 4173POPC   C3A54401  26.756  20.026   7.123
 4173POPC   C4A54402  26.519  20.095   7.529
 4173POPC   C1B54403  26.772  19.514   6.103
 4173POPC   C2B54404  26.641  19.676   6.495
 4173POPC   C3B54405  26.608  19.568   6.899
 4173POPC   C4B54406  26.935  19.534   7.173
 4174POPC   NC354407  17.087  26.085   5.541
 4174POPC   PO454408  16.574  25.957   5.120
 4174POPC   GL154409  16.577  26.000   5.598
 4174POPC   GL254410  16.754  25.709   5.722
 4174POPC   C1A54411  16.630  26.204   6.047
 4174POPC   D2A54412  16.522  26.133   6.496
 4174POPC   C3A54413  16.737  26.250   6.865
 4174POPC   C4A54414  16.610  26.511   7.173
 4174POPC   C1B54415  16.954  25.798   6.138
 4174POPC   C2B54416  17.025  25.975   6.526
 4174POPC   C3B54417  16.875  25.764   6.880
 4174POPC   C4B54418  16.558  25.817   7.184
 4175POPC   NC354419  24.928  37.048   5.540
 4175POPC   PO454420  25.601  36.871   5.341
 4175POPC   GL154421  25.446  36.874   5.761
 4175POPC   GL254422  25.367  37.240   5.852
 4175POPC   C1A54423  25.542  36.849   6.218
 4175POPC   D2A54424  25.285  36.949   6.577
 4175POPC   C3A54425  25.450  37.010   6.976
 4175POPC   C4A54426  25.241  36.869   7.367
 4175POPC   C1B54427  25.162  37.351   6.267
 4175POPC   C2B54428  25.219  37.450   6.713
 4175POPC   C3B54429  25.087  37.321   7.122
 4175POPC   C4B54430  25.431  37.327   7.439
 4176POPC   NC354431  22.637  26.515   5.338
 4176POPC   PO454432  22.660  25.804   5.290
 4176POPC   GL154433  22.891  25.967   5.684
 4176POPC   GL254434  23.179  25.817   5.818
 4176POPC   C1A54435  22.953  26.170   6.120
 4176POPC   D2A54436  22.826  26.223   6.570
 4176POPC   C3A54437  22.976  26.094   6.994
 4176POPC   C4A54438  22.703  26.148   7.370
 4176POPC   C1B54439  23.057  25.672   6.244
 4176POPC   C2B54440  23.155  25.706   6.698
 4176POPC   C3B54441  23.280  25.729   7.172
 4176POPC   C4B54442  23.177  26.022   7.531
 4177POPC   NC354443  11.952   8.797   5.456
 4177POPC   PO454444  12.187   9.376   5.458
 4177POPC   GL154445  12.107   9.126   5.819
 4177POPC   GL254446  11.752   9.133   5.839
 4177POPC   C1A54447  12.135   8.972   6.247
 4177POPC   D2A54448  12.398   9.188   6.574
 4177POPC   C3A54449  12.254   9.086   7.002
 4177POPC   C4A54450  12.146   8.660   7.150
 4177POPC   C1B54451  11.606   9.048   6.265
 4177POPC   C2B54452  11.702   8.809   6.654
 4177POPC   C3B54453  11.733   8.947   7.077
 4177POPC   C4B54454  11.842   8.937   7.503
 4178POPC   NC354455  14.168  40.206   5.665
 4178POPC   PO454456  14.274  39.716   5.233
 4178POPC   GL154457  14.550  39.734   5.786
 4178POPC   GL254458  14.577  40.098   5.948
 4178POPC   C1A54459  14.641  39.751   6.295
 4178POPC   D2A54460  14.713  40.099   6.644
 4178POPC   C3A54461  14.413  40.017   7.008
 4178POPC   C4A54462  14.076  39.689   7.045
 4178POPC   C1B54463  14.256  40.103   6.314
 4178POPC   C2B54464  14.014  40.242   6.671
 4178POPC   C3B54465  14.040  40.374   7.066
 4178POPC   C4B54466  14.346  40.444   7.353
 4179POPC   NC354467  38.827  20.694   5.427
 4179POPC   PO454468  38.222  20.878   5.270
 4179POPC   GL154469  38.353  20.842   5.772
 4179POPC   GL254470  38.519  20.531   5.850
 4179POPC   C1A54471  38.381  20.779   6.279
 4179POPC   D2A54472  38.565  20.408   6.528
 4179POPC   C3A54473  38.739  20.521   6.935
 4179POPC   C4A54474  38.515  20.876   7.106
 4179POPC   C1B54475  38.197  20.336   6.125
 4179POPC   C2B54476  38.062  20.433   6.549
 4179POPC   C3B54477  38.244  20.436   6.962
 4179POPC   C4B54478  38.330  20.236   7.372
 4180POPC   NC354479  27.513  11.466   5.362
 4180POPC   PO454480  27.646  10.764   5.251
 4180POPC   GL154481  27.612  11.074   5.664
 4180POPC   GL254482  27.751  11.414   5.820
 4180POPC   C1A54483  27.399  11.027   6.071
 4180POPC   D2A54484  27.404  10.897   6.476
 4180POPC   C3A54485  27.228  11.123   6.801
 4180POPC   C4A54486  27.473  11.259   7.130
 4180POPC   C1B54487  27.540  11.495   6.226
 4180POPC   C2B54488  27.655  11.435   6.652
 4180POPC   C3B54489  27.660  11.714   6.988
 4180POPC   C4B54490  27.858  11.568   7.302
 4181POPC   NC354491  39.412  13.385   5.522
 4181POPC   PO454492  38.827  13.880   5.571
 4181POPC   GL154493  39.007  13.601   5.862
 4181POPC   GL254494  39.322  13.733   5.917
 4181POPC   C1A54495  39.120  13.373   6.237
 4181POPC   D2A54496  39.324  13.362   6.638
 4181POPC   C3A54497  39.156  13.353   7.062
 4181POPC   C4A54498  39.203  13.289   7.520
 4181POPC   C1B54499  39.145  13.968   6.266
 4181POPC   C2B54500  39.174  13.873   6.696
 4181POPC   C3B54501  39.496  13.758   6.938
 4181POPC   C4B54502  39.446  13.736   7.338
 4182POPC   NC354503  39.908  19.609   5.501
 4182POPC   PO454504  40.422  20.150   5.416
 4182POPC   GL154505  40.234  20.063   5.824
 4182POPC   GL254506  39.845  19.998   5.853
 4182POPC   C1A54507  40.187  19.957   6.236
 4182POPC   D2A54508  40.281  20.101   6.612
 4182POPC   C3A54509  40.177  19.949   7.042
 4182POPC   C4A54510  40.403  19.612   7.316
 4182POPC   C1B54511  39.754  19.681   6.184
 4182POPC   C2B54512  39.857  19.810   6.607
 4182POPC   C3B54513  39.745  19.668   6.981
 4182POPC   C4B54514  39.805  19.839   7.389
 4183POPC   NC354515  21.177  13.260   5.294
 4183POPC   PO454516  21.623  13.708   5.347
 4183POPC   GL154517  21.789  13.758   5.787
 4183POPC   GL254518  21.716  14.055   5.958
 4183POPC   C1A54519  21.643  13.552   6.200
 4183POPC   D2A54520  21.281  13.479   6.488
 4183POPC   C3A54521  21.407  13.413   6.910
 4183POPC   C4A54522  21.363  13.326   7.332
 4183POPC   C1B54523  21.552  14.013   6.404
 4183POPC   C2B54524  21.593  13.920   6.845
 4183POPC   C3B54525  21.310  13.833   7.198
 4183POPC   C4B54526  21.042  13.782   7.585
 4184POPC   NC354527  30.241   7.778   5.297
 4184POPC   PO454528  29.686   7.323   5.516
 4184POPC   GL154529  29.897   7.339   5.896
 4184POPC   GL254530  29.946   7.694   5.897
 4184POPC   C1A54531  29.809   7.293   6.330
 4184POPC   D2A54532  29.516   7.255   6.670
 4184POPC   C3A54533  29.820   7.265   6.965
 4184POPC   C4A54534  29.950   7.169   7.331
 4184POPC   C1B54535  30.163   7.787   6.287
 4184POPC   C2B54536  30.032   7.643   6.683
 4184POPC   C3B54537  29.649   7.748   6.935
 4184POPC   C4B54538  29.535   7.506   7.317
 4185POPC   NC354539   9.339  34.299   5.520
 4185POPC   PO454540   8.717  34.700   5.333
 4185POPC   GL154541   8.921  34.546   5.737
 4185POPC   GL254542   8.675  34.302   5.864
 4185POPC   C1A54543   9.170  34.540   6.176
 4185POPC   D2A54544   9.296  34.711   6.618
 4185POPC   C3A54545   9.106  34.599   7.012
 4185POPC   C4A54546   9.257  34.602   7.420
 4185POPC   C1B54547   8.663  34.623   6.194
 4185POPC   C2B54548   8.787  34.637   6.620
 4185POPC   C3B54549   8.590  34.596   7.042
 4185POPC   C4B54550   8.801  34.901   7.333
 4186POPC   NC354551  27.065  34.334   5.849
 4186POPC   PO454552  26.952  34.788   5.331
 4186POPC   GL154553  26.699  34.656   5.740
 4186POPC   GL254554  26.552  34.288   5.776
 4186POPC   C1A54555  26.641  34.828   6.202
 4186POPC   D2A54556  27.001  34.852   6.497
 4186POPC   C3A54557  27.062  34.642   6.893
 4186POPC   C4A54558  26.972  34.840   7.271
 4186POPC   C1B54559  26.515  34.364   6.238
 4186POPC   C2B54560  26.484  34.607   6.647
 4186POPC   C3B54561  26.556  34.605   7.064
 4186POPC   C4B54562  26.812  34.334   7.247
 4187POPC   NC354563  39.751  33.454   5.553
 4187POPC   PO454564  40.040  32.911   5.464
 4187POPC   GL154565  40.091  32.728   5.856
 4187POPC   GL254566  39.756  32.584   5.861
 4187POPC   C1A54567  40.311  32.942   6.182
 4187POPC   D2A54568  40.425  33.257   6.508
 4187POPC   C3A54569  40.181  33.260   6.895
 4187POPC   C4A54570  39.956  33.047   7.191
 4187POPC   C1B54571  39.806  32.739   6.291
 4187POPC   C2B54572  39.842  32.895   6.724
 4187POPC   C3B54573  39.635  32.675   7.111
 4187POPC   C4B54574  39.640  32.819   7.556
 4188POPC   NC354575  13.183  20.121   5.645
 4188POPC   PO454576  13.515  19.653   5.248
 4188POPC   GL154577  13.566  19.742   5.681
 4188POPC   GL254578  13.252  19.588   5.711
 4188POPC   C1A54579  13.714  19.943   6.085
 4188POPC   D2A54580  13.851  19.776   6.496
 4188POPC   C3A54581  13.683  19.847   6.914
 4188POPC   C4A54582  13.942  19.820   7.273
 4188POPC   C1B54583  13.259  19.716   6.165
 4188POPC   C2B54584  13.372  19.567   6.593
 4188POPC   C3B54585  13.220  19.656   7.010
 4188POPC   C4B54586  13.457  19.683   7.367
 4189POPC   NC354587  15.831  30.306   5.587
 4189POPC   PO454588  15.964  30.934   5.394
 4189POPC   GL154589  15.930  30.848   5.821
 4189POPC   GL254590  16.169  30.587   5.873
 4189POPC   C1A54591  15.781  30.779   6.254
 4189POPC   D2A54592  15.589  30.634   6.627
 4189POPC   C3A54593  15.754  30.797   7.012
 4189POPC   C4A54594  15.960  30.479   7.237
 4189POPC   C1B54595  16.282  30.866   6.217
 4189POPC   C2B54596  16.135  30.878   6.664
 4189POPC   C3B54597  16.289  30.867   7.124
 4189POPC   C4B54598  16.318  30.657   7.552
 4190POPC   NC354599  32.715   0.257   5.391
 4190POPC   PO454600  32.032   0.484   5.408
 4190POPC   GL154601  32.132   0.448   5.814
 4190POPC   GL254602  32.449   0.364   5.839
 4190POPC   C1A54603  32.134   0.566   6.231
 4190POPC   D2A54604  32.326   0.505   6.645
 4190POPC   C3A54605  32.079   0.576   7.046
 4190POPC   C4A54606  32.159   0.560   7.511
 4190POPC   C1B54607  32.588   0.278   6.255
 4190POPC   C2B54608  32.495   0.030   6.654
 4190POPC   C3B54609  32.347   0.127   7.086
 4190POPC   C4B54610  32.426   0.120   7.530
 4191POPC   NC354611  20.007  42.704   5.459
 4191POPC   PO454612  19.884  42.086   5.447
 4191POPC   GL154613  19.773  42.371   5.781
 4191POPC   GL254614  20.112  42.471   5.919
 4191POPC   C1A54615  19.698  42.495   6.222
 4191POPC   D2A54616  19.894  42.488   6.639
 4191POPC   C3A54617  19.622  42.249   6.908
 4191POPC   C4A54618  19.440  42.167   7.306
 4191POPC   C1B54619  20.096  42.822   6.278
 4191POPC   C2B54620  19.891  43.013   6.646
 4191POPC   C3B54621  19.914  42.811   7.038
 4191POPC   C4B54622  19.985  42.451   7.208
 4192POPC   NC354623  35.240  22.741   5.223
 4192POPC   PO454624  35.693  22.998   5.540
 4192POPC   GL154625  35.415  23.010   5.811
 4192POPC   GL254626  35.174  22.757   5.748
 4192POPC   C1A54627  35.557  22.958   6.227
 4192POPC   D2A54628  35.507  22.774   6.642
 4192POPC   C3A54629  35.632  23.052   6.970
 4192POPC   C4A54630  35.598  22.904   7.368
 4192POPC   C1B54631  35.047  22.943   6.156
 4192POPC   C2B54632  34.991  22.866   6.577
 4192POPC   C3B54633  35.129  22.958   6.972
 4192POPC   C4B54634  35.107  22.836   7.379
 4193POPC   NC354635  43.293  36.659   5.376
 4193POPC   PO454636  42.887  37.205   5.316
 4193POPC   GL154637  42.982  37.117   5.757
 4193POPC   GL254638  43.316  36.980   5.774
 4193POPC   C1A54639  43.076  37.054   6.220
 4193POPC   D2A54640  42.892  36.885   6.601
 4193POPC   C3A54641  42.925  37.071   7.023
 4193POPC   C4A54642  43.156  36.997   7.419
 4193POPC   C1B54643  43.530  36.802   6.151
 4193POPC   C2B54644  43.420  36.894   6.566
 4193POPC   C3B54645  43.291  36.737   6.930
 4193POPC   C4B54646  43.577  36.759   7.246
 4194POPC   NC354647   9.172   4.532   5.361
 4194POPC   PO454648   8.673   4.798   5.774
 4194POPC   GL154649   8.881   4.349   5.820
 4194POPC   GL254650   9.250   4.251   5.776
 4194POPC   C1A54651   8.778   4.074   6.174
 4194POPC   D2A54652   8.577   4.170   6.608
 4194POPC   C3A54653   8.793   4.274   7.010
 4194POPC   C4A54654   8.998   4.009   7.319
 4194POPC   C1B54655   9.294   4.152   6.207
 4194POPC   C2B54656   9.102   4.118   6.590
 4194POPC   C3B54657   9.303   4.238   6.948
 4194POPC   C4B54658   9.342   4.519   7.251
 4195POPC   NC354659   4.275   7.141   5.411
 4195POPC   PO454660   3.876   6.666   5.258
 4195POPC   GL154661   4.142   6.661   5.738
 4195POPC   GL254662   4.381   6.375   5.819
 4195POPC   C1A54663   4.052   6.419   6.213
 4195POPC   D2A54664   4.164   6.630   6.629
 4195POPC   C3A54665   4.149   6.489   7.073
 4195POPC   C4A54666   4.051   6.841   7.335
 4195POPC   C1B54667   4.482   6.667   6.173
 4195POPC   C2B54668   4.691   6.715   6.599
 4195POPC   C3B54669   4.645   6.593   7.012
 4195POPC   C4B54670   4.558   6.722   7.375
 4196POPC   NC354671  13.056   5.630   5.369
 4196POPC   PO454672  12.787   6.139   5.077
 4196POPC   GL154673  12.690   5.919   5.557
 4196POPC   GL254674  12.744   5.640   5.767
 4196POPC   C1A54675  12.593   6.053   6.002
 4196POPC   D2A54676  12.617   5.931   6.414
 4196POPC   C3A54677  12.824   6.147   6.762
 4196POPC   C4A54678  12.661   6.097   7.178
 4196POPC   C1B54679  12.892   5.531   6.198
 4196POPC   C2B54680  13.035   5.703   6.619
 4196POPC   C3B54681  13.040   5.781   7.088
 4196POPC   C4B54682  13.328   5.892   7.447
 4197POPC   NC354683  20.476   8.974   5.334
 4197POPC   PO454684  21.076   9.063   5.515
 4197POPC   GL154685  20.717   9.066   5.779
 4197POPC   GL254686  20.831   9.356   5.892
 4197POPC   C1A54687  20.475   9.051   6.187
 4197POPC   D2A54688  20.460   8.757   6.550
 4197POPC   C3A54689  20.502   8.935   6.973
 4197POPC   C4A54690  20.514   9.338   7.107
 4197POPC   C1B54691  20.939   9.173   6.263
 4197POPC   C2B54692  20.841   9.160   6.676
 4197POPC   C3B54693  21.052   9.135   7.050
 4197POPC   C4B54694  21.102   9.087   7.472
 4198POPC   NC354695  17.108  28.378   5.299
 4198POPC   PO454696  16.481  28.478   5.423
 4198POPC   GL154697  16.541  28.425   5.894
 4198POPC   GL254698  16.833  28.330   5.918
 4198POPC   C1A54699  16.481  28.311   6.325
 4198POPC   D2A54700  16.692  28.213   6.714
 4198POPC   C3A54701  16.901  28.425   7.073
 4198POPC   C4A54702  17.162  28.378   7.437
 4198POPC   C1B54703  16.692  27.919   6.080
 4198POPC   C2B54704  16.500  27.786   6.475
 4198POPC   C3B54705  16.460  27.824   6.931
 4198POPC   C4B54706  16.394  28.221   7.161
 4199POPC   NC354707  18.229  22.471   5.168
 4199POPC   PO454708  18.177  23.095   5.454
 4199POPC   GL154709  18.178  23.136   5.910
 4199POPC   GL254710  18.507  22.987   6.078
 4199POPC   C1A54711  18.081  23.057   6.346
 4199POPC   D2A54712  18.348  22.835   6.614
 4199POPC   C3A54713  18.337  23.072   6.980
 4199POPC   C4A54714  18.099  22.984   7.306
 4199POPC   C1B54715  18.766  22.646   6.289
 4199POPC   C2B54716  18.718  22.466   6.714
 4199POPC   C3B54717  18.484  22.599   7.089
 4199POPC   C4B54718  18.508  22.798   7.520
 4200POPC   NC354719  12.096  29.262   5.075
 4200POPC   PO454720  12.236  29.064   5.676
 4200POPC   GL154721  12.188  29.366   5.964
 4200POPC   GL254722  11.853  29.459   5.888
 4200POPC   C1A54723  12.070  29.300   6.393
 4200POPC   D2A54724  11.926  28.946   6.627
 4200POPC   C3A54725  12.104  28.961   7.034
 4200POPC   C4A54726  12.369  29.176   7.313
 4200POPC   C1B54727  11.579  29.240   6.170
 4200POPC   C2B54728  11.493  29.396   6.561
 4200POPC   C3B54729  11.777  29.374   6.898
 4200POPC   C4B54730  11.732  29.247   7.314
 4201POPC   NC354731  38.821  28.541   5.186
 4201POPC   PO454732  39.355  28.193   5.454
 4201POPC   GL154733  39.454  28.309   5.870
 4201POPC   GL254734  39.414  28.680   5.940
 4201POPC   C1A54735  39.367  28.330   6.308
 4201POPC   D2A54736  39.542  28.507   6.651
 4201POPC   C3A54737  39.440  28.271   6.989
 4201POPC   C4A54738  39.268  28.461   7.321
 4201POPC   C1B54739  39.093  28.764   6.289
 4201POPC   C2B54740  38.888  28.444   6.533
 4201POPC   C3B54741  38.909  28.338   6.944
 4201POPC   C4B54742  38.753  28.422   7.313
 4202POPC   NC354743  13.880  26.554   5.569
 4202POPC   PO454744  13.543  25.903   5.473
 4202POPC   GL154745  13.642  25.957   5.894
 4202POPC   GL254746  13.496  26.308   5.868
 4202POPC   C1A54747  13.580  25.743   6.320
 4202POPC   D2A54748  13.335  25.809   6.722
 4202POPC   C3A54749  13.468  25.937   7.154
 4202POPC   C4A54750  13.410  25.689   7.524
 4202POPC   C1B54751  13.638  26.265   6.321
 4202POPC   C2B54752  13.597  26.423   6.761
 4202POPC   C3B54753  13.463  26.451   7.208
 4202POPC   C4B54754  13.638  26.317   7.632
 4203POPC   NC354755   3.794   3.814   5.344
 4203POPC   PO454756   3.149   3.635   5.255
 4203POPC   GL154757   3.236   3.609   5.758
 4203POPC   GL254758   3.603   3.681   5.867
 4203POPC   C1A54759   3.269   3.415   6.143
 4203POPC   D2A54760   3.226   3.262   6.549
 4203POPC   C3A54761   3.390   3.530   6.860
 4203POPC   C4A54762   3.405   3.699   7.306
 4203POPC   C1B54763   3.367   3.925   6.200
 4203POPC   C2B54764   3.505   4.051   6.612
 4203POPC   C3B54765   3.737   3.887   6.974
 4203POPC   C4B54766   3.776   4.009   7.428
 4204POPC   NC354767  34.601  10.386   5.253
 4204POPC   PO454768  34.146  10.735   5.452
 4204POPC   GL154769  34.462  10.521   5.767
 4204POPC   GL254770  34.317  10.748   5.964
 4204POPC   C1A54771  34.659  10.456   6.234
 4204POPC   D2A54772  34.761  10.371   6.708
 4204POPC   C3A54773  34.727  10.332   7.182
 4204POPC   C4A54774  34.866  10.745   7.344
 4204POPC   C1B54775  34.263  10.824   6.360
 4204POPC   C2B54776  34.555  10.880   6.638
 4204POPC   C3B54777  34.483  10.735   7.001
 4204POPC   C4B54778  34.192  10.501   7.201
 4205POPC   NC354779  43.767   0.396   5.381
 4205POPC   PO454780  44.423   0.170   5.415
 4205POPC   GL154781  44.141   0.180   5.730
 4205POPC   GL254782  44.001   0.492   5.823
 4205POPC   C1A54783  44.224   0.183   6.174
 4205POPC   D2A54784  44.007   0.482   6.449
 4205POPC   C3A54785  44.174   0.488   6.875
 4205POPC   C4A54786  44.018   0.485   7.290
 4205POPC   C1B54787  43.564   0.646   5.958
 4205POPC   C2B54788  43.473   0.714   6.404
 4205POPC   C3B54789  43.653   0.572   6.825
 4205POPC   C4B54790  43.566   0.696   7.253
 4206POPC   NC354791  16.326  33.573   5.304
 4206POPC   PO454792  16.161  34.245   5.430
 4206POPC   GL154793  16.072  33.980   5.800
 4206POPC   GL254794  15.894  33.666   5.776
 4206POPC   C1A54795  16.240  33.845   6.214
 4206POPC   D2A54796  16.082  33.718   6.607
 4206POPC   C3A54797  16.309  33.874   6.926
 4206POPC   C4A54798  16.115  33.905   7.243
 4206POPC   C1B54799  15.747  33.902   6.187
 4206POPC   C2B54800  15.673  34.030   6.588
 4206POPC   C3B54801  15.703  33.803   6.962
 4206POPC   C4B54802  15.514  33.905   7.320
 4207POPC   NC354803  14.947  41.491   5.394
 4207POPC   PO454804  14.327  41.303   5.311
 4207POPC   GL154805  14.492  41.473   5.746
 4207POPC   GL254806  14.823  41.634   5.876
 4207POPC   C1A54807  14.417  41.332   6.210
 4207POPC   D2A54808  14.156  41.280   6.612
 4207POPC   C3A54809  14.325  41.332   7.027
 4207POPC   C4A54810  14.110  41.512   7.375
 4207POPC   C1B54811  14.709  41.737   6.337
 4207POPC   C2B54812  14.394  41.744   6.674
 4207POPC   C3B54813  14.424  41.846   7.153
 4207POPC   C4B54814  14.721  41.763   7.504
 4208POPC   NC354815  13.642  30.460   5.411
 4208POPC   PO454816  13.834  31.019   5.153
 4208POPC   GL154817  13.731  30.983   5.666
 4208POPC   GL254818  13.461  30.763   5.779
 4208POPC   C1A54819  13.800  30.875   6.143
 4208POPC   D2A54820  13.480  30.694   6.464
 4208POPC   C3A54821  13.620  30.553   6.882
 4208POPC   C4A54822  13.950  30.596   7.179
 4208POPC   C1B54823  13.361  31.117   6.040
 4208POPC   C2B54824  13.265  31.185   6.508
 4208POPC   C3B54825  13.307  30.954   6.926
 4208POPC   C4B54826  13.568  30.895   7.313
 4209POPC   NC354827  42.603  10.521   5.459
 4209POPC   PO454828  41.941  10.393   5.535
 4209POPC   GL154829  42.253  10.618   5.842
 4209POPC   GL254830  42.659  10.611   5.935
 4209POPC   C1A54831  42.310  10.672   6.282
 4209POPC   D2A54832  42.292  10.936   6.615
 4209POPC   C3A54833  42.267  10.718   7.038
 4209POPC   C4A54834  42.064  10.447   7.356
 4209POPC   C1B54835  42.784  10.417   6.312
 4209POPC   C2B54836  42.690  10.492   6.733
 4209POPC   C3B54837  42.630  10.385   7.151
 4209POPC   C4B54838  42.525  10.587   7.530
 4210POPC   NC354839   1.234   3.030   5.414
 4210POPC   PO454840   1.350   2.344   5.336
 4210POPC   GL154841   1.231   2.593   5.708
 4210POPC   GL254842   1.451   2.854   5.844
 4210POPC   C1A54843   1.185   2.482   6.143
 4210POPC   D2A54844   1.398   2.577   6.524
 4210POPC   C3A54845   1.266   2.738   6.930
 4210POPC   C4A54846   1.661   2.774   7.123
 4210POPC   C1B54847   1.224   3.001   6.208
 4210POPC   C2B54848   1.142   3.230   6.587
 4210POPC   C3B54849   0.983   3.221   6.999
 4210POPC   C4B54850   0.768   2.860   7.168
 4211POPC   NC354851   8.026   9.432   5.573
 4211POPC   PO454852   8.414   8.825   5.423
 4211POPC   GL154853   8.179   8.965   5.772
 4211POPC   GL254854   8.255   8.699   5.967
 4211POPC   C1A54855   7.987   9.114   6.182
 4211POPC   D2A54856   7.829   9.031   6.618
 4211POPC   C3A54857   8.026   9.212   6.972
 4211POPC   C4A54858   8.318   9.230   7.301
 4211POPC   C1B54859   7.972   8.592   6.306
 4211POPC   C2B54860   8.007   8.533   6.728
 4211POPC   C3B54861   7.898   8.738   7.063
 4211POPC   C4B54862   8.086   8.783   7.448
 4212POPC   NC354863   3.842  37.838   5.619
 4212POPC   PO454864   3.305  37.848   5.228
 4212POPC   GL154865   3.347  37.661   5.676
 4212POPC   GL254866   3.648  37.501   5.915
 4212POPC   C1A54867   3.289  37.761   6.126
 4212POPC   D2A54868   3.572  37.631   6.453
 4212POPC   C3A54869   3.449  37.662   6.855
 4212POPC   C4A54870   3.553  37.667   7.264
 4212POPC   C1B54871   3.923  37.284   6.208
 4212POPC   C2B54872   4.112  37.283   6.582
 4212POPC   C3B54873   3.925  37.407   6.932
 4212POPC   C4B54874   3.928  37.314   7.307
 4213POPC   NC354875  43.797   4.062   5.294
 4213POPC   PO454876  44.011   4.763   5.318
 4213POPC   GL154877  43.922   4.498   5.717
 4213POPC   GL254878  43.980   4.130   5.752
 4213POPC   C1A54879  43.748   4.402   6.134
 4213POPC   D2A54880  43.607   4.143   6.469
 4213POPC   C3A54881  43.728   4.180   6.890
 4213POPC   C4A54882  43.593   4.169   7.318
 4213POPC   C1B54883  44.191   4.097   6.132
 4213POPC   C2B54884  44.095   4.253   6.511
 4213POPC   C3B54885  44.203   4.407   6.882
 4213POPC   C4B54886  44.118   4.179   7.258
 4214POPC   NC354887  40.296  26.952   5.172
 4214POPC   PO454888  39.750  26.654   5.406
 4214POPC   GL154889  39.964  26.866   5.778
 4214POPC   GL254890  39.835  27.138   5.903
 4214POPC   C1A54891  40.129  26.887   6.254
 4214POPC   D2A54892  40.141  26.674   6.688
 4214POPC   C3A54893  39.975  26.805   7.096
 4214POPC   C4A54894  40.156  26.873   7.525
 4214POPC   C1B54895  39.637  27.015   6.270
 4214POPC   C2B54896  39.779  27.058   6.677
 4214POPC   C3B54897  39.607  27.189   7.058
 4214POPC   C4B54898  39.737  27.160   7.486
 4215POPC   NC354899  30.546   9.924   5.499
 4215POPC   PO454900  31.136   9.579   5.315
 4215POPC   GL154901  30.900   9.618   5.730
 4215POPC   GL254902  30.551   9.472   5.807
 4215POPC   C1A54903  30.943   9.647   6.176
 4215POPC   D2A54904  30.766   9.749   6.585
 4215POPC   C3A54905  31.025   9.650   6.914
 4215POPC   C4A54906  30.951   9.686   7.327
 4215POPC   C1B54907  30.435   9.719   6.199
 4215POPC   C2B54908  30.256   9.847   6.631
 4215POPC   C3B54909  30.478   9.706   7.016
 4215POPC   C4B54910  30.520   9.435   7.361
 4216POPC   NC354911   3.964  20.104   5.422
 4216POPC   PO454912   4.527  19.706   5.352
 4216POPC   GL154913   4.538  19.728   5.808
 4216POPC   GL254914   4.183  19.800   5.823
 4216POPC   C1A54915   4.468  19.891   6.250
 4216POPC   D2A54916   4.187  19.879   6.635
 4216POPC   C3A54917   4.230  19.940   7.108
 4216POPC   C4A54918   4.294  20.038   7.550
 4216POPC   C1B54919   4.010  19.540   6.153
 4216POPC   C2B54920   4.113  19.336   6.525
 4216POPC   C3B54921   4.119  19.463   6.934
 4216POPC   C4B54922   3.824  19.639   7.187
 4217POPC   NC354923  15.797  14.239   5.446
 4217POPC   PO454924  16.322  14.402   5.469
 4217POPC   GL154925  16.116  14.489   5.890
 4217POPC   GL254926  15.764  14.549   5.869
 4217POPC   C1A54927  15.999  14.602   6.350
 4217POPC   D2A54928  15.655  14.558   6.691
 4217POPC   C3A54929  15.812  14.591   7.123
 4217POPC   C4A54930  16.138  14.864   7.316
 4217POPC   C1B54931  15.664  14.232   6.198
 4217POPC   C2B54932  15.534  14.059   6.620
 4217POPC   C3B54933  15.536  14.161   7.061
 4217POPC   C4B54934  15.707  14.181   7.474
 4218POPC   NC354935  25.222  44.912   5.489
 4218POPC   PO454936  25.484   0.578   5.261
 4218POPC   GL154937  25.476   0.355   5.678
 4218POPC   GL254938  25.103   0.309   5.799
 4218POPC   C1A54939  25.473   0.411   6.149
 4218POPC   D2A54940  25.137   0.536   6.452
 4218POPC   C3A54941  25.205   0.356   6.851
 4218POPC   C4A54942  25.359   0.606   7.183
 4218POPC   C1B54943  25.026   0.091   6.197
 4218POPC   C2B54944  24.788   0.160   6.606
 4218POPC   C3B54945  24.860   0.010   7.038
 4218POPC   C4B54946  25.166   0.158   7.379
 4219POPC   NC354947  42.350  24.317   5.093
 4219POPC   PO454948  42.139  23.794   5.436
 4219POPC   GL154949  42.238  23.806   5.893
 4219POPC   GL254950  42.523  24.045   5.854
 4219POPC   C1A54951  42.107  23.784   6.355
 4219POPC   D2A54952  42.089  23.585   6.795
 4219POPC   C3A54953  42.321  23.778   7.131
 4219POPC   C4A54954  42.271  23.756   7.552
 4219POPC   C1B54955  42.650  23.938   6.295
 4219POPC   C2B54956  42.593  23.722   6.698
 4219POPC   C3B54957  42.772  23.529   7.078
 4219POPC   C4B54958  42.764  23.709   7.510
 4220POPC   NC354959   6.867  38.520   5.424
 4220POPC   PO454960   6.245  38.372   5.467
 4220POPC   GL154961   6.476  38.256   5.856
 4220POPC   GL254962   6.807  38.153   5.788
 4220POPC   C1A54963   6.576  38.370   6.312
 4220POPC   D2A54964   6.529  38.236   6.739
 4220POPC   C3A54965   6.529  38.513   7.085
 4220POPC   C4A54966   6.667  38.881   7.330
 4220POPC   C1B54967   6.976  38.086   6.182
 4220POPC   C2B54968   6.927  37.941   6.599
 4220POPC   C3B54969   6.932  38.127   7.037
 4220POPC   C4B54970   7.013  38.061   7.487
 4221POPC   NC354971  36.500  29.719   5.434
 4221POPC   PO454972  35.840  30.088   5.360
 4221POPC   GL154973  35.942  30.001   5.869
 4221POPC   GL254974  36.241  29.734   5.887
 4221POPC   C1A54975  36.182  30.062   6.279
 4221POPC   D2A54976  36.103  30.311   6.663
 4221POPC   C3A54977  36.015  30.098   7.061
 4221POPC   C4A54978  35.676  29.876   7.281
 4221POPC   C1B54979  36.475  29.616   6.240
 4221POPC   C2B54980  36.423  29.785   6.667
 4221POPC   C3B54981  36.314  29.682   7.127
 4221POPC   C4B54982  36.284  29.435   7.530
 4222POPC   NC354983  39.042  34.235   5.466
 4222POPC   PO454984  39.390  33.722   5.436
 4222POPC   GL154985  39.294  33.485   5.787
 4222POPC   GL254986  39.032  33.685   5.874
 4222POPC   C1A54987  39.412  33.524   6.194
 4222POPC   D2A54988  39.257  33.790   6.473
 4222POPC   C3A54989  39.308  33.657   6.881
 4222POPC   C4A54990  39.309  33.541   7.263
 4222POPC   C1B54991  39.157  34.087   6.076
 4222POPC   C2B54992  39.208  34.313   6.472
 4222POPC   C3B54993  39.100  34.143   6.852
 4222POPC   C4B54994  39.344  34.064   7.215
 4223POPC   NC354995  34.025  41.190   5.386
 4223POPC   PO454996  33.777  40.571   5.488
 4223POPC   GL154997  33.819  40.904   5.785
 4223POPC   GL254998  33.578  41.176   5.688
 4223POPC   C1A54999  34.055  40.811   6.160
 4223POPC   D2A55000  34.013  40.638   6.573
 4223POPC   C3A55001  34.140  40.926   6.874
 4223POPC   C4A55002  33.911  40.913   7.260
 4223POPC   C1B55003  33.412  41.096   6.098
 4223POPC   C2B55004  33.603  40.888   6.402
 4223POPC   C3B55005  33.612  40.946   6.834
 4223POPC   C4B55006  33.366  40.923   7.226
 4224POPC   NC355007  27.103   5.050   5.418
 4224POPC   PO455008  26.518   4.776   5.598
 4224POPC   GL155009  26.745   4.935   5.936
 4224POPC   GL255010  26.840   5.267   5.952
 4224POPC   C1A55011  26.730   4.831   6.358
 4224POPC   D2A55012  26.880   5.012   6.727
 4224POPC   C3A55013  26.664   4.902   7.082
 4224POPC   C4A55014  26.660   5.053   7.551
 4224POPC   C1B55015  27.045   5.446   6.337
 4224POPC   C2B55016  27.052   5.484   6.786
 4224POPC   C3B55017  26.876   5.356   7.172
 4224POPC   C4B55018  27.080   5.352   7.591
 4225POPC   NC355019  15.265  36.269   5.336
 4225POPC   PO455020  14.722  36.022   5.678
 4225POPC   GL155021  15.125  36.120   5.802
 4225POPC   GL255022  15.362  35.874   5.654
 4225POPC   C1A55023  15.399  36.378   6.065
 4225POPC   D2A55024  15.459  36.530   6.504
 4225POPC   C3A55025  15.202  36.265   6.774
 4225POPC   C4A55026  14.924  36.334   7.104
 4225POPC   C1B55027  15.308  35.723   6.065
 4225POPC   C2B55028  15.409  35.891   6.459
 4225POPC   C3B55029  15.399  35.795   6.897
 4225POPC   C4B55030  15.329  36.031   7.216
 4226POPC   NC355031  39.521  17.412   5.119
 4226POPC   PO455032  39.289  17.917   5.530
 4226POPC   GL155033  39.417  17.707   5.903
 4226POPC   GL255034  39.200  17.391   5.985
 4226POPC   C1A55035  39.388  17.720   6.333
 4226POPC   D2A55036  39.064  17.515   6.509
 4226POPC   C3A55037  39.042  17.654   6.905
 4226POPC   C4A55038  39.220  17.806   7.267
 4226POPC   C1B55039  39.494  17.205   6.264
 4226POPC   C2B55040  39.547  17.314   6.672
 4226POPC   C3B55041  39.374  17.294   7.059
 4226POPC   C4B55042  39.550  17.345   7.438
 4227POPC   NC355043  32.127  17.814   5.130
 4227POPC   PO455044  32.490  17.247   5.367
 4227POPC   GL155045  32.300  17.598   5.601
 4227POPC   GL255046  32.005  17.503   5.839
 4227POPC   C1A55047  32.432  17.750   6.021
 4227POPC   D2A55048  32.574  17.668   6.461
 4227POPC   C3A55049  32.280  17.724   6.809
 4227POPC   C4A55050  32.139  17.748   7.224
 4227POPC   C1B55051  32.210  17.313   6.237
 4227POPC   C2B55052  32.379  17.228   6.660
 4227POPC   C3B55053  32.193  17.269   7.054
 4227POPC   C4B55054  32.041  17.293   7.481
 4228POPC   NC355055  11.661  23.731   5.451
 4228POPC   PO455056  10.960  23.915   5.423
 4228POPC   GL155057  11.213  23.871   5.778
 4228POPC   GL255058  11.119  23.517   5.816
 4228POPC   C1A55059  11.226  23.831   6.243
 4228POPC   D2A55060  11.424  23.690   6.621
 4228POPC   C3A55061  11.172  23.629   7.007
 4228POPC   C4A55062  11.046  23.966   7.314
 4228POPC   C1B55063  11.222  23.297   6.202
 4228POPC   C2B55064  11.283  23.194   6.647
 4228POPC   C3B55065  11.609  23.328   6.953
 4228POPC   C4B55066  11.659  23.204   7.366
 4229POPC   NC355067  40.754  30.075   5.380
 4229POPC   PO455068  40.430  29.571   5.443
 4229POPC   GL155069  40.786  29.720   5.742
 4229POPC   GL255070  40.886  30.105   5.874
 4229POPC   C1A55071  40.925  29.663   6.160
 4229POPC   D2A55072  41.046  29.760   6.581
 4229POPC   C3A55073  40.731  29.883   6.870
 4229POPC   C4A55074  40.853  29.742   7.247
 4229POPC   C1B55075  41.089  30.189   6.317
 4229POPC   C2B55076  41.064  30.266   6.783
 4229POPC   C3B55077  41.026  30.267   7.249
 4229POPC   C4B55078  41.151  30.265   7.702
 4230POPC   NC355079  38.357  14.050   5.558
 4230POPC   PO455080  38.260  13.462   5.185
 4230POPC   GL155081  38.138  13.624   5.658
 4230POPC   GL255082  38.457  13.644   5.847
 4230POPC   C1A55083  38.056  13.703   6.138
 4230POPC   D2A55084  38.243  13.591   6.548
 4230POPC   C3A55085  38.216  13.859   6.904
 4230POPC   C4A55086  38.004  13.813   7.297
 4230POPC   C1B55087  38.607  13.447   6.208
 4230POPC   C2B55088  38.784  13.544   6.602
 4230POPC   C3B55089  38.701  13.602   7.021
 4230POPC   C4B55090  38.960  13.721   7.392
 4231POPC   NC355091   1.506  29.335   5.411
 4231POPC   PO455092   0.938  29.068   5.559
 4231POPC   GL155093   1.302  29.141   5.861
 4231POPC   GL255094   1.475  29.502   5.887
 4231POPC   C1A55095   1.301  28.966   6.308
 4231POPC   D2A55096   1.079  28.813   6.698
 4231POPC   C3A55097   1.247  28.969   7.105
 4231POPC   C4A55098   1.097  28.965   7.520
 4231POPC   C1B55099   1.153  29.475   6.209
 4231POPC   C2B55100   1.143  29.357   6.642
 4231POPC   C3B55101   1.203  29.483   7.047
 4231POPC   C4B55102   1.382  29.373   7.427
 4232POPC   NC355103   8.471  13.719   5.072
 4232POPC   PO455104   8.153  13.346   5.421
 4232POPC   GL155105   8.308  13.427   5.856
 4232POPC   GL255106   8.046  13.688   5.911
 4232POPC   C1A55107   8.372  13.636   6.301
 4232POPC   D2A55108   8.113  13.637   6.713
 4232POPC   C3A55109   8.455  13.665   7.052
 4232POPC   C4A55110   8.495  13.784   7.502
 4232POPC   C1B55111   7.915  13.429   6.268
 4232POPC   C2B55112   7.635  13.379   6.637
 4232POPC   C3B55113   7.727  13.474   7.072
 4232POPC   C4B55114   7.981  13.846   7.186
 4233POPC   NC355115  15.654  26.990   5.382
 4233POPC   PO455116  15.233  26.440   5.436
 4233POPC   GL155117  15.137  26.689   5.799
 4233POPC   GL255118  15.280  27.036   5.779
 4233POPC   C1A55119  15.287  26.739   6.220
 4233POPC   D2A55120  15.176  26.890   6.618
 4233POPC   C3A55121  15.413  26.758   6.988
 4233POPC   C4A55122  15.184  26.710   7.361
 4233POPC   C1B55123  15.477  27.218   6.158
 4233POPC   C2B55124  15.419  27.348   6.583
 4233POPC   C3B55125  15.251  27.245   6.965
 4233POPC   C4B55126  15.390  27.161   7.344
 4234POPC   NC355127  31.886  11.440   5.325
 4234POPC   PO455128  31.323  11.089   5.528
 4234POPC   GL155129  31.412  11.236   5.890
 4234POPC   GL255130  31.681  11.454   5.797
 4234POPC   C1A55131  31.618  11.208   6.275
 4234POPC   D2A55132  31.707  11.260   6.697
 4234POPC   C3A55133  31.477  11.051   7.039
 4234POPC   C4A55134  31.282  11.137   7.411
 4234POPC   C1B55135  31.863  11.684   6.130
 4234POPC   C2B55136  31.912  11.765   6.556
 4234POPC   C3B55137  31.624  11.719   6.885
 4234POPC   C4B55138  31.703  11.449   7.248
 4235POPC   NC355139  43.077   9.647   5.355
 4235POPC   PO455140  43.605  10.048   5.498
 4235POPC   GL155141  43.305   9.796   5.796
 4235POPC   GL255142  42.946   9.887   5.855
 4235POPC   C1A55143  43.191   9.584   6.222
 4235POPC   D2A55144  43.105   9.671   6.679
 4235POPC   C3A55145  43.368   9.867   6.999
 4235POPC   C4A55146  43.432   9.530   7.262
 4235POPC   C1B55147  42.798   9.908   6.327
 4235POPC   C2B55148  42.717   9.970   6.812
 4235POPC   C3B55149  42.878   9.924   7.247
 4235POPC   C4B55150  42.846  10.190   7.645
 4236POPC   NC355151  31.699  31.353   5.410
 4236POPC   PO455152  31.261  31.812   5.333
 4236POPC   GL155153  31.412  31.654   5.721
 4236POPC   GL255154  31.247  31.313   5.677
 4236POPC   C1A55155  31.345  31.727   6.183
 4236POPC   D2A55156  31.539  31.544   6.545
 4236POPC   C3A55157  31.379  31.594   6.961
 4236POPC   C4A55158  31.503  31.555   7.406
 4236POPC   C1B55159  31.458  31.234   6.062
 4236POPC   C2B55160  31.293  31.096   6.443
 4236POPC   C3B55161  31.395  31.091   6.839
 4236POPC   C4B55162  31.244  31.150   7.214
 4237POPC   NC355163  33.582  40.154   5.356
 4237POPC   PO455164  34.113  39.771   5.375
 4237POPC   GL155165  33.821  39.904   5.773
 4237POPC   GL255166  33.608  40.238   5.857
 4237POPC   C1A55167  33.654  39.804   6.212
 4237POPC   D2A55168  33.638  39.941   6.660
 4237POPC   C3A55169  33.970  40.172   6.854
 4237POPC   C4A55170  34.089  40.047   7.248
 4237POPC   C1B55171  33.699  40.326   6.287
 4237POPC   C2B55172  33.539  40.457   6.678
 4237POPC   C3B55173  33.646  40.503   7.084
 4237POPC   C4B55174  33.626  40.176   7.317
 4238POPC   NC355175  42.144  11.502   5.494
 4238POPC   PO455176  42.377  10.915   5.410
 4238POPC   GL155177  42.601  11.093   5.766
 4238POPC   GL255178  42.507  11.441   5.860
 4238POPC   C1A55179  42.706  11.066   6.220
 4238POPC   D2A55180  42.841  11.119   6.665
 4238POPC   C3A55181  42.500  11.187   6.993
 4238POPC   C4A55182  42.380  11.576   7.159
 4238POPC   C1B55183  42.263  11.333   6.235
 4238POPC   C2B55184  42.168  11.455   6.655
 4238POPC   C3B55185  41.904  11.594   6.962
 4238POPC   C4B55186  41.870  11.422   7.360
 4239POPC   NC355187  23.921  25.673   5.268
 4239POPC   PO455188  23.413  25.276   5.280
 4239POPC   GL155189  23.559  25.482   5.719
 4239POPC   GL255190  23.868  25.716   5.782
 4239POPC   C1A55191  23.553  25.558   6.189
 4239POPC   D2A55192  23.400  25.244   6.499
 4239POPC   C3A55193  23.279  25.266   6.933
 4239POPC   C4A55194  23.467  25.286   7.358
 4239POPC   C1B55195  23.962  25.917   6.199
 4239POPC   C2B55196  23.975  25.715   6.621
 4239POPC   C3B55197  23.777  25.704   7.039
 4239POPC   C4B55198  23.937  25.534   7.436
 4240POPC   NC355199  12.905  10.893   5.390
 4240POPC   PO455200  12.689  10.238   5.534
 4240POPC   GL155201  13.018  10.487   5.709
 4240POPC   GL255202  12.862  10.776   5.881
 4240POPC   C1A55203  13.168  10.458   6.118
 4240POPC   D2A55204  13.055  10.689   6.477
 4240POPC   C3A55205  13.022  10.499   6.872
 4240POPC   C4A55206  12.691  10.377   7.124
 4240POPC   C1B55207  12.657  10.524   6.188
 4240POPC   C2B55208  12.564  10.584   6.639
 4240POPC   C3B55209  12.618  10.861   7.007
 4240POPC   C4B55210  12.385  10.726   7.371
 4241POPC   NC355211  39.685  35.736   5.455
 4241POPC   PO455212  40.023  35.277   5.207
 4241POPC   GL155213  40.183  35.190   5.646
 4241POPC   GL255214  39.891  35.385   5.780
 4241POPC   C1A55215  40.146  35.140   6.140
 4241POPC   D2A55216  39.922  35.147   6.549
 4241POPC   C3A55217  40.147  35.164   6.959
 4241POPC   C4A55218  39.902  35.069   7.323
 4241POPC   C1B55219  39.682  35.469   6.177
 4241POPC   C2B55220  39.730  35.654   6.594
 4241POPC   C3B55221  39.687  35.430   6.995
 4241POPC   C4B55222  39.766  35.542   7.444
 4242POPC   NC355223  22.508  31.173   5.022
 4242POPC   PO455224  22.867  31.496   5.520
 4242POPC   GL155225  22.990  31.424   5.896
 4242POPC   GL255226  23.015  31.073   5.810
 4242POPC   C1A55227  22.898  31.549   6.324
 4242POPC   D2A55228  22.830  31.382   6.727
 4242POPC   C3A55229  22.926  31.677   7.037
 4242POPC   C4A55230  23.140  31.682   7.405
 4242POPC   C1B55231  23.077  31.078   6.246
 4242POPC   C2B55232  23.294  31.176   6.595
 4242POPC   C3B55233  23.268  31.293   7.023
 4242POPC   C4B55234  23.210  31.177   7.445
 4243POPC   NC355235   0.286  30.822   5.420
 4243POPC   PO455236   0.723  30.390   5.299
 4243POPC   GL155237   0.540  30.410   5.711
 4243POPC   GL255238   0.363  30.727   5.893
 4243POPC   C1A55239   0.705  30.450   6.112
 4243POPC   D2A55240   0.317  30.497   6.379
 4243POPC   C3A55241   0.320  30.403   6.825
 4243POPC   C4A55242   0.360  30.566   7.248
 4243POPC   C1B55243   0.580  30.944   6.234
 4243POPC   C2B55244   0.571  30.827   6.674
 4243POPC   C3B55245   0.609  30.969   7.069
 4243POPC   C4B55246   0.647  31.269   7.345
 4244POPC   NC355247  30.821  15.212   5.367
 4244POPC   PO455248  30.256  15.235   5.448
 4244POPC   GL155249  30.556  15.018   5.769
 4244POPC   GL255250  30.477  14.731   5.984
 4244POPC   C1A55251  30.905  14.970   6.111
 4244POPC   D2A55252  30.940  15.134   6.564
 4244POPC   C3A55253  30.831  15.045   7.013
 4244POPC   C4A55254  31.026  15.288   7.340
 4244POPC   C1B55255  30.448  15.079   6.305
 4244POPC   C2B55256  30.439  15.241   6.739
 4244POPC   C3B55257  30.306  15.160   7.165
 4244POPC   C4B55258  30.164  15.118   7.608
 4245POPC   NC355259  27.272  27.792   5.066
 4245POPC   PO455260  27.782  27.718   5.468
 4245POPC   GL155261  27.737  27.490   5.844
 4245POPC   GL255262  28.014  27.651   5.960
 4245POPC   C1A55263  27.609  27.516   6.288
 4245POPC   D2A55264  27.328  27.622   6.631
 4245POPC   C3A55265  27.430  27.530   7.056
 4245POPC   C4A55266  27.578  27.703   7.442
 4245POPC   C1B55267  27.894  27.967   6.290
 4245POPC   C2B55268  27.734  27.944   6.707
 4245POPC   C3B55269  27.916  27.728   7.064
 4245POPC   C4B55270  28.113  27.803   7.474
 4246POPC   NC355271  39.163  39.874   5.160
 4246POPC   PO455272  39.702  39.740   5.554
 4246POPC   GL155273  39.413  40.007   5.794
 4246POPC   GL255274  39.432  40.356   5.751
 4246POPC   C1A55275  39.321  39.955   6.233
 4246POPC   D2A55276  39.403  39.672   6.527
 4246POPC   C3A55277  39.510  39.780   6.932
 4246POPC   C4A55278  39.299  39.857   7.282
 4246POPC   C1B55279  39.479  40.440   6.186
 4246POPC   C2B55280  39.409  40.269   6.613
 4246POPC   C3B55281  39.303  40.304   7.021
 4246POPC   C4B55282  39.554  40.288   7.401
 4247POPC   NC355283  30.842  37.133   5.481
 4247POPC   PO455284  30.165  37.120   5.483
 4247POPC   GL155285  30.435  37.059   5.863
 4247POPC   GL255286  30.567  36.755   5.821
 4247POPC   C1A55287  30.676  37.108   6.261
 4247POPC   D2A55288  30.928  36.815   6.559
 4247POPC   C3A55289  30.901  36.961   6.992
 4247POPC   C4A55290  30.812  37.198   7.369
 4247POPC   C1B55291  30.489  36.644   6.220
 4247POPC   C2B55292  30.429  36.796   6.635
 4247POPC   C3B55293  30.545  36.592   7.003
 4247POPC   C4B55294  30.735  36.648   7.359
 4248POPC   NC355295  42.424   9.403   5.418
 4248POPC   PO455296  42.074   8.803   5.256
 4248POPC   GL155297  42.244   8.942   5.650
 4248POPC   GL255298  42.538   8.733   5.740
 4248POPC   C1A55299  42.106   9.171   6.039
 4248POPC   D2A55300  42.308   9.221   6.456
 4248POPC   C3A55301  42.104   9.398   6.836
 4248POPC   C4A55302  42.087   9.294   7.277
 4248POPC   C1B55303  42.439   8.805   6.179
 4248POPC   C2B55304  42.480   8.774   6.653
 4248POPC   C3B55305  42.478   8.953   7.094
 4248POPC   C4B55306  42.600   8.770   7.510
 4249POPC   NC355307  12.236  10.321   5.570
 4249POPC   PO455308  12.476  10.928   5.569
 4249POPC   GL155309  12.254  10.691   5.897
 4249POPC   GL255310  11.854  10.588   5.910
 4249POPC   C1A55311  12.161  10.520   6.302
 4249POPC   D2A55312  11.898  10.682   6.594
 4249POPC   C3A55313  12.111  10.592   6.956
 4249POPC   C4A55314  11.891  10.773   7.301
 4249POPC   C1B55315  11.737  10.241   6.258
 4249POPC   C2B55316  11.923  10.185   6.699
 4249POPC   C3B55317  11.757  10.279   7.105
 4249POPC   C4B55318  11.580  10.428   7.473
 4250POPC   NC355319  20.119   6.552   5.224
 4250POPC   PO455320  20.673   6.205   5.452
 4250POPC   GL155321  20.761   6.292   5.840
 4250POPC   GL255322  20.591   6.627   5.801
 4250POPC   C1A55323  20.612   6.294   6.252
 4250POPC   D2A55324  20.762   6.489   6.609
 4250POPC   C3A55325  20.729   6.306   6.978
 4250POPC   C4A55326  20.426   6.451   7.241
 4250POPC   C1B55327  20.724   6.814   6.184
 4250POPC   C2B55328  20.547   6.954   6.550
 4250POPC   C3B55329  20.640   6.851   6.953
 4250POPC   C4B55330  20.743   6.912   7.353
 4251POPC   NC355331  17.951  41.866   5.336
 4251POPC   PO455332  18.478  41.483   5.452
 4251POPC   GL155333  18.296  41.607   5.861
 4251POPC   GL255334  17.970  41.570   5.753
 4251POPC   C1A55335  18.428  41.634   6.301
 4251POPC   D2A55336  18.475  41.467   6.713
 4251POPC   C3A55337  18.407  41.589   7.098
 4251POPC   C4A55338  18.467  41.337   7.460
 4251POPC   C1B55339  17.943  41.410   6.195
 4251POPC   C2B55340  17.943  41.434   6.671
 4251POPC   C3B55341  17.902  41.492   7.123
 4251POPC   C4B55342  18.108  41.714   7.498
 4252POPC   NC355343  37.347   7.375   5.320
 4252POPC   PO455344  37.954   7.144   5.421
 4252POPC   GL155345  37.643   7.260   5.767
 4252POPC   GL255346  37.682   7.590   5.865
 4252POPC   C1A55347  37.734   7.273   6.244
 4252POPC   D2A55348  37.687   7.185   6.658
 4252POPC   C3A55349  37.895   7.422   6.946
 4252POPC   C4A55350  37.961   7.153   7.264
 4252POPC   C1B55351  37.460   7.680   6.179
 4252POPC   C2B55352  37.562   7.684   6.582
 4252POPC   C3B55353  37.379   7.638   6.988
 4252POPC   C4B55354  37.370   7.549   7.436
 4253POPC   NC355355  13.079   9.991   5.508
 4253POPC   PO455356  12.537   9.801   5.160
 4253POPC   GL155357  12.443   9.819   5.675
 4253POPC   GL255358  12.461   9.506   5.881
 4253POPC   C1A55359  12.653   9.964   6.118
 4253POPC   D2A55360  12.906  10.161   6.483
 4253POPC   C3A55361  12.946   9.969   6.910
 4253POPC   C4A55362  12.669   9.890   7.263
 4253POPC   C1B55363  12.766   9.475   6.199
 4253POPC   C2B55364  12.720   9.633   6.576
 4253POPC   C3B55365  12.647   9.471   6.965
 4253POPC   C4B55366  13.028   9.485   7.187
 4254POPC   NC355367  11.318  39.237   5.177
 4254POPC   PO455368  11.966  39.194   5.321
 4254POPC   GL155369  11.578  39.344   5.616
 4254POPC   GL255370  11.400  39.048   5.754
 4254POPC   C1A55371  11.408  39.452   6.059
 4254POPC   D2A55372  11.186  39.288   6.457
 4254POPC   C3A55373  11.282  39.419   6.901
 4254POPC   C4A55374  11.601  39.400   7.233
 4254POPC   C1B55375  11.580  38.986   6.200
 4254POPC   C2B55376  11.672  39.164   6.625
 4254POPC   C3B55377  11.611  38.953   7.010
 4254POPC   C4B55378  11.185  38.988   7.175
 4255POPC   NC355379  29.775  25.272   5.410
 4255POPC   PO455380  30.242  25.716   5.460
 4255POPC   GL155381  30.233  25.357   5.737
 4255POPC   GL255382  29.947  25.155   5.867
 4255POPC   C1A55383  30.256  25.427   6.165
 4255POPC   D2A55384  30.081  25.655   6.532
 4255POPC   C3A55385  30.040  25.540   6.978
 4255POPC   C4A55386  29.762  25.423   7.341
 4255POPC   C1B55387  29.894  25.144   6.324
 4255POPC   C2B55388  30.141  25.130   6.695
 4255POPC   C3B55389  29.923  25.026   7.086
 4255POPC   C4B55390  29.603  24.914   7.403
 4256POPC   NC355391  13.301  34.714   5.268
 4256POPC   PO455392  13.884  34.409   5.367
 4256POPC   GL155393  13.735  34.544   5.750
 4256POPC   GL255394  14.003  34.670   5.919
 4256POPC   C1A55395  13.554  34.501   6.171
 4256POPC   D2A55396  13.485  34.750   6.524
 4256POPC   C3A55397  13.637  34.663   6.921
 4256POPC   C4A55398  13.472  34.551   7.305
 4256POPC   C1B55399  14.009  34.251   6.121
 4256POPC   C2B55400  14.129  34.144   6.546
 4256POPC   C3B55401  14.096  34.391   6.899
 4256POPC   C4B55402  13.983  34.542   7.301
 4257POPC   NC355403  39.226  27.724   5.450
 4257POPC   PO455404  39.805  27.358   5.441
 4257POPC   GL155405  39.448  27.430   5.790
 4257POPC   GL255406  39.405  27.773   5.915
 4257POPC   C1A55407  39.235  27.352   6.193
 4257POPC   D2A55408  38.950  27.464   6.538
 4257POPC   C3A55409  39.108  27.404   6.965
 4257POPC   C4A55410  39.279  27.430   7.375
 4257POPC   C1B55411  39.299  27.834   6.335
 4257POPC   C2B55412  39.132  27.911   6.745
 4257POPC   C3B55413  39.107  27.932   7.215
 4257POPC   C4B55414  39.489  28.011   7.474
 4258POPC   NC355415  37.564  28.784   5.277
 4258POPC   PO455416  37.844  29.448   5.349
 4258POPC   GL155417  37.692  29.253   5.704
 4258POPC   GL255418  38.050  29.239   5.791
 4258POPC   C1A55419  37.692  29.162   6.158
 4258POPC   D2A55420  37.377  29.281   6.464
 4258POPC   C3A55421  37.535  29.330   6.853
 4258POPC   C4A55422  37.397  29.337   7.259
 4258POPC   C1B55423  38.157  29.384   6.196
 4258POPC   C2B55424  38.156  29.184   6.594
 4258POPC   C3B55425  38.081  28.930   6.955
 4258POPC   C4B55426  37.913  29.222   7.212
 4259POPC   NC355427   2.557  19.516   5.563
 4259POPC   PO455428   2.722  20.129   5.162
 4259POPC   GL155429   2.991  19.915   5.610
 4259POPC   GL255430   2.999  19.562   5.815
 4259POPC   C1A55431   2.956  19.964   6.093
 4259POPC   D2A55432   3.050  19.769   6.544
 4259POPC   C3A55433   2.914  19.925   6.994
 4259POPC   C4A55434   2.512  20.087   7.226
 4259POPC   C1B55435   2.669  19.572   6.223
 4259POPC   C2B55436   2.536  19.467   6.687
 4259POPC   C3B55437   2.598  19.581   7.150
 4259POPC   C4B55438   2.962  19.548   7.452
 4260POPC   NC355439  38.247  23.590   4.957
 4260POPC   PO455440  38.701  23.347   5.490
 4260POPC   GL155441  38.553  23.456   5.915
 4260POPC   GL255442  38.357  23.772   5.911
 4260POPC   C1A55443  38.474  23.467   6.383
 4260POPC   D2A55444  38.250  23.721   6.706
 4260POPC   C3A55445  38.284  23.662   7.141
 4260POPC   C4A55446  38.633  23.528   7.410
 4260POPC   C1B55447  38.731  23.874   6.158
 4260POPC   C2B55448  38.684  24.023   6.576
 4260POPC   C3B55449  38.736  23.803   6.935
 4260POPC   C4B55450  38.605  24.036   7.282
 4261POPC   NC355451  40.217  32.464   5.432
 4261POPC   PO455452  39.631  32.113   5.403
 4261POPC   GL155453  39.816  32.079   5.847
 4261POPC   GL255454  40.132  32.194   5.857
 4261POPC   C1A55455  39.889  32.213   6.295
 4261POPC   D2A55456  39.780  32.396   6.686
 4261POPC   C3A55457  39.897  32.179   7.061
 4261POPC   C4A55458  40.047  32.069   7.475
 4261POPC   C1B55459  40.367  32.411   6.173
 4261POPC   C2B55460  40.243  32.622   6.559
 4261POPC   C3B55461  40.210  32.640   6.985
 4261POPC   C4B55462  40.064  32.580   7.378
 4262POPC   NC355463  18.284  37.898   5.378
 4262POPC   PO455464  18.751  37.423   5.516
 4262POPC   GL155465  18.488  37.671   5.832
 4262POPC   GL255466  18.380  38.015   5.866
 4262POPC   C1A55467  18.399  37.557   6.249
 4262POPC   D2A55468  18.176  37.652   6.616
 4262POPC   C3A55469  18.444  37.510   6.948
 4262POPC   C4A55470  18.347  37.406   7.375
 4262POPC   C1B55471  18.357  38.059   6.338
 4262POPC   C2B55472  18.521  37.990   6.772
 4262POPC   C3B55473  18.236  37.941   7.137
 4262POPC   C4B55474  17.793  38.079   7.114
 4263POPC   NC355475  38.628  16.221   5.315
 4263POPC   PO455476  38.185  15.805   5.483
 4263POPC   GL155477  38.304  16.120   5.763
 4263POPC   GL255478  38.673  16.159   5.813
 4263POPC   C1A55479  38.352  16.048   6.212
 4263POPC   D2A55480  38.211  15.912   6.614
 4263POPC   C3A55481  38.314  16.125   6.986
 4263POPC   C4A55482  38.260  15.826   7.313
 4263POPC   C1B55483  38.879  16.085   6.196
 4263POPC   C2B55484  38.736  15.907   6.587
 4263POPC   C3B55485  38.684  15.756   7.004
 4263POPC   C4B55486  38.779  16.081   7.299
 4264POPC   NC355487  39.405  32.519   5.472
 4264POPC   PO455488  39.189  31.820   5.452
 4264POPC   GL155489  39.280  32.137   5.802
 4264POPC   GL255490  39.041  32.448   5.821
 4264POPC   C1A55491  39.404  32.387   6.180
 4264POPC   D2A55492  39.291  32.227   6.557
 4264POPC   C3A55493  39.355  32.286   6.955
 4264POPC   C4A55494  39.222  32.080   7.278
 4264POPC   C1B55495  38.925  32.670   6.203
 4264POPC   C2B55496  38.920  32.576   6.646
 4264POPC   C3B55497  39.045  32.695   7.067
 4264POPC   C4B55498  39.156  32.563   7.501
 4265POPC   NC355499  10.992  32.606   5.285
 4265POPC   PO455500  11.466  32.057   5.422
 4265POPC   GL155501  11.364  31.967   5.809
 4265POPC   GL255502  11.115  32.210   5.791
 4265POPC   C1A55503  11.425  32.172   6.205
 4265POPC   D2A55504  11.236  32.121   6.622
 4265POPC   C3A55505  11.494  32.120   6.979
 4265POPC   C4A55506  11.503  32.437   7.283
 4265POPC   C1B55507  10.938  32.303   6.224
 4265POPC   C2B55508  10.920  32.551   6.608
 4265POPC   C3B55509  10.995  32.386   7.030
 4265POPC   C4B55510  10.999  32.504   7.452
 4266POPC   NC355511   2.734  43.497   5.389
 4266POPC   PO455512   2.931  42.840   5.245
 4266POPC   GL155513   2.868  43.056   5.651
 4266POPC   GL255514   2.520  43.104   5.687
 4266POPC   C1A55515   2.831  43.303   6.058
 4266POPC   D2A55516   2.641  43.459   6.433
 4266POPC   C3A55517   2.878  43.491   6.839
 4266POPC   C4A55518   3.036  43.264   7.225
 4266POPC   C1B55519   2.676  42.833   6.068
 4266POPC   C2B55520   2.836  42.974   6.483
 4266POPC   C3B55521   2.698  43.001   6.920
 4266POPC   C4B55522   2.823  42.745   7.241
 4267POPC   NC355523  24.664   4.825   5.312
 4267POPC   PO455524  24.417   5.426   5.131
 4267POPC   GL155525  24.384   5.176   5.579
 4267POPC   GL255526  24.743   5.179   5.696
 4267POPC   C1A55527  24.135   5.010   5.990
 4267POPC   D2A55528  24.196   5.170   6.459
 4267POPC   C3A55529  24.054   5.203   6.917
 4267POPC   C4A55530  24.132   5.224   7.378
 4267POPC   C1B55531  24.597   5.157   6.110
 4267POPC   C2B55532  24.715   5.073   6.524
 4267POPC   C3B55533  24.578   5.148   6.950
 4267POPC   C4B55534  24.449   4.845   7.260
 4268POPC   NC355535  40.065  15.625   5.295
 4268POPC   PO455536  40.054  16.229   5.376
 4268POPC   GL155537  40.163  16.021   5.771
 4268POPC   GL255538  40.055  15.675   5.800
 4268POPC   C1A55539  40.037  16.048   6.216
 4268POPC   D2A55540  39.829  16.332   6.513
 4268POPC   C3A55541  39.795  16.158   6.929
 4268POPC   C4A55542  40.044  15.847   7.125
 4268POPC   C1B55543  39.808  15.591   6.175
 4268POPC   C2B55544  39.678  15.814   6.553
 4268POPC   C3B55545  39.563  15.692   6.957
 4268POPC   C4B55546  39.657  15.587   7.368
 4269POPC   NC355547  11.980  32.497   5.162
 4269POPC   PO455548  12.244  31.968   5.310
 4269POPC   GL155549  12.038  32.216   5.642
 4269POPC   GL255550  12.353  32.357   5.724
 4269POPC   C1A55551  11.940  32.144   6.114
 4269POPC   D2A55552  11.773  32.234   6.557
 4269POPC   C3A55553  12.109  32.125   6.875
 4269POPC   C4A55554  12.290  31.812   7.198
 4269POPC   C1B55555  12.499  32.419   6.146
 4269POPC   C2B55556  12.557  32.288   6.579
 4269POPC   C3B55557  12.397  32.541   6.903
 4269POPC   C4B55558  12.164  32.545   7.264
 4270POPC   NC355559  41.693  37.264   5.428
 4270POPC   PO455560  41.307  37.777   5.320
 4270POPC   GL155561  41.544  37.809   5.722
 4270POPC   GL255562  41.871  37.675   5.695
 4270POPC   C1A55563  41.551  37.849   6.179
 4270POPC   D2A55564  41.465  37.509   6.494
 4270POPC   C3A55565  41.628  37.632   6.875
 4270POPC   C4A55566  41.500  37.898   7.197
 4270POPC   C1B55567  41.807  37.418   6.088
 4270POPC   C2B55568  42.007  37.469   6.496
 4270POPC   C3B55569  42.098  37.360   6.929
 4270POPC   C4B55570  41.858  37.498   7.314
 4271POPC   NC355571  40.944  41.241   5.341
 4271POPC   PO455572  40.438  41.609   5.449
 4271POPC   GL155573  40.704  41.366   5.792
 4271POPC   GL255574  41.077  41.255   5.845
 4271POPC   C1A55575  40.813  41.520   6.224
 4271POPC   D2A55576  40.577  41.469   6.591
 4271POPC   C3A55577  40.752  41.578   6.994
 4271POPC   C4A55578  40.742  41.729   7.410
 4271POPC   C1B55579  41.066  41.072   6.267
 4271POPC   C2B55580  41.036  41.219   6.726
 4271POPC   C3B55581  41.213  41.296   7.154
 4271POPC   C4B55582  41.020  41.339   7.542
 4272POPC   NC355583  32.075  16.501   5.290
 4272POPC   PO455584  31.649  16.921   5.422
 4272POPC   GL155585  31.742  16.781   5.802
 4272POPC   GL255586  31.448  16.857   5.957
 4272POPC   C1A55587  31.738  16.559   6.239
 4272POPC   D2A55588  31.577  16.737   6.643
 4272POPC   C3A55589  31.544  16.543   7.101
 4272POPC   C4A55590  31.268  16.569   7.499
 4272POPC   C1B55591  31.728  17.136   6.198
 4272POPC   C2B55592  31.819  17.268   6.644
 4272POPC   C3B55593  31.778  17.000   7.020
 4272POPC   C4B55594  31.605  16.966   7.436
 4273POPC   NC355595  42.998  26.708   5.405
 4273POPC   PO455596  43.718  26.484   5.406
 4273POPC   GL155597  43.519  26.791   5.767
 4273POPC   GL255598  43.137  26.910   5.854
 4273POPC   C1A55599  43.452  26.860   6.235
 4273POPC   D2A55600  43.198  26.723   6.592
 4273POPC   C3A55601  43.203  26.878   6.985
 4273POPC   C4A55602  43.256  26.901   7.387
 4273POPC   C1B55603  42.795  26.720   6.084
 4273POPC   C2B55604  42.660  26.581   6.484
 4273POPC   C3B55605  42.710  26.736   6.906
 4273POPC   C4B55606  42.763  27.167   7.110
 4274POPC   NC355607  20.584  21.909   5.230
 4274POPC   PO455608  21.123  21.972   5.502
 4274POPC   GL155609  20.939  21.926   5.878
 4274POPC   GL255610  20.561  21.975   5.878
 4274POPC   C1A55611  20.906  22.135   6.265
 4274POPC   D2A55612  20.714  21.982   6.615
 4274POPC   C3A55613  20.759  22.154   7.020
 4274POPC   C4A55614  20.876  22.053   7.431
 4274POPC   C1B55615  20.414  22.256   6.239
 4274POPC   C2B55616  20.376  22.359   6.685
 4274POPC   C3B55617  20.260  22.234   7.099
 4274POPC   C4B55618  20.499  22.356   7.492
 4275POPC   NC355619   7.514  44.439   5.469
 4275POPC   PO455620   8.043  44.789   5.411
 4275POPC   GL155621   8.186  44.811   5.839
 4275POPC   GL255622   8.405  44.528   5.892
 4275POPC   C1A55623   8.327  44.886   6.255
 4275POPC   D2A55624   8.457  44.714   6.671
 4275POPC   C3A55625   8.160  44.809   7.009
 4275POPC   C4A55626   8.225  44.988   7.409
 4275POPC   C1B55627   8.710  44.501   6.249
 4275POPC   C2B55628   8.890  44.361   6.660
 4275POPC   C3B55629   8.714  44.461   7.112
 4275POPC   C4B55630   8.370  44.491   7.442
 4276POPC   NC355631  43.715   5.033   5.073
 4276POPC   PO455632  43.105   5.186   5.281
 4276POPC   GL155633  43.135   5.002   5.689
 4276POPC   GL255634  43.134   5.332   5.827
 4276POPC   C1A55635  43.207   4.843   6.124
 4276POPC   D2A55636  43.141   5.059   6.523
 4276POPC   C3A55637  43.113   4.858   6.944
 4276POPC   C4A55638  43.377   4.779   7.314
 4276POPC   C1B55639  42.912   5.492   6.160
 4276POPC   C2B55640  42.967   5.526   6.582
 4276POPC   C3B55641  43.163   5.359   6.948
 4276POPC   C4B55642  42.918   5.329   7.341
 4277POPC   NC355643   8.828  31.166   5.439
 4277POPC   PO455644   9.358  31.492   5.450
 4277POPC   GL155645   9.122  31.616   5.794
 4277POPC   GL255646   9.062  31.285   5.909
 4277POPC   C1A55647   8.904  31.677   6.185
 4277POPC   D2A55648   8.734  31.433   6.488
 4277POPC   C3A55649   8.835  31.646   6.840
 4277POPC   C4A55650   8.666  31.739   7.208
 4277POPC   C1B55651   9.222  31.274   6.350
 4277POPC   C2B55652   9.044  31.117   6.729
 4277POPC   C3B55653   8.902  31.191   7.177
 4277POPC   C4B55654   9.187  31.079   7.566
 4278POPC   NC355655  16.193  27.736   4.979
 4278POPC   PO455656  15.872  27.909   5.507
 4278POPC   GL155657  16.028  27.747   5.878
 4278POPC   GL255658  15.719  27.591   5.911
 4278POPC   C1A55659  16.117  27.503   6.226
 4278POPC   D2A55660  16.048  27.583   6.637
 4278POPC   C3A55661  16.226  27.347   6.976
 4278POPC   C4A55662  16.172  27.397   7.391
 4278POPC   C1B55663  15.574  27.734   6.273
 4278POPC   C2B55664  15.586  27.822   6.692
 4278POPC   C3B55665  15.707  27.514   7.008
 4278POPC   C4B55666  15.661  27.571   7.407
 4279POPC   NC355667   2.978  35.651   5.202
 4279POPC   PO455668   2.879  36.274   5.477
 4279POPC   GL155669   2.809  35.893   5.681
 4279POPC   GL255670   3.118  35.947   5.876
 4279POPC   C1A55671   2.617  35.810   6.102
 4279POPC   D2A55672   2.600  36.053   6.500
 4279POPC   C3A55673   2.591  35.934   6.942
 4279POPC   C4A55674   2.409  36.282   7.187
 4279POPC   C1B55675   3.092  35.851   6.316
 4279POPC   C2B55676   3.055  36.037   6.745
 4279POPC   C3B55677   2.908  36.357   7.029
 4279POPC   C4B55678   2.857  36.347   7.482
 4280POPC   NC355679  19.565  44.968   5.459
 4280POPC   PO455680  19.922  44.460   5.485
 4280POPC   GL155681  19.820  44.663   5.827
 4280POPC   GL255682  19.491  44.544   5.826
 4280POPC   C1A55683  19.830  44.863   6.218
 4280POPC   D2A55684  19.684  44.701   6.592
 4280POPC   C3A55685  19.682  44.880   6.973
 4280POPC   C4A55686  19.955  44.711   7.259
 4280POPC   C1B55687  19.318  44.734   6.206
 4280POPC   C2B55688  19.186  44.639   6.633
 4280POPC   C3B55689  19.448  44.410   6.953
 4280POPC   C4B55690  19.544  44.489   7.387
 4281POPC   NC355691  38.494   6.088   5.295
 4281POPC   PO455692  38.760   5.615   5.436
 4281POPC   GL155693  38.545   5.956   5.776
 4281POPC   GL255694  38.172   6.088   5.811
 4281POPC   C1A55695  38.531   6.165   6.187
 4281POPC   D2A55696  38.540   5.946   6.588
 4281POPC   C3A55697  38.529   6.090   7.033
 4281POPC   C4A55698  38.497   5.833   7.440
 4281POPC   C1B55699  38.084   5.951   6.283
 4281POPC   C2B55700  38.091   6.120   6.729
 4281POPC   C3B55701  38.056   5.980   7.185
 4281POPC   C4B55702  37.961   5.931   7.635
 4282POPC   NC355703   7.927   5.831   5.401
 4282POPC   PO455704   8.621   5.689   5.490
 4282POPC   GL155705   8.336   5.936   5.833
 4282POPC   GL255706   7.955   5.905   5.892
 4282POPC   C1A55707   8.216   5.722   6.258
 4282POPC   D2A55708   8.369   5.779   6.621
 4282POPC   C3A55709   8.240   5.942   6.983
 4282POPC   C4A55710   8.574   6.085   7.217
 4282POPC   C1B55711   8.034   6.189   6.234
 4282POPC   C2B55712   7.842   6.178   6.635
 4282POPC   C3B55713   7.794   6.222   7.066
 4282POPC   C4B55714   8.111   6.291   7.329
 4283POPC   NC355715   3.825  41.855   5.439
 4283POPC   PO455716   3.342  41.632   5.447
 4283POPC   GL155717   3.173  41.685   5.861
 4283POPC   GL255718   3.481  41.858   5.940
 4283POPC   C1A55719   3.015  41.477   6.244
 4283POPC   D2A55720   3.122  41.223   6.627
 4283POPC   C3A55721   3.306  41.412   6.998
 4283POPC   C4A55722   3.444  41.481   7.427
 4283POPC   C1B55723   3.516  41.594   6.332
 4283POPC   C2B55724   3.729  41.568   6.753
 4283POPC   C3B55725   3.737  41.785   7.152
 4283POPC   C4B55726   3.799  41.793   7.625
 4284POPC   NC355727  29.327  21.163   5.332
 4284POPC   PO455728  28.842  21.588   5.377
 4284POPC   GL155729  29.142  21.432   5.732
 4284POPC   GL255730  29.089  21.086   5.875
 4284POPC   C1A55731  29.296  21.449   6.199
 4284POPC   D2A55732  29.234  21.261   6.627
 4284POPC   C3A55733  29.350  21.443   7.026
 4284POPC   C4A55734  29.141  21.572   7.416
 4284POPC   C1B55735  28.839  21.148   6.286
 4284POPC   C2B55736  28.815  20.978   6.742
 4284POPC   C3B55737  28.895  21.148   7.175
 4284POPC   C4B55738  28.902  21.175   7.652
 4285POPC   NC355739  18.880  19.834   5.407
 4285POPC   PO455740  18.800  20.398   5.088
 4285POPC   GL155741  18.954  20.285   5.627
 4285POPC   GL255742  18.764  20.004   5.873
 4285POPC   C1A55743  19.079  20.280   6.111
 4285POPC   D2A55744  18.768  20.088   6.428
 4285POPC   C3A55745  18.847  19.999   6.885
 4285POPC   C4A55746  19.286  20.015   7.038
 4285POPC   C1B55747  19.031  19.734   6.142
 4285POPC   C2B55748  19.194  19.784   6.567
 4285POPC   C3B55749  19.121  19.556   6.973
 4285POPC   C4B55750  19.471  19.527   7.283
 4286POPC   NC355751   1.853   7.258   5.071
 4286POPC   PO455752   1.911   7.767   5.554
 4286POPC   GL155753   2.052   7.691   5.955
 4286POPC   GL255754   1.694   7.804   6.002
 4286POPC   C1A55755   2.142   7.369   6.295
 4286POPC   D2A55756   1.936   7.245   6.707
 4286POPC   C3A55757   2.137   7.417   7.106
 4286POPC   C4A55758   2.300   7.256   7.522
 4286POPC   C1B55759   1.763   7.683   6.391
 4286POPC   C2B55760   1.855   7.922   6.699
 4286POPC   C3B55761   1.483   7.889   6.888
 4286POPC   C4B55762   1.553   7.543   7.145
 4287POPC   NC355763  36.410  31.131   5.379
 4287POPC   PO455764  35.912  30.998   5.769
 4287POPC   GL155765  36.253  31.315   5.851
 4287POPC   GL255766  36.194  31.704   5.874
 4287POPC   C1A55767  36.552  31.330   6.201
 4287POPC   D2A55768  36.606  31.323   6.653
 4287POPC   C3A55769  36.300  31.468   6.938
 4287POPC   C4A55770  36.290  31.559   7.361
 4287POPC   C1B55771  36.038  31.524   6.275
 4287POPC   C2B55772  35.761  31.449   6.628
 4287POPC   C3B55773  35.784  31.494   7.078
 4287POPC   C4B55774  35.867  31.274   7.469
 4288POPC   NC355775  22.565  29.488   5.350
 4288POPC   PO455776  21.978  29.872   5.397
 4288POPC   GL155777  22.120  29.788   5.798
 4288POPC   GL255778  21.855  29.580   5.852
 4288POPC   C1A55779  22.238  29.952   6.209
 4288POPC   D2A55780  22.146  30.122   6.610
 4288POPC   C3A55781  22.430  30.030   6.897
 4288POPC   C4A55782  22.331  30.096   7.275
 4288POPC   C1B55783  21.963  29.495   6.232
 4288POPC   C2B55784  21.853  29.686   6.576
 4288POPC   C3B55785  22.006  29.753   6.969
 4288POPC   C4B55786  21.826  30.059   7.226
 4289POPC   NC355787  43.596  10.501   5.409
 4289POPC   PO455788  42.999  10.753   5.431
 4289POPC   GL155789  43.173  10.620   5.830
 4289POPC   GL255790  43.306  10.311   5.829
 4289POPC   C1A55791  43.141  10.783   6.260
 4289POPC   D2A55792  43.168  10.688   6.699
 4289POPC   C3A55793  42.926  10.803   7.060
 4289POPC   C4A55794  43.028  10.637   7.451
 4289POPC   C1B55795  43.287  10.117   6.223
 4289POPC   C2B55796  43.140  10.180   6.630
 4289POPC   C3B55797  43.112  10.317   7.048
 4289POPC   C4B55798  43.317  10.216   7.443
 4290POPC   NC355799   7.137  34.008   5.303
 4290POPC   PO455800   7.803  33.876   5.276
 4290POPC   GL155801   7.541  33.797   5.624
 4290POPC   GL255802   7.455  34.139   5.709
 4290POPC   C1A55803   7.361  33.737   6.053
 4290POPC   D2A55804   7.519  33.626   6.472
 4290POPC   C3A55805   7.288  33.648   6.844
 4290POPC   C4A55806   7.534  33.596   7.210
 4290POPC   C1B55807   7.483  34.261   6.137
 4290POPC   C2B55808   7.233  34.067   6.473
 4290POPC   C3B55809   7.335  34.161   6.903
 4290POPC   C4B55810   7.565  34.101   7.254
 4291POPC   NC355811  35.563  33.497   5.518
 4291POPC   PO455812  35.091  33.975   5.352
 4291POPC   GL155813  35.238  33.788   5.781
 4291POPC   GL255814  35.144  33.481   5.944
 4291POPC   C1A55815  35.483  33.754   6.197
 4291POPC   D2A55816  35.642  33.648   6.591
 4291POPC   C3A55817  35.568  33.886   6.962
 4291POPC   C4A55818  35.552  33.683   7.341
 4291POPC   C1B55819  35.176  33.410   6.438
 4291POPC   C2B55820  35.173  33.578   6.891
 4291POPC   C3B55821  35.106  33.930   7.203
 4291POPC   C4B55822  35.126  33.792   7.611
 4292POPC   NC355823  23.079  36.015   5.235
 4292POPC   PO455824  23.187  36.565   5.402
 4292POPC   GL155825  23.110  36.308   5.794
 4292POPC   GL255826  22.787  36.104   5.852
 4292POPC   C1A55827  23.002  36.299   6.257
 4292POPC   D2A55828  23.122  36.032   6.608
 4292POPC   C3A55829  22.990  36.187   7.009
 4292POPC   C4A55830  23.086  36.079   7.418
 4292POPC   C1B55831  22.766  35.831   6.266
 4292POPC   C2B55832  22.668  35.829   6.738
 4292POPC   C3B55833  22.693  35.809   7.210
 4292POPC   C4B55834  22.632  35.979   7.646
 4293POPC   NC355835  21.592  16.820   5.400
 4293POPC   PO455836  21.008  16.455   5.578
 4293POPC   GL155837  21.324  16.699   5.821
 4293POPC   GL255838  21.693  16.654   5.872
 4293POPC   C1A55839  21.285  16.625   6.242
 4293POPC   D2A55840  20.961  16.703   6.545
 4293POPC   C3A55841  21.151  16.593   6.894
 4293POPC   C4A55842  21.046  16.700   7.280
 4293POPC   C1B55843  21.822  16.437   6.245
 4293POPC   C2B55844  21.561  16.363   6.600
 4293POPC   C3B55845  21.635  16.701   6.854
 4293POPC   C4B55846  21.533  16.868   7.220
 4294POPC   NC355847  24.779  26.186   5.305
 4294POPC   PO455848  25.369  26.411   5.112
 4294POPC   GL155849  25.447  26.340   5.602
 4294POPC   GL255850  25.135  26.183   5.724
 4294POPC   C1A55851  25.432  26.437   6.138
 4294POPC   D2A55852  25.292  26.411   6.649
 4294POPC   C3A55853  25.505  26.198   7.051
 4294POPC   C4A55854  25.538  25.931   7.467
 4294POPC   C1B55855  25.020  26.099   6.162
 4294POPC   C2B55856  24.806  26.222   6.551
 4294POPC   C3B55857  24.963  26.124   6.960
 4294POPC   C4B55858  24.754  25.842   7.245
 4295POPC   NC355859  12.557   6.363   5.425
 4295POPC   PO455860  13.187   6.067   5.543
 4295POPC   GL155861  12.958   6.374   5.840
 4295POPC   GL255862  12.647   6.606   5.865
 4295POPC   C1A55863  12.808   6.406   6.310
 4295POPC   D2A55864  12.632   6.670   6.638
 4295POPC   C3A55865  12.792   6.575   7.052
 4295POPC   C4A55866  13.165   6.308   7.149
 4295POPC   C1B55867  12.826   6.898   6.190
 4295POPC   C2B55868  12.903   7.115   6.568
 4295POPC   C3B55869  12.794   7.074   6.978
 4295POPC   C4B55870  13.015   7.126   7.338
 4296POPC   NC355871   7.367   8.681   5.529
 4296POPC   PO455872   7.581   9.336   5.498
 4296POPC   GL155873   7.609   9.026   5.841
 4296POPC   GL255874   7.752   8.669   5.855
 4296POPC   C1A55875   7.472   9.071   6.262
 4296POPC   D2A55876   7.257   9.053   6.672
 4296POPC   C3A55877   7.522   9.164   7.023
 4296POPC   C4A55878   7.776   9.164   7.406
 4296POPC   C1B55879   7.446   8.555   6.175
 4296POPC   C2B55880   7.501   8.625   6.604
 4296POPC   C3B55881   7.374   8.669   7.027
 4296POPC   C4B55882   7.595   8.456   7.330
 4297POPC   NC355883   0.221  32.486   5.474
 4297POPC   PO455884   0.827  32.097   5.548
 4297POPC   GL155885   0.635  32.425   5.800
 4297POPC   GL255886   0.354  32.212   5.876
 4297POPC   C1A55887   0.385  32.634   6.151
 4297POPC   D2A55888   0.543  32.610   6.565
 4297POPC   C3A55889   0.291  32.565   6.953
 4297POPC   C4A55890   0.188  32.482   7.391
 4297POPC   C1B55891   0.587  32.153   6.264
 4297POPC   C2B55892   0.384  32.142   6.666
 4297POPC   C3B55893   0.240  32.079   7.078
 4297POPC   C4B55894   0.137  31.981   7.515
 4298POPC   NC355895  16.203  29.692   5.462
 4298POPC   PO455896  15.744  30.079   5.201
 4298POPC   GL155897  15.763  29.820   5.682
 4298POPC   GL255898  16.048  29.942   5.898
 4298POPC   C1A55899  15.659  29.810   6.159
 4298POPC   D2A55900  15.949  29.811   6.507
 4298POPC   C3A55901  15.810  29.986   6.906
 4298POPC   C4A55902  15.994  29.958   7.301
 4298POPC   C1B55903  16.115  30.255   6.274
 4298POPC   C2B55904  16.222  30.352   6.748
 4298POPC   C3B55905  16.411  30.240   7.182
 4298POPC   C4B55906  16.350  30.150   7.630
 4299POPC   NC355907  11.815  37.998   5.267
 4299POPC   PO455908  11.983  37.378   5.407
 4299POPC   GL155909  12.060  37.615   5.767
 4299POPC   GL255910  12.105  37.968   5.700
 4299POPC   C1A55911  11.910  37.753   6.162
 4299POPC   D2A55912  12.067  37.625   6.566
 4299POPC   C3A55913  12.390  37.778   6.836
 4299POPC   C4A55914  12.150  37.607   7.194
 4299POPC   C1B55915  12.271  38.105   6.105
 4299POPC   C2B55916  12.095  38.144   6.530
 4299POPC   C3B55917  11.938  38.002   6.913
 4299POPC   C4B55918  12.214  38.096   7.236
 4300POPC   NC355919   5.384  18.908   5.029
 4300POPC   PO455920   4.899  19.224   5.430
 4300POPC   GL155921   4.843  19.281   5.831
 4300POPC   GL255922   4.669  18.975   5.927
 4300POPC   C1A55923   5.064  19.167   6.212
 4300POPC   D2A55924   5.202  18.987   6.621
 4300POPC   C3A55925   5.013  19.143   6.992
 4300POPC   C4A55926   5.100  19.480   7.271
 4300POPC   C1B55927   4.643  18.917   6.404
 4300POPC   C2B55928   4.799  18.708   6.815
 4300POPC   C3B55929   5.121  18.589   7.155
 4300POPC   C4B55930   5.122  18.513   7.631
 4301POPC   NC355931  26.995  29.435   5.333
 4301POPC   PO455932  26.624  28.852   5.434
 4301POPC   GL155933  26.901  29.077   5.684
 4301POPC   GL255934  26.708  29.344   5.759
 4301POPC   C1A55935  27.086  29.138   6.094
 4301POPC   D2A55936  26.887  29.051   6.494
 4301POPC   C3A55937  27.007  29.199   6.841
 4301POPC   C4A55938  27.119  28.979   7.216
 4301POPC   C1B55939  26.575  29.054   6.104
 4301POPC   C2B55940  26.346  29.097   6.493
 4301POPC   C3B55941  26.511  29.072   6.905
 4301POPC   C4B55942  26.607  28.972   7.330
 4302POPC   NC355943  14.570   5.204   5.419
 4302POPC   PO455944  14.347   5.918   5.408
 4302POPC   GL155945  14.267   5.703   5.778
 4302POPC   GL255946  14.631   5.616   5.789
 4302POPC   C1A55947  14.072   5.783   6.218
 4302POPC   D2A55948  14.072   5.568   6.630
 4302POPC   C3A55949  14.280   5.673   7.017
 4302POPC   C4A55950  14.050   5.428   7.302
 4302POPC   C1B55951  14.549   5.946   6.113
 4302POPC   C2B55952  14.505   5.882   6.556
 4302POPC   C3B55953  14.559   6.096   6.937
 4302POPC   C4B55954  14.296   6.214   7.276
 4303POPC   NC355955  19.199   9.889   5.434
 4303POPC   PO455956  18.953   9.273   5.349
 4303POPC   GL155957  18.979   9.507   5.745
 4303POPC   GL255958  18.725   9.781   5.735
 4303POPC   C1A55959  19.075   9.755   6.144
 4303POPC   D2A55960  19.317   9.938   6.524
 4303POPC   C3A55961  19.152   9.797   6.934
 4303POPC   C4A55962  19.314   9.970   7.328
 4303POPC   C1B55963  18.620   9.494   6.098
 4303POPC   C2B55964  18.842   9.481   6.517
 4303POPC   C3B55965  18.866   9.351   6.917
 4303POPC   C4B55966  18.692   9.361   7.314
 4304POPC   NC355967  12.242  39.575   5.358
 4304POPC   PO455968  11.922  40.186   5.427
 4304POPC   GL155969  12.064  39.923   5.796
 4304POPC   GL255970  11.781  39.839   6.003
 4304POPC   C1A55971  12.248  39.763   6.212
 4304POPC   D2A55972  12.033  39.718   6.608
 4304POPC   C3A55973  12.140  39.843   7.044
 4304POPC   C4A55974  11.866  39.934   7.411
 4304POPC   C1B55975  11.934  40.152   6.325
 4304POPC   C2B55976  11.909  40.189   6.773
 4304POPC   C3B55977  12.122  40.342   7.194
 4304POPC   C4B55978  12.169  40.320   7.688
 4305POPC   NC355979   0.011  37.152   5.390
 4305POPC   PO455980  44.352  37.011   5.374
 4305POPC   GL155981  44.336  36.869   5.818
 4305POPC   GL255982  44.363  36.524   5.785
 4305POPC   C1A55983  44.465  36.912   6.286
 4305POPC   D2A55984  44.831  36.818   6.582
 4305POPC   C3A55985  44.815  37.081   6.950
 4305POPC   C4A55986  44.535  37.114   7.264
 4305POPC   C1B55987  44.503  36.401   6.202
 4305POPC   C2B55988  44.457  36.459   6.651
 4305POPC   C3B55989  44.576  36.602   7.101
 4305POPC   C4B55990  44.500  36.713   7.590
 4306POPC   NC355991   5.426  12.038   5.497
 4306POPC   PO455992   4.924  12.411   5.385
 4306POPC   GL155993   4.983  12.259   5.793
 4306POPC   GL255994   4.913  11.920   5.746
 4306POPC   C1A55995   5.147  12.099   6.200
 4306POPC   D2A55996   5.124  11.733   6.503
 4306POPC   C3A55997   5.298  11.828   6.917
 4306POPC   C4A55998   5.386  12.225   7.069
 4306POPC   C1B55999   4.731  11.795   6.173
 4306POPC   C2B56000   4.633  11.619   6.626
 4306POPC   C3B56001   4.624  11.772   7.050
 4306POPC   C4B56002   4.909  12.055   7.169
 4307POPC   NC356003   5.959   8.004   5.470
 4307POPC   PO456004   5.639   8.602   5.386
 4307POPC   GL156005   5.603   8.306   5.723
 4307POPC   GL256006   5.608   7.947   5.830
 4307POPC   C1A56007   5.854   8.342   6.088
 4307POPC   D2A56008   6.097   8.444   6.427
 4307POPC   C3A56009   5.920   8.415   6.822
 4307POPC   C4A56010   6.199   8.477   7.104
 4307POPC   C1B56011   5.906   7.831   6.145
 4307POPC   C2B56012   5.766   8.004   6.529
 4307POPC   C3B56013   5.915   7.922   6.932
 4307POPC   C4B56014   6.030   8.043   7.336
 4308POPC   NC356015   3.353  17.643   5.499
 4308POPC   PO456016   3.965  17.335   5.532
 4308POPC   GL156017   3.848  17.561   5.906
 4308POPC   GL256018   3.483  17.598   5.986
 4308POPC   C1A56019   3.786  17.495   6.372
 4308POPC   D2A56020   3.442  17.545   6.630
 4308POPC   C3A56021   3.626  17.540   7.033
 4308POPC   C4A56022   3.656  17.822   7.398
 4308POPC   C1B56023   3.187  17.261   6.143
 4308POPC   C2B56024   2.974  17.201   6.531
 4308POPC   C3B56025   3.192  17.177   6.907
 4308POPC   C4B56026   3.385  17.143   7.290
 4309POPC   NC356027  33.223  31.747   5.444
 4309POPC   PO456028  32.770  31.263   5.454
 4309POPC   GL156029  32.697  31.359   5.871
 4309POPC   GL256030  32.769  31.689   5.859
 4309POPC   C1A56031  32.784  31.275   6.318
 4309POPC   D2A56032  32.949  31.347   6.764
 4309POPC   C3A56033  33.249  31.459   7.100
 4309POPC   C4A56034  33.325  31.861   7.246
 4309POPC   C1B56035  32.516  31.729   6.241
 4309POPC   C2B56036  32.658  31.849   6.659
 4309POPC   C3B56037  32.815  31.766   7.065
 4309POPC   C4B56038  32.901  31.617   7.480
 4310POPC   NC356039  21.178  44.835   5.407
 4310POPC   PO456040  21.684  44.474   5.389
 4310POPC   GL156041  21.495  44.596   5.780
 4310POPC   GL256042  21.348  44.919   5.887
 4310POPC   C1A56043  21.480  44.592   6.234
 4310POPC   D2A56044  21.349  44.813   6.568
 4310POPC   C3A56045  21.328  44.561   6.892
 4310POPC   C4A56046  21.576  44.502   7.218
 4310POPC   C1B56047  20.997  44.877   6.184
 4310POPC   C2B56048  20.905   0.093   6.586
 4310POPC   C3B56049  21.117   0.028   7.000
 4310POPC   C4B56050  21.163  44.744   7.387
 4311POPC   NC356051  27.183  38.278   5.565
 4311POPC   PO456052  27.014  38.886   5.497
 4311POPC   GL156053  26.809  38.693   5.846
 4311POPC   GL256054  26.530  38.455   5.738
 4311POPC   C1A56055  26.868  38.734   6.308
 4311POPC   D2A56056  27.191  38.782   6.642
 4311POPC   C3A56057  27.111  38.647   7.077
 4311POPC   C4A56058  27.024  38.647   7.539
 4311POPC   C1B56059  26.675  38.284   6.123
 4311POPC   C2B56060  26.574  38.339   6.526
 4311POPC   C3B56061  26.615  38.146   6.929
 4311POPC   C4B56062  26.808  38.274   7.286
 4312POPC   NC356063   6.974  31.268   5.275
 4312POPC   PO456064   7.667  31.471   5.392
 4312POPC   GL156065   7.563  31.515   5.818
 4312POPC   GL256066   7.193  31.509   5.893
 4312POPC   C1A56067   7.706  31.702   6.190
 4312POPC   D2A56068   7.707  31.509   6.594
 4312POPC   C3A56069   7.527  31.740   6.931
 4312POPC   C4A56070   7.503  31.562   7.321
 4312POPC   C1B56071   7.097  31.414   6.357
 4312POPC   C2B56072   6.968  31.669   6.741
 4312POPC   C3B56073   6.864  31.670   7.191
 4312POPC   C4B56074   7.073  31.606   7.592
 4313POPC   NC356075  23.049   3.738   5.458
 4313POPC   PO456076  22.469   4.001   5.543
 4313POPC   GL156077  22.684   3.620   5.827
 4313POPC   GL256078  23.083   3.506   5.919
 4313POPC   C1A56079  22.752   3.612   6.284
 4313POPC   D2A56080  22.557   3.890   6.569
 4313POPC   C3A56081  22.675   3.731   6.938
 4313POPC   C4A56082  23.059   3.653   7.119
 4313POPC   C1B56083  23.275   3.449   6.367
 4313POPC   C2B56084  23.338   3.303   6.803
 4313POPC   C3B56085  23.219   3.154   7.240
 4313POPC   C4B56086  23.444   3.254   7.643
 4314POPC   NC356087  24.923  10.001   5.396
 4314POPC   PO456088  25.335   9.424   5.193
 4314POPC   GL156089  25.230   9.628   5.687
 4314POPC   GL256090  25.202  10.005   5.813
 4314POPC   C1A56091  25.056   9.671   6.153
 4314POPC   D2A56092  25.260   9.818   6.539
 4314POPC   C3A56093  25.088   9.662   6.937
 4314POPC   C4A56094  25.411   9.613   7.251
 4314POPC   C1B56095  24.898  10.180   6.154
 4314POPC   C2B56096  24.980  10.214   6.634
 4314POPC   C3B56097  25.282  10.122   6.998
 4314POPC   C4B56098  25.280  10.064   7.461
 4315POPC   NC356099   9.868  42.564   5.220
 4315POPC   PO456100   9.904  41.956   5.413
 4315POPC   GL156101   9.964  42.338   5.689
 4315POPC   GL256102  10.196  42.158   5.834
 4315POPC   C1A56103   9.785  42.597   6.067
 4315POPC   D2A56104   9.583  42.736   6.529
 4315POPC   C3A56105   9.727  42.541   6.940
 4315POPC   C4A56106   9.515  42.226   7.156
 4315POPC   C1B56107  10.019  42.139   6.211
 4315POPC   C2B56108   9.836  42.197   6.585
 4315POPC   C3B56109   9.873  41.965   6.934
 4315POPC   C4B56110  10.004  42.118   7.332
 4316POPC   NC356111   3.633   7.740   5.500
 4316POPC   PO456112   3.162   7.217   5.405
 4316POPC   GL156113   3.277   7.399   5.830
 4316POPC   GL256114   3.498   7.672   5.996
 4316POPC   C1A56115   3.269   7.291   6.283
 4316POPC   D2A56116   3.524   7.349   6.634
 4316POPC   C3A56117   3.479   7.120   7.000
 4316POPC   C4A56118   3.263   7.242   7.359
 4316POPC   C1B56119   3.822   7.363   6.191
 4316POPC   C2B56120   3.997   7.200   6.611
 4316POPC   C3B56121   3.896   7.416   7.014
 4316POPC   C4B56122   3.653   7.581   7.402
 4317POPC   NC356123  28.277   9.376   5.239
 4317POPC   PO456124  28.836   9.700   5.269
 4317POPC   GL156125  28.561   9.805   5.699
 4317POPC   GL256126  28.188   9.773   5.820
 4317POPC   C1A56127  28.485   9.877   6.183
 4317POPC   D2A56128  28.586   9.991   6.607
 4317POPC   C3A56129  28.315   9.973   6.954
 4317POPC   C4A56130  28.486   9.864   7.331
 4317POPC   C1B56131  28.037   9.499   6.169
 4317POPC   C2B56132  28.054   9.372   6.573
 4317POPC   C3B56133  28.097   9.229   6.960
 4317POPC   C4B56134  28.162   9.463   7.282
 4318POPC   NC356135  13.380  28.740   5.431
 4318POPC   PO456136  13.967  28.276   5.490
 4318POPC   GL156137  13.752  28.295   5.891
 4318POPC   GL256138  13.394  28.417   5.850
 4318POPC   C1A56139  13.940  28.418   6.295
 4318POPC   D2A56140  13.963  28.504   6.760
 4318POPC   C3A56141  13.762  28.218   7.056
 4318POPC   C4A56142  13.498  28.092   7.428
 4318POPC   C1B56143  13.430  28.473   6.300
 4318POPC   C2B56144  13.437  28.556   6.740
 4318POPC   C3B56145  13.633  28.783   7.086
 4318POPC   C4B56146  13.698  28.572   7.437
 4319POPC   NC356147  35.091  19.803   5.466
 4319POPC   PO456148  35.787  19.845   5.484
 4319POPC   GL156149  35.512  19.819   5.863
 4319POPC   GL256150  35.154  19.989   5.930
 4319POPC   C1A56151  35.505  20.022   6.287
 4319POPC   D2A56152  35.234  20.126   6.620
 4319POPC   C3A56153  35.500  20.022   6.928
 4319POPC   C4A56154  35.560  19.593   7.092
 4319POPC   C1B56155  35.157  19.630   6.201
 4319POPC   C2B56156  35.254  19.546   6.626
 4319POPC   C3B56157  35.089  19.715   6.993
 4319POPC   C4B56158  35.068  19.463   7.352
 4320POPC   NC356159   8.017  20.441   5.392
 4320POPC   PO456160   7.965  21.023   5.713
 4320POPC   GL156161   8.186  20.691   5.839
 4320POPC   GL256162   8.002  20.376   5.898
 4320POPC   C1A56163   8.169  20.696   6.289
 4320POPC   D2A56164   8.370  20.615   6.670
 4320POPC   C3A56165   8.130  20.677   7.042
 4320POPC   C4A56166   8.259  20.556   7.449
 4320POPC   C1B56167   7.730  20.371   6.281
 4320POPC   C2B56168   7.802  20.434   6.736
 4320POPC   C3B56169   7.822  20.248   7.189
 4320POPC   C4B56170   7.991  20.137   7.607
 4321POPC   NC356171  12.104   6.986   5.495
 4321POPC   PO456172  12.483   7.478   5.437
 4321POPC   GL156173  12.290   7.379   5.833
 4321POPC   GL256174  12.433   7.078   5.911
 4321POPC   C1A56175  12.099   7.456   6.256
 4321POPC   D2A56176  11.913   7.239   6.625
 4321POPC   C3A56177  11.955   7.489   7.010
 4321POPC   C4A56178  11.661   7.581   7.351
 4321POPC   C1B56179  12.315   6.994   6.361
 4321POPC   C2B56180  12.304   6.992   6.835
 4321POPC   C3B56181  12.328   7.186   7.236
 4321POPC   C4B56182  12.189   7.282   7.656
 4322POPC   NC356183  36.805  10.011   5.298
 4322POPC   PO456184  37.152   9.415   5.237
 4322POPC   GL156185  36.994   9.599   5.653
 4322POPC   GL256186  36.872   9.958   5.781
 4322POPC   C1A56187  37.052   9.629   6.106
 4322POPC   D2A56188  37.162   9.590   6.532
 4322POPC   C3A56189  37.019   9.780   6.906
 4322POPC   C4A56190  37.165   9.584   7.268
 4322POPC   C1B56191  37.141  10.154   6.089
 4322POPC   C2B56192  37.238  10.121   6.536
 4322POPC   C3B56193  37.284  10.247   6.960
 4322POPC   C4B56194  37.062  10.064   7.370
 4323POPC   NC356195   3.327  26.310   5.412
 4323POPC   PO456196   3.511  25.607   5.365
 4323POPC   GL156197   3.419  25.780   5.778
 4323POPC   GL256198   3.650  26.047   5.827
 4323POPC   C1A56199   3.586  25.729   6.223
 4323POPC   D2A56200   3.861  25.862   6.582
 4323POPC   C3A56201   3.579  25.808   6.943
 4323POPC   C4A56202   3.545  25.884   7.366
 4323POPC   C1B56203   3.692  26.235   6.245
 4323POPC   C2B56204   3.546  26.261   6.715
 4323POPC   C3B56205   3.609  26.344   7.171
 4323POPC   C4B56206   3.736  26.293   7.629
 4324POPC   NC356207  44.148  36.585   5.333
 4324POPC   PO456208  43.618  37.089   5.371
 4324POPC   GL156209  43.839  36.965   5.768
 4324POPC   GL256210  43.828  36.604   5.748
 4324POPC   C1A56211  43.992  37.101   6.208
 4324POPC   D2A56212  44.135  37.190   6.645
 4324POPC   C3A56213  43.772  37.088   6.910
 4324POPC   C4A56214  43.582  37.262   7.267
 4324POPC   C1B56215  44.032  36.604   6.155
 4324POPC   C2B56216  43.914  36.729   6.550
 4324POPC   C3B56217  44.091  36.692   6.935
 4324POPC   C4B56218  44.081  36.827   7.309
 4325POPC   NC356219   9.136  26.466   5.018
 4325POPC   PO456220   8.791  27.010   5.230
 4325POPC   GL156221   8.881  26.666   5.556
 4325POPC   GL256222   9.183  26.441   5.598
 4325POPC   C1A56223   8.891  26.629   6.018
 4325POPC   D2A56224   8.804  26.908   6.376
 4325POPC   C3A56225   8.917  26.835   6.811
 4325POPC   C4A56226   8.834  26.951   7.238
 4325POPC   C1B56227   9.234  26.271   6.050
 4325POPC   C2B56228   9.114  26.460   6.452
 4325POPC   C3B56229   9.190  26.373   6.867
 4325POPC   C4B56230   9.153  26.569   7.224
 4326POPC   NC356231  35.158  15.739   5.556
 4326POPC   PO456232  35.478  15.108   5.439
 4326POPC   GL156233  35.420  15.128   5.881
 4326POPC   GL256234  35.779  15.097   5.928
 4326POPC   C1A56235  35.133  15.091   6.242
 4326POPC   D2A56236  34.956  15.189   6.637
 4326POPC   C3A56237  35.093  15.002   7.043
 4326POPC   C4A56238  35.330  15.087   7.452
 4326POPC   C1B56239  35.632  15.036   6.337
 4326POPC   C2B56240  35.469  15.195   6.705
 4326POPC   C3B56241  35.636  15.006   7.051
 4326POPC   C4B56242  35.838  15.115   7.420
 4327POPC   NC356243  14.635  22.857   5.048
 4327POPC   PO456244  14.299  22.946   5.543
 4327POPC   GL156245  14.254  22.846   5.892
 4327POPC   GL256246  14.439  22.578   5.971
 4327POPC   C1A56247  14.272  23.072   6.255
 4327POPC   D2A56248  14.621  23.099   6.514
 4327POPC   C3A56249  14.485  23.187   6.890
 4327POPC   C4A56250  14.588  23.113   7.273
 4327POPC   C1B56251  14.117  22.590   6.301
 4327POPC   C2B56252  14.181  22.768   6.707
 4327POPC   C3B56253  14.526  22.693   6.994
 4327POPC   C4B56254  14.481  22.526   7.380
 4328POPC   NC356255  43.392  19.581   5.334
 4328POPC   PO456256  42.797  20.023   5.181
 4328POPC   GL156257  42.933  19.858   5.618
 4328POPC   GL256258  43.259  20.026   5.725
 4328POPC   C1A56259  42.920  19.742   6.096
 4328POPC   D2A56260  43.071  19.583   6.515
 4328POPC   C3A56261  42.986  19.774   6.912
 4328POPC   C4A56262  43.046  19.933   7.317
 4328POPC   C1B56263  43.166  20.217   6.155
 4328POPC   C2B56264  43.049  20.157   6.588
 4328POPC   C3B56265  43.291  20.200   6.968
 4328POPC   C4B56266  43.495  20.170   7.359
 4329POPC   NC356267   4.853  31.093   5.254
 4329POPC   PO456268   5.442  30.804   5.491
 4329POPC   GL156269   5.077  30.663   5.745
 4329POPC   GL256270   4.992  30.992   5.874
 4329POPC   C1A56271   4.929  30.487   6.171
 4329POPC   D2A56272   5.055  30.339   6.612
 4329POPC   C3A56273   5.232  30.472   7.023
 4329POPC   C4A56274   4.988  30.367   7.379
 4329POPC   C1B56275   5.307  30.818   6.211
 4329POPC   C2B56276   5.329  30.803   6.651
 4329POPC   C3B56277   5.110  30.967   7.022
 4329POPC   C4B56278   5.186  30.833   7.421
 4330POPC   NC356279  15.051  29.888   5.489
 4330POPC   PO456280  14.446  29.745   5.234
 4330POPC   GL156281  14.509  29.902   5.655
 4330POPC   GL256282  14.725  29.629   5.785
 4330POPC   C1A56283  14.368  30.154   6.050
 4330POPC   D2A56284  14.248  30.058   6.497
 4330POPC   C3A56285  14.413  30.165   6.929
 4330POPC   C4A56286  14.706  29.991   7.200
 4330POPC   C1B56287  14.350  29.615   6.075
 4330POPC   C2B56288  14.378  29.563   6.535
 4330POPC   C3B56289  14.409  29.647   6.968
 4330POPC   C4B56290  14.574  29.550   7.414
 4331POPC   NC356291  29.175  34.222   5.498
 4331POPC   PO456292  28.845  33.651   5.293
 4331POPC   GL156293  29.157  33.651   5.664
 4331POPC   GL256294  29.304  33.933   5.874
 4331POPC   C1A56295  29.125  33.536   6.136
 4331POPC   D2A56296  28.939  33.734   6.513
 4331POPC   C3A56297  28.905  33.477   6.877
 4331POPC   C4A56298  28.921  33.727   7.243
 4331POPC   C1B56299  29.603  33.949   6.210
 4331POPC   C2B56300  29.487  33.682   6.548
 4331POPC   C3B56301  29.353  33.727   6.960
 4331POPC   C4B56302  29.677  33.976   7.144
 4332POPC   NC356303  39.742  43.434   5.075
 4332POPC   PO456304  39.985  42.946   5.398
 4332POPC   GL156305  40.046  42.923   5.852
 4332POPC   GL256306  39.865  42.666   6.040
 4332POPC   C1A56307  39.906  43.140   6.223
 4332POPC   D2A56308  39.578  43.086   6.524
 4332POPC   C3A56309  39.669  43.341   6.845
 4332POPC   C4A56310  39.960  43.284   7.156
 4332POPC   C1B56311  40.129  42.710   6.392
 4332POPC   C2B56312  39.953  42.836   6.791
 4332POPC   C3B56313  39.983  42.797   7.229
 4332POPC   C4B56314  40.056  42.979   7.584
 4333POPC   NC356315  15.389  22.222   5.259
 4333POPC   PO456316  14.876  22.566   5.331
 4333POPC   GL156317  15.066  22.359   5.695
 4333POPC   GL256318  15.173  22.001   5.699
 4333POPC   C1A56319  15.106  22.288   6.144
 4333POPC   D2A56320  14.984  22.133   6.579
 4333POPC   C3A56321  15.026  22.379   6.964
 4333POPC   C4A56322  15.204  22.271   7.384
 4333POPC   C1B56323  15.336  21.818   6.109
 4333POPC   C2B56324  15.340  21.769   6.564
 4333POPC   C3B56325  15.383  21.986   6.964
 4333POPC   C4B56326  15.355  21.782   7.352
 4334POPC   NC356327  23.416   6.871   5.621
 4334POPC   PO456328  23.978   6.542   5.617
 4334POPC   GL156329  23.811   6.798   5.926
 4334POPC   GL256330  23.616   6.520   6.036
 4334POPC   C1A56331  23.614   6.938   6.322
 4334POPC   D2A56332  23.725   6.780   6.709
 4334POPC   C3A56333  23.445   6.714   7.042
 4334POPC   C4A56334  23.650   6.827   7.413
 4334POPC   C1B56335  24.013   6.551   6.313
 4334POPC   C2B56336  24.178   6.531   6.734
 4334POPC   C3B56337  23.931   6.475   7.123
 4334POPC   C4B56338  23.935   6.091   7.446
 4335POPC   NC356339  35.700  44.210   5.276
 4335POPC   PO456340  35.166  44.693   5.399
 4335POPC   GL156341  35.107  44.822   5.874
 4335POPC   GL256342  34.767   0.003   6.003
 4335POPC   C1A56343  35.343  44.573   6.228
 4335POPC   D2A56344  35.535  44.311   6.592
 4335POPC   C3A56345  35.390  44.470   7.026
 4335POPC   C4A56346  35.416  44.501   7.498
 4335POPC   C1B56347  35.046  44.976   6.367
 4335POPC   C2B56348  35.378  44.844   6.661
 4335POPC   C3B56349  35.523  44.958   7.065
 4335POPC   C4B56350  35.189  44.945   7.343
 4336POPC   NC356351  29.278  19.261   5.201
 4336POPC   PO456352  29.685  19.108   5.691
 4336POPC   GL156353  29.260  19.221   5.780
 4336POPC   GL256354  29.122  19.509   5.645
 4336POPC   C1A56355  29.185  19.252   6.227
 4336POPC   D2A56356  29.056  19.044   6.587
 4336POPC   C3A56357  29.392  18.956   6.845
 4336POPC   C4A56358  29.251  19.165   7.182
 4336POPC   C1B56359  28.871  19.599   6.051
 4336POPC   C2B56360  28.856  19.533   6.551
 4336POPC   C3B56361  28.796  19.308   6.974
 4336POPC   C4B56362  28.859  19.428   7.446
 4337POPC   NC356363  29.720  37.279   5.449
 4337POPC   PO456364  29.741  36.610   5.331
 4337POPC   GL156365  29.783  36.857   5.718
 4337POPC   GL256366  30.018  36.803   5.904
 4337POPC   C1A56367  29.667  37.158   6.079
 4337POPC   D2A56368  29.658  37.384   6.481
 4337POPC   C3A56369  29.669  37.169   6.891
 4337POPC   C4A56370  29.762  37.046   7.323
 4337POPC   C1B56371  30.104  36.990   6.272
 4337POPC   C2B56372  29.921  36.832   6.616
 4337POPC   C3B56373  30.073  36.797   7.015
 4337POPC   C4B56374  30.291  36.854   7.399
 4338POPC   NC356375  44.521  18.089   5.344
 4338POPC   PO456376  44.643  18.726   5.370
 4338POPC   GL156377  44.517  18.430   5.718
 4338POPC   GL256378  44.812  18.181   5.748
 4338POPC   C1A56379  44.390  18.282   6.127
 4338POPC   D2A56380  44.494  18.481   6.517
 4338POPC   C3A56381  44.425  18.234   6.860
 4338POPC   C4A56382  44.567  18.314   7.244
 4338POPC   C1B56383  44.900  18.289   6.172
 4338POPC   C2B56384  44.871  18.117   6.597
 4338POPC   C3B56385  44.996  18.193   7.017
 4338POPC   C4B56386  44.985  18.533   7.404
 4339POPC   NC356387  27.412   0.294   5.412
 4339POPC   PO456388  27.217   0.961   5.610
 4339POPC   GL156389  27.380   0.568   5.842
 4339POPC   GL256390  27.275   0.180   5.871
 4339POPC   C1A56391  27.670   0.471   6.172
 4339POPC   D2A56392  27.830   0.654   6.529
 4339POPC   C3A56393  27.794   0.428   6.873
 4339POPC   C4A56394  27.642   0.519   7.233
 4339POPC   C1B56395  27.501  44.991   6.169
 4339POPC   C2B56396  27.493   0.149   6.560
 4339POPC   C3B56397  27.454   0.029   6.961
 4339POPC   C4B56398  27.398   0.077   7.379
 4340POPC   NC356399   7.686  10.381   5.502
 4340POPC   PO456400   7.239  10.874   5.602
 4340POPC   GL156401   7.450  10.646   5.913
 4340POPC   GL256402   7.802  10.560   5.954
 4340POPC   C1A56403   7.474  10.606   6.337
 4340POPC   D2A56404   7.260  10.386   6.612
 4340POPC   C3A56405   7.338  10.643   6.955
 4340POPC   C4A56406   7.245  10.794   7.356
 4340POPC   C1B56407   7.633  10.157   6.129
 4340POPC   C2B56408   7.727  10.003   6.533
 4340POPC   C3B56409   7.646  10.213   6.897
 4340POPC   C4B56410   7.744  10.468   7.223
 4341POPC   NC356411  33.669  10.739   5.387
 4341POPC   PO456412  33.840  10.094   5.253
 4341POPC   GL156413  33.651  10.250   5.646
 4341POPC   GL256414  33.961  10.373   5.749
 4341POPC   C1A56415  33.653  10.241   6.134
 4341POPC   D2A56416  33.839  10.061   6.508
 4341POPC   C3A56417  33.820  10.277   6.901
 4341POPC   C4A56418  33.589  10.246   7.260
 4341POPC   C1B56419  33.827  10.708   6.052
 4341POPC   C2B56420  33.795  10.640   6.485
 4341POPC   C3B56421  33.977  10.796   6.854
 4341POPC   C4B56422  33.752  10.742   7.257
 4342POPC   NC356423   8.216   2.343   5.428
 4342POPC   PO456424   8.202   1.716   5.248
 4342POPC   GL156425   8.292   1.913   5.679
 4342POPC   GL256426   8.598   2.113   5.740
 4342POPC   C1A56427   8.244   1.923   6.144
 4342POPC   D2A56428   8.389   1.815   6.566
 4342POPC   C3A56429   8.036   1.800   6.871
 4342POPC   C4A56430   8.031   1.882   7.315
 4342POPC   C1B56431   8.522   2.359   6.150
 4342POPC   C2B56432   8.310   2.325   6.576
 4342POPC   C3B56433   8.224   2.281   7.030
 4342POPC   C4B56434   8.003   2.412   7.397
 4343POPC   NC356435  25.203   6.943   5.292
 4343POPC   PO456436  25.551   6.467   5.539
 4343POPC   GL156437  25.303   6.754   5.801
 4343POPC   GL256438  25.332   6.466   6.041
 4343POPC   C1A56439  25.070   6.840   6.227
 4343POPC   D2A56440  25.005   6.455   6.470
 4343POPC   C3A56441  25.159   6.430   6.874
 4343POPC   C4A56442  25.140   6.549   7.279
 4343POPC   C1B56443  25.589   6.810   6.215
 4343POPC   C2B56444  25.524   6.954   6.631
 4343POPC   C3B56445  25.517   6.768   7.021
 4343POPC   C4B56446  25.674   6.717   7.436
 4344POPC   NC356447  40.446  31.561   5.326
 4344POPC   PO456448  41.161  31.798   5.443
 4344POPC   GL156449  40.985  31.669   5.793
 4344POPC   GL256450  40.776  31.445   5.737
 4344POPC   C1A56451  41.123  31.391   6.141
 4344POPC   D2A56452  41.312  31.520   6.529
 4344POPC   C3A56453  41.083  31.459   6.913
 4344POPC   C4A56454  40.947  31.604   7.322
 4344POPC   C1B56455  40.618  31.483   6.131
 4344POPC   C2B56456  40.484  31.473   6.558
 4344POPC   C3B56457  40.595  31.688   6.929
 4344POPC   C4B56458  40.436  31.791   7.321
 4345POPC   NC356459  25.659  11.168   5.532
 4345POPC   PO456460  24.967  11.277   5.548
 4345POPC   GL156461  25.272  11.243   5.888
 4345POPC   GL256462  25.453  10.940   5.942
 4345POPC   C1A56463  25.280  11.229   6.343
 4345POPC   D2A56464  25.268  11.030   6.755
 4345POPC   C3A56465  25.280  11.362   7.095
 4345POPC   C4A56466  25.224  11.391   7.551
 4345POPC   C1B56467  25.747  11.045   6.283
 4345POPC   C2B56468  25.780  10.908   6.717
 4345POPC   C3B56469  25.687  11.033   7.123
 4345POPC   C4B56470  25.606  11.038   7.593
 4346POPC   NC356471  44.524   5.195   5.451
 4346POPC   PO456472  44.889   4.641   5.659
 4346POPC   GL156473  44.632   4.883   5.873
 4346POPC   GL256474  44.260   4.905   5.769
 4346POPC   C1A56475  44.784   4.981   6.286
 4346POPC   D2A56476  44.754   5.319   6.548
 4346POPC   C3A56477  44.609   5.283   6.950
 4346POPC   C4A56478  44.883   5.071   7.211
 4346POPC   C1B56479  44.327   5.169   6.164
 4346POPC   C2B56480  44.197   5.180   6.606
 4346POPC   C3B56481  44.239   4.918   6.972
 4346POPC   C4B56482  44.434   4.880   7.368
 4347POPC   NC356483  13.604  18.482   5.444
 4347POPC   PO456484  13.864  17.875   5.256
 4347POPC   GL156485  13.776  18.064   5.733
 4347POPC   GL256486  13.437  18.235   5.850
 4347POPC   C1A56487  13.829  18.418   6.100
 4347POPC   D2A56488  13.854  18.723   6.474
 4347POPC   C3A56489  13.591  18.628   6.865
 4347POPC   C4A56490  13.591  18.469   7.301
 4347POPC   C1B56491  13.454  18.030   6.248
 4347POPC   C2B56492  13.380  18.125   6.708
 4347POPC   C3B56493  13.429  18.010   7.149
 4347POPC   C4B56494  13.766  18.005   7.467
 4348POPC   NC356495  18.324  27.038   5.385
 4348POPC   PO456496  18.397  26.394   5.190
 4348POPC   GL156497  18.318  26.550   5.649
 4348POPC   GL256498  18.058  26.778   5.760
 4348POPC   C1A56499  18.463  26.784   6.066
 4348POPC   D2A56500  18.510  26.996   6.468
 4348POPC   C3A56501  18.401  26.834   6.877
 4348POPC   C4A56502  18.576  26.890   7.281
 4348POPC   C1B56503  17.958  27.002   6.162
 4348POPC   C2B56504  18.008  27.081   6.592
 4348POPC   C3B56505  17.874  27.128   7.004
 4348POPC   C4B56506  18.092  26.975   7.325
 4349POPC   NC356507  44.941   9.912   5.674
 4349POPC   PO456508  44.487   9.770   5.131
 4349POPC   GL156509  44.458   9.752   5.604
 4349POPC   GL256510  44.673   9.483   5.758
 4349POPC   C1A56511  44.411   9.797   6.102
 4349POPC   D2A56512  44.135   9.674   6.483
 4349POPC   C3A56513  44.310   9.746   6.906
 4349POPC   C4A56514  44.414   9.563   7.286
 4349POPC   C1B56515  44.698   9.294   6.182
 4349POPC   C2B56516  44.624   9.401   6.638
 4349POPC   C3B56517  44.826   9.513   7.024
 4349POPC   C4B56518  44.797   9.903   7.229
 4350POPC   NC356519   1.687  42.276   5.252
 4350POPC   PO456520   1.075  42.394   5.475
 4350POPC   GL156521   1.087  42.250   5.844
 4350POPC   GL256522   1.445  42.153   5.842
 4350POPC   C1A56523   1.102  42.060   6.212
 4350POPC   D2A56524   1.287  42.199   6.572
 4350POPC   C3A56525   1.025  42.415   6.871
 4350POPC   C4A56526   0.820  42.274   7.235
 4350POPC   C1B56527   1.647  42.031   6.230
 4350POPC   C2B56528   1.739  41.921   6.674
 4350POPC   C3B56529   1.501  42.121   7.012
 4350POPC   C4B56530   1.416  42.540   7.174
 4351POPC   NC356531  24.063  37.604   5.358
 4351POPC   PO456532  24.591  37.253   5.282
 4351POPC   GL156533  24.402  37.372   5.716
 4351POPC   GL256534  24.406  37.749   5.715
 4351POPC   C1A56535  24.450  37.558   6.188
 4351POPC   D2A56536  24.305  37.562   6.649
 4351POPC   C3A56537  24.612  37.628   6.994
 4351POPC   C4A56538  24.695  37.513   7.397
 4351POPC   C1B56539  24.394  38.056   6.059
 4351POPC   C2B56540  24.420  38.020   6.453
 4351POPC   C3B56541  24.387  38.074   6.859
 4351POPC   C4B56542  24.262  37.905   7.244
 4352POPC   NC356543  28.319  19.349   5.468
 4352POPC   PO456544  28.353  19.993   5.438
 4352POPC   GL156545  28.453  19.771   5.815
 4352POPC   GL256546  28.158  19.860   5.958
 4352POPC   C1A56547  28.518  19.827   6.315
 4352POPC   D2A56548  28.370  19.935   6.716
 4352POPC   C3A56549  28.672  19.990   7.030
 4352POPC   C4A56550  28.561  19.947   7.437
 4352POPC   C1B56551  28.279  19.439   6.145
 4352POPC   C2B56552  28.360  19.418   6.619
 4352POPC   C3B56553  28.373  19.567   7.090
 4352POPC   C4B56554  28.034  19.400   7.324
 4353POPC   NC356555  40.394  18.013   5.058
 4353POPC   PO456556  40.149  18.425   5.571
 4353POPC   GL156557  39.959  18.140   5.827
 4353POPC   GL256558  40.221  17.991   6.036
 4353POPC   C1A56559  39.648  18.136   6.138
 4353POPC   D2A56560  39.601  18.370   6.520
 4353POPC   C3A56561  39.809  18.254   6.932
 4353POPC   C4A56562  39.607  18.104   7.314
 4353POPC   C1B56563  40.106  18.292   6.334
 4353POPC   C2B56564  40.293  18.408   6.697
 4353POPC   C3B56565  40.293  18.412   7.121
 4353POPC   C4B56566  40.064  18.260   7.434
 4354POPC   NC356567  19.941  17.818   5.348
 4354POPC   PO456568  20.233  17.173   5.382
 4354POPC   GL156569  20.003  17.445   5.682
 4354POPC   GL256570  19.862  17.182   5.802
 4354POPC   C1A56571  19.852  17.643   6.081
 4354POPC   D2A56572  19.658  17.477   6.491
 4354POPC   C3A56573  19.806  17.483   6.908
 4354POPC   C4A56574  19.929  17.557   7.327
 4354POPC   C1B56575  19.939  17.167   6.211
 4354POPC   C2B56576  19.963  17.081   6.624
 4354POPC   C3B56577  20.122  17.103   7.047
 4354POPC   C4B56578  19.732  16.982   7.088
 4355POPC   NC356579  18.951  29.676   5.617
 4355POPC   PO456580  19.387  30.140   5.376
 4355POPC   GL156581  19.144  30.121   5.761
 4355POPC   GL256582  18.913  30.351   5.920
 4355POPC   C1A56583  19.158  29.984   6.178
 4355POPC   D2A56584  19.039  29.817   6.551
 4355POPC   C3A56585  18.981  30.025   6.941
 4355POPC   C4A56586  19.216  29.969   7.305
 4355POPC   C1B56587  18.757  30.249   6.359
 4355POPC   C2B56588  18.531  29.961   6.639
 4355POPC   C3B56589  18.683  29.599   6.841
 4355POPC   C4B56590  18.783  29.523   7.237
 4356POPC   NC356591  20.070   9.413   5.299
 4356POPC   PO456592  19.688   9.941   5.407
 4356POPC   GL156593  19.935   9.822   5.792
 4356POPC   GL256594  20.003   9.473   5.808
 4356POPC   C1A56595  19.814   9.739   6.241
 4356POPC   D2A56596  19.832   9.550   6.651
 4356POPC   C3A56597  19.658   9.775   6.980
 4356POPC   C4A56598  19.835  10.059   7.237
 4356POPC   C1B56599  19.998   9.258   6.194
 4356POPC   C2B56600  20.207   9.199   6.591
 4356POPC   C3B56601  20.036   9.197   6.968
 4356POPC   C4B56602  20.031   9.548   7.244
 4357POPC   NC356603  32.500  11.707   5.449
 4357POPC   PO456604  31.896  11.893   5.411
 4357POPC   GL156605  32.143  11.925   5.778
 4357POPC   GL256606  32.317  12.202   5.636
 4357POPC   C1A56607  32.376  11.769   6.163
 4357POPC   D2A56608  32.584  11.859   6.575
 4357POPC   C3A56609  32.280  11.969   6.868
 4357POPC   C4A56610  31.988  11.891   7.175
 4357POPC   C1B56611  32.511  12.267   6.036
 4357POPC   C2B56612  32.540  12.418   6.465
 4357POPC   C3B56613  32.634  12.342   6.875
 4357POPC   C4B56614  32.315  12.329   7.240
 4358POPC   NC356615   8.283  20.977   5.389
 4358POPC   PO456616   8.146  21.660   5.429
 4358POPC   GL156617   8.195  21.441   5.852
 4358POPC   GL256618   8.431  21.157   5.852
 4358POPC   C1A56619   7.946  21.379   6.276
 4358POPC   D2A56620   7.801  21.417   6.702
 4358POPC   C3A56621   8.149  21.511   6.951
 4358POPC   C4A56622   8.281  21.471   7.364
 4358POPC   C1B56623   8.400  21.169   6.280
 4358POPC   C2B56624   8.231  21.103   6.668
 4358POPC   C3B56625   8.432  21.083   7.063
 4358POPC   C4B56626   8.532  21.005   7.502
 4359POPC   NC356627  31.996  39.689   5.406
 4359POPC   PO456628  32.489  40.136   5.411
 4359POPC   GL156629  32.329  39.909   5.758
 4359POPC   GL256630  31.998  40.056   5.778
 4359POPC   C1A56631  32.249  39.910   6.202
 4359POPC   D2A56632  32.225  40.226   6.524
 4359POPC   C3A56633  32.232  40.003   6.908
 4359POPC   C4A56634  32.432  39.826   7.231
 4359POPC   C1B56635  32.051  40.422   6.065
 4359POPC   C2B56636  31.827  40.535   6.461
 4359POPC   C3B56637  31.873  40.372   6.880
 4359POPC   C4B56638  32.175  40.384   7.253
 4360POPC   NC356639  34.444  18.226   5.308
 4360POPC   PO456640  35.006  18.154   5.653
 4360POPC   GL156641  34.661  18.367   5.818
 4360POPC   GL256642  34.781  18.683   5.937
 4360POPC   C1A56643  34.373  18.423   6.184
 4360POPC   D2A56644  34.185  18.236   6.565
 4360POPC   C3A56645  34.391  18.358   6.955
 4360POPC   C4A56646  34.681  18.155   7.224
 4360POPC   C1B56647  34.899  18.398   6.300
 4360POPC   C2B56648  34.891  18.291   6.737
 4360POPC   C3B56649  35.134  18.299   7.083
 4360POPC   C4B56650  35.141  18.472   7.529
 4361POPC   NC356651   7.987  23.190   5.481
 4361POPC   PO456652   8.071  22.539   5.627
 4361POPC   GL156653   8.338  22.675   5.920
 4361POPC   GL256654   8.317  22.997   5.861
 4361POPC   C1A56655   8.480  22.746   6.293
 4361POPC   D2A56656   8.542  22.972   6.635
 4361POPC   C3A56657   8.312  22.916   7.024
 4361POPC   C4A56658   8.570  22.631   7.131
 4361POPC   C1B56659   8.004  22.956   6.187
 4361POPC   C2B56660   8.009  22.920   6.616
 4361POPC   C3B56661   7.844  23.103   6.985
 4361POPC   C4B56662   7.910  23.139   7.407
 4362POPC   NC356663  11.582  20.174   5.502
 4362POPC   PO456664  11.469  20.802   5.324
 4362POPC   GL156665  11.347  20.592   5.743
 4362POPC   GL256666  11.118  20.337   5.884
 4362POPC   C1A56667  11.226  20.766   6.153
 4362POPC   D2A56668  11.207  20.713   6.581
 4362POPC   C3A56669  11.198  20.391   6.896
 4362POPC   C4A56670  11.449  20.507   7.261
 4362POPC   C1B56671  11.420  20.314   6.222
 4362POPC   C2B56672  11.517  20.089   6.583
 4362POPC   C3B56673  11.691  20.184   6.947
 4362POPC   C4B56674  11.645  20.003   7.332
 4363POPC   NC356675  23.394   0.422   5.422
 4363POPC   PO456676  23.966   0.190   5.399
 4363POPC   GL156677  23.753   0.410   5.795
 4363POPC   GL256678  23.465   0.699   5.833
 4363POPC   C1A56679  23.790   0.551   6.233
 4363POPC   D2A56680  24.110   0.652   6.572
 4363POPC   C3A56681  23.975   0.568   6.983
 4363POPC   C4A56682  23.707   0.403   7.265
 4363POPC   C1B56683  23.318   0.373   6.126
 4363POPC   C2B56684  23.291   0.434   6.545
 4363POPC   C3B56685  23.327   0.306   6.950
 4363POPC   C4B56686  23.250   0.582   7.305
 4364POPC   NC356687  21.170   7.265   5.397
 4364POPC   PO456688  21.672   7.703   5.444
 4364POPC   GL156689  21.501   7.443   5.769
 4364POPC   GL256690  21.292   7.152   5.859
 4364POPC   C1A56691  21.312   7.631   6.109
 4364POPC   D2A56692  21.326   7.544   6.526
 4364POPC   C3A56693  21.421   7.812   6.850
 4364POPC   C4A56694  21.293   7.607   7.181
 4364POPC   C1B56695  21.405   7.051   6.261
 4364POPC   C2B56696  21.606   7.124   6.647
 4364POPC   C3B56697  21.422   7.104   7.025
 4364POPC   C4B56698  21.260   6.994   7.409
 4365POPC   NC356699  42.632  36.038   5.624
 4365POPC   PO456700  43.276  35.746   5.514
 4365POPC   GL156701  43.141  36.117   5.749
 4365POPC   GL256702  43.299  36.456   5.833
 4365POPC   C1A56703  43.187  36.120   6.193
 4365POPC   D2A56704  43.319  36.395   6.502
 4365POPC   C3A56705  43.188  36.212   6.870
 4365POPC   C4A56706  43.287  36.344   7.255
 4365POPC   C1B56707  42.953  36.561   6.131
 4365POPC   C2B56708  42.805  36.387   6.541
 4365POPC   C3B56709  42.768  36.518   6.965
 4365POPC   C4B56710  42.863  36.550   7.391
 4366POPC   NC356711   2.081   3.283   5.500
 4366POPC   PO456712   2.379   3.814   5.220
 4366POPC   GL156713   2.205   3.755   5.713
 4366POPC   GL256714   1.870   3.623   5.850
 4366POPC   C1A56715   2.234   3.579   6.183
 4366POPC   D2A56716   2.040   3.417   6.585
 4366POPC   C3A56717   1.846   3.611   6.935
 4366POPC   C4A56718   2.090   3.618   7.291
 4366POPC   C1B56719   1.858   3.222   6.157
 4366POPC   C2B56720   1.644   3.067   6.547
 4366POPC   C3B56721   1.513   3.224   6.961
 4366POPC   C4B56722   1.709   3.255   7.393
 4367POPC   NC356723  43.220  24.621   4.967
 4367POPC   PO456724  43.202  24.430   5.573
 4367POPC   GL156725  42.885  24.412   5.891
 4367POPC   GL256726  42.767  24.732   5.987
 4367POPC   C1A56727  42.896  24.405   6.350
 4367POPC   D2A56728  42.967  24.170   6.699
 4367POPC   C3A56729  43.331  24.318   6.904
 4367POPC   C4A56730  43.337  24.507   7.292
 4367POPC   C1B56731  43.052  24.895   6.264
 4367POPC   C2B56732  43.100  24.758   6.686
 4367POPC   C3B56733  43.325  24.943   7.007
 4367POPC   C4B56734  43.774  24.955   7.160
 4368POPC   NC356735   1.359  25.120   5.241
 4368POPC   PO456736   1.407  25.693   5.589
 4368POPC   GL156737   1.267  25.242   5.747
 4368POPC   GL256738   1.031  24.953   5.630
 4368POPC   C1A56739   1.445  24.983   6.105
 4368POPC   D2A56740   1.664  25.147   6.500
 4368POPC   C3A56741   1.375  25.192   6.864
 4368POPC   C4A56742   1.389  25.115   7.296
 4368POPC   C1B56743   0.917  24.999   6.072
 4368POPC   C2B56744   1.027  24.879   6.523
 4368POPC   C3B56745   0.872  24.953   6.944
 4368POPC   C4B56746   0.882  25.275   7.255
 4369POPC   NC356747  17.351   7.837   5.419
 4369POPC   PO456748  17.847   7.313   5.549
 4369POPC   GL156749  17.660   7.645   5.777
 4369POPC   GL256750  17.354   7.454   5.896
 4369POPC   C1A56751  17.522   7.809   6.189
 4369POPC   D2A56752  17.502   7.533   6.533
 4369POPC   C3A56753  17.416   7.630   6.936
 4369POPC   C4A56754  17.528   7.410   7.345
 4369POPC   C1B56755  17.145   7.283   6.291
 4369POPC   C2B56756  17.091   7.231   6.782
 4369POPC   C3B56757  17.029   7.385   7.238
 4369POPC   C4B56758  17.058   7.074   7.617
 4370POPC   NC356759   4.621  25.585   4.997
 4370POPC   PO456760   4.094  25.372   5.345
 4370POPC   GL156761   4.353  25.299   5.721
 4370POPC   GL256762   4.648  25.474   5.557
 4370POPC   C1A56763   4.446  25.050   6.144
 4370POPC   D2A56764   4.458  24.962   6.629
 4370POPC   C3A56765   4.190  25.238   6.897
 4370POPC   C4A56766   3.908  25.491   7.177
 4370POPC   C1B56767   4.772  25.453   6.010
 4370POPC   C2B56768   4.599  25.447   6.447
 4370POPC   C3B56769   4.718  25.376   6.853
 4370POPC   C4B56770   4.571  25.235   7.254
 4371POPC   NC356771  44.590  29.540   5.211
 4371POPC   PO456772  44.395  28.928   5.372
 4371POPC   GL156773  44.618  29.209   5.648
 4371POPC   GL256774  44.296  29.376   5.717
 4371POPC   C1A56775  44.900  29.137   6.021
 4371POPC   D2A56776   0.117  29.148   6.411
 4371POPC   C3A56777  44.902  28.921   6.720
 4371POPC   C4A56778  44.880  28.958   7.131
 4371POPC   C1B56779  44.459  29.381   6.119
 4371POPC   C2B56780  44.503  29.157   6.485
 4371POPC   C3B56781  44.407  29.078   6.900
 4371POPC   C4B56782  44.490  29.262   7.278
 4372POPC   NC356783  37.377  20.365   5.482
 4372POPC   PO456784  36.651  20.405   5.350
 4372POPC   GL156785  36.941  20.577   5.696
 4372POPC   GL256786  36.897  20.930   5.793
 4372POPC   C1A56787  37.188  20.510   6.106
 4372POPC   D2A56788  37.156  20.357   6.545
 4372POPC   C3A56789  37.189  20.567   6.953
 4372POPC   C4A56790  37.060  20.514   7.388
 4372POPC   C1B56791  36.744  20.771   6.182
 4372POPC   C2B56792  36.860  20.799   6.621
 4372POPC   C3B56793  36.708  20.723   7.060
 4372POPC   C4B56794  36.425  20.946   7.333
 4373POPC   NC356795  29.330  41.808   5.440
 4373POPC   PO456796  28.842  41.398   5.611
 4373POPC   GL156797  29.130  41.600   5.890
 4373POPC   GL256798  29.470  41.468   5.781
 4373POPC   C1A56799  29.047  41.768   6.310
 4373POPC   D2A56800  28.873  41.585   6.678
 4373POPC   C3A56801  29.069  41.581   7.079
 4373POPC   C4A56802  28.951  41.466   7.509
 4373POPC   C1B56803  29.550  41.698   6.195
 4373POPC   C2B56804  29.427  41.794   6.654
 4373POPC   C3B56805  29.533  41.851   7.101
 4373POPC   C4B56806  29.252  41.940   7.427
 4374POPC   NC356807   5.691  10.542   5.603
 4374POPC   PO456808   6.338  10.670   5.552
 4374POPC   GL156809   6.087  10.701   5.911
 4374POPC   GL256810   6.011  10.312   5.934
 4374POPC   C1A56811   5.976  10.599   6.342
 4374POPC   D2A56812   5.903  10.301   6.621
 4374POPC   C3A56813   5.878  10.515   6.972
 4374POPC   C4A56814   5.798  10.890   7.185
 4374POPC   C1B56815   5.623  10.211   6.197
 4374POPC   C2B56816   5.400  10.257   6.609
 4374POPC   C3B56817   5.598  10.074   6.990
 4374POPC   C4B56818   5.764  10.225   7.365
 4375POPC   NC356819  39.504  31.759   5.123
 4375POPC   PO456820  40.029  31.320   5.246
 4375POPC   GL156821  40.123  31.611   5.690
 4375POPC   GL256822  40.289  31.309   5.769
 4375POPC   C1A56823  40.139  31.740   6.166
 4375POPC   D2A56824  40.192  31.918   6.627
 4375POPC   C3A56825  40.052  31.657   6.998
 4375POPC   C4A56826  39.782  31.349   7.254
 4375POPC   C1B56827  40.215  31.195   6.195
 4375POPC   C2B56828  39.989  31.288   6.557
 4375POPC   C3B56829  40.077  31.097   6.933
 4375POPC   C4B56830  40.324  31.278   7.241
 4376POPC   NC356831  41.642  30.425   5.473
 4376POPC   PO456832  41.294  30.893   5.627
 4376POPC   GL156833  41.315  30.481   5.861
 4376POPC   GL256834  41.060  30.593   6.035
 4376POPC   C1A56835  41.565  30.336   6.202
 4376POPC   D2A56836  41.500  30.543   6.606
 4376POPC   C3A56837  41.512  30.389   7.015
 4376POPC   C4A56838  41.442  30.593   7.404
 4376POPC   C1B56839  41.306  30.902   6.271
 4376POPC   C2B56840  41.461  31.046   6.655
 4376POPC   C3B56841  41.630  30.922   7.034
 4376POPC   C4B56842  41.309  31.095   7.245
 4377POPC   NC356843  42.756  38.438   5.279
 4377POPC   PO456844  43.444  38.667   5.210
 4377POPC   GL156845  43.167  38.711   5.629
 4377POPC   GL256846  42.802  38.843   5.664
 4377POPC   C1A56847  42.957  38.456   5.990
 4377POPC   D2A56848  43.004  38.139   6.354
 4377POPC   C3A56849  43.147  38.341   6.762
 4377POPC   C4A56850  43.483  38.462   7.091
 4377POPC   C1B56851  42.568  38.804   6.054
 4377POPC   C2B56852  42.678  38.634   6.466
 4377POPC   C3B56853  42.752  38.646   6.916
 4377POPC   C4B56854  43.074  38.746   7.222
 4378POPC   NC356855  33.000  38.252   5.416
 4378POPC   PO456856  32.836  38.917   5.399
 4378POPC   GL156857  32.902  38.641   5.784
 4378POPC   GL256858  32.772  38.287   5.882
 4378POPC   C1A56859  33.013  38.603   6.219
 4378POPC   D2A56860  33.169  38.405   6.627
 4378POPC   C3A56861  33.260  38.690   6.955
 4378POPC   C4A56862  33.229  38.751   7.411
 4378POPC   C1B56863  33.029  38.087   6.233
 4378POPC   C2B56864  32.961  37.852   6.617
 4378POPC   C3B56865  32.863  38.096   6.940
 4378POPC   C4B56866  33.078  38.294   7.222
 4379POPC   NC356867  35.607   2.896   5.293
 4379POPC   PO456868  34.985   2.852   5.422
 4379POPC   GL156869  35.267   2.964   5.820
 4379POPC   GL256870  35.536   2.712   5.879
 4379POPC   C1A56871  35.406   2.937   6.322
 4379POPC   D2A56872  35.483   2.678   6.726
 4379POPC   C3A56873  35.332   2.782   7.152
 4379POPC   C4A56874  35.076   2.770   7.503
 4379POPC   C1B56875  35.722   2.510   6.290
 4379POPC   C2B56876  35.896   2.368   6.724
 4379POPC   C3B56877  35.679   2.392   7.129
 4379POPC   C4B56878  35.609   2.591   7.555
 4380POPC   NC356879  39.526   8.018   5.456
 4380POPC   PO456880  38.920   8.419   5.485
 4380POPC   GL156881  39.062   8.151   5.805
 4380POPC   GL256882  39.335   8.334   5.881
 4380POPC   C1A56883  39.008   8.127   6.281
 4380POPC   D2A56884  38.888   8.306   6.715
 4380POPC   C3A56885  39.198   8.189   7.065
 4380POPC   C4A56886  39.272   8.301   7.532
 4380POPC   C1B56887  39.522   8.072   6.190
 4380POPC   C2B56888  39.669   8.041   6.607
 4380POPC   C3B56889  39.647   7.909   7.021
 4380POPC   C4B56890  39.407   7.848   7.386
 4381POPC   NC356891   2.334  35.643   5.508
 4381POPC   PO456892   2.033  36.245   5.381
 4381POPC   GL156893   2.201  36.064   5.781
 4381POPC   GL256894   1.934  35.958   6.024
 4381POPC   C1A56895   2.332  36.313   6.133
 4381POPC   D2A56896   2.213  36.429   6.550
 4381POPC   C3A56897   2.133  36.077   6.798
 4381POPC   C4A56898   1.880  35.882   7.142
 4381POPC   C1B56899   1.733  35.619   6.286
 4381POPC   C2B56900   1.686  35.808   6.695
 4381POPC   C3B56901   1.693  36.283   6.878
 4381POPC   C4B56902   2.016  36.605   7.022
 4382POPC   NC356903  35.788  24.158   5.062
 4382POPC   PO456904  36.036  23.567   5.249
 4382POPC   GL156905  36.004  23.621   5.691
 4382POPC   GL256906  35.741  23.431   5.797
 4382POPC   C1A56907  36.259  23.587   6.077
 4382POPC   D2A56908  36.259  23.469   6.526
 4382POPC   C3A56909  36.177  23.769   6.889
 4382POPC   C4A56910  36.316  23.757   7.318
 4382POPC   C1B56911  35.798  23.408   6.227
 4382POPC   C2B56912  35.720  23.564   6.635
 4382POPC   C3B56913  35.711  23.560   7.067
 4382POPC   C4B56914  35.846  23.349   7.416
 4383POPC   NC356915  34.925  23.690   5.253
 4383POPC   PO456916  34.363  23.405   5.468
 4383POPC   GL156917  34.429  23.738   5.770
 4383POPC   GL256918  34.688  23.977   5.640
 4383POPC   C1A56919  34.406  23.653   6.227
 4383POPC   D2A56920  34.281  23.483   6.622
 4383POPC   C3A56921  34.486  23.672   6.976
 4383POPC   C4A56922  34.847  23.547   7.210
 4383POPC   C1B56923  34.845  23.890   6.081
 4383POPC   C2B56924  34.701  23.954   6.519
 4383POPC   C3B56925  34.904  23.946   6.889
 4383POPC   C4B56926  34.818  24.079   7.309
 4384POPC   NC356927  33.811   1.397   5.346
 4384POPC   PO456928  33.849   0.712   5.266
 4384POPC   GL156929  33.824   0.902   5.738
 4384POPC   GL256930  33.925   1.253   5.826
 4384POPC   C1A56931  33.717   0.974   6.217
 4384POPC   D2A56932  33.701   1.234   6.616
 4384POPC   C3A56933  33.737   1.059   7.025
 4384POPC   C4A56934  34.040   1.111   7.311
 4384POPC   C1B56935  33.944   1.465   6.223
 4384POPC   C2B56936  34.143   1.529   6.628
 4384POPC   C3B56937  33.942   1.524   7.026
 4384POPC   C4B56938  34.117   1.633   7.414
 4385POPC   NC356939  10.921  38.438   5.299
 4385POPC   PO456940  10.300  38.270   5.411
 4385POPC   GL156941  10.588  38.397   5.757
 4385POPC   GL256942  10.662  38.740   5.876
 4385POPC   C1A56943  10.458  38.382   6.198
 4385POPC   D2A56944  10.633  38.327   6.595
 4385POPC   C3A56945  10.384  38.492   6.891
 4385POPC   C4A56946  10.202  38.533   7.265
 4385POPC   C1B56947  10.845  38.733   6.315
 4385POPC   C2B56948  10.795  38.812   6.776
 4385POPC   C3B56949  10.706  38.782   7.222
 4385POPC   C4B56950  10.920  38.877   7.627
 4386POPC   NC356951  32.546  23.609   5.308
 4386POPC   PO456952  31.997  23.891   5.442
 4386POPC   GL156953  32.054  23.615   5.813
 4386POPC   GL256954  32.335  23.374   5.762
 4386POPC   C1A56955  32.172  23.562   6.258
 4386POPC   D2A56956  32.216  23.767   6.655
 4386POPC   C3A56957  31.961  23.594   6.941
 4386POPC   C4A56958  32.100  23.542   7.330
 4386POPC   C1B56959  32.597  23.315   6.134
 4386POPC   C2B56960  32.612  23.470   6.561
 4386POPC   C3B56961  32.487  23.412   7.005
 4386POPC   C4B56962  32.577  23.421   7.492
 4387POPC   NC356963  21.907   7.230   5.425
 4387POPC   PO456964  22.564   7.423   5.368
 4387POPC   GL156965  22.289   7.315   5.755
 4387POPC   GL256966  22.008   7.511   5.840
 4387POPC   C1A56967  22.302   7.267   6.203
 4387POPC   D2A56968  22.164   7.187   6.616
 4387POPC   C3A56969  22.458   7.278   6.908
 4387POPC   C4A56970  22.235   7.377   7.238
 4387POPC   C1B56971  21.794   7.438   6.225
 4387POPC   C2B56972  21.837   7.593   6.627
 4387POPC   C3B56973  21.779   7.470   7.029
 4387POPC   C4B56974  21.749   7.778   7.317
 4388POPC   NC356975  11.152  33.553   5.412
 4388POPC   PO456976  11.378  34.187   5.337
 4388POPC   GL156977  11.327  33.910   5.739
 4388POPC   GL256978  11.472  33.582   5.827
 4388POPC   C1A56979  11.326  33.882   6.215
 4388POPC   D2A56980  11.529  33.969   6.637
 4388POPC   C3A56981  11.334  33.775   7.028
 4388POPC   C4A56982  11.073  33.977   7.346
 4388POPC   C1B56983  11.669  33.483   6.238
 4388POPC   C2B56984  11.799  33.530   6.675
 4388POPC   C3B56985  11.704  33.426   7.124
 4388POPC   C4B56986  11.429  33.524   7.502
 4389POPC   NC356987   1.830  24.420   5.462
 4389POPC   PO456988   2.465  24.488   5.207
 4389POPC   GL156989   2.298  24.442   5.693
 4389POPC   GL256990   1.999  24.327   5.919
 4389POPC   C1A56991   2.387  24.482   6.179
 4389POPC   D2A56992   2.035  24.548   6.480
 4389POPC   C3A56993   2.027  24.524   6.928
 4389POPC   C4A56994   1.766  24.773   7.151
 4389POPC   C1B56995   1.712  24.183   6.223
 4389POPC   C2B56996   1.684  24.211   6.673
 4389POPC   C3B56997   1.586  24.265   7.108
 4389POPC   C4B56998   1.735  24.256   7.515
 4390POPC   NC356999   3.122  14.083   5.342
 4390POPC   PO457000   2.483  14.308   5.171
 4390POPC   GL157001   2.636  14.448   5.633
 4390POPC   GL257002   2.944  14.311   5.764
 4390POPC   C1A57003   2.552  14.329   6.109
 4390POPC   D2A57004   2.744  14.259   6.542
 4390POPC   C3A57005   2.571  14.082   6.936
 4390POPC   C4A57006   2.443  14.363   7.281
 4390POPC   C1B57007   3.049  14.475   6.167
 4390POPC   C2B57008   3.247  14.378   6.557
 4390POPC   C3B57009   3.024  14.419   6.956
 4390POPC   C4B57010   2.913  14.191   7.301
 4391POPC   NC357011   4.408   1.591   5.348
 4391POPC   PO457012   4.128   2.150   5.497
 4391POPC   GL157013   4.298   1.880   5.845
 4391POPC   GL257014   4.656   1.834   5.751
 4391POPC   C1A57015   4.395   2.018   6.301
 4391POPC   D2A57016   4.313   2.379   6.624
 4391POPC   C3A57017   4.249   2.190   7.034
 4391POPC   C4A57018   3.947   1.835   7.094
 4391POPC   C1B57019   4.726   1.628   6.141
 4391POPC   C2B57020   4.777   1.730   6.555
 4391POPC   C3B57021   4.391   1.760   6.766
 4391POPC   C4B57022   4.425   1.711   7.188
 4392POPC   NC357023  22.813  19.272   5.579
 4392POPC   PO457024  23.391  19.003   5.348
 4392POPC   GL157025  23.226  18.970   5.774
 4392POPC   GL257026  22.877  18.870   5.875
 4392POPC   C1A57027  23.250  19.121   6.194
 4392POPC   D2A57028  23.320  19.104   6.602
 4392POPC   C3A57029  22.922  19.160   6.856
 4392POPC   C4A57030  22.986  19.298   7.259
 4392POPC   C1B57031  22.775  19.014   6.286
 4392POPC   C2B57032  22.957  18.740   6.580
 4392POPC   C3B57033  22.855  18.591   6.962
 4392POPC   C4B57034  22.808  18.813   7.312
 4393POPC   NC357035  12.824  31.990   5.335
 4393POPC   PO457036  12.678  32.665   5.450
 4393POPC   GL157037  12.895  32.397   5.809
 4393POPC   GL257038  13.021  32.002   5.799
 4393POPC   C1A57039  13.014  32.546   6.244
 4393POPC   D2A57040  13.172  32.570   6.667
 4393POPC   C3A57041  12.875  32.402   6.995
 4393POPC   C4A57042  12.557  32.235   7.277
 4393POPC   C1B57043  13.143  32.067   6.206
 4393POPC   C2B57044  13.041  32.074   6.601
 4393POPC   C3B57045  13.226  32.049   6.980
 4393POPC   C4B57046  12.988  32.005   7.351
 4394POPC   NC357047  16.223  23.836   5.441
 4394POPC   PO457048  15.738  23.336   5.391
 4394POPC   GL157049  15.915  23.565   5.741
 4394POPC   GL257050  15.831  23.953   5.733
 4394POPC   C1A57051  16.088  23.726   6.126
 4394POPC   D2A57052  15.874  23.751   6.516
 4394POPC   C3A57053  16.102  23.687   6.876
 4394POPC   C4A57054  15.976  23.471   7.243
 4394POPC   C1B57055  15.684  24.050   6.128
 4394POPC   C2B57056  15.792  24.259   6.485
 4394POPC   C3B57057  15.784  24.233   6.898
 4394POPC   C4B57058  15.997  24.023   7.240
 4395POPC   NC357059   1.809  32.806   5.326
 4395POPC   PO457060   2.240  33.268   5.198
 4395POPC   GL157061   2.094  33.138   5.649
 4395POPC   GL257062   1.773  33.107   5.751
 4395POPC   C1A57063   2.194  33.099   6.079
 4395POPC   D2A57064   2.268  32.844   6.431
 4395POPC   C3A57065   2.052  33.018   6.786
 4395POPC   C4A57066   2.234  33.225   7.147
 4395POPC   C1B57067   1.691  32.965   6.160
 4395POPC   C2B57068   1.561  32.845   6.568
 4395POPC   C3B57069   1.618  32.714   6.988
 4395POPC   C4B57070   1.784  33.022   7.235
 4396POPC   NC357071  29.447  44.947   5.551
 4396POPC   PO457072  29.049  44.382   5.472
 4396POPC   GL157073  29.155  44.591   5.828
 4396POPC   GL257074  29.003  44.935   5.841
 4396POPC   C1A57075  28.975  44.497   6.222
 4396POPC   D2A57076  28.886  44.466   6.640
 4396POPC   C3A57077  29.203  44.532   6.934
 4396POPC   C4A57078  29.142  44.432   7.359
 4396POPC   C1B57079  29.243  44.928   6.204
 4396POPC   C2B57080  29.018  44.943   6.564
 4396POPC   C3B57081  29.187   0.040   6.909
 4396POPC   C4B57082  29.136  44.947   7.316
 4397POPC   NC357083  13.509  17.588   5.130
 4397POPC   PO457084  13.810  17.184   5.539
 4397POPC   GL157085  13.621  17.454   5.831
 4397POPC   GL257086  13.865  17.347   6.016
 4397POPC   C1A57087  13.407  17.464   6.200
 4397POPC   D2A57088  13.366  17.620   6.597
 4397POPC   C3A57089  13.697  17.636   6.838
 4397POPC   C4A57090  13.684  17.573   7.242
 4397POPC   C1B57091  13.860  17.307   6.412
 4397POPC   C2B57092  13.609  17.141   6.664
 4397POPC   C3B57093  13.644  17.106   7.054
 4397POPC   C4B57094  14.007  17.190   7.316
 4398POPC   NC357095  15.461  39.631   5.168
 4398POPC   PO457096  14.961  39.216   5.233
 4398POPC   GL157097  15.081  39.128   5.688
 4398POPC   GL257098  15.395  39.282   5.761
 4398POPC   C1A57099  15.237  38.887   6.082
 4398POPC   D2A57100  15.131  38.710   6.510
 4398POPC   C3A57101  15.078  38.988   6.864
 4398POPC   C4A57102  15.210  38.952   7.312
 4398POPC   C1B57103  15.292  39.394   6.190
 4398POPC   C2B57104  15.533  39.309   6.559
 4398POPC   C3B57105  15.477  39.292   7.000
 4398POPC   C4B57106  15.048  39.411   7.145
 4399POPC   NC357107   6.040   6.593   5.156
 4399POPC   PO457108   5.487   7.024   5.253
 4399POPC   GL157109   5.747   6.915   5.671
 4399POPC   GL257110   6.048   6.680   5.653
 4399POPC   C1A57111   5.668   6.860   6.153
 4399POPC   D2A57112   5.597   6.987   6.626
 4399POPC   C3A57113   5.602   6.778   7.081
 4399POPC   C4A57114   5.541   6.655   7.557
 4399POPC   C1B57115   6.178   6.885   6.005
 4399POPC   C2B57116   6.089   6.795   6.452
 4399POPC   C3B57117   6.086   6.730   6.895
 4399POPC   C4B57118   6.035   6.623   7.326
 4400POPC   NC357119  39.787  10.305   5.438
 4400POPC   PO457120  39.939  11.006   5.443
 4400POPC   GL157121  39.951  10.676   5.757
 4400POPC   GL257122  40.250  10.451   5.715
 4400POPC   C1A57123  40.006  10.498   6.163
 4400POPC   D2A57124  39.827  10.373   6.547
 4400POPC   C3A57125  39.935  10.662   6.807
 4400POPC   C4A57126  39.982  10.629   7.235
 4400POPC   C1B57127  40.431  10.216   6.090
 4400POPC   C2B57128  40.300  10.104   6.529
 4400POPC   C3B57129  40.251  10.287   6.931
 4400POPC   C4B57130  40.314  10.141   7.343
 4401POPC   NC357131  23.473  26.548   5.452
 4401POPC   PO457132  23.506  25.849   5.383
 4401POPC   GL157133  23.577  26.132   5.780
 4401POPC   GL257134  23.870  26.350   5.889
 4401POPC   C1A57135  23.446  26.073   6.227
 4401POPC   D2A57136  23.583  26.040   6.669
 4401POPC   C3A57137  23.495  26.186   7.105
 4401POPC   C4A57138  23.685  25.981   7.472
 4401POPC   C1B57139  23.807  26.413   6.362
 4401POPC   C2B57140  23.837  26.480   6.834
 4401POPC   C3B57141  24.020  26.275   7.220
 4401POPC   C4B57142  24.008  26.318   7.697
 4402POPC   NC357143  21.174  22.910   5.346
 4402POPC   PO457144  21.667  22.503   5.194
 4402POPC   GL157145  21.665  22.779   5.668
 4402POPC   GL257146  21.474  23.092   5.724
 4402POPC   C1A57147  21.537  22.743   6.122
 4402POPC   D2A57148  21.587  22.921   6.547
 4402POPC   C3A57149  21.260  22.821   6.844
 4402POPC   C4A57150  21.364  22.840   7.246
 4402POPC   C1B57151  21.607  23.256   6.128
 4402POPC   C2B57152  21.579  23.492   6.522
 4402POPC   C3B57153  21.513  23.274   6.930
 4402POPC   C4B57154  21.108  23.270   7.133
 4403POPC   NC357155   0.964  42.838   5.655
 4403POPC   PO457156   1.475  43.311   5.471
 4403POPC   GL157157   1.507  43.009   5.834
 4403POPC   GL257158   1.409  42.668   5.777
 4403POPC   C1A57159   1.356  43.079   6.290
 4403POPC   D2A57160   1.014  43.246   6.573
 4403POPC   C3A57161   1.110  43.466   6.950
 4403POPC   C4A57162   1.076  43.318   7.370
 4403POPC   C1B57163   1.264  42.571   6.217
 4403POPC   C2B57164   1.401  42.710   6.645
 4403POPC   C3B57165   1.215  42.958   6.986
 4403POPC   C4B57166   0.910  42.810   7.251
 4404POPC   NC357167  43.131  25.717   5.424
 4404POPC   PO457168  42.755  26.215   5.393
 4404POPC   GL157169  42.980  26.109   5.790
 4404POPC   GL257170  43.181  26.396   5.815
 4404POPC   C1A57171  43.318  25.935   6.099
 4404POPC   D2A57172  43.374  25.771   6.528
 4404POPC   C3A57173  43.318  25.947   6.958
 4404POPC   C4A57174  42.960  25.914   7.187
 4404POPC   C1B57175  43.093  26.355   6.266
 4404POPC   C2B57176  42.996  26.266   6.730
 4404POPC   C3B57177  43.089  26.414   7.182
 4404POPC   C4B57178  43.137  26.504   7.667
 4405POPC   NC357179  30.266  26.126   5.248
 4405POPC   PO457180  30.890  25.935   5.447
 4405POPC   GL157181  30.536  25.961   5.790
 4405POPC   GL257182  30.211  26.172   5.764
 4405POPC   C1A57183  30.483  25.864   6.239
 4405POPC   D2A57184  30.803  25.874   6.566
 4405POPC   C3A57185  30.662  25.917   7.012
 4405POPC   C4A57186  30.837  25.897   7.462
 4405POPC   C1B57187  30.463  26.354   6.130
 4405POPC   C2B57188  30.502  26.294   6.601
 4405POPC   C3B57189  30.634  26.442   7.025
 4405POPC   C4B57190  30.542  26.300   7.418
 4406POPC   NC357191   2.264  34.959   5.303
 4406POPC   PO457192   1.882  35.502   5.545
 4406POPC   GL157193   2.139  35.216   5.752
 4406POPC   GL257194   2.178  35.507   5.985
 4406POPC   C1A57195   2.081  35.010   6.133
 4406POPC   D2A57196   2.029  35.216   6.525
 4406POPC   C3A57197   2.119  35.090   6.958
 4406POPC   C4A57198   1.935  35.318   7.311
 4406POPC   C1B57199   2.214  35.705   6.412
 4406POPC   C2B57200   2.196  35.581   6.852
 4406POPC   C3B57201   2.306  35.663   7.280
 4406POPC   C4B57202   2.247  35.574   7.743
 4407POPC   NC357203  35.223  18.707   5.106
 4407POPC   PO457204  35.272  19.305   5.479
 4407POPC   GL157205  35.429  19.302   5.859
 4407POPC   GL257206  35.164  19.167   5.976
 4407POPC   C1A57207  35.581  19.306   6.264
 4407POPC   D2A57208  35.524  19.011   6.586
 4407POPC   C3A57209  35.339  19.139   6.967
 4407POPC   C4A57210  35.543  19.193   7.374
 4407POPC   C1B57211  35.121  18.892   6.263
 4407POPC   C2B57212  35.069  18.764   6.660
 4407POPC   C3B57213  34.972  18.767   7.058
 4407POPC   C4B57214  35.117  18.949   7.394
 4408POPC   NC357215  32.014  14.487   4.957
 4408POPC   PO457216  32.474  14.200   5.401
 4408POPC   GL157217  32.482  14.302   5.843
 4408POPC   GL257218  32.121  14.372   5.837
 4408POPC   C1A57219  32.462  14.284   6.319
 4408POPC   D2A57220  32.578  14.204   6.758
 4408POPC   C3A57221  32.452  14.504   7.067
 4408POPC   C4A57222  32.362  14.386   7.456
 4408POPC   C1B57223  31.953  14.310   6.266
 4408POPC   C2B57224  32.098  14.411   6.711
 4408POPC   C3B57225  31.948  14.343   7.143
 4408POPC   C4B57226  31.893  14.403   7.624
 4409POPC   NC357227  29.088  33.243   5.313
 4409POPC   PO457228  28.891  32.620   5.119
 4409POPC   GL157229  29.119  32.815   5.633
 4409POPC   GL257230  29.067  33.149   5.796
 4409POPC   C1A57231  29.316  32.869   6.105
 4409POPC   D2A57232  29.418  33.195   6.446
 4409POPC   C3A57233  29.338  33.166   6.906
 4409POPC   C4A57234  29.166  33.286   7.315
 4409POPC   C1B57235  28.830  33.048   6.172
 4409POPC   C2B57236  29.007  32.924   6.564
 4409POPC   C3B57237  28.942  32.741   6.953
 4409POPC   C4B57238  28.761  32.964   7.305
 4410POPC   NC357239  31.244  39.497   5.576
 4410POPC   PO457240  31.617  40.096   5.419
 4410POPC   GL157241  31.481  40.036   5.850
 4410POPC   GL257242  31.596  39.713   5.900
 4410POPC   C1A57243  31.755  40.048   6.242
 4410POPC   D2A57244  31.818  39.859   6.630
 4410POPC   C3A57245  31.467  40.003   6.870
 4410POPC   C4A57246  31.415  40.046   7.293
 4410POPC   C1B57247  31.368  39.722   6.351
 4410POPC   C2B57248  31.224  39.552   6.775
 4410POPC   C3B57249  31.139  39.623   7.237
 4410POPC   C4B57250  31.138  39.782   7.688
 4411POPC   NC357251  28.662   6.618   5.463
 4411POPC   PO457252  29.340   6.780   5.422
 4411POPC   GL157253  29.127   6.576   5.801
 4411POPC   GL257254  29.013   6.906   5.910
 4411POPC   C1A57255  28.818   6.499   6.183
 4411POPC   D2A57256  28.751   6.633   6.639
 4411POPC   C3A57257  28.740   6.581   7.095
 4411POPC   C4A57258  28.827   6.855   7.431
 4411POPC   C1B57259  29.114   6.856   6.359
 4411POPC   C2B57260  29.359   6.750   6.735
 4411POPC   C3B57261  29.252   6.550   7.127
 4411POPC   C4B57262  29.467   6.297   7.446
 4412POPC   NC357263   2.693   0.881   5.340
 4412POPC   PO457264   2.517   0.210   5.375
 4412POPC   GL157265   2.626   0.446   5.718
 4412POPC   GL257266   2.975   0.401   5.731
 4412POPC   C1A57267   2.584   0.611   6.133
 4412POPC   D2A57268   2.362   0.408   6.475
 4412POPC   C3A57269   2.505   0.579   6.850
 4412POPC   C4A57270   2.618   0.547   7.248
 4412POPC   C1B57271   3.069   0.407   6.151
 4412POPC   C2B57272   2.865   0.364   6.524
 4412POPC   C3B57273   3.002   0.418   6.911
 4412POPC   C4B57274   3.160   0.512   7.296
 4413POPC   NC357275   1.448  39.545   5.352
 4413POPC   PO457276   1.444  40.202   5.335
 4413POPC   GL157277   1.172  40.144   5.746
 4413POPC   GL257278   1.198  39.812   5.792
 4413POPC   C1A57279   1.024  40.001   6.226
 4413POPC   D2A57280   0.986  40.192   6.613
 4413POPC   C3A57281   0.915  39.910   6.935
 4413POPC   C4A57282   1.041  40.135   7.296
 4413POPC   C1B57283   1.509  40.014   6.133
 4413POPC   C2B57284   1.415  39.878   6.553
 4413POPC   C3B57285   1.413  40.054   6.934
 4413POPC   C4B57286   1.684  39.982   7.252
 4414POPC   NC357287  14.147  31.201   5.473
 4414POPC   PO457288  14.618  31.598   5.272
 4414POPC   GL157289  14.562  31.506   5.756
 4414POPC   GL257290  14.238  31.589   5.946
 4414POPC   C1A57291  14.645  31.589   6.239
 4414POPC   D2A57292  14.736  31.813   6.663
 4414POPC   C3A57293  14.627  31.588   7.040
 4414POPC   C4A57294  14.527  31.230   7.254
 4414POPC   C1B57295  14.240  31.191   6.196
 4414POPC   C2B57296  14.270  31.026   6.640
 4414POPC   C3B57297  14.087  31.087   7.063
 4414POPC   C4B57298  14.099  31.541   7.161
 4415POPC   NC357299  28.387  11.573   5.149
 4415POPC   PO457300  28.343  12.210   5.323
 4415POPC   GL157301  28.265  12.062   5.749
 4415POPC   GL257302  28.218  11.706   5.855
 4415POPC   C1A57303  28.343  12.145   6.195
 4415POPC   D2A57304  28.129  12.103   6.591
 4415POPC   C3A57305  28.310  12.134   7.011
 4415POPC   C4A57306  28.283  11.837   7.293
 4415POPC   C1B57307  28.536  11.686   6.229
 4415POPC   C2B57308  28.609  11.858   6.679
 4415POPC   C3B57309  28.754  11.837   7.140
 4415POPC   C4B57310  28.675  11.733   7.602
 4416POPC   NC357311  36.848  23.778   5.200
 4416POPC   PO457312  37.272  23.307   5.565
 4416POPC   GL157313  37.008  23.414   5.871
 4416POPC   GL257314  36.647  23.372   5.758
 4416POPC   C1A57315  37.085  23.616   6.264
 4416POPC   D2A57316  37.048  23.964   6.546
 4416POPC   C3A57317  37.169  23.847   6.943
 4416POPC   C4A57318  36.804  23.833   7.171
 4416POPC   C1B57319  36.672  23.275   6.233
 4416POPC   C2B57320  36.782  23.186   6.695
 4416POPC   C3B57321  36.652  23.358   7.122
 4416POPC   C4B57322  36.795  23.292   7.597
 4417POPC   NC357323  14.910  14.441   5.031
 4417POPC   PO457324  15.344  14.194   5.448
 4417POPC   GL157325  15.270  14.405   5.884
 4417POPC   GL257326  14.931  14.604   5.918
 4417POPC   C1A57327  15.158  14.296   6.325
 4417POPC   D2A57328  15.025  14.064   6.715
 4417POPC   C3A57329  15.056  14.292   7.095
 4417POPC   C4A57330  15.280  14.430   7.467
 4417POPC   C1B57331  14.850  14.725   6.354
 4417POPC   C2B57332  15.122  14.636   6.712
 4417POPC   C3B57333  15.316  14.739   7.077
 4417POPC   C4B57334  15.486  15.041   7.325
 4418POPC   NC357335  28.724  37.361   5.468
 4418POPC   PO457336  28.241  37.758   5.218
 4418POPC   GL157337  28.220  37.714   5.736
 4418POPC   GL257338  28.067  38.011   5.916
 4418POPC   C1A57339  28.120  37.612   6.217
 4418POPC   D2A57340  27.970  37.859   6.611
 4418POPC   C3A57341  28.071  37.683   7.047
 4418POPC   C4A57342  27.997  37.797   7.493
 4418POPC   C1B57343  28.373  38.062   6.315
 4418POPC   C2B57344  28.436  38.058   6.772
 4418POPC   C3B57345  28.584  37.822   7.137
 4418POPC   C4B57346  28.609  37.464   7.430
 4419POPC   NC357347   6.464   3.165   5.529
 4419POPC   PO457348   6.804   3.693   5.262
 4419POPC   GL157349   6.748   3.557   5.725
 4419POPC   GL257350   6.971   3.317   5.864
 4419POPC   C1A57351   6.528   3.419   6.162
 4419POPC   D2A57352   6.299   3.197   6.511
 4419POPC   C3A57353   6.426   3.295   6.933
 4419POPC   C4A57354   6.400   3.627   7.205
 4419POPC   C1B57355   6.968   3.692   6.172
 4419POPC   C2B57356   6.725   3.759   6.575
 4419POPC   C3B57357   6.863   3.671   6.993
 4419POPC   C4B57358   6.893   3.278   7.193
 4420POPC   NC357359  16.251  10.021   5.363
 4420POPC   PO457360  16.901  10.107   5.361
 4420POPC   GL157361  16.798  10.283   5.782
 4420POPC   GL257362  16.442  10.347   5.736
 4420POPC   C1A57363  16.729  10.575   6.160
 4420POPC   D2A57364  16.540  10.628   6.577
 4420POPC   C3A57365  16.698  10.701   7.005
 4420POPC   C4A57366  17.072  10.557   7.182
 4420POPC   C1B57367  16.439  10.157   6.121
 4420POPC   C2B57368  16.684  10.155   6.449
 4420POPC   C3B57369  16.724  10.213   6.846
 4420POPC   C4B57370  16.696  10.146   7.252
 4421POPC   NC357371  11.743   2.557   5.138
 4421POPC   PO457372  11.137   2.837   5.202
 4421POPC   GL157373  11.302   2.911   5.640
 4421POPC   GL257374  10.968   2.843   5.756
 4421POPC   C1A57375  11.507   3.030   6.070
 4421POPC   D2A57376  11.644   2.668   6.361
 4421POPC   C3A57377  11.467   2.637   6.773
 4421POPC   C4A57378  11.427   2.784   7.207
 4421POPC   C1B57379  11.157   2.633   6.123
 4421POPC   C2B57380  10.975   2.586   6.539
 4421POPC   C3B57381  11.001   2.778   6.936
 4421POPC   C4B57382  10.830   2.702   7.340
 4422POPC   NC357383  25.536  17.164   5.400
 4422POPC   PO457384  25.204  16.632   5.392
 4422POPC   GL157385  25.131  16.872   5.790
 4422POPC   GL257386  25.326  17.174   5.904
 4422POPC   C1A57387  25.164  16.844   6.261
 4422POPC   D2A57388  25.254  16.885   6.702
 4422POPC   C3A57389  25.100  16.642   7.061
 4422POPC   C4A57390  25.181  16.908   7.406
 4422POPC   C1B57391  25.544  17.200   6.349
 4422POPC   C2B57392  25.746  16.973   6.714
 4422POPC   C3B57393  25.596  16.779   7.101
 4422POPC   C4B57394  25.663  16.742   7.546
 4423POPC   NC357395  33.516  19.441   5.380
 4423POPC   PO457396  33.687  20.108   5.326
 4423POPC   GL157397  33.727  19.825   5.687
 4423POPC   GL257398  33.642  20.104   5.843
 4423POPC   C1A57399  33.695  19.721   6.177
 4423POPC   D2A57400  33.864  19.597   6.596
 4423POPC   C3A57401  33.625  19.534   6.979
 4423POPC   C4A57402  33.619  19.494   7.433
 4423POPC   C1B57403  33.851  20.208   6.195
 4423POPC   C2B57404  33.821  20.119   6.611
 4423POPC   C3B57405  33.708  20.106   7.027
 4423POPC   C4B57406  33.361  19.914   7.217
 4424POPC   NC357407   1.196  31.032   5.356
 4424POPC   PO457408   1.428  30.443   5.333
 4424POPC   GL157409   1.117  30.476   5.693
 4424POPC   GL257410   0.881  30.788   5.703
 4424POPC   C1A57411   1.224  30.374   6.120
 4424POPC   D2A57412   1.523  30.345   6.477
 4424POPC   C3A57413   1.277  30.427   6.821
 4424POPC   C4A57414   1.057  30.600   7.148
 4424POPC   C1B57415   1.082  30.899   6.084
 4424POPC   C2B57416   1.021  30.713   6.470
 4424POPC   C3B57417   1.057  30.970   6.829
 4424POPC   C4B57418   1.110  31.093   7.253
 4425POPC   NC357419  16.151   4.439   5.581
 4425POPC   PO457420  15.685   4.016   5.381
 4425POPC   GL157421  15.743   4.169   5.803
 4425POPC   GL257422  15.703   4.510   5.816
 4425POPC   C1A57423  16.052   4.187   6.173
 4425POPC   D2A57424  16.059   4.372   6.590
 4425POPC   C3A57425  16.040   4.163   6.984
 4425POPC   C4A57426  16.369   3.995   7.262
 4425POPC   C1B57427  15.789   4.787   6.113
 4425POPC   C2B57428  15.792   4.799   6.506
 4425POPC   C3B57429  15.820   4.755   6.905
 4425POPC   C4B57430  15.907   4.558   7.264
 4426POPC   NC357431  43.383  11.846   5.567
 4426POPC   PO457432  44.058  12.007   5.322
 4426POPC   GL157433  43.858  11.997   5.721
 4426POPC   GL257434  43.766  12.296   5.817
 4426POPC   C1A57435  43.726  11.787   6.107
 4426POPC   D2A57436  43.829  11.918   6.512
 4426POPC   C3A57437  43.673  11.829   6.920
 4426POPC   C4A57438  43.890  11.672   7.292
 4426POPC   C1B57439  43.516  12.246   6.192
 4426POPC   C2B57440  43.524  12.375   6.606
 4426POPC   C3B57441  43.659  12.348   7.025
 4426POPC   C4B57442  44.032  12.427   7.211
 4427POPC   NC357443  41.372  29.518   5.404
 4427POPC   PO457444  41.206  30.201   5.427
 4427POPC   GL157445  41.364  29.926   5.765
 4427POPC   GL257446  41.718  29.863   5.709
 4427POPC   C1A57447  41.420  29.816   6.217
 4427POPC   D2A57448  41.503  30.029   6.619
 4427POPC   C3A57449  41.333  29.872   7.001
 4427POPC   C4A57450  41.667  29.638   7.155
 4427POPC   C1B57451  41.905  29.901   6.134
 4427POPC   C2B57452  42.040  30.037   6.558
 4427POPC   C3B57453  41.927  30.051   7.003
 4427POPC   C4B57454  42.018  29.892   7.441
 4428POPC   NC357455   0.079  16.553   5.093
 4428POPC   PO457456   0.164  16.322   5.677
 4428POPC   GL157457   0.398  16.595   5.898
 4428POPC   GL257458   0.607  16.830   5.722
 4428POPC   C1A57459   0.281  16.715   6.289
 4428POPC   D2A57460   0.134  16.806   6.670
 4428POPC   C3A57461   0.420  16.614   6.939
 4428POPC   C4A57462   0.280  16.730   7.259
 4428POPC   C1B57463   0.731  16.921   6.160
 4428POPC   C2B57464   0.632  16.961   6.620
 4428POPC   C3B57465   0.788  16.955   7.083
 4428POPC   C4B57466   0.623  17.059   7.515
 4429POPC   NC357467  22.503   5.336   5.645
 4429POPC   PO457468  21.999   4.998   5.424
 4429POPC   GL157469  22.143   5.035   5.866
 4429POPC   GL257470  22.491   4.959   6.015
 4429POPC   C1A57471  22.052   5.273   6.246
 4429POPC   D2A57472  21.849   5.193   6.619
 4429POPC   C3A57473  21.890   5.465   6.942
 4429POPC   C4A57474  22.281   5.358   7.062
 4429POPC   C1B57475  22.276   4.813   6.357
 4429POPC   C2B57476  22.239   4.868   6.799
 4429POPC   C3B57477  22.123   4.903   7.212
 4429POPC   C4B57478  22.223   4.708   7.573
 4430POPC   NC357479  11.302  18.523   5.193
 4430POPC   PO457480  11.211  18.049   5.546
 4430POPC   GL157481  11.168  18.439   5.785
 4430POPC   GL257482  11.433  18.640   5.667
 4430POPC   C1A57483  11.169  18.491   6.271
 4430POPC   D2A57484  11.110  18.389   6.747
 4430POPC   C3A57485  11.314  18.042   7.014
 4430POPC   C4A57486  11.324  17.653   7.331
 4430POPC   C1B57487  11.610  18.413   6.032
 4430POPC   C2B57488  11.648  18.494   6.488
 4430POPC   C3B57489  11.563  18.526   6.910
 4430POPC   C4B57490  11.252  18.643   7.207
 4431POPC   NC357491   2.578  42.537   5.301
 4431POPC   PO457492   2.620  41.941   5.553
 4431POPC   GL157493   2.539  42.256   5.893
 4431POPC   GL257494   2.365  42.549   5.790
 4431POPC   C1A57495   2.654  42.395   6.345
 4431POPC   D2A57496   2.867  42.530   6.762
 4431POPC   C3A57497   2.935  42.262   7.161
 4431POPC   C4A57498   3.031  42.427   7.581
 4431POPC   C1B57499   2.233  42.661   6.242
 4431POPC   C2B57500   2.321  42.568   6.692
 4431POPC   C3B57501   2.337  42.651   7.139
 4431POPC   C4B57502   2.515  42.392   7.464
 4432POPC   NC357503  28.883  40.922   5.537
 4432POPC   PO457504  29.564  41.081   5.405
 4432POPC   GL157505  29.345  40.920   5.817
 4432POPC   GL257506  29.028  40.721   5.985
 4432POPC   C1A57507  29.477  40.699   6.209
 4432POPC   D2A57508  29.208  40.468   6.485
 4432POPC   C3A57509  29.147  40.613   6.929
 4432POPC   C4A57510  29.485  40.496   7.185
 4432POPC   C1B57511  29.077  41.024   6.340
 4432POPC   C2B57512  29.070  41.110   6.829
 4432POPC   C3B57513  28.905  41.004   7.273
 4432POPC   C4B57514  28.862  41.013   7.778
 4433POPC   NC357515  14.775  26.520   5.459
 4433POPC   PO457516  14.526  27.153   5.486
 4433POPC   GL157517  14.289  26.892   5.782
 4433POPC   GL257518  14.621  26.764   5.884
 4433POPC   C1A57519  14.259  26.630   6.195
 4433POPC   D2A57520  14.578  26.638   6.553
 4433POPC   C3A57521  14.384  26.722   6.965
 4433POPC   C4A57522  14.187  26.802   7.373
 4433POPC   C1B57523  14.824  27.000   6.227
 4433POPC   C2B57524  14.743  27.160   6.666
 4433POPC   C3B57525  14.838  26.947   7.060
 4433POPC   C4B57526  14.679  26.743   7.433
 4434POPC   NC357527  22.162  31.828   5.330
 4434POPC   PO457528  22.144  32.396   5.542
 4434POPC   GL157529  22.095  32.124   5.918
 4434POPC   GL257530  22.009  31.796   5.824
 4434POPC   C1A57531  22.093  32.131   6.387
 4434POPC   D2A57532  22.378  32.319   6.685
 4434POPC   C3A57533  22.298  32.424   7.126
 4434POPC   C4A57534  22.475  32.305   7.545
 4434POPC   C1B57535  21.974  31.640   6.246
 4434POPC   C2B57536  22.110  31.710   6.691
 4434POPC   C3B57537  21.999  31.995   7.056
 4434POPC   C4B57538  21.669  31.934   7.409
 4435POPC   NC357539  22.356  15.483   5.444
 4435POPC   PO457540  22.083  14.846   5.395
 4435POPC   GL157541  22.177  15.123   5.796
 4435POPC   GL257542  22.157  15.490   5.899
 4435POPC   C1A57543  22.385  15.043   6.202
 4435POPC   D2A57544  22.598  15.010   6.623
 4435POPC   C3A57545  22.307  14.909   6.979
 4435POPC   C4A57546  21.938  15.076   7.193
 4435POPC   C1B57547  22.021  15.435   6.271
 4435POPC   C2B57548  22.138  15.234   6.627
 4435POPC   C3B57549  22.266  15.418   7.002
 4435POPC   C4B57550  21.980  15.657   7.174
 4436POPC   NC357551  31.879  42.158   5.367
 4436POPC   PO457552  32.432  42.484   5.183
 4436POPC   GL157553  32.261  42.387   5.642
 4436POPC   GL257554  32.217  42.678   5.896
 4436POPC   C1A57555  32.319  42.182   6.078
 4436POPC   D2A57556  32.294  42.042   6.545
 4436POPC   C3A57557  32.431  42.235   6.960
 4436POPC   C4A57558  32.267  42.109   7.380
 4436POPC   C1B57559  31.952  42.636   6.271
 4436POPC   C2B57560  31.761  42.429   6.617
 4436POPC   C3B57561  31.913  42.347   7.041
 4436POPC   C4B57562  32.020  42.627   7.364
 4437POPC   NC357563  41.240  10.635   5.370
 4437POPC   PO457564  41.008  10.048   5.642
 4437POPC   GL157565  40.945  10.466   5.784
 4437POPC   GL257566  40.695  10.710   5.669
 4437POPC   C1A57567  40.933  10.555   6.209
 4437POPC   D2A57568  41.008  10.639   6.631
 4437POPC   C3A57569  40.743  10.378   6.833
 4437POPC   C4A57570  40.804  10.240   7.235
 4437POPC   C1B57571  40.475  10.764   6.071
 4437POPC   C2B57572  40.394  10.615   6.498
 4437POPC   C3B57573  40.439  10.785   6.914
 4437POPC   C4B57574  40.503  10.623   7.242
 4438POPC   NC357575  14.645   7.918   5.368
 4438POPC   PO457576  14.051   8.230   5.243
 4438POPC   GL157577  14.171   8.327   5.664
 4438POPC   GL257578  14.494   8.269   5.729
 4438POPC   C1A57579  14.062   8.429   6.084
 4438POPC   D2A57580  13.966   8.113   6.367
 4438POPC   C3A57581  13.977   8.116   6.824
 4438POPC   C4A57582  13.971   8.325   7.212
 4438POPC   C1B57583  14.381   7.992   6.059
 4438POPC   C2B57584  14.398   7.858   6.513
 4438POPC   C3B57585  14.480   8.056   6.928
 4438POPC   C4B57586  14.583   8.484   7.082
 4439POPC   NC357587  23.305  21.894   5.436
 4439POPC   PO457588  22.729  21.442   5.381
 4439POPC   GL157589  22.888  21.376   5.763
 4439POPC   GL257590  22.971  21.685   5.831
 4439POPC   C1A57591  23.003  21.245   6.209
 4439POPC   D2A57592  22.941  21.484   6.566
 4439POPC   C3A57593  23.108  21.403   6.981
 4439POPC   C4A57594  23.251  21.396   7.405
 4439POPC   C1B57595  22.576  21.567   6.110
 4439POPC   C2B57596  22.461  21.687   6.539
 4439POPC   C3B57597  22.635  21.599   6.951
 4439POPC   C4B57598  22.757  21.469   7.353
 4440POPC   NC357599  26.115  19.579   5.360
 4440POPC   PO457600  25.716  20.082   5.276
 4440POPC   GL157601  25.858  19.876   5.705
 4440POPC   GL257602  26.237  19.860   5.777
 4440POPC   C1A57603  25.901  19.647   6.138
 4440POPC   D2A57604  25.668  19.583   6.559
 4440POPC   C3A57605  25.838  19.626   7.001
 4440POPC   C4A57606  26.201  19.401   7.154
 4440POPC   C1B57607  26.307  19.945   6.224
 4440POPC   C2B57608  26.179  19.813   6.663
 4440POPC   C3B57609  26.246  19.928   7.107
 4440POPC   C4B57610  26.092  20.308   7.368
 4441POPC   NC357611   8.876   6.860   5.320
 4441POPC   PO457612   9.284   6.400   5.414
 4441POPC   GL157613   9.031   6.595   5.744
 4441POPC   GL257614   9.170   6.937   5.758
 4441POPC   C1A57615   8.973   6.449   6.192
 4441POPC   D2A57616   8.766   6.566   6.600
 4441POPC   C3A57617   8.945   6.391   6.994
 4441POPC   C4A57618   9.137   6.683   7.263
 4441POPC   C1B57619   8.989   6.951   6.195
 4441POPC   C2B57620   9.067   7.091   6.633
 4441POPC   C3B57621   9.335   7.105   7.025
 4441POPC   C4B57622   9.323   7.083   7.524
 4442POPC   NC357623   8.409  26.953   5.501
 4442POPC   PO457624   7.880  26.616   5.377
 4442POPC   GL157625   7.941  26.863   5.774
 4442POPC   GL257626   7.759  27.171   5.870
 4442POPC   C1A57627   7.921  26.827   6.224
 4442POPC   D2A57628   8.235  26.901   6.540
 4442POPC   C3A57629   8.067  26.844   6.942
 4442POPC   C4A57630   8.328  26.730   7.263
 4442POPC   C1B57631   7.929  27.320   6.296
 4442POPC   C2B57632   8.092  27.367   6.721
 4442POPC   C3B57633   7.832  27.297   7.110
 4442POPC   C4B57634   7.831  26.950   7.382
 4443POPC   NC357635  44.854  19.095   5.537
 4443POPC   PO457636  44.145  19.194   5.537
 4443POPC   GL157637  44.435  19.024   5.813
 4443POPC   GL257638  44.762  19.183   6.012
 4443POPC   C1A57639  44.417  18.874   6.202
 4443POPC   D2A57640  44.678  19.006   6.525
 4443POPC   C3A57641  44.445  18.903   6.820
 4443POPC   C4A57642  44.412  18.822   7.209
 4443POPC   C1B57643  44.929  18.791   6.147
 4443POPC   C2B57644   0.005  18.609   6.548
 4443POPC   C3B57645  44.868  18.658   6.917
 4443POPC   C4B57646  44.902  18.987   7.154
 4444POPC   NC357647  42.295  35.595   4.996
 4444POPC   PO457648  42.575  35.258   5.562
 4444POPC   GL157649  42.388  35.324   5.944
 4444POPC   GL257650  42.217  35.605   5.845
 4444POPC   C1A57651  42.501  35.600   6.301
 4444POPC   D2A57652  42.669  35.488   6.743
 4444POPC   C3A57653  42.668  35.228   7.145
 4444POPC   C4A57654  42.436  35.270   7.576
 4444POPC   C1B57655  42.014  35.472   6.271
 4444POPC   C2B57656  42.169  35.558   6.693
 4444POPC   C3B57657  42.314  35.660   7.108
 4444POPC   C4B57658  42.044  35.344   7.260
 4445POPC   NC357659  24.068  16.843   5.039
 4445POPC   PO457660  23.549  16.680   5.457
 4445POPC   GL157661  23.669  16.657   5.852
 4445POPC   GL257662  23.953  16.464   5.793
 4445POPC   C1A57663  23.660  16.886   6.235
 4445POPC   D2A57664  23.411  16.919   6.623
 4445POPC   C3A57665  23.514  16.765   7.055
 4445POPC   C4A57666  23.806  16.826   7.396
 4445POPC   C1B57667  23.861  16.396   6.226
 4445POPC   C2B57668  23.749  16.525   6.593
 4445POPC   C3B57669  23.956  16.528   6.923
 4445POPC   C4B57670  23.808  16.316   7.241
 4446POPC   NC357671   3.537  28.635   5.400
 4446POPC   PO457672   3.788  29.275   5.412
 4446POPC   GL157673   3.607  29.084   5.770
 4446POPC   GL257674   3.679  28.750   5.873
 4446POPC   C1A57675   3.338  29.088   6.113
 4446POPC   D2A57676   3.426  28.904   6.504
 4446POPC   C3A57677   3.585  29.159   6.811
 4446POPC   C4A57678   3.441  29.121   7.200
 4446POPC   C1B57679   3.887  28.874   6.252
 4446POPC   C2B57680   3.912  28.742   6.712
 4446POPC   C3B57681   3.969  28.908   7.137
 4446POPC   C4B57682   3.916  28.966   7.612
 4447POPC   NC357683   9.524   1.613   5.347
 4447POPC   PO457684   9.681   2.276   5.434
 4447POPC   GL157685   9.823   2.240   5.874
 4447POPC   GL257686  10.028   2.564   5.974
 4447POPC   C1A57687   9.795   1.875   6.138
 4447POPC   D2A57688   9.691   1.752   6.552
 4447POPC   C3A57689   9.877   1.944   6.885
 4447POPC   C4A57690   9.779   1.912   7.308
 4447POPC   C1B57691  10.003   2.308   6.355
 4447POPC   C2B57692  10.092   2.391   6.782
 4447POPC   C3B57693   9.852   2.388   7.142
 4447POPC   C4B57694  10.032   2.298   7.553
 4448POPC   NC357695   9.032  39.705   5.483
 4448POPC   PO457696   9.200  40.321   5.562
 4448POPC   GL157697   9.028  40.067   5.876
 4448POPC   GL257698   9.237  40.263   6.084
 4448POPC   C1A57699   8.947  39.885   6.294
 4448POPC   D2A57700   8.935  40.054   6.732
 4448POPC   C3A57701   8.945  39.819   7.140
 4448POPC   C4A57702   9.055  39.811   7.587
 4448POPC   C1B57703   9.399  40.094   6.438
 4448POPC   C2B57704   9.396  40.211   6.855
 4448POPC   C3B57705   9.179  40.264   7.228
 4448POPC   C4B57706   9.261  40.404   7.652
 4449POPC   NC357707  38.244  26.128   5.259
 4449POPC   PO457708  38.875  25.835   5.181
 4449POPC   GL157709  38.665  26.037   5.622
 4449POPC   GL257710  38.300  26.212   5.758
 4449POPC   C1A57711  38.572  25.953   6.101
 4449POPC   D2A57712  38.512  26.106   6.532
 4449POPC   C3A57713  38.340  25.835   6.886
 4449POPC   C4A57714  38.560  25.892   7.284
 4449POPC   C1B57715  38.101  26.330   6.189
 4449POPC   C2B57716  38.033  26.242   6.656
 4449POPC   C3B57717  38.350  26.329   6.998
 4449POPC   C4B57718  38.284  26.573   7.352
 4450POPC   NC357719  18.023   0.110   5.182
 4450POPC   PO457720  18.303   0.574   5.384
 4450POPC   GL157721  18.391   0.480   5.834
 4450POPC   GL257722  18.477   0.119   5.897
 4450POPC   C1A57723  18.517   0.472   6.291
 4450POPC   D2A57724  18.273   0.573   6.671
 4450POPC   C3A57725  18.388   0.406   7.078
 4450POPC   C4A57726  18.563   0.575   7.472
 4450POPC   C1B57727  18.098   0.183   6.128
 4450POPC   C2B57728  17.886   0.245   6.508
 4450POPC   C3B57729  17.953   0.197   6.933
 4450POPC   C4B57730  17.830   0.461   7.231
 4451POPC   NC357731  21.637  20.640   5.303
 4451POPC   PO457732  22.019  20.337   5.731
 4451POPC   GL157733  21.975  20.451   6.090
 4451POPC   GL257734  21.724  20.197   6.163
 4451POPC   C1A57735  22.213  20.763   6.308
 4451POPC   D2A57736  22.093  20.997   6.662
 4451POPC   C3A57737  22.377  20.760   6.842
 4451POPC   C4A57738  22.639  20.656   7.160
 4451POPC   C1B57739  22.089  20.159   6.471
 4451POPC   C2B57740  22.238  20.281   6.843
 4451POPC   C3B57741  22.145  20.480   7.213
 4451POPC   C4B57742  22.107  20.326   7.641
 4452POPC   NC357743  30.810  33.417   5.423
 4452POPC   PO457744  30.379  33.882   5.351
 4452POPC   GL157745  30.576  33.773   5.725
 4452POPC   GL257746  30.930  33.863   5.695
 4452POPC   C1A57747  30.645  33.602   6.126
 4452POPC   D2A57748  30.538  33.719   6.540
 4452POPC   C3A57749  30.771  33.477   6.829
 4452POPC   C4A57750  30.628  33.662   7.167
 4452POPC   C1B57751  31.039  34.052   6.094
 4452POPC   C2B57752  31.059  33.902   6.515
 4452POPC   C3B57753  31.087  33.861   6.949
 4452POPC   C4B57754  31.101  33.619   7.354
 4453POPC   NC357755  20.995  29.203   5.546
 4453POPC   PO457756  20.300  29.378   5.335
 4453POPC   GL157757  20.496  29.188   5.700
 4453POPC   GL257758  20.643  29.510   5.773
 4453POPC   C1A57759  20.600  29.162   6.156
 4453POPC   D2A57760  20.579  29.369   6.541
 4453POPC   C3A57761  20.663  29.128   6.900
 4453POPC   C4A57762  20.428  29.071   7.248
 4453POPC   C1B57763  20.964  29.531   6.101
 4453POPC   C2B57764  21.092  29.317   6.456
 4453POPC   C3B57765  21.085  29.420   6.891
 4453POPC   C4B57766  20.922  29.313   7.308
 4454POPC   NC357767  22.267  17.234   5.517
 4454POPC   PO457768  21.881  17.648   5.486
 4454POPC   GL157769  22.023  17.499   5.925
 4454POPC   GL257770  22.392  17.410   5.982
 4454POPC   C1A57771  22.075  17.564   6.397
 4454POPC   D2A57772  22.328  17.720   6.772
 4454POPC   C3A57773  22.240  17.639   7.216
 4454POPC   C4A57774  22.078  17.759   7.673
 4454POPC   C1B57775  22.354  17.144   6.365
 4454POPC   C2B57776  22.472  17.198   6.784
 4454POPC   C3B57777  22.452  17.166   7.224
 4454POPC   C4B57778  22.220  17.277   7.580
 4455POPC   NC357779  41.261  38.184   5.508
 4455POPC   PO457780  41.481  38.760   5.256
 4455POPC   GL157781  41.672  38.700   5.689
 4455POPC   GL257782  41.629  38.342   5.857
 4455POPC   C1A57783  41.543  38.769   6.125
 4455POPC   D2A57784  41.688  38.897   6.537
 4455POPC   C3A57785  41.533  38.583   6.835
 4455POPC   C4A57786  41.507  38.408   7.310
 4455POPC   C1B57787  41.689  38.331   6.346
 4455POPC   C2B57788  41.706  38.122   6.771
 4455POPC   C3B57789  41.917  38.161   7.186
 4455POPC   C4B57790  41.815  37.968   7.606
 4456POPC   NC357791   3.829   4.501   5.393
 4456POPC   PO457792   3.435   4.003   5.538
 4456POPC   GL157793   3.580   4.254   5.788
 4456POPC   GL257794   3.239   4.335   5.892
 4456POPC   C1A57795   3.836   4.131   6.108
 4456POPC   D2A57796   3.978   4.275   6.474
 4456POPC   C3A57797   3.845   4.355   6.894
 4456POPC   C4A57798   3.417   4.304   7.074
 4456POPC   C1B57799   3.481   4.474   6.248
 4456POPC   C2B57800   3.484   4.653   6.653
 4456POPC   C3B57801   3.633   4.771   7.069
 4456POPC   C4B57802   3.338   4.798   7.407
 4457POPC   NC357803  19.324  27.191   5.459
 4457POPC   PO457804  19.250  27.906   5.323
 4457POPC   GL157805  19.053  27.880   5.741
 4457POPC   GL257806  19.025  27.508   5.769
 4457POPC   C1A57807  18.883  27.789   6.167
 4457POPC   D2A57808  18.755  27.954   6.567
 4457POPC   C3A57809  18.882  27.664   6.881
 4457POPC   C4A57810  19.257  27.448   7.110
 4457POPC   C1B57811  18.879  27.243   6.116
 4457POPC   C2B57812  19.009  27.156   6.537
 4457POPC   C3B57813  18.825  27.146   6.916
 4457POPC   C4B57814  18.686  27.393   7.266
 4458POPC   NC357815  44.228   7.104   5.146
 4458POPC   PO457816  44.033   6.401   5.222
 4458POPC   GL157817  43.877   6.536   5.680
 4458POPC   GL257818  43.973   6.859   5.738
 4458POPC   C1A57819  43.939   6.516   6.155
 4458POPC   D2A57820  43.873   6.401   6.581
 4458POPC   C3A57821  44.234   6.389   6.871
 4458POPC   C4A57822  44.184   6.569   7.267
 4458POPC   C1B57823  43.674   6.942   6.041
 4458POPC   C2B57824  43.754   6.906   6.486
 4458POPC   C3B57825  43.883   6.806   6.905
 4458POPC   C4B57826  43.799   6.904   7.331
 4459POPC   NC357827  26.513  27.146   5.154
 4459POPC   PO457828  26.956  26.710   5.475
 4459POPC   GL157829  26.858  26.823   5.876
 4459POPC   GL257830  26.639  27.098   5.956
 4459POPC   C1A57831  26.878  26.748   6.320
 4459POPC   D2A57832  26.671  26.998   6.603
 4459POPC   C3A57833  26.739  26.937   7.004
 4459POPC   C4A57834  26.870  26.661   7.311
 4459POPC   C1B57835  26.295  27.077   6.267
 4459POPC   C2B57836  26.206  27.157   6.691
 4459POPC   C3B57837  26.236  26.944   7.080
 4459POPC   C4B57838  26.481  26.990   7.475
 4460POPC   NC357839  16.921  23.130   5.319
 4460POPC   PO457840  16.413  22.607   5.384
 4460POPC   GL157841  16.608  22.925   5.667
 4460POPC   GL257842  16.983  22.983   5.788
 4460POPC   C1A57843  16.590  22.818   6.088
 4460POPC   D2A57844  16.767  22.750   6.473
 4460POPC   C3A57845  16.544  22.894   6.820
 4460POPC   C4A57846  16.705  22.714   7.190
 4460POPC   C1B57847  16.895  23.241   6.099
 4460POPC   C2B57848  16.926  23.284   6.539
 4460POPC   C3B57849  17.035  23.012   6.881
 4460POPC   C4B57850  16.869  23.205   7.248
 4461POPC   NC357851  31.534  12.197   5.380
 4461POPC   PO457852  31.891  12.700   5.412
 4461POPC   GL157853  31.812  12.333   5.791
 4461POPC   GL257854  31.581  11.991   5.843
 4461POPC   C1A57855  31.848  12.210   6.262
 4461POPC   D2A57856  31.922  12.331   6.743
 4461POPC   C3A57857  31.594  12.236   7.066
 4461POPC   C4A57858  31.140  12.300   7.139
 4461POPC   C1B57859  31.344  11.673   6.142
 4461POPC   C2B57860  31.174  11.504   6.552
 4461POPC   C3B57861  31.181  11.472   7.015
 4461POPC   C4B57862  31.323  11.838   7.275
 4462POPC   NC357863  35.938  34.889   5.421
 4462POPC   PO457864  36.118  34.133   5.297
 4462POPC   GL157865  36.109  34.387   5.708
 4462POPC   GL257866  36.183  34.757   5.852
 4462POPC   C1A57867  36.053  34.365   6.168
 4462POPC   D2A57868  36.206  34.610   6.521
 4462POPC   C3A57869  36.076  34.404   6.881
 4462POPC   C4A57870  35.924  34.158   7.202
 4462POPC   C1B57871  35.893  34.887   6.186
 4462POPC   C2B57872  35.687  34.735   6.547
 4462POPC   C3B57873  35.845  34.868   6.940
 4462POPC   C4B57874  36.121  34.758   7.276
 4463POPC   NC357875  44.999  38.771   5.621
 4463POPC   PO457876  44.695  39.413   5.414
 4463POPC   GL157877  44.745  39.230   5.792
 4463POPC   GL257878  44.579  38.911   5.857
 4463POPC   C1A57879  44.493  39.340   6.146
 4463POPC   D2A57880  44.439  39.564   6.517
 4463POPC   C3A57881  44.491  39.350   6.887
 4463POPC   C4A57882  44.613  39.440   7.289
 4463POPC   C1B57883  44.873  38.988   6.239
 4463POPC   C2B57884  44.868  38.998   6.700
 4463POPC   C3B57885  44.760  38.983   7.133
 4463POPC   C4B57886  44.345  39.028   7.366
 4464POPC   NC357887  42.392  34.027   5.312
 4464POPC   PO457888  42.476  33.396   5.615
 4464POPC   GL157889  42.423  33.832   5.786
 4464POPC   GL257890  42.694  34.131   5.765
 4464POPC   C1A57891  42.239  33.900   6.191
 4464POPC   D2A57892  42.050  33.731   6.573
 4464POPC   C3A57893  42.146  33.899   6.956
 4464POPC   C4A57894  42.246  33.622   7.281
 4464POPC   C1B57895  42.573  34.299   6.156
 4464POPC   C2B57896  42.410  34.206   6.569
 4464POPC   C3B57897  42.619  34.081   6.928
 4464POPC   C4B57898  42.707  33.954   7.313
 4465POPC   NC357899   3.661  10.374   5.300
 4465POPC   PO457900   3.425  11.017   5.402
 4465POPC   GL157901   3.482  10.603   5.757
 4465POPC   GL257902   3.813  10.378   5.806
 4465POPC   C1A57903   3.490  10.433   6.240
 4465POPC   D2A57904   3.581  10.545   6.710
 4465POPC   C3A57905   3.329  10.425   7.090
 4465POPC   C4A57906   3.182  10.732   7.433
 4465POPC   C1B57907   3.781  10.034   6.139
 4465POPC   C2B57908   3.616  10.002   6.546
 4465POPC   C3B57909   3.789  10.093   6.922
 4465POPC   C4B57910   3.732  10.200   7.316
 4466POPC   NC357911  40.753  34.858   5.571
 4466POPC   PO457912  41.025  34.180   5.526
 4466POPC   GL157913  40.905  34.438   5.849
 4466POPC   GL257914  40.546  34.430   5.844
 4466POPC   C1A57915  40.939  34.607   6.268
 4466POPC   D2A57916  40.861  34.398   6.649
 4466POPC   C3A57917  40.834  34.483   7.068
 4466POPC   C4A57918  40.768  34.269   7.440
 4466POPC   C1B57919  40.441  34.721   6.152
 4466POPC   C2B57920  40.269  34.749   6.538
 4466POPC   C3B57921  40.411  34.714   6.931
 4466POPC   C4B57922  40.460  34.887   7.308
 4467POPC   NC357923  18.067  40.328   5.295
 4467POPC   PO457924  18.182  39.778   5.682
 4467POPC   GL157925  18.180  40.210   5.782
 4467POPC   GL257926  18.514  40.330   5.680
 4467POPC   C1A57927  17.997  40.213   6.187
 4467POPC   D2A57928  17.974  39.809   6.448
 4467POPC   C3A57929  17.919  39.955   6.865
 4467POPC   C4A57930  18.075  39.712   7.189
 4467POPC   C1B57931  18.550  40.159   6.124
 4467POPC   C2B57932  18.367  40.105   6.546
 4467POPC   C3B57933  18.403  40.057   6.983
 4467POPC   C4B57934  18.452  40.365   7.253
 4468POPC   NC357935  14.442  22.449   5.482
 4468POPC   PO457936  14.755  21.780   5.421
 4468POPC   GL157937  14.635  22.062   5.779
 4468POPC   GL257938  14.257  22.071   5.826
 4468POPC   C1A57939  14.614  22.188   6.212
 4468POPC   D2A57940  14.526  22.405   6.572
 4468POPC   C3A57941  14.502  22.182   6.961
 4468POPC   C4A57942  14.743  22.074   7.280
 4468POPC   C1B57943  14.094  22.078   6.262
 4468POPC   C2B57944  14.027  22.249   6.673
 4468POPC   C3B57945  14.060  22.387   7.082
 4468POPC   C4B57946  14.083  22.081   7.381
 4469POPC   NC357947   6.500  33.329   5.330
 4469POPC   PO457948   6.636  32.659   5.343
 4469POPC   GL157949   6.760  32.784   5.756
 4469POPC   GL257950   6.579  33.064   5.773
 4469POPC   C1A57951   6.860  32.981   6.191
 4469POPC   D2A57952   6.847  32.762   6.556
 4469POPC   C3A57953   6.792  32.950   6.942
 4469POPC   C4A57954   6.694  32.651   7.195
 4469POPC   C1B57955   6.423  33.245   6.170
 4469POPC   C2B57956   6.448  33.116   6.584
 4469POPC   C3B57957   6.294  33.087   6.998
 4469POPC   C4B57958   6.558  33.322   7.263
 4470POPC   NC357959  34.453  43.527   5.281
 4470POPC   PO457960  34.830  42.997   5.379
 4470POPC   GL157961  34.597  43.066   5.776
 4470POPC   GL257962  34.321  43.320   5.756
 4470POPC   C1A57963  34.652  42.890   6.220
 4470POPC   D2A57964  34.739  42.704   6.676
 4470POPC   C3A57965  34.716  42.945   7.070
 4470POPC   C4A57966  34.841  43.380   7.123
 4470POPC   C1B57967  34.390  43.350   6.175
 4470POPC   C2B57968  34.362  43.151   6.567
 4470POPC   C3B57969  34.376  43.309   6.932
 4470POPC   C4B57970  34.297  43.210   7.323
 4471POPC   NC357971  22.976  30.288   5.342
 4471POPC   PO457972  22.600  30.766   5.191
 4471POPC   GL157973  22.771  30.649   5.651
 4471POPC   GL257974  23.123  30.559   5.753
 4471POPC   C1A57975  22.777  30.651   6.137
 4471POPC   D2A57976  22.660  30.930   6.494
 4471POPC   C3A57977  22.794  30.888   6.936
 4471POPC   C4A57978  22.917  30.438   7.030
 4471POPC   C1B57979  23.293  30.629   6.183
 4471POPC   C2B57980  23.132  30.704   6.618
 4471POPC   C3B57981  23.286  30.781   7.063
 4471POPC   C4B57982  23.294  30.687   7.523
 4472POPC   NC357983  11.981  42.277   5.211
 4472POPC   PO457984  12.062  42.934   5.477
 4472POPC   GL157985  11.921  42.606   5.808
 4472POPC   GL257986  12.013  42.280   5.733
 4472POPC   C1A57987  11.749  42.423   6.235
 4472POPC   D2A57988  12.017  42.343   6.617
 4472POPC   C3A57989  11.943  42.501   7.063
 4472POPC   C4A57990  12.155  42.492   7.494
 4472POPC   C1B57991  11.937  41.980   6.076
 4472POPC   C2B57992  11.744  41.905   6.497
 4472POPC   C3B57993  11.671  41.848   6.960
 4472POPC   C4B57994  11.942  42.040   7.288
 4473POPC   NC357995  42.436  19.736   5.086
 4473POPC   PO457996  42.340  19.882   5.701
 4473POPC   GL157997  42.366  20.162   5.997
 4473POPC   GL257998  42.020  20.155   6.024
 4473POPC   C1A57999  42.625  20.135   6.300
 4473POPC   D2A58000  42.603  19.837   6.604
 4473POPC   C3A58001  42.516  19.999   7.028
 4473POPC   C4A58002  42.168  19.819   7.283
 4473POPC   C1B58003  42.138  19.846   6.345
 4473POPC   C2B58004  42.081  19.919   6.766
 4473POPC   C3B58005  42.060  20.269   7.032
 4473POPC   C4B58006  41.786  20.173   7.323
 4474POPC   NC358007  32.464  32.401   5.485
 4474POPC   PO458008  31.991  31.837   5.455
 4474POPC   GL158009  32.082  32.140   5.720
 4474POPC   GL258010  32.412  32.051   5.841
 4474POPC   C1A58011  32.054  32.232   6.142
 4474POPC   D2A58012  32.231  32.078   6.488
 4474POPC   C3A58013  31.968  32.145   6.852
 4474POPC   C4A58014  32.034  32.043   7.263
 4474POPC   C1B58015  32.547  32.357   6.157
 4474POPC   C2B58016  32.695  32.354   6.580
 4474POPC   C3B58017  32.469  32.224   6.949
 4474POPC   C4B58018  32.257  32.477   7.234
 4475POPC   NC358019  26.462  27.743   5.503
 4475POPC   PO458020  26.962  27.426   5.176
 4475POPC   GL158021  26.897  27.467   5.694
 4475POPC   GL258022  26.750  27.771   5.903
 4475POPC   C1A58023  27.092  27.546   6.160
 4475POPC   D2A58024  26.890  27.843   6.484
 4475POPC   C3A58025  26.896  27.688   6.925
 4475POPC   C4A58026  27.045  27.744   7.334
 4475POPC   C1B58027  26.577  27.518   6.250
 4475POPC   C2B58028  26.456  27.604   6.672
 4475POPC   C3B58029  26.437  27.413   7.082
 4475POPC   C4B58030  26.462  27.560   7.502
 4476POPC   NC358031  19.099   2.433   5.575
 4476POPC   PO458032  19.282   1.848   5.259
 4476POPC   GL158033  19.019   1.929   5.672
 4476POPC   GL258034  19.284   2.056   5.878
 4476POPC   C1A58035  18.856   2.044   6.145
 4476POPC   D2A58036  18.954   1.916   6.589
 4476POPC   C3A58037  18.789   2.124   6.977
 4476POPC   C4A58038  18.831   2.027   7.441
 4476POPC   C1B58039  19.335   2.196   6.317
 4476POPC   C2B58040  19.446   1.984   6.725
 4476POPC   C3B58041  19.223   1.886   7.091
 4476POPC   C4B58042  19.276   1.811   7.526
 4477POPC   NC358043   0.516   2.019   5.385
 4477POPC   PO458044  44.863   2.033   5.552
 4477POPC   GL158045   0.076   1.881   5.933
 4477POPC   GL258046   0.421   1.900   5.899
 4477POPC   C1A58047   0.172   1.918   6.403
 4477POPC   D2A58048   0.471   2.030   6.722
 4477POPC   C3A58049   0.354   2.143   7.158
 4477POPC   C4A58050   0.200   2.178   7.601
 4477POPC   C1B58051   0.696   1.737   6.242
 4477POPC   C2B58052   0.661   1.556   6.635
 4477POPC   C3B58053   0.717   1.721   7.045
 4477POPC   C4B58054   0.540   1.785   7.478
 4478POPC   NC358055  19.966   5.291   5.599
 4478POPC   PO458056  19.498   4.842   5.361
 4478POPC   GL158057  19.641   4.919   5.811
 4478POPC   GL258058  20.014   4.855   5.907
 4478POPC   C1A58059  19.578   5.094   6.244
 4478POPC   D2A58060  19.632   4.916   6.655
 4478POPC   C3A58061  19.856   5.112   6.977
 4478POPC   C4A58062  19.611   5.078   7.348
 4478POPC   C1B58063  20.097   5.163   6.228
 4478POPC   C2B58064  19.907   5.428   6.531
 4478POPC   C3B58065  20.172   5.535   6.855
 4478POPC   C4B58066  20.217   5.374   7.259
 4479POPC   NC358067  37.073  33.253   5.354
 4479POPC   PO458068  36.733  32.662   5.355
 4479POPC   GL158069  36.989  32.833   5.758
 4479POPC   GL258070  37.121  33.151   5.836
 4479POPC   C1A58071  37.017  32.750   6.240
 4479POPC   D2A58072  36.662  32.782   6.566
 4479POPC   C3A58073  36.713  32.769   7.048
 4479POPC   C4A58074  37.098  32.777   7.240
 4479POPC   C1B58075  36.808  33.206   6.128
 4479POPC   C2B58076  36.966  33.216   6.543
 4479POPC   C3B58077  36.885  33.255   6.964
 4479POPC   C4B58078  36.759  33.313   7.375
 4480POPC   NC358079   4.479  37.771   5.279
 4480POPC   PO458080   4.044  37.425   5.557
 4480POPC   GL158081   4.436  37.529   5.806
 4480POPC   GL258082   4.206  37.652   5.987
 4480POPC   C1A58083   4.648  37.654   6.254
 4480POPC   D2A58084   4.659  37.766   6.737
 4480POPC   C3A58085   4.390  37.632   7.135
 4480POPC   C4A58086   4.465  37.662   7.623
 4480POPC   C1B58087   4.008  37.809   6.295
 4480POPC   C2B58088   4.128  37.794   6.682
 4480POPC   C3B58089   3.949  37.900   7.052
 4480POPC   C4B58090   3.994  37.817   7.455
 4481POPC   NC358091  17.507  34.902   5.361
 4481POPC   PO458092  17.198  34.318   5.279
 4481POPC   GL158093  17.157  34.550   5.685
 4481POPC   GL258094  17.460  34.727   5.848
 4481POPC   C1A58095  17.124  34.474   6.153
 4481POPC   D2A58096  17.377  34.605   6.512
 4481POPC   C3A58097  17.403  34.404   6.877
 4481POPC   C4A58098  17.377  34.686   7.218
 4481POPC   C1B58099  17.750  34.584   6.180
 4481POPC   C2B58100  17.881  34.481   6.608
 4481POPC   C3B58101  17.847  34.614   7.054
 4481POPC   C4B58102  17.828  34.800   7.469
 4482POPC   NC358103  31.766  37.910   5.396
 4482POPC   PO458104  31.156  37.476   5.309
 4482POPC   GL158105  31.412  37.574   5.669
 4482POPC   GL258106  31.336  37.896   5.756
 4482POPC   C1A58107  31.441  37.591   6.152
 4482POPC   D2A58108  31.689  37.727   6.538
 4482POPC   C3A58109  31.566  37.584   6.963
 4482POPC   C4A58110  31.157  37.451   7.098
 4482POPC   C1B58111  31.597  38.077   6.111
 4482POPC   C2B58112  31.493  38.206   6.539
 4482POPC   C3B58113  31.588  38.121   6.965
 4482POPC   C4B58114  31.276  37.965   7.240
 4483POPC   NC358115  38.924  33.447   5.424
 4483POPC   PO458116  39.046  32.810   5.465
 4483POPC   GL158117  39.257  32.941   5.804
 4483POPC   GL258118  38.949  33.096   5.882
 4483POPC   C1A58119  39.337  32.987   6.238
 4483POPC   D2A58120  39.370  32.782   6.637
 4483POPC   C3A58121  39.415  33.108   6.975
 4483POPC   C4A58122  39.239  33.057   7.376
 4483POPC   C1B58123  38.912  33.341   6.226
 4483POPC   C2B58124  39.074  33.277   6.615
 4483POPC   C3B58125  38.917  33.296   7.026
 4483POPC   C4B58126  38.864  33.400   7.465
 4484POPC   NC358127  37.922  21.228   5.433
 4484POPC   PO458128  37.746  21.818   5.233
 4484POPC   GL158129  37.578  21.529   5.638
 4484POPC   GL258130  37.858  21.479   5.905
 4484POPC   C1A58131  37.434  21.247   6.033
 4484POPC   D2A58132  37.376  21.299   6.509
 4484POPC   C3A58133  37.556  21.091   6.881
 4484POPC   C4A58134  37.429  20.898   7.288
 4484POPC   C1B58135  38.085  21.318   6.280
 4484POPC   C2B58136  37.962  21.410   6.706
 4484POPC   C3B58137  37.725  21.550   7.064
 4484POPC   C4B58138  37.687  21.421   7.486
 4485POPC   NC358139  26.820  41.951   5.619
 4485POPC   PO458140  26.570  41.302   5.395
 4485POPC   GL158141  26.838  41.351   5.760
 4485POPC   GL258142  27.157  41.479   5.661
 4485POPC   C1A58143  26.683  41.437   6.209
 4485POPC   D2A58144  26.476  41.411   6.622
 4485POPC   C3A58145  26.665  41.649   6.964
 4485POPC   C4A58146  26.776  41.604   7.416
 4485POPC   C1B58147  27.184  41.583   6.115
 4485POPC   C2B58148  27.323  41.707   6.540
 4485POPC   C3B58149  27.189  41.669   6.965
 4485POPC   C4B58150  27.281  41.585   7.386
 4486POPC   NC358151  33.971  38.419   5.366
 4486POPC   PO458152  33.433  38.115   5.369
 4486POPC   GL158153  33.456  38.393   5.732
 4486POPC   GL258154  33.832  38.425   5.856
 4486POPC   C1A58155  33.468  38.389   6.186
 4486POPC   D2A58156  33.819  38.262   6.424
 4486POPC   C3A58157  33.675  38.373   6.830
 4486POPC   C4A58158  33.580  38.379   7.257
 4486POPC   C1B58159  33.847  38.745   6.190
 4486POPC   C2B58160  34.053  38.683   6.597
 4486POPC   C3B58161  34.166  38.454   6.935
 4486POPC   C4B58162  34.045  38.586   7.329
 4487POPC   NC358163  11.523   8.333   5.380
 4487POPC   PO458164  11.154   7.828   5.439
 4487POPC   GL158165  11.169   8.200   5.731
 4487POPC   GL258166  11.486   8.358   5.888
 4487POPC   C1A58167  11.073   8.196   6.161
 4487POPC   D2A58168  11.249   8.023   6.552
 4487POPC   C3A58169  11.073   8.156   6.952
 4487POPC   C4A58170  11.117   8.402   7.366
 4487POPC   C1B58171  11.573   7.958   6.110
 4487POPC   C2B58172  11.773   7.844   6.512
 4487POPC   C3B58173  11.554   7.845   6.929
 4487POPC   C4B58174  11.371   7.990   7.327
 4488POPC   NC358175   2.885  21.091   5.747
 4488POPC   PO458176   2.521  21.305   5.192
 4488POPC   GL158177   2.565  21.484   5.640
 4488POPC   GL258178   2.918  21.578   5.809
 4488POPC   C1A58179   2.490  21.500   6.106
 4488POPC   D2A58180   2.403  21.649   6.530
 4488POPC   C3A58181   2.452  21.351   6.877
 4488POPC   C4A58182   2.558  21.501   7.267
 4488POPC   C1B58183   2.995  21.491   6.243
 4488POPC   C2B58184   2.920  21.758   6.540
 4488POPC   C3B58185   2.758  21.789   6.895
 4488POPC   C4B58186   2.952  21.821   7.249
 4489POPC   NC358187  19.682  19.482   5.617
 4489POPC   PO458188  19.656  18.998   5.061
 4489POPC   GL158189  19.515  18.983   5.604
 4489POPC   GL258190  19.806  19.009   5.835
 4489POPC   C1A58191  19.485  18.754   6.097
 4489POPC   D2A58192  19.548  18.936   6.530
 4489POPC   C3A58193  19.727  18.810   6.943
 4489POPC   C4A58194  19.640  19.002   7.354
 4489POPC   C1B58195  19.916  19.188   6.226
 4489POPC   C2B58196  20.026  19.133   6.649
 4489POPC   C3B58197  19.927  19.289   7.038
 4489POPC   C4B58198  20.125  19.240   7.425
 4490POPC   NC358199  34.186  34.501   5.739
 4490POPC   PO458200  33.562  34.587   5.426
 4490POPC   GL158201  33.701  34.647   5.821
 4490POPC   GL258202  33.719  34.268   5.847
 4490POPC   C1A58203  33.782  34.661   6.266
 4490POPC   D2A58204  33.721  34.857   6.662
 4490POPC   C3A58205  34.037  34.842   6.979
 4490POPC   C4A58206  34.050  34.681   7.424
 4490POPC   C1B58207  33.474  34.184   6.211
 4490POPC   C2B58208  33.452  34.400   6.600
 4490POPC   C3B58209  33.703  34.435   6.985
 4490POPC   C4B58210  33.559  34.530   7.374
 4491POPC   NC358211  43.812  43.755   5.297
 4491POPC   PO458212  43.921  44.388   5.293
 4491POPC   GL158213  43.706  44.135   5.638
 4491POPC   GL258214  43.983  43.963   5.732
 4491POPC   C1A58215  43.554  43.960   6.045
 4491POPC   D2A58216  43.715  44.026   6.482
 4491POPC   C3A58217  43.670  43.794   6.867
 4491POPC   C4A58218  43.842  44.098   7.172
 4491POPC   C1B58219  44.079  43.857   6.137
 4491POPC   C2B58220  44.102  43.666   6.525
 4491POPC   C3B58221  44.198  43.811   6.889
 4491POPC   C4B58222  44.115  43.649   7.245
 4492POPC   NC358223  19.694  29.782   5.448
 4492POPC   PO458224  20.086  30.217   5.422
 4492POPC   GL158225  20.004  30.031   5.839
 4492POPC   GL258226  19.631  30.038   5.888
 4492POPC   C1A58227  19.884  30.167   6.301
 4492POPC   D2A58228  19.830  30.212   6.749
 4492POPC   C3A58229  19.920  29.927   7.109
 4492POPC   C4A58230  19.708  29.943   7.503
 4492POPC   C1B58231  19.588  29.752   6.293
 4492POPC   C2B58232  19.512  29.776   6.774
 4492POPC   C3B58233  19.533  29.580   7.193
 4492POPC   C4B58234  19.647  29.404   7.636
 4493POPC   NC358235  32.807  39.785   5.379
 4493POPC   PO458236  33.152  40.359   5.378
 4493POPC   GL158237  33.136  40.086   5.701
 4493POPC   GL258238  32.813  40.103   5.797
 4493POPC   C1A58239  33.195  40.057   6.155
 4493POPC   D2A58240  33.142  39.909   6.564
 4493POPC   C3A58241  33.261  40.035   6.990
 4493POPC   C4A58242  33.418  39.711   7.274
 4493POPC   C1B58243  32.678  40.218   6.195
 4493POPC   C2B58244  32.643  39.952   6.548
 4493POPC   C3B58245  32.757  40.098   6.923
 4493POPC   C4B58246  32.715  40.338   7.266
 4494POPC   NC358247   3.170  23.001   5.330
 4494POPC   PO458248   2.616  22.769   5.306
 4494POPC   GL158249   2.766  23.010   5.675
 4494POPC   GL258250   2.949  22.743   5.751
 4494POPC   C1A58251   2.916  23.218   6.083
 4494POPC   D2A58252   3.056  23.105   6.541
 4494POPC   C3A58253   2.749  23.133   6.922
 4494POPC   C4A58254   2.634  23.070   7.362
 4494POPC   C1B58255   2.863  22.720   6.199
 4494POPC   C2B58256   2.766  22.660   6.635
 4494POPC   C3B58257   3.014  22.707   6.976
 4494POPC   C4B58258   3.059  22.799   7.382
 4495POPC   NC358259  44.160  14.208   5.348
 4495POPC   PO458260  43.491  14.125   5.544
 4495POPC   GL158261  43.874  14.282   5.754
 4495POPC   GL258262  43.854  14.039   5.963
 4495POPC   C1A58263  44.113  14.406   6.165
 4495POPC   D2A58264  43.893  14.409   6.557
 4495POPC   C3A58265  43.969  14.171   6.913
 4495POPC   C4A58266  44.010  14.495   7.182
 4495POPC   C1B58267  43.565  14.353   6.164
 4495POPC   C2B58268  43.414  14.585   6.534
 4495POPC   C3B58269  43.503  14.447   6.965
 4495POPC   C4B58270  43.626  14.168   7.311
 4496POPC   NC358271  40.069   7.190   5.468
 4496POPC   PO458272  39.870   7.791   5.678
 4496POPC   GL158273  39.991   7.466   5.900
 4496POPC   GL258274  39.709   7.234   5.878
 4496POPC   C1A58275  39.917   7.469   6.325
 4496POPC   D2A58276  39.700   7.510   6.688
 4496POPC   C3A58277  39.965   7.499   7.058
 4496POPC   C4A58278  40.214   7.187   7.239
 4496POPC   C1B58279  39.492   7.150   6.301
 4496POPC   C2B58280  39.433   7.071   6.753
 4496POPC   C3B58281  39.737   7.032   7.084
 4496POPC   C4B58282  39.831   6.937   7.549
 4497POPC   NC358283  10.904  14.127   5.317
 4497POPC   PO458284  10.256  14.488   5.448
 4497POPC   GL158285  10.501  14.444   5.800
 4497POPC   GL258286  10.546  14.112   5.786
 4497POPC   C1A58287  10.563  14.676   6.177
 4497POPC   D2A58288  10.695  14.533   6.571
 4497POPC   C3A58289  10.536  14.585   6.997
 4497POPC   C4A58290  10.776  14.423   7.358
 4497POPC   C1B58291  10.417  14.202   6.265
 4497POPC   C2B58292  10.396  14.155   6.732
 4497POPC   C3B58293  10.358  14.103   7.175
 4497POPC   C4B58294  10.312  14.320   7.566
 4498POPC   NC358295  20.986  26.907   5.452
 4498POPC   PO458296  20.351  26.606   5.419
 4498POPC   GL158297  20.542  26.861   5.719
 4498POPC   GL258298  20.778  26.612   5.805
 4498POPC   C1A58299  20.729  27.011   6.136
 4498POPC   D2A58300  20.641  27.106   6.597
 4498POPC   C3A58301  20.674  26.773   6.934
 4498POPC   C4A58302  20.922  26.597   7.293
 4498POPC   C1B58303  20.444  26.583   6.130
 4498POPC   C2B58304  20.462  26.516   6.532
 4498POPC   C3B58305  20.239  26.508   6.899
 4498POPC   C4B58306  20.446  26.411   7.250
 4499POPC   NC358307  43.810  12.398   5.299
 4499POPC   PO458308  43.997  13.005   5.296
 4499POPC   GL158309  43.847  12.787   5.662
 4499POPC   GL258310  44.151  12.698   5.854
 4499POPC   C1A58311  43.696  12.731   6.098
 4499POPC   D2A58312  43.640  12.934   6.494
 4499POPC   C3A58313  43.872  12.785   6.810
 4499POPC   C4A58314  43.748  12.845   7.193
 4499POPC   C1B58315  44.089  13.055   6.191
 4499POPC   C2B58316  44.135  13.219   6.615
 4499POPC   C3B58317  44.185  13.119   7.067
 4499POPC   C4B58318  44.410  12.747   7.150
 4500POPC   NC358319  30.243  34.305   5.479
 4500POPC   PO458320  29.694  34.618   5.336
 4500POPC   GL158321  29.952  34.718   5.769
 4500POPC   GL258322  30.211  34.507   5.937
 4500POPC   C1A58323  29.960  34.802   6.264
 4500POPC   D2A58324  29.786  34.624   6.683
 4500POPC   C3A58325  30.024  34.757   7.072
 4500POPC   C4A58326  30.264  35.120   7.012
 4500POPC   C1B58327  30.136  34.327   6.360
 4500POPC   C2B58328  30.207  34.343   6.806
 4500POPC   C3B58329  30.159  34.291   7.230
 4500POPC   C4B58330  30.111  34.278   7.640
 4501POPC   NC358331   5.035  44.707   5.396
 4501POPC   PO458332   5.303  44.146   5.533
 4501POPC   GL158333   5.159  44.548   5.861
 4501POPC   GL258334   4.922  44.897   5.840
 4501POPC   C1A58335   5.053  44.723   6.302
 4501POPC   D2A58336   4.817  44.794   6.699
 4501POPC   C3A58337   4.919  44.602   7.137
 4501POPC   C4A58338   4.844  44.431   7.582
 4501POPC   C1B58339   4.877   0.204   6.183
 4501POPC   C2B58340   4.937   0.294   6.637
 4501POPC   C3B58341   4.924   0.135   7.091
 4501POPC   C4B58342   5.186  44.920   7.453
 4502POPC   NC358343   9.160  27.113   5.515
 4502POPC   PO458344   9.523  26.690   5.126
 4502POPC   GL158345   9.621  26.697   5.596
 4502POPC   GL258346   9.884  26.911   5.729
 4502POPC   C1A58347   9.472  26.724   6.032
 4502POPC   D2A58348   9.612  26.621   6.451
 4502POPC   C3A58349   9.461  26.797   6.809
 4502POPC   C4A58350   9.625  26.734   7.206
 4502POPC   C1B58351   9.979  26.891   6.176
 4502POPC   C2B58352  10.063  26.863   6.618
 4502POPC   C3B58353  10.046  27.066   7.004
 4502POPC   C4B58354  10.046  26.939   7.401
 4503POPC   NC358355  18.200  43.417   5.271
 4503POPC   PO458356  18.472  44.043   5.401
 4503POPC   GL158357  18.362  44.067   5.821
 4503POPC   GL258358  18.464  43.713   5.826
 4503POPC   C1A58359  18.459  44.045   6.263
 4503POPC   D2A58360  18.216  43.816   6.572
 4503POPC   C3A58361  18.231  43.967   6.999
 4503POPC   C4A58362  17.848  43.953   7.273
 4503POPC   C1B58363  18.491  43.490   6.203
 4503POPC   C2B58364  18.396  43.313   6.614
 4503POPC   C3B58365  18.183  43.448   6.968
 4503POPC   C4B58366  18.247  43.626   7.376
 4504POPC   NC358367   9.918  23.927   5.381
 4504POPC   PO458368   9.293  23.696   5.362
 4504POPC   GL158369   9.625  23.708   5.746
 4504POPC   GL258370   9.918  23.487   5.766
 4504POPC   C1A58371   9.820  23.880   6.139
 4504POPC   D2A58372   9.725  24.061   6.538
 4504POPC   C3A58373   9.796  23.896   6.953
 4504POPC   C4A58374   9.738  23.966   7.393
 4504POPC   C1B58375   9.881  23.319   6.210
 4504POPC   C2B58376   9.844  23.500   6.647
 4504POPC   C3B58377   9.840  23.419   7.126
 4504POPC   C4B58378   9.844  23.502   7.578
 4505POPC   NC358379  16.957   6.354   5.206
 4505POPC   PO458380  16.664   6.843   5.507
 4505POPC   GL158381  16.749   6.759   5.898
 4505POPC   GL258382  16.948   6.461   5.770
 4505POPC   C1A58383  16.602   6.696   6.323
 4505POPC   D2A58384  16.728   6.842   6.681
 4505POPC   C3A58385  16.625   6.532   6.973
 4505POPC   C4A58386  16.357   6.537   7.290
 4505POPC   C1B58387  17.105   6.571   6.177
 4505POPC   C2B58388  17.207   6.812   6.476
 4505POPC   C3B58389  17.196   6.650   6.857
 4505POPC   C4B58390  17.160   6.430   7.237
 4506POPC   NC358391  43.555  14.604   5.454
 4506POPC   PO458392  42.984  14.373   5.327
 4506POPC   GL158393  43.098  14.447   5.800
 4506POPC   GL258394  43.176  14.120   5.939
 4506POPC   C1A58395  42.967  14.673   6.241
 4506POPC   D2A58396  42.979  14.850   6.709
 4506POPC   C3A58397  43.013  14.595   7.131
 4506POPC   C4A58398  42.888  14.531   7.614
 4506POPC   C1B58399  43.116  14.194   6.339
 4506POPC   C2B58400  43.069  14.262   6.732
 4506POPC   C3B58401  43.146  14.067   7.080
 4506POPC   C4B58402  43.165  14.136   7.504
 4507POPC   NC358403  29.762  24.470   5.444
 4507POPC   PO458404  30.144  24.981   5.362
 4507POPC   GL158405  30.107  24.682   5.773
 4507POPC   GL258406  30.008  24.312   5.885
 4507POPC   C1A58407  29.939  24.656   6.225
 4507POPC   D2A58408  29.813  24.738   6.676
 4507POPC   C3A58409  29.918  24.488   7.070
 4507POPC   C4A58410  30.269  24.260   7.288
 4507POPC   C1B58411  30.162  24.090   6.314
 4507POPC   C2B58412  30.133  24.073   6.811
 4507POPC   C3B58413  29.859  23.943   7.179
 4507POPC   C4B58414  29.525  23.868   7.527
 4508POPC   NC358415  26.389  30.152   5.378
 4508POPC   PO458416  25.763  29.756   5.473
 4508POPC   GL158417  26.076  29.944   5.754
 4508POPC   GL258418  26.374  29.749   5.711
 4508POPC   C1A58419  25.983  30.124   6.172
 4508POPC   D2A58420  25.850  30.253   6.560
 4508POPC   C3A58421  25.833  29.959   6.876
 4508POPC   C4A58422  25.749  30.018   7.281
 4508POPC   C1B58423  26.464  29.980   6.126
 4508POPC   C2B58424  26.389  30.205   6.523
 4508POPC   C3B58425  26.324  30.055   6.951
 4508POPC   C4B58426  26.287  29.804   7.348
 4509POPC   NC358427   7.076  28.373   5.275
 4509POPC   PO458428   6.390  28.354   5.466
 4509POPC   GL158429   6.635  28.209   5.825
 4509POPC   GL258430   6.906  28.469   5.833
 4509POPC   C1A58431   6.734  28.235   6.276
 4509POPC   D2A58432   6.661  28.472   6.664
 4509POPC   C3A58433   6.653  28.310   7.094
 4509POPC   C4A58434   6.725  28.079   7.486
 4509POPC   C1B58435   6.926  28.709   6.236
 4509POPC   C2B58436   7.089  28.777   6.671
 4509POPC   C3B58437   6.863  28.785   7.066
 4509POPC   C4B58438   6.926  28.543   7.480
 4510POPC   NC358439   6.787   0.123   5.524
 4510POPC   PO458440   7.082  44.539   5.528
 4510POPC   GL158441   7.326  44.810   5.847
 4510POPC   GL258442   7.667  44.980   5.762
 4510POPC   C1A58443   7.264  44.827   6.316
 4510POPC   D2A58444   7.318   0.040   6.725
 4510POPC   C3A58445   7.110  44.835   7.108
 4510POPC   C4A58446   7.237  44.530   7.427
 4510POPC   C1B58447   7.773  44.814   6.176
 4510POPC   C2B58448   7.699  44.706   6.624
 4510POPC   C3B58449   7.621  44.718   7.072
 4510POPC   C4B58450   7.858  44.593   7.442
 4511POPC   NC358451  34.058  11.642   5.232
 4511POPC   PO458452  33.485  11.284   5.212
 4511POPC   GL158453  33.730  11.400   5.592
 4511POPC   GL258454  33.910  11.116   5.689
 4511POPC   C1A58455  33.648  11.468   6.052
 4511POPC   D2A58456  33.593  11.576   6.497
 4511POPC   C3A58457  33.933  11.606   6.803
 4511POPC   C4A58458  33.827  11.756   7.219
 4511POPC   C1B58459  34.096  11.224   6.069
 4511POPC   C2B58460  33.870  11.146   6.439
 4511POPC   C3B58461  33.635  11.156   6.792
 4511POPC   C4B58462  33.794  11.244   7.167
 4512POPC   NC358463  10.623  43.950   5.241
 4512POPC   PO458464  10.156  43.564   5.554
 4512POPC   GL158465  10.343  43.797   5.815
 4512POPC   GL258466  10.467  44.105   5.691
 4512POPC   C1A58467  10.500  43.666   6.201
 4512POPC   D2A58468  10.629  43.413   6.536
 4512POPC   C3A58469  10.563  43.641   6.930
 4512POPC   C4A58470  10.479  43.784   7.354
 4512POPC   C1B58471  10.541  44.189   6.130
 4512POPC   C2B58472  10.406  44.070   6.570
 4512POPC   C3B58473  10.386  44.178   6.999
 4512POPC   C4B58474  10.757  44.330   7.206
 4513POPC   NC358475  19.873  19.407   5.086
 4513POPC   PO458476  19.595  19.915   5.456
 4513POPC   GL158477  19.815  19.911   5.856
 4513POPC   GL258478  20.158  19.991   5.840
 4513POPC   C1A58479  19.667  19.722   6.259
 4513POPC   D2A58480  19.606  19.475   6.644
 4513POPC   C3A58481  19.751  19.776   6.944
 4513POPC   C4A58482  19.945  19.711   7.342
 4513POPC   C1B58483  20.079  20.160   6.270
 4513POPC   C2B58484  20.125  20.076   6.725
 4513POPC   C3B58485  20.181  20.119   7.183
 4513POPC   C4B58486  20.059  20.169   7.670
 4514POPC   NC358487  21.635  14.170   5.364
 4514POPC   PO458488  21.239  14.676   5.453
 4514POPC   GL158489  21.565  14.520   5.775
 4514POPC   GL258490  21.853  14.720   5.846
 4514POPC   C1A58491  21.655  14.482   6.240
 4514POPC   D2A58492  21.507  14.512   6.661
 4514POPC   C3A58493  21.331  14.334   7.053
 4514POPC   C4A58494  20.914  14.185   7.235
 4514POPC   C1B58495  21.848  14.968   6.226
 4514POPC   C2B58496  21.662  15.027   6.652
 4514POPC   C3B58497  21.532  14.826   7.044
 4514POPC   C4B58498  21.620  14.601   7.421
 4515POPC   NC358499  34.919   0.905   5.459
 4515POPC   PO458500  34.286   1.196   5.319
 4515POPC   GL158501  34.349   1.009   5.681
 4515POPC   GL258502  34.596   1.225   5.784
 4515POPC   C1A58503  34.231   0.861   6.113
 4515POPC   D2A58504  34.165   1.034   6.521
 4515POPC   C3A58505  34.368   0.972   6.934
 4515POPC   C4A58506  34.529   1.128   7.341
 4515POPC   C1B58507  34.433   1.322   6.196
 4515POPC   C2B58508  34.596   1.312   6.632
 4515POPC   C3B58509  34.537   1.548   7.038
 4515POPC   C4B58510  34.636   1.594   7.507
 4516POPC   NC358511  19.873  23.903   5.423
 4516POPC   PO458512  19.296  23.463   5.613
 4516POPC   GL158513  19.656  23.586   5.833
 4516POPC   GL258514  19.999  23.534   5.751
 4516POPC   C1A58515  19.783  23.477   6.242
 4516POPC   D2A58516  19.681  23.503   6.683
 4516POPC   C3A58517  19.763  23.863   6.911
 4516POPC   C4A58518  19.823  23.564   7.219
 4516POPC   C1B58519  20.211  23.771   6.086
 4516POPC   C2B58520  20.099  23.778   6.525
 4516POPC   C3B58521  20.256  23.697   6.963
 4516POPC   C4B58522  20.375  23.981   7.332
 4517POPC   NC358523   6.985  11.040   5.253
 4517POPC   PO458524   6.472  11.504   5.479
 4517POPC   GL158525   6.692  11.467   5.883
 4517POPC   GL258526   7.019  11.529   5.826
 4517POPC   C1A58527   6.593  11.395   6.323
 4517POPC   D2A58528   6.592  11.117   6.705
 4517POPC   C3A58529   6.546  11.363   7.100
 4517POPC   C4A58530   6.431  11.375   7.547
 4517POPC   C1B58531   7.034  11.172   6.154
 4517POPC   C2B58532   7.189  10.992   6.563
 4517POPC   C3B58533   7.027  11.071   6.986
 4517POPC   C4B58534   7.020  11.483   7.201
 4518POPC   NC358535  37.473  34.619   5.617
 4518POPC   PO458536  37.997  34.983   5.417
 4518POPC   GL158537  37.950  34.701   5.803
 4518POPC   GL258538  37.909  34.318   5.807
 4518POPC   C1A58539  37.700  34.707   6.210
 4518POPC   D2A58540  37.805  34.838   6.611
 4518POPC   C3A58541  37.620  34.742   6.968
 4518POPC   C4A58542  37.531  34.617   7.351
 4518POPC   C1B58543  37.712  34.199   6.220
 4518POPC   C2B58544  37.520  34.368   6.611
 4518POPC   C3B58545  37.573  34.208   7.032
 4518POPC   C4B58546  37.831  34.139   7.410
 4519POPC   NC358547  36.972  30.216   5.395
 4519POPC   PO458548  36.327  30.109   5.577
 4519POPC   GL158549  36.678  30.029   5.834
 4519POPC   GL258550  37.031  29.956   5.835
 4519POPC   C1A58551  36.715  30.037   6.272
 4519POPC   D2A58552  36.906  30.027   6.650
 4519POPC   C3A58553  36.788  29.823   7.026
 4519POPC   C4A58554  36.915  30.180   7.291
 4519POPC   C1B58555  37.246  30.017   6.240
 4519POPC   C2B58556  37.348  29.785   6.602
 4519POPC   C3B58557  37.281  29.808   7.029
 4519POPC   C4B58558  37.078  29.686   7.436
 4520POPC   NC358559  16.496  24.722   5.464
 4520POPC   PO458560  17.004  24.287   5.265
 4520POPC   GL158561  16.908  24.262   5.709
 4520POPC   GL258562  16.580  24.090   5.806
 4520POPC   C1A58563  16.868  24.408   6.144
 4520POPC   D2A58564  16.734  24.472   6.586
 4520POPC   C3A58565  17.021  24.305   6.921
 4520POPC   C4A58566  17.180  24.548   7.269
 4520POPC   C1B58567  16.435  24.121   6.253
 4520POPC   C2B58568  16.286  24.209   6.684
 4520POPC   C3B58569  16.528  24.183   7.075
 4520POPC   C4B58570  16.448  24.044   7.492
 4521POPC   NC358571  44.164  18.739   5.395
 4521POPC   PO458572  43.736  19.269   5.200
 4521POPC   GL158573  43.675  19.186   5.695
 4521POPC   GL258574  43.787  18.856   5.732
 4521POPC   C1A58575  43.845  19.195   6.139
 4521POPC   D2A58576  43.999  18.952   6.499
 4521POPC   C3A58577  43.992  19.121   6.922
 4521POPC   C4A58578  43.785  19.330   7.227
 4521POPC   C1B58579  43.508  18.796   6.073
 4521POPC   C2B58580  43.565  18.661   6.495
 4521POPC   C3B58581  43.582  18.818   6.897
 4521POPC   C4B58582  43.579  18.569   7.247
 4522POPC   NC358583  20.682  23.388   5.247
 4522POPC   PO458584  20.382  23.977   5.345
 4522POPC   GL158585  20.690  23.753   5.637
 4522POPC   GL258586  20.906  23.941   5.854
 4522POPC   C1A58587  20.697  23.520   6.058
 4522POPC   D2A58588  20.544  23.556   6.486
 4522POPC   C3A58589  20.674  23.374   6.865
 4522POPC   C4A58590  20.688  23.514   7.283
 4522POPC   C1B58591  20.743  23.978   6.245
 4522POPC   C2B58592  20.783  24.098   6.637
 4522POPC   C3B58593  20.721  23.903   6.961
 4522POPC   C4B58594  20.955  23.937   7.324
 4523POPC   NC358595   7.194  30.297   5.433
 4523POPC   PO458596   7.671  29.743   5.294
 4523POPC   GL158597   7.488  29.803   5.717
 4523POPC   GL258598   7.758  29.614   5.846
 4523POPC   C1A58599   7.189  29.859   6.096
 4523POPC   D2A58600   7.118  29.668   6.506
 4523POPC   C3A58601   7.309  29.844   6.852
 4523POPC   C4A58602   7.122  30.243   6.945
 4523POPC   C1B58603   7.785  29.978   6.119
 4523POPC   C2B58604   7.895  30.071   6.566
 4523POPC   C3B58605   7.737  30.100   6.994
 4523POPC   C4B58606   7.751  29.837   7.351
 4524POPC   NC358607  28.129  29.218   5.454
 4524POPC   PO458608  28.696  29.498   5.625
 4524POPC   GL158609  28.683  29.212   5.945
 4524POPC   GL258610  28.434  28.975   5.836
 4524POPC   C1A58611  28.550  28.991   6.339
 4524POPC   D2A58612  28.356  29.147   6.718
 4524POPC   C3A58613  28.631  29.182   7.082
 4524POPC   C4A58614  28.664  28.966   7.505
 4524POPC   C1B58615  28.105  29.160   6.118
 4524POPC   C2B58616  27.928  29.375   6.491
 4524POPC   C3B58617  27.968  29.391   6.947
 4524POPC   C4B58618  28.146  29.054   7.225
 4525POPC   NC358619  25.146  44.015   5.240
 4525POPC   PO458620  25.760  43.844   5.539
 4525POPC   GL158621  25.434  43.835   5.796
 4525POPC   GL258622  25.122  44.029   5.766
 4525POPC   C1A58623  25.329  43.906   6.221
 4525POPC   D2A58624  25.059  43.785   6.562
 4525POPC   C3A58625  25.219  43.873   7.001
 4525POPC   C4A58626  25.442  43.637   7.385
 4525POPC   C1B58627  24.984  44.273   6.170
 4525POPC   C2B58628  25.226  44.302   6.566
 4525POPC   C3B58629  25.182  44.416   6.999
 4525POPC   C4B58630  25.030  44.211   7.358
 4526POPC   NC358631  13.190  23.523   5.086
 4526POPC   PO458632  12.909  24.040   5.399
 4526POPC   GL158633  12.802  23.801   5.790
 4526POPC   GL258634  12.513  23.940   5.932
 4526POPC   C1A58635  12.799  23.649   6.248
 4526POPC   D2A58636  12.863  23.464   6.677
 4526POPC   C3A58637  12.760  23.719   7.039
 4526POPC   C4A58638  12.859  23.682   7.484
 4526POPC   C1B58639  12.396  24.087   6.309
 4526POPC   C2B58640  12.605  24.080   6.691
 4526POPC   C3B58641  12.533  24.186   7.093
 4526POPC   C4B58642  12.458  23.979   7.439
 4527POPC   NC358643   3.589  43.530   5.491
 4527POPC   PO458644   3.764  44.116   5.399
 4527POPC   GL158645   3.460  44.089   5.774
 4527POPC   GL258646   3.362  43.787   5.894
 4527POPC   C1A58647   3.286  44.212   6.171
 4527POPC   D2A58648   3.615  44.231   6.509
 4527POPC   C3A58649   3.606  44.124   6.959
 4527POPC   C4A58650   3.362  44.189   7.303
 4527POPC   C1B58651   3.482  43.762   6.328
 4527POPC   C2B58652   3.293  43.779   6.736
 4527POPC   C3B58653   3.382  43.676   7.164
 4527POPC   C4B58654   3.580  43.811   7.568
 4528POPC   NC358655  36.595  27.495   5.323
 4528POPC   PO458656  36.017  27.597   5.251
 4528POPC   GL158657  36.025  27.536   5.715
 4528POPC   GL258658  36.378  27.596   5.825
 4528POPC   C1A58659  36.012  27.716   6.163
 4528POPC   D2A58660  36.161  27.606   6.597
 4528POPC   C3A58661  36.081  27.761   7.017
 4528POPC   C4A58662  35.749  27.794   7.291
 4528POPC   C1B58663  36.365  27.317   6.212
 4528POPC   C2B58664  36.423  27.181   6.687
 4528POPC   C3B58665  36.182  27.231   7.099
 4528POPC   C4B58666  36.173  26.965   7.476
 4529POPC   NC358667   3.370  32.556   5.116
 4529POPC   PO458668   3.345  31.979   5.420
 4529POPC   GL158669   3.576  32.100   5.806
 4529POPC   GL258670   3.632  32.423   5.767
 4529POPC   C1A58671   3.768  32.231   6.249
 4529POPC   D2A58672   3.960  32.294   6.708
 4529POPC   C3A58673   3.782  32.272   7.167
 4529POPC   C4A58674   3.547  32.144   7.546
 4529POPC   C1B58675   3.367  32.541   6.138
 4529POPC   C2B58676   3.500  32.558   6.567
 4529POPC   C3B58677   3.369  32.378   6.927
 4529POPC   C4B58678   3.343  32.540   7.322
 4530POPC   NC358679  13.672  22.686   5.100
 4530POPC   PO458680  13.801  22.074   5.473
 4530POPC   GL158681  13.695  22.078   5.901
 4530POPC   GL258682  13.445  22.367   5.867
 4530POPC   C1A58683  13.603  21.915   6.314
 4530POPC   D2A58684  13.538  21.720   6.694
 4530POPC   C3A58685  13.714  21.955   7.002
 4530POPC   C4A58686  13.571  22.253   7.232
 4530POPC   C1B58687  13.624  22.433   6.269
 4530POPC   C2B58688  13.520  22.328   6.673
 4530POPC   C3B58689  13.663  22.644   6.920
 4530POPC   C4B58690  13.597  22.742   7.342
 4531POPC   NC358691  10.549  36.644   5.242
 4531POPC   PO458692  10.134  36.089   5.282
 4531POPC   GL158693  10.381  36.270   5.593
 4531POPC   GL258694  10.674  36.051   5.655
 4531POPC   C1A58695  10.400  36.300   6.040
 4531POPC   D2A58696  10.371  36.317   6.493
 4531POPC   C3A58697  10.547  36.319   6.914
 4531POPC   C4A58698  10.337  36.062   7.220
 4531POPC   C1B58699  10.668  35.875   6.078
 4531POPC   C2B58700  10.386  35.786   6.418
 4531POPC   C3B58701  10.385  35.648   6.863
 4531POPC   C4B58702  10.727  35.680   7.147
 4532POPC   NC358703  19.825  31.279   5.366
 4532POPC   PO458704  20.125  31.876   5.506
 4532POPC   GL158705  19.883  31.600   5.761
 4532POPC   GL258706  20.161  31.515   5.970
 4532POPC   C1A58707  19.705  31.435   6.150
 4532POPC   D2A58708  19.963  31.372   6.518
 4532POPC   C3A58709  19.803  31.397   6.918
 4532POPC   C4A58710  19.757  31.166   7.248
 4532POPC   C1B58711  19.979  31.832   6.297
 4532POPC   C2B58712  19.755  31.870   6.723
 4532POPC   C3B58713  19.925  31.824   7.177
 4532POPC   C4B58714  20.023  31.928   7.645
 4533POPC   NC358715   8.721   9.166   5.368
 4533POPC   PO458716   9.402   8.966   5.388
 4533POPC   GL158717   9.153   8.831   5.769
 4533POPC   GL258718   8.769   8.858   5.815
 4533POPC   C1A58719   9.142   8.962   6.196
 4533POPC   D2A58720   8.833   9.057   6.506
 4533POPC   C3A58721   8.894   9.048   6.952
 4533POPC   C4A58722   9.073   8.665   7.078
 4533POPC   C1B58723   8.512   9.152   6.108
 4533POPC   C2B58724   8.340   9.166   6.562
 4533POPC   C3B58725   8.398   8.858   6.939
 4533POPC   C4B58726   8.611   8.790   7.353
 4534POPC   NC358727   9.006   0.595   5.338
 4534POPC   PO458728   8.555   0.161   5.600
 4534POPC   GL158729   8.941   0.293   5.760
 4534POPC   GL258730   8.786   0.636   5.785
 4534POPC   C1A58731   9.262   0.178   6.069
 4534POPC   D2A58732   9.189   0.345   6.487
 4534POPC   C3A58733   9.246   0.234   6.900
 4534POPC   C4A58734   9.039   0.260   7.292
 4534POPC   C1B58735   8.897   0.596   6.176
 4534POPC   C2B58736   8.763   0.636   6.571
 4534POPC   C3B58737   8.770   0.539   6.972
 4534POPC   C4B58738   8.809   0.745   7.335
 4535POPC   NC358739   8.199   3.814   5.322
 4535POPC   PO458740   8.569   3.300   5.404
 4535POPC   GL158741   8.229   3.489   5.724
 4535POPC   GL258742   8.072   3.825   5.810
 4535POPC   C1A58743   8.063   3.447   6.148
 4535POPC   D2A58744   8.332   3.297   6.459
 4535POPC   C3A58745   8.114   3.306   6.851
 4535POPC   C4A58746   7.949   3.657   7.114
 4535POPC   C1B58747   8.287   3.898   6.241
 4535POPC   C2B58748   8.264   3.787   6.698
 4535POPC   C3B58749   8.507   3.859   7.092
 4535POPC   C4B58750   8.421   3.567   7.408
 4536POPC   NC358751   0.466   9.313   5.437
 4536POPC   PO458752   0.176   8.681   5.425
 4536POPC   GL158753   0.509   8.844   5.735
 4536POPC   GL258754   0.504   9.158   5.914
 4536POPC   C1A58755   0.819   8.824   6.113
 4536POPC   D2A58756   0.733   9.028   6.529
 4536POPC   C3A58757   0.423   8.877   6.818
 4536POPC   C4A58758   0.508   8.896   7.264
 4536POPC   C1B58759   0.378   9.319   6.315
 4536POPC   C2B58760   0.165   9.349   6.683
 4536POPC   C3B58761   0.286   9.315   7.105
 4536POPC   C4B58762   0.113   9.160   7.491
 4537POPC   NC358763  33.510  16.217   5.496
 4537POPC   PO458764  34.151  16.162   5.512
 4537POPC   GL158765  33.913  16.061   5.894
 4537POPC   GL258766  33.603  15.828   5.835
 4537POPC   C1A58767  34.133  15.917   6.302
 4537POPC   D2A58768  34.040  15.821   6.746
 4537POPC   C3A58769  33.791  16.146   6.959
 4537POPC   C4A58770  33.912  16.378   7.342
 4537POPC   C1B58771  33.622  15.817   6.292
 4537POPC   C2B58772  33.567  15.639   6.691
 4537POPC   C3B58773  33.455  15.672   7.082
 4537POPC   C4B58774  33.864  15.725   7.232
 4538POPC   NC358775  30.053  23.515   5.491
 4538POPC   PO458776  30.167  24.198   5.411
 4538POPC   GL158777  30.246  23.874   5.796
 4538POPC   GL258778  29.891  23.793   5.894
 4538POPC   C1A58779  30.230  23.580   6.198
 4538POPC   D2A58780  30.008  23.538   6.635
 4538POPC   C3A58781  30.168  23.503   7.040
 4538POPC   C4A58782  30.338  23.768   7.307
 4538POPC   C1B58783  29.689  23.541   6.240
 4538POPC   C2B58784  29.550  23.340   6.652
 4538POPC   C3B58785  29.610  23.491   7.094
 4538POPC   C4B58786  29.847  23.483   7.476
 4539POPC   NC358787  36.068  35.459   5.121
 4539POPC   PO458788  36.400  34.992   5.429
 4539POPC   GL158789  36.187  35.295   5.690
 4539POPC   GL258790  35.909  35.217   5.808
 4539POPC   C1A58791  36.234  35.333   6.170
 4539POPC   D2A58792  36.249  35.131   6.589
 4539POPC   C3A58793  36.446  35.377   6.920
 4539POPC   C4A58794  36.439  35.181   7.280
 4539POPC   C1B58795  35.716  35.421   6.161
 4539POPC   C2B58796  35.752  35.252   6.571
 4539POPC   C3B58797  35.941  35.379   6.952
 4539POPC   C4B58798  35.926  35.217   7.341
 4540POPC   NC358799   4.480  12.361   5.433
 4540POPC   PO458800   4.187  11.735   5.384
 4540POPC   GL158801   4.180  11.980   5.725
 4540POPC   GL258802   4.465  12.128   5.884
 4540POPC   C1A58803   4.041  11.947   6.113
 4540POPC   D2A58804   4.336  11.986   6.436
 4540POPC   C3A58805   4.252  12.075   6.829
 4540POPC   C4A58806   4.177  12.107   7.243
 4540POPC   C1B58807   4.687  12.327   6.216
 4540POPC   C2B58808   4.788  12.168   6.628
 4540POPC   C3B58809   4.759  12.485   6.939
 4540POPC   C4B58810   4.566  12.435   7.317
 4541POPC   NC358811   6.172  33.953   5.337
 4541POPC   PO458812   6.822  33.648   5.275
 4541POPC   GL158813   6.602  33.803   5.618
 4541POPC   GL258814   6.467  33.559   5.784
 4541POPC   C1A58815   6.717  33.906   6.070
 4541POPC   D2A58816   6.611  33.959   6.516
 4541POPC   C3A58817   6.863  33.968   6.834
 4541POPC   C4A58818   6.823  33.765   7.209
 4541POPC   C1B58819   6.895  33.444   5.959
 4541POPC   C2B58820   6.977  33.567   6.401
 4541POPC   C3B58821   6.804  33.450   6.810
 4541POPC   C4B58822   7.077  33.311   7.183
 4542POPC   NC358823   5.981  27.170   5.456
 4542POPC   PO458824   5.469  26.663   5.418
 4542POPC   GL158825   5.632  26.899   5.796
 4542POPC   GL258826   5.985  26.906   5.895
 4542POPC   C1A58827   5.718  27.257   6.103
 4542POPC   D2A58828   5.831  27.334   6.520
 4542POPC   C3A58829   5.750  26.996   6.760
 4542POPC   C4A58830   6.005  26.880   7.098
 4542POPC   C1B58831   5.860  26.750   6.304
 4542POPC   C2B58832   5.963  26.527   6.703
 4542POPC   C3B58833   6.343  26.472   6.942
 4542POPC   C4B58834   6.385  26.642   7.344
 4543POPC   NC358835   9.302  10.816   5.297
 4543POPC   PO458836   8.917  10.321   5.301
 4543POPC   GL158837   8.950  10.690   5.661
 4543POPC   GL258838   9.247  10.774   5.816
 4543POPC   C1A58839   8.820  10.757   6.134
 4543POPC   D2A58840   9.006  10.661   6.576
 4543POPC   C3A58841   8.935  10.293   6.847
 4543POPC   C4A58842   8.931  10.245   7.329
 4543POPC   C1B58843   9.401  10.792   6.253
 4543POPC   C2B58844   9.529  10.650   6.688
 4543POPC   C3B58845   9.344  10.494   7.070
 4543POPC   C4B58846   8.969  10.725   7.157
 4544POPC   NC358847  27.203   1.394   5.765
 4544POPC   PO458848  26.660   1.333   5.453
 4544POPC   GL158849  26.737   1.249   5.897
 4544POPC   GL258850  26.438   1.418   5.938
 4544POPC   C1A58851  26.890   1.240   6.359
 4544POPC   D2A58852  26.608   1.166   6.730
 4544POPC   C3A58853  26.864   0.968   7.042
 4544POPC   C4A58854  26.919   0.819   7.460
 4544POPC   C1B58855  26.440   1.468   6.337
 4544POPC   C2B58856  26.575   1.696   6.701
 4544POPC   C3B58857  26.808   1.506   7.060
 4544POPC   C4B58858  26.639   1.246   7.385
 4545POPC   NC358859   2.957  24.603   5.391
 4545POPC   PO458860   2.432  24.937   5.556
 4545POPC   GL158861   2.722  24.678   5.820
 4545POPC   GL258862   2.790  24.288   5.757
 4545POPC   C1A58863   2.892  24.677   6.196
 4545POPC   D2A58864   2.938  24.530   6.596
 4545POPC   C3A58865   2.537  24.549   6.807
 4545POPC   C4A58866   2.624  24.601   7.244
 4545POPC   C1B58867   2.731  24.112   6.163
 4545POPC   C2B58868   2.743  24.042   6.588
 4545POPC   C3B58869   2.729  24.120   7.024
 4545POPC   C4B58870   2.428  24.150   7.350
 4546POPC   NC358871  21.833  27.840   5.364
 4546POPC   PO458872  22.367  27.558   5.444
 4546POPC   GL158873  22.169  27.698   5.827
 4546POPC   GL258874  21.971  28.013   5.813
 4546POPC   C1A58875  22.105  27.570   6.266
 4546POPC   D2A58876  22.347  27.518   6.669
 4546POPC   C3A58877  22.182  27.556   7.080
 4546POPC   C4A58878  22.352  27.662   7.494
 4546POPC   C1B58879  21.815  28.014   6.221
 4546POPC   C2B58880  21.949  27.885   6.637
 4546POPC   C3B58881  21.949  27.999   7.051
 4546POPC   C4B58882  21.859  27.788   7.461
 4547POPC   NC358883  25.425   9.150   5.553
 4547POPC   PO458884  24.907   8.696   5.351
 4547POPC   GL158885  25.070   8.812   5.724
 4547POPC   GL258886  24.959   9.163   5.744
 4547POPC   C1A58887  25.189   8.657   6.145
 4547POPC   D2A58888  25.380   8.814   6.523
 4547POPC   C3A58889  25.177   8.750   6.918
 4547POPC   C4A58890  25.334   8.734   7.348
 4547POPC   C1B58891  25.133   9.163   6.141
 4547POPC   C2B58892  25.191   9.315   6.538
 4547POPC   C3B58893  25.377   9.221   6.912
 4547POPC   C4B58894  25.100   9.192   7.249
 4548POPC   NC358895  33.404  18.478   5.624
 4548POPC   PO458896  33.898  18.370   5.247
 4548POPC   GL158897  33.828  18.121   5.669
 4548POPC   GL258898  33.556  17.911   5.834
 4548POPC   C1A58899  33.874  18.263   6.116
 4548POPC   D2A58900  33.790  18.556   6.465
 4548POPC   C3A58901  33.820  18.402   6.900
 4548POPC   C4A58902  33.564  18.570   7.228
 4548POPC   C1B58903  33.394  18.102   6.230
 4548POPC   C2B58904  33.414  18.206   6.663
 4548POPC   C3B58905  33.408  18.095   7.109
 4548POPC   C4B58906  33.795  18.121   7.368
 4549POPC   NC358907  13.754  10.952   5.520
 4549POPC   PO458908  13.682  11.608   5.552
 4549POPC   GL158909  13.544  11.318   5.863
 4549POPC   GL258910  13.297  11.023   5.783
 4549POPC   C1A58911  13.636  11.402   6.294
 4549POPC   D2A58912  13.877  11.365   6.672
 4549POPC   C3A58913  13.640  11.156   6.983
 4549POPC   C4A58914  13.438  11.367   7.276
 4549POPC   C1B58915  13.473  10.878   6.155
 4549POPC   C2B58916  13.449  10.982   6.558
 4549POPC   C3B58917  13.159  10.997   6.916
 4549POPC   C4B58918  13.316  10.875   7.283
 4550POPC   NC358919  33.224  33.291   5.484
 4550POPC   PO458920  32.781  32.766   5.525
 4550POPC   GL158921  33.077  32.929   5.815
 4550POPC   GL258922  32.872  33.230   5.903
 4550POPC   C1A58923  33.208  33.071   6.218
 4550POPC   D2A58924  33.044  33.252   6.590
 4550POPC   C3A58925  33.200  33.132   6.973
 4550POPC   C4A58926  33.417  33.384   7.243
 4550POPC   C1B58927  32.626  33.189   6.322
 4550POPC   C2B58928  32.584  33.255   6.807
 4550POPC   C3B58929  32.739  33.104   7.177
 4550POPC   C4B58930  32.950  32.717   7.167
 4551POPC   NC358931  10.181  33.760   5.536
 4551POPC   PO458932  10.828  33.870   5.547
 4551POPC   GL158933  10.584  33.826   5.875
 4551POPC   GL258934  10.420  34.163   5.834
 4551POPC   C1A58935  10.758  33.715   6.279
 4551POPC   D2A58936  11.061  33.666   6.605
 4551POPC   C3A58937  10.805  33.755   6.964
 4551POPC   C4A58938  10.458  33.499   7.097
 4551POPC   C1B58939  10.379  34.063   6.271
 4551POPC   C2B58940  10.573  34.143   6.671
 4551POPC   C3B58941  10.372  34.069   7.061
 4551POPC   C4B58942  10.208  34.231   7.464
 4552POPC   NC358943  18.372   1.017   5.417
 4552POPC   PO458944  18.044   1.544   5.489
 4552POPC   GL158945  18.284   1.324   5.840
 4552POPC   GL258946  18.108   1.012   5.864
 4552POPC   C1A58947  18.479   1.096   6.226
 4552POPC   D2A58948  18.633   0.953   6.641
 4552POPC   C3A58949  18.517   1.201   7.039
 4552POPC   C4A58950  18.254   1.258   7.409
 4552POPC   C1B58951  17.976   1.194   6.276
 4552POPC   C2B58952  18.146   1.140   6.697
 4552POPC   C3B58953  18.153   0.855   7.092
 4552POPC   C4B58954  17.924   0.889   7.490
 4553POPC   NC358955   0.502  17.956   5.484
 4553POPC   PO458956   0.456  18.542   5.108
 4553POPC   GL158957   0.445  18.677   5.564
 4553POPC   GL258958   0.769  18.591   5.750
 4553POPC   C1A58959   0.333  18.518   5.995
 4553POPC   D2A58960   0.360  18.261   6.401
 4553POPC   C3A58961   0.481  18.234   6.840
 4553POPC   C4A58962   0.422  18.261   7.287
 4553POPC   C1B58963   0.810  18.454   6.217
 4553POPC   C2B58964   0.923  18.450   6.679
 4553POPC   C3B58965   0.844  18.500   7.146
 4553POPC   C4B58966   0.813  18.312   7.594
 4554POPC   NC358967   4.504  24.225   5.510
 4554POPC   PO458968   4.015  23.843   5.204
 4554POPC   GL158969   4.067  23.890   5.717
 4554POPC   GL258970   4.138  23.540   5.917
 4554POPC   C1A58971   4.171  23.940   6.198
 4554POPC   D2A58972   4.564  23.985   6.476
 4554POPC   C3A58973   4.488  23.970   6.937
 4554POPC   C4A58974   4.360  23.898   7.360
 4554POPC   C1B58975   4.058  23.437   6.325
 4554POPC   C2B58976   4.221  23.642   6.663
 4554POPC   C3B58977   4.003  23.721   7.019
 4554POPC   C4B58978   3.892  23.289   7.050
 4555POPC   NC358979  38.862  21.506   5.575
 4555POPC   PO458980  38.193  21.610   5.559
 4555POPC   GL158981  38.400  21.364   5.851
 4555POPC   GL258982  38.567  21.646   5.966
 4555POPC   C1A58983  38.618  21.229   6.248
 4555POPC   D2A58984  38.454  21.184   6.672
 4555POPC   C3A58985  38.108  20.917   6.764
 4555POPC   C4A58986  37.987  21.112   7.146
 4555POPC   C1B58987  38.912  21.657   6.256
 4555POPC   C2B58988  38.913  21.910   6.642
 4555POPC   C3B58989  38.801  21.753   7.046
 4555POPC   C4B58990  38.659  21.357   7.160
 4556POPC   NC358991  22.936  37.878   5.078
 4556POPC   PO458992  22.950  37.495   5.681
 4556POPC   GL158993  22.994  37.855   5.954
 4556POPC   GL258994  22.660  38.007   5.985
 4556POPC   C1A58995  22.997  37.772   6.401
 4556POPC   D2A58996  22.771  37.544   6.732
 4556POPC   C3A58997  22.974  37.359   7.092
 4556POPC   C4A58998  22.927  37.437   7.532
 4556POPC   C1B58999  22.895  38.260   6.318
 4556POPC   C2B59000  22.887  38.124   6.769
 4556POPC   C3B59001  23.016  37.863   7.133
 4556POPC   C4B59002  23.011  38.007   7.580
 4557POPC   NC359003  19.447  24.829   5.331
 4557POPC   PO459004  19.943  25.263   5.327
 4557POPC   GL159005  19.962  25.290   5.780
 4557POPC   GL259006  19.674  25.447   5.831
 4557POPC   C1A59007  19.943  25.074   6.212
 4557POPC   D2A59008  19.693  24.967   6.606
 4557POPC   C3A59009  19.850  25.182   6.954
 4557POPC   C4A59010  19.846  25.169   7.386
 4557POPC   C1B59011  19.518  25.356   6.252
 4557POPC   C2B59012  19.542  25.492   6.693
 4557POPC   C3B59013  19.495  25.502   7.166
 4557POPC   C4B59014  19.533  25.537   7.647
 4558POPC   NC359015  13.133  32.733   5.470
 4558POPC   PO459016  12.852  33.386   5.270
 4558POPC   GL159017  12.873  33.106   5.694
 4558POPC   GL259018  13.177  33.104   5.926
 4558POPC   C1A59019  12.720  32.924   6.087
 4558POPC   D2A59020  12.605  32.797   6.497
 4558POPC   C3A59021  12.790  32.896   6.878
 4558POPC   C4A59022  12.542  32.893   7.242
 4558POPC   C1B59023  12.894  33.388   6.240
 4558POPC   C2B59024  12.849  33.402   6.740
 4558POPC   C3B59025  12.836  33.293   7.217
 4558POPC   C4B59026  13.011  33.436   7.650
 4559POPC   NC359027  33.353  40.729   5.550
 4559POPC   PO459028  32.868  41.061   5.442
 4559POPC   GL159029  33.013  40.969   5.829
 4559POPC   GL259030  32.957  40.600   5.839
 4559POPC   C1A59031  32.885  40.922   6.246
 4559POPC   D2A59032  33.131  40.918   6.599
 4559POPC   C3A59033  32.915  40.989   6.961
 4559POPC   C4A59034  32.870  40.823   7.366
 4559POPC   C1B59035  33.239  40.563   6.187
 4559POPC   C2B59036  33.059  40.398   6.551
 4559POPC   C3B59037  33.101  40.523   6.967
 4559POPC   C4B59038  33.208  40.440   7.378
 4560POPC   NC359039  19.188  23.870   5.441
 4560POPC   PO459040  18.523  24.032   5.419
 4560POPC   GL159041  18.776  23.780   5.757
 4560POPC   GL259042  18.585  23.475   5.881
 4560POPC   C1A59043  19.172  23.941   6.080
 4560POPC   D2A59044  19.307  23.694   6.413
 4560POPC   C3A59045  19.256  23.779   6.859
 4560POPC   C4A59046  19.393  23.827   7.285
 4560POPC   C1B59047  18.819  23.612   6.232
 4560POPC   C2B59048  18.828  23.550   6.653
 4560POPC   C3B59049  18.900  23.454   7.034
 4560POPC   C4B59050  18.829  23.758   7.318
 4561POPC   NC359051  22.880  44.362   5.474
 4561POPC   PO459052  23.181   0.020   5.465
 4561POPC   GL159053  22.998  44.821   5.847
 4561POPC   GL259054  22.980  44.445   5.958
 4561POPC   C1A59055  23.170  44.823   6.264
 4561POPC   D2A59056  23.401  44.913   6.623
 4561POPC   C3A59057  23.161  44.816   6.934
 4561POPC   C4A59058  22.805  44.712   6.994
 4561POPC   C1B59059  22.729  44.412   6.301
 4561POPC   C2B59060  22.706  44.280   6.746
 4561POPC   C3B59061  22.670  44.305   7.241
 4561POPC   C4B59062  22.715  44.306   7.732
 4562POPC   NC359063   6.361  22.312   5.549
 4562POPC   PO459064   6.916  22.210   5.146
 4562POPC   GL159065   7.015  22.161   5.668
 4562POPC   GL259066   6.750  22.332   5.899
 4562POPC   C1A59067   6.976  21.905   6.070
 4562POPC   D2A59068   7.043  22.044   6.499
 4562POPC   C3A59069   6.706  22.135   6.826
 4562POPC   C4A59070   6.825  22.237   7.253
 4562POPC   C1B59071   6.635  22.304   6.319
 4562POPC   C2B59072   6.287  22.161   6.539
 4562POPC   C3B59073   6.113  22.266   6.909
 4562POPC   C4B59074   6.321  22.273   7.277
 4563POPC   NC359075  23.836  30.786   5.228
 4563POPC   PO459076  23.435  30.266   5.419
 4563POPC   GL159077  23.627  30.630   5.725
 4563POPC   GL259078  23.957  30.620   5.726
 4563POPC   C1A59079  23.783  30.796   6.183
 4563POPC   D2A59080  23.639  30.762   6.653
 4563POPC   C3A59081  23.727  31.045   7.042
 4563POPC   C4A59082  23.693  31.012   7.506
 4563POPC   C1B59083  24.077  30.364   6.083
 4563POPC   C2B59084  24.097  30.312   6.539
 4563POPC   C3B59085  24.016  30.524   6.932
 4563POPC   C4B59086  23.718  30.571   7.253
 4564POPC   NC359087  42.269  31.746   5.309
 4564POPC   PO459088  42.603  31.179   5.399
 4564POPC   GL159089  42.393  31.355   5.810
 4564POPC   GL259090  42.075  31.552   5.846
 4564POPC   C1A59091  42.321  31.268   6.275
 4564POPC   D2A59092  42.609  31.252   6.639
 4564POPC   C3A59093  42.498  31.208   7.120
 4564POPC   C4A59094  42.323  31.330   7.538
 4564POPC   C1B59095  42.073  31.711   6.279
 4564POPC   C2B59096  42.270  31.632   6.710
 4564POPC   C3B59097  42.251  31.681   7.161
 4564POPC   C4B59098  42.152  31.793   7.604
 4565POPC   NC359099  43.484  39.107   5.430
 4565POPC   PO459100  42.876  39.381   5.559
 4565POPC   GL159101  43.130  39.208   5.812
 4565POPC   GL259102  43.295  39.495   5.838
 4565POPC   C1A59103  43.101  38.931   6.170
 4565POPC   D2A59104  43.164  38.848   6.625
 4565POPC   C3A59105  42.989  39.146   6.907
 4565POPC   C4A59106  42.657  39.080   7.181
 4565POPC   C1B59107  42.966  39.437   6.244
 4565POPC   C2B59108  42.889  39.620   6.684
 4565POPC   C3B59109  42.840  39.586   7.147
 4565POPC   C4B59110  43.196  39.656   7.349
 4566POPC   NC359111  19.069  22.213   5.256
 4566POPC   PO459112  19.635  22.501   5.557
 4566POPC   GL159113  19.266  22.312   5.817
 4566POPC   GL259114  18.970  22.077   5.745
 4566POPC   C1A59115  19.196  22.285   6.264
 4566POPC   D2A59116  19.470  22.401   6.613
 4566POPC   C3A59117  19.239  22.250   6.955
 4566POPC   C4A59118  19.410  21.871   7.135
 4566POPC   C1B59119  18.717  22.108   6.126
 4566POPC   C2B59120  18.794  21.988   6.558
 4566POPC   C3B59121  18.907  21.852   6.979
 4566POPC   C4B59122  18.993  21.995   7.411
 4567POPC   NC359123  21.487  12.257   5.450
 4567POPC   PO459124  21.059  11.810   5.232
 4567POPC   GL159125  21.207  11.918   5.697
 4567POPC   GL259126  21.085  11.637   5.875
 4567POPC   C1A59127  21.489  12.124   6.072
 4567POPC   D2A59128  21.520  11.985   6.518
 4567POPC   C3A59129  21.577  12.135   6.948
 4567POPC   C4A59130  21.573  11.897   7.361
 4567POPC   C1B59131  21.073  11.910   6.240
 4567POPC   C2B59132  21.007  11.992   6.663
 4567POPC   C3B59133  21.174  11.848   7.030
 4567POPC   C4B59134  21.067  11.919   7.440
 4568POPC   NC359135  38.901  16.716   5.480
 4568POPC   PO459136  39.230  17.276   5.483
 4568POPC   GL159137  39.356  16.938   5.788
 4568POPC   GL259138  39.436  16.588   5.690
 4568POPC   C1A59139  39.112  16.834   6.167
 4568POPC   D2A59140  39.076  17.020   6.582
 4568POPC   C3A59141  39.044  16.874   7.001
 4568POPC   C4A59142  39.171  16.988   7.430
 4568POPC   C1B59143  39.415  16.413   6.119
 4568POPC   C2B59144  39.427  16.638   6.526
 4568POPC   C3B59145  39.344  16.466   6.913
 4568POPC   C4B59146  39.174  16.475   7.319
 4569POPC   NC359147  20.738   5.768   5.178
 4569POPC   PO459148  20.117   5.975   5.344
 4569POPC   GL159149  20.301   5.741   5.739
 4569POPC   GL259150  20.667   5.768   5.753
 4569POPC   C1A59151  20.385   5.782   6.220
 4569POPC   D2A59152  20.561   5.948   6.639
 4569POPC   C3A59153  20.423   5.901   7.107
 4569POPC   C4A59154  20.538   5.680   7.488
 4569POPC   C1B59155  20.901   5.845   6.147
 4569POPC   C2B59156  20.989   5.652   6.554
 4569POPC   C3B59157  20.912   5.768   6.978
 4569POPC   C4B59158  21.046   5.634   7.353
 4570POPC   NC359159  43.013  28.487   5.449
 4570POPC   PO459160  43.254  27.908   5.510
 4570POPC   GL159161  43.078  28.169   5.839
 4570POPC   GL259162  42.727  28.348   5.855
 4570POPC   C1A59163  43.155  28.286   6.254
 4570POPC   D2A59164  43.319  28.348   6.661
 4570POPC   C3A59165  43.228  28.712   6.904
 4570POPC   C4A59166  43.087  28.578   7.311
 4570POPC   C1B59167  42.712  28.058   6.197
 4570POPC   C2B59168  42.916  27.960   6.583
 4570POPC   C3B59169  42.915  28.192   6.967
 4570POPC   C4B59170  42.648  28.279   7.326
 4571POPC   NC359171   0.102  36.158   5.377
 4571POPC   PO459172  44.430  36.236   5.244
 4571POPC   GL159173  44.665  36.132   5.639
 4571POPC   GL259174  44.424  36.018   5.833
 4571POPC   C1A59175  44.894  36.097   6.058
 4571POPC   D2A59176  44.926  36.245   6.481
 4571POPC   C3A59177  44.733  35.968   6.780
 4571POPC   C4A59178  44.664  36.078   7.197
 4571POPC   C1B59179  44.306  35.917   6.265
 4571POPC   C2B59180  44.205  35.849   6.705
 4571POPC   C3B59181  44.185  36.192   6.988
 4571POPC   C4B59182  44.277  36.310   7.399
 4572POPC   NC359183   0.215  43.097   5.303
 4572POPC   PO459184   0.557  43.628   5.589
 4572POPC   GL159185   0.385  43.261   5.854
 4572POPC   GL259186   0.077  43.044   5.781
 4572POPC   C1A59187   0.464  43.141   6.299
 4572POPC   D2A59188   0.455  43.295   6.739
 4572POPC   C3A59189   0.633  43.304   7.135
 4572POPC   C4A59190   0.401  43.193   7.469
 4572POPC   C1B59191   0.104  42.789   6.158
 4572POPC   C2B59192   0.009  42.558   6.535
 4572POPC   C3B59193   0.020  42.679   6.961
 4572POPC   C4B59194   0.432  42.840   7.073
 4573POPC   NC359195  23.228  24.077   5.313
 4573POPC   PO459196  22.688  23.809   5.501
 4573POPC   GL159197  22.835  23.921   5.897
 4573POPC   GL259198  23.172  23.958   5.816
 4573POPC   C1A59199  22.898  23.567   6.213
 4573POPC   D2A59200  22.891  23.305   6.605
 4573POPC   C3A59201  22.857  23.520   6.993
 4573POPC   C4A59202  22.809  23.791   7.328
 4573POPC   C1B59203  23.224  23.963   6.258
 4573POPC   C2B59204  23.108  23.775   6.634
 4573POPC   C3B59205  23.201  23.889   7.030
 4573POPC   C4B59206  23.191  24.156   7.370
 4574POPC   NC359207   6.638   7.273   5.407
 4574POPC   PO459208   7.063   7.809   5.506
 4574POPC   GL159209   6.768   7.508   5.837
 4574POPC   GL259210   6.590   7.186   5.907
 4574POPC   C1A59211   6.666   7.574   6.274
 4574POPC   D2A59212   6.736   7.749   6.679
 4574POPC   C3A59213   6.366   7.652   6.950
 4574POPC   C4A59214   6.391   7.600   7.378
 4574POPC   C1B59215   6.493   7.099   6.347
 4574POPC   C2B59216   6.241   7.211   6.718
 4574POPC   C3B59217   6.263   7.149   7.165
 4574POPC   C4B59218   6.627   7.168   7.442
 4575POPC   NC359219  39.855  11.854   5.556
 4575POPC   PO459220  40.293  12.452   5.438
 4575POPC   GL159221  40.139  12.233   5.795
 4575POPC   GL259222  40.286  11.901   5.854
 4575POPC   C1A59223  39.964  12.154   6.200
 4575POPC   D2A59224  39.830  12.004   6.581
 4575POPC   C3A59225  39.988  12.233   6.940
 4575POPC   C4A59226  39.853  11.985   7.242
 4575POPC   C1B59227  40.299  11.764   6.259
 4575POPC   C2B59228  40.347  11.974   6.648
 4575POPC   C3B59229  40.275  11.781   7.059
 4575POPC   C4B59230  40.268  11.843   7.523
 4576POPC   NC359231  17.836  33.078   5.548
 4576POPC   PO459232  17.360  32.866   5.131
 4576POPC   GL159233  17.301  32.824   5.635
 4576POPC   GL259234  17.551  32.664   5.796
 4576POPC   C1A59235  17.427  33.012   6.133
 4576POPC   D2A59236  17.484  33.267   6.484
 4576POPC   C3A59237  17.494  33.137   6.901
 4576POPC   C4A59238  17.781  32.954   7.179
 4576POPC   C1B59239  17.278  32.553   6.204
 4576POPC   C2B59240  17.379  32.732   6.604
 4576POPC   C3B59241  17.392  32.630   7.046
 4576POPC   C4B59242  17.376  32.822   7.454
 4577POPC   NC359243   7.059  25.527   5.380
 4577POPC   PO459244   7.524  25.011   5.414
 4577POPC   GL159245   7.536  25.192   5.784
 4577POPC   GL259246   7.181  25.254   5.789
 4577POPC   C1A59247   7.520  25.374   6.190
 4577POPC   D2A59248   7.386  25.566   6.574
 4577POPC   C3A59249   7.639  25.551   6.985
 4577POPC   C4A59250   7.680  25.120   7.210
 4577POPC   C1B59251   7.129  24.997   6.138
 4577POPC   C2B59252   7.184  24.963   6.578
 4577POPC   C3B59253   7.282  25.201   6.927
 4577POPC   C4B59254   7.114  25.488   7.231
 4578POPC   NC359255   9.195  12.422   5.536
 4578POPC   PO459256   8.842  11.816   5.462
 4578POPC   GL159257   8.911  12.082   5.790
 4578POPC   GL259258   8.587  12.293   5.818
 4578POPC   C1A59259   9.190  12.092   6.175
 4578POPC   D2A59260   9.419  12.194   6.577
 4578POPC   C3A59261   9.218  12.263   6.969
 4578POPC   C4A59262   9.136  11.899   7.214
 4578POPC   C1B59263   8.675  12.114   6.217
 4578POPC   C2B59264   8.867  12.211   6.582
 4578POPC   C3B59265   8.751  12.024   6.918
 4578POPC   C4B59266   8.624  11.980   7.327
 4579POPC   NC359267  19.696  28.025   5.465
 4579POPC   PO459268  20.014  28.546   5.236
 4579POPC   GL159269  19.964  28.446   5.654
 4579POPC   GL259270  19.624  28.597   5.678
 4579POPC   C1A59271  20.145  28.253   6.052
 4579POPC   D2A59272  20.208  28.432   6.486
 4579POPC   C3A59273  20.002  28.354   6.870
 4579POPC   C4A59274  20.147  28.297   7.261
 4579POPC   C1B59275  19.814  28.642   6.103
 4579POPC   C2B59276  19.718  28.630   6.531
 4579POPC   C3B59277  19.563  28.622   6.945
 4579POPC   C4B59278  19.581  28.339   7.284
 4580POPC   NC359279  18.142  28.019   5.448
 4580POPC   PO459280  18.060  28.718   5.492
 4580POPC   GL159281  18.231  28.459   5.809
 4580POPC   GL259282  17.916  28.270   5.856
 4580POPC   C1A59283  18.433  28.534   6.227
 4580POPC   D2A59284  18.638  28.429   6.641
 4580POPC   C3A59285  18.316  28.367   6.873
 4580POPC   C4A59286  18.160  28.432   7.231
 4580POPC   C1B59287  17.680  28.080   6.191
 4580POPC   C2B59288  17.607  27.984   6.613
 4580POPC   C3B59289  17.869  28.134   6.939
 4580POPC   C4B59290  18.062  27.949   7.322
 4581POPC   NC359291  30.666  25.542   5.501
 4581POPC   PO459292  31.137  25.090   5.406
 4581POPC   GL159293  30.877  25.100   5.782
 4581POPC   GL259294  30.558  24.939   5.678
 4581POPC   C1A59295  30.767  25.404   6.146
 4581POPC   D2A59296  30.558  25.431   6.564
 4581POPC   C3A59297  30.861  25.453   6.880
 4581POPC   C4A59298  30.695  25.455   7.267
 4581POPC   C1B59299  30.479  24.980   6.102
 4581POPC   C2B59300  30.754  24.975   6.449
 4581POPC   C3B59301  30.641  25.002   6.861
 4581POPC   C4B59302  30.869  24.994   7.221
 4582POPC   NC359303   2.973  31.730   5.519
 4582POPC   PO459304   2.541  31.191   5.308
 4582POPC   GL159305   2.635  31.379   5.683
 4582POPC   GL259306   2.937  31.212   5.760
 4582POPC   C1A59307   2.630  31.373   6.136
 4582POPC   D2A59308   2.345  31.402   6.492
 4582POPC   C3A59309   2.617  31.562   6.817
 4582POPC   C4A59310   2.765  31.713   7.222
 4582POPC   C1B59311   2.953  30.966   6.151
 4582POPC   C2B59312   2.792  31.091   6.562
 4582POPC   C3B59313   2.796  31.129   6.999
 4582POPC   C4B59314   3.063  30.916   7.221
 4583POPC   NC359315  10.875  36.951   5.557
 4583POPC   PO459316  10.162  36.803   5.439
 4583POPC   GL159317  10.415  36.750   5.799
 4583POPC   GL259318  10.453  37.079   5.830
 4583POPC   C1A59319  10.585  36.754   6.252
 4583POPC   D2A59320  10.330  36.807   6.639
 4583POPC   C3A59321  10.493  36.843   7.047
 4583POPC   C4A59322  10.686  36.614   7.351
 4583POPC   C1B59323  10.243  37.139   6.212
 4583POPC   C2B59324  10.320  37.319   6.606
 4583POPC   C3B59325  10.126  37.207   6.959
 4583POPC   C4B59326  10.269  37.216   7.356
 4584POPC   NC359327   5.254   7.421   5.143
 4584POPC   PO459328   4.740   7.135   5.445
 4584POPC   GL159329   4.969   7.231   5.837
 4584POPC   GL259330   5.289   7.110   5.791
 4584POPC   C1A59331   4.952   7.547   6.220
 4584POPC   D2A59332   4.756   7.635   6.622
 4584POPC   C3A59333   4.945   7.575   7.027
 4584POPC   C4A59334   4.967   7.497   7.503
 4584POPC   C1B59335   5.243   7.133   6.266
 4584POPC   C2B59336   5.027   7.143   6.672
 4584POPC   C3B59337   5.283   7.194   7.064
 4584POPC   C4B59338   5.296   7.110   7.520
 4585POPC   NC359339  23.847  22.111   5.227
 4585POPC   PO459340  23.316  22.341   5.591
 4585POPC   GL159341  23.267  22.090   5.915
 4585POPC   GL259342  23.577  21.920   5.874
 4585POPC   C1A59343  23.370  22.130   6.320
 4585POPC   D2A59344  23.639  22.166   6.671
 4585POPC   C3A59345  23.462  22.205   7.075
 4585POPC   C4A59346  23.694  22.313   7.441
 4585POPC   C1B59347  23.789  21.817   6.267
 4585POPC   C2B59348  23.901  21.719   6.700
 4585POPC   C3B59349  23.930  21.965   7.109
 4585POPC   C4B59350  23.980  21.869   7.561
 4586POPC   NC359351  33.208  32.510   5.521
 4586POPC   PO459352  32.755  32.011   5.443
 4586POPC   GL159353  32.917  32.192   5.822
 4586POPC   GL259354  33.276  32.234   5.944
 4586POPC   C1A59355  32.944  32.015   6.251
 4586POPC   D2A59356  33.169  31.867   6.631
 4586POPC   C3A59357  33.076  32.191   6.910
 4586POPC   C4A59358  32.844  32.237   7.283
 4586POPC   C1B59359  33.019  32.556   6.184
 4586POPC   C2B59360  33.052  32.739   6.602
 4586POPC   C3B59361  33.357  32.634   6.893
 4586POPC   C4B59362  33.370  32.381   7.284
 4587POPC   NC359363  39.495  14.995   5.594
 4587POPC   PO459364  40.050  15.188   5.191
 4587POPC   GL159365  39.991  15.146   5.670
 4587POPC   GL259366  40.263  15.215   5.909
 4587POPC   C1A59367  39.848  15.082   6.131
 4587POPC   D2A59368  40.093  15.131   6.507
 4587POPC   C3A59369  39.911  14.884   6.866
 4587POPC   C4A59370  40.111  14.718   7.228
 4587POPC   C1B59371  40.336  15.565   6.222
 4587POPC   C2B59372  40.136  15.628   6.629
 4587POPC   C3B59373  39.981  15.374   6.969
 4587POPC   C4B59374  40.003  15.208   7.376
 4588POPC   NC359375  34.911  32.038   5.503
 4588POPC   PO459376  34.296  32.309   5.456
 4588POPC   GL159377  34.424  32.231   5.857
 4588POPC   GL259378  34.739  32.420   5.827
 4588POPC   C1A59379  34.328  32.082   6.269
 4588POPC   D2A59380  34.155  32.130   6.694
 4588POPC   C3A59381  34.507  32.069   6.963
 4588POPC   C4A59382  34.539  32.513   7.097
 4588POPC   C1B59383  34.852  32.218   6.221
 4588POPC   C2B59384  34.829  32.371   6.654
 4588POPC   C3B59385  34.999  32.663   6.972
 4588POPC   C4B59386  34.922  32.595   7.422
 4589POPC   NC359387  19.110  20.653   4.882
 4589POPC   PO459388  19.079  20.769   5.526
 4589POPC   GL159389  18.933  20.767   5.935
 4589POPC   GL259390  19.203  20.944   6.024
 4589POPC   C1A59391  18.865  20.639   6.390
 4589POPC   D2A59392  19.166  20.371   6.651
 4589POPC   C3A59393  19.274  20.518   7.068
 4589POPC   C4A59394  18.894  20.426   7.210
 4589POPC   C1B59395  19.366  20.689   6.299
 4589POPC   C2B59396  19.578  20.696   6.671
 4589POPC   C3B59397  19.576  20.994   6.957
 4589POPC   C4B59398  19.359  21.077   7.323
 4590POPC   NC359399  13.264  29.566   5.170
 4590POPC   PO459400  12.797  29.800   5.583
 4590POPC   GL159401  13.063  30.010   5.840
 4590POPC   GL259402  13.158  30.351   5.692
 4590POPC   C1A59403  12.915  29.898   6.268
 4590POPC   D2A59404  12.502  29.931   6.458
 4590POPC   C3A59405  12.549  30.084   6.869
 4590POPC   C4A59406  12.512  29.870   7.232
 4590POPC   C1B59407  13.332  30.343   6.117
 4590POPC   C2B59408  13.316  30.103   6.511
 4590POPC   C3B59409  13.366  30.077   6.946
 4590POPC   C4B59410  12.976  30.066   7.178
 4591POPC   NC359411  18.273  30.283   5.571
 4591POPC   PO459412  18.658  30.822   5.328
 4591POPC   GL159413  18.579  30.677   5.724
 4591POPC   GL259414  18.233  30.743   5.797
 4591POPC   C1A59415  18.564  30.714   6.183
 4591POPC   D2A59416  18.368  30.649   6.576
 4591POPC   C3A59417  18.588  30.510   6.932
 4591POPC   C4A59418  18.475  30.842   7.192
 4591POPC   C1B59419  18.013  30.623   6.203
 4591POPC   C2B59420  17.880  30.474   6.626
 4591POPC   C3B59421  18.055  30.560   7.064
 4591POPC   C4B59422  17.988  30.873   7.402
 4592POPC   NC359423   0.563  22.548   5.362
 4592POPC   PO459424   0.035  22.950   5.443
 4592POPC   GL159425   0.366  22.855   5.754
 4592POPC   GL259426   0.227  22.555   5.770
 4592POPC   C1A59427   0.579  23.045   6.159
 4592POPC   D2A59428   0.766  23.147   6.604
 4592POPC   C3A59429   0.603  23.055   7.070
 4592POPC   C4A59430   0.577  23.211   7.553
 4592POPC   C1B59431   0.102  22.849   6.170
 4592POPC   C2B59432   0.270  23.006   6.595
 4592POPC   C3B59433   0.120  22.874   6.992
 4592POPC   C4B59434   0.228  22.872   7.404
 4593POPC   NC359435  44.503   9.042   5.446
 4593POPC   PO459436   0.053   9.527   5.429
 4593POPC   GL159437   0.028   9.094   5.693
 4593POPC   GL259438  44.800   8.771   5.767
 4593POPC   C1A59439   0.076   8.937   6.148
 4593POPC   D2A59440  44.850   8.953   6.553
 4593POPC   C3A59441  44.931   8.979   6.995
 4593POPC   C4A59442  44.635   9.108   7.332
 4593POPC   C1B59443  44.535   8.781   6.170
 4593POPC   C2B59444  44.509   8.577   6.582
 4593POPC   C3B59445  44.481   8.744   6.986
 4593POPC   C4B59446  44.370   8.676   7.404
 4594POPC   NC359447  44.828   8.379   5.411
 4594POPC   PO459448  44.561   7.757   5.172
 4594POPC   GL159449  44.622   7.898   5.648
 4594POPC   GL259450  44.616   8.232   5.825
 4594POPC   C1A59451  44.539   7.855   6.140
 4594POPC   D2A59452  44.625   8.079   6.554
 4594POPC   C3A59453  44.625   7.875   6.968
 4594POPC   C4A59454  44.661   8.115   7.333
 4594POPC   C1B59455  44.840   8.368   6.188
 4594POPC   C2B59456   0.037   8.484   6.560
 4594POPC   C3B59457  44.856   8.382   6.944
 4594POPC   C4B59458  44.858   8.602   7.342
 4595POPC   NC359459  10.602  39.713   5.342
 4595POPC   PO459460  10.188  40.142   5.589
 4595POPC   GL159461  10.520  39.967   5.814
 4595POPC   GL259462  10.329  39.699   5.829
 4595POPC   C1A59463  10.760  39.853   6.220
 4595POPC   D2A59464  11.043  39.799   6.602
 4595POPC   C3A59465  10.890  39.766   7.008
 4595POPC   C4A59466  10.532  39.916   7.183
 4595POPC   C1B59467  10.226  39.845   6.254
 4595POPC   C2B59468  10.273  39.869   6.722
 4595POPC   C3B59469  10.081  39.726   7.102
 4595POPC   C4B59470  10.330  39.487   7.389
 4596POPC   NC359471  10.120   4.243   5.496
 4596POPC   PO459472   9.611   4.645   5.462
 4596POPC   GL159473   9.857   4.666   5.833
 4596POPC   GL259474   9.773   4.311   5.922
 4596POPC   C1A59475   9.905   4.646   6.280
 4596POPC   D2A59476   9.696   4.389   6.599
 4596POPC   C3A59477   9.753   4.634   6.988
 4596POPC   C4A59478   9.800   4.486   7.462
 4596POPC   C1B59479  10.053   4.157   6.264
 4596POPC   C2B59480  10.100   4.072   6.701
 4596POPC   C3B59481   9.794   4.127   7.058
 4596POPC   C4B59482   9.478   3.844   7.222
 4597POPC   NC359483  39.477  27.036   5.435
 4597POPC   PO459484  39.251  26.407   5.462
 4597POPC   GL159485  39.430  26.589   5.849
 4597POPC   GL259486  39.305  26.938   5.893
 4597POPC   C1A59487  39.275  26.652   6.304
 4597POPC   D2A59488  39.234  27.004   6.600
 4597POPC   C3A59489  39.237  26.827   6.989
 4597POPC   C4A59490  39.497  26.726   7.307
 4597POPC   C1B59491  38.907  26.978   6.138
 4597POPC   C2B59492  38.732  26.979   6.500
 4597POPC   C3B59493  38.766  27.030   6.902
 4597POPC   C4B59494  38.929  27.053   7.317
 4598POPC   NC359495   1.978   1.353   5.365
 4598POPC   PO459496   1.871   0.733   5.506
 4598POPC   GL159497   2.027   1.030   5.827
 4598POPC   GL259498   1.801   1.300   5.845
 4598POPC   C1A59499   2.158   1.257   6.230
 4598POPC   D2A59500   2.006   1.181   6.661
 4598POPC   C3A59501   2.182   1.345   7.048
 4598POPC   C4A59502   2.107   1.203   7.481
 4598POPC   C1B59503   1.645   1.212   6.266
 4598POPC   C2B59504   1.504   1.377   6.675
 4598POPC   C3B59505   1.672   1.256   7.086
 4598POPC   C4B59506   1.640   1.379   7.548
 4599POPC   NC359507  38.284  38.059   5.467
 4599POPC   PO459508  38.783  38.534   5.445
 4599POPC   GL159509  38.513  38.606   5.841
 4599POPC   GL259510  38.157  38.463   5.805
 4599POPC   C1A59511  38.302  38.630   6.266
 4599POPC   D2A59512  38.140  38.613   6.680
 4599POPC   C3A59513  38.491  38.673   6.966
 4599POPC   C4A59514  38.683  38.542   7.321
 4599POPC   C1B59515  38.298  38.139   6.114
 4599POPC   C2B59516  38.357  38.148   6.554
 4599POPC   C3B59517  38.300  37.979   6.967
 4599POPC   C4B59518  38.113  38.037   7.360
 4600POPC   NC359519   3.932  11.319   5.481
 4600POPC   PO459520   4.618  11.101   5.474
 4600POPC   GL159521   4.357  11.388   5.774
 4600POPC   GL259522   4.177  11.139   5.901
 4600POPC   C1A59523   4.288  11.512   6.229
 4600POPC   D2A59524   4.205  11.329   6.658
 4600POPC   C3A59525   4.157  11.590   7.000
 4600POPC   C4A59526   4.188  11.663   7.457
 4600POPC   C1B59527   4.290  10.952   6.289
 4600POPC   C2B59528   4.031  10.845   6.648
 4600POPC   C3B59529   3.934  11.055   7.047
 4600POPC   C4B59530   4.253  11.190   7.322
 4601POPC   NC359531  13.783  37.059   5.358
 4601POPC   PO459532  13.329  36.666   5.311
 4601POPC   GL159533  13.461  36.842   5.676
 4601POPC   GL259534  13.819  36.747   5.762
 4601POPC   C1A59535  13.447  36.820   6.086
 4601POPC   D2A59536  13.424  36.700   6.492
 4601POPC   C3A59537  13.434  36.987   6.826
 4601POPC   C4A59538  13.529  36.932   7.256
 4601POPC   C1B59539  13.972  36.896   6.174
 4601POPC   C2B59540  13.887  36.865   6.603
 4601POPC   C3B59541  13.961  37.011   7.014
 4601POPC   C4B59542  14.012  36.896   7.456
 4602POPC   NC359543  17.740   3.032   5.314
 4602POPC   PO459544  17.127   2.734   5.452
 4602POPC   GL159545  17.551   2.707   5.704
 4602POPC   GL259546  17.810   2.416   5.752
 4602POPC   C1A59547  17.647   2.937   6.109
 4602POPC   D2A59548  17.446   3.101   6.511
 4602POPC   C3A59549  17.561   3.023   6.951
 4602POPC   C4A59550  17.427   2.693   7.244
 4602POPC   C1B59551  17.957   2.531   6.140
 4602POPC   C2B59552  17.971   2.723   6.564
 4602POPC   C3B59553  17.882   2.593   7.014
 4602POPC   C4B59554  17.904   2.843   7.438
 4603POPC   NC359555  41.789   7.735   5.396
 4603POPC   PO459556  41.422   7.224   5.334
 4603POPC   GL159557  41.457   7.427   5.762
 4603POPC   GL259558  41.738   7.652   5.911
 4603POPC   C1A59559  41.395   7.353   6.206
 4603POPC   D2A59560  41.612   7.397   6.596
 4603POPC   C3A59561  41.368   7.285   6.962
 4603POPC   C4A59562  41.492   7.310   7.389
 4603POPC   C1B59563  41.899   7.252   6.136
 4603POPC   C2B59564  41.766   6.919   6.441
 4603POPC   C3B59565  41.697   6.913   6.891
 4603POPC   C4B59566  41.977   7.045   7.240
 4604POPC   NC359567  44.116  19.679   5.565
 4604POPC   PO459568  44.673  19.407   5.235
 4604POPC   GL159569  44.717  19.588   5.706
 4604POPC   GL259570  44.463  19.770   5.915
 4604POPC   C1A59571  44.851  19.639   6.208
 4604POPC   D2A59572  44.810  19.494   6.661
 4604POPC   C3A59573  44.782  19.791   7.024
 4604POPC   C4A59574  44.800  20.241   7.179
 4604POPC   C1B59575  44.346  19.412   6.179
 4604POPC   C2B59576  44.317  19.353   6.604
 4604POPC   C3B59577  44.440  19.363   7.035
 4604POPC   C4B59578  44.340  19.652   7.353
 4605POPC   NC359579  25.893   0.371   5.283
 4605POPC   PO459580  26.279  44.905   4.993
 4605POPC   GL159581  26.210   0.078   5.517
 4605POPC   GL259582  26.390   0.406   5.620
 4605POPC   C1A59583  25.960   0.298   5.939
 4605POPC   D2A59584  26.006   0.441   6.406
 4605POPC   C3A59585  25.703   0.439   6.779
 4605POPC   C4A59586  25.679   0.229   7.230
 4605POPC   C1B59587  26.398   0.504   6.066
 4605POPC   C2B59588  26.571   0.326   6.434
 4605POPC   C3B59589  26.307   0.211   6.775
 4605POPC   C4B59590  26.102   0.490   7.083
 4606POPC   NC359591  41.330  18.386   5.606
 4606POPC   PO459592  41.766  17.981   5.335
 4606POPC   GL159593  41.760  18.093   5.790
 4606POPC   GL259594  41.439  18.049   5.964
 4606POPC   C1A59595  41.894  18.036   6.251
 4606POPC   D2A59596  41.964  17.880   6.688
 4606POPC   C3A59597  41.781  18.056   7.083
 4606POPC   C4A59598  41.949  18.090   7.525
 4606POPC   C1B59599  41.542  18.409   6.241
 4606POPC   C2B59600  41.616  18.361   6.680
 4606POPC   C3B59601  41.316  18.401   7.020
 4606POPC   C4B59602  41.261  18.797   7.191
 4607POPC   NC359603   6.035   1.386   5.420
 4607POPC   PO459604   5.700   0.920   5.060
 4607POPC   GL159605   5.933   0.947   5.605
 4607POPC   GL259606   5.718   1.065   5.826
 4607POPC   C1A59607   6.030   1.318   6.071
 4607POPC   D2A59608   6.023   1.580   6.483
 4607POPC   C3A59609   5.865   1.520   6.923
 4607POPC   C4A59610   5.857   1.259   7.307
 4607POPC   C1B59611   5.534   1.021   6.197
 4607POPC   C2B59612   5.653   1.165   6.591
 4607POPC   C3B59613   5.582   0.979   6.993
 4607POPC   C4B59614   5.571   0.860   7.442
 4608POPC   NC359615  25.524  37.562   5.422
 4608POPC   PO459616  24.905  37.490   5.682
 4608POPC   GL159617  25.157  37.735   5.921
 4608POPC   GL259618  25.510  37.783   5.892
 4608POPC   C1A59619  24.915  37.838   6.263
 4608POPC   D2A59620  24.901  37.836   6.652
 4608POPC   C3A59621  25.257  37.970   6.866
 4608POPC   C4A59622  25.138  37.803   7.251
 4608POPC   C1B59623  25.436  37.814   6.345
 4608POPC   C2B59624  25.699  37.778   6.687
 4608POPC   C3B59625  25.626  37.689   7.130
 4608POPC   C4B59626  25.521  37.797   7.595
 4609POPC   NC359627   5.519   2.743   5.130
 4609POPC   PO459628   6.175   2.917   5.223
 4609POPC   GL159629   5.985   2.797   5.690
 4609POPC   GL259630   5.861   2.461   5.889
 4609POPC   C1A59631   6.080   2.824   6.167
 4609POPC   D2A59632   5.905   2.888   6.600
 4609POPC   C3A59633   6.148   2.853   6.978
 4609POPC   C4A59634   6.282   2.797   7.445
 4609POPC   C1B59635   5.691   2.498   6.323
 4609POPC   C2B59636   5.679   2.474   6.774
 4609POPC   C3B59637   5.554   2.738   7.117
 4609POPC   C4B59638   5.506   2.432   7.481
 4610POPC   NC359639  35.733  25.801   5.362
 4610POPC   PO459640  36.005  26.334   5.423
 4610POPC   GL159641  36.023  25.998   5.788
 4610POPC   GL259642  36.226  25.707   5.747
 4610POPC   C1A59643  36.094  25.920   6.269
 4610POPC   D2A59644  36.223  26.060   6.724
 4610POPC   C3A59645  35.962  26.135   7.129
 4610POPC   C4A59646  35.961  26.416   7.526
 4610POPC   C1B59647  36.530  25.690   6.087
 4610POPC   C2B59648  36.537  25.706   6.529
 4610POPC   C3B59649  36.431  25.637   6.944
 4610POPC   C4B59650  36.473  25.711   7.361
 4611POPC   NC359651  10.445  32.905   5.338
 4611POPC   PO459652  10.954  32.734   5.730
 4611POPC   GL159653  10.731  33.081   5.753
 4611POPC   GL259654  10.411  32.900   5.834
 4611POPC   C1A59655  10.647  33.224   6.156
 4611POPC   D2A59656  10.488  32.913   6.446
 4611POPC   C3A59657  10.641  33.073   6.816
 4611POPC   C4A59658  10.849  32.874   7.131
 4611POPC   C1B59659  10.160  33.154   6.078
 4611POPC   C2B59660  10.086  33.218   6.512
 4611POPC   C3B59661  10.117  32.938   6.859
 4611POPC   C4B59662  10.360  33.011   7.236
 4612POPC   NC359663  43.099  16.366   5.355
 4612POPC   PO459664  42.772  15.829   5.494
 4612POPC   GL159665  42.848  15.938   5.865
 4612POPC   GL259666  42.810  16.301   5.799
 4612POPC   C1A59667  43.075  15.733   6.200
 4612POPC   D2A59668  43.388  15.885   6.495
 4612POPC   C3A59669  43.270  15.827   6.916
 4612POPC   C4A59670  43.021  15.794   7.289
 4612POPC   C1B59671  43.067  16.261   6.182
 4612POPC   C2B59672  42.913  16.077   6.554
 4612POPC   C3B59673  42.935  16.212   6.955
 4612POPC   C4B59674  43.023  16.305   7.347
 4613POPC   NC359675  43.011  31.358   5.278
 4613POPC   PO459676  43.391  31.807   5.525
 4613POPC   GL159677  43.278  31.440   5.733
 4613POPC   GL259678  42.913  31.451   5.771
 4613POPC   C1A59679  43.264  31.507   6.172
 4613POPC   D2A59680  43.111  31.380   6.551
 4613POPC   C3A59681  43.344  31.460   6.920
 4613POPC   C4A59682  43.298  31.263   7.303
 4613POPC   C1B59683  42.744  31.548   6.179
 4613POPC   C2B59684  42.760  31.765   6.562
 4613POPC   C3B59685  42.794  31.625   6.975
 4613POPC   C4B59686  43.101  31.754   7.256
 4614POPC   NC359687  44.027  37.319   5.451
 4614POPC   PO459688  43.914  37.908   5.424
 4614POPC   GL159689  43.947  37.639   5.831
 4614POPC   GL259690  44.236  37.376   5.892
 4614POPC   C1A59691  43.825  37.745   6.235
 4614POPC   D2A59692  43.449  37.840   6.476
 4614POPC   C3A59693  43.545  37.977   6.884
 4614POPC   C4A59694  43.547  37.756   7.277
 4614POPC   C1B59695  44.301  37.547   6.290
 4614POPC   C2B59696  44.186  37.806   6.612
 4614POPC   C3B59697  43.914  37.618   6.905
 4614POPC   C4B59698  44.104  37.344   7.189
 4615POPC   NC359699  40.439  12.907   5.427
 4615POPC   PO459700  39.859  13.182   5.481
 4615POPC   GL159701  40.051  12.921   5.812
 4615POPC   GL259702  39.740  12.888   6.013
 4615POPC   C1A59703  40.180  12.671   6.167
 4615POPC   D2A59704  39.932  12.563   6.543
 4615POPC   C3A59705  39.950  12.819   6.921
 4615POPC   C4A59706  39.993  12.668   7.317
 4615POPC   C1B59707  39.652  13.299   6.202
 4615POPC   C2B59708  39.818  13.449   6.622
 4615POPC   C3B59709  39.683  13.288   7.054
 4615POPC   C4B59710  39.563  12.955   7.344
 4616POPC   NC359711  32.664   8.067   5.012
 4616POPC   PO459712  32.105   8.243   5.369
 4616POPC   GL159713  32.182   8.150   5.790
 4616POPC   GL259714  32.524   8.221   5.808
 4616POPC   C1A59715  32.203   8.334   6.217
 4616POPC   D2A59716  31.982   8.433   6.617
 4616POPC   C3A59717  32.213   8.350   6.971
 4616POPC   C4A59718  32.282   8.044   7.250
 4616POPC   C1B59719  32.707   8.136   6.217
 4616POPC   C2B59720  32.567   8.147   6.652
 4616POPC   C3B59721  32.732   8.231   7.067
 4616POPC   C4B59722  32.650   8.308   7.510
 4617POPC   NC359723  38.843  43.195   5.441
 4617POPC   PO459724  38.204  43.207   5.470
 4617POPC   GL159725  38.361  43.041   5.838
 4617POPC   GL259726  38.255  42.716   5.763
 4617POPC   C1A59727  38.504  43.017   6.281
 4617POPC   D2A59728  38.584  43.054   6.735
 4617POPC   C3A59729  38.417  43.089   7.114
 4617POPC   C4A59730  38.366  43.487   7.245
 4617POPC   C1B59731  38.065  42.734   6.159
 4617POPC   C2B59732  38.102  42.916   6.564
 4617POPC   C3B59733  38.209  42.701   6.874
 4617POPC   C4B59734  38.087  42.589   7.235
 4618POPC   NC359735  41.176   4.537   5.372
 4618POPC   PO459736  40.569   4.528   5.476
 4618POPC   GL159737  40.725   4.698   5.869
 4618POPC   GL259738  41.035   4.595   5.870
 4618POPC   C1A59739  40.738   4.527   6.319
 4618POPC   D2A59740  41.023   4.335   6.638
 4618POPC   C3A59741  40.920   4.118   7.052
 4618POPC   C4A59742  40.662   4.249   7.402
 4618POPC   C1B59743  41.098   4.878   6.229
 4618POPC   C2B59744  40.945   4.857   6.670
 4618POPC   C3B59745  40.930   4.623   7.079
 4618POPC   C4B59746  41.210   4.533   7.463
 4619POPC   NC359747  10.257  31.940   5.155
 4619POPC   PO459748   9.797  32.300   5.578
 4619POPC   GL159749   9.784  32.030   5.951
 4619POPC   GL259750  10.009  32.290   6.081
 4619POPC   C1A59751   9.888  31.913   6.401
 4619POPC   D2A59752  10.188  31.986   6.754
 4619POPC   C3A59753  10.001  31.926   7.132
 4619POPC   C4A59754   9.587  31.865   7.067
 4619POPC   C1B59755   9.587  32.431   6.195
 4619POPC   C2B59756   9.494  32.261   6.576
 4619POPC   C3B59757   9.753  32.344   6.918
 4619POPC   C4B59758   9.552  32.335   7.300
 4620POPC   NC359759  10.085  29.666   5.065
 4620POPC   PO459760   9.591  29.236   5.349
 4620POPC   GL159761   9.750  29.143   5.764
 4620POPC   GL259762   9.617  29.489   5.921
 4620POPC   C1A59763   9.963  29.157   6.151
 4620POPC   D2A59764   9.801  29.120   6.551
 4620POPC   C3A59765   9.965  29.162   6.952
 4620POPC   C4A59766   9.882  29.176   7.394
 4620POPC   C1B59767   9.863  29.664   6.268
 4620POPC   C2B59768   9.824  29.617   6.706
 4620POPC   C3B59769   9.862  29.655   7.145
 4620POPC   C4B59770   9.654  29.618   7.522
 4621POPC   NC359771  15.470  21.525   5.529
 4621POPC   PO459772  15.028  20.989   5.416
 4621POPC   GL159773  15.191  21.192   5.778
 4621POPC   GL259774  15.011  21.498   5.763
 4621POPC   C1A59775  15.335  21.216   6.206
 4621POPC   D2A59776  15.223  21.045   6.619
 4621POPC   C3A59777  15.272  21.335   6.953
 4621POPC   C4A59778  15.449  21.273   7.338
 4621POPC   C1B59779  14.864  21.428   6.154
 4621POPC   C2B59780  14.913  21.465   6.581
 4621POPC   C3B59781  14.955  21.732   6.934
 4621POPC   C4B59782  14.891  21.589   7.352
 4622POPC   NC359783  16.521  32.008   5.491
 4622POPC   PO459784  16.703  32.655   5.566
 4622POPC   GL159785  16.474  32.419   5.871
 4622POPC   GL259786  16.676  32.125   5.956
 4622POPC   C1A59787  16.289  32.184   6.257
 4622POPC   D2A59788  16.543  32.098   6.653
 4622POPC   C3A59789  16.461  32.444   6.928
 4622POPC   C4A59790  16.483  32.567   7.362
 4622POPC   C1B59791  16.783  32.441   6.296
 4622POPC   C2B59792  16.898  32.630   6.723
 4622POPC   C3B59793  16.927  32.447   7.137
 4622POPC   C4B59794  16.802  31.981   7.152
 4623POPC   NC359795   8.875   6.149   5.403
 4623POPC   PO459796   9.545   5.944   5.211
 4623POPC   GL159797   9.240   5.908   5.616
 4623POPC   GL259798   9.238   6.146   5.850
 4623POPC   C1A59799   9.025   5.741   6.050
 4623POPC   D2A59800   9.171   5.766   6.496
 4623POPC   C3A59801   8.851   5.699   6.830
 4623POPC   C4A59802   8.849   5.597   7.251
 4623POPC   C1B59803   9.440   6.206   6.236
 4623POPC   C2B59804   9.337   6.235   6.664
 4623POPC   C3B59805   9.272   5.963   6.981
 4623POPC   C4B59806   9.113   6.026   7.377
 4624POPC   NC359807  27.843  37.832   5.422
 4624POPC   PO459808  27.222  37.885   5.352
 4624POPC   GL159809  27.463  37.872   5.773
 4624POPC   GL259810  27.707  37.599   5.858
 4624POPC   C1A59811  27.558  37.912   6.233
 4624POPC   D2A59812  27.358  37.838   6.642
 4624POPC   C3A59813  27.535  37.665   7.029
 4624POPC   C4A59814  27.481  37.748   7.453
 4624POPC   C1B59815  27.718  37.305   6.206
 4624POPC   C2B59816  27.743  37.407   6.635
 4624POPC   C3B59817  27.813  37.207   7.020
 4624POPC   C4B59818  27.781  37.323   7.462
 4625POPC   NC359819  19.148   5.318   5.403
 4625POPC   PO459820  18.846   4.744   5.433
 4625POPC   GL159821  19.095   4.899   5.774
 4625POPC   GL259822  18.979   5.219   5.860
 4625POPC   C1A59823  19.086   4.906   6.249
 4625POPC   D2A59824  19.148   4.764   6.679
 4625POPC   C3A59825  18.999   5.038   6.972
 4625POPC   C4A59826  19.106   5.009   7.376
 4625POPC   C1B59827  19.147   5.432   6.182
 4625POPC   C2B59828  19.123   5.358   6.584
 4625POPC   C3B59829  19.410   5.351   6.886
 4625POPC   C4B59830  19.266   5.467   7.260
 4626POPC   NC359831  43.950   8.841   5.473
 4626POPC   PO459832  44.222   9.297   5.735
 4626POPC   GL159833  43.829   9.178   5.912
 4626POPC   GL259834  43.640   8.872   5.875
 4626POPC   C1A59835  43.642   9.171   6.319
 4626POPC   D2A59836  43.608   8.967   6.702
 4626POPC   C3A59837  43.777   9.088   7.072
 4626POPC   C4A59838  44.232   9.204   6.968
 4626POPC   C1B59839  43.969   8.755   6.167
 4626POPC   C2B59840  44.103   8.886   6.555
 4626POPC   C3B59841  43.987   8.656   6.897
 4626POPC   C4B59842  43.883   8.633   7.311
 4627POPC   NC359843  19.026  17.989   5.316
 4627POPC   PO459844  19.523  18.475   5.521
 4627POPC   GL159845  19.177  18.252   5.716
 4627POPC   GL259846  18.986  18.504   5.863
 4627POPC   C1A59847  18.965  18.060   6.084
 4627POPC   D2A59848  18.901  18.249   6.506
 4627POPC   C3A59849  19.002  18.038   6.895
 4627POPC   C4A59850  18.850  17.897   7.292
 4627POPC   C1B59851  18.904  18.698   6.237
 4627POPC   C2B59852  19.056  18.737   6.634
 4627POPC   C3B59853  18.944  18.606   7.038
 4627POPC   C4B59854  19.222  18.698   7.312
 4628POPC   NC359855   5.067  28.677   5.585
 4628POPC   PO459856   5.276  29.248   5.289
 4628POPC   GL159857   5.195  29.224   5.735
 4628POPC   GL259858   5.040  29.531   5.841
 4628POPC   C1A59859   5.025  29.057   6.132
 4628POPC   D2A59860   4.824  29.231   6.499
 4628POPC   C3A59861   5.030  29.255   6.892
 4628POPC   C4A59862   4.878  29.185   7.289
 4628POPC   C1B59863   5.217  29.506   6.229
 4628POPC   C2B59864   5.425  29.335   6.585
 4628POPC   C3B59865   5.449  29.552   6.968
 4628POPC   C4B59866   5.220  29.557   7.322
 4629POPC   NC359867   4.629  38.410   5.385
 4629POPC   PO459868   3.977  38.242   5.430
 4629POPC   GL159869   4.300  38.403   5.775
 4629POPC   GL259870   4.407  38.045   5.717
 4629POPC   C1A59871   4.514  38.589   6.213
 4629POPC   D2A59872   4.492  38.794   6.644
 4629POPC   C3A59873   4.201  38.598   6.962
 4629POPC   C4A59874   3.934  38.374   7.242
 4629POPC   C1B59875   4.397  38.099   6.169
 4629POPC   C2B59876   4.224  38.279   6.555
 4629POPC   C3B59877   4.385  38.136   6.973
 4629POPC   C4B59878   4.394  38.092   7.392
 4630POPC   NC359879  36.608  25.537   5.444
 4630POPC   PO459880  36.813  24.917   5.428
 4630POPC   GL159881  36.985  25.121   5.843
 4630POPC   GL259882  36.945  25.494   5.854
 4630POPC   C1A59883  37.204  24.979   6.267
 4630POPC   D2A59884  37.294  24.887   6.735
 4630POPC   C3A59885  37.038  25.006   7.086
 4630POPC   C4A59886  36.777  25.055   7.495
 4630POPC   C1B59887  36.893  25.378   6.299
 4630POPC   C2B59888  36.896  25.359   6.733
 4630POPC   C3B59889  36.892  25.478   7.183
 4630POPC   C4B59890  36.912  25.530   7.651
 4631POPC   NC359891  12.757  11.840   5.107
 4631POPC   PO459892  13.060  12.207   5.633
 4631POPC   GL159893  12.901  12.066   5.979
 4631POPC   GL259894  12.672  11.848   5.848
 4631POPC   C1A59895  12.884  12.138   6.417
 4631POPC   D2A59896  13.183  12.027   6.753
 4631POPC   C3A59897  13.091  12.249   7.113
 4631POPC   C4A59898  13.132  12.211   7.616
 4631POPC   C1B59899  12.709  11.646   6.211
 4631POPC   C2B59900  12.850  11.660   6.586
 4631POPC   C3B59901  12.723  11.917   6.932
 4631POPC   C4B59902  12.769  11.960   7.361
 4632POPC   NC359903  32.328  38.905   5.363
 4632POPC   PO459904  32.029  38.336   5.379
 4632POPC   GL159905  32.245  38.273   5.776
 4632POPC   GL259906  32.366  38.622   5.831
 4632POPC   C1A59907  32.249  38.304   6.236
 4632POPC   D2A59908  32.342  38.500   6.650
 4632POPC   C3A59909  32.072  38.664   6.957
 4632POPC   C4A59910  32.028  38.313   7.205
 4632POPC   C1B59911  32.527  38.779   6.251
 4632POPC   C2B59912  32.778  38.722   6.659
 4632POPC   C3B59913  32.753  38.703   7.121
 4632POPC   C4B59914  32.762  38.979   7.493
 4633POPC   NC359915  14.126  18.257   5.204
 4633POPC   PO459916  14.692  18.422   5.381
 4633POPC   GL159917  14.640  18.180   5.784
 4633POPC   GL259918  14.420  17.871   5.784
 4633POPC   C1A59919  14.611  18.265   6.233
 4633POPC   D2A59920  14.340  18.227   6.621
 4633POPC   C3A59921  14.535  18.328   7.014
 4633POPC   C4A59922  14.675  18.671   7.227
 4633POPC   C1B59923  14.158  18.003   6.149
 4633POPC   C2B59924  13.883  18.007   6.523
 4633POPC   C3B59925  13.913  18.107   6.970
 4633POPC   C4B59926  14.220  18.067   7.310
 4634POPC   NC359927  44.650   2.421   5.681
 4634POPC   PO459928  44.551   2.902   5.147
 4634POPC   GL159929  44.657   2.934   5.632
 4634POPC   GL259930  44.974   2.820   5.728
 4634POPC   C1A59931  44.617   2.969   6.117
 4634POPC   D2A59932  44.696   2.554   6.343
 4634POPC   C3A59933  44.678   2.547   6.798
 4634POPC   C4A59934  44.488   2.633   7.174
 4634POPC   C1B59935   0.094   2.841   6.151
 4634POPC   C2B59936  44.995   2.925   6.585
 4634POPC   C3B59937  44.765   3.042   6.967
 4634POPC   C4B59938  44.859   2.914   7.409
 4635POPC   NC359939  19.423   2.291   5.149
 4635POPC   PO459940  18.996   2.800   5.313
 4635POPC   GL159941  19.074   2.904   5.791
 4635POPC   GL259942  18.747   2.956   5.897
 4635POPC   C1A59943  19.080   3.089   6.257
 4635POPC   D2A59944  18.979   2.936   6.717
 4635POPC   C3A59945  19.000   3.207   7.105
 4635POPC   C4A59946  19.263   3.334   7.478
 4635POPC   C1B59947  18.930   2.600   6.187
 4635POPC   C2B59948  18.965   2.430   6.595
 4635POPC   C3B59949  19.229   2.423   6.961
 4635POPC   C4B59950  19.264   2.319   7.404
 4636POPC   NC359951   2.153  41.844   5.559
 4636POPC   PO459952   2.051  42.567   5.337
 4636POPC   GL159953   1.865  42.490   5.703
 4636POPC   GL259954   1.959  42.207   5.834
 4636POPC   C1A59955   1.757  42.580   6.123
 4636POPC   D2A59956   1.834  42.410   6.514
 4636POPC   C3A59957   1.846  42.595   6.875
 4636POPC   C4A59958   1.918  42.371   7.235
 4636POPC   C1B59959   2.160  42.153   6.213
 4636POPC   C2B59960   2.267  42.001   6.596
 4636POPC   C3B59961   2.319  42.144   7.016
 4636POPC   C4B59962   2.343  41.923   7.417
 4637POPC   NC359963  26.337  10.321   5.580
 4637POPC   PO459964  25.806  10.735   5.602
 4637POPC   GL159965  25.926  10.700   5.972
 4637POPC   GL259966  26.248  10.629   5.966
 4637POPC   C1A59967  25.822  10.540   6.342
 4637POPC   D2A59968  26.049  10.474   6.695
 4637POPC   C3A59969  26.113  10.676   7.088
 4637POPC   C4A59970  25.920  10.657   7.479
 4637POPC   C1B59971  26.279  10.293   6.269
 4637POPC   C2B59972  26.502  10.258   6.681
 4637POPC   C3B59973  26.235  10.171   7.048
 4637POPC   C4B59974  26.235  10.272   7.482
 4638POPC   NC359975  10.054  10.882   5.396
 4638POPC   PO459976   9.472  11.197   5.484
 4638POPC   GL159977   9.521  11.343   5.865
 4638POPC   GL259978   9.850  11.422   5.829
 4638POPC   C1A59979   9.548  11.441   6.282
 4638POPC   D2A59980   9.575  11.152   6.583
 4638POPC   C3A59981   9.632  11.335   6.990
 4638POPC   C4A59982   9.801  11.634   7.281
 4638POPC   C1B59983  10.065  11.540   6.210
 4638POPC   C2B59984  10.030  11.348   6.579
 4638POPC   C3B59985  10.164  11.384   6.962
 4638POPC   C4B59986  10.037  11.183   7.292
 4639POPC   NC359987  11.454  36.611   4.847
 4639POPC   PO459988  11.308  37.054   5.323
 4639POPC   GL159989  11.382  36.910   5.748
 4639POPC   GL259990  11.654  36.652   5.781
 4639POPC   C1A59991  11.129  36.855   6.148
 4639POPC   D2A59992  11.232  36.737   6.556
 4639POPC   C3A59993  10.981  36.649   6.902
 4639POPC   C4A59994  11.095  36.898   7.204
 4639POPC   C1B59995  11.649  36.849   6.195
 4639POPC   C2B59996  11.730  36.675   6.598
 4639POPC   C3B59997  11.546  36.742   7.008
 4639POPC   C4B59998  11.525  36.767   7.460
 4640POPC   NC359999  34.374  15.118   5.546
 4640POPC   PO460000  33.796  15.169   5.388
 4640POPC   GL160001  33.684  15.067   5.785
 4640POPC   GL260002  33.962  14.831   5.797
 4640POPC   C1A60003  33.742  15.271   6.176
 4640POPC   D2A60004  33.710  15.106   6.585
 4640POPC   C3A60005  33.903  15.308   6.915
 4640POPC   C4A60006  33.649  15.253   7.247
 4640POPC   C1B60007  34.150  14.906   6.202
 4640POPC   C2B60008  34.070  14.713   6.586
 4640POPC   C3B60009  33.914  14.780   6.960
 4640POPC   C4B60010  34.075  15.003   7.312
 4641POPC   NC360011  11.286  25.641   5.476
 4641POPC   PO460012  11.069  26.249   5.336
 4641POPC   GL160013  11.084  26.067   5.727
 4641POPC   GL260014  11.414  26.189   5.747
 4641POPC   C1A60015  11.114  26.073   6.199
 4641POPC   D2A60016  11.386  26.127   6.566
 4641POPC   C3A60017  11.210  26.037   6.975
 4641POPC   C4A60018  11.263  26.297   7.341
 4641POPC   C1B60019  11.604  25.933   6.080
 4641POPC   C2B60020  11.804  25.799   6.461
 4641POPC   C3B60021  11.667  25.753   6.864
 4641POPC   C4B60022  11.629  25.923   7.240
 4642POPC   NC360023  25.689  18.003   5.504
 4642POPC   PO460024  25.236  17.519   5.263
 4642POPC   GL160025  25.242  17.636   5.708
 4642POPC   GL260026  24.941  17.766   5.895
 4642POPC   C1A60027  25.349  17.649   6.182
 4642POPC   D2A60028  25.419  17.701   6.663
 4642POPC   C3A60029  25.403  17.320   6.961
 4642POPC   C4A60030  25.459  17.322   7.421
 4642POPC   C1B60031  24.891  17.366   6.114
 4642POPC   C2B60032  25.071  17.326   6.517
 4642POPC   C3B60033  24.957  17.569   6.880
 4642POPC   C4B60034  24.971  17.424   7.304
 4643POPC   NC360035  25.620  40.002   4.966
 4643POPC   PO460036  26.158  39.815   5.443
 4643POPC   GL160037  26.060  39.811   5.871
 4643POPC   GL260038  25.964  40.150   5.994
 4643POPC   C1A60039  26.341  39.881   6.206
 4643POPC   D2A60040  26.321  40.200   6.562
 4643POPC   C3A60041  26.243  40.000   6.972
 4643POPC   C4A60042  26.149  39.596   7.135
 4643POPC   C1B60043  25.893  39.910   6.411
 4643POPC   C2B60044  25.775  39.721   6.807
 4643POPC   C3B60045  25.708  39.891   7.233
 4643POPC   C4B60046  25.691  40.148   7.655
 4644POPC   NC360047   6.550  11.065   5.599
 4644POPC   PO460048   6.818  10.615   5.178
 4644POPC   GL160049   6.820  10.617   5.718
 4644POPC   GL260050   6.617  10.814   6.015
 4644POPC   C1A60051   6.986  10.496   6.153
 4644POPC   D2A60052   6.797  10.644   6.546
 4644POPC   C3A60053   6.871  10.444   6.949
 4644POPC   C4A60054   6.731  10.630   7.298
 4644POPC   C1B60055   6.467  10.416   6.152
 4644POPC   C2B60056   6.402  10.288   6.541
 4644POPC   C3B60057   6.376  10.512   6.893
 4644POPC   C4B60058   6.251  10.435   7.296
 4645POPC   NC360059  17.013  21.376   5.521
 4645POPC   PO460060  16.454  21.224   5.185
 4645POPC   GL160061  16.432  21.428   5.624
 4645POPC   GL260062  16.649  21.673   5.721
 4645POPC   C1A60063  16.421  21.408   6.130
 4645POPC   D2A60064  16.369  21.361   6.620
 4645POPC   C3A60065  16.761  21.264   6.895
 4645POPC   C4A60066  17.003  21.051   7.245
 4645POPC   C1B60067  16.742  21.822   6.144
 4645POPC   C2B60068  16.753  21.712   6.568
 4645POPC   C3B60069  16.791  21.796   6.978
 4645POPC   C4B60070  16.958  21.551   7.309
 4646POPC   NC360071  18.307  10.158   5.438
 4646POPC   PO460072  18.111   9.485   5.407
 4646POPC   GL160073  18.217   9.677   5.766
 4646POPC   GL260074  17.960   9.912   5.774
 4646POPC   C1A60075  18.186   9.765   6.211
 4646POPC   D2A60076  18.560   9.903   6.439
 4646POPC   C3A60077  18.573   9.785   6.866
 4646POPC   C4A60078  18.299   9.779   7.213
 4646POPC   C1B60079  17.795   9.511   5.991
 4646POPC   C2B60080  17.795   9.432   6.425
 4646POPC   C3B60081  17.935   9.615   6.806
 4646POPC   C4B60082  17.898   9.444   7.204
 4647POPC   NC360083  22.523  14.781   5.239
 4647POPC   PO460084  22.106  14.190   5.345
 4647POPC   GL160085  22.143  14.295   5.777
 4647POPC   GL260086  22.358  14.634   5.798
 4647POPC   C1A60087  22.207  14.039   6.149
 4647POPC   D2A60088  22.021  13.830   6.509
 4647POPC   C3A60089  22.114  14.022   6.934
 4647POPC   C4A60090  22.462  14.243   7.130
 4647POPC   C1B60091  22.165  14.555   6.218
 4647POPC   C2B60092  22.014  14.648   6.625
 4647POPC   C3B60093  21.973  14.520   7.050
 4647POPC   C4B60094  22.142  14.675   7.434
 4648POPC   NC360095  38.796  10.427   5.492
 4648POPC   PO460096  38.363  10.943   5.496
 4648POPC   GL160097  38.398  10.635   5.799
 4648POPC   GL260098  38.722  10.704   5.939
 4648POPC   C1A60099  38.224  10.543   6.216
 4648POPC   D2A60100  38.364  10.266   6.580
 4648POPC   C3A60101  38.364  10.353   7.044
 4648POPC   C4A60102  38.219  10.118   7.384
 4648POPC   C1B60103  38.653  10.283   6.128
 4648POPC   C2B60104  38.831  10.088   6.502
 4648POPC   C3B60105  38.704   9.983   6.908
 4648POPC   C4B60106  38.728   9.951   7.343
 4649POPC   NC360107  34.939   5.631   5.464
 4649POPC   PO460108  34.835   6.282   5.463
 4649POPC   GL160109  35.187   6.070   5.723
 4649POPC   GL260110  35.469   6.283   5.761
 4649POPC   C1A60111  35.409   5.875   6.123
 4649POPC   D2A60112  35.347   5.613   6.511
 4649POPC   C3A60113  35.336   5.811   6.919
 4649POPC   C4A60114  35.512   5.676   7.289
 4649POPC   C1B60115  35.288   6.377   6.151
 4649POPC   C2B60116  35.223   6.235   6.571
 4649POPC   C3B60117  35.432   6.328   6.912
 4649POPC   C4B60118  35.409   6.199   7.283
 4650POPC   NC360119  38.772   7.980   5.365
 4650POPC   PO460120  38.465   7.438   5.560
 4650POPC   GL160121  38.480   7.159   5.911
 4650POPC   GL260122  38.133   7.257   5.897
 4650POPC   C1A60123  38.563   7.086   6.380
 4650POPC   D2A60124  38.468   7.362   6.740
 4650POPC   C3A60125  38.457   7.153   7.153
 4650POPC   C4A60126  38.772   7.116   7.492
 4650POPC   C1B60127  38.224   7.457   6.258
 4650POPC   C2B60128  38.100   7.727   6.562
 4650POPC   C3B60129  38.272   7.790   6.945
 4650POPC   C4B60130  38.367   7.632   7.335
 4651POPC   NC360131  20.321  41.935   5.500
 4651POPC   PO460132  20.096  41.293   5.441
 4651POPC   GL160133  20.005  41.580   5.787
 4651POPC   GL260134  19.700  41.780   5.824
 4651POPC   C1A60135  19.915  41.427   6.199
 4651POPC   D2A60136  19.772  41.484   6.610
 4651POPC   C3A60137  20.016  41.247   6.926
 4651POPC   C4A60138  19.840  41.326   7.296
 4651POPC   C1B60139  19.989  41.963   6.170
 4651POPC   C2B60140  20.021  41.964   6.659
 4651POPC   C3B60141  19.809  41.782   7.052
 4651POPC   C4B60142  19.716  41.780   7.526
 4652POPC   NC360143  25.378  26.848   5.295
 4652POPC   PO460144  25.963  26.593   5.498
 4652POPC   GL160145  25.510  26.809   5.781
 4652POPC   GL260146  25.117  26.694   5.767
 4652POPC   C1A60147  25.224  27.038   6.105
 4652POPC   D2A60148  25.302  26.889   6.492
 4652POPC   C3A60149  25.244  26.933   6.931
 4652POPC   C4A60150  25.314  26.625   7.247
 4652POPC   C1B60151  24.949  26.602   6.216
 4652POPC   C2B60152  24.841  26.718   6.667
 4652POPC   C3B60153  24.839  26.600   7.118
 4652POPC   C4B60154  24.935  26.665   7.583
 4653POPC   NC360155   0.104  12.536   5.401
 4653POPC   PO460156   0.465  13.072   5.689
 4653POPC   GL160157   0.199  12.761   5.879
 4653POPC   GL260158   0.380  12.489   5.824
 4653POPC   C1A60159   0.105  12.700   6.317
 4653POPC   D2A60160   0.380  12.992   6.560
 4653POPC   C3A60161   0.305  13.137   6.964
 4653POPC   C4A60162   0.464  13.041   7.369
 4653POPC   C1B60163   0.591  12.571   6.211
 4653POPC   C2B60164   0.477  12.480   6.628
 4653POPC   C3B60165   0.435  12.636   7.013
 4653POPC   C4B60166   0.683  12.589   7.378
 4654POPC   NC360167  26.179  41.712   5.265
 4654POPC   PO460168  25.776  41.239   5.579
 4654POPC   GL160169  26.056  41.524   5.797
 4654POPC   GL260170  26.393  41.593   5.788
 4654POPC   C1A60171  26.094  41.477   6.244
 4654POPC   D2A60172  25.905  41.192   6.542
 4654POPC   C3A60173  25.764  41.417   6.894
 4654POPC   C4A60174  26.006  41.561   7.224
 4654POPC   C1B60175  26.399  41.866   6.166
 4654POPC   C2B60176  26.237  41.880   6.576
 4654POPC   C3B60177  26.402  42.100   6.917
 4654POPC   C4B60178  26.368  41.919   7.312
 4655POPC   NC360179  22.307  41.971   5.329
 4655POPC   PO460180  22.069  42.605   5.247
 4655POPC   GL160181  22.097  42.419   5.691
 4655POPC   GL260182  22.354  42.193   5.817
 4655POPC   C1A60183  22.097  42.468   6.167
 4655POPC   D2A60184  22.217  42.583   6.563
 4655POPC   C3A60185  21.997  42.408   6.894
 4655POPC   C4A60186  22.181  42.330   7.275
 4655POPC   C1B60187  22.214  41.968   6.146
 4655POPC   C2B60188  22.047  42.043   6.530
 4655POPC   C3B60189  22.122  41.913   6.944
 4655POPC   C4B60190  21.802  41.993   7.250
 4656POPC   NC360191  13.331  12.576   5.468
 4656POPC   PO460192  13.812  13.090   5.434
 4656POPC   GL160193  13.621  12.999   5.790
 4656POPC   GL260194  13.720  12.654   5.855
 4656POPC   C1A60195  13.494  13.210   6.168
 4656POPC   D2A60196  13.383  13.081   6.591
 4656POPC   C3A60197  13.700  13.072   6.909
 4656POPC   C4A60198  13.839  12.700   7.060
 4656POPC   C1B60199  13.383  12.685   6.176
 4656POPC   C2B60200  13.208  12.532   6.582
 4656POPC   C3B60201  13.311  12.714   6.982
 4656POPC   C4B60202  13.417  12.530   7.368
 4657POPC   NC360203  22.660   8.596   5.585
 4657POPC   PO460204  23.118   9.082   5.478
 4657POPC   GL160205  23.018   9.112   5.896
 4657POPC   GL260206  22.669   9.244   5.884
 4657POPC   C1A60207  23.176   9.118   6.316
 4657POPC   D2A60208  22.981   8.837   6.614
 4657POPC   C3A60209  23.145   8.881   7.008
 4657POPC   C4A60210  23.108   8.582   7.315
 4657POPC   C1B60211  22.638   8.959   6.250
 4657POPC   C2B60212  22.463   8.788   6.661
 4657POPC   C3B60213  22.664   8.743   7.060
 4657POPC   C4B60214  22.748   8.928   7.484
 4658POPC   NC360215  23.394  27.164   5.416
 4658POPC   PO460216  23.888  26.753   5.515
 4658POPC   GL160217  23.657  26.838   5.835
 4658POPC   GL260218  23.729  27.164   5.836
 4658POPC   C1A60219  23.627  26.876   6.264
 4658POPC   D2A60220  23.770  27.144   6.589
 4658POPC   C3A60221  23.932  26.970   6.976
 4658POPC   C4A60222  23.906  26.736   7.412
 4658POPC   C1B60223  23.384  27.308   6.103
 4658POPC   C2B60224  23.227  27.099   6.491
 4658POPC   C3B60225  23.354  27.038   6.915
 4658POPC   C4B60226  23.480  26.704   7.158
 4659POPC   NC360227  34.432  37.583   5.427
 4659POPC   PO460228  35.046  37.876   5.448
 4659POPC   GL160229  34.795  37.629   5.784
 4659POPC   GL260230  34.506  37.787   5.890
 4659POPC   C1A60231  34.734  37.426   6.209
 4659POPC   D2A60232  34.887  37.574   6.626
 4659POPC   C3A60233  34.792  37.415   7.040
 4659POPC   C4A60234  34.397  37.461   7.207
 4659POPC   C1B60235  34.551  37.942   6.301
 4659POPC   C2B60236  34.227  38.015   6.637
 4659POPC   C3B60237  34.353  37.972   7.056
 4659POPC   C4B60238  34.794  37.933   7.056
 4660POPC   NC360239  31.685  44.182   5.207
 4660POPC   PO460240  31.443  44.812   5.360
 4660POPC   GL160241  31.573  44.671   5.766
 4660POPC   GL260242  31.688  44.341   5.837
 4660POPC   C1A60243  31.659  44.808   6.178
 4660POPC   D2A60244  31.529  44.911   6.590
 4660POPC   C3A60245  31.412  44.616   6.896
 4660POPC   C4A60246  31.507  44.827   7.247
 4660POPC   C1B60247  31.886  44.368   6.286
 4660POPC   C2B60248  31.858  44.409   6.747
 4660POPC   C3B60249  31.815  44.409   7.212
 4660POPC   C4B60250  31.885  44.374   7.686
 4661POPC   NC360251  10.971  20.682   5.361
 4661POPC   PO460252  10.335  20.465   5.439
 4661POPC   GL160253  10.621  20.458   5.789
 4661POPC   GL260254  10.825  20.765   5.842
 4661POPC   C1A60255  10.525  20.584   6.228
 4661POPC   D2A60256  10.276  20.627   6.613
 4661POPC   C3A60257  10.497  20.617   7.008
 4661POPC   C4A60258  10.411  20.663   7.439
 4661POPC   C1B60259  10.810  21.027   6.219
 4661POPC   C2B60260  10.725  20.914   6.638
 4661POPC   C3B60261  10.962  20.842   7.015
 4661POPC   C4B60262  10.898  20.537   7.348
 4662POPC   NC360263  10.702  19.041   5.319
 4662POPC   PO460264  10.144  18.980   5.553
 4662POPC   GL160265  10.559  19.089   5.811
 4662POPC   GL260266  10.818  19.353   5.864
 4662POPC   C1A60267  10.878  18.922   6.130
 4662POPC   D2A60268  10.779  18.703   6.514
 4662POPC   C3A60269  10.824  18.770   6.954
 4662POPC   C4A60270  10.461  18.663   7.216
 4662POPC   C1B60271  10.672  19.394   6.267
 4662POPC   C2B60272  10.712  19.200   6.659
 4662POPC   C3B60273  10.534  19.165   7.085
 4662POPC   C4B60274  10.734  19.271   7.457
 4663POPC   NC360275  41.349  28.618   5.274
 4663POPC   PO460276  41.741  28.156   5.326
 4663POPC   GL160277  41.709  28.337   5.731
 4663POPC   GL260278  41.428  28.501   5.765
 4663POPC   C1A60279  41.784  28.565   6.120
 4663POPC   D2A60280  41.651  28.724   6.498
 4663POPC   C3A60281  41.758  28.403   6.811
 4663POPC   C4A60282  41.753  28.424   7.263
 4663POPC   C1B60283  41.260  28.570   6.170
 4663POPC   C2B60284  41.281  28.362   6.561
 4663POPC   C3B60285  41.306  28.500   7.000
 4663POPC   C4B60286  41.281  28.274   7.375
 4664POPC   NC360287   2.253  10.962   5.560
 4664POPC   PO460288   1.882  10.421   5.264
 4664POPC   GL160289   1.937  10.515   5.678
 4664POPC   GL260290   1.739  10.828   5.705
 4664POPC   C1A60291   1.985  10.298   6.098
 4664POPC   D2A60292   2.124  10.426   6.531
 4664POPC   C3A60293   1.972  10.342   6.938
 4664POPC   C4A60294   2.033  10.149   7.347
 4664POPC   C1B60295   1.898  10.803   6.125
 4664POPC   C2B60296   2.226  10.911   6.427
 4664POPC   C3B60297   2.289  10.799   6.893
 4664POPC   C4B60298   2.158  10.660   7.344
 4665POPC   NC360299  42.551  13.354   5.434
 4665POPC   PO460300  42.401  14.044   5.507
 4665POPC   GL160301  42.443  13.714   5.805
 4665POPC   GL260302  42.134  13.502   5.775
 4665POPC   C1A60303  42.448  13.497   6.201
 4665POPC   D2A60304  42.650  13.486   6.615
 4665POPC   C3A60305  42.569  13.843   6.905
 4665POPC   C4A60306  42.361  13.883   7.308
 4665POPC   C1B60307  41.979  13.745   6.170
 4665POPC   C2B60308  41.797  13.699   6.619
 4665POPC   C3B60309  41.949  13.694   7.061
 4665POPC   C4B60310  42.011  13.555   7.506
 4666POPC   NC360311  17.693  23.282   5.401
 4666POPC   PO460312  17.196  22.748   5.375
 4666POPC   GL160313  17.491  22.937   5.694
 4666POPC   GL260314  17.835  22.777   5.700
 4666POPC   C1A60315  17.613  23.077   6.113
 4666POPC   D2A60316  17.418  23.078   6.533
 4666POPC   C3A60317  17.586  23.040   6.954
 4666POPC   C4A60318  17.322  22.999   7.308
 4666POPC   C1B60319  17.879  22.637   6.131
 4666POPC   C2B60320  17.770  22.682   6.555
 4666POPC   C3B60321  17.927  22.645   6.966
 4666POPC   C4B60322  17.697  22.684   7.358
 4667POPC   NC360323  11.615  42.915   5.495
 4667POPC   PO460324  10.972  43.036   5.397
 4667POPC   GL160325  11.084  42.786   5.810
 4667POPC   GL260326  11.416  42.624   5.868
 4667POPC   C1A60327  11.244  42.764   6.304
 4667POPC   D2A60328  11.398  43.144   6.534
 4667POPC   C3A60329  11.239  43.231   6.953
 4667POPC   C4A60330  11.142  42.953   7.258
 4667POPC   C1B60331  11.699  42.914   6.150
 4667POPC   C2B60332  11.766  42.799   6.591
 4667POPC   C3B60333  11.531  42.792   6.971
 4667POPC   C4B60334  11.673  42.812   7.405
 4668POPC   NC360335  24.899  32.772   5.374
 4668POPC   PO460336  25.150  33.366   5.356
 4668POPC   GL160337  25.119  33.177   5.760
 4668POPC   GL260338  25.446  33.108   5.872
 4668POPC   C1A60339  25.025  33.033   6.211
 4668POPC   D2A60340  25.050  32.779   6.607
 4668POPC   C3A60341  25.046  32.992   7.013
 4668POPC   C4A60342  25.350  33.036   7.319
 4668POPC   C1B60343  25.640  33.426   6.166
 4668POPC   C2B60344  25.467  33.608   6.543
 4668POPC   C3B60345  25.494  33.308   6.866
 4668POPC   C4B60346  25.746  33.359   7.190
 4669POPC   NC360347  37.220  32.516   5.430
 4669POPC   PO460348  37.009  31.991   5.629
 4669POPC   GL160349  37.102  32.220   5.956
 4669POPC   GL260350  36.834  32.386   5.926
 4669POPC   C1A60351  36.948  32.250   6.397
 4669POPC   D2A60352  37.021  32.483   6.772
 4669POPC   C3A60353  36.971  32.248   7.145
 4669POPC   C4A60354  37.043  31.981   7.515
 4669POPC   C1B60355  36.557  32.050   6.098
 4669POPC   C2B60356  36.447  31.798   6.442
 4669POPC   C3B60357  36.264  31.949   6.809
 4669POPC   C4B60358  36.496  32.037   7.190
 4670POPC   NC360359   1.052  33.953   5.373
 4670POPC   PO460360   1.711  33.941   5.373
 4670POPC   GL160361   1.463  33.989   5.754
 4670POPC   GL260362   1.296  33.684   5.747
 4670POPC   C1A60363   1.487  34.176   6.189
 4670POPC   D2A60364   1.238  34.245   6.583
 4670POPC   C3A60365   1.146  33.987   6.932
 4670POPC   C4A60366   1.531  33.984   7.235
 4670POPC   C1B60367   1.145  33.806   6.154
 4670POPC   C2B60368   0.986  33.599   6.512
 4670POPC   C3B60369   0.915  33.485   6.899
 4670POPC   C4B60370   1.207  33.589   7.229
 4671POPC   NC360371   5.537  26.307   5.701
 4671POPC   PO460372   6.022  25.795   5.555
 4671POPC   GL160373   5.911  26.036   5.910
 4671POPC   GL260374   6.003  26.405   5.922
 4671POPC   C1A60375   5.801  26.124   6.336
 4671POPC   D2A60376   5.510  25.920   6.605
 4671POPC   C3A60377   5.525  25.748   6.994
 4671POPC   C4A60378   5.622  25.783   7.422
 4671POPC   C1B60379   6.266  26.352   6.321
 4671POPC   C2B60380   6.167  26.060   6.682
 4671POPC   C3B60381   5.927  26.076   7.005
 4671POPC   C4B60382   5.925  26.397   7.241
 4672POPC   NC360383  41.441  25.504   5.387
 4672POPC   PO460384  41.693  24.818   5.366
 4672POPC   GL160385  41.601  24.978   5.784
 4672POPC   GL260386  41.333  25.189   5.823
 4672POPC   C1A60387  41.794  25.042   6.214
 4672POPC   D2A60388  41.799  25.341   6.567
 4672POPC   C3A60389  41.689  25.256   6.990
 4672POPC   C4A60390  41.497  24.971   7.264
 4672POPC   C1B60391  41.296  25.151   6.301
 4672POPC   C2B60392  41.201  25.281   6.755
 4672POPC   C3B60393  41.306  25.564   7.101
 4672POPC   C4B60394  41.532  25.463   7.527
 4673POPC   NC360395  15.556   5.243   5.605
 4673POPC   PO460396  15.028   5.502   5.325
 4673POPC   GL160397  15.003   5.234   5.708
 4673POPC   GL260398  15.060   4.845   5.741
 4673POPC   C1A60399  14.809   5.135   6.091
 4673POPC   D2A60400  14.824   4.970   6.491
 4673POPC   C3A60401  14.997   5.146   6.839
 4673POPC   C4A60402  14.886   5.054   7.271
 4673POPC   C1B60403  15.259   4.839   6.174
 4673POPC   C2B60404  15.282   4.732   6.627
 4673POPC   C3B60405  15.350   4.844   7.063
 4673POPC   C4B60406  15.321   5.268   7.217
 4674POPC   NC360407  14.000  10.370   5.188
 4674POPC   PO460408  13.423  10.654   5.400
 4674POPC   GL160409  13.574  10.534   5.784
 4674POPC   GL260410  13.918  10.474   5.724
 4674POPC   C1A60411  13.662  10.346   6.181
 4674POPC   D2A60412  13.415  10.293   6.540
 4674POPC   C3A60413  13.545  10.551   6.863
 4674POPC   C4A60414  13.383  10.381   7.205
 4674POPC   C1B60415  14.071  10.675   6.116
 4674POPC   C2B60416  14.218  10.529   6.534
 4674POPC   C3B60417  14.082  10.510   6.992
 4674POPC   C4B60418  13.800  10.659   7.323
 4675POPC   NC360419   9.280   1.163   5.072
 4675POPC   PO460420   9.875   1.296   5.408
 4675POPC   GL160421   9.837   1.408   5.855
 4675POPC   GL260422   9.671   1.110   6.013
 4675POPC   C1A60423   9.951   1.378   6.322
 4675POPC   D2A60424   9.854   1.205   6.721
 4675POPC   C3A60425   9.748   1.470   7.014
 4675POPC   C4A60426   9.849   1.413   7.391
 4675POPC   C1B60427   9.913   0.847   6.331
 4675POPC   C2B60428  10.044   0.743   6.780
 4675POPC   C3B60429   9.855   0.897   7.187
 4675POPC   C4B60430   9.781   0.983   7.644
 4676POPC   NC360431   5.355  14.423   5.484
 4676POPC   PO460432   6.002  14.303   5.545
 4676POPC   GL160433   5.724  14.429   5.889
 4676POPC   GL260434   5.978  14.657   5.959
 4676POPC   C1A60435   5.577  14.390   6.346
 4676POPC   D2A60436   5.797  14.205   6.703
 4676POPC   C3A60437   5.738  14.319   7.124
 4676POPC   C4A60438   5.953  14.261   7.531
 4676POPC   C1B60439   6.088  14.422   6.303
 4676POPC   C2B60440   6.163  14.573   6.702
 4676POPC   C3B60441   6.218  14.437   7.097
 4676POPC   C4B60442   6.333  14.588   7.491
 4677POPC   NC360443  35.985  15.370   5.484
 4677POPC   PO460444  36.626  15.246   5.659
 4677POPC   GL160445  36.291  15.098   5.859
 4677POPC   GL260446  36.199  15.432   5.947
 4677POPC   C1A60447  36.157  15.048   6.291
 4677POPC   D2A60448  35.987  15.199   6.665
 4677POPC   C3A60449  36.207  15.099   6.998
 4677POPC   C4A60450  36.197  14.791   7.275
 4677POPC   C1B60451  35.919  15.516   6.262
 4677POPC   C2B60452  35.739  15.649   6.646
 4677POPC   C3B60453  35.874  15.506   7.060
 4677POPC   C4B60454  36.229  15.476   7.336
 4678POPC   NC360455  10.041   3.399   5.537
 4678POPC   PO460456  10.759   3.668   5.467
 4678POPC   GL160457  10.751   3.575   5.865
 4678POPC   GL260458  10.449   3.483   5.853
 4678POPC   C1A60459  10.928   3.648   6.265
 4678POPC   D2A60460  10.924   3.377   6.603
 4678POPC   C3A60461  10.899   3.531   6.983
 4678POPC   C4A60462  10.698   3.464   7.345
 4678POPC   C1B60463  10.542   3.301   6.260
 4678POPC   C2B60464  10.429   3.421   6.686
 4678POPC   C3B60465  10.406   3.723   7.021
 4678POPC   C4B60466  10.292   4.143   7.161
 4679POPC   NC360467  16.553  17.450   5.527
 4679POPC   PO460468  17.021  17.973   5.438
 4679POPC   GL160469  16.814  17.792   5.804
 4679POPC   GL260470  16.487  17.915   5.872
 4679POPC   C1A60471  16.683  17.522   6.173
 4679POPC   D2A60472  16.538  17.478   6.590
 4679POPC   C3A60473  16.822  17.416   6.964
 4679POPC   C4A60474  16.519  17.417   7.301
 4679POPC   C1B60475  16.743  18.059   6.227
 4679POPC   C2B60476  16.749  17.924   6.646
 4679POPC   C3B60477  16.713  17.890   7.112
 4679POPC   C4B60478  16.915  17.685   7.477
 4680POPC   NC360479  30.364  29.622   5.044
 4680POPC   PO460480  30.729  30.105   5.256
 4680POPC   GL160481  30.462  30.036   5.652
 4680POPC   GL260482  30.752  30.104   5.850
 4680POPC   C1A60483  30.352  30.020   6.120
 4680POPC   D2A60484  30.613  29.984   6.510
 4680POPC   C3A60485  30.478  29.988   6.963
 4680POPC   C4A60486  30.708  30.069   7.387
 4680POPC   C1B60487  30.893  29.765   6.143
 4680POPC   C2B60488  31.050  29.702   6.583
 4680POPC   C3B60489  30.939  29.755   7.032
 4680POPC   C4B60490  31.138  29.809   7.467
 4681POPC   NC360491  14.108  32.958   5.452
 4681POPC   PO460492  14.905  33.149   5.431
 4681POPC   GL160493  14.584  33.177   5.765
 4681POPC   GL260494  14.223  33.206   5.871
 4681POPC   C1A60495  14.534  32.963   6.188
 4681POPC   D2A60496  14.680  32.832   6.592
 4681POPC   C3A60497  14.407  32.971   6.918
 4681POPC   C4A60498  14.352  33.064   7.325
 4681POPC   C1B60499  14.068  33.220   6.288
 4681POPC   C2B60500  14.146  33.361   6.717
 4681POPC   C3B60501  13.975  33.351   7.159
 4681POPC   C4B60502  14.048  33.312   7.659
 4682POPC   NC360503  31.740  10.873   5.671
 4682POPC   PO460504  31.570  10.316   5.377
 4682POPC   GL160505  31.413  10.395   5.776
 4682POPC   GL260506  31.230  10.676   5.798
 4682POPC   C1A60507  31.512  10.501   6.221
 4682POPC   D2A60508  31.504  10.790   6.573
 4682POPC   C3A60509  31.559  10.563   6.974
 4682POPC   C4A60510  31.633  10.269   7.299
 4682POPC   C1B60511  31.022  10.574   6.147
 4682POPC   C2B60512  31.103  10.471   6.552
 4682POPC   C3B60513  31.005  10.552   6.950
 4682POPC   C4B60514  31.186  10.649   7.329
 4683POPC   NC360515  25.191  39.448   5.287
 4683POPC   PO460516  25.107  38.766   5.372
 4683POPC   GL160517  25.241  39.085   5.671
 4683POPC   GL260518  24.964  39.238   5.787
 4683POPC   C1A60519  25.418  39.102   6.091
 4683POPC   D2A60520  25.421  39.293   6.499
 4683POPC   C3A60521  25.327  39.155   6.883
 4683POPC   C4A60522  25.433  39.407   7.250
 4683POPC   C1B60523  24.912  39.045   6.193
 4683POPC   C2B60524  24.902  38.819   6.590
 4683POPC   C3B60525  24.879  38.972   7.023
 4683POPC   C4B60526  24.936  39.425   7.152
 4684POPC   NC360527  24.140   6.096   5.623
 4684POPC   PO460528  23.523   5.744   5.402
 4684POPC   GL160529  23.752   5.763   5.809
 4684POPC   GL260530  23.898   5.444   5.880
 4684POPC   C1A60531  23.801   6.067   6.184
 4684POPC   D2A60532  23.659   6.290   6.568
 4684POPC   C3A60533  23.695   6.072   6.963
 4684POPC   C4A60534  23.490   5.879   7.301
 4684POPC   C1B60535  23.895   5.583   6.288
 4684POPC   C2B60536  23.611   5.758   6.569
 4684POPC   C3B60537  23.674   5.562   6.927
 4684POPC   C4B60538  23.977   5.663   7.181
 4685POPC   NC360539  10.107  34.889   5.476
 4685POPC   PO460540   9.485  34.747   5.579
 4685POPC   GL160541   9.628  34.476   5.903
 4685POPC   GL260542   9.981  34.447   5.843
 4685POPC   C1A60543   9.685  34.488   6.345
 4685POPC   D2A60544   9.809  34.758   6.672
 4685POPC   C3A60545   9.617  34.635   7.032
 4685POPC   C4A60546   9.911  34.623   7.304
 4685POPC   C1B60547   9.893  34.084   6.111
 4685POPC   C2B60548   9.854  33.991   6.512
 4685POPC   C3B60549   9.860  34.219   6.853
 4685POPC   C4B60550   9.770  34.142   7.231
 4686POPC   NC360551  34.664   3.213   5.392
 4686POPC   PO460552  34.793   3.832   5.369
 4686POPC   GL160553  34.599   3.673   5.772
 4686POPC   GL260554  34.346   3.391   5.801
 4686POPC   C1A60555  34.626   3.546   6.232
 4686POPC   D2A60556  34.597   3.738   6.664
 4686POPC   C3A60557  34.876   3.576   7.002
 4686POPC   C4A60558  34.965   3.142   7.155
 4686POPC   C1B60559  34.174   3.311   6.260
 4686POPC   C2B60560  34.382   3.234   6.692
 4686POPC   C3B60561  34.462   3.321   7.159
 4686POPC   C4B60562  34.244   3.481   7.524
 4687POPC   NC360563   2.617  38.413   5.346
 4687POPC   PO460564   2.599  39.070   5.514
 4687POPC   GL160565   2.589  38.697   5.787
 4687POPC   GL260566   2.665  38.295   5.839
 4687POPC   C1A60567   2.763  38.641   6.183
 4687POPC   D2A60568   2.885  38.467   6.566
 4687POPC   C3A60569   3.049  38.712   6.887
 4687POPC   C4A60570   2.733  38.650   7.165
 4687POPC   C1B60571   3.064  38.219   6.138
 4687POPC   C2B60572   3.171  38.037   6.584
 4687POPC   C3B60573   2.998  38.203   7.009
 4687POPC   C4B60574   3.056  38.180   7.460
 4688POPC   NC360575   0.882  24.250   5.366
 4688POPC   PO460576   1.466  24.705   5.447
 4688POPC   GL160577   1.430  24.519   5.856
 4688POPC   GL260578   1.084  24.448   5.833
 4688POPC   C1A60579   1.318  24.487   6.322
 4688POPC   D2A60580   1.511  24.691   6.693
 4688POPC   C3A60581   1.286  24.662   7.076
 4688POPC   C4A60582   1.198  24.344   7.443
 4688POPC   C1B60583   0.819  24.518   6.200
 4688POPC   C2B60584   0.779  24.390   6.629
 4688POPC   C3B60585   0.844  24.451   7.081
 4688POPC   C4B60586   0.967  24.803   7.447
 4689POPC   NC360587  33.748   2.196   5.491
 4689POPC   PO460588  33.394   1.585   5.442
 4689POPC   GL160589  33.668   1.705   5.771
 4689POPC   GL260590  34.012   1.768   5.662
 4689POPC   C1A60591  33.620   1.906   6.165
 4689POPC   D2A60592  33.780   1.861   6.559
 4689POPC   C3A60593  33.610   1.920   6.969
 4689POPC   C4A60594  33.611   1.774   7.400
 4689POPC   C1B60595  34.138   1.910   6.081
 4689POPC   C2B60596  34.260   2.040   6.493
 4689POPC   C3B60597  34.129   1.971   6.911
 4689POPC   C4B60598  33.992   2.111   7.311
 4690POPC   NC360599  17.515  30.396   5.296
 4690POPC   PO460600  17.748  29.753   5.376
 4690POPC   GL160601  17.455  29.960   5.689
 4690POPC   GL260602  17.363  29.637   5.805
 4690POPC   C1A60603  17.263  30.011   6.137
 4690POPC   D2A60604  17.518  30.043   6.518
 4690POPC   C3A60605  17.350  29.953   6.891
 4690POPC   C4A60606  17.532  30.064   7.290
 4690POPC   C1B60607  17.652  29.672   6.173
 4690POPC   C2B60608  17.715  29.522   6.606
 4690POPC   C3B60609  17.700  29.617   7.043
 4690POPC   C4B60610  17.900  29.475   7.421
 4691POPC   NC360611  23.300  29.397   5.659
 4691POPC   PO460612  22.897  29.819   5.269
 4691POPC   GL160613  22.910  29.747   5.688
 4691POPC   GL260614  23.209  29.902   5.720
 4691POPC   C1A60615  22.923  29.692   6.142
 4691POPC   D2A60616  22.728  29.929   6.477
 4691POPC   C3A60617  22.926  29.942   6.896
 4691POPC   C4A60618  22.787  29.846   7.291
 4691POPC   C1B60619  23.111  30.159   6.079
 4691POPC   C2B60620  23.144  30.225   6.513
 4691POPC   C3B60621  23.404  30.269   6.881
 4691POPC   C4B60622  23.275  30.113   7.283
 4692POPC   NC360623  14.637  20.520   5.525
 4692POPC   PO460624  14.097  20.876   5.731
 4692POPC   GL160625  14.472  20.782   5.932
 4692POPC   GL260626  14.701  21.040   5.824
 4692POPC   C1A60627  14.570  20.433   6.230
 4692POPC   D2A60628  14.577  20.237   6.650
 4692POPC   C3A60629  14.447  20.505   6.966
 4692POPC   C4A60630  14.608  20.775   7.251
 4692POPC   C1B60631  14.838  20.927   6.258
 4692POPC   C2B60632  14.714  20.920   6.696
 4692POPC   C3B60633  14.789  21.201   7.023
 4692POPC   C4B60634  14.940  21.107   7.463
 4693POPC   NC360635   9.482  32.729   5.541
 4693POPC   PO460636  10.046  33.258   5.435
 4693POPC   GL160637   9.766  33.087   5.770
 4693POPC   GL260638   9.889  32.753   5.867
 4693POPC   C1A60639   9.659  33.204   6.195
 4693POPC   D2A60640   9.665  33.517   6.512
 4693POPC   C3A60641   9.743  33.308   6.872
 4693POPC   C4A60642   9.907  33.241   7.244
 4693POPC   C1B60643   9.945  32.765   6.319
 4693POPC   C2B60644   9.633  32.847   6.636
 4693POPC   C3B60645   9.601  32.838   7.093
 4693POPC   C4B60646   9.976  32.660   7.291
 4694POPC   NC360647  36.283  41.349   5.339
 4694POPC   PO460648  35.884  41.825   5.460
 4694POPC   GL160649  36.307  41.818   5.651
 4694POPC   GL260650  36.171  42.021   5.892
 4694POPC   C1A60651  36.551  41.732   6.067
 4694POPC   D2A60652  36.492  41.456   6.434
 4694POPC   C3A60653  36.395  41.640   6.839
 4694POPC   C4A60654  36.330  41.551   7.265
 4694POPC   C1B60655  36.061  41.607   6.119
 4694POPC   C2B60656  35.969  41.487   6.559
 4694POPC   C3B60657  35.917  41.695   6.979
 4694POPC   C4B60658  35.867  41.760   7.431
 4695POPC   NC360659  22.350  38.407   5.394
 4695POPC   PO460660  21.742  38.760   5.534
 4695POPC   GL160661  21.880  38.550   5.923
 4695POPC   GL260662  22.217  38.427   5.895
 4695POPC   C1A60663  21.883  38.429   6.362
 4695POPC   D2A60664  21.773  38.355   6.811
 4695POPC   C3A60665  21.858  38.662   7.094
 4695POPC   C4A60666  21.990  38.565   7.480
 4695POPC   C1B60667  22.394  38.402   6.321
 4695POPC   C2B60668  22.249  38.541   6.740
 4695POPC   C3B60669  22.220  38.280   7.107
 4695POPC   C4B60670  22.614  38.139   7.278
 4696POPC   NC360671   5.182  11.129   5.599
 4696POPC   PO460672   5.058  10.421   5.539
 4696POPC   GL160673   5.175  10.695   5.871
 4696POPC   GL260674   4.836  10.897   5.888
 4696POPC   C1A60675   5.470  10.714   6.260
 4696POPC   D2A60676   5.572  10.829   6.702
 4696POPC   C3A60677   5.385  10.548   7.053
 4696POPC   C4A60678   5.485  10.629   7.476
 4696POPC   C1B60679   4.989  10.862   6.305
 4696POPC   C2B60680   5.084  10.699   6.656
 4696POPC   C3B60681   4.910  10.757   7.019
 4696POPC   C4B60682   4.702  10.414   7.125
 4697POPC   NC360683  24.042  19.915   5.343
 4697POPC   PO460684  24.736  19.948   5.422
 4697POPC   GL160685  24.542  19.784   5.816
 4697POPC   GL260686  24.166  19.798   5.835
 4697POPC   C1A60687  24.618  19.887   6.259
 4697POPC   D2A60688  24.848  19.964   6.642
 4697POPC   C3A60689  24.649  19.965   7.038
 4697POPC   C4A60690  24.719  19.690   7.385
 4697POPC   C1B60691  24.140  20.091   6.182
 4697POPC   C2B60692  24.159  19.871   6.551
 4697POPC   C3B60693  24.111  19.962   6.956
 4697POPC   C4B60694  24.223  19.754   7.300
 4698POPC   NC360695  21.552  31.102   5.485
 4698POPC   PO460696  21.648  30.464   5.156
 4698POPC   GL160697  21.532  30.476   5.633
 4698POPC   GL260698  21.179  30.410   5.738
 4698POPC   C1A60699  21.617  30.454   6.110
 4698POPC   D2A60700  21.536  30.655   6.524
 4698POPC   C3A60701  21.600  30.476   6.945
 4698POPC   C4A60702  21.598  30.685   7.400
 4698POPC   C1B60703  21.142  30.634   6.185
 4698POPC   C2B60704  21.015  30.685   6.655
 4698POPC   C3B60705  21.151  30.643   7.111
 4698POPC   C4B60706  21.063  30.561   7.566
 4699POPC   NC360707  31.195  36.380   5.400
 4699POPC   PO460708  31.722  35.842   5.330
 4699POPC   GL160709  31.582  36.091   5.666
 4699POPC   GL260710  31.240  35.954   5.739
 4699POPC   C1A60711  31.567  36.148   6.124
 4699POPC   D2A60712  31.579  35.892   6.491
 4699POPC   C3A60713  31.655  36.028   6.928
 4699POPC   C4A60714  31.285  35.988   7.166
 4699POPC   C1B60715  31.085  35.985   6.204
 4699POPC   C2B60716  31.108  36.075   6.657
 4699POPC   C3B60717  31.067  36.429   6.957
 4699POPC   C4B60718  31.208  36.428   7.392
 4700POPC   NC360719  34.368   8.216   5.301
 4700POPC   PO460720  34.984   8.319   5.393
 4700POPC   GL160721  34.681   8.102   5.742
 4700POPC   GL260722  34.305   8.009   5.761
 4700POPC   C1A60723  34.656   8.068   6.209
 4700POPC   D2A60724  34.525   8.279   6.609
 4700POPC   C3A60725  34.770   8.345   6.980
 4700POPC   C4A60726  34.621   7.924   7.146
 4700POPC   C1B60727  34.167   8.208   6.130
 4700POPC   C2B60728  33.968   8.126   6.505
 4700POPC   C3B60729  34.161   8.061   6.905
 4700POPC   C4B60730  34.319   8.370   7.158
 4701POPC   NC360731  32.322  25.161   5.561
 4701POPC   PO460732  31.751  24.834   5.482
 4701POPC   GL160733  32.037  24.809   5.825
 4701POPC   GL260734  32.413  24.921   5.979
 4701POPC   C1A60735  31.964  24.980   6.245
 4701POPC   D2A60736  32.026  25.220   6.617
 4701POPC   C3A60737  32.200  25.048   6.981
 4701POPC   C4A60738  32.119  25.145   7.439
 4701POPC   C1B60739  32.427  25.249   6.305
 4701POPC   C2B60740  32.491  25.430   6.733
 4701POPC   C3B60741  32.509  25.390   7.187
 4701POPC   C4B60742  32.718  25.217   7.552
 4702POPC   NC360743  32.895  14.104   5.235
 4702POPC   PO460744  33.067  14.686   5.217
 4702POPC   GL160745  33.029  14.384   5.705
 4702POPC   GL260746  33.118  14.048   5.740
 4702POPC   C1A60747  32.852  14.576   6.177
 4702POPC   D2A60748  32.680  14.705   6.628
 4702POPC   C3A60749  32.955  14.585   7.022
 4702POPC   C4A60750  33.119  14.775   7.421
 4702POPC   C1B60751  32.950  14.092   6.149
 4702POPC   C2B60752  33.037  14.317   6.571
 4702POPC   C3B60753  33.056  14.094   6.960
 4702POPC   C4B60754  32.780  14.137   7.279
 4703POPC   NC360755   1.733  38.867   5.458
 4703POPC   PO460756   1.076  39.081   5.277
 4703POPC   GL160757   1.025  39.284   5.680
 4703POPC   GL260758   1.355  39.333   5.812
 4703POPC   C1A60759   0.914  39.233   6.135
 4703POPC   D2A60760   0.941  39.501   6.516
 4703POPC   C3A60761   0.935  39.224   6.844
 4703POPC   C4A60762   0.907  39.170   7.231
 4703POPC   C1B60763   1.355  39.498   6.206
 4703POPC   C2B60764   1.416  39.345   6.616
 4703POPC   C3B60765   1.325  39.557   6.971
 4703POPC   C4B60766   1.560  39.486   7.352
 4704POPC   NC360767  32.468  31.626   5.435
 4704POPC   PO460768  32.080  31.054   5.461
 4704POPC   GL160769  32.201  31.274   5.815
 4704POPC   GL260770  32.196  31.596   5.852
 4704POPC   C1A60771  32.239  31.293   6.280
 4704POPC   D2A60772  32.457  31.399   6.687
 4704POPC   C3A60773  32.366  31.501   7.128
 4704POPC   C4A60774  32.433  31.400   7.592
 4704POPC   C1B60775  31.960  31.713   6.177
 4704POPC   C2B60776  32.024  31.649   6.620
 4704POPC   C3B60777  31.874  31.638   7.021
 4704POPC   C4B60778  31.991  31.586   7.463
 4705POPC   NC360779  32.788  16.428   5.462
 4705POPC   PO460780  33.203  15.844   5.499
 4705POPC   GL160781  33.138  16.096   5.861
 4705POPC   GL260782  32.782  16.086   5.853
 4705POPC   C1A60783  33.104  15.955   6.295
 4705POPC   D2A60784  33.087  15.821   6.735
 4705POPC   C3A60785  33.275  16.132   7.030
 4705POPC   C4A60786  33.506  16.099   7.417
 4705POPC   C1B60787  32.632  16.196   6.262
 4705POPC   C2B60788  32.604  15.969   6.672
 4705POPC   C3B60789  32.758  16.088   7.059
 4705POPC   C4B60790  32.413  16.314   7.160
 4706POPC   NC360791  27.043  35.166   5.625
 4706POPC   PO460792  27.583  35.496   5.344
 4706POPC   GL160793  27.556  35.647   5.792
 4706POPC   GL260794  27.894  35.693   5.893
 4706POPC   C1A60795  27.442  35.497   6.265
 4706POPC   D2A60796  27.508  35.072   6.514
 4706POPC   C3A60797  27.396  35.048   6.969
 4706POPC   C4A60798  27.452  35.220   7.382
 4706POPC   C1B60799  27.859  35.296   6.071
 4706POPC   C2B60800  27.973  35.295   6.466
 4706POPC   C3B60801  27.835  35.377   6.866
 4706POPC   C4B60802  27.982  35.538   7.270
 4707POPC   NC360803  10.200  11.688   5.593
 4707POPC   PO460804   9.646  12.180   5.519
 4707POPC   GL160805   9.857  12.008   5.852
 4707POPC   GL260806  10.158  12.176   5.784
 4707POPC   C1A60807   9.746  11.933   6.282
 4707POPC   D2A60808   9.780  11.770   6.706
 4707POPC   C3A60809   9.663  12.046   7.045
 4707POPC   C4A60810   9.530  12.053   7.482
 4707POPC   C1B60811  10.242  12.039   6.201
 4707POPC   C2B60812  10.291  11.936   6.619
 4707POPC   C3B60813  10.169  11.899   7.047
 4707POPC   C4B60814  10.047  12.043   7.469
 4708POPC   NC360815   4.147  38.952   5.567
 4708POPC   PO460816   4.397  39.509   5.361
 4708POPC   GL160817   4.461  39.361   5.780
 4708POPC   GL260818   4.140  39.354   5.910
 4708POPC   C1A60819   4.521  39.329   6.233
 4708POPC   D2A60820   4.238  39.269   6.574
 4708POPC   C3A60821   4.454  39.248   6.933
 4708POPC   C4A60822   4.451  38.958   7.202
 4708POPC   C1B60823   4.135  38.955   6.192
 4708POPC   C2B60824   3.941  38.793   6.552
 4708POPC   C3B60825   3.927  39.016   6.943
 4708POPC   C4B60826   3.964  38.879   7.386
 4709POPC   NC360827   4.126   9.782   5.347
 4709POPC   PO460828   4.739   9.490   5.360
 4709POPC   GL160829   4.426   9.628   5.726
 4709POPC   GL260830   4.192   9.359   5.848
 4709POPC   C1A60831   4.209   9.743   6.145
 4709POPC   D2A60832   4.116   9.882   6.552
 4709POPC   C3A60833   4.206   9.763   6.952
 4709POPC   C4A60834   4.192   9.988   7.330
 4709POPC   C1B60835   4.512   9.344   6.152
 4709POPC   C2B60836   4.444   9.457   6.564
 4709POPC   C3B60837   4.618   9.464   6.968
 4709POPC   C4B60838   4.376   9.499   7.365
 4710POPC   NC360839  12.712  41.295   5.443
 4710POPC   PO460840  12.727  41.914   5.499
 4710POPC   GL160841  12.747  41.582   5.893
 4710POPC   GL260842  12.910  41.251   5.907
 4710POPC   C1A60843  12.777  41.420   6.362
 4710POPC   D2A60844  13.082  41.422   6.698
 4710POPC   C3A60845  12.802  41.640   6.994
 4710POPC   C4A60846  12.751  41.745   7.440
 4710POPC   C1B60847  12.472  41.137   6.072
 4710POPC   C2B60848  12.458  41.007   6.519
 4710POPC   C3B60849  12.761  41.086   6.860
 4710POPC   C4B60850  12.885  41.271   7.313
 4711POPC   NC360851  30.136  44.222   5.562
 4711POPC   PO460852  29.620  43.683   5.343
 4711POPC   GL160853  29.689  43.885   5.725
 4711POPC   GL260854  29.500  44.211   5.752
 4711POPC   C1A60855  29.740  43.709   6.143
 4711POPC   D2A60856  29.545  43.687   6.552
 4711POPC   C3A60857  29.852  43.717   6.869
 4711POPC   C4A60858  30.015  43.676   7.278
 4711POPC   C1B60859  29.706  44.217   6.136
 4711POPC   C2B60860  29.855  44.117   6.538
 4711POPC   C3B60861  29.669  44.210   6.932
 4711POPC   C4B60862  29.842  44.200   7.333
 4712POPC   NC360863  32.061  17.112   5.513
 4712POPC   PO460864  32.491  16.654   5.162
 4712POPC   GL160865  32.428  16.780   5.642
 4712POPC   GL260866  32.467  17.109   5.847
 4712POPC   C1A60867  32.166  16.764   6.062
 4712POPC   D2A60868  32.081  16.848   6.505
 4712POPC   C3A60869  32.030  16.537   6.830
 4712POPC   C4A60870  32.028  16.629   7.265
 4712POPC   C1B60871  32.656  16.758   6.111
 4712POPC   C2B60872  32.595  16.670   6.555
 4712POPC   C3B60873  32.460  16.802   6.968
 4712POPC   C4B60874  32.425  16.955   7.383
 4713POPC   NC360875  41.532  26.276   5.402
 4713POPC   PO460876  41.902  25.646   5.408
 4713POPC   GL160877  41.735  25.922   5.770
 4713POPC   GL260878  41.673  26.280   5.882
 4713POPC   C1A60879  41.662  25.925   6.235
 4713POPC   D2A60880  41.467  25.731   6.576
 4713POPC   C3A60881  41.713  25.800   6.913
 4713POPC   C4A60882  41.602  25.959   7.305
 4713POPC   C1B60883  41.668  26.452   6.271
 4713POPC   C2B60884  41.780  26.255   6.663
 4713POPC   C3B60885  41.842  26.366   7.096
 4713POPC   C4B60886  41.803  26.437   7.544
 4714POPC   NC360887  18.832  43.657   5.446
 4714POPC   PO460888  19.183  44.273   5.478
 4714POPC   GL160889  19.203  44.106   5.873
 4714POPC   GL260890  18.864  44.043   5.823
 4714POPC   C1A60891  19.332  44.040   6.303
 4714POPC   D2A60892  19.195  43.718   6.620
 4714POPC   C3A60893  19.162  43.912   7.009
 4714POPC   C4A60894  19.495  44.007   7.277
 4714POPC   C1B60895  18.895  43.802   6.201
 4714POPC   C2B60896  18.702  43.716   6.610
 4714POPC   C3B60897  18.695  43.612   7.035
 4714POPC   C4B60898  18.706  43.986   7.271
 4715POPC   NC360899  25.744  40.091   5.518
 4715POPC   PO460900  25.206  39.867   5.119
 4715POPC   GL160901  25.280  39.756   5.661
 4715POPC   GL260902  25.493  39.950   5.933
 4715POPC   C1A60903  25.202  39.581   6.099
 4715POPC   D2A60904  25.395  39.799   6.456
 4715POPC   C3A60905  25.254  39.740   6.879
 4715POPC   C4A60906  25.182  39.846   7.316
 4715POPC   C1B60907  25.559  40.275   6.288
 4715POPC   C2B60908  25.641  40.228   6.749
 4715POPC   C3B60909  25.378  40.261   7.101
 4715POPC   C4B60910  25.324  40.470   7.497
 4716POPC   NC360911  43.350  21.116   5.572
 4716POPC   PO460912  42.906  21.708   5.526
 4716POPC   GL160913  43.089  21.470   5.818
 4716POPC   GL260914  43.436  21.577   5.815
 4716POPC   C1A60915  43.012  21.241   6.191
 4716POPC   D2A60916  42.723  21.347   6.549
 4716POPC   C3A60917  42.792  21.385   7.011
 4716POPC   C4A60918  42.997  21.152   7.355
 4716POPC   C1B60919  43.282  21.680   6.249
 4716POPC   C2B60920  43.233  21.462   6.628
 4716POPC   C3B60921  43.246  21.644   7.017
 4716POPC   C4B60922  43.051  21.653   7.423
 4717POPC   NC360923  24.479  28.631   5.272
 4717POPC   PO460924  24.679  28.099   5.386
 4717POPC   GL160925  24.550  28.286   5.802
 4717POPC   GL260926  24.331  28.591   5.780
 4717POPC   C1A60927  24.645  28.510   6.218
 4717POPC   D2A60928  24.760  28.325   6.624
 4717POPC   C3A60929  24.647  28.583   6.944
 4717POPC   C4A60930  24.503  28.301   7.189
 4717POPC   C1B60931  24.173  28.403   6.172
 4717POPC   C2B60932  24.256  28.557   6.582
 4717POPC   C3B60933  24.131  28.613   7.015
 4717POPC   C4B60934  24.122  28.640   7.466
 4718POPC   NC360935  10.814  12.401   5.448
 4718POPC   PO460936  11.218  11.840   5.269
 4718POPC   GL160937  11.103  11.922   5.700
 4718POPC   GL260938  11.403  11.787   5.830
 4718POPC   C1A60939  11.151  12.149   6.103
 4718POPC   D2A60940  11.397  12.134   6.498
 4718POPC   C3A60941  11.224  12.079   6.916
 4718POPC   C4A60942  11.342  12.349   7.274
 4718POPC   C1B60943  11.217  11.631   6.190
 4718POPC   C2B60944  11.401  11.549   6.579
 4718POPC   C3B60945  11.536  11.648   6.960
 4718POPC   C4B60946  11.432  11.849   7.328
 4719POPC   NC360947  39.883   9.531   5.563
 4719POPC   PO460948  40.190  10.067   5.373
 4719POPC   GL160949  40.023   9.986   5.773
 4719POPC   GL260950  40.259   9.757   5.882
 4719POPC   C1A60951  39.916   9.991   6.201
 4719POPC   D2A60952  39.809   9.864   6.630
 4719POPC   C3A60953  40.103   9.808   6.958
 4719POPC   C4A60954  39.944   9.798   7.361
 4719POPC   C1B60955  40.212   9.497   6.253
 4719POPC   C2B60956  39.966   9.306   6.567
 4719POPC   C3B60957  39.837   9.387   6.970
 4719POPC   C4B60958  40.139   9.302   7.276
 4720POPC   NC360959   7.476  34.946   5.383
 4720POPC   PO460960   6.847  35.192   5.364
 4720POPC   GL160961   7.148  35.260   5.726
 4720POPC   GL260962   7.482  35.138   5.868
 4720POPC   C1A60963   7.194  35.467   6.131
 4720POPC   D2A60964   7.409  35.723   6.456
 4720POPC   C3A60965   7.548  35.531   6.828
 4720POPC   C4A60966   7.191  35.405   7.078
 4720POPC   C1B60967   7.563  35.197   6.338
 4720POPC   C2B60968   7.424  35.050   6.747
 4720POPC   C3B60969   7.598  35.062   7.175
 4720POPC   C4B60970   7.675  34.999   7.636
 4721POPC   NC360971  27.457   7.367   5.288
 4721POPC   PO460972  28.071   7.622   5.579
 4721POPC   GL160973  27.629   7.622   5.747
 4721POPC   GL260974  27.427   7.313   5.838
 4721POPC   C1A60975  27.448   7.689   6.183
 4721POPC   D2A60976  27.483   7.426   6.577
 4721POPC   C3A60977  27.702   7.593   6.970
 4721POPC   C4A60978  27.692   7.539   7.430
 4721POPC   C1B60979  27.811   7.322   6.157
 4721POPC   C2B60980  27.922   7.149   6.588
 4721POPC   C3B60981  27.647   7.075   6.935
 4721POPC   C4B60982  27.876   7.094   7.284
 4722POPC   NC360983   9.848  38.211   5.459
 4722POPC   PO460984   9.494  38.759   5.298
 4722POPC   GL160985   9.763  38.691   5.706
 4722POPC   GL260986  10.076  38.461   5.826
 4722POPC   C1A60987   9.868  38.751   6.163
 4722POPC   D2A60988   9.961  38.536   6.540
 4722POPC   C3A60989   9.902  38.717   6.922
 4722POPC   C4A60990   9.804  38.825   7.328
 4722POPC   C1B60991   9.999  38.148   6.155
 4722POPC   C2B60992  10.172  38.082   6.574
 4722POPC   C3B60993   9.977  38.157   6.978
 4722POPC   C4B60994   9.741  38.315   7.331
 4723POPC   NC360995   6.124  23.738   5.510
 4723POPC   PO460996   5.477  23.890   5.439
 4723POPC   GL160997   5.751  23.758   5.839
 4723POPC   GL260998   5.996  23.503   5.925
 4723POPC   C1A60999   5.996  23.955   6.182
 4723POPC   D2A61000   5.810  23.978   6.599
 4723POPC   C3A61001   5.941  23.853   6.988
 4723POPC   C4A61002   5.735  23.921   7.369
 4723POPC   C1B61003   5.785  23.516   6.342
 4723POPC   C2B61004   5.746  23.412   6.786
 4723POPC   C3B61005   5.785  23.413   7.240
 4723POPC   C4B61006   6.144  23.626   7.417
 4724POPC   NC361007  21.308   8.721   5.311
 4724POPC   PO461008  21.546   9.424   5.344
 4724POPC   GL161009  21.527   9.124   5.734
 4724POPC   GL261010  21.760   8.858   5.813
 4724POPC   C1A61011  21.350   8.905   6.129
 4724POPC   D2A61012  21.159   8.762   6.528
 4724POPC   C3A61013  21.420   8.738   6.895
 4724POPC   C4A61014  21.553   9.045   7.194
 4724POPC   C1B61015  21.767   9.182   6.202
 4724POPC   C2B61016  21.759   9.087   6.660
 4724POPC   C3B61017  21.955   9.295   7.026
 4724POPC   C4B61018  21.930   9.223   7.480
 4725POPC   NC361019  35.760  19.393   5.485
 4725POPC   PO461020  35.608  18.804   5.359
 4725POPC   GL161021  35.796  18.945   5.748
 4725POPC   GL261022  36.142  19.105   5.661
 4725POPC   C1A61023  35.822  18.826   6.197
 4725POPC   D2A61024  35.967  18.713   6.617
 4725POPC   C3A61025  35.862  18.982   6.973
 4725POPC   C4A61026  35.980  18.956   7.401
 4725POPC   C1B61027  36.080  19.247   6.094
 4725POPC   C2B61028  36.049  19.230   6.539
 4725POPC   C3B61029  36.195  19.376   6.940
 4725POPC   C4B61030  36.030  19.482   7.384
 4726POPC   NC361031  12.865  16.645   5.253
 4726POPC   PO461032  12.814  17.245   5.471
 4726POPC   GL161033  12.671  16.965   5.771
 4726POPC   GL261034  12.957  16.744   5.761
 4726POPC   C1A61035  12.662  16.819   6.199
 4726POPC   D2A61036  12.894  16.712   6.601
 4726POPC   C3A61037  12.664  16.630   7.003
 4726POPC   C4A61038  12.739  16.545   7.458
 4726POPC   C1B61039  13.113  17.013   6.094
 4726POPC   C2B61040  13.123  17.172   6.493
 4726POPC   C3B61041  13.158  17.095   6.888
 4726POPC   C4B61042  13.109  16.825   7.215
 4727POPC   NC361043   2.184  11.651   5.432
 4727POPC   PO461044   2.176  12.372   5.468
 4727POPC   GL161045   2.345  12.165   5.857
 4727POPC   GL261046   2.143  11.857   5.887
 4727POPC   C1A61047   2.209  12.123   6.312
 4727POPC   D2A61048   1.763  12.248   6.448
 4727POPC   C3A61049   1.746  12.312   6.892
 4727POPC   C4A61050   2.072  12.117   7.152
 4727POPC   C1B61051   1.809  11.789   6.209
 4727POPC   C2B61052   1.798  11.789   6.663
 4727POPC   C3B61053   1.648  11.827   7.074
 4727POPC   C4B61054   1.786  11.882   7.509
 4728POPC   NC361055  44.521  27.533   5.160
 4728POPC   PO461056  44.007  27.754   5.501
 4728POPC   GL161057  43.876  27.579   5.892
 4728POPC   GL261058  43.849  27.232   5.737
 4728POPC   C1A61059  43.740  27.377   6.290
 4728POPC   D2A61060  43.709  27.476   6.723
 4728POPC   C3A61061  44.069  27.697   6.862
 4728POPC   C4A61062  44.072  27.840   7.263
 4728POPC   C1B61063  44.186  27.233   6.041
 4728POPC   C2B61064  44.168  27.075   6.477
 4728POPC   C3B61065  44.097  27.164   6.920
 4728POPC   C4B61066  43.863  27.401   7.228
 4729POPC   NC361067  23.587  39.279   5.343
 4729POPC   PO461068  24.219  39.152   5.432
 4729POPC   GL161069  23.987  39.378   5.732
 4729POPC   GL261070  23.746  39.198   5.825
 4729POPC   C1A61071  23.949  39.505   6.172
 4729POPC   D2A61072  23.773  39.237   6.510
 4729POPC   C3A61073  23.953  39.322   6.916
 4729POPC   C4A61074  23.858  39.234   7.330
 4729POPC   C1B61075  23.430  39.397   6.103
 4729POPC   C2B61076  23.311  39.465   6.539
 4729POPC   C3B61077  23.450  39.313   6.949
 4729POPC   C4B61078  23.421  39.016   7.300
 4730POPC   NC361079  42.193   1.878   5.483
 4730POPC   PO461080  42.631   2.354   5.435
 4730POPC   GL161081  42.515   2.204   5.856
 4730POPC   GL261082  42.268   1.964   5.979
 4730POPC   C1A61083  42.704   1.990   6.254
 4730POPC   D2A61084  42.689   1.939   6.701
 4730POPC   C3A61085  42.294   2.131   6.867
 4730POPC   C4A61086  42.261   2.284   7.317
 4730POPC   C1B61087  42.115   1.658   6.279
 4730POPC   C2B61088  42.023   1.650   6.730
 4730POPC   C3B61089  42.013   1.799   7.157
 4730POPC   C4B61090  42.126   1.856   7.591
 4731POPC   NC361091   0.949   5.678   5.519
 4731POPC   PO461092   1.505   6.014   5.307
 4731POPC   GL161093   1.399   5.763   5.717
 4731POPC   GL261094   1.201   6.057   5.784
 4731POPC   C1A61095   1.145   5.731   6.165
 4731POPC   D2A61096   0.988   5.901   6.573
 4731POPC   C3A61097   1.040   5.697   6.964
 4731POPC   C4A61098   1.242   5.740   7.372
 4731POPC   C1B61099   1.291   6.245   6.190
 4731POPC   C2B61100   1.238   6.349   6.616
 4731POPC   C3B61101   1.111   6.200   7.037
 4731POPC   C4B61102   1.080   6.227   7.481
 4732POPC   NC361103  31.068  11.487   5.537
 4732POPC   PO461104  30.545  11.120   5.387
 4732POPC   GL161105  30.638  11.330   5.770
 4732POPC   GL261106  30.903  11.094   5.872
 4732POPC   C1A61107  30.759  11.495   6.189
 4732POPC   D2A61108  30.678  11.285   6.588
 4732POPC   C3A61109  30.561  11.391   7.008
 4732POPC   C4A61110  30.407  11.070   7.324
 4732POPC   C1B61111  31.102  11.065   6.283
 4732POPC   C2B61112  31.085  11.020   6.732
 4732POPC   C3B61113  30.878  11.013   7.118
 4732POPC   C4B61114  30.844  10.944   7.566
 4733POPC   NC361115  34.439  41.745   5.446
 4733POPC   PO461116  33.730  41.562   5.364
 4733POPC   GL161117  33.911  41.558   5.790
 4733POPC   GL261118  34.194  41.776   5.883
 4733POPC   C1A61119  33.905  41.301   6.174
 4733POPC   D2A61120  34.047  41.382   6.614
 4733POPC   C3A61121  33.856  41.362   7.010
 4733POPC   C4A61122  34.043  41.366   7.433
 4733POPC   C1B61123  34.019  41.786   6.276
 4733POPC   C2B61124  33.655  41.880   6.515
 4733POPC   C3B61125  33.580  41.810   6.932
 4733POPC   C4B61126  33.924  41.829   7.220
 4734POPC   NC361127  13.755  19.291   5.392
 4734POPC   PO461128  14.035  18.677   5.386
 4734POPC   GL161129  13.895  18.917   5.756
 4734POPC   GL261130  13.541  18.920   5.756
 4734POPC   C1A61131  13.830  19.165   6.157
 4734POPC   D2A61132  14.020  19.282   6.574
 4734POPC   C3A61133  13.870  19.069   6.937
 4734POPC   C4A61134  13.774  19.316   7.261
 4734POPC   C1B61135  13.403  18.833   6.184
 4734POPC   C2B61136  13.485  19.071   6.563
 4734POPC   C3B61137  13.335  19.164   6.969
 4734POPC   C4B61138  13.342  18.930   7.319
 4735POPC   NC361139  30.119  29.566   5.563
 4735POPC   PO461140  30.438  29.167   5.112
 4735POPC   GL161141  30.463  29.188   5.600
 4735POPC   GL261142  30.580  29.521   5.778
 4735POPC   C1A61143  30.440  29.059   6.063
 4735POPC   D2A61144  30.422  28.820   6.489
 4735POPC   C3A61145  30.560  29.014   6.892
 4735POPC   C4A61146  30.401  29.036   7.321
 4735POPC   C1B61147  30.442  29.535   6.226
 4735POPC   C2B61148  30.595  29.499   6.653
 4735POPC   C3B61149  30.443  29.486   7.051
 4735POPC   C4B61150  30.717  29.460   7.388
 4736POPC   NC361151   1.762  43.706   5.501
 4736POPC   PO461152   2.101  44.315   5.535
 4736POPC   GL161153   2.050  43.946   5.835
 4736POPC   GL261154   1.737  44.070   5.909
 4736POPC   C1A61155   2.064  43.684   6.206
 4736POPC   D2A61156   2.019  43.447   6.583
 4736POPC   C3A61157   2.032  43.561   7.025
 4736POPC   C4A61158   1.854  43.647   7.452
 4736POPC   C1B61159   2.024  44.201   6.266
 4736POPC   C2B61160   2.015  43.977   6.660
 4736POPC   C3B61161   1.929  44.051   7.085
 4736POPC   C4B61162   2.107  44.396   7.265
 4737POPC   NC361163  38.136  37.224   5.032
 4737POPC   PO461164  38.536  37.658   5.379
 4737POPC   GL161165  38.674  37.763   5.806
 4737POPC   GL261166  38.734  38.128   5.820
 4737POPC   C1A61167  38.459  37.628   6.190
 4737POPC   D2A61168  38.244  37.646   6.580
 4737POPC   C3A61169  38.362  37.463   6.967
 4737POPC   C4A61170  38.189  37.539   7.395
 4737POPC   C1B61171  38.771  38.020   6.274
 4737POPC   C2B61172  38.761  37.709   6.632
 4737POPC   C3B61173  38.774  37.735   7.081
 4737POPC   C4B61174  38.616  38.020   7.383
 4738POPC   NC361175  43.681  21.017   5.090
 4738POPC   PO461176  43.885  21.565   5.377
 4738POPC   GL161177  44.049  21.528   5.772
 4738POPC   GL261178  43.857  21.248   5.810
 4738POPC   C1A61179  44.177  21.417   6.178
 4738POPC   D2A61180  44.144  21.582   6.592
 4738POPC   C3A61181  43.855  21.353   6.864
 4738POPC   C4A61182  43.991  21.444   7.262
 4738POPC   C1B61183  43.609  21.263   6.211
 4738POPC   C2B61184  43.552  21.026   6.588
 4738POPC   C3B61185  43.363  21.098   6.985
 4738POPC   C4B61186  43.489  21.321   7.330
 4739POPC   NC361187  29.132  29.405   5.528
 4739POPC   PO461188  29.099  28.705   5.444
 4739POPC   GL161189  29.126  28.939   5.795
 4739POPC   GL261190  29.445  29.040   5.745
 4739POPC   C1A61191  29.064  28.995   6.216
 4739POPC   D2A61192  28.947  29.130   6.620
 4739POPC   C3A61193  29.088  28.950   6.949
 4739POPC   C4A61194  29.105  29.107   7.341
 4739POPC   C1B61195  29.476  29.285   6.139
 4739POPC   C2B61196  29.580  29.236   6.597
 4739POPC   C3B61197  29.506  29.208   7.068
 4739POPC   C4B61198  29.564  29.161   7.566
 4740POPC   NC361199  39.319  41.773   5.417
 4740POPC   PO461200  39.536  41.091   5.288
 4740POPC   GL161201  39.216  41.340   5.676
 4740POPC   GL261202  38.889  41.161   5.719
 4740POPC   C1A61203  39.164  41.620   6.102
 4740POPC   D2A61204  38.888  41.665   6.501
 4740POPC   C3A61205  39.087  41.655   6.931
 4740POPC   C4A61206  39.400  41.917   7.157
 4740POPC   C1B61207  38.891  41.210   6.193
 4740POPC   C2B61208  39.217  41.234   6.542
 4740POPC   C3B61209  39.304  41.144   6.994
 4740POPC   C4B61210  39.173  41.377   7.374
 4741POPC   NC361211  39.105  15.238   5.241
 4741POPC   PO461212  39.652  15.488   5.496
 4741POPC   GL161213  39.364  15.439   5.825
 4741POPC   GL261214  39.065  15.213   5.755
 4741POPC   C1A61215  39.363  15.301   6.234
 4741POPC   D2A61216  39.611  15.308   6.583
 4741POPC   C3A61217  39.361  15.169   6.884
 4741POPC   C4A61218  39.528  15.117   7.225
 4741POPC   C1B61219  38.900  15.027   6.120
 4741POPC   C2B61220  38.928  15.117   6.544
 4741POPC   C3B61221  38.778  15.234   6.946
 4741POPC   C4B61222  39.006  15.061   7.266
 4742POPC   NC361223  13.995   8.678   5.346
 4742POPC   PO461224  14.606   9.101   5.264
 4742POPC   GL161225  14.607   8.968   5.684
 4742POPC   GL261226  14.298   8.815   5.770
 4742POPC   C1A61227  14.572   9.100   6.124
 4742POPC   D2A61228  14.337   8.943   6.472
 4742POPC   C3A61229  14.584   8.935   6.843
 4742POPC   C4A61230  14.579   9.269   7.131
 4742POPC   C1B61231  14.556   8.586   6.118
 4742POPC   C2B61232  14.389   8.407   6.523
 4742POPC   C3B61233  14.146   8.627   6.844
 4742POPC   C4B61234  14.238   8.867   7.230
 4743POPC   NC361235  23.196   2.750   5.426
 4743POPC   PO461236  22.600   2.697   5.354
 4743POPC   GL161237  22.788   2.703   5.787
 4743POPC   GL261238  23.036   2.982   5.860
 4743POPC   C1A61239  22.971   2.606   6.204
 4743POPC   D2A61240  22.939   2.494   6.616
 4743POPC   C3A61241  22.964   2.819   6.911
 4743POPC   C4A61242  22.822   2.779   7.334
 4743POPC   C1B61243  22.908   3.114   6.282
 4743POPC   C2B61244  22.837   3.290   6.713
 4743POPC   C3B61245  22.703   3.262   7.179
 4743POPC   C4B61246  22.639   3.151   7.628
 4744POPC   NC361247   0.826   4.346   5.263
 4744POPC   PO461248   1.429   4.260   5.479
 4744POPC   GL161249   1.182   4.462   5.740
 4744POPC   GL261250   0.963   4.199   5.765
 4744POPC   C1A61251   1.159   4.392   6.180
 4744POPC   D2A61252   1.120   4.550   6.552
 4744POPC   C3A61253   1.467   4.425   6.766
 4744POPC   C4A61254   1.496   4.458   7.176
 4744POPC   C1B61255   0.792   4.052   6.162
 4744POPC   C2B61256   1.014   4.029   6.558
 4744POPC   C3B61257   0.996   4.265   6.961
 4744POPC   C4B61258   1.037   4.220   7.404
 4745POPC   NC361259   9.604  33.439   5.420
 4745POPC   PO461260   9.831  34.051   5.485
 4745POPC   GL161261   9.546  33.855   5.773
 4745POPC   GL261262   9.785  33.600   5.886
 4745POPC   C1A61263   9.342  33.710   6.162
 4745POPC   D2A61264   9.155  33.701   6.581
 4745POPC   C3A61265   9.454  33.826   6.904
 4745POPC   C4A61266   9.608  33.664   7.284
 4745POPC   C1B61267  10.121  33.635   6.200
 4745POPC   C2B61268  10.275  33.696   6.622
 4745POPC   C3B61269  10.005  33.730   6.960
 4745POPC   C4B61270  10.101  33.721   7.381
 4746POPC   NC361271  25.771  27.500   5.180
 4746POPC   PO461272  26.349  27.294   5.575
 4746POPC   GL161273  26.201  27.437   5.927
 4746POPC   GL261274  26.242  27.787   5.945
 4746POPC   C1A61275  26.048  27.542   6.342
 4746POPC   D2A61276  25.948  27.599   6.760
 4746POPC   C3A61277  25.857  27.286   7.037
 4746POPC   C4A61278  26.046  27.250   7.456
 4746POPC   C1B61279  26.390  28.012   6.316
 4746POPC   C2B61280  26.518  28.144   6.728
 4746POPC   C3B61281  26.429  27.933   7.111
 4746POPC   C4B61282  26.042  27.719   7.244
 4747POPC   NC361283  35.144  43.441   5.356
 4747POPC   PO461284  35.781  43.306   5.371
 4747POPC   GL161285  35.433  43.272   5.717
 4747POPC   GL261286  35.250  42.946   5.726
 4747POPC   C1A61287  35.335  43.417   6.154
 4747POPC   D2A61288  35.584  43.392   6.556
 4747POPC   C3A61289  35.361  43.271   6.907
 4747POPC   C4A61290  35.226  43.043   7.241
 4747POPC   C1B61291  35.493  42.941   6.140
 4747POPC   C2B61292  35.562  42.861   6.607
 4747POPC   C3B61293  35.577  42.665   7.043
 4747POPC   C4B61294  35.505  42.696   7.506
 4748POPC   NC361295  25.504  12.430   5.419
 4748POPC   PO461296  25.152  11.875   5.250
 4748POPC   GL161297  25.352  12.014   5.668
 4748POPC   GL261298  25.706  11.880   5.719
 4748POPC   C1A61299  25.343  12.240   6.088
 4748POPC   D2A61300  25.127  12.325   6.501
 4748POPC   C3A61301  24.934  12.050   6.844
 4748POPC   C4A61302  24.990  12.176   7.287
 4748POPC   C1B61303  25.484  11.688   6.067
 4748POPC   C2B61304  25.379  11.867   6.476
 4748POPC   C3B61305  25.434  12.113   6.868
 4748POPC   C4B61306  25.432  11.871   7.254
 4749POPC   NC361307  15.229  37.965   5.366
 4749POPC   PO461308  14.811  37.365   5.396
 4749POPC   GL161309  15.174  37.485   5.741
 4749POPC   GL261310  15.292  37.831   5.861
 4749POPC   C1A61311  15.418  37.380   6.143
 4749POPC   D2A61312  15.340  37.430   6.606
 4749POPC   C3A61313  15.075  37.661   6.882
 4749POPC   C4A61314  15.129  37.670   7.313
 4749POPC   C1B61315  15.232  37.843   6.312
 4749POPC   C2B61316  15.223  38.095   6.690
 4749POPC   C3B61317  15.393  38.052   7.114
 4749POPC   C4B61318  15.310  38.057   7.602
 4750POPC   NC361319  30.446  20.147   5.224
 4750POPC   PO461320  30.924  19.846   5.471
 4750POPC   GL161321  30.924  20.125   5.787
 4750POPC   GL261322  30.581  20.247   5.755
 4750POPC   C1A61323  30.982  19.857   6.158
 4750POPC   D2A61324  30.887  19.870   6.580
 4750POPC   C3A61325  30.831  19.576   6.864
 4750POPC   C4A61326  30.934  19.894   7.113
 4750POPC   C1B61327  30.512  20.066   6.180
 4750POPC   C2B61328  30.387  19.848   6.560
 4750POPC   C3B61329  30.446  19.869   7.020
 4750POPC   C4B61330  30.297  20.021   7.443
 4751POPC   NC361331   9.150   8.471   5.410
 4751POPC   PO461332   8.847   7.945   5.622
 4751POPC   GL161333   8.956   8.329   5.859
 4751POPC   GL261334   8.635   8.361   5.911
 4751POPC   C1A61335   8.951   8.489   6.302
 4751POPC   D2A61336   9.178   8.161   6.521
 4751POPC   C3A61337   9.216   8.036   6.940
 4751POPC   C4A61338   9.245   8.240   7.311
 4751POPC   C1B61339   8.742   8.015   6.267
 4751POPC   C2B61340   8.720   7.970   6.737
 4751POPC   C3B61341   8.758   8.255   7.097
 4751POPC   C4B61342   8.814   8.341   7.549
 4752POPC   NC361343  38.021  13.857   5.171
 4752POPC   PO461344  37.479  13.495   5.386
 4752POPC   GL161345  37.491  13.577   5.805
 4752POPC   GL261346  37.736  13.394   5.875
 4752POPC   C1A61347  37.544  13.764   6.198
 4752POPC   D2A61348  37.769  13.846   6.572
 4752POPC   C3A61349  37.531  13.700   6.899
 4752POPC   C4A61350  37.517  13.814   7.296
 4752POPC   C1B61351  37.542  13.201   6.205
 4752POPC   C2B61352  37.730  13.325   6.589
 4752POPC   C3B61353  37.950  13.420   6.957
 4752POPC   C4B61354  37.701  13.325   7.296
 4753POPC   NC361355  15.587  26.100   5.388
 4753POPC   PO461356  15.273  25.584   5.396
 4753POPC   GL161357  15.253  25.950   5.734
 4753POPC   GL261358  14.941  26.148   5.788
 4753POPC   C1A61359  15.259  26.026   6.188
 4753POPC   D2A61360  14.918  25.932   6.476
 4753POPC   C3A61361  14.997  25.967   6.926
 4753POPC   C4A61362  15.349  26.157   7.179
 4753POPC   C1B61363  14.887  26.400   6.169
 4753POPC   C2B61364  15.100  26.391   6.570
 4753POPC   C3B61365  14.970  26.477   6.961
 4753POPC   C4B61366  14.893  26.294   7.351
 4754POPC   NC361367  35.492  10.251   5.294
 4754POPC   PO461368  34.918  10.698   5.467
 4754POPC   GL161369  35.098  10.630   5.879
 4754POPC   GL261370  35.433  10.447   5.827
 4754POPC   C1A61371  35.219  10.505   6.299
 4754POPC   D2A61372  35.548  10.258   6.490
 4754POPC   C3A61373  35.503  10.209   6.932
 4754POPC   C4A61374  35.249  10.431   7.230
 4754POPC   C1B61375  35.713  10.645   6.154
 4754POPC   C2B61376  35.718  10.760   6.585
 4754POPC   C3B61377  35.591  10.737   7.003
 4754POPC   C4B61378  35.729  10.545   7.383
 4755POPC   NC361379  18.667   5.952   5.442
 4755POPC   PO461380  19.242   5.687   5.124
 4755POPC   GL161381  19.267   5.858   5.585
 4755POPC   GL261382  18.981   5.719   5.771
 4755POPC   C1A61383  19.340   5.935   6.060
 4755POPC   D2A61384  19.073   5.872   6.444
 4755POPC   C3A61385  19.219   5.857   6.881
 4755POPC   C4A61386  19.005   6.055   7.221
 4755POPC   C1B61387  18.677   5.650   6.132
 4755POPC   C2B61388  18.629   5.615   6.593
 4755POPC   C3B61389  18.818   5.541   7.000
 4755POPC   C4B61390  18.587   5.382   7.338
 4756POPC   NC361391  21.553  22.125   5.458
 4756POPC   PO461392  22.174  21.962   5.512
 4756POPC   GL161393  21.988  22.305   5.730
 4756POPC   GL261394  22.335  22.421   5.697
 4756POPC   C1A61395  21.860  22.343   6.162
 4756POPC   D2A61396  22.080  22.253   6.557
 4756POPC   C3A61397  22.022  22.308   7.013
 4756POPC   C4A61398  22.300  21.949   7.097
 4756POPC   C1B61399  22.379  22.461   6.143
 4756POPC   C2B61400  22.594  22.341   6.510
 4756POPC   C3B61401  22.489  22.420   6.883
 4756POPC   C4B61402  22.492  22.384   7.266
 4757POPC   NC361403   6.595  28.813   5.584
 4757POPC   PO461404   6.228  29.246   5.243
 4757POPC   GL161405   6.594  29.319   5.668
 4757POPC   GL261406   6.605  29.052   6.023
 4757POPC   C1A61407   6.939  29.414   5.982
 4757POPC   D2A61408   7.008  29.193   6.389
 4757POPC   C3A61409   7.015  29.271   6.854
 4757POPC   C4A61410   6.634  29.264   7.134
 4757POPC   C1B61411   6.399  28.626   6.207
 4757POPC   C2B61412   6.156  28.614   6.597
 4757POPC   C3B61413   6.381  28.825   6.923
 4757POPC   C4B61414   6.439  28.749   7.359
 4758POPC   NC361415   2.430   6.581   5.498
 4758POPC   PO461416   2.970   6.260   5.380
 4758POPC   GL161417   2.836   6.443   5.796
 4758POPC   GL261418   2.608   6.763   5.935
 4758POPC   C1A61419   2.878   6.429   6.218
 4758POPC   D2A61420   2.670   6.710   6.499
 4758POPC   C3A61421   2.641   6.631   6.938
 4758POPC   C4A61422   2.652   6.811   7.342
 4758POPC   C1B61423   2.338   6.452   6.174
 4758POPC   C2B61424   2.384   6.257   6.589
 4758POPC   C3B61425   2.214   6.340   6.998
 4758POPC   C4B61426   2.447   6.306   7.367
 4759POPC   NC361427   1.452   1.877   5.338
 4759POPC   PO461428   0.813   1.723   5.601
 4759POPC   GL161429   1.219   1.835   5.798
 4759POPC   GL261430   1.450   2.135   5.788
 4759POPC   C1A61431   1.214   1.926   6.217
 4759POPC   D2A61432   1.140   1.721   6.600
 4759POPC   C3A61433   1.216   1.955   6.949
 4759POPC   C4A61434   1.037   1.973   7.333
 4759POPC   C1B61435   1.635   2.224   6.174
 4759POPC   C2B61436   1.560   2.066   6.568
 4759POPC   C3B61437   1.653   2.286   6.913
 4759POPC   C4B61438   1.411   2.330   7.253
 4760POPC   NC361439  18.983  42.718   5.138
 4760POPC   PO461440  18.586  43.234   5.445
 4760POPC   GL161441  18.276  43.229   5.778
 4760POPC   GL261442  18.279  42.894   5.858
 4760POPC   C1A61443  18.082  43.179   6.223
 4760POPC   D2A61444  18.119  42.874   6.590
 4760POPC   C3A61445  17.959  42.952   6.978
 4760POPC   C4A61446  18.044  43.140   7.348
 4760POPC   C1B61447  18.550  42.984   6.237
 4760POPC   C2B61448  18.610  42.836   6.644
 4760POPC   C3B61449  18.478  43.015   7.046
 4760POPC   C4B61450  18.693  42.905   7.434
 4761POPC   NC361451  42.003  24.198   5.661
 4761POPC   PO461452  42.566  24.497   5.463
 4761POPC   GL161453  42.339  24.521   5.829
 4761POPC   GL261454  42.030  24.705   5.757
 4761POPC   C1A61455  42.406  24.392   6.257
 4761POPC   D2A61456  42.312  24.165   6.638
 4761POPC   C3A61457  42.561  24.214   6.999
 4761POPC   C4A61458  42.868  24.524   7.108
 4761POPC   C1B61459  41.949  24.563   6.180
 4761POPC   C2B61460  41.990  24.670   6.614
 4761POPC   C3B61461  42.130  24.490   7.009
 4761POPC   C4B61462  42.125  24.211   7.373
 4762POPC   NC361463  41.345  14.798   5.467
 4762POPC   PO461464  41.556  15.433   5.302
 4762POPC   GL161465  41.638  15.260   5.737
 4762POPC   GL261466  41.622  15.578   5.843
 4762POPC   C1A61467  41.512  15.085   6.179
 4762POPC   D2A61468  41.111  15.123   6.436
 4762POPC   C3A61469  41.197  15.092   6.894
 4762POPC   C4A61470  41.621  15.094   7.103
 4762POPC   C1B61471  41.428  15.579   6.233
 4762POPC   C2B61472  41.549  15.390   6.634
 4762POPC   C3B61473  41.623  15.598   7.033
 4762POPC   C4B61474  41.858  15.497   7.422
 4763POPC   NC361475   9.327  21.353   5.395
 4763POPC   PO461476  10.063  21.602   5.396
 4763POPC   GL161477   9.948  21.479   5.823
 4763POPC   GL261478   9.608  21.311   5.825
 4763POPC   C1A61479   9.872  21.363   6.261
 4763POPC   D2A61480   9.547  21.442   6.562
 4763POPC   C3A61481   9.670  21.543   6.964
 4763POPC   C4A61482   9.907  21.270   7.166
 4763POPC   C1B61483   9.415  21.082   6.172
 4763POPC   C2B61484   9.270  21.020   6.604
 4763POPC   C3B61485   9.493  20.958   6.969
 4763POPC   C4B61486   9.417  21.148   7.312
 4764POPC   NC361487   0.545  29.267   5.384
 4764POPC   PO461488  44.997  29.726   5.359
 4764POPC   GL161489   0.187  29.447   5.721
 4764POPC   GL261490   0.372  29.093   5.822
 4764POPC   C1A61491   0.381  29.508   6.137
 4764POPC   D2A61492   0.288  29.608   6.572
 4764POPC   C3A61493   0.265  29.268   6.904
 4764POPC   C4A61494   0.345  29.060   7.303
 4764POPC   C1B61495   0.667  29.074   6.183
 4764POPC   C2B61496   0.657  29.238   6.590
 4764POPC   C3B61497   0.773  29.172   7.017
 4764POPC   C4B61498   0.784  28.748   7.154
 4765POPC   NC361499  16.944   3.571   5.568
 4765POPC   PO461500  17.443   3.919   5.422
 4765POPC   GL161501  17.682   3.732   5.771
 4765POPC   GL261502  17.786   3.347   5.780
 4765POPC   C1A61503  17.634   3.858   6.210
 4765POPC   D2A61504  17.647   3.554   6.532
 4765POPC   C3A61505  17.692   3.611   6.952
 4765POPC   C4A61506  17.872   3.311   7.225
 4765POPC   C1B61507  17.401   3.410   6.075
 4765POPC   C2B61508  17.161   3.610   6.436
 4765POPC   C3B61509  17.193   3.503   6.885
 4765POPC   C4B61510  17.366   3.569   7.338
 4766POPC   NC361511  27.684   6.412   5.478
 4766POPC   PO461512  27.793   7.125   5.508
 4766POPC   GL161513  27.667   6.861   5.855
 4766POPC   GL261514  27.443   6.583   5.885
 4766POPC   C1A61515  27.563   6.908   6.280
 4766POPC   D2A61516  27.681   6.673   6.615
 4766POPC   C3A61517  27.425   6.599   6.988
 4766POPC   C4A61518  27.464   6.836   7.386
 4766POPC   C1B61519  27.787   6.402   6.145
 4766POPC   C2B61520  27.953   6.268   6.532
 4766POPC   C3B61521  27.828   6.164   6.940
 4766POPC   C4B61522  27.629   6.293   7.330
 4767POPC   NC361523  22.768   0.218   5.397
 4767POPC   PO461524  23.189   0.818   5.360
 4767POPC   GL161525  22.935   0.801   5.733
 4767POPC   GL261526  22.961   0.448   5.789
 4767POPC   C1A61527  22.915   0.736   6.193
 4767POPC   D2A61528  22.702   0.598   6.551
 4767POPC   C3A61529  22.910   0.600   6.907
 4767POPC   C4A61530  22.760   0.682   7.290
 4767POPC   C1B61531  22.795   0.221   6.165
 4767POPC   C2B61532  22.871   0.122   6.609
 4767POPC   C3B61533  22.632   0.182   6.992
 4767POPC   C4B61534  22.947   0.176   7.269
 4768POPC   NC361535   0.087   1.529   5.552
 4768POPC   PO461536  44.569   1.144   5.245
 4768POPC   GL161537  44.541   1.209   5.677
 4768POPC   GL261538  44.625   0.940   5.820
 4768POPC   C1A61539  44.332   1.234   6.117
 4768POPC   D2A61540  44.308   1.436   6.506
 4768POPC   C3A61541  44.309   1.202   6.879
 4768POPC   C4A61542  44.415   1.349   7.258
 4768POPC   C1B61543  44.784   1.014   6.247
 4768POPC   C2B61544  44.751   1.136   6.660
 4768POPC   C3B61545  44.878   1.328   7.037
 4768POPC   C4B61546   0.206   1.644   7.097
 4769POPC   NC361547  26.728   0.875   5.505
 4769POPC   PO461548  26.941   0.332   5.500
 4769POPC   GL161549  26.859   0.505   5.845
 4769POPC   GL261550  26.780   0.193   5.977
 4769POPC   C1A61551  26.798   0.789   6.162
 4769POPC   D2A61552  26.887   0.766   6.579
 4769POPC   C3A61553  26.610   0.585   6.877
 4769POPC   C4A61554  26.559   0.428   7.285
 4769POPC   C1B61555  27.095   0.391   6.291
 4769POPC   C2B61556  27.020   0.274   6.725
 4769POPC   C3B61557  27.070   0.415   7.138
 4769POPC   C4B61558  26.927   0.177   7.524
 4770POPC   NC361559  30.899  34.360   5.104
 4770POPC   PO461560  30.434  34.727   5.493
 4770POPC   GL161561  30.697  34.650   5.800
 4770POPC   GL261562  30.679  34.302   5.762
 4770POPC   C1A61563  30.615  34.619   6.230
 4770POPC   D2A61564  30.387  34.789   6.570
 4770POPC   C3A61565  30.653  34.715   6.898
 4770POPC   C4A61566  30.693  34.540   7.278
 4770POPC   C1B61567  30.535  34.111   6.134
 4770POPC   C2B61568  30.625  34.217   6.562
 4770POPC   C3B61569  30.663  34.136   6.992
 4770POPC   C4B61570  31.003  34.143   7.366
 4771POPC   NC361571  10.202  32.060   5.659
 4771POPC   PO461572  10.554  32.446   5.147
 4771POPC   GL161573  10.596  32.390   5.640
 4771POPC   GL261574  10.652  32.068   5.851
 4771POPC   C1A61575  10.475  32.484   6.114
 4771POPC   D2A61576  10.281  32.428   6.522
 4771POPC   C3A61577  10.489  32.562   6.897
 4771POPC   C4A61578  10.493  32.537   7.331
 4771POPC   C1B61579  10.579  31.936   6.284
 4771POPC   C2B61580  10.690  32.092   6.695
 4771POPC   C3B61581  10.555  32.066   7.142
 4771POPC   C4B61582  10.675  32.143   7.584
 4772POPC   NC361583  28.407  43.718   5.470
 4772POPC   PO461584  28.104  44.335   5.418
 4772POPC   GL161585  28.115  44.086   5.738
 4772POPC   GL261586  28.459  44.134   5.748
 4772POPC   C1A61587  28.135  43.923   6.146
 4772POPC   D2A61588  28.424  43.730   6.436
 4772POPC   C3A61589  28.253  43.841   6.811
 4772POPC   C4A61590  28.342  43.840   7.214
 4772POPC   C1B61591  28.616  44.133   6.142
 4772POPC   C2B61592  28.442  44.242   6.539
 4772POPC   C3B61593  28.621  44.179   6.962
 4772POPC   C4B61594  28.684  44.201   7.407
 4773POPC   NC361595  23.544   4.605   5.496
 4773POPC   PO461596  24.118   4.343   5.445
 4773POPC   GL161597  23.935   4.509   5.851
 4773POPC   GL261598  23.730   4.212   5.828
 4773POPC   C1A61599  23.633   4.504   6.252
 4773POPC   D2A61600  23.443   4.333   6.670
 4773POPC   C3A61601  23.635   4.564   7.000
 4773POPC   C4A61602  24.077   4.690   6.941
 4773POPC   C1B61603  23.971   4.109   6.227
 4773POPC   C2B61604  23.976   4.243   6.677
 4773POPC   C3B61605  23.865   4.126   7.097
 4773POPC   C4B61606  23.403   4.133   7.194
 4774POPC   NC361607  22.629  40.962   5.281
 4774POPC   PO461608  22.033  40.627   5.418
 4774POPC   GL161609  22.250  40.657   5.809
 4774POPC   GL261610  22.450  40.374   5.796
 4774POPC   C1A61611  22.135  40.904   6.231
 4774POPC   D2A61612  21.917  40.919   6.644
 4774POPC   C3A61613  22.089  41.021   7.069
 4774POPC   C4A61614  22.291  40.740   7.376
 4774POPC   C1B61615  22.560  40.618   6.195
 4774POPC   C2B61616  22.648  40.895   6.515
 4774POPC   C3B61617  22.509  40.730   6.897
 4774POPC   C4B61618  22.555  40.333   7.129
 4775POPC   NC361619  44.579   6.187   5.334
 4775POPC   PO461620  44.745   5.608   5.449
 4775POPC   GL161621  44.497   5.841   5.760
 4775POPC   GL261622  44.752   6.046   5.851
 4775POPC   C1A61623  44.381   5.947   6.217
 4775POPC   D2A61624  44.393   5.666   6.553
 4775POPC   C3A61625  44.491   5.883   6.931
 4775POPC   C4A61626  44.563   5.671   7.288
 4775POPC   C1B61627  44.805   5.694   6.185
 4775POPC   C2B61628  44.913   5.806   6.621
 4775POPC   C3B61629   0.017   5.617   7.012
 4775POPC   C4B61630   0.004   5.509   7.450
 4776POPC   NC361631  36.393   2.300   5.456
 4776POPC   PO461632  36.042   2.819   5.171
 4776POPC   GL161633  35.986   2.880   5.653
 4776POPC   GL261634  36.030   2.553   5.813
 4776POPC   C1A61635  35.908   2.964   6.145
 4776POPC   D2A61636  35.976   2.861   6.631
 4776POPC   C3A61637  35.821   2.883   7.108
 4776POPC   C4A61638  35.978   2.969   7.551
 4776POPC   C1B61639  36.232   2.561   6.236
 4776POPC   C2B61640  36.403   2.532   6.657
 4776POPC   C3B61641  36.244   2.632   7.026
 4776POPC   C4B61642  36.103   2.504   7.383
 4777POPC   NC361643  44.772  43.986   5.183
 4777POPC   PO461644  44.288  43.597   5.421
 4777POPC   GL161645  44.483  43.796   5.788
 4777POPC   GL261646  44.767  44.020   5.722
 4777POPC   C1A61647  44.588  43.747   6.233
 4777POPC   D2A61648  44.583  43.407   6.561
 4777POPC   C3A61649  44.628  43.537   7.000
 4777POPC   C4A61650  44.562  43.912   7.261
 4777POPC   C1B61651  44.939  44.166   6.115
 4777POPC   C2B61652  44.984  44.245   6.548
 4777POPC   C3B61653  44.844  44.232   6.965
 4777POPC   C4B61654   0.067  44.048   7.309
 4778POPC   NC361655   4.962  32.616   5.510
 4778POPC   PO461656   4.682  33.278   5.429
 4778POPC   GL161657   5.060  33.103   5.760
 4778POPC   GL261658   5.208  32.753   5.921
 4778POPC   C1A61659   5.350  33.262   6.123
 4778POPC   D2A61660   5.554  33.362   6.529
 4778POPC   C3A61661   5.326  33.482   6.874
 4778POPC   C4A61662   5.069  33.304   7.196
 4778POPC   C1B61663   5.098  32.856   6.326
 4778POPC   C2B61664   5.263  32.974   6.715
 4778POPC   C3B61665   5.219  32.824   7.119
 4778POPC   C4B61666   5.018  32.832   7.525
 4779POPC   NC361667  11.921  41.293   5.377
 4779POPC   PO461668  11.831  41.844   5.059
 4779POPC   GL161669  11.957  41.798   5.532
 4779POPC   GL261670  11.742  41.600   5.774
 4779POPC   C1A61671  12.243  41.619   5.893
 4779POPC   D2A61672  12.177  41.597   6.371
 4779POPC   C3A61673  12.365  41.452   6.770
 4779POPC   C4A61674  12.279  41.636   7.201
 4779POPC   C1B61675  11.942  41.260   6.078
 4779POPC   C2B61676  11.971  41.145   6.551
 4779POPC   C3B61677  11.894  41.322   6.974
 4779POPC   C4B61678  11.986  41.186   7.434
 4780POPC   NC361679  12.810  37.136   5.138
 4780POPC   PO461680  12.652  36.724   5.644
 4780POPC   GL161681  12.957  36.920   5.849
 4780POPC   GL261682  12.809  37.264   5.859
 4780POPC   C1A61683  13.020  36.981   6.274
 4780POPC   D2A61684  13.074  37.279   6.528
 4780POPC   C3A61685  12.924  37.088   6.857
 4780POPC   C4A61686  13.100  37.198   7.194
 4780POPC   C1B61687  12.530  37.059   6.167
 4780POPC   C2B61688  12.606  36.728   6.484
 4780POPC   C3B61689  12.555  36.747   6.942
 4780POPC   C4B61690  12.679  36.946   7.348
 4781POPC   NC361691  12.607  34.830   4.933
 4781POPC   PO461692  12.627  34.301   5.302
 4781POPC   GL161693  12.918  34.476   5.616
 4781POPC   GL261694  12.622  34.461   5.819
 4781POPC   C1A61695  13.041  34.449   6.088
 4781POPC   D2A61696  12.958  34.656   6.505
 4781POPC   C3A61697  13.127  34.528   6.915
 4781POPC   C4A61698  12.976  34.701   7.343
 4781POPC   C1B61699  12.524  34.542   6.192
 4781POPC   C2B61700  12.542  34.353   6.566
 4781POPC   C3B61701  12.617  34.553   6.930
 4781POPC   C4B61702  12.477  34.615   7.325
 4782POPC   NC361703  18.787  25.545   5.564
 4782POPC   PO461704  19.050  25.010   5.470
 4782POPC   GL161705  19.192  25.182   5.846
 4782POPC   GL261706  19.491  24.970   5.855
 4782POPC   C1A61707  19.023  25.456   6.200
 4782POPC   D2A61708  19.080  25.699   6.582
 4782POPC   C3A61709  18.932  25.529   6.949
 4782POPC   C4A61710  19.039  25.461   7.361
 4782POPC   C1B61711  19.333  24.881   6.252
 4782POPC   C2B61712  19.175  25.136   6.597
 4782POPC   C3B61713  19.200  25.089   7.042
 4782POPC   C4B61714  19.368  25.086   7.477
 4783POPC   NC361715  44.495   3.404   5.578
 4783POPC   PO461716  43.890   3.598   5.427
 4783POPC   GL161717  43.978   3.402   5.827
 4783POPC   GL261718  44.166   3.668   5.872
 4783POPC   C1A61719  44.102   3.367   6.312
 4783POPC   D2A61720  44.134   3.313   6.801
 4783POPC   C3A61721  43.763   3.305   7.123
 4783POPC   C4A61722  43.680   3.102   7.555
 4783POPC   C1B61723  43.804   3.762   6.161
 4783POPC   C2B61724  43.758   3.663   6.613
 4783POPC   C3B61725  43.979   3.757   6.998
 4783POPC   C4B61726  43.877   3.748   7.415
 4784POPC   NC361727  37.302  15.689   5.630
 4784POPC   PO461728  37.831  15.890   5.148
 4784POPC   GL161729  37.736  15.951   5.676
 4784POPC   GL261730  37.960  15.761   5.932
 4784POPC   C1A61731  37.585  16.028   6.153
 4784POPC   D2A61732  37.811  16.223   6.537
 4784POPC   C3A61733  37.800  16.126   7.006
 4784POPC   C4A61734  37.409  15.905   7.094
 4784POPC   C1B61735  37.851  15.623   6.338
 4784POPC   C2B61736  37.723  15.747   6.705
 4784POPC   C3B61737  37.822  15.599   7.128
 4784POPC   C4B61738  37.624  15.653   7.525
 4785POPC   NC361739   9.842  22.021   5.365
 4785POPC   PO461740   9.230  21.828   5.264
 4785POPC   GL161741   9.480  21.815   5.676
 4785POPC   GL261742   9.476  22.175   5.732
 4785POPC   C1A61743   9.807  21.918   6.040
 4785POPC   D2A61744   9.959  21.816   6.485
 4785POPC   C3A61745  10.106  22.104   6.816
 4785POPC   C4A61746   9.939  22.143   7.242
 4785POPC   C1B61747   9.505  22.371   6.143
 4785POPC   C2B61748   9.710  22.280   6.529
 4785POPC   C3B61749   9.571  22.052   6.888
 4785POPC   C4B61750   9.406  22.264   7.241
 4786POPC   NC361751  43.767   2.707   5.302
 4786POPC   PO461752  44.256   2.636   5.709
 4786POPC   GL161753  43.814   2.592   5.821
 4786POPC   GL261754  43.756   2.931   5.832
 4786POPC   C1A61755  43.733   2.576   6.268
 4786POPC   D2A61756  44.077   2.438   6.549
 4786POPC   C3A61757  44.178   2.783   6.802
 4786POPC   C4A61758  44.058   2.911   7.213
 4786POPC   C1B61759  43.654   3.128   6.215
 4786POPC   C2B61760  43.722   3.021   6.665
 4786POPC   C3B61761  43.577   2.830   7.065
 4786POPC   C4B61762  43.374   2.703   7.456
 4787POPC   NC361763  41.563  23.729   5.283
 4787POPC   PO461764  41.539  22.998   5.353
 4787POPC   GL161765  41.471  23.373   5.665
 4787POPC   GL261766  41.720  23.705   5.764
 4787POPC   C1A61767  41.483  23.445   6.115
 4787POPC   D2A61768  41.695  23.485   6.496
 4787POPC   C3A61769  41.555  23.715   6.833
 4787POPC   C4A61770  41.384  23.559   7.183
 4787POPC   C1B61771  41.606  23.959   6.167
 4787POPC   C2B61772  41.795  24.189   6.523
 4787POPC   C3B61773  41.912  24.050   6.931
 4787POPC   C4B61774  41.827  23.769   7.287
 4788POPC   NC361775  15.209  15.901   5.344
 4788POPC   PO461776  14.700  15.609   5.507
 4788POPC   GL161777  15.019  15.868   5.884
 4788POPC   GL261778  15.335  16.088   5.841
 4788POPC   C1A61779  15.052  16.064   6.343
 4788POPC   D2A61780  15.275  16.068   6.775
 4788POPC   C3A61781  15.032  16.037   7.175
 4788POPC   C4A61782  15.139  16.024   7.635
 4788POPC   C1B61783  15.532  15.950   6.254
 4788POPC   C2B61784  15.420  15.604   6.585
 4788POPC   C3B61785  15.322  15.603   7.033
 4788POPC   C4B61786  15.518  15.921   7.300
 4789POPC   NC361787   3.081  11.683   5.620
 4789POPC   PO461788   2.678  11.104   5.425
 4789POPC   GL161789   2.837  11.283   5.840
 4789POPC   GL261790   3.196  11.275   5.895
 4789POPC   C1A61791   2.800  11.335   6.282
 4789POPC   D2A61792   2.667  11.063   6.630
 4789POPC   C3A61793   2.462  11.286   6.938
 4789POPC   C4A61794   2.644  11.526   7.277
 4789POPC   C1B61795   3.321  11.416   6.286
 4789POPC   C2B61796   3.154  11.734   6.526
 4789POPC   C3B61797   2.976  11.697   6.911
 4789POPC   C4B61798   3.152  11.503   7.273
 4790POPC   NC361799  23.188   1.775   5.789
 4790POPC   PO461800  23.317   2.346   5.593
 4790POPC   GL161801  22.976   2.225   5.877
 4790POPC   GL261802  23.251   2.185   6.099
 4790POPC   C1A61803  22.802   2.089   6.321
 4790POPC   D2A61804  22.581   1.862   6.664
 4790POPC   C3A61805  22.719   1.779   7.120
 4790POPC   C4A61806  22.699   1.912   7.560
 4790POPC   C1B61807  23.281   1.890   6.432
 4790POPC   C2B61808  23.067   1.923   6.799
 4790POPC   C3B61809  22.951   2.286   7.084
 4790POPC   C4B61810  23.279   2.577   7.273
 4791POPC   NC361811   1.955  17.146   5.564
 4791POPC   PO461812   1.738  16.506   5.408
 4791POPC   GL161813   1.965  16.663   5.774
 4791POPC   GL261814   1.826  16.959   6.006
 4791POPC   C1A61815   2.257  16.723   6.110
 4791POPC   D2A61816   2.071  16.911   6.495
 4791POPC   C3A61817   2.269  16.785   6.913
 4791POPC   C4A61818   2.045  16.716   7.311
 4791POPC   C1B61819   1.675  16.613   6.223
 4791POPC   C2B61820   1.573  16.564   6.650
 4791POPC   C3B61821   1.776  16.854   6.912
 4791POPC   C4B61822   1.707  17.084   7.293
 4792POPC   NC361823  40.648  25.518   5.422
 4792POPC   PO461824  41.222  25.094   5.314
 4792POPC   GL161825  40.851  25.077   5.673
 4792POPC   GL261826  40.849  25.408   5.871
 4792POPC   C1A61827  40.573  25.065   6.118
 4792POPC   D2A61828  40.572  25.288   6.546
 4792POPC   C3A61829  40.700  25.172   6.995
 4792POPC   C4A61830  41.025  25.205   7.323
 4792POPC   C1B61831  40.440  25.590   6.077
 4792POPC   C2B61832  40.390  25.783   6.500
 4792POPC   C3B61833  40.475  25.663   6.911
 4792POPC   C4B61834  40.243  25.402   7.171
 4793POPC   NC361835  22.152  25.096   5.442
 4793POPC   PO461836  21.781  25.462   5.141
 4793POPC   GL161837  22.172  25.483   5.719
 4793POPC   GL261838  22.328  25.141   5.888
 4793POPC   C1A61839  22.165  25.521   6.197
 4793POPC   D2A61840  22.085  25.721   6.612
 4793POPC   C3A61841  22.250  25.517   6.966
 4793POPC   C4A61842  22.070  25.370   7.336
 4793POPC   C1B61843  22.236  25.000   6.256
 4793POPC   C2B61844  22.385  25.120   6.636
 4793POPC   C3B61845  22.052  25.062   6.897
 4793POPC   C4B61846  21.955  24.801   7.240
 4794POPC   NC361847   7.565  38.805   5.453
 4794POPC   PO461848   7.195  38.166   5.418
 4794POPC   GL161849   7.324  38.205   5.813
 4794POPC   GL261850   7.251  38.566   5.798
 4794POPC   C1A61851   7.432  38.355   6.228
 4794POPC   D2A61852   7.586  38.600   6.540
 4794POPC   C3A61853   7.476  38.431   6.916
 4794POPC   C4A61854   7.609  38.489   7.362
 4794POPC   C1B61855   7.007  38.615   6.179
 4794POPC   C2B61856   7.043  38.439   6.609
 4794POPC   C3B61857   7.032  38.634   7.039
 4794POPC   C4B61858   7.135  38.614   7.472
 4795POPC   NC361859  34.052  24.534   5.335
 4795POPC   PO461860  33.436  24.759   5.415
 4795POPC   GL161861  33.767  24.600   5.755
 4795POPC   GL261862  34.093  24.795   5.780
 4795POPC   C1A61863  33.738  24.305   6.135
 4795POPC   D2A61864  33.620  24.091   6.541
 4795POPC   C3A61865  33.700  24.264   6.934
 4795POPC   C4A61866  33.562  24.630   7.114
 4795POPC   C1B61867  34.143  24.608   6.178
 4795POPC   C2B61868  33.961  24.496   6.578
 4795POPC   C3B61869  34.059  24.662   7.002
 4795POPC   C4B61870  33.834  25.042   7.186
 4796POPC   NC361871   0.688  23.534   5.249
 4796POPC   PO461872   1.243  23.887   5.303
 4796POPC   GL161873   1.019  23.915   5.716
 4796POPC   GL261874   1.365  23.993   5.868
 4796POPC   C1A61875   0.957  24.020   6.162
 4796POPC   D2A61876   1.300  23.941   6.444
 4796POPC   C3A61877   1.184  24.111   6.830
 4796POPC   C4A61878   1.019  23.942   7.188
 4796POPC   C1B61879   1.229  23.583   6.045
 4796POPC   C2B61880   1.234  23.408   6.466
 4796POPC   C3B61881   1.325  23.572   6.890
 4796POPC   C4B61882   1.411  23.310   7.247
 4797POPC   NC361883  24.404   3.971   5.428
 4797POPC   PO461884  24.814   4.446   5.108
 4797POPC   GL161885  24.666   4.403   5.604
 4797POPC   GL261886  24.457   4.692   5.753
 4797POPC   C1A61887  24.424   4.277   6.024
 4797POPC   D2A61888  24.276   4.548   6.353
 4797POPC   C3A61889  24.483   4.404   6.722
 4797POPC   C4A61890  24.390   4.326   7.132
 4797POPC   C1B61891  24.773   4.655   6.095
 4797POPC   C2B61892  24.941   4.584   6.499
 4797POPC   C3B61893  24.857   4.708   6.900
 4797POPC   C4B61894  24.877   4.566   7.289
 4798POPC   NC361895   1.345  37.959   5.642
 4798POPC   PO461896   0.828  37.614   5.269
 4798POPC   GL161897   0.959  37.611   5.710
 4798POPC   GL261898   0.846  37.956   5.775
 4798POPC   C1A61899   1.093  37.552   6.175
 4798POPC   D2A61900   1.040  37.704   6.637
 4798POPC   C3A61901   1.340  37.757   7.012
 4798POPC   C4A61902   1.379  37.482   7.395
 4798POPC   C1B61903   0.976  38.069   6.210
 4798POPC   C2B61904   0.981  38.256   6.635
 4798POPC   C3B61905   0.894  38.020   7.018
 4798POPC   C4B61906   1.073  37.909   7.433
 4799POPC   NC361907  15.567   8.548   5.500
 4799POPC   PO461908  14.921   8.332   5.456
 4799POPC   GL161909  14.992   8.180   5.885
 4799POPC   GL261910  15.258   7.904   5.863
 4799POPC   C1A61911  14.793   8.145   6.308
 4799POPC   D2A61912  14.916   7.927   6.689
 4799POPC   C3A61913  14.997   8.176   7.077
 4799POPC   C4A61914  15.256   8.184   7.463
 4799POPC   C1B61915  15.276   7.991   6.314
 4799POPC   C2B61916  15.378   8.192   6.711
 4799POPC   C3B61917  15.631   8.245   7.094
 4799POPC   C4B61918  15.677   7.936   7.449
 4800POPC   NC361919   5.997  11.509   5.504
 4800POPC   PO461920   5.625  11.003   5.660
 4800POPC   GL161921   5.850  11.259   5.937
 4800POPC   GL261922   6.212  11.307   5.930
 4800POPC   C1A61923   5.864  11.425   6.326
 4800POPC   D2A61924   5.588  11.560   6.605
 4800POPC   C3A61925   5.648  11.333   6.941
 4800POPC   C4A61926   6.031  11.357   7.146
 4800POPC   C1B61927   6.222  11.039   6.308
 4800POPC   C2B61928   6.103  10.949   6.766
 4800POPC   C3B61929   6.311  10.928   7.202
 4800POPC   C4B61930   6.417  10.850   7.646
 4801POPC   NC361931  40.602  39.502   5.537
 4801POPC   PO461932  40.270  39.051   5.251
 4801POPC   GL161933  40.472  39.029   5.715
 4801POPC   GL261934  40.810  39.003   5.771
 4801POPC   C1A61935  40.585  39.242   6.178
 4801POPC   D2A61936  40.932  39.353   6.521
 4801POPC   C3A61937  40.830  39.502   6.946
 4801POPC   C4A61938  40.552  39.285   7.263
 4801POPC   C1B61939  40.989  38.853   6.173
 4801POPC   C2B61940  41.143  38.872   6.604
 4801POPC   C3B61941  40.870  39.017   6.952
 4801POPC   C4B61942  41.059  39.198   7.358
 4802POPC   NC361943  24.427  43.508   5.380
 4802POPC   PO461944  24.636  42.844   5.366
 4802POPC   GL161945  24.556  43.081   5.799
 4802POPC   GL261946  24.320  43.366   5.861
 4802POPC   C1A61947  24.571  43.114   6.287
 4802POPC   D2A61948  24.696  42.916   6.723
 4802POPC   C3A61949  24.599  43.008   7.190
 4802POPC   C4A61950  24.682  43.275   7.548
 4802POPC   C1B61951  24.177  43.608   6.227
 4802POPC   C2B61952  24.079  43.671   6.688
 4802POPC   C3B61953  24.135  43.635   7.147
 4802POPC   C4B61954  24.174  43.311   7.500
 4803POPC   NC361955  21.528  40.632   5.523
 4803POPC   PO461956  20.936  40.885   5.410
 4803POPC   GL161957  21.234  40.896   5.848
 4803POPC   GL261958  21.594  40.760   6.004
 4803POPC   C1A61959  21.155  40.861   6.285
 4803POPC   D2A61960  21.210  40.635   6.673
 4803POPC   C3A61961  21.011  40.752   7.044
 4803POPC   C4A61962  21.264  40.820   7.407
 4803POPC   C1B61963  21.600  41.128   6.257
 4803POPC   C2B61964  21.426  41.128   6.645
 4803POPC   C3B61965  21.541  40.926   6.992
 4803POPC   C4B61966  21.625  41.190   7.327
 4804POPC   NC361967  42.075  28.467   5.401
 4804POPC   PO461968  42.616  28.091   5.426
 4804POPC   GL161969  42.246  28.095   5.748
 4804POPC   GL261970  42.200  28.400   5.894
 4804POPC   C1A61971  42.208  28.032   6.238
 4804POPC   D2A61972  42.438  28.130   6.642
 4804POPC   C3A61973  42.222  28.288   7.009
 4804POPC   C4A61974  42.167  28.229   7.464
 4804POPC   C1B61975  42.457  28.513   6.258
 4804POPC   C2B61976  42.795  28.547   6.574
 4804POPC   C3B61977  42.705  28.695   6.997
 4804POPC   C4B61978  42.345  28.698   7.284
 4805POPC   NC361979  40.585  23.924   5.360
 4805POPC   PO461980  41.147  23.546   5.223
 4805POPC   GL161981  41.019  23.627   5.673
 4805POPC   GL261982  40.714  23.759   5.801
 4805POPC   C1A61983  41.094  23.775   6.124
 4805POPC   D2A61984  41.176  23.592   6.530
 4805POPC   C3A61985  41.013  23.811   6.908
 4805POPC   C4A61986  40.568  23.876   7.091
 4805POPC   C1B61987  40.591  23.613   6.192
 4805POPC   C2B61988  40.666  23.585   6.616
 4805POPC   C3B61989  40.471  23.353   6.929
 4805POPC   C4B61990  40.164  23.515   7.150
 4806POPC   NC361991  27.004  28.580   5.428
 4806POPC   PO461992  26.513  28.173   5.666
 4806POPC   GL161993  26.525  28.555   5.927
 4806POPC   GL261994  26.890  28.649   5.955
 4806POPC   C1A61995  26.621  28.600   6.383
 4806POPC   D2A61996  26.904  28.531   6.750
 4806POPC   C3A61997  26.903  28.189   7.091
 4806POPC   C4A61998  26.718  28.087   7.507
 4806POPC   C1B61999  27.208  28.685   6.316
 4806POPC   C2B62000  27.338  28.778   6.757
 4806POPC   C3B62001  27.307  28.533   7.122
 4806POPC   C4B62002  27.410  28.630   7.546
 4807POPC   NC362003  32.318  37.917   5.157
 4807POPC   PO462004  31.927  37.458   5.538
 4807POPC   GL162005  32.114  37.763   5.760
 4807POPC   GL262006  32.469  37.744   5.729
 4807POPC   C1A62007  32.061  37.810   6.184
 4807POPC   D2A62008  32.194  37.588   6.545
 4807POPC   C3A62009  32.044  37.817   6.911
 4807POPC   C4A62010  32.010  37.545   7.239
 4807POPC   C1B62011  32.560  37.886   6.160
 4807POPC   C2B62012  32.477  37.988   6.608
 4807POPC   C3B62013  32.532  37.687   6.982
 4807POPC   C4B62014  32.539  37.651   7.446
 4808POPC   NC362015   2.979   3.993   5.533
 4808POPC   PO462016   2.596   4.592   5.478
 4808POPC   GL162017   2.771   4.555   5.861
 4808POPC   GL262018   2.608   4.193   5.854
 4808POPC   C1A62019   2.791   4.396   6.288
 4808POPC   D2A62020   2.496   4.284   6.638
 4808POPC   C3A62021   2.790   4.273   6.952
 4808POPC   C4A62022   2.962   4.505   7.268
 4808POPC   C1B62023   2.556   3.950   6.252
 4808POPC   C2B62024   2.474   3.735   6.670
 4808POPC   C3B62025   2.495   3.866   7.101
 4808POPC   C4B62026   2.758   4.070   7.432
 4809POPC   NC362027   4.824  17.068   5.469
 4809POPC   PO462028   4.478  16.509   5.352
 4809POPC   GL162029   4.419  16.767   5.762
 4809POPC   GL262030   4.053  16.829   5.886
 4809POPC   C1A62031   4.432  16.829   6.229
 4809POPC   D2A62032   4.340  16.664   6.642
 4809POPC   C3A62033   4.600  16.818   6.987
 4809POPC   C4A62034   4.781  16.615   7.361
 4809POPC   C1B62035   3.856  16.648   6.298
 4809POPC   C2B62036   3.843  16.547   6.763
 4809POPC   C3B62037   4.177  16.519   7.110
 4809POPC   C4B62038   4.322  16.883   7.401
 4810POPC   NC362039  37.940  16.308   5.349
 4810POPC   PO462040  37.441  16.779   5.373
 4810POPC   GL162041  37.603  16.548   5.728
 4810POPC   GL262042  37.793  16.826   5.870
 4810POPC   C1A62043  37.565  16.535   6.194
 4810POPC   D2A62044  37.820  16.723   6.525
 4810POPC   C3A62045  37.606  16.582   6.913
 4810POPC   C4A62046  37.441  16.363   7.301
 4810POPC   C1B62047  38.069  16.479   6.098
 4810POPC   C2B62048  38.279  16.446   6.538
 4810POPC   C3B62049  38.146  16.651   6.930
 4810POPC   C4B62050  37.825  16.958   7.166
 4811POPC   NC362051   4.918  34.537   5.314
 4811POPC   PO462052   5.611  34.449   5.405
 4811POPC   GL162053   5.254  34.277   5.681
 4811POPC   GL262054   4.997  34.528   5.832
 4811POPC   C1A62055   5.295  34.237   6.166
 4811POPC   D2A62056   5.131  34.222   6.612
 4811POPC   C3A62057   5.344  34.397   6.981
 4811POPC   C4A62058   5.113  34.774   7.086
 4811POPC   C1B62059   4.965  34.843   6.202
 4811POPC   C2B62060   4.872  35.040   6.634
 4811POPC   C3B62061   4.650  34.934   7.007
 4811POPC   C4B62062   4.658  34.582   7.282
 4812POPC   NC362063  29.929  43.346   5.473
 4812POPC   PO462064  30.236  42.715   5.426
 4812POPC   GL162065  30.047  42.940   5.800
 4812POPC   GL262066  29.830  43.219   5.940
 4812POPC   C1A62067  29.959  42.836   6.252
 4812POPC   D2A62068  30.078  42.597   6.623
 4812POPC   C3A62069  29.992  42.839   6.972
 4812POPC   C4A62070  29.970  43.248   7.003
 4812POPC   C1B62071  29.611  43.231   6.279
 4812POPC   C2B62072  29.657  43.135   6.635
 4812POPC   C3B62073  29.464  43.353   6.936
 4812POPC   C4B62074  29.612  43.366   7.332
 4813POPC   NC362075  30.988  31.355   5.225
 4813POPC   PO462076  30.448  31.680   5.587
 4813POPC   GL162077  30.630  31.475   5.838
 4813POPC   GL262078  30.919  31.674   5.809
 4813POPC   C1A62079  30.477  31.283   6.215
 4813POPC   D2A62080  30.608  31.224   6.612
 4813POPC   C3A62081  30.518  31.647   6.721
 4813POPC   C4A62082  30.611  31.833   7.091
 4813POPC   C1B62083  30.978  31.390   6.165
 4813POPC   C2B62084  31.027  31.504   6.576
 4813POPC   C3B62085  30.905  31.438   6.980
 4813POPC   C4B62086  31.029  31.678   7.333
 4814POPC   NC362087  20.765  10.129   5.239
 4814POPC   PO462088  20.541   9.430   5.296
 4814POPC   GL162089  20.470   9.667   5.671
 4814POPC   GL262090  20.788   9.827   5.735
 4814POPC   C1A62091  20.419   9.569   6.115
 4814POPC   D2A62092  20.590   9.577   6.524
 4814POPC   C3A62093  20.309   9.716   6.839
 4814POPC   C4A62094  20.452   9.843   7.243
 4814POPC   C1B62095  20.828   9.925   6.175
 4814POPC   C2B62096  21.078   9.793   6.530
 4814POPC   C3B62097  20.981   9.644   6.928
 4814POPC   C4B62098  21.051   9.950   7.257
 4815POPC   NC362099  21.995  44.134   5.432
 4815POPC   PO462100  22.565  43.834   5.086
 4815POPC   GL162101  22.415  43.908   5.602
 4815POPC   GL262102  22.135  43.761   5.780
 4815POPC   C1A62103  22.325  44.152   6.040
 4815POPC   D2A62104  22.236  44.342   6.451
 4815POPC   C3A62105  22.271  44.032   6.787
 4815POPC   C4A62106  22.393  43.877   7.218
 4815POPC   C1B62107  22.012  43.688   6.219
 4815POPC   C2B62108  21.852  43.350   6.524
 4815POPC   C3B62109  21.713  43.322   6.982
 4815POPC   C4B62110  21.874  43.631   7.326
 4816POPC   NC362111  10.388  35.691   5.358
 4816POPC   PO462112  11.030  35.679   5.485
 4816POPC   GL162113  10.691  35.490   5.712
 4816POPC   GL262114  10.705  35.138   5.750
 4816POPC   C1A62115  10.411  35.390   6.071
 4816POPC   D2A62116  10.486  35.270   6.487
 4816POPC   C3A62117  10.259  35.031   6.761
 4816POPC   C4A62118  10.279  35.188   7.162
 4816POPC   C1B62119  10.782  34.996   6.177
 4816POPC   C2B62120  10.956  35.084   6.589
 4816POPC   C3B62121  10.749  35.216   6.936
 4816POPC   C4B62122  10.786  35.082   7.357
 4817POPC   NC362123   5.589  32.338   5.192
 4817POPC   PO462124   5.052  32.144   5.526
 4817POPC   GL162125   5.113  32.199   5.912
 4817POPC   GL262126   4.771  32.371   5.951
 4817POPC   C1A62127   5.305  31.943   6.264
 4817POPC   D2A62128   5.278  31.943   6.716
 4817POPC   C3A62129   4.874  32.092   6.822
 4817POPC   C4A62130   4.836  32.007   7.256
 4817POPC   C1B62131   4.973  32.353   6.370
 4817POPC   C2B62132   5.286  32.453   6.682
 4817POPC   C3B62133   5.226  32.321   7.099
 4817POPC   C4B62134   4.828  32.493   7.186
 4818POPC   NC362135  40.694  19.566   5.480
 4818POPC   PO462136  41.349  19.651   5.540
 4818POPC   GL162137  41.011  19.852   5.804
 4818POPC   GL262138  40.890  20.180   5.735
 4818POPC   C1A62139  40.685  19.884   6.143
 4818POPC   D2A62140  40.496  19.633   6.508
 4818POPC   C3A62141  40.641  19.841   6.882
 4818POPC   C4A62142  40.898  19.746   7.207
 4818POPC   C1B62143  41.063  20.261   6.147
 4818POPC   C2B62144  40.836  20.219   6.534
 4818POPC   C3B62145  41.011  20.198   6.918
 4818POPC   C4B62146  40.773  20.224   7.287
 4819POPC   NC362147  18.173  30.983   5.329
 4819POPC   PO462148  18.581  31.537   5.373
 4819POPC   GL162149  18.319  31.542   5.752
 4819POPC   GL262150  18.075  31.280   5.750
 4819POPC   C1A62151  18.189  31.626   6.176
 4819POPC   D2A62152  18.257  31.445   6.554
 4819POPC   C3A62153  18.367  31.605   6.932
 4819POPC   C4A62154  18.585  31.344   7.210
 4819POPC   C1B62155  18.198  31.101   6.152
 4819POPC   C2B62156  17.985  31.015   6.550
 4819POPC   C3B62157  18.120  31.144   6.970
 4819POPC   C4B62158  17.962  31.385   7.308
 4820POPC   NC362159  13.991  24.136   5.441
 4820POPC   PO462160  14.459  24.626   5.213
 4820POPC   GL162161  14.488  24.638   5.696
 4820POPC   GL262162  14.198  24.444   5.860
 4820POPC   C1A62163  14.534  24.667   6.168
 4820POPC   D2A62164  14.287  24.524   6.543
 4820POPC   C3A62165  14.246  24.753   6.927
 4820POPC   C4A62166  14.234  24.847   7.340
 4820POPC   C1B62167  14.262  24.133   6.227
 4820POPC   C2B62168  14.131  24.017   6.657
 4820POPC   C3B62169  14.084  24.078   7.108
 4820POPC   C4B62170  14.274  24.335   7.429
 4821POPC   NC362171  37.897  39.309   5.343
 4821POPC   PO462172  37.340  39.006   5.410
 4821POPC   GL162173  37.694  38.971   5.726
 4821POPC   GL262174  37.803  39.312   5.837
 4821POPC   C1A62175  37.838  38.830   6.143
 4821POPC   D2A62176  37.836  39.014   6.579
 4821POPC   C3A62177  37.680  39.222   6.966
 4821POPC   C4A62178  37.799  39.045   7.381
 4821POPC   C1B62179  37.781  39.410   6.256
 4821POPC   C2B62180  38.036  39.486   6.641
 4821POPC   C3B62181  37.934  39.693   7.005
 4821POPC   C4B62182  37.668  39.643   7.325
 4822POPC   NC362183   0.865   1.256   5.479
 4822POPC   PO462184   1.506   1.412   5.306
 4822POPC   GL162185   1.299   1.330   5.745
 4822POPC   GL262186   1.112   1.007   5.854
 4822POPC   C1A62187   1.169   1.403   6.186
 4822POPC   D2A62188   0.974   1.160   6.531
 4822POPC   C3A62189   1.047   1.311   6.929
 4822POPC   C4A62190   1.265   1.524   7.234
 4822POPC   C1B62191   1.267   0.862   6.244
 4822POPC   C2B62192   1.486   0.882   6.642
 4822POPC   C3B62193   1.311   0.870   7.050
 4822POPC   C4B62194   0.875   0.879   7.182
 4823POPC   NC362195  14.922  16.858   5.376
 4823POPC   PO462196  15.394  16.310   5.344
 4823POPC   GL162197  15.211  16.577   5.694
 4823POPC   GL262198  14.937  16.407   5.872
 4823POPC   C1A62199  15.186  16.825   6.102
 4823POPC   D2A62200  15.004  16.927   6.547
 4823POPC   C3A62201  15.195  16.837   6.955
 4823POPC   C4A62202  15.555  16.985   7.224
 4823POPC   C1B62203  14.825  16.510   6.302
 4823POPC   C2B62204  14.925  16.429   6.742
 4823POPC   C3B62205  14.804  16.517   7.167
 4823POPC   C4B62206  14.954  16.489   7.590
 4824POPC   NC362207   5.517  22.687   5.518
 4824POPC   PO462208   6.090  23.110   5.345
 4824POPC   GL162209   5.901  22.931   5.755
 4824POPC   GL262210   5.648  23.140   5.955
 4824POPC   C1A62211   5.821  22.711   6.166
 4824POPC   D2A62212   5.700  22.948   6.555
 4824POPC   C3A62213   5.827  22.943   7.010
 4824POPC   C4A62214   5.992  22.655   7.318
 4824POPC   C1B62215   6.085  23.122   6.220
 4824POPC   C2B62216   6.271  23.172   6.615
 4824POPC   C3B62217   6.238  23.285   7.034
 4824POPC   C4B62218   6.167  23.118   7.451
 4825POPC   NC362219  15.024  32.731   5.615
 4825POPC   PO462220  15.060  32.104   5.415
 4825POPC   GL162221  15.129  31.990   5.823
 4825POPC   GL262222  15.221  32.331   5.929
 4825POPC   C1A62223  14.960  32.009   6.236
 4825POPC   D2A62224  15.197  32.091   6.592
 4825POPC   C3A62225  15.043  32.143   7.010
 4825POPC   C4A62226  15.292  32.060   7.370
 4825POPC   C1B62227  15.276  32.635   6.266
 4825POPC   C2B62228  15.113  32.581   6.666
 4825POPC   C3B62229  14.900  32.633   7.038
 4825POPC   C4B62230  15.216  32.558   7.356
 4826POPC   NC362231  31.838  40.572   5.462
 4826POPC   PO462232  31.281  41.010   5.413
 4826POPC   GL162233  31.543  40.903   5.788
 4826POPC   GL262234  31.568  40.546   5.897
 4826POPC   C1A62235  31.791  40.968   6.186
 4826POPC   D2A62236  31.968  41.021   6.622
 4826POPC   C3A62237  31.619  40.865   6.940
 4826POPC   C4A62238  31.637  40.526   7.289
 4826POPC   C1B62239  31.361  40.373   6.262
 4826POPC   C2B62240  31.358  40.475   6.707
 4826POPC   C3B62241  31.140  40.444   7.096
 4826POPC   C4B62242  31.197  40.423   7.548
 4827POPC   NC362243  17.697   6.089   5.382
 4827POPC   PO462244  17.385   5.466   5.459
 4827POPC   GL162245  17.371   5.722   5.781
 4827POPC   GL262246  17.195   6.017   5.602
 4827POPC   C1A62247  17.472   5.710   6.246
 4827POPC   D2A62248  17.776   5.856   6.562
 4827POPC   C3A62249  17.734   5.764   7.001
 4827POPC   C4A62250  17.598   5.395   7.202
 4827POPC   C1B62251  17.205   6.105   6.057
 4827POPC   C2B62252  17.395   6.241   6.459
 4827POPC   C3B62253  17.395   6.115   6.865
 4827POPC   C4B62254  17.244   5.814   7.162
 4828POPC   NC362255  32.196   8.654   5.573
 4828POPC   PO462256  31.957   9.212   5.566
 4828POPC   GL162257  31.992   9.005   5.906
 4828POPC   GL262258  32.336   8.971   5.996
 4828POPC   C1A62259  31.945   8.794   6.274
 4828POPC   D2A62260  32.253   8.908   6.585
 4828POPC   C3A62261  32.120   8.846   7.037
 4828POPC   C4A62262  32.072   9.033   7.445
 4828POPC   C1B62263  32.676   9.162   6.249
 4828POPC   C2B62264  32.658   9.359   6.617
 4828POPC   C3B62265  32.501   9.184   6.964
 4828POPC   C4B62266  32.712   9.274   7.308
 4829POPC   NC362267  20.301  38.827   5.549
 4829POPC   PO462268  20.237  38.151   5.397
 4829POPC   GL162269  20.047  38.395   5.737
 4829POPC   GL262270  19.669  38.434   5.761
 4829POPC   C1A62271  20.006  38.380   6.182
 4829POPC   D2A62272  19.850  38.272   6.581
 4829POPC   C3A62273  19.944  38.421   6.990
 4829POPC   C4A62274  20.142  38.423   7.376
 4829POPC   C1B62275  19.459  38.343   6.189
 4829POPC   C2B62276  19.381  38.085   6.590
 4829POPC   C3B62277  19.606  38.021   6.965
 4829POPC   C4B62278  19.668  38.178   7.395
 4830POPC   NC362279  26.209   4.625   5.298
 4830POPC   PO462280  26.323   3.975   5.155
 4830POPC   GL162281  26.133   4.164   5.575
 4830POPC   GL262282  26.007   3.944   5.836
 4830POPC   C1A62283  26.131   4.413   6.010
 4830POPC   D2A62284  25.813   4.454   6.364
 4830POPC   C3A62285  25.816   4.408   6.828
 4830POPC   C4A62286  26.087   4.299   7.173
 4830POPC   C1B62287  26.254   3.974   6.265
 4830POPC   C2B62288  26.427   3.776   6.654
 4830POPC   C3B62289  26.305   3.817   7.098
 4830POPC   C4B62290  26.218   3.820   7.578
 4831POPC   NC362291  32.597   6.746   5.617
 4831POPC   PO462292  33.125   6.818   5.294
 4831POPC   GL162293  33.273   6.632   5.709
 4831POPC   GL262294  33.531   6.352   5.657
 4831POPC   C1A62295  33.139   6.622   6.166
 4831POPC   D2A62296  32.809   6.759   6.505
 4831POPC   C3A62297  32.920   6.741   6.966
 4831POPC   C4A62298  33.097   6.707   7.379
 4831POPC   C1B62299  33.615   6.410   6.097
 4831POPC   C2B62300  33.472   6.477   6.548
 4831POPC   C3B62301  33.377   6.467   7.017
 4831POPC   C4B62302  33.284   6.229   7.422
 4832POPC   NC362303   3.911  14.107   5.718
 4832POPC   PO462304   3.445  14.529   5.333
 4832POPC   GL162305   3.441  14.468   5.785
 4832POPC   GL262306   3.410  14.159   5.993
 4832POPC   C1A62307   3.560  14.619   6.196
 4832POPC   D2A62308   3.710  14.678   6.609
 4832POPC   C3A62309   3.504  14.596   6.995
 4832POPC   C4A62310   3.692  14.715   7.401
 4832POPC   C1B62311   3.649  14.087   6.377
 4832POPC   C2B62312   3.560  14.077   6.824
 4832POPC   C3B62313   3.714  14.196   7.225
 4832POPC   C4B62314   3.669  14.274   7.659
 4833POPC   NC362315   2.386  27.597   5.302
 4833POPC   PO462316   1.747  27.558   5.353
 4833POPC   GL162317   1.973  27.505   5.737
 4833POPC   GL262318   2.272  27.746   5.771
 4833POPC   C1A62319   1.777  27.418   6.157
 4833POPC   D2A62320   1.643  27.512   6.585
 4833POPC   C3A62321   1.850  27.333   6.966
 4833POPC   C4A62322   2.054  27.392   7.352
 4833POPC   C1B62323   2.285  27.541   6.184
 4833POPC   C2B62324   2.443  27.577   6.609
 4833POPC   C3B62325   2.362  27.670   7.039
 4833POPC   C4B62326   2.020  27.887   7.221
 4834POPC   NC362327  27.932  38.916   5.663
 4834POPC   PO462328  27.807  38.279   5.568
 4834POPC   GL162329  27.607  38.379   5.940
 4834POPC   GL262330  27.334  38.644   5.893
 4834POPC   C1A62331  27.615  38.663   6.320
 4834POPC   D2A62332  27.730  38.759   6.744
 4834POPC   C3A62333  27.594  38.484   7.047
 4834POPC   C4A62334  27.756  38.091   7.165
 4834POPC   C1B62335  27.200  38.363   6.247
 4834POPC   C2B62336  27.061  38.262   6.677
 4834POPC   C3B62337  27.235  38.103   7.073
 4834POPC   C4B62338  27.338  38.252   7.480
 4835POPC   NC362339  12.434  36.418   5.365
 4835POPC   PO462340  11.750  36.426   5.254
 4835POPC   GL162341  11.948  36.242   5.664
 4835POPC   GL262342  11.669  36.070   5.843
 4835POPC   C1A62343  12.202  36.234   6.085
 4835POPC   D2A62344  12.181  36.422   6.526
 4835POPC   C3A62345  12.270  36.327   6.943
 4835POPC   C4A62346  11.876  36.246   7.144
 4835POPC   C1B62347  11.931  35.800   6.094
 4835POPC   C2B62348  12.193  35.842   6.448
 4835POPC   C3B62349  12.085  35.873   6.864
 4835POPC   C4B62350  12.301  35.934   7.274
 4836POPC   NC362351  33.746   7.683   5.402
 4836POPC   PO462352  33.822   7.100   5.321
 4836POPC   GL162353  33.915   7.307   5.747
 4836POPC   GL262354  33.578   7.344   5.777
 4836POPC   C1A62355  34.011   7.218   6.215
 4836POPC   D2A62356  34.145   7.147   6.679
 4836POPC   C3A62357  33.863   7.242   7.033
 4836POPC   C4A62358  33.868   7.312   7.505
 4836POPC   C1B62359  33.515   7.434   6.185
 4836POPC   C2B62360  33.532   7.411   6.599
 4836POPC   C3B62361  33.299   7.502   6.913
 4836POPC   C4B62362  33.463   7.490   7.277
 4837POPC   NC362363  14.091  12.714   5.460
 4837POPC   PO462364  14.590  13.196   5.349
 4837POPC   GL162365  14.424  13.011   5.749
 4837POPC   GL262366  14.135  13.191   5.803
 4837POPC   C1A62367  14.476  12.838   6.199
 4837POPC   D2A62368  14.465  12.503   6.553
 4837POPC   C3A62369  14.720  12.568   6.919
 4837POPC   C4A62370  14.739  12.906   7.230
 4837POPC   C1B62371  13.976  12.995   6.170
 4837POPC   C2B62372  14.078  12.869   6.573
 4837POPC   C3B62373  14.294  12.882   6.940
 4837POPC   C4B62374  14.095  13.078   7.299
 4838POPC   NC362375  33.807  44.170   5.256
 4838POPC   PO462376  34.026  43.587   5.448
 4838POPC   GL162377  33.767  43.874   5.757
 4838POPC   GL262378  33.443  43.791   5.858
 4838POPC   C1A62379  33.791  43.989   6.216
 4838POPC   D2A62380  33.583  43.700   6.499
 4838POPC   C3A62381  33.608  43.726   6.938
 4838POPC   C4A62382  33.731  43.949   7.333
 4838POPC   C1B62383  33.293  44.001   6.190
 4838POPC   C2B62384  33.377  44.186   6.574
 4838POPC   C3B62385  33.331  44.153   7.005
 4838POPC   C4B62386  33.540  44.414   7.312
 4839POPC   NC362387  22.825  43.673   5.449
 4839POPC   PO462388  22.963  42.986   5.485
 4839POPC   GL162389  23.128  42.932   5.868
 4839POPC   GL262390  23.254  43.247   5.966
 4839POPC   C1A62391  23.018  42.750   6.281
 4839POPC   D2A62392  23.158  42.778   6.719
 4839POPC   C3A62393  22.989  43.048   7.057
 4839POPC   C4A62394  23.192  43.469   7.091
 4839POPC   C1B62395  22.934  43.243   6.272
 4839POPC   C2B62396  22.726  43.097   6.614
 4839POPC   C3B62397  22.599  43.336   6.955
 4839POPC   C4B62398  22.715  43.495   7.307
 4840POPC   NC362399  29.400   0.694   5.101
 4840POPC   PO462400  29.195   0.353   5.649
 4840POPC   GL162401  28.867   0.529   5.847
 4840POPC   GL262402  29.097   0.752   5.990
 4840POPC   C1A62403  28.944   0.342   6.239
 4840POPC   D2A62404  29.320   0.350   6.500
 4840POPC   C3A62405  29.246   0.546   6.874
 4840POPC   C4A62406  29.064   0.474   7.278
 4840POPC   C1B62407  29.089   0.807   6.431
 4840POPC   C2B62408  28.857   0.883   6.794
 4840POPC   C3B62409  28.927   0.964   7.234
 4840POPC   C4B62410  28.973   0.793   7.685
 4841POPC   NC362411   6.687   7.972   5.721
 4841POPC   PO462412   6.626   8.484   5.278
 4841POPC   GL162413   6.689   8.507   5.799
 4841POPC   GL262414   6.995   8.704   5.922
 4841POPC   C1A62415   6.575   8.304   6.283
 4841POPC   D2A62416   6.368   8.128   6.729
 4841POPC   C3A62417   6.513   8.072   7.198
 4841POPC   C4A62418   6.416   7.980   7.681
 4841POPC   C1B62419   6.955   8.641   6.381
 4841POPC   C2B62420   6.624   8.580   6.721
 4841POPC   C3B62421   6.723   8.519   7.148
 4841POPC   C4B62422   6.754   8.330   7.574
 4842POPC   NC362423  22.441   2.248   5.520
 4842POPC   PO462424  21.826   1.795   5.460
 4842POPC   GL162425  22.128   1.936   5.787
 4842POPC   GL262426  22.114   2.293   5.936
 4842POPC   C1A62427  22.295   1.867   6.213
 4842POPC   D2A62428  22.105   1.704   6.594
 4842POPC   C3A62429  22.320   1.503   6.918
 4842POPC   C4A62430  22.235   1.811   7.232
 4842POPC   C1B62431  22.452   2.453   6.178
 4842POPC   C2B62432  22.418   2.364   6.601
 4842POPC   C3B62433  22.428   2.223   7.008
 4842POPC   C4B62434  22.498   2.363   7.408
 4843POPC   NC362435  36.635  11.688   5.150
 4843POPC   PO462436  36.948  12.244   5.357
 4843POPC   GL162437  36.781  12.050   5.718
 4843POPC   GL262438  36.747  11.688   5.655
 4843POPC   C1A62439  36.915  12.202   6.127
 4843POPC   D2A62440  37.131  12.060   6.504
 4843POPC   C3A62441  37.000  12.267   6.883
 4843POPC   C4A62442  36.908  12.379   7.299
 4843POPC   C1B62443  36.679  11.700   6.103
 4843POPC   C2B62444  36.844  11.606   6.525
 4843POPC   C3B62445  36.805  11.775   6.974
 4843POPC   C4B62446  36.857  11.878   7.424
 4844POPC   NC362447  39.654  17.357   5.623
 4844POPC   PO462448  40.012  17.873   5.304
 4844POPC   GL162449  40.053  17.648   5.716
 4844POPC   GL262450  40.135  17.323   5.770
 4844POPC   C1A62451  39.882  17.646   6.178
 4844POPC   D2A62452  39.818  17.888   6.570
 4844POPC   C3A62453  39.677  17.725   6.981
 4844POPC   C4A62454  39.932  17.725   7.390
 4844POPC   C1B62455  40.128  17.200   6.202
 4844POPC   C2B62456  40.055  17.411   6.637
 4844POPC   C3B62457  39.944  17.296   7.087
 4844POPC   C4B62458  40.032  17.247   7.568
 4845POPC   NC362459  21.626  23.708   5.325
 4845POPC   PO462460  21.116  23.334   5.125
 4845POPC   GL162461  21.188  23.542   5.617
 4845POPC   GL262462  21.455  23.831   5.772
 4845POPC   C1A62463  21.198  23.601   6.118
 4845POPC   D2A62464  21.232  23.926   6.453
 4845POPC   C3A62465  21.181  23.725   6.843
 4845POPC   C4A62466  21.405  23.699   7.204
 4845POPC   C1B62467  21.641  23.903   6.152
 4845POPC   C2B62468  21.723  24.176   6.477
 4845POPC   C3B62469  21.579  24.053   6.859
 4845POPC   C4B62470  21.553  24.173   7.298
 4846POPC   NC362471   0.560   8.409   5.466
 4846POPC   PO462472   0.093   7.980   5.345
 4846POPC   GL162473   0.105   8.024   5.790
 4846POPC   GL262474   0.165   8.372   5.819
 4846POPC   C1A62475   0.293   8.037   6.215
 4846POPC   D2A62476   0.155   8.000   6.636
 4846POPC   C3A62477   0.451   7.997   6.955
 4846POPC   C4A62478   0.512   8.042   7.435
 4846POPC   C1B62479   0.393   8.539   6.173
 4846POPC   C2B62480   0.694   8.496   6.518
 4846POPC   C3B62481   0.710   8.462   6.976
 4846POPC   C4B62482   0.305   8.433   7.191
 4847POPC   NC362483  12.597  12.325   5.593
 4847POPC   PO462484  11.915  12.466   5.555
 4847POPC   GL162485  12.176  12.680   5.866
 4847POPC   GL262486  12.271  13.019   5.786
 4847POPC   C1A62487  12.318  12.642   6.303
 4847POPC   D2A62488  12.111  12.352   6.626
 4847POPC   C3A62489  12.032  12.530   7.050
 4847POPC   C4A62490  11.857  12.917   7.135
 4847POPC   C1B62491  12.054  13.124   6.206
 4847POPC   C2B62492  11.941  13.124   6.675
 4847POPC   C3B62493  12.229  13.223   7.063
 4847POPC   C4B62494  12.418  12.853   7.215
 4848POPC   NC362495  11.727  40.643   5.421
 4848POPC   PO462496  12.299  41.018   5.402
 4848POPC   GL162497  12.131  40.748   5.779
 4848POPC   GL262498  11.864  40.444   5.867
 4848POPC   C1A62499  12.047  40.756   6.232
 4848POPC   D2A62500  12.135  40.612   6.654
 4848POPC   C3A62501  12.084  40.859   7.024
 4848POPC   C4A62502  12.409  41.145   7.189
 4848POPC   C1B62503  11.586  40.506   6.229
 4848POPC   C2B62504  11.633  40.703   6.623
 4848POPC   C3B62505  11.667  40.550   6.996
 4848POPC   C4B62506  11.561  40.300   7.301
 4849POPC   NC362507  22.995  12.266   5.554
 4849POPC   PO462508  22.768  11.677   5.438
 4849POPC   GL162509  22.837  11.869   5.813
 4849POPC   GL262510  22.548  12.022   5.946
 4849POPC   C1A62511  23.097  11.997   6.205
 4849POPC   D2A62512  23.385  12.226   6.523
 4849POPC   C3A62513  23.203  12.122   6.953
 4849POPC   C4A62514  22.816  12.280   7.181
 4849POPC   C1B62515  22.688  11.628   6.199
 4849POPC   C2B62516  22.838  11.632   6.563
 4849POPC   C3B62517  22.739  11.835   6.915
 4849POPC   C4B62518  22.923  11.789   7.285
 4850POPC   NC362519  15.051  31.629   5.451
 4850POPC   PO462520  14.967  30.997   5.446
 4850POPC   GL162521  15.026  31.243   5.796
 4850POPC   GL262522  15.362  31.242   5.738
 4850POPC   C1A62523  15.147  31.542   6.131
 4850POPC   D2A62524  15.376  31.618   6.529
 4850POPC   C3A62525  15.163  31.646   6.941
 4850POPC   C4A62526  15.029  31.273   7.188
 4850POPC   C1B62527  15.522  31.203   6.139
 4850POPC   C2B62528  15.415  31.097   6.548
 4850POPC   C3B62529  15.514  31.267   6.932
 4850POPC   C4B62530  15.709  31.644   7.037
 4851POPC   NC362531  41.223  33.717   5.551
 4851POPC   PO462532  41.859  33.914   5.407
 4851POPC   GL162533  41.880  33.806   5.831
 4851POPC   GL262534  41.554  33.873   5.897
 4851POPC   C1A62535  41.743  33.546   6.216
 4851POPC   D2A62536  41.451  33.699   6.553
 4851POPC   C3A62537  41.629  33.781   6.949
 4851POPC   C4A62538  41.591  33.593   7.356
 4851POPC   C1B62539  41.738  34.040   6.287
 4851POPC   C2B62540  41.865  34.221   6.659
 4851POPC   C3B62541  41.730  34.269   7.073
 4851POPC   C4B62542  41.893  33.996   7.390
 4852POPC   NC362543  33.537  17.804   5.325
 4852POPC   PO462544  33.877  17.347   5.627
 4852POPC   GL162545  34.029  17.623   5.877
 4852POPC   GL262546  34.252  17.372   5.997
 4852POPC   C1A62547  33.845  17.767   6.238
 4852POPC   D2A62548  33.570  17.728   6.551
 4852POPC   C3A62549  33.810  17.869   6.882
 4852POPC   C4A62550  33.805  17.621   7.219
 4852POPC   C1B62551  33.969  17.273   6.350
 4852POPC   C2B62552  33.942  17.341   6.804
 4852POPC   C3B62553  34.220  17.324   7.168
 4852POPC   C4B62554  34.278  17.211   7.610
 4853POPC   NC362555  37.653  19.005   4.989
 4853POPC   PO462556  37.966  19.308   5.524
 4853POPC   GL162557  37.725  19.144   5.860
 4853POPC   GL262558  37.726  18.786   5.800
 4853POPC   C1A62559  37.909  19.089   6.281
 4853POPC   D2A62560  38.046  18.937   6.689
 4853POPC   C3A62561  37.894  19.105   7.047
 4853POPC   C4A62562  37.478  19.238   7.073
 4853POPC   C1B62563  37.493  18.764   6.188
 4853POPC   C2B62564  37.532  18.929   6.604
 4853POPC   C3B62565  37.638  18.688   6.944
 4853POPC   C4B62566  37.503  18.770   7.344
 4854POPC   NC362567   0.446   0.553   5.427
 4854POPC   PO462568   0.078   1.064   5.667
 4854POPC   GL162569   0.490   0.857   5.826
 4854POPC   GL262570   0.449   0.495   5.922
 4854POPC   C1A62571   0.755   0.754   6.219
 4854POPC   D2A62572   0.565   0.429   6.508
 4854POPC   C3A62573   0.530   0.579   6.942
 4854POPC   C4A62574   0.528   0.528   7.378
 4854POPC   C1B62575   0.263   0.155   6.141
 4854POPC   C2B62576   0.092   0.094   6.522
 4854POPC   C3B62577   0.344   0.108   6.875
 4854POPC   C4B62578   0.395   0.035   7.286
 4855POPC   NC362579  32.452  34.676   5.604
 4855POPC   PO462580  32.033  34.184   5.488
 4855POPC   GL162581  32.285  34.256   5.899
 4855POPC   GL262582  32.302  34.597   6.067
 4855POPC   C1A62583  32.386  34.181   6.351
 4855POPC   D2A62584  32.376  34.447   6.725
 4855POPC   C3A62585  32.152  34.273   7.094
 4855POPC   C4A62586  32.320  34.305   7.525
 4855POPC   C1B62587  32.392  34.966   6.323
 4855POPC   C2B62588  32.291  35.009   6.780
 4855POPC   C3B62589  32.266  34.770   7.175
 4855POPC   C4B62590  32.356  34.872   7.622
 4856POPC   NC362591  24.112  23.988   5.482
 4856POPC   PO462592  24.297  23.423   5.356
 4856POPC   GL162593  24.341  23.517   5.800
 4856POPC   GL262594  24.136  23.760   5.967
 4856POPC   C1A62595  24.530  23.527   6.238
 4856POPC   D2A62596  24.671  23.729   6.642
 4856POPC   C3A62597  24.565  23.590   7.083
 4856POPC   C4A62598  24.759  23.651   7.482
 4856POPC   C1B62599  24.201  23.874   6.429
 4856POPC   C2B62600  24.141  23.696   6.831
 4856POPC   C3B62601  24.144  23.887   7.254
 4856POPC   C4B62602  24.082  23.963   7.700
 4857POPC   NC362603  37.361  18.586   5.489
 4857POPC   PO462604  38.058  18.386   5.395
 4857POPC   GL162605  37.787  18.272   5.786
 4857POPC   GL262606  37.427  18.170   5.810
 4857POPC   C1A62607  37.747  18.089   6.214
 4857POPC   D2A62608  37.524  18.038   6.610
 4857POPC   C3A62609  37.766  18.183   6.963
 4857POPC   C4A62610  37.907  18.469   7.349
 4857POPC   C1B62611  37.248  18.267   6.207
 4857POPC   C2B62612  37.279  18.491   6.592
 4857POPC   C3B62613  37.286  18.326   6.987
 4857POPC   C4B62614  37.130  18.430   7.329
 4858POPC   NC362615  23.557  10.096   5.498
 4858POPC   PO462616  23.818   9.515   5.569
 4858POPC   GL162617  23.624   9.706   5.865
 4858POPC   GL262618  23.538   9.396   6.042
 4858POPC   C1A62619  23.513   9.879   6.243
 4858POPC   D2A62620  23.289   9.664   6.559
 4858POPC   C3A62621  23.518   9.760   6.920
 4858POPC   C4A62622  23.432  10.080   7.222
 4858POPC   C1B62623  23.975   9.545   6.208
 4858POPC   C2B62624  24.229   9.560   6.579
 4858POPC   C3B62625  24.030   9.619   6.973
 4858POPC   C4B62626  23.800   9.761   7.338
 4859POPC   NC362627  26.268   8.590   5.172
 4859POPC   PO462628  25.835   8.120   5.394
 4859POPC   GL162629  25.969   8.009   5.812
 4859POPC   GL262630  26.287   7.970   5.922
 4859POPC   C1A62631  25.925   8.204   6.225
 4859POPC   D2A62632  26.162   8.385   6.561
 4859POPC   C3A62633  25.969   8.313   6.924
 4859POPC   C4A62634  26.018   7.955   7.130
 4859POPC   C1B62635  26.175   7.749   6.314
 4859POPC   C2B62636  26.493   7.806   6.618
 4859POPC   C3B62637  26.595   8.208   6.796
 4859POPC   C4B62638  26.416   8.257   7.184
 4860POPC   NC362639  42.387  16.104   5.501
 4860POPC   PO462640  42.036  15.588   5.533
 4860POPC   GL162641  42.358  15.675   5.808
 4860POPC   GL262642  42.369  16.008   6.001
 4860POPC   C1A62643  42.460  15.556   6.201
 4860POPC   D2A62644  42.405  15.875   6.510
 4860POPC   C3A62645  42.602  15.818   6.892
 4860POPC   C4A62646  42.555  16.014   7.278
 4860POPC   C1B62647  42.081  16.246   6.274
 4860POPC   C2B62648  41.856  16.271   6.683
 4860POPC   C3B62649  42.080  16.400   7.046
 4860POPC   C4B62650  42.191  16.334   7.457
 4861POPC   NC362651  38.726  31.049   5.651
 4861POPC   PO462652  38.358  31.512   5.290
 4861POPC   GL162653  38.292  31.370   5.730
 4861POPC   GL262654  38.577  31.524   5.878
 4861POPC   C1A62655  38.148  31.530   6.162
 4861POPC   D2A62656  38.364  31.737   6.522
 4861POPC   C3A62657  38.431  31.448   6.854
 4861POPC   C4A62658  38.194  31.425   7.251
 4861POPC   C1B62659  38.597  31.312   6.300
 4861POPC   C2B62660  38.885  31.224   6.641
 4861POPC   C3B62661  38.813  31.177   7.063
 4861POPC   C4B62662  38.690  31.467   7.359
 4862POPC   NC362663  11.161  41.711   5.303
 4862POPC   PO462664  11.502  41.092   5.366
 4862POPC   GL162665  11.303  41.346   5.720
 4862POPC   GL262666  11.191  41.697   5.787
 4862POPC   C1A62667  11.420  41.497   6.165
 4862POPC   D2A62668  11.274  41.719   6.524
 4862POPC   C3A62669  11.244  41.526   6.905
 4862POPC   C4A62670  11.520  41.460   7.284
 4862POPC   C1B62671  10.959  41.847   6.134
 4862POPC   C2B62672  10.822  41.953   6.564
 4862POPC   C3B62673  11.094  42.035   6.919
 4862POPC   C4B62674  11.123  41.796   7.291
 4863POPC   NC362675  23.656  12.972   5.370
 4863POPC   PO462676  24.108  12.471   5.581
 4863POPC   GL162677  23.915  12.837   5.809
 4863POPC   GL262678  23.525  12.809   5.840
 4863POPC   C1A62679  23.807  12.877   6.251
 4863POPC   D2A62680  23.777  12.582   6.589
 4863POPC   C3A62681  23.816  12.739   6.985
 4863POPC   C4A62682  23.713  12.497   7.342
 4863POPC   C1B62683  23.287  13.121   6.079
 4863POPC   C2B62684  23.205  13.273   6.497
 4863POPC   C3B62685  23.405  13.130   6.865
 4863POPC   C4B62686  23.392  13.255   7.276
 4864POPC   NC362687  36.700  19.265   5.169
 4864POPC   PO462688  37.253  18.951   5.215
 4864POPC   GL162689  37.213  19.101   5.666
 4864POPC   GL262690  36.866  19.278   5.687
 4864POPC   C1A62691  37.110  19.138   6.131
 4864POPC   D2A62692  37.080  19.214   6.591
 4864POPC   C3A62693  37.116  18.880   6.932
 4864POPC   C4A62694  37.091  19.085   7.347
 4864POPC   C1B62695  36.590  19.324   6.070
 4864POPC   C2B62696  36.587  19.401   6.542
 4864POPC   C3B62697  36.697  19.216   6.958
 4864POPC   C4B62698  36.444  19.182   7.330
 4865POPC   NC362699   6.706  21.102   5.424
 4865POPC   PO462700   6.890  20.490   5.279
 4865POPC   GL162701   6.981  20.709   5.653
 4865POPC   GL262702   6.650  20.619   5.763
 4865POPC   C1A62703   6.988  20.923   6.068
 4865POPC   D2A62704   6.822  20.785   6.462
 4865POPC   C3A62705   6.843  20.939   6.855
 4865POPC   C4A62706   6.951  20.663   7.154
 4865POPC   C1B62707   6.456  20.775   6.123
 4865POPC   C2B62708   6.312  20.714   6.561
 4865POPC   C3B62709   6.362  20.779   7.006
 4865POPC   C4B62710   6.479  20.450   7.265
 4866POPC   NC362711  15.755  41.197   5.423
 4866POPC   PO462712  15.998  40.551   5.380
 4866POPC   GL162713  16.088  40.607   5.823
 4866POPC   GL262714  16.043  40.946   5.786
 4866POPC   C1A62715  16.131  40.510   6.262
 4866POPC   D2A62716  16.289  40.573   6.684
 4866POPC   C3A62717  16.054  40.693   7.022
 4866POPC   C4A62718  15.661  40.746   7.233
 4866POPC   C1B62719  15.877  40.958   6.196
 4866POPC   C2B62720  16.073  41.047   6.559
 4866POPC   C3B62721  16.133  41.174   6.940
 4866POPC   C4B62722  15.928  41.167   7.274
 4867POPC   NC362723  27.892  40.662   5.187
 4867POPC   PO462724  28.419  40.995   5.506
 4867POPC   GL162725  28.475  40.765   5.895
 4867POPC   GL262726  28.648  41.073   5.995
 4867POPC   C1A62727  28.238  40.524   6.249
 4867POPC   D2A62728  28.152  40.443   6.669
 4867POPC   C3A62729  28.356  40.742   6.865
 4867POPC   C4A62730  28.245  40.931   7.206
 4867POPC   C1B62731  28.600  40.862   6.390
 4867POPC   C2B62732  28.573  41.167   6.697
 4867POPC   C3B62733  28.568  41.325   7.094
 4867POPC   C4B62734  28.487  41.246   7.517
 4868POPC   NC362735   0.628  16.269   5.543
 4868POPC   PO462736   0.078  16.097   5.207
 4868POPC   GL162737   0.281  15.833   5.630
 4868POPC   GL262738   0.603  15.770   5.796
 4868POPC   C1A62739   0.241  15.853   6.131
 4868POPC   D2A62740   0.147  15.744   6.578
 4868POPC   C3A62741   0.313  15.911   6.959
 4868POPC   C4A62742   0.624  15.724   7.227
 4868POPC   C1B62743   0.748  15.854   6.231
 4868POPC   C2B62744   0.739  15.995   6.671
 4868POPC   C3B62745   0.729  16.192   7.093
 4868POPC   C4B62746   0.731  16.092   7.571
 4869POPC   NC362747  37.435  22.130   5.383
 4869POPC   PO462748  38.085  22.547   5.505
 4869POPC   GL162749  37.758  22.349   5.723
 4869POPC   GL262750  37.746  21.990   5.789
 4869POPC   C1A62751  37.550  22.415   6.105
 4869POPC   D2A62752  37.715  22.404   6.505
 4869POPC   C3A62753  37.507  22.458   6.904
 4869POPC   C4A62754  37.242  22.253   7.180
 4869POPC   C1B62755  37.650  21.910   6.238
 4869POPC   C2B62756  37.910  21.937   6.630
 4869POPC   C3B62757  37.981  22.265   6.916
 4869POPC   C4B62758  37.730  22.048   7.163
 4870POPC   NC362759   0.434   5.104   5.125
 4870POPC   PO462760  44.990   4.693   5.130
 4870POPC   GL162761   0.107   5.091   5.541
 4870POPC   GL262762   0.489   5.077   5.697
 4870POPC   C1A62763   0.145   5.266   6.041
 4870POPC   D2A62764   0.280   5.397   6.520
 4870POPC   C3A62765   0.345   5.119   6.935
 4870POPC   C4A62766   0.234   4.690   7.178
 4870POPC   C1B62767   0.741   5.240   6.109
 4870POPC   C2B62768   0.826   5.391   6.569
 4870POPC   C3B62769   0.901   5.206   6.954
 4870POPC   C4B62770   0.908   5.363   7.361
 4871POPC   NC362771  17.628  28.587   5.515
 4871POPC   PO462772  17.365  28.006   5.401
 4871POPC   GL162773  17.309  28.115   5.830
 4871POPC   GL262774  17.300  28.484   5.860
 4871POPC   C1A62775  17.185  28.227   6.272
 4871POPC   D2A62776  17.135  28.497   6.617
 4871POPC   C3A62777  17.393  28.344   6.943
 4871POPC   C4A62778  17.472  27.999   7.226
 4871POPC   C1B62779  17.617  28.612   6.167
 4871POPC   C2B62780  17.891  28.511   6.520
 4871POPC   C3B62781  17.819  28.669   6.921
 4871POPC   C4B62782  17.662  28.521   7.348
 4872POPC   NC362783  20.026  37.005   5.366
 4872POPC   PO462784  19.870  36.461   5.709
 4872POPC   GL162785  19.801  36.920   5.863
 4872POPC   GL262786  19.468  37.107   5.907
 4872POPC   C1A62787  19.850  37.152   6.265
 4872POPC   D2A62788  19.719  37.195   6.704
 4872POPC   C3A62789  19.977  37.188   7.118
 4872POPC   C4A62790  20.186  37.066   7.549
 4872POPC   C1B62791  19.307  37.195   6.349
 4872POPC   C2B62792  19.232  37.053   6.791
 4872POPC   C3B62793  19.350  36.990   7.246
 4872POPC   C4B62794  19.345  36.909   7.705
 4873POPC   NC362795  44.783  37.974   5.464
 4873POPC   PO462796  44.802  37.443   5.070
 4873POPC   GL162797  44.610  37.501   5.558
 4873POPC   GL262798  44.409  37.825   5.744
 4873POPC   C1A62799  44.743  37.536   6.046
 4873POPC   D2A62800  44.743  37.340   6.481
 4873POPC   C3A62801  44.536  37.505   6.857
 4873POPC   C4A62802  44.785  37.567   7.235
 4873POPC   C1B62803  44.534  38.005   6.156
 4873POPC   C2B62804  44.730  37.910   6.539
 4873POPC   C3B62805  44.626  38.013   6.962
 4873POPC   C4B62806  44.283  37.840   7.191
 4874POPC   NC362807  32.657  19.269   5.320
 4874POPC   PO462808  33.191  18.764   5.323
 4874POPC   GL162809  33.259  19.074   5.641
 4874POPC   GL262810  32.963  19.231   5.753
 4874POPC   C1A62811  33.318  19.063   6.102
 4874POPC   D2A62812  33.331  18.830   6.482
 4874POPC   C3A62813  33.146  19.066   6.819
 4874POPC   C4A62814  33.024  18.944   7.230
 4874POPC   C1B62815  32.817  19.157   6.185
 4874POPC   C2B62816  32.790  19.365   6.593
 4874POPC   C3B62817  32.702  19.270   7.049
 4874POPC   C4B62818  32.729  19.277   7.554
 4875POPC   NC362819  20.402  27.822   5.498
 4875POPC   PO462820  20.670  27.248   5.388
 4875POPC   GL162821  20.496  27.383   5.777
 4875POPC   GL262822  20.783  27.637   5.812
 4875POPC   C1A62823  20.509  27.477   6.227
 4875POPC   D2A62824  20.780  27.724   6.513
 4875POPC   C3A62825  20.763  27.605   6.927
 4875POPC   C4A62826  20.768  27.223   7.101
 4875POPC   C1B62827  20.589  27.969   6.090
 4875POPC   C2B62828  20.315  27.931   6.457
 4875POPC   C3B62829  20.435  28.063   6.873
 4875POPC   C4B62830  20.482  27.879   7.257
 4876POPC   NC362831   7.620  37.733   5.404
 4876POPC   PO462832   7.044  37.368   5.326
 4876POPC   GL162833   7.251  37.620   5.754
 4876POPC   GL262834   7.511  37.484   5.883
 4876POPC   C1A62835   7.410  37.836   6.186
 4876POPC   D2A62836   7.469  37.612   6.547
 4876POPC   C3A62837   7.362  37.856   6.866
 4876POPC   C4A62838   7.432  38.040   7.213
 4876POPC   C1B62839   7.648  37.238   6.216
 4876POPC   C2B62840   7.845  37.277   6.626
 4876POPC   C3B62841   7.758  37.161   7.033
 4876POPC   C4B62842   7.421  37.349   7.224
 4877POPC   NC362843  22.914   1.207   5.372
 4877POPC   PO462844  22.737   1.779   5.707
 4877POPC   GL162845  22.874   1.362   5.846
 4877POPC   GL262846  23.222   1.234   5.785
 4877POPC   C1A62847  22.881   1.248   6.239
 4877POPC   D2A62848  22.853   1.402   6.640
 4877POPC   C3A62849  22.623   1.066   6.811
 4877POPC   C4A62850  22.538   1.132   7.209
 4877POPC   C1B62851  23.343   1.044   6.192
 4877POPC   C2B62852  23.136   0.963   6.619
 4877POPC   C3B62853  23.098   1.048   7.105
 4877POPC   C4B62854  23.186   0.991   7.594
 4878POPC   NC362855  16.550  41.519   5.421
 4878POPC   PO462856  16.938  42.034   5.256
 4878POPC   GL162857  17.004  41.767   5.675
 4878POPC   GL262858  16.989  41.424   5.744
 4878POPC   C1A62859  16.937  41.728   6.195
 4878POPC   D2A62860  16.798  41.788   6.644
 4878POPC   C3A62861  16.983  41.925   7.058
 4878POPC   C4A62862  16.809  41.788   7.460
 4878POPC   C1B62863  16.919  41.217   6.137
 4878POPC   C2B62864  16.990  41.291   6.592
 4878POPC   C3B62865  16.802  41.395   7.012
 4878POPC   C4B62866  16.437  41.336   7.309
 4879POPC   NC362867  37.324  23.784   5.542
 4879POPC   PO462868  37.994  23.848   5.266
 4879POPC   GL162869  37.795  24.006   5.678
 4879POPC   GL262870  37.834  23.688   5.806
 4879POPC   C1A62871  37.547  23.964   6.132
 4879POPC   D2A62872  37.541  23.757   6.556
 4879POPC   C3A62873  37.764  23.824   6.940
 4879POPC   C4A62874  37.556  24.055   7.264
 4879POPC   C1B62875  37.980  23.670   6.237
 4879POPC   C2B62876  37.969  23.325   6.519
 4879POPC   C3B62877  37.923  23.316   6.954
 4879POPC   C4B62878  37.850  23.512   7.367
 4880POPC   NC362879  39.672  15.977   5.529
 4880POPC   PO462880  39.059  16.291   5.462
 4880POPC   GL162881  39.192  15.957   5.752
 4880POPC   GL262882  38.935  15.717   5.795
 4880POPC   C1A62883  39.341  15.850   6.168
 4880POPC   D2A62884  39.277  16.120   6.536
 4880POPC   C3A62885  39.140  16.010   6.943
 4880POPC   C4A62886  39.333  16.001   7.350
 4880POPC   C1B62887  38.923  15.560   6.248
 4880POPC   C2B62888  39.134  15.577   6.679
 4880POPC   C3B62889  39.130  15.551   7.189
 4880POPC   C4B62890  39.034  15.721   7.647
 4881POPC   NC362891  38.174  33.519   5.052
 4881POPC   PO462892  37.746  33.893   5.407
 4881POPC   GL162893  37.691  33.833   5.835
 4881POPC   GL262894  37.359  33.701   5.760
 4881POPC   C1A62895  37.840  33.700   6.247
 4881POPC   D2A62896  37.714  33.856   6.643
 4881POPC   C3A62897  37.962  33.792   6.985
 4881POPC   C4A62898  37.893  33.583   7.377
 4881POPC   C1B62899  37.504  33.376   6.051
 4881POPC   C2B62900  37.494  33.361   6.488
 4881POPC   C3B62901  37.276  33.588   6.797
 4881POPC   C4B62902  37.439  33.724   7.200
 4882POPC   NC362903  34.812  24.639   5.402
 4882POPC   PO462904  34.385  24.190   5.262
 4882POPC   GL162905  34.232  24.235   5.709
 4882POPC   GL262906  34.485  24.475   5.763
 4882POPC   C1A62907  34.396  24.167   6.144
 4882POPC   D2A62908  34.450  24.397   6.561
 4882POPC   C3A62909  34.422  24.204   6.960
 4882POPC   C4A62910  34.352  24.412   7.354
 4882POPC   C1B62911  34.661  24.638   6.167
 4882POPC   C2B62912  34.703  24.835   6.611
 4882POPC   C3B62913  34.644  24.728   7.070
 4882POPC   C4B62914  34.673  24.751   7.561
 4883POPC   NC362915   2.233   2.317   5.293
 4883POPC   PO462916   1.920   2.923   5.272
 4883POPC   GL162917   1.963   2.883   5.771
 4883POPC   GL262918   2.172   2.609   5.803
 4883POPC   C1A62919   1.805   2.704   6.173
 4883POPC   D2A62920   1.906   2.624   6.588
 4883POPC   C3A62921   2.160   2.935   6.721
 4883POPC   C4A62922   2.047   3.144   7.049
 4883POPC   C1B62923   2.334   2.731   6.213
 4883POPC   C2B62924   2.417   2.511   6.599
 4883POPC   C3B62925   2.197   2.537   7.037
 4883POPC   C4B62926   2.032   2.721   7.442
 4884POPC   NC362927  35.495  20.713   5.372
 4884POPC   PO462928  35.006  20.268   5.522
 4884POPC   GL162929  35.213  20.505   5.847
 4884POPC   GL262930  35.297  20.840   5.799
 4884POPC   C1A62931  35.335  20.524   6.278
 4884POPC   D2A62932  35.589  20.523   6.638
 4884POPC   C3A62933  35.350  20.512   7.003
 4884POPC   C4A62934  34.983  20.255   7.097
 4884POPC   C1B62935  35.615  20.926   6.103
 4884POPC   C2B62936  35.554  21.069   6.500
 4884POPC   C3B62937  35.686  20.961   6.890
 4884POPC   C4B62938  35.573  21.065   7.280
 4885POPC   NC362939   2.207  10.710   5.097
 4885POPC   PO462940   1.871  11.271   5.412
 4885POPC   GL162941   1.987  11.331   5.827
 4885POPC   GL262942   2.339  11.366   5.853
 4885POPC   C1A62943   1.836  11.288   6.228
 4885POPC   D2A62944   1.987  11.322   6.619
 4885POPC   C3A62945   1.682  11.317   6.909
 4885POPC   C4A62946   1.989  11.132   7.148
 4885POPC   C1B62947   2.305  11.550   6.252
 4885POPC   C2B62948   2.325  11.717   6.650
 4885POPC   C3B62949   2.118  11.630   7.042
 4885POPC   C4B62950   2.148  11.527   7.455
 4886POPC   NC362951   4.001  13.256   5.202
 4886POPC   PO462952   4.458  12.809   5.401
 4886POPC   GL162953   4.434  12.663   5.833
 4886POPC   GL262954   4.106  12.495   5.792
 4886POPC   C1A62955   4.367  12.893   6.208
 4886POPC   D2A62956   4.396  13.198   6.517
 4886POPC   C3A62957   4.367  12.980   6.863
 4886POPC   C4A62958   4.276  12.996   7.266
 4886POPC   C1B62959   4.186  12.423   6.227
 4886POPC   C2B62960   4.363  12.523   6.610
 4886POPC   C3B62961   4.168  12.555   7.023
 4886POPC   C4B62962   4.076  12.580   7.474
 4887POPC   NC362963  35.194   4.038   5.544
 4887POPC   PO462964  35.618   4.415   5.200
 4887POPC   GL162965  35.560   4.410   5.749
 4887POPC   GL262966  35.275   4.585   5.905
 4887POPC   C1A62967  35.462   4.265   6.245
 4887POPC   D2A62968  35.230   4.283   6.689
 4887POPC   C3A62969  35.451   4.356   7.098
 4887POPC   C4A62970  35.748   4.071   7.309
 4887POPC   C1B62971  35.141   4.658   6.330
 4887POPC   C2B62972  35.126   4.803   6.742
 4887POPC   C3B62973  34.954   4.545   7.057
 4887POPC   C4B62974  35.028   4.508   7.484
 4888POPC   NC362975  19.372  16.304   5.645
 4888POPC   PO462976  19.306  16.804   5.321
 4888POPC   GL162977  19.106  16.827   5.722
 4888POPC   GL262978  18.814  16.615   5.735
 4888POPC   C1A62979  19.171  16.942   6.176
 4888POPC   D2A62980  19.393  17.051   6.581
 4888POPC   C3A62981  19.227  16.948   6.995
 4888POPC   C4A62982  19.059  16.924   7.392
 4888POPC   C1B62983  18.717  16.676   6.207
 4888POPC   C2B62984  18.863  16.805   6.645
 4888POPC   C3B62985  18.675  16.808   7.090
 4888POPC   C4B62986  18.669  16.602   7.537
 4889POPC   NC362987  38.245  35.858   5.626
 4889POPC   PO462988  38.665  35.370   5.437
 4889POPC   GL162989  38.528  35.450   5.854
 4889POPC   GL262990  38.216  35.259   5.797
 4889POPC   C1A62991  38.559  35.302   6.298
 4889POPC   D2A62992  38.741  35.126   6.678
 4889POPC   C3A62993  38.547  35.281   7.037
 4889POPC   C4A62994  38.789  35.547   7.311
 4889POPC   C1B62995  38.147  34.995   6.171
 4889POPC   C2B62996  38.298  34.889   6.592
 4889POPC   C3B62997  38.111  34.979   7.010
 4889POPC   C4B62998  38.163  35.160   7.429
 4890POPC   NC362999   7.224  24.017   5.336
 4890POPC   PO463000   7.740  23.591   5.516
 4890POPC   GL163001   7.427  23.624   5.804
 4890POPC   GL263002   7.312  23.305   5.749
 4890POPC   C1A63003   7.416  23.749   6.234
 4890POPC   D2A63004   7.221  23.779   6.624
 4890POPC   C3A63005   7.497  23.909   6.961
 4890POPC   C4A63006   7.323  23.795   7.352
 4890POPC   C1B63007   7.551  23.240   6.144
 4890POPC   C2B63008   7.706  23.364   6.546
 4890POPC   C3B63009   7.461  23.413   6.921
 4890POPC   C4B63010   7.388  23.246   7.334
 4891POPC   NC363011  18.251  25.157   5.042
 4891POPC   PO463012  17.986  25.553   5.535
 4891POPC   GL163013  18.318  25.282   5.758
 4891POPC   GL263014  18.653  25.101   5.775
 4891POPC   C1A63015  18.315  25.087   6.170
 4891POPC   D2A63016  18.036  25.175   6.521
 4891POPC   C3A63017  18.190  25.389   6.871
 4891POPC   C4A63018  18.150  25.105   7.196
 4891POPC   C1B63019  18.837  24.971   6.165
 4891POPC   C2B63020  18.723  24.893   6.604
 4891POPC   C3B63021  18.633  25.084   7.005
 4891POPC   C4B63022  18.534  25.434   7.290
 4892POPC   NC363023  17.968  20.073   5.069
 4892POPC   PO463024  18.428  19.869   5.542
 4892POPC   GL163025  18.129  19.846   5.848
 4892POPC   GL263026  18.086  19.520   5.870
 4892POPC   C1A63027  18.053  19.967   6.299
 4892POPC   D2A63028  18.345  19.925   6.684
 4892POPC   C3A63029  18.255  20.072   7.094
 4892POPC   C4A63030  18.399  20.475   7.266
 4892POPC   C1B63031  18.458  19.649   6.187
 4892POPC   C2B63032  18.711  19.572   6.538
 4892POPC   C3B63033  18.568  19.509   6.933
 4892POPC   C4B63034  18.468  19.631   7.340
 4893POPC   NC363035  39.468  21.416   5.092
 4893POPC   PO463036  39.089  21.087   5.541
 4893POPC   GL163037  39.247  21.258   5.911
 4893POPC   GL263038  39.489  21.462   5.734
 4893POPC   C1A63039  39.184  21.199   6.362
 4893POPC   D2A63040  38.928  21.390   6.692
 4893POPC   C3A63041  39.175  21.414   7.058
 4893POPC   C4A63042  39.443  21.092   7.216
 4893POPC   C1B63043  39.519  21.631   6.169
 4893POPC   C2B63044  39.425  21.624   6.617
 4893POPC   C3B63045  39.664  21.494   6.983
 4893POPC   C4B63046  39.538  21.513   7.448
 4894POPC   NC363047  10.077  40.561   5.410
 4894POPC   PO463048  10.608  40.895   5.169
 4894POPC   GL163049  10.541  40.888   5.668
 4894POPC   GL263050  10.364  40.590   5.832
 4894POPC   C1A63051  10.577  40.916   6.161
 4894POPC   D2A63052  10.650  40.682   6.563
 4894POPC   C3A63053  10.736  40.891   6.971
 4894POPC   C4A63054  10.424  41.152   7.143
 4894POPC   C1B63055  10.544  40.332   6.187
 4894POPC   C2B63056  10.654  40.183   6.620
 4894POPC   C3B63057  10.361  40.369   6.933
 4894POPC   C4B63058  10.411  40.642   7.287
 4895POPC   NC363059   7.720   1.141   5.622
 4895POPC   PO463060   7.232   1.472   5.230
 4895POPC   GL163061   7.358   1.507   5.715
 4895POPC   GL263062   7.275   1.201   5.865
 4895POPC   C1A63063   7.233   1.578   6.210
 4895POPC   D2A63064   7.051   1.444   6.638
 4895POPC   C3A63065   7.231   1.257   6.998
 4895POPC   C4A63066   7.561   1.069   7.210
 4895POPC   C1B63067   7.321   1.081   6.309
 4895POPC   C2B63068   7.553   1.001   6.689
 4895POPC   C3B63069   7.904   0.788   6.947
 4895POPC   C4B63070   7.914   0.769   7.399
 4896POPC   NC363071  12.937  39.562   5.373
 4896POPC   PO463072  12.920  40.234   5.372
 4896POPC   GL163073  13.096  40.069   5.748
 4896POPC   GL263074  12.901  40.287   5.925
 4896POPC   C1A63075  13.116  39.905   6.194
 4896POPC   D2A63076  12.857  39.795   6.561
 4896POPC   C3A63077  13.055  39.692   6.950
 4896POPC   C4A63078  13.116  40.008   7.224
 4896POPC   C1B63079  12.612  40.130   6.234
 4896POPC   C2B63080  12.405  40.072   6.641
 4896POPC   C3B63081  12.606  40.098   7.049
 4896POPC   C4B63082  12.615  40.350   7.416
 4897POPC   NC363083  18.151   5.328   5.483
 4897POPC   PO463084  18.182   6.067   5.402
 4897POPC   GL163085  18.207   5.763   5.767
 4897POPC   GL263086  17.880   5.568   5.862
 4897POPC   C1A63087  18.198   5.879   6.211
 4897POPC   D2A63088  18.394   6.113   6.536
 4897POPC   C3A63089  18.235   5.979   6.919
 4897POPC   C4A63090  18.518   5.889   7.250
 4897POPC   C1B63091  17.985   5.423   6.290
 4897POPC   C2B63092  18.126   5.516   6.723
 4897POPC   C3B63093  18.139   5.541   7.180
 4897POPC   C4B63094  17.915   5.475   7.585
 4898POPC   NC363095   9.535  35.706   5.406
 4898POPC   PO463096  10.085  35.357   5.436
 4898POPC   GL163097   9.793  35.271   5.777
 4898POPC   GL263098   9.853  34.947   5.938
 4898POPC   C1A63099   9.737  35.469   6.204
 4898POPC   D2A63100   9.997  35.450   6.569
 4898POPC   C3A63101   9.849  35.583   6.962
 4898POPC   C4A63102  10.071  35.642   7.334
 4898POPC   C1B63103   9.533  35.000   6.274
 4898POPC   C2B63104   9.555  35.194   6.720
 4898POPC   C3B63105   9.792  35.104   7.139
 4898POPC   C4B63106   9.631  34.929   7.572
 4899POPC   NC363107  41.724  27.692   5.302
 4899POPC   PO463108  41.031  27.463   5.334
 4899POPC   GL163109  41.235  27.612   5.743
 4899POPC   GL263110  41.531  27.852   5.740
 4899POPC   C1A63111  41.525  27.503   6.127
 4899POPC   D2A63112  41.745  27.336   6.526
 4899POPC   C3A63113  41.618  27.548   6.913
 4899POPC   C4A63114  41.864  27.917   7.128
 4899POPC   C1B63115  41.704  28.005   6.122
 4899POPC   C2B63116  41.569  27.895   6.524
 4899POPC   C3B63117  41.398  28.009   6.917
 4899POPC   C4B63118  41.327  27.788   7.262
 4900POPC   NC363119  28.338   6.099   5.230
 4900POPC   PO463120  27.759   5.876   5.467
 4900POPC   GL163121  28.030   6.117   5.772
 4900POPC   GL263122  28.410   6.156   5.740
 4900POPC   C1A63123  28.143   5.943   6.191
 4900POPC   D2A63124  28.040   5.783   6.637
 4900POPC   C3A63125  28.274   5.817   7.044
 4900POPC   C4A63126  28.333   5.595   7.473
 4900POPC   C1B63127  28.659   5.993   6.100
 4900POPC   C2B63128  28.853   5.894   6.522
 4900POPC   C3B63129  28.862   6.095   6.927
 4900POPC   C4B63130  28.625   6.104   7.298
 4901POPC   NC363131  30.940  10.849   5.406
 4901POPC   PO463132  30.572  10.376   5.376
 4901POPC   GL163133  30.713  10.482   5.749
 4901POPC   GL263134  30.922  10.196   5.768
 4901POPC   C1A63135  30.519  10.633   6.132
 4901POPC   D2A63136  30.689  10.770   6.524
 4901POPC   C3A63137  30.495  10.683   6.911
 4901POPC   C4A63138  30.618  10.549   7.307
 4901POPC   C1B63139  30.752  10.144   6.210
 4901POPC   C2B63140  30.652  10.245   6.647
 4901POPC   C3B63141  30.768  10.111   7.060
 4901POPC   C4B63142  30.677  10.072   7.525
 4902POPC   NC363143   6.627   4.128   5.164
 4902POPC   PO463144   6.336   4.527   5.556
 4902POPC   GL163145   6.516   4.182   5.732
 4902POPC   GL263146   6.746   4.399   5.878
 4902POPC   C1A63147   6.520   4.048   6.176
 4902POPC   D2A63148   6.501   4.295   6.562
 4902POPC   C3A63149   6.478   4.064   6.939
 4902POPC   C4A63150   6.598   4.083   7.367
 4902POPC   C1B63151   6.959   4.642   6.199
 4902POPC   C2B63152   7.019   4.602   6.629
 4902POPC   C3B63153   6.742   4.544   6.997
 4902POPC   C4B63154   7.124   4.562   7.193
 4903POPC   NC363155  41.253  24.657   5.492
 4903POPC   PO463156  40.662  24.413   5.337
 4903POPC   GL163157  40.750  24.312   5.746
 4903POPC   GL263158  40.635  24.630   5.859
 4903POPC   C1A63159  40.634  24.136   6.143
 4903POPC   D2A63160  40.783  24.112   6.570
 4903POPC   C3A63161  40.712  24.371   6.960
 4903POPC   C4A63162  40.796  24.255   7.435
 4903POPC   C1B63163  40.766  24.613   6.303
 4903POPC   C2B63164  41.066  24.602   6.628
 4903POPC   C3B63165  41.082  24.787   7.011
 4903POPC   C4B63166  40.756  24.754   7.330
 4904POPC   NC363167  44.775  14.797   5.596
 4904POPC   PO463168  44.509  15.401   5.386
 4904POPC   GL163169  44.649  15.256   5.802
 4904POPC   GL263170  44.949  15.450   5.897
 4904POPC   C1A63171  44.564  15.315   6.268
 4904POPC   D2A63172  44.716  15.490   6.674
 4904POPC   C3A63173  44.573  15.340   7.069
 4904POPC   C4A63174  44.391  14.913   7.139
 4904POPC   C1B63175  44.979  15.038   6.152
 4904POPC   C2B63176  44.730  14.824   6.464
 4904POPC   C3B63177  44.835  14.768   6.883
 4904POPC   C4B63178   0.076  14.966   7.189
 4905POPC   NC363179  37.503  15.555   5.083
 4905POPC   PO463180  37.754  15.134   5.590
 4905POPC   GL163181  37.797  15.233   5.986
 4905POPC   GL263182  37.542  15.454   5.989
 4905POPC   C1A63183  37.895  15.083   6.383
 4905POPC   D2A63184  37.916  14.813   6.709
 4905POPC   C3A63185  37.847  15.074   7.073
 4905POPC   C4A63186  37.641  15.159   7.459
 4905POPC   C1B63187  37.425  15.258   6.346
 4905POPC   C2B63188  37.543  15.299   6.750
 4905POPC   C3B63189  37.338  15.404   7.124
 4905POPC   C4B63190  37.166  15.358   7.568
 4906POPC   NC363191  38.851  38.993   5.516
 4906POPC   PO463192  38.293  39.400   5.538
 4906POPC   GL163193  38.260  39.074   5.835
 4906POPC   GL263194  38.589  39.186   5.914
 4906POPC   C1A63195  38.232  39.142   6.274
 4906POPC   D2A63196  38.442  39.067   6.644
 4906POPC   C3A63197  38.155  39.055   6.987
 4906POPC   C4A63198  38.157  39.362   7.294
 4906POPC   C1B63199  38.725  38.930   6.208
 4906POPC   C2B63200  39.060  38.930   6.480
 4906POPC   C3B63201  38.940  39.037   6.880
 4906POPC   C4B63202  38.620  39.187   7.142
 4907POPC   NC363203  13.202  20.084   5.137
 4907POPC   PO463204  12.708  19.652   5.463
 4907POPC   GL163205  12.805  19.830   5.832
 4907POPC   GL263206  12.810  19.550   5.957
 4907POPC   C1A63207  12.827  20.031   6.228
 4907POPC   D2A63208  13.039  19.941   6.610
 4907POPC   C3A63209  13.177  20.175   6.974
 4907POPC   C4A63210  13.081  20.019   7.380
 4907POPC   C1B63211  12.600  19.559   6.296
 4907POPC   C2B63212  12.529  19.851   6.630
 4907POPC   C3B63213  12.738  19.833   7.033
 4907POPC   C4B63214  12.688  19.720   7.470
 4908POPC   NC363215   4.702  14.641   5.527
 4908POPC   PO463216   5.042  14.090   5.362
 4908POPC   GL163217   4.950  14.276   5.777
 4908POPC   GL263218   5.182  14.509   5.969
 4908POPC   C1A63219   4.855  14.207   6.224
 4908POPC   D2A63220   4.903  14.477   6.565
 4908POPC   C3A63221   5.269  14.362   6.788
 4908POPC   C4A63222   5.291  14.562   7.167
 4908POPC   C1B63223   5.324  14.051   6.073
 4908POPC   C2B63224   5.431  13.864   6.514
 4908POPC   C3B63225   5.453  13.914   6.998
 4908POPC   C4B63226   5.457  14.065   7.443
 4909POPC   NC363227   3.046  36.648   5.250
 4909POPC   PO463228   3.686  36.543   5.518
 4909POPC   GL163229   3.460  36.706   5.865
 4909POPC   GL263230   3.642  36.999   5.884
 4909POPC   C1A63231   3.384  36.877   6.306
 4909POPC   D2A63232   3.607  37.137   6.617
 4909POPC   C3A63233   3.473  37.188   7.051
 4909POPC   C4A63234   3.119  37.341   7.265
 4909POPC   C1B63235   3.880  36.752   6.183
 4909POPC   C2B63236   3.834  36.642   6.615
 4909POPC   C3B63237   3.897  36.884   6.980
 4909POPC   C4B63238   3.686  36.881   7.395
 4910POPC   NC363239  12.827  19.211   5.446
 4910POPC   PO463240  13.188  18.685   5.470
 4910POPC   GL163241  12.947  18.807   5.811
 4910POPC   GL263242  13.077  19.120   5.888
 4910POPC   C1A63243  12.856  18.803   6.249
 4910POPC   D2A63244  12.998  18.927   6.654
 4910POPC   C3A63245  13.079  18.665   6.967
 4910POPC   C4A63246  12.834  18.833   7.261
 4910POPC   C1B63247  13.053  19.277   6.304
 4910POPC   C2B63248  12.870  19.432   6.693
 4910POPC   C3B63249  12.819  19.316   7.086
 4910POPC   C4B63250  13.065  19.372   7.420
 4911POPC   NC363251  26.285  28.530   5.467
 4911POPC   PO463252  26.066  27.849   5.307
 4911POPC   GL163253  25.962  28.153   5.661
 4911POPC   GL263254  25.922  28.501   5.832
 4911POPC   C1A63255  25.909  28.100   6.122
 4911POPC   D2A63256  25.790  28.005   6.520
 4911POPC   C3A63257  25.862  28.335   6.776
 4911POPC   C4A63258  26.070  28.302   7.173
 4911POPC   C1B63259  26.065  28.618   6.281
 4911POPC   C2B63260  26.258  28.642   6.725
 4911POPC   C3B63261  26.525  28.524   7.087
 4911POPC   C4B63262  26.412  28.503   7.521
 4912POPC   NC363263  18.003  35.338   5.196
 4912POPC   PO463264  17.361  35.340   5.310
 4912POPC   GL163265  17.381  35.233   5.763
 4912POPC   GL263266  17.733  35.177   5.758
 4912POPC   C1A63267  17.361  35.460   6.205
 4912POPC   D2A63268  17.343  35.304   6.637
 4912POPC   C3A63269  17.158  35.545   6.965
 4912POPC   C4A63270  17.388  35.545   7.341
 4912POPC   C1B63271  17.685  35.078   6.222
 4912POPC   C2B63272  17.734  34.969   6.681
 4912POPC   C3B63273  17.647  35.136   7.108
 4912POPC   C4B63274  17.821  35.310   7.535
 4913POPC   NC363275  40.789  14.202   5.388
 4913POPC   PO463276  40.369  14.755   5.440
 4913POPC   GL163277  40.628  14.591   5.793
 4913POPC   GL263278  40.989  14.578   5.762
 4913POPC   C1A63279  40.761  14.621   6.249
 4913POPC   D2A63280  40.827  14.753   6.694
 4913POPC   C3A63281  40.641  14.421   6.980
 4913POPC   C4A63282  40.665  14.033   7.277
 4913POPC   C1B63283  41.263  14.639   6.137
 4913POPC   C2B63284  41.353  14.684   6.581
 4913POPC   C3B63285  41.214  14.567   6.995
 4913POPC   C4B63286  40.998  14.439   7.369
 4914POPC   NC363287  22.033  12.902   5.410
 4914POPC   PO463288  22.569  12.452   5.375
 4914POPC   GL163289  22.264  12.565   5.737
 4914POPC   GL263290  21.897  12.424   5.770
 4914POPC   C1A63291  22.246  12.896   6.107
 4914POPC   D2A63292  22.407  12.884   6.545
 4914POPC   C3A63293  22.222  13.023   6.955
 4914POPC   C4A63294  21.798  13.116   7.101
 4914POPC   C1B63295  21.819  12.606   6.202
 4914POPC   C2B63296  21.901  12.775   6.656
 4914POPC   C3B63297  21.927  12.605   7.112
 4914POPC   C4B63298  21.882  12.426   7.581
 4915POPC   NC363299  39.693  43.465   5.610
 4915POPC   PO463300  39.257  42.941   5.484
 4915POPC   GL163301  39.471  43.032   5.851
 4915POPC   GL263302  39.296  43.336   5.910
 4915POPC   C1A63303  39.283  42.846   6.192
 4915POPC   D2A63304  39.032  42.891   6.540
 4915POPC   C3A63305  39.205  43.052   6.899
 4915POPC   C4A63306  39.508  42.835   7.080
 4915POPC   C1B63307  38.953  43.256   6.184
 4915POPC   C2B63308  38.906  43.412   6.610
 4915POPC   C3B63309  38.844  43.357   7.074
 4915POPC   C4B63310  39.119  43.418   7.421
 4916POPC   NC363311  16.743  34.256   5.376
 4916POPC   PO463312  16.573  34.791   5.588
 4916POPC   GL163313  16.669  34.525   5.909
 4916POPC   GL263314  16.539  34.177   5.846
 4916POPC   C1A63315  16.672  34.697   6.346
 4916POPC   D2A63316  16.366  34.777   6.704
 4916POPC   C3A63317  16.584  34.812   7.071
 4916POPC   C4A63318  16.923  34.514   7.080
 4916POPC   C1B63319  16.606  34.188   6.303
 4916POPC   C2B63320  16.625  34.324   6.726
 4916POPC   C3B63321  16.427  34.329   7.143
 4916POPC   C4B63322  16.378  34.174   7.562
 4917POPC   NC363323   9.134  43.045   5.347
 4917POPC   PO463324   8.953  43.579   5.380
 4917POPC   GL163325   8.930  43.306   5.775
 4917POPC   GL263326   9.235  43.239   5.943
 4917POPC   C1A63327   8.816  43.159   6.226
 4917POPC   D2A63328   8.836  43.216   6.708
 4917POPC   C3A63329   8.792  42.893   7.055
 4917POPC   C4A63330   8.963  42.659   7.414
 4917POPC   C1B63331   9.275  43.346   6.381
 4917POPC   C2B63332   9.335  43.124   6.786
 4917POPC   C3B63333   9.241  43.075   7.244
 4917POPC   C4B63334   9.291  43.143   7.711
 4918POPC   NC363335  18.082  24.244   5.413
 4918POPC   PO463336  18.377  24.884   5.395
 4918POPC   GL163337  18.328  24.698   5.804
 4918POPC   GL263338  18.425  24.362   5.784
 4918POPC   C1A63339  18.510  24.590   6.221
 4918POPC   D2A63340  18.551  24.407   6.625
 4918POPC   C3A63341  18.288  24.670   6.859
 4918POPC   C4A63342  18.130  24.591   7.243
 4918POPC   C1B63343  18.117  24.257   6.099
 4918POPC   C2B63344  18.044  24.263   6.527
 4918POPC   C3B63345  18.099  24.162   6.943
 4918POPC   C4B63346  18.448  24.100   7.218
 4919POPC   NC363347  21.403   1.569   5.340
 4919POPC   PO463348  21.741   1.011   5.505
 4919POPC   GL163349  21.550   1.105   5.909
 4919POPC   GL263350  21.211   0.977   6.033
 4919POPC   C1A63351  21.569   1.099   6.350
 4919POPC   D2A63352  21.302   1.152   6.656
 4919POPC   C3A63353  21.552   1.148   7.009
 4919POPC   C4A63354  21.582   1.163   7.451
 4919POPC   C1B63355  21.200   1.423   6.217
 4919POPC   C2B63356  21.105   1.671   6.552
 4919POPC   C3B63357  21.100   1.532   6.919
 4919POPC   C4B63358  21.110   1.231   7.225
 4920POPC   NC363359   2.783   7.488   5.360
 4920POPC   PO463360   2.252   6.997   5.608
 4920POPC   GL163361   2.440   7.292   5.866
 4920POPC   GL263362   2.543   7.632   5.787
 4920POPC   C1A63363   2.630   7.198   6.266
 4920POPC   D2A63364   2.450   7.139   6.676
 4920POPC   C3A63365   2.724   7.183   7.005
 4920POPC   C4A63366   2.690   7.585   7.165
 4920POPC   C1B63367   2.891   7.626   6.131
 4920POPC   C2B63368   2.848   7.552   6.588
 4920POPC   C3B63369   3.130   7.500   6.923
 4920POPC   C4B63370   3.175   7.739   7.281
 4921POPC   NC363371  33.395  22.986   5.235
 4921POPC   PO463372  32.809  23.284   5.513
 4921POPC   GL163373  33.005  23.030   5.818
 4921POPC   GL263374  33.154  22.702   5.700
 4921POPC   C1A63375  32.833  22.833   6.164
 4921POPC   D2A63376  32.928  23.098   6.463
 4921POPC   C3A63377  32.787  23.035   6.844
 4921POPC   C4A63378  32.953  23.252   7.200
 4921POPC   C1B63379  33.309  22.653   6.148
 4921POPC   C2B63380  33.133  22.668   6.600
 4921POPC   C3B63381  33.201  22.816   7.041
 4921POPC   C4B63382  33.324  22.593   7.409
 4922POPC   NC363383  29.276  36.581   5.305
 4922POPC   PO463384  29.184  37.232   5.415
 4922POPC   GL163385  29.133  36.939   5.763
 4922POPC   GL263386  29.342  36.657   5.815
 4922POPC   C1A63387  29.219  36.959   6.229
 4922POPC   D2A63388  29.202  37.191   6.633
 4922POPC   C3A63389  28.824  37.047   6.816
 4922POPC   C4A63390  28.712  37.011   7.215
 4922POPC   C1B63391  29.627  36.644   6.182
 4922POPC   C2B63392  29.569  36.466   6.596
 4922POPC   C3B63393  29.550  36.665   7.002
 4922POPC   C4B63394  29.235  36.953   7.159
 4923POPC   NC363395   1.415  10.480   5.411
 4923POPC   PO463396   0.815  10.710   5.765
 4923POPC   GL163397   1.130  10.414   5.837
 4923POPC   GL263398   1.498  10.409   5.937
 4923POPC   C1A63399   1.132  10.311   6.271
 4923POPC   D2A63400   1.227  10.156   6.661
 4923POPC   C3A63401   1.128  10.368   7.006
 4923POPC   C4A63402   1.193  10.830   7.055
 4923POPC   C1B63403   1.606  10.495   6.402
 4923POPC   C2B63404   1.787  10.813   6.716
 4923POPC   C3B63405   1.688  10.731   7.149
 4923POPC   C4B63406   1.557  10.325   7.259
 4924POPC   NC363407  41.640  14.249   5.087
 4924POPC   PO463408  41.522  13.613   5.304
 4924POPC   GL163409  41.570  13.487   5.759
 4924POPC   GL263410  41.378  13.182   5.879
 4924POPC   C1A63411  41.483  13.587   6.214
 4924POPC   D2A63412  41.251  13.734   6.589
 4924POPC   C3A63413  41.429  13.641   6.985
 4924POPC   C4A63414  41.533  13.734   7.398
 4924POPC   C1B63415  41.128  13.223   6.294
 4924POPC   C2B63416  41.187  13.247   6.764
 4924POPC   C3B63417  41.285  13.229   7.240
 4924POPC   C4B63418  41.613  13.254   7.590
 4925POPC   NC363419   3.329  44.300   5.349
 4925POPC   PO463420   3.818  44.860   5.397
 4925POPC   GL163421   3.617  44.603   5.724
 4925POPC   GL263422   3.244  44.605   5.776
 4925POPC   C1A63423   3.551  44.648   6.183
 4925POPC   D2A63424   3.231  44.576   6.515
 4925POPC   C3A63425   3.498  44.608   6.844
 4925POPC   C4A63426   3.590  44.663   7.249
 4925POPC   C1B63427   3.127  44.903   6.123
 4925POPC   C2B63428   3.278   0.069   6.560
 4925POPC   C3B63429   3.186  44.958   7.004
 4925POPC   C4B63430   3.232  44.921   7.504
 4926POPC   NC363431  38.924  25.553   5.554
 4926POPC   PO463432  38.977  24.934   5.240
 4926POPC   GL163433  39.313  25.048   5.626
 4926POPC   GL263434  39.477  25.341   5.773
 4926POPC   C1A63435  39.330  25.074   6.153
 4926POPC   D2A63436  39.113  25.177   6.579
 4926POPC   C3A63437  39.323  25.140   7.030
 4926POPC   C4A63438  39.048  24.936   7.377
 4926POPC   C1B63439  39.280  25.599   6.108
 4926POPC   C2B63440  39.069  25.687   6.463
 4926POPC   C3B63441  39.200  25.618   6.858
 4926POPC   C4B63442  39.050  25.708   7.238
 4927POPC   NC363443  44.091  11.352   5.252
 4927POPC   PO463444  43.480  11.408   5.431
 4927POPC   GL163445  43.864  11.478   5.699
 4927POPC   GL263446  44.222  11.633   5.670
 4927POPC   C1A63447  44.039  11.273   6.043
 4927POPC   D2A63448  43.833  11.385   6.400
 4927POPC   C3A63449  43.850  11.347   6.821
 4927POPC   C4A63450  43.787  11.152   7.174
 4927POPC   C1B63451  44.229  11.736   6.145
 4927POPC   C2B63452  44.244  11.615   6.591
 4927POPC   C3B63453  44.292  11.539   7.019
 4927POPC   C4B63454  44.373  11.771   7.411
 4928POPC   NC363455  14.621  35.629   5.451
 4928POPC   PO463456  14.125  35.158   5.543
 4928POPC   GL163457  14.268  35.461   5.841
 4928POPC   GL263458  14.619  35.384   5.919
 4928POPC   C1A63459  14.321  35.491   6.310
 4928POPC   D2A63460  14.643  35.363   6.632
 4928POPC   C3A63461  14.457  35.447   7.046
 4928POPC   C4A63462  14.059  35.399   7.329
 4928POPC   C1B63463  14.794  35.701   6.236
 4928POPC   C2B63464  14.941  35.792   6.674
 4928POPC   C3B63465  14.823  35.828   7.112
 4928POPC   C4B63466  14.983  35.778   7.517
 4929POPC   NC363467   0.913   0.035   5.647
 4929POPC   PO463468   0.861  44.401   5.488
 4929POPC   GL163469   0.968  44.570   5.899
 4929POPC   GL263470   1.323  44.662   5.919
 4929POPC   C1A63471   1.071  44.555   6.350
 4929POPC   D2A63472   0.909  44.364   6.718
 4929POPC   C3A63473   1.133  44.511   7.065
 4929POPC   C4A63474   1.280  44.688   7.416
 4929POPC   C1B63475   1.404  44.966   6.267
 4929POPC   C2B63476   1.353  44.857   6.696
 4929POPC   C3B63477   1.382   0.048   7.076
 4929POPC   C4B63478   1.672   0.060   7.394
 4930POPC   NC363479   0.091  43.619   5.599
 4930POPC   PO463480  44.727  43.137   5.348
 4930POPC   GL163481  44.602  43.234   5.797
 4930POPC   GL263482  44.300  42.972   5.869
 4930POPC   C1A63483  44.934  43.329   6.186
 4930POPC   D2A63484   0.019  43.083   6.604
 4930POPC   C3A63485   0.041  43.213   7.084
 4930POPC   C4A63486  44.936  43.567   7.409
 4930POPC   C1B63487  44.593  42.974   6.253
 4930POPC   C2B63488  44.578  42.858   6.689
 4930POPC   C3B63489  44.582  42.977   7.116
 4930POPC   C4B63490  44.629  42.769   7.498
 4931POPC   NC363491   0.338  30.115   5.337
 4931POPC   PO463492   0.806  29.682   5.336
 4931POPC   GL163493   0.553  29.866   5.763
 4931POPC   GL263494   0.178  29.972   5.795
 4931POPC   C1A63495   0.448  30.020   6.238
 4931POPC   D2A63496   0.778  30.228   6.557
 4931POPC   C3A63497   0.753  30.227   7.001
 4931POPC   C4A63498   0.456  30.080   7.322
 4931POPC   C1B63499  44.960  30.159   6.163
 4931POPC   C2B63500   0.007  30.051   6.627
 4931POPC   C3B63501   0.154  29.813   7.008
 4931POPC   C4B63502   0.457  29.573   7.285
 4932POPC   NC363503  35.634  30.500   5.387
 4932POPC   PO463504  35.061  30.872   5.475
 4932POPC   GL163505  35.172  30.857   5.903
 4932POPC   GL263506  35.477  30.657   5.849
 4932POPC   C1A63507  35.055  30.736   6.348
 4932POPC   D2A63508  35.334  30.616   6.714
 4932POPC   C3A63509  35.216  30.763   7.115
 4932POPC   C4A63510  35.091  30.787   7.549
 4932POPC   C1B63511  35.565  30.790   6.264
 4932POPC   C2B63512  35.819  30.740   6.608
 4932POPC   C3B63513  35.788  30.574   7.017
 4932POPC   C4B63514  35.666  30.799   7.351
 4933POPC   NC363515  14.687  30.644   5.402
 4933POPC   PO463516  14.063  30.631   5.494
 4933POPC   GL163517  14.255  30.794   5.856
 4933POPC   GL263518  14.619  30.913   5.851
 4933POPC   C1A63519  14.258  30.641   6.288
 4933POPC   D2A63520  14.144  30.539   6.706
 4933POPC   C3A63521  14.424  30.698   7.030
 4933POPC   C4A63522  14.356  30.812   7.465
 4933POPC   C1B63523  14.730  30.542   6.128
 4933POPC   C2B63524  14.719  30.342   6.545
 4933POPC   C3B63525  14.856  30.436   6.998
 4933POPC   C4B63526  14.642  30.423   7.421
 4934POPC   NC363527  21.853  39.209   5.450
 4934POPC   PO463528  22.461  38.846   5.542
 4934POPC   GL163529  22.129  38.988   5.841
 4934POPC   GL263530  22.098  39.349   5.882
 4934POPC   C1A63531  21.880  38.974   6.235
 4934POPC   D2A63532  21.777  39.136   6.668
 4934POPC   C3A63533  22.083  39.108   7.029
 4934POPC   C4A63534  22.129  39.049   7.483
 4934POPC   C1B63535  22.260  39.348   6.306
 4934POPC   C2B63536  22.174  39.530   6.714
 4934POPC   C3B63537  22.443  39.484   7.088
 4934POPC   C4B63538  22.608  39.074   7.004
 4935POPC   NC363539  18.028  42.702   5.434
 4935POPC   PO463540  17.770  43.294   5.363
 4935POPC   GL163541  17.758  43.220   5.818
 4935POPC   GL263542  17.747  42.868   5.820
 4935POPC   C1A63543  17.579  43.126   6.278
 4935POPC   D2A63544  17.368  43.161   6.718
 4935POPC   C3A63545  17.569  43.292   7.115
 4935POPC   C4A63546  17.559  43.114   7.523
 4935POPC   C1B63547  17.871  42.708   6.195
 4935POPC   C2B63548  17.626  42.726   6.634
 4935POPC   C3B63549  17.495  42.772   7.090
 4935POPC   C4B63550  17.715  42.642   7.507
 4936POPC   NC363551  29.707  35.068   5.461
 4936POPC   PO463552  30.205  35.473   5.244
 4936POPC   GL163553  29.926  35.514   5.679
 4936POPC   GL263554  29.994  35.222   5.900
 4936POPC   C1A63555  29.782  35.631   6.162
 4936POPC   D2A63556  29.874  35.370   6.568
 4936POPC   C3A63557  29.855  35.462   7.041
 4936POPC   C4A63558  29.978  35.213   7.418
 4936POPC   C1B63559  29.623  35.154   6.152
 4936POPC   C2B63560  29.431  35.066   6.569
 4936POPC   C3B63561  29.603  35.018   6.980
 4936POPC   C4B63562  29.478  35.066   7.409
 4937POPC   NC363563  44.294  41.521   5.476
 4937POPC   PO463564  43.658  41.695   5.414
 4937POPC   GL163565  43.875  41.670   5.803
 4937POPC   GL263566  43.729  41.369   6.001
 4937POPC   C1A63567  43.804  41.840   6.210
 4937POPC   D2A63568  43.769  41.575   6.547
 4937POPC   C3A63569  43.717  41.777   6.919
 4937POPC   C4A63570  43.706  41.475   7.257
 4937POPC   C1B63571  44.156  41.448   6.193
 4937POPC   C2B63572  44.322  41.505   6.612
 4937POPC   C3B63573  44.163  41.538   7.036
 4937POPC   C4B63574  44.164  41.492   7.494
 4938POPC   NC363575  35.979  43.666   5.580
 4938POPC   PO463576  36.545  43.947   5.439
 4938POPC   GL163577  36.294  43.983   5.857
 4938POPC   GL263578  35.939  44.091   5.867
 4938POPC   C1A63579  36.304  43.667   6.222
 4938POPC   D2A63580  36.402  43.620   6.673
 4938POPC   C3A63581  36.302  44.019   6.869
 4938POPC   C4A63582  36.177  44.155   7.262
 4938POPC   C1B63583  36.030  44.100   6.332
 4938POPC   C2B63584  35.900  43.790   6.644
 4938POPC   C3B63585  35.988  43.625   7.045
 4938POPC   C4B63586  35.937  43.748   7.465
 4939POPC   NC363587  37.983  26.943   5.395
 4939POPC   PO463588  37.313  26.735   5.275
 4939POPC   GL163589  37.562  26.772   5.694
 4939POPC   GL263590  37.836  26.524   5.773
 4939POPC   C1A63591  37.810  26.938   6.084
 4939POPC   D2A63592  37.889  26.762   6.524
 4939POPC   C3A63593  37.816  27.093   6.837
 4939POPC   C4A63594  37.865  27.215   7.259
 4939POPC   C1B63595  37.518  26.544   6.167
 4939POPC   C2B63596  37.378  26.837   6.523
 4939POPC   C3B63597  37.451  26.751   6.958
 4939POPC   C4B63598  37.840  26.632   7.116
 4940POPC   NC363599  24.916   9.150   5.208
 4940POPC   PO463600  24.248   8.937   5.226
 4940POPC   GL163601  24.531   8.918   5.617
 4940POPC   GL263602  24.288   8.796   5.799
 4940POPC   C1A63603  24.703   8.864   6.080
 4940POPC   D2A63604  24.874   8.911   6.512
 4940POPC   C3A63605  24.662   8.854   6.919
 4940POPC   C4A63606  24.828   8.762   7.294
 4940POPC   C1B63607  24.262   9.102   6.133
 4940POPC   C2B63608  24.322   9.058   6.573
 4940POPC   C3B63609  24.237   9.132   7.014
 4940POPC   C4B63610  24.203   8.739   7.242
 4941POPC   NC363611  10.586   8.832   5.345
 4941POPC   PO463612  10.350   9.441   5.509
 4941POPC   GL163613  10.424   9.071   5.802
 4941POPC   GL263614  10.733   9.009   5.829
 4941POPC   C1A63615  10.319   8.964   6.231
 4941POPC   D2A63616  10.511   8.868   6.641
 4941POPC   C3A63617  10.331   8.740   7.058
 4941POPC   C4A63618  10.509   8.900   7.438
 4941POPC   C1B63619  10.827   9.064   6.275
 4941POPC   C2B63620  10.838   9.287   6.685
 4941POPC   C3B63621  10.810   9.295   7.150
 4941POPC   C4B63622  10.852   9.244   7.630
 4942POPC   NC363623  38.411   6.997   5.429
 4942POPC   PO463624  38.114   6.343   5.302
 4942POPC   GL163625  38.358   6.536   5.638
 4942POPC   GL263626  38.100   6.766   5.790
 4942POPC   C1A63627  38.512   6.662   6.065
 4942POPC   D2A63628  38.383   6.559   6.501
 4942POPC   C3A63629  38.615   6.774   6.816
 4942POPC   C4A63630  38.644   6.676   7.250
 4942POPC   C1B63631  38.094   6.920   6.258
 4942POPC   C2B63632  38.144   6.976   6.712
 4942POPC   C3B63633  38.148   6.695   7.062
 4942POPC   C4B63634  38.219   6.788   7.496
 4943POPC   NC363635  24.994  33.751   5.555
 4943POPC   PO463636  25.499  34.132   5.330
 4943POPC   GL163637  25.438  33.959   5.760
 4943POPC   GL263638  25.431  33.610   5.759
 4943POPC   C1A63639  25.300  34.005   6.198
 4943POPC   D2A63640  25.012  33.886   6.555
 4943POPC   C3A63641  25.164  34.009   6.956
 4943POPC   C4A63642  25.519  33.793   7.067
 4943POPC   C1B63643  25.142  33.523   6.157
 4943POPC   C2B63644  25.030  33.360   6.628
 4943POPC   C3B63645  25.091  33.500   7.106
 4943POPC   C4B63646  25.336  33.496   7.514
 4944POPC   NC363647  35.701  18.014   5.359
 4944POPC   PO463648  36.257  17.702   5.228
 4944POPC   GL163649  36.436  17.873   5.701
 4944POPC   GL263650  36.358  18.245   5.757
 4944POPC   C1A63651  36.253  17.979   6.189
 4944POPC   D2A63652  35.896  18.232   6.440
 4944POPC   C3A63653  35.928  18.262   6.906
 4944POPC   C4A63654  35.990  18.005   7.282
 4944POPC   C1B63655  36.255  18.509   6.159
 4944POPC   C2B63656  36.372  18.369   6.575
 4944POPC   C3B63657  36.394  18.050   6.894
 4944POPC   C4B63658  36.351  18.379   7.190
 4945POPC   NC363659  34.351  17.247   5.492
 4945POPC   PO463660  34.620  17.814   5.151
 4945POPC   GL163661  34.717  17.644   5.602
 4945POPC   GL263662  34.493  17.859   5.788
 4945POPC   C1A63663  34.728  17.489   6.072
 4945POPC   D2A63664  34.459  17.459   6.470
 4945POPC   C3A63665  34.662  17.399   6.902
 4945POPC   C4A63666  34.678  17.172   7.312
 4945POPC   C1B63667  34.603  17.961   6.234
 4945POPC   C2B63668  34.573  17.907   6.688
 4945POPC   C3B63669  34.358  17.805   7.054
 4945POPC   C4B63670  34.630  17.660   7.412
 4946POPC   NC363671   2.443  40.794   5.076
 4946POPC   PO463672   1.882  40.675   5.496
 4946POPC   GL163673   2.024  40.881   5.831
 4946POPC   GL263674   2.149  40.546   5.921
 4946POPC   C1A63675   2.157  40.940   6.272
 4946POPC   D2A63676   2.011  40.721   6.638
 4946POPC   C3A63677   2.081  40.934   7.024
 4946POPC   C4A63678   2.045  40.946   7.474
 4946POPC   C1B63679   1.758  40.508   6.173
 4946POPC   C2B63680   1.543  40.439   6.585
 4946POPC   C3B63681   1.741  40.434   6.985
 4946POPC   C4B63682   2.055  40.477   7.283
 4947POPC   NC363683   5.939  13.260   5.261
 4947POPC   PO463684   6.280  12.880   5.619
 4947POPC   GL163685   5.883  12.854   5.787
 4947POPC   GL263686   5.715  13.167   5.738
 4947POPC   C1A63687   5.911  12.769   6.217
 4947POPC   D2A63688   6.131  12.942   6.573
 4947POPC   C3A63689   6.233  12.774   6.997
 4947POPC   C4A63690   6.025  12.927   7.395
 4947POPC   C1B63691   5.558  13.127   6.145
 4947POPC   C2B63692   5.571  12.912   6.564
 4947POPC   C3B63693   5.716  12.993   6.968
 4947POPC   C4B63694   5.709  13.360   7.196
 4948POPC   NC363695  25.631  35.773   5.274
 4948POPC   PO463696  25.404  35.122   5.329
 4948POPC   GL163697  25.381  35.420   5.607
 4948POPC   GL263698  25.086  35.289   5.748
 4948POPC   C1A63699  25.415  35.550   6.044
 4948POPC   D2A63700  25.451  35.728   6.449
 4948POPC   C3A63701  25.244  35.630   6.831
 4948POPC   C4A63702  25.304  35.620   7.274
 4948POPC   C1B63703  25.304  35.066   6.092
 4948POPC   C2B63704  25.411  35.210   6.499
 4948POPC   C3B63705  25.284  35.126   6.923
 4948POPC   C4B63706  25.496  34.896   7.227
 4949POPC   NC363707  23.218  29.500   5.143
 4949POPC   PO463708  22.837  29.238   5.634
 4949POPC   GL163709  23.111  29.031   5.929
 4949POPC   GL263710  23.041  28.739   5.768
 4949POPC   C1A63711  23.163  29.240   6.328
 4949POPC   D2A63712  22.838  29.420   6.580
 4949POPC   C3A63713  22.980  29.428   6.978
 4949POPC   C4A63714  22.756  29.299   7.330
 4949POPC   C1B63715  22.771  28.796   6.210
 4949POPC   C2B63716  22.904  28.906   6.640
 4949POPC   C3B63717  22.934  28.910   7.062
 4949POPC   C4B63718  22.731  28.814   7.455
 4950POPC   NC363719  16.089  20.005   5.416
 4950POPC   PO463720  16.090  19.266   5.455
 4950POPC   GL163721  15.982  19.604   5.714
 4950POPC   GL263722  16.298  19.749   5.839
 4950POPC   C1A63723  15.847  19.779   6.104
 4950POPC   D2A63724  16.076  19.743   6.502
 4950POPC   C3A63725  15.829  19.898   6.810
 4950POPC   C4A63726  15.645  19.756   7.146
 4950POPC   C1B63727  16.286  20.087   6.167
 4950POPC   C2B63728  16.240  20.236   6.621
 4950POPC   C3B63729  16.258  20.016   7.031
 4950POPC   C4B63730  16.241  20.104   7.516
 4951POPC   NC363731  44.474   3.367   5.050
 4951POPC   PO463732  44.980   3.304   5.538
 4951POPC   GL163733  44.981   3.316   5.937
 4951POPC   GL263734  44.837   3.653   5.913
 4951POPC   C1A63735  44.854   3.377   6.362
 4951POPC   D2A63736  44.836   3.750   6.635
 4951POPC   C3A63737  44.803   3.596   7.040
 4951POPC   C4A63738   0.053   3.357   7.260
 4951POPC   C1B63739  44.507   3.705   6.221
 4951POPC   C2B63740  44.295   3.792   6.581
 4951POPC   C3B63741  44.463   3.967   6.955
 4951POPC   C4B63742  44.403   3.751   7.358
 4952POPC   NC363743  30.314  37.810   5.547
 4952POPC   PO463744  29.675  37.739   5.381
 4952POPC   GL163745  29.839  37.798   5.779
 4952POPC   GL263746  29.643  38.103   5.830
 4952POPC   C1A63747  30.032  37.572   6.171
 4952POPC   D2A63748  30.146  37.410   6.626
 4952POPC   C3A63749  29.931  37.597   7.042
 4952POPC   C4A63750  30.016  37.935   7.384
 4952POPC   C1B63751  29.814  38.045   6.218
 4952POPC   C2B63752  29.882  37.864   6.599
 4952POPC   C3B63753  29.680  38.059   6.928
 4952POPC   C4B63754  29.515  37.911   7.290
 4953POPC   NC363755  37.135  27.059   5.562
 4953POPC   PO463756  37.090  27.709   5.321
 4953POPC   GL163757  36.896  27.603   5.726
 4953POPC   GL263758  36.793  27.271   5.878
 4953POPC   C1A63759  37.022  27.726   6.131
 4953POPC   D2A63760  37.264  27.841   6.483
 4953POPC   C3A63761  37.087  27.900   6.893
 4953POPC   C4A63762  37.076  27.619   7.216
 4953POPC   C1B63763  36.859  27.288   6.364
 4953POPC   C2B63764  36.823  27.493   6.761
 4953POPC   C3B63765  36.565  27.633   7.120
 4953POPC   C4B63766  36.452  27.408   7.508
 4954POPC   NC363767  23.489  34.895   5.559
 4954POPC   PO463768  23.882  34.560   5.124
 4954POPC   GL163769  23.939  34.648   5.623
 4954POPC   GL263770  23.675  34.489   5.839
 4954POPC   C1A63771  23.892  34.874   6.098
 4954POPC   D2A63772  23.726  34.866   6.584
 4954POPC   C3A63773  23.905  34.786   7.031
 4954POPC   C4A63774  24.116  34.372   7.210
 4954POPC   C1B63775  23.866  34.380   6.262
 4954POPC   C2B63776  23.874  34.374   6.737
 4954POPC   C3B63777  23.612  34.365   7.141
 4954POPC   C4B63778  23.500  34.291   7.594
 4955POPC   NC363779  38.954  26.767   5.546
 4955POPC   PO463780  38.292  26.590   5.366
 4955POPC   GL163781  38.327  26.763   5.771
 4955POPC   GL263782  38.620  26.590   5.888
 4955POPC   C1A63783  38.321  26.851   6.213
 4955POPC   D2A63784  38.379  26.615   6.574
 4955POPC   C3A63785  38.277  26.847   6.917
 4955POPC   C4A63786  38.394  27.119   7.238
 4955POPC   C1B63787  38.774  26.488   6.280
 4955POPC   C2B63788  38.876  26.552   6.729
 4955POPC   C3B63789  38.758  26.592   7.169
 4955POPC   C4B63790  38.668  26.342   7.558
 4956POPC   NC363791  24.715   5.803   5.220
 4956POPC   PO463792  24.267   5.654   5.640
 4956POPC   GL163793  24.510   5.653   5.954
 4956POPC   GL263794  24.579   6.003   5.906
 4956POPC   C1A63795  24.391   5.706   6.390
 4956POPC   D2A63796  24.100   6.009   6.620
 4956POPC   C3A63797  24.255   6.070   7.031
 4956POPC   C4A63798  24.493   5.707   7.133
 4956POPC   C1B63799  24.787   6.027   6.305
 4956POPC   C2B63800  24.690   6.081   6.748
 4956POPC   C3B63801  24.810   6.143   7.195
 4956POPC   C4B63802  25.039   6.188   7.621
 4957POPC   NC363803  24.858  10.812   5.451
 4957POPC   PO463804  25.269  10.337   5.392
 4957POPC   GL163805  25.147  10.529   5.799
 4957POPC   GL263806  25.485  10.432   5.890
 4957POPC   C1A63807  25.109  10.700   6.248
 4957POPC   D2A63808  24.866  10.688   6.649
 4957POPC   C3A63809  25.078  10.587   7.024
 4957POPC   C4A63810  25.230  10.886   7.262
 4957POPC   C1B63811  25.380  10.273   6.286
 4957POPC   C2B63812  25.407  10.530   6.649
 4957POPC   C3B63813  25.621  10.516   7.035
 4957POPC   C4B63814  25.763  10.153   7.278
 4958POPC   NC363815  10.731   2.921   4.994
 4958POPC   PO463816  10.211   2.857   5.513
 4958POPC   GL163817  10.431   2.965   5.852
 4958POPC   GL263818  10.150   3.100   6.002
 4958POPC   C1A63819  10.646   2.753   6.163
 4958POPC   D2A63820  10.484   2.465   6.469
 4958POPC   C3A63821  10.588   2.496   6.901
 4958POPC   C4A63822  10.338   2.569   7.242
 4958POPC   C1B63823  10.223   2.912   6.408
 4958POPC   C2B63824  10.609   2.944   6.638
 4958POPC   C3B63825  10.613   3.076   7.040
 4958POPC   C4B63826  10.345   3.073   7.382
 4959POPC   NC363827   9.443  25.687   5.440
 4959POPC   PO463828   9.898  25.144   5.390
 4959POPC   GL163829   9.747  25.349   5.738
 4959POPC   GL263830   9.454  25.217   5.791
 4959POPC   C1A63831   9.917  25.246   6.165
 4959POPC   D2A63832  10.024  24.960   6.521
 4959POPC   C3A63833   9.984  25.115   6.977
 4959POPC   C4A63834   9.874  25.303   7.419
 4959POPC   C1B63835   9.414  25.346   6.204
 4959POPC   C2B63836   9.644  25.299   6.603
 4959POPC   C3B63837   9.521  25.382   7.012
 4959POPC   C4B63838   9.343  25.242   7.361
 4960POPC   NC363839  16.854  20.399   5.373
 4960POPC   PO463840  16.708  21.002   5.663
 4960POPC   GL163841  16.655  20.551   5.851
 4960POPC   GL263842  16.982  20.356   5.868
 4960POPC   C1A63843  16.679  20.431   6.308
 4960POPC   D2A63844  16.812  20.786   6.592
 4960POPC   C3A63845  16.643  20.763   6.995
 4960POPC   C4A63846  16.471  20.428   7.188
 4960POPC   C1B63847  17.129  20.668   6.162
 4960POPC   C2B63848  17.338  20.750   6.564
 4960POPC   C3B63849  17.172  20.674   6.959
 4960POPC   C4B63850  16.978  20.416   7.254
 4961POPC   NC363851   2.351  39.179   5.129
 4961POPC   PO463852   1.795  39.317   5.569
 4961POPC   GL163853   1.856  39.124   5.930
 4961POPC   GL263854   2.134  38.944   5.827
 4961POPC   C1A63855   1.922  38.908   6.324
 4961POPC   D2A63856   1.996  38.859   6.771
 4961POPC   C3A63857   1.829  39.156   7.040
 4961POPC   C4A63858   1.388  39.076   7.079
 4961POPC   C1B63859   2.400  39.046   6.171
 4961POPC   C2B63860   2.343  39.206   6.577
 4961POPC   C3B63861   2.463  39.054   6.969
 4961POPC   C4B63862   2.405  39.238   7.370
 4962POPC   NC363863  11.009  40.975   5.396
 4962POPC   PO463864  11.368  40.459   5.635
 4962POPC   GL163865  11.318  40.835   5.803
 4962POPC   GL263866  11.649  40.941   5.828
 4962POPC   C1A63867  11.060  41.094   6.091
 4962POPC   D2A63868  10.996  41.062   6.537
 4962POPC   C3A63869  11.128  40.651   6.736
 4962POPC   C4A63870  11.199  40.638   7.163
 4962POPC   C1B63871  11.540  41.007   6.233
 4962POPC   C2B63872  11.479  41.220   6.582
 4962POPC   C3B63873  11.379  41.050   6.928
 4962POPC   C4B63874  11.591  40.968   7.234
 4963POPC   NC363875  30.693  42.707   5.379
 4963POPC   PO463876  31.134  43.196   5.337
 4963POPC   GL163877  30.962  42.965   5.736
 4963POPC   GL263878  30.567  42.998   5.787
 4963POPC   C1A63879  30.835  42.826   6.179
 4963POPC   D2A63880  30.532  42.964   6.529
 4963POPC   C3A63881  30.824  43.027   6.870
 4963POPC   C4A63882  30.848  43.428   7.086
 4963POPC   C1B63883  30.308  43.219   6.129
 4963POPC   C2B63884  30.117  43.432   6.510
 4963POPC   C3B63885  30.377  43.506   6.898
 4963POPC   C4B63886  30.440  43.109   7.173
 4964POPC   NC363887  28.131  26.506   5.448
 4964POPC   PO463888  28.506  27.124   5.462
 4964POPC   GL163889  28.234  26.993   5.794
 4964POPC   GL263890  28.415  26.689   5.846
 4964POPC   C1A63891  28.303  26.969   6.255
 4964POPC   D2A63892  28.535  26.884   6.635
 4964POPC   C3A63893  28.238  26.720   6.943
 4964POPC   C4A63894  27.996  26.789   7.318
 4964POPC   C1B63895  28.615  26.519   6.228
 4964POPC   C2B63896  28.565  26.373   6.683
 4964POPC   C3B63897  28.718  26.574   7.079
 4964POPC   C4B63898  28.673  26.537   7.545
 4965POPC   NC363899  42.018  33.355   5.606
 4965POPC   PO463900  42.517  32.893   5.373
 4965POPC   GL163901  42.648  32.932   5.822
 4965POPC   GL263902  42.318  33.021   5.897
 4965POPC   C1A63903  42.636  32.955   6.300
 4965POPC   D2A63904  42.754  33.256   6.623
 4965POPC   C3A63905  42.569  33.275   7.018
 4965POPC   C4A63906  42.636  32.964   7.293
 4965POPC   C1B63907  42.182  33.247   6.266
 4965POPC   C2B63908  42.265  33.067   6.654
 4965POPC   C3B63909  42.163  32.933   7.053
 4965POPC   C4B63910  41.906  33.225   7.221
 4966POPC   NC363911  28.396  38.142   5.419
 4966POPC   PO463912  28.428  38.851   5.451
 4966POPC   GL163913  28.270  38.537   5.773
 4966POPC   GL263914  28.502  38.283   5.890
 4966POPC   C1A63915  28.078  38.471   6.192
 4966POPC   D2A63916  28.231  38.580   6.618
 4966POPC   C3A63917  28.114  38.435   7.013
 4966POPC   C4A63918  28.283  38.224   7.343
 4966POPC   C1B63919  28.571  38.595   6.215
 4966POPC   C2B63920  28.744  38.557   6.605
 4966POPC   C3B63921  28.730  38.402   6.997
 4966POPC   C4B63922  28.692  38.594   7.342
 4967POPC   NC363923   4.627   5.925   5.553
 4967POPC   PO463924   5.144   5.459   5.468
 4967POPC   GL163925   5.064   5.753   5.796
 4967POPC   GL263926   5.100   6.107   5.653
 4967POPC   C1A63927   4.914   5.703   6.223
 4967POPC   D2A63928   5.033   5.549   6.622
 4967POPC   C3A63929   5.211   5.834   6.892
 4967POPC   C4A63930   5.316   5.832   7.295
 4967POPC   C1B63931   4.954   6.213   6.058
 4967POPC   C2B63932   5.109   6.145   6.450
 4967POPC   C3B63933   4.931   6.251   6.792
 4967POPC   C4B63934   5.026   6.236   7.202
 4968POPC   NC363935  31.772  18.805   5.286
 4968POPC   PO463936  31.485  19.393   5.486
 4968POPC   GL163937  31.409  19.123   5.841
 4968POPC   GL263938  31.496  18.757   5.736
 4968POPC   C1A63939  31.567  19.157   6.282
 4968POPC   D2A63940  31.809  18.990   6.632
 4968POPC   C3A63941  31.655  19.170   6.990
 4968POPC   C4A63942  31.349  19.086   7.322
 4968POPC   C1B63943  31.362  18.708   6.168
 4968POPC   C2B63944  31.272  18.859   6.584
 4968POPC   C3B63945  31.392  18.731   6.944
 4968POPC   C4B63946  31.446  18.508   7.314
 4969POPC   NC363947   2.255  39.370   5.591
 4969POPC   PO463948   2.790  39.413   5.143
 4969POPC   GL163949   2.880  39.455   5.659
 4969POPC   GL263950   2.625  39.446   5.902
 4969POPC   C1A63951   2.927  39.110   6.069
 4969POPC   D2A63952   2.818  39.017   6.518
 4969POPC   C3A63953   2.946  39.245   6.874
 4969POPC   C4A63954   2.924  39.088   7.296
 4969POPC   C1B63955   2.337  39.589   6.204
 4969POPC   C2B63956   2.305  39.769   6.593
 4969POPC   C3B63957   2.462  39.578   6.941
 4969POPC   C4B63958   2.764  39.568   7.248
 4970POPC   NC363959  18.971  31.209   5.364
 4970POPC   PO463960  19.514  31.626   5.388
 4970POPC   GL163961  19.377  31.289   5.767
 4970POPC   GL263962  19.000  31.252   5.857
 4970POPC   C1A63963  19.265  31.249   6.271
 4970POPC   D2A63964  19.394  31.484   6.621
 4970POPC   C3A63965  19.297  31.340   7.026
 4970POPC   C4A63966  19.055  31.455   7.360
 4970POPC   C1B63967  18.942  31.626   6.132
 4970POPC   C2B63968  18.738  31.698   6.533
 4970POPC   C3B63969  18.873  31.712   6.955
 4970POPC   C4B63970  18.780  31.891   7.349
 4971POPC   NC363971  36.329  11.412   5.522
 4971POPC   PO463972  36.958  11.347   5.306
 4971POPC   GL163973  36.944  11.183   5.707
 4971POPC   GL263974  36.641  11.016   5.785
 4971POPC   C1A63975  37.047  11.300   6.118
 4971POPC   D2A63976  37.145  11.133   6.512
 4971POPC   C3A63977  37.017  11.320   6.913
 4971POPC   C4A63978  37.240  11.588   7.240
 4971POPC   C1B63979  36.550  11.195   6.199
 4971POPC   C2B63980  36.658  11.043   6.614
 4971POPC   C3B63981  36.551  11.128   7.034
 4971POPC   C4B63982  36.729  11.386   7.373
 4972POPC   NC363983  44.849  22.426   5.441
 4972POPC   PO463984  44.580  21.732   5.415
 4972POPC   GL163985  44.562  22.077   5.723
 4972POPC   GL263986  44.267  22.304   5.798
 4972POPC   C1A63987  44.590  22.067   6.171
 4972POPC   D2A63988  44.823  22.021   6.549
 4972POPC   C3A63989  44.551  21.995   6.889
 4972POPC   C4A63990  44.646  22.076   7.317
 4972POPC   C1B63991  44.342  22.507   6.208
 4972POPC   C2B63992  44.502  22.444   6.620
 4972POPC   C3B63993  44.373  22.431   7.059
 4972POPC   C4B63994  44.143  22.119   7.277
 4973POPC   NC363995  32.746  42.270   5.463
 4973POPC   PO463996  33.352  42.102   5.097
 4973POPC   GL163997  33.205  42.032   5.598
 4973POPC   GL263998  33.145  42.372   5.797
 4973POPC   C1A63999  33.068  41.942   6.079
 4973POPC   D2A64000  32.873  42.150   6.468
 4973POPC   C3A64001  33.215  42.239   6.773
 4973POPC   C4A64002  33.346  42.189   7.190
 4973POPC   C1B64003  33.136  42.555   6.243
 4973POPC   C2B64004  32.991  42.695   6.694
 4973POPC   C3B64005  33.060  42.632   7.149
 4973POPC   C4B64006  33.128  42.507   7.589
 4974POPC   NC364007  12.601  31.023   5.456
 4974POPC   PO464008  13.035  31.548   5.333
 4974POPC   GL164009  12.875  31.486   5.755
 4974POPC   GL264010  12.515  31.424   5.788
 4974POPC   C1A64011  12.772  31.694   6.160
 4974POPC   D2A64012  12.888  31.570   6.566
 4974POPC   C3A64013  12.764  31.786   6.945
 4974POPC   C4A64014  12.804  31.533   7.305
 4974POPC   C1B64015  12.691  31.181   6.142
 4974POPC   C2B64016  12.580  31.147   6.573
 4974POPC   C3B64017  12.851  31.183   6.920
 4974POPC   C4B64018  12.786  30.993   7.306
 4975POPC   NC364019  30.474  30.476   5.349
 4975POPC   PO464020  30.745  31.075   5.496
 4975POPC   GL164021  30.591  30.926   5.872
 4975POPC   GL264022  30.455  30.599   5.846
 4975POPC   C1A64023  30.825  30.908   6.257
 4975POPC   D2A64024  30.917  30.750   6.656
 4975POPC   C3A64025  30.767  30.943   7.024
 4975POPC   C4A64026  30.481  30.872   7.380
 4975POPC   C1B64027  30.593  30.456   6.254
 4975POPC   C2B64028  30.483  30.436   6.686
 4975POPC   C3B64029  30.580  30.467   7.104
 4975POPC   C4B64030  30.289  30.398   7.445
 4976POPC   NC364031   1.645   8.918   5.496
 4976POPC   PO464032   2.307   8.630   5.269
 4976POPC   GL164033   2.104   8.712   5.685
 4976POPC   GL264034   1.967   9.011   5.889
 4976POPC   C1A64035   2.131   8.606   6.139
 4976POPC   D2A64036   2.092   8.899   6.496
 4976POPC   C3A64037   2.052   8.748   6.928
 4976POPC   C4A64038   1.934   9.092   7.171
 4976POPC   C1B64039   1.860   9.297   6.234
 4976POPC   C2B64040   1.852   9.365   6.678
 4976POPC   C3B64041   1.554   9.388   7.035
 4976POPC   C4B64042   1.633   9.381   7.499
 4977POPC   NC364043  30.064   9.201   5.483
 4977POPC   PO464044  29.785   8.560   5.469
 4977POPC   GL164045  29.811   8.818   5.803
 4977POPC   GL264046  30.174   8.824   5.861
 4977POPC   C1A64047  29.819   8.817   6.260
 4977POPC   D2A64048  29.920   9.116   6.582
 4977POPC   C3A64049  29.726   9.074   6.999
 4977POPC   C4A64050  29.892   8.808   7.271
 4977POPC   C1B64051  30.236   9.206   6.147
 4977POPC   C2B64052  30.392   9.353   6.561
 4977POPC   C3B64053  30.228   9.260   6.964
 4977POPC   C4B64054  30.378   8.965   7.276
 4978POPC   NC364055  21.170   0.810   5.541
 4978POPC   PO464056  21.516   0.162   5.474
 4978POPC   GL164057  21.768   0.245   5.853
 4978POPC   GL264058  21.887   0.613   5.855
 4978POPC   C1A64059  21.648   0.178   6.310
 4978POPC   D2A64060  21.381   0.320   6.656
 4978POPC   C3A64061  21.509   0.333   7.111
 4978POPC   C4A64062  21.170   0.252   7.460
 4978POPC   C1B64063  21.824   0.669   6.282
 4978POPC   C2B64064  21.669   0.743   6.709
 4978POPC   C3B64065  21.254   0.737   6.935
 4978POPC   C4B64066  21.245   0.747   7.346
 4979POPC   NC364067  12.373  26.208   5.467
 4979POPC   PO464068  11.719  26.011   5.335
 4979POPC   GL164069  11.933  26.084   5.706
 4979POPC   GL264070  11.866  26.410   5.649
 4979POPC   C1A64071  12.147  26.100   6.129
 4979POPC   D2A64072  12.303  25.941   6.559
 4979POPC   C3A64073  12.091  26.015   6.975
 4979POPC   C4A64074  12.108  25.974   7.466
 4979POPC   C1B64075  11.745  26.437   6.071
 4979POPC   C2B64076  11.858  26.330   6.496
 4979POPC   C3B64077  11.700  26.379   6.904
 4979POPC   C4B64078  11.862  26.356   7.266
 4980POPC   NC364079  44.424  12.292   5.356
 4980POPC   PO464080   0.029  12.033   5.397
 4980POPC   GL164081  44.701  11.891   5.733
 4980POPC   GL264082  44.377  12.111   5.825
 4980POPC   C1A64083  44.708  11.929   6.168
 4980POPC   D2A64084  44.469  12.044   6.499
 4980POPC   C3A64085  44.674  11.930   6.831
 4980POPC   C4A64086  44.825  11.830   7.197
 4980POPC   C1B64087  44.116  12.266   6.183
 4980POPC   C2B64088  44.064  12.338   6.638
 4980POPC   C3B64089  44.178  12.033   6.949
 4980POPC   C4B64090  44.503  12.230   7.219
 4981POPC   NC364091   5.424   9.009   5.431
 4981POPC   PO464092   6.103   9.087   5.163
 4981POPC   GL164093   5.932   9.049   5.575
 4981POPC   GL264094   6.189   9.283   5.679
 4981POPC   C1A64095   5.966   8.870   6.017
 4981POPC   D2A64096   5.701   8.757   6.380
 4981POPC   C3A64097   5.834   8.902   6.779
 4981POPC   C4A64098   5.893   8.914   7.182
 4981POPC   C1B64099   6.130   9.341   6.125
 4981POPC   C2B64100   5.877   9.324   6.500
 4981POPC   C3B64101   5.947   9.398   6.936
 4981POPC   C4B64102   6.173   9.315   7.322
 4982POPC   NC364103  18.640  20.648   5.449
 4982POPC   PO464104  17.971  20.476   5.337
 4982POPC   GL164105  18.153  20.780   5.673
 4982POPC   GL264106  18.476  20.981   5.803
 4982POPC   C1A64107  18.159  20.697   6.118
 4982POPC   D2A64108  18.027  20.871   6.518
 4982POPC   C3A64109  18.078  20.591   6.873
 4982POPC   C4A64110  17.934  20.647   7.305
 4982POPC   C1B64111  18.455  21.085   6.261
 4982POPC   C2B64112  18.570  20.954   6.680
 4982POPC   C3B64113  18.368  20.957   7.071
 4982POPC   C4B64114  18.449  21.089   7.477
 4983POPC   NC364115  35.774  22.218   5.405
 4983POPC   PO464116  35.201  21.878   5.394
 4983POPC   GL164117  35.394  21.929   5.786
 4983POPC   GL264118  35.388  22.286   5.773
 4983POPC   C1A64119  35.193  22.005   6.193
 4983POPC   D2A64120  34.971  21.855   6.559
 4983POPC   C3A64121  35.220  21.943   6.919
 4983POPC   C4A64122  35.456  21.954   7.273
 4983POPC   C1B64123  35.325  22.503   6.199
 4983POPC   C2B64124  35.150  22.380   6.612
 4983POPC   C3B64125  35.239  22.447   7.056
 4983POPC   C4B64126  35.445  22.444   7.470
 4984POPC   NC364127  41.362  28.991   5.656
 4984POPC   PO464128  41.847  29.433   5.419
 4984POPC   GL164129  41.696  29.356   5.841
 4984POPC   GL264130  41.331  29.420   5.927
 4984POPC   C1A64131  41.684  29.211   6.273
 4984POPC   D2A64132  41.477  29.251   6.690
 4984POPC   C3A64133  41.618  28.919   6.964
 4984POPC   C4A64134  41.921  28.951   7.270
 4984POPC   C1B64135  41.200  29.112   6.284
 4984POPC   C2B64136  41.152  28.846   6.616
 4984POPC   C3B64137  41.100  28.954   7.012
 4984POPC   C4B64138  41.312  29.270   7.184
 4985POPC   NC364139  37.254  31.665   5.425
 4985POPC   PO464140  36.563  31.586   5.347
 4985POPC   GL164141  36.701  31.613   5.787
 4985POPC   GL264142  36.994  31.401   5.782
 4985POPC   C1A64143  36.920  31.703   6.194
 4985POPC   D2A64144  37.066  31.572   6.573
 4985POPC   C3A64145  36.800  31.765   6.860
 4985POPC   C4A64146  36.788  31.610   7.252
 4985POPC   C1B64147  37.178  31.248   6.163
 4985POPC   C2B64148  37.034  31.040   6.530
 4985POPC   C3B64149  36.984  31.187   6.966
 4985POPC   C4B64150  36.591  31.134   7.205
 4986POPC   NC364151   0.943   9.621   5.609
 4986POPC   PO464152   1.457  10.044   5.568
 4986POPC   GL164153   1.244   9.901   5.943
 4986POPC   GL264154   0.868   9.989   5.955
 4986POPC   C1A64155   1.366   9.574   6.257
 4986POPC   D2A64156   1.492   9.729   6.662
 4986POPC   C3A64157   1.165   9.785   7.003
 4986POPC   C4A64158   1.112   9.565   7.400
 4986POPC   C1B64159   0.948   9.833   6.375
 4986POPC   C2B64160   1.004   9.461   6.645
 4986POPC   C3B64161   0.771   9.459   7.040
 4986POPC   C4B64162   0.686   9.843   7.350
 4987POPC   NC364163  17.539  19.238   5.266
 4987POPC   PO464164  17.750  18.644   5.557
 4987POPC   GL164165  17.381  18.892   5.793
 4987POPC   GL264166  17.413  19.260   5.811
 4987POPC   C1A64167  17.144  19.031   6.192
 4987POPC   D2A64168  17.179  19.282   6.580
 4987POPC   C3A64169  17.251  19.142   7.022
 4987POPC   C4A64170  17.189  19.051   7.461
 4987POPC   C1B64171  17.612  19.217   6.259
 4987POPC   C2B64172  17.682  19.249   6.699
 4987POPC   C3B64173  17.514  19.563   6.971
 4987POPC   C4B64174  17.524  19.518   7.409
 4988POPC   NC364175   8.977  23.323   5.447
 4988POPC   PO464176   8.626  23.806   5.629
 4988POPC   GL164177   8.804  23.561   5.902
 4988POPC   GL264178   9.120  23.681   5.853
 4988POPC   C1A64179   8.865  23.574   6.341
 4988POPC   D2A64180   8.803  23.404   6.728
 4988POPC   C3A64181   8.883  23.635   7.071
 4988POPC   C4A64182   8.534  23.897   7.198
 4988POPC   C1B64183   9.308  23.838   6.242
 4988POPC   C2B64184   9.244  23.773   6.683
 4988POPC   C3B64185   9.303  23.955   7.090
 4988POPC   C4B64186   9.375  23.614   7.392
 4989POPC   NC364187  36.506  38.073   5.669
 4989POPC   PO464188  36.294  37.542   5.402
 4989POPC   GL164189  36.074  37.743   5.806
 4989POPC   GL264190  36.042  38.108   5.896
 4989POPC   C1A64191  35.903  37.648   6.227
 4989POPC   D2A64192  36.254  37.446   6.474
 4989POPC   C3A64193  36.341  37.488   6.922
 4989POPC   C4A64194  36.445  37.537   7.349
 4989POPC   C1B64195  36.291  37.973   6.281
 4989POPC   C2B64196  36.088  37.887   6.663
 4989POPC   C3B64197  36.188  37.952   7.054
 4989POPC   C4B64198  35.910  37.717   7.261
 4990POPC   NC364199  11.204  15.081   5.297
 4990POPC   PO464200  11.820  14.840   5.351
 4990POPC   GL164201  11.491  14.866   5.717
 4990POPC   GL264202  11.100  14.940   5.774
 4990POPC   C1A64203  11.526  15.005   6.171
 4990POPC   D2A64204  11.507  14.864   6.623
 4990POPC   C3A64205  11.392  15.066   7.030
 4990POPC   C4A64206  11.238  15.370   7.370
 4990POPC   C1B64207  11.057  14.782   6.196
 4990POPC   C2B64208  10.996  14.924   6.624
 4990POPC   C3B64209  11.034  14.694   6.997
 4990POPC   C4B64210  11.104  14.867   7.407
 4991POPC   NC364211   6.982  13.891   5.441
 4991POPC   PO464212   6.455  13.461   5.347
 4991POPC   GL164213   6.693  13.470   5.725
 4991POPC   GL264214   6.626  13.777   5.815
 4991POPC   C1A64215   6.628  13.421   6.184
 4991POPC   D2A64216   6.803  13.545   6.596
 4991POPC   C3A64217   6.539  13.648   6.963
 4991POPC   C4A64218   6.735  13.670   7.384
 4991POPC   C1B64219   6.928  13.846   6.149
 4991POPC   C2B64220   6.875  14.052   6.551
 4991POPC   C3B64221   6.951  13.936   6.989
 4991POPC   C4B64222   7.042  14.108   7.395
 4992POPC   NC364223   7.743   1.684   5.342
 4992POPC   PO464224   7.125   2.044   5.413
 4992POPC   GL164225   7.353   2.026   5.783
 4992POPC   GL264226   7.703   1.867   5.871
 4992POPC   C1A64227   7.324   2.081   6.207
 4992POPC   D2A64228   7.594   2.027   6.566
 4992POPC   C3A64229   7.406   1.986   6.961
 4992POPC   C4A64230   7.556   2.132   7.395
 4992POPC   C1B64231   7.753   1.616   6.291
 4992POPC   C2B64232   7.594   1.528   6.736
 4992POPC   C3B64233   7.599   1.587   7.203
 4992POPC   C4B64234   7.692   1.684   7.626
 4993POPC   NC364235  32.720  14.711   5.528
 4993POPC   PO464236  32.250  15.252   5.510
 4993POPC   GL164237  32.409  15.257   5.915
 4993POPC   GL264238  32.619  14.978   5.972
 4993POPC   C1A64239  32.308  15.427   6.282
 4993POPC   D2A64240  32.280  15.080   6.536
 4993POPC   C3A64241  32.295  14.999   6.940
 4993POPC   C4A64242  32.322  15.334   7.183
 4993POPC   C1B64243  32.229  14.768   6.138
 4993POPC   C2B64244  31.877  14.780   6.456
 4993POPC   C3B64245  31.787  14.822   6.930
 4993POPC   C4B64246  31.996  14.842   7.362
 4994POPC   NC364247  25.760  32.265   5.415
 4994POPC   PO464248  26.407  32.145   5.335
 4994POPC   GL164249  26.157  32.126   5.711
 4994POPC   GL264250  26.192  32.467   5.759
 4994POPC   C1A64251  26.269  32.020   6.146
 4994POPC   D2A64252  26.091  32.119   6.560
 4994POPC   C3A64253  26.306  32.053   6.928
 4994POPC   C4A64254  26.098  31.908   7.301
 4994POPC   C1B64255  26.064  32.495   6.210
 4994POPC   C2B64256  25.990  32.610   6.641
 4994POPC   C3B64257  25.894  32.347   7.005
 4994POPC   C4B64258  25.756  32.284   7.436
 4995POPC   NC364259  40.614  44.537   5.474
 4995POPC   PO464260  41.040  44.938   5.578
 4995POPC   GL164261  41.040  44.589   5.887
 4995POPC   GL264262  40.745  44.702   5.963
 4995POPC   C1A64263  41.077  44.480   6.348
 4995POPC   D2A64264  40.837  44.648   6.706
 4995POPC   C3A64265  40.809  44.400   7.059
 4995POPC   C4A64266  41.186  44.513   7.169
 4995POPC   C1B64267  40.964  44.975   6.261
 4995POPC   C2B64268  40.969   0.138   6.672
 4995POPC   C3B64269  41.033   0.001   7.089
 4995POPC   C4B64270  40.790  44.789   7.391
 4996POPC   NC364271  17.681   4.127   5.088
 4996POPC   PO464272  17.365   4.534   5.504
 4996POPC   GL164273  17.452   4.593   5.951
 4996POPC   GL264274  17.293   4.245   5.996
 4996POPC   C1A64275  17.643   4.400   6.343
 4996POPC   D2A64276  17.611   4.069   6.675
 4996POPC   C3A64277  17.806   4.109   7.071
 4996POPC   C4A64278  17.668   3.977   7.493
 4996POPC   C1B64279  16.947   4.495   6.182
 4996POPC   C2B64280  16.838   4.513   6.633
 4996POPC   C3B64281  17.118   4.587   6.997
 4996POPC   C4B64282  17.229   4.443   7.441
 4997POPC   NC364283  43.748  38.318   5.322
 4997POPC   PO464284  43.858  38.893   5.586
 4997POPC   GL164285  43.908  38.506   5.787
 4997POPC   GL264286  44.261  38.503   5.751
 4997POPC   C1A64287  44.068  38.228   6.137
 4997POPC   D2A64288  44.282  38.311   6.538
 4997POPC   C3A64289  44.079  38.223   6.910
 4997POPC   C4A64290  43.856  38.156   7.266
 4997POPC   C1B64291  44.189  38.765   6.142
 4997POPC   C2B64292  44.384  38.969   6.494
 4997POPC   C3B64293  44.206  38.927   6.886
 4997POPC   C4B64294  43.994  38.673   7.192
 4998POPC   NC364295  23.895   3.172   5.310
 4998POPC   PO464296  23.624   2.518   5.038
 4998POPC   GL164297  23.719   2.631   5.566
 4998POPC   GL264298  23.798   2.923   5.724
 4998POPC   C1A64299  23.490   2.749   6.065
 4998POPC   D2A64300  23.321   2.898   6.477
 4998POPC   C3A64301  23.496   2.824   6.882
 4998POPC   C4A64302  23.759   2.550   7.120
 4998POPC   C1B64303  24.010   2.797   6.111
 4998POPC   C2B64304  23.847   2.701   6.515
 4998POPC   C3B64305  24.006   2.905   6.870
 4998POPC   C4B64306  24.173   2.928   7.271
 4999POPC   NC364307  18.470  19.409   5.589
 4999POPC   PO464308  18.016  19.008   5.244
 4999POPC   GL164309  18.168  18.952   5.680
 4999POPC   GL264310  17.884  19.041   5.871
 4999POPC   C1A64311  18.176  18.717   6.108
 4999POPC   D2A64312  17.971  18.828   6.533
 4999POPC   C3A64313  18.180  19.085   6.808
 4999POPC   C4A64314  18.336  18.978   7.201
 4999POPC   C1B64315  18.135  19.210   6.246
 4999POPC   C2B64316  18.090  19.521   6.549
 4999POPC   C3B64317  18.051  19.564   6.997
 4999POPC   C4B64318  17.876  19.223   7.201
 5000POPC   NC364319   1.856  43.018   5.399
 5000POPC   PO464320   2.277  43.569   5.460
 5000POPC   GL164321   2.027  43.343   5.767
 5000POPC   GL264322   2.060  42.954   5.846
 5000POPC   C1A64323   1.815  43.245   6.150
 5000POPC   D2A64324   1.842  42.954   6.473
 5000POPC   C3A64325   1.626  43.176   6.785
 5000POPC   C4A64326   1.575  43.301   7.204
 5000POPC   C1B64327   2.314  43.182   6.153
 5000POPC   C2B64328   2.344  43.059   6.553
 5000POPC   C3B64329   2.114  43.045   6.912
 5000POPC   C4B64330   2.201  43.164   7.311
 5001POPC   NC364331  11.477  27.210   5.451
 5001POPC   PO464332  11.285  27.906   5.373
 5001POPC   GL164333  11.223  27.837   5.835
 5001POPC   GL264334  11.422  27.549   5.916
 5001POPC   C1A64335  11.258  27.829   6.328
 5001POPC   D2A64336  11.328  27.627   6.749
 5001POPC   C3A64337  11.203  27.877   7.105
 5001POPC   C4A64338  10.964  27.856   7.468
 5001POPC   C1B64339  11.273  27.314   6.317
 5001POPC   C2B64340  11.188  27.091   6.687
 5001POPC   C3B64341  11.149  27.271   7.090
 5001POPC   C4B64342  10.919  27.360   7.448
 5002POPC   NC364343  40.735  27.833   5.349
 5002POPC   PO464344  40.614  27.157   5.444
 5002POPC   GL164345  40.710  27.468   5.805
 5002POPC   GL264346  40.752  27.851   5.852
 5002POPC   C1A64347  40.987  27.518   6.182
 5002POPC   D2A64348  41.243  27.421   6.554
 5002POPC   C3A64349  41.090  27.441   6.968
 5002POPC   C4A64350  40.904  27.525   7.381
 5002POPC   C1B64351  40.617  27.864   6.273
 5002POPC   C2B64352  40.691  27.548   6.607
 5002POPC   C3B64353  40.554  27.490   7.002
 5002POPC   C4B64354  40.290  27.768   7.196
 5003POPC   NC364355  43.069  35.306   5.559
 5003POPC   PO464356  42.625  35.711   5.297
 5003POPC   GL164357  42.781  35.619   5.836
 5003POPC   GL264358  43.092  35.651   5.963
 5003POPC   C1A64359  42.854  35.247   6.197
 5003POPC   D2A64360  42.859  35.040   6.629
 5003POPC   C3A64361  43.197  35.080   6.960
 5003POPC   C4A64362  43.248  35.305   7.363
 5003POPC   C1B64363  43.004  35.696   6.376
 5003POPC   C2B64364  43.181  35.471   6.650
 5003POPC   C3B64365  43.084  35.603   7.001
 5003POPC   C4B64366  43.263  35.845   7.241
 5004POPC   NC364367   0.892  43.952   5.554
 5004POPC   PO464368   0.221  43.926   5.278
 5004POPC   GL164369   0.293  44.037   5.768
 5004POPC   GL264370   0.577  44.203   5.852
 5004POPC   C1A64371   0.342  43.803   6.185
 5004POPC   D2A64372   0.691  43.645   6.448
 5004POPC   C3A64373   0.634  43.753   6.892
 5004POPC   C4A64374   0.191  43.699   6.971
 5004POPC   C1B64375   0.460  44.305   6.211
 5004POPC   C2B64376   0.486  44.120   6.566
 5004POPC   C3B64377   0.382  44.215   6.941
 5004POPC   C4B64378   0.606  44.167   7.309
 5005POPC   NC364379  20.570  30.663   5.345
 5005POPC   PO464380  21.133  30.959   5.602
 5005POPC   GL164381  20.765  30.695   5.828
 5005POPC   GL264382  20.402  30.548   5.792
 5005POPC   C1A64383  20.618  30.714   6.269
 5005POPC   D2A64384  20.388  30.949   6.591
 5005POPC   C3A64385  20.482  30.815   7.016
 5005POPC   C4A64386  20.793  30.926   7.324
 5005POPC   C1B64387  20.332  30.317   6.146
 5005POPC   C2B64388  20.231  30.465   6.579
 5005POPC   C3B64389  20.246  30.336   7.019
 5005POPC   C4B64390  20.003  30.365   7.398
 5006POPC   NC364391  31.754  43.637   5.588
 5006POPC   PO464392  31.256  43.999   5.324
 5006POPC   GL164393  31.319  43.942   5.748
 5006POPC   GL264394  31.235  43.595   5.747
 5006POPC   C1A64395  31.558  43.964   6.146
 5006POPC   D2A64396  31.448  44.222   6.509
 5006POPC   C3A64397  31.509  44.098   6.936
 5006POPC   C4A64398  31.158  44.133   7.168
 5006POPC   C1B64399  31.301  43.501   6.175
 5006POPC   C2B64400  31.415  43.699   6.550
 5006POPC   C3B64401  31.239  43.684   6.915
 5006POPC   C4B64402  31.272  43.625   7.328
 5007POPC   NC364403   9.467  31.927   5.547
 5007POPC   PO464404   8.984  32.420   5.466
 5007POPC   GL164405   9.197  32.379   5.834
 5007POPC   GL264406   8.928  32.501   6.068
 5007POPC   C1A64407   9.210  32.085   6.171
 5007POPC   D2A64408   8.966  32.073   6.546
 5007POPC   C3A64409   9.137  32.140   6.951
 5007POPC   C4A64410   9.004  32.365   7.334
 5007POPC   C1B64411   8.646  32.130   6.146
 5007POPC   C2B64412   8.492  31.887   6.501
 5007POPC   C3B64413   8.564  32.115   6.876
 5007POPC   C4B64414   8.384  32.162   7.256
 5008POPC   NC364415  29.034   4.393   5.400
 5008POPC   PO464416  29.525   4.228   5.595
 5008POPC   GL164417  29.177   4.302   5.926
 5008POPC   GL264418  28.820   4.227   5.883
 5008POPC   C1A64419  29.051   4.251   6.390
 5008POPC   D2A64420  29.185   4.042   6.796
 5008POPC   C3A64421  29.211   4.273   7.188
 5008POPC   C4A64422  29.248   4.633   7.456
 5008POPC   C1B64423  28.582   4.064   6.256
 5008POPC   C2B64424  28.665   3.990   6.710
 5008POPC   C3B64425  28.801   3.983   7.135
 5008POPC   C4B64426  29.084   3.881   7.471
 5009POPC   NC364427  39.550  18.342   5.483
 5009POPC   PO464428  38.838  18.701   5.335
 5009POPC   GL164429  39.040  18.413   5.629
 5009POPC   GL264430  39.238  18.652   5.755
 5009POPC   C1A64431  39.123  18.252   6.079
 5009POPC   D2A64432  39.067  18.382   6.528
 5009POPC   C3A64433  39.276  18.156   6.867
 5009POPC   C4A64434  39.183  18.372   7.232
 5009POPC   C1B64435  39.344  18.711   6.180
 5009POPC   C2B64436  39.300  18.844   6.590
 5009POPC   C3B64437  39.456  18.655   6.926
 5009POPC   C4B64438  39.645  18.596   7.312
 5010POPC   NC364439  33.578   6.715   5.284
 5010POPC   PO464440  34.032   6.240   5.304
 5010POPC   GL164441  34.011   6.579   5.666
 5010POPC   GL264442  33.756   6.815   5.746
 5010POPC   C1A64443  34.046   6.677   6.143
 5010POPC   D2A64444  34.007   6.479   6.562
 5010POPC   C3A64445  33.861   6.659   6.976
 5010POPC   C4A64446  33.771   6.368   7.351
 5010POPC   C1B64447  33.586   6.923   6.113
 5010POPC   C2B64448  33.697   6.929   6.538
 5010POPC   C3B64449  33.417   6.975   6.890
 5010POPC   C4B64450  33.512   6.975   7.296
 5011POPC   NC364451   6.711  13.020   5.473
 5011POPC   PO464452   6.441  12.477   5.174
 5011POPC   GL164453   6.563  12.462   5.660
 5011POPC   GL264454   6.763  12.692   5.860
 5011POPC   C1A64455   6.487  12.346   6.115
 5011POPC   D2A64456   6.511  12.571   6.517
 5011POPC   C3A64457   6.863  12.538   6.806
 5011POPC   C4A64458   6.719  12.679   7.184
 5011POPC   C1B64459   6.807  12.941   6.271
 5011POPC   C2B64460   6.635  13.059   6.704
 5011POPC   C3B64461   6.725  13.200   7.132
 5011POPC   C4B64462   6.974  13.253   7.544
 5012POPC   NC364463  18.054  44.266   5.463
 5012POPC   PO464464  18.367  44.841   5.368
 5012POPC   GL164465  18.430  44.618   5.793
 5012POPC   GL264466  18.110  44.668   5.818
 5012POPC   C1A64467  18.334  44.753   6.263
 5012POPC   D2A64468  18.372   0.062   6.626
 5012POPC   C3A64469  18.316  44.836   7.028
 5012POPC   C4A64470  18.472  44.416   7.114
 5012POPC   C1B64471  18.058  44.344   6.165
 5012POPC   C2B64472  18.203  44.342   6.630
 5012POPC   C3B64473  17.982  44.424   7.052
 5012POPC   C4B64474  17.874  44.438   7.478
 5013POPC   NC364475  36.075  43.322   5.011
 5013POPC   PO464476  36.093  42.793   5.490
 5013POPC   GL164477  36.187  43.073   5.774
 5013POPC   GL264478  35.879  43.107   5.846
 5013POPC   C1A64479  36.406  43.006   6.152
 5013POPC   D2A64480  36.489  42.679   6.467
 5013POPC   C3A64481  36.453  42.855   6.895
 5013POPC   C4A64482  36.328  43.247   7.091
 5013POPC   C1B64483  35.942  43.311   6.206
 5013POPC   C2B64484  36.113  43.188   6.601
 5013POPC   C3B64485  35.877  43.075   6.955
 5013POPC   C4B64486  35.704  43.251   7.313
 5014POPC   NC364487  23.193  17.010   5.493
 5014POPC   PO464488  22.927  16.401   5.613
 5014POPC   GL164489  22.879  16.771   5.841
 5014POPC   GL264490  23.217  16.880   5.976
 5014POPC   C1A64491  22.810  16.970   6.248
 5014POPC   D2A64492  22.954  17.128   6.653
 5014POPC   C3A64493  23.011  16.763   6.933
 5014POPC   C4A64494  22.719  16.741   7.253
 5014POPC   C1B64495  23.323  16.507   6.240
 5014POPC   C2B64496  23.260  16.333   6.643
 5014POPC   C3B64497  23.288  16.293   7.085
 5014POPC   C4B64498  23.086  16.450   7.386
 5015POPC   NC364499  34.446  16.049   5.186
 5015POPC   PO464500  34.993  15.791   5.119
 5015POPC   GL164501  34.700  15.906   5.587
 5015POPC   GL264502  34.843  16.182   5.808
 5015POPC   C1A64503  34.593  15.791   6.050
 5015POPC   D2A64504  34.720  15.679   6.470
 5015POPC   C3A64505  34.541  15.884   6.822
 5015POPC   C4A64506  34.698  15.785   7.203
 5015POPC   C1B64507  34.572  16.264   6.207
 5015POPC   C2B64508  34.487  16.481   6.594
 5015POPC   C3B64509  34.266  16.333   6.950
 5015POPC   C4B64510  34.269  16.032   7.278
 5016POPC   NC364511  26.689   3.368   5.618
 5016POPC   PO464512  27.050   3.944   5.347
 5016POPC   GL164513  26.973   3.739   5.781
 5016POPC   GL264514  27.116   3.449   5.902
 5016POPC   C1A64515  26.719   3.564   6.234
 5016POPC   D2A64516  26.732   3.284   6.599
 5016POPC   C3A64517  26.703   3.488   7.010
 5016POPC   C4A64518  26.684   3.629   7.444
 5016POPC   C1B64519  27.135   3.828   6.229
 5016POPC   C2B64520  27.035   3.703   6.655
 5016POPC   C3B64521  26.943   3.950   7.013
 5016POPC   C4B64522  27.055   4.034   7.439
 5017POPC   NC364523   8.656  37.730   5.001
 5017POPC   PO464524   8.099  37.746   5.351
 5017POPC   GL164525   8.308  37.571   5.715
 5017POPC   GL264526   8.019  37.426   5.851
 5017POPC   C1A64527   8.486  37.544   6.142
 5017POPC   D2A64528   8.689  37.488   6.560
 5017POPC   C3A64529   8.538  37.657   6.952
 5017POPC   C4A64530   8.328  37.523   7.343
 5017POPC   C1B64531   7.964  37.650   6.258
 5017POPC   C2B64532   8.074  37.732   6.706
 5017POPC   C3B64533   7.826  37.689   7.072
 5017POPC   C4B64534   7.843  37.491   7.471
 5018POPC   NC364535   3.708  27.966   5.197
 5018POPC   PO464536   3.843  27.415   5.574
 5018POPC   GL164537   3.537  27.580   5.872
 5018POPC   GL264538   3.377  27.858   5.648
 5018POPC   C1A64539   3.736  27.672   6.277
 5018POPC   D2A64540   3.945  27.455   6.643
 5018POPC   C3A64541   3.768  27.679   6.990
 5018POPC   C4A64542   3.839  27.850   7.389
 5018POPC   C1B64543   3.230  27.964   6.082
 5018POPC   C2B64544   3.339  27.907   6.499
 5018POPC   C3B64545   3.266  27.798   6.899
 5018POPC   C4B64546   3.356  27.701   7.328
 5019POPC   NC364547  14.175  40.860   5.320
 5019POPC   PO464548  14.655  40.404   5.549
 5019POPC   GL164549  14.397  40.632   5.791
 5019POPC   GL264550  14.301  40.978   5.829
 5019POPC   C1A64551  14.361  40.594   6.202
 5019POPC   D2A64552  14.481  40.866   6.495
 5019POPC   C3A64553  14.450  40.671   6.875
 5019POPC   C4A64554  14.645  40.863   7.221
 5019POPC   C1B64555  14.016  40.966   6.226
 5019POPC   C2B64556  14.003  40.790   6.686
 5019POPC   C3B64557  14.113  40.880   7.193
 5019POPC   C4B64558  14.073  41.087   7.642
 5020POPC   NC364559  20.689  42.855   5.369
 5020POPC   PO464560  21.008  43.394   5.567
 5020POPC   GL164561  20.718  43.089   5.850
 5020POPC   GL264562  20.462  42.838   5.818
 5020POPC   C1A64563  20.523  43.134   6.243
 5020POPC   D2A64564  20.801  43.168   6.587
 5020POPC   C3A64565  20.661  43.298   6.965
 5020POPC   C4A64566  20.839  43.081   7.279
 5020POPC   C1B64567  20.534  42.601   6.176
 5020POPC   C2B64568  20.574  42.721   6.552
 5020POPC   C3B64569  20.378  42.892   6.834
 5020POPC   C4B64570  20.377  42.782   7.249
 5021POPC   NC364571  24.230  29.533   5.318
 5021POPC   PO464572  24.295  30.166   5.297
 5021POPC   GL164573  24.320  29.921   5.667
 5021POPC   GL264574  24.671  29.863   5.588
 5021POPC   C1A64575  24.227  29.871   6.120
 5021POPC   D2A64576  24.415  29.834   6.540
 5021POPC   C3A64577  24.396  30.100   6.916
 5021POPC   C4A64578  24.237  29.867   7.286
 5021POPC   C1B64579  24.772  29.973   6.025
 5021POPC   C2B64580  24.933  29.802   6.411
 5021POPC   C3B64581  24.845  29.842   6.823
 5021POPC   C4B64582  24.742  29.884   7.231
 5022POPC   NC364583  34.548   1.580   5.209
 5022POPC   PO464584  34.193   2.174   5.320
 5022POPC   GL164585  34.435   2.109   5.705
 5022POPC   GL264586  34.524   1.745   5.765
 5022POPC   C1A64587  34.607   2.155   6.133
 5022POPC   D2A64588  34.688   2.424   6.487
 5022POPC   C3A64589  34.498   2.305   6.886
 5022POPC   C4A64590  34.483   2.012   7.262
 5022POPC   C1B64591  34.767   1.684   6.171
 5022POPC   C2B64592  34.705   1.833   6.608
 5022POPC   C3B64593  34.906   1.987   6.981
 5022POPC   C4B64594  35.069   1.783   7.318
 5023POPC   NC364595  11.622   6.505   5.548
 5023POPC   PO464596  11.210   6.097   5.221
 5023POPC   GL164597  11.105   6.504   5.650
 5023POPC   GL264598  11.097   6.906   5.643
 5023POPC   C1A64599  11.191   6.549   6.168
 5023POPC   D2A64600  11.001   6.592   6.640
 5023POPC   C3A64601  11.132   6.498   7.068
 5023POPC   C4A64602  11.566   6.374   7.161
 5023POPC   C1B64603  10.990   7.049   6.076
 5023POPC   C2B64604  11.244   7.019   6.429
 5023POPC   C3B64605  11.451   6.823   6.765
 5023POPC   C4B64606  11.387   6.896   7.191
 5024POPC   NC364607  12.032   1.839   5.346
 5024POPC   PO464608  11.518   2.291   5.457
 5024POPC   GL164609  11.789   2.122   5.770
 5024POPC   GL264610  11.804   1.761   5.811
 5024POPC   C1A64611  11.953   2.178   6.205
 5024POPC   D2A64612  11.758   2.214   6.627
 5024POPC   C3A64613  11.998   2.129   6.977
 5024POPC   C4A64614  12.003   2.266   7.396
 5024POPC   C1B64615  12.083   1.656   6.142
 5024POPC   C2B64616  12.158   1.779   6.563
 5024POPC   C3B64617  12.127   1.637   6.982
 5024POPC   C4B64618  11.895   1.739   7.336
 5025POPC   NC364619  22.791   9.456   5.443
 5025POPC   PO464620  23.036  10.131   5.474
 5025POPC   GL164621  23.176   9.943   5.846
 5025POPC   GL264622  23.083   9.612   5.892
 5025POPC   C1A64623  23.006   9.996   6.267
 5025POPC   D2A64624  22.799   9.940   6.658
 5025POPC   C3A64625  23.020   9.791   7.008
 5025POPC   C4A64626  22.994   9.888   7.429
 5025POPC   C1B64627  22.845   9.498   6.286
 5025POPC   C2B64628  22.897   9.350   6.720
 5025POPC   C3B64629  22.924   9.319   7.186
 5025POPC   C4B64630  22.853   9.423   7.628
 5026POPC   NC364631   3.834   2.815   5.320
 5026POPC   PO464632   3.142   2.918   5.244
 5026POPC   GL164633   3.336   2.851   5.714
 5026POPC   GL264634   3.679   2.646   5.809
 5026POPC   C1A64635   3.492   2.973   6.129
 5026POPC   D2A64636   3.720   3.220   6.418
 5026POPC   C3A64637   3.712   3.117   6.851
 5026POPC   C4A64638   3.517   3.210   7.237
 5026POPC   C1B64639   3.691   2.405   6.255
 5026POPC   C2B64640   3.391   2.235   6.568
 5026POPC   C3B64641   3.226   2.457   6.933
 5026POPC   C4B64642   3.558   2.705   7.138
 5027POPC   NC364643   5.612  20.414   5.666
 5027POPC   PO464644   6.033  20.019   5.190
 5027POPC   GL164645   6.050  20.054   5.676
 5027POPC   GL264646   6.389  20.143   5.767
 5027POPC   C1A64647   5.857  19.942   6.118
 5027POPC   D2A64648   5.572  19.996   6.499
 5027POPC   C3A64649   5.763  19.915   6.933
 5027POPC   C4A64650   5.559  19.744   7.296
 5027POPC   C1B64651   6.374  19.897   6.143
 5027POPC   C2B64652   6.498  19.971   6.543
 5027POPC   C3B64653   6.419  20.170   6.868
 5027POPC   C4B64654   6.233  19.984   7.228
 5028POPC   NC364655  30.918  32.823   5.352
 5028POPC   PO464656  30.330  33.184   5.399
 5028POPC   GL164657  30.561  33.156   5.772
 5028POPC   GL264658  30.559  32.833   5.740
 5028POPC   C1A64659  30.765  33.079   6.179
 5028POPC   D2A64660  31.048  33.083   6.545
 5028POPC   C3A64661  30.859  32.936   6.927
 5028POPC   C4A64662  30.663  33.167   7.261
 5028POPC   C1B64663  30.358  32.753   6.120
 5028POPC   C2B64664  30.540  32.751   6.543
 5028POPC   C3B64665  30.362  32.803   6.972
 5028POPC   C4B64666  30.436  32.742   7.415
 5029POPC   NC364667  13.815  35.535   5.461
 5029POPC   PO464668  13.170  35.127   5.453
 5029POPC   GL164669  13.404  35.326   5.748
 5029POPC   GL264670  13.646  35.052   5.646
 5029POPC   C1A64671  13.374  35.491   6.199
 5029POPC   D2A64672  13.391  35.655   6.658
 5029POPC   C3A64673  13.639  35.643   7.061
 5029POPC   C4A64674  13.477  35.414   7.399
 5029POPC   C1B64675  13.674  35.026   6.096
 5029POPC   C2B64676  13.732  35.238   6.482
 5029POPC   C3B64677  13.709  35.172   6.909
 5029POPC   C4B64678  13.747  34.984   7.296
 5030POPC   NC364679   0.047  25.792   5.116
 5030POPC   PO464680  44.555  26.226   5.368
 5030POPC   GL164681  44.503  26.090   5.791
 5030POPC   GL264682  44.400  25.762   5.728
 5030POPC   C1A64683  44.705  26.032   6.230
 5030POPC   D2A64684  44.615  26.005   6.692
 5030POPC   C3A64685  44.917  26.195   6.989
 5030POPC   C4A64686  44.963  26.258   7.465
 5030POPC   C1B64687  44.271  25.789   6.151
 5030POPC   C2B64688  44.296  25.611   6.549
 5030POPC   C3B64689  44.213  25.753   6.973
 5030POPC   C4B64690  44.514  25.956   7.227
 5031POPC   NC364691  35.134  35.199   5.368
 5031POPC   PO464692  35.731  35.493   5.430
 5031POPC   GL164693  35.408  35.239   5.791
 5031POPC   GL264694  35.028  35.140   5.859
 5031POPC   C1A64695  35.330  35.116   6.270
 5031POPC   D2A64696  35.294  35.474   6.569
 5031POPC   C3A64697  35.433  35.362   6.985
 5031POPC   C4A64698  35.610  35.609   7.298
 5031POPC   C1B64699  35.082  35.530   6.089
 5031POPC   C2B64700  34.912  35.793   6.419
 5031POPC   C3B64701  34.789  35.723   6.846
 5031POPC   C4B64702  34.972  35.487   7.168
 5032POPC   NC364703   8.108   0.223   5.545
 5032POPC   PO464704   7.826   0.793   5.335
 5032POPC   GL164705   8.074   0.711   5.723
 5032POPC   GL264706   7.845   0.720   6.002
 5032POPC   C1A64707   8.353   0.594   6.097
 5032POPC   D2A64708   8.186   0.628   6.523
 5032POPC   C3A64709   8.292   0.372   6.866
 5032POPC   C4A64710   8.321   0.499   7.255
 5032POPC   C1B64711   7.961   0.292   6.165
 5032POPC   C2B64712   7.992   0.111   6.555
 5032POPC   C3B64713   7.793   0.175   6.921
 5032POPC   C4B64714   7.833   0.284   7.319
 5033POPC   NC364715   8.149   8.442   5.502
 5033POPC   PO464716   8.586   8.137   5.091
 5033POPC   GL164717   8.349   8.013   5.606
 5033POPC   GL264718   7.969   7.963   5.681
 5033POPC   C1A64719   8.273   8.065   6.084
 5033POPC   D2A64720   8.064   8.067   6.509
 5033POPC   C3A64721   8.248   8.100   6.926
 5033POPC   C4A64722   8.291   8.391   7.237
 5033POPC   C1B64723   7.782   8.166   6.082
 5033POPC   C2B64724   7.554   8.135   6.481
 5033POPC   C3B64725   7.634   8.201   6.895
 5033POPC   C4B64726   7.834   8.017   7.237
 5034POPC   NC364727   2.237   5.072   5.317
 5034POPC   PO464728   1.595   5.271   5.517
 5034POPC   GL164729   1.704   5.009   5.863
 5034POPC   GL264730   2.060   4.940   5.814
 5034POPC   C1A64731   1.751   4.927   6.327
 5034POPC   D2A64732   2.159   4.888   6.556
 5034POPC   C3A64733   2.157   5.049   6.953
 5034POPC   C4A64734   1.760   4.970   7.207
 5034POPC   C1B64735   2.095   5.265   6.143
 5034POPC   C2B64736   1.895   5.400   6.528
 5034POPC   C3B64737   1.849   5.460   6.962
 5034POPC   C4B64738   2.085   5.411   7.312
 5035POPC   NC364739   8.699  25.692   5.475
 5035POPC   PO464740   9.168  26.064   5.243
 5035POPC   GL164741   9.090  25.936   5.701
 5035POPC   GL264742   8.808  26.124   5.796
 5035POPC   C1A64743   9.068  25.802   6.172
 5035POPC   D2A64744   8.996  25.977   6.614
 5035POPC   C3A64745   9.328  25.882   6.950
 5035POPC   C4A64746   9.268  25.766   7.389
 5035POPC   C1B64747   8.689  26.205   6.241
 5035POPC   C2B64748   8.560  26.478   6.594
 5035POPC   C3B64749   8.692  26.437   7.012
 5035POPC   C4B64750   8.897  26.056   7.167
 5036POPC   NC364751  24.260  26.494   5.570
 5036POPC   PO464752  24.386  25.911   5.307
 5036POPC   GL164753  24.319  26.047   5.784
 5036POPC   GL264754  24.630  26.220   5.853
 5036POPC   C1A64755  24.293  26.342   6.207
 5036POPC   D2A64756  24.188  26.175   6.625
 5036POPC   C3A64757  24.470  26.230   6.985
 5036POPC   C4A64758  24.591  26.280   7.425
 5036POPC   C1B64759  24.537  25.905   6.230
 5036POPC   C2B64760  24.524  25.802   6.691
 5036POPC   C3B64761  24.293  25.718   7.078
 5036POPC   C4B64762  24.455  25.462   7.463
 5037POPC   NC364763  27.989  31.101   5.467
 5037POPC   PO464764  28.384  30.448   5.596
 5037POPC   GL164765  28.473  30.765   5.873
 5037POPC   GL264766  28.150  30.855   5.877
 5037POPC   C1A64767  28.487  30.799   6.316
 5037POPC   D2A64768  28.158  30.546   6.531
 5037POPC   C3A64769  28.145  30.581   6.983
 5037POPC   C4A64770  28.553  30.766   7.115
 5037POPC   C1B64771  28.109  31.133   6.212
 5037POPC   C2B64772  27.991  31.117   6.647
 5037POPC   C3B64773  28.143  31.095   7.060
 5037POPC   C4B64774  27.971  30.853   7.395
 5038POPC   NC364775  35.141  21.424   5.392
 5038POPC   PO464776  35.706  21.114   5.485
 5038POPC   GL164777  35.424  21.351   5.823
 5038POPC   GL264778  35.032  21.266   5.855
 5038POPC   C1A64779  35.259  21.496   6.241
 5038POPC   D2A64780  35.049  21.321   6.616
 5038POPC   C3A64781  34.927  21.530   6.978
 5038POPC   C4A64782  35.260  21.493   7.255
 5038POPC   C1B64783  35.121  20.994   6.234
 5038POPC   C2B64784  35.120  20.814   6.661
 5038POPC   C3B64785  35.082  21.017   7.074
 5038POPC   C4B64786  34.846  21.243   7.407
 5039POPC   NC364787  23.826  38.310   5.407
 5039POPC   PO464788  23.377  38.829   5.331
 5039POPC   GL164789  23.633  38.703   5.707
 5039POPC   GL264790  24.013  38.754   5.745
 5039POPC   C1A64791  23.672  38.819   6.143
 5039POPC   D2A64792  23.861  38.732   6.536
 5039POPC   C3A64793  23.683  38.839   6.898
 5039POPC   C4A64794  23.566  38.548   7.198
 5039POPC   C1B64795  24.073  38.479   6.118
 5039POPC   C2B64796  23.921  38.234   6.482
 5039POPC   C3B64797  23.963  38.355   6.932
 5039POPC   C4B64798  23.954  38.289   7.394
 5040POPC   NC364799  16.906  36.673   5.396
 5040POPC   PO464800  16.356  37.029   5.368
 5040POPC   GL164801  16.511  36.734   5.721
 5040POPC   GL264802  16.746  36.967   5.802
 5040POPC   C1A64803  16.673  36.584   6.164
 5040POPC   D2A64804  16.560  36.543   6.630
 5040POPC   C3A64805  16.540  36.864   6.975
 5040POPC   C4A64806  16.627  36.811   7.415
 5040POPC   C1B64807  16.930  37.020   6.174
 5040POPC   C2B64808  16.763  37.100   6.563
 5040POPC   C3B64809  16.983  37.212   6.942
 5040POPC   C4B64810  17.088  37.095   7.350
 5041POPC   NC364811  31.677  33.861   5.425
 5041POPC   PO464812  31.199  33.426   5.696
 5041POPC   GL164813  31.545  33.664   5.879
 5041POPC   GL264814  31.704  33.337   5.945
 5041POPC   C1A64815  31.527  33.984   6.239
 5041POPC   D2A64816  31.478  34.208   6.659
 5041POPC   C3A64817  31.494  34.084   7.136
 5041POPC   C4A64818  31.430  33.982   7.590
 5041POPC   C1B64819  31.475  33.449   6.324
 5041POPC   C2B64820  31.546  33.690   6.662
 5041POPC   C3B64821  31.462  33.521   7.009
 5041POPC   C4B64822  31.616  33.511   7.371
 5042POPC   NC364823  41.183  31.313   5.453
 5042POPC   PO464824  41.883  31.466   5.371
 5042POPC   GL164825  41.616  31.354   5.733
 5042POPC   GL264826  41.478  31.640   5.859
 5042POPC   C1A64827  41.656  31.305   6.199
 5042POPC   D2A64828  41.829  31.398   6.601
 5042POPC   C3A64829  41.603  31.464   6.973
 5042POPC   C4A64830  41.855  31.334   7.310
 5042POPC   C1B64831  41.634  31.927   6.146
 5042POPC   C2B64832  41.656  31.894   6.565
 5042POPC   C3B64833  41.890  31.946   6.904
 5042POPC   C4B64834  41.758  31.839   7.298
 5043POPC   NC364835  44.779  20.625   5.420
 5043POPC   PO464836  44.344  20.091   5.529
 5043POPC   GL164837  44.537  20.398   5.813
 5043POPC   GL264838  44.259  20.648   5.771
 5043POPC   C1A64839  44.789  20.614   6.186
 5043POPC   D2A64840  44.735  20.865   6.612
 5043POPC   C3A64841  44.963  20.708   7.001
 5043POPC   C4A64842  44.901  20.704   7.486
 5043POPC   C1B64843  44.203  20.443   6.185
 5043POPC   C2B64844  44.365  20.515   6.610
 5043POPC   C3B64845  44.398  20.531   7.065
 5043POPC   C4B64846  44.324  20.647   7.507
 5044POPC   NC364847  27.071  30.455   5.481
 5044POPC   PO464848  26.755  29.833   5.365
 5044POPC   GL164849  26.775  30.105   5.710
 5044POPC   GL264850  26.865  29.817   5.882
 5044POPC   C1A64851  26.911  30.261   6.113
 5044POPC   D2A64852  26.875  30.000   6.483
 5044POPC   C3A64853  26.856  30.223   6.869
 5044POPC   C4A64854  26.664  30.279   7.253
 5044POPC   C1B64855  26.789  29.545   6.218
 5044POPC   C2B64856  26.611  29.536   6.608
 5044POPC   C3B64857  26.645  29.643   7.018
 5044POPC   C4B64858  26.883  29.418   7.271
 5045POPC   NC364859  30.212  36.654   5.453
 5045POPC   PO464860  30.002  36.017   5.567
 5045POPC   GL164861  29.847  36.317   5.815
 5045POPC   GL264862  30.215  36.347   5.900
 5045POPC   C1A64863  29.654  36.132   6.182
 5045POPC   D2A64864  29.785  36.002   6.589
 5045POPC   C3A64865  29.727  36.170   6.994
 5045POPC   C4A64866  29.512  35.877   7.192
 5045POPC   C1B64867  30.063  36.399   6.328
 5045POPC   C2B64868  30.157  36.346   6.750
 5045POPC   C3B64869  30.209  36.232   7.180
 5045POPC   C4B64870  30.336  36.347   7.556
 5046POPC   NC364871  38.682  22.804   5.398
 5046POPC   PO464872  38.228  23.260   5.275
 5046POPC   GL164873  38.356  23.025   5.725
 5046POPC   GL264874  38.490  22.665   5.844
 5046POPC   C1A64875  38.210  22.975   6.161
 5046POPC   D2A64876  38.377  22.808   6.558
 5046POPC   C3A64877  38.416  23.158   6.854
 5046POPC   C4A64878  38.272  23.172   7.293
 5046POPC   C1B64879  38.801  22.526   6.182
 5046POPC   C2B64880  38.775  22.437   6.653
 5046POPC   C3B64881  38.534  22.625   7.043
 5046POPC   C4B64882  38.743  22.637   7.496
 5047POPC   NC364883  36.729   0.403   5.246
 5047POPC   PO464884  37.218   0.607   5.463
 5047POPC   GL164885  36.893   0.502   5.788
 5047POPC   GL264886  36.770   0.164   5.835
 5047POPC   C1A64887  37.002   0.455   6.253
 5047POPC   D2A64888  37.140   0.653   6.663
 5047POPC   C3A64889  37.192   0.371   7.020
 5047POPC   C4A64890  37.007   0.027   7.183
 5047POPC   C1B64891  36.723   0.007   6.284
 5047POPC   C2B64892  36.765   0.212   6.715
 5047POPC   C3B64893  36.559   0.300   7.126
 5047POPC   C4B64894  36.436   0.441   7.550
 5048POPC   NC364895   5.206  38.398   5.556
 5048POPC   PO464896   4.631  38.845   5.536
 5048POPC   GL164897   4.848  38.604   5.840
 5048POPC   GL264898   4.819  38.287   5.863
 5048POPC   C1A64899   5.163  38.560   6.201
 5048POPC   D2A64900   5.018  38.697   6.618
 5048POPC   C3A64901   5.238  38.609   6.985
 5048POPC   C4A64902   5.529  38.876   7.196
 5048POPC   C1B64903   4.896  38.127   6.252
 5048POPC   C2B64904   4.735  38.282   6.633
 5048POPC   C3B64905   4.723  38.520   7.040
 5048POPC   C4B64906   4.837  38.315   7.421
 5049POPC   NC364907  22.923  38.780   5.484
 5049POPC   PO464908  23.205  39.284   5.065
 5049POPC   GL164909  23.098  39.296   5.532
 5049POPC   GL264910  23.262  39.074   5.745
 5049POPC   C1A64911  22.900  39.338   5.977
 5049POPC   D2A64912  22.842  39.214   6.430
 5049POPC   C3A64913  22.868  39.475   6.788
 5049POPC   C4A64914  22.991  39.374   7.199
 5049POPC   C1B64915  23.180  38.924   6.145
 5049POPC   C2B64916  23.319  38.948   6.548
 5049POPC   C3B64917  23.093  38.961   6.915
 5049POPC   C4B64918  22.953  38.845   7.318
 5050POPC   NC364919   9.493  30.428   5.326
 5050POPC   PO464920  10.023  30.817   5.489
 5050POPC   GL164921   9.857  30.579   5.837
 5050POPC   GL264922   9.492  30.503   5.836
 5050POPC   C1A64923   9.913  30.698   6.272
 5050POPC   D2A64924   9.868  30.528   6.669
 5050POPC   C3A64925   9.878  30.797   7.020
 5050POPC   C4A64926   9.888  30.524   7.364
 5050POPC   C1B64927   9.470  30.876   6.094
 5050POPC   C2B64928   9.491  30.871   6.559
 5050POPC   C3B64929   9.416  30.572   6.909
 5050POPC   C4B64930   9.396  30.578   7.337
 5051POPC   NC364931   0.743  39.426   5.234
 5051POPC   PO464932   0.391  38.944   5.479
 5051POPC   GL164933   0.296  39.090   5.868
 5051POPC   GL264934   0.244  39.421   5.818
 5051POPC   C1A64935   0.404  38.977   6.253
 5051POPC   D2A64936   0.487  39.206   6.596
 5051POPC   C3A64937   0.327  39.038   6.950
 5051POPC   C4A64938   0.435  39.110   7.375
 5051POPC   C1B64939   0.244  39.516   6.258
 5051POPC   C2B64940   0.495  39.729   6.602
 5051POPC   C3B64941   0.530  39.529   7.013
 5051POPC   C4B64942   0.097  39.441   7.127
 5052POPC   NC364943  44.709  35.189   5.643
 5052POPC   PO464944  44.900  35.744   5.380
 5052POPC   GL164945  44.795  35.655   5.841
 5052POPC   GL264946  44.444  35.519   5.933
 5052POPC   C1A64947  44.774  35.641   6.326
 5052POPC   D2A64948  44.725  35.238   6.572
 5052POPC   C3A64949  44.815  35.208   7.001
 5052POPC   C4A64950  44.603  35.572   7.166
 5052POPC   C1B64951  44.318  35.143   6.201
 5052POPC   C2B64952  44.207  35.072   6.641
 5052POPC   C3B64953  44.360  34.842   6.985
 5052POPC   C4B64954  44.679  34.705   7.229
 5053POPC   NC364955  17.686  27.562   5.300
 5053POPC   PO464956  17.106  27.219   5.479
 5053POPC   GL164957  17.437  27.509   5.760
 5053POPC   GL264958  17.720  27.788   5.746
 5053POPC   C1A64959  17.621  27.471   6.173
 5053POPC   D2A64960  17.574  27.341   6.605
 5053POPC   C3A64961  17.363  27.591   6.898
 5053POPC   C4A64962  17.169  27.560   7.296
 5053POPC   C1B64963  18.044  27.740   6.064
 5053POPC   C2B64964  18.039  27.585   6.491
 5053POPC   C3B64965  17.874  27.629   6.912
 5053POPC   C4B64966  17.682  27.532   7.314
 5054POPC   NC364967  29.327  32.551   5.264
 5054POPC   PO464968  28.954  31.976   5.521
 5054POPC   GL164969  28.961  32.342   5.741
 5054POPC   GL264970  29.331  32.362   5.784
 5054POPC   C1A64971  28.998  32.486   6.173
 5054POPC   D2A64972  29.104  32.399   6.592
 5054POPC   C3A64973  28.799  32.206   6.859
 5054POPC   C4A64974  28.828  32.004   7.266
 5054POPC   C1B64975  29.354  32.107   6.193
 5054POPC   C2B64976  29.527  32.106   6.645
 5054POPC   C3B64977  29.301  32.072   7.055
 5054POPC   C4B64978  29.381  32.001   7.521
 5055POPC   NC364979  24.244  31.175   5.578
 5055POPC   PO464980  24.642  31.690   5.531
 5055POPC   GL164981  24.491  31.561   5.866
 5055POPC   GL264982  24.670  31.242   5.850
 5055POPC   C1A64983  24.273  31.699   6.219
 5055POPC   D2A64984  24.244  31.482   6.610
 5055POPC   C3A64985  24.468  31.593   6.953
 5055POPC   C4A64986  24.312  31.852   7.266
 5055POPC   C1B64987  24.456  31.210   6.236
 5055POPC   C2B64988  24.617  31.101   6.626
 5055POPC   C3B64989  24.818  31.175   7.004
 5055POPC   C4B64990  24.550  31.240   7.301
 5056POPC   NC364991  10.187  13.331   4.764
 5056POPC   PO464992   9.862  13.546   5.296
 5056POPC   GL164993   9.732  13.650   5.733
 5056POPC   GL264994   9.742  13.328   5.901
 5056POPC   C1A64995   9.766  13.810   6.164
 5056POPC   D2A64996   9.971  14.049   6.484
 5056POPC   C3A64997   9.944  13.864   6.899
 5056POPC   C4A64998   9.826  13.791   7.315
 5056POPC   C1B64999   9.997  13.357   6.278
 5056POPC   C2B65000   9.950  13.275   6.715
 5056POPC   C3B65001   9.739  13.330   7.117
 5056POPC   C4B65002   9.936  13.366   7.566
 5057POPC   NC365003   4.210  21.650   5.448
 5057POPC   PO465004   4.839  21.360   5.334
 5057POPC   GL165005   4.614  21.340   5.781
 5057POPC   GL265006   4.258  21.455   5.913
 5057POPC   C1A65007   4.638  21.456   6.240
 5057POPC   D2A65008   4.763  21.586   6.655
 5057POPC   C3A65009   4.589  21.240   6.941
 5057POPC   C4A65010   4.368  21.280   7.335
 5057POPC   C1B65011   4.053  21.303   6.290
 5057POPC   C2B65012   4.102  21.242   6.751
 5057POPC   C3B65013   4.119  20.918   7.060
 5057POPC   C4B65014   4.111  20.899   7.537
 5058POPC   NC365015  31.952   7.474   5.389
 5058POPC   PO465016  32.579   7.648   5.185
 5058POPC   GL165017  32.332   7.649   5.664
 5058POPC   GL265018  32.174   7.369   5.856
 5058POPC   C1A65019  32.337   7.786   6.121
 5058POPC   D2A65020  32.128   7.916   6.502
 5058POPC   C3A65021  32.233   7.707   6.879
 5058POPC   C4A65022  32.266   7.531   7.312
 5058POPC   C1B65023  32.362   7.291   6.281
 5058POPC   C2B65024  32.387   7.229   6.732
 5058POPC   C3B65025  32.480   7.101   7.143
 5058POPC   C4B65026  32.204   7.071   7.543
 5059POPC   NC365027  44.684   4.409   5.320
 5059POPC   PO465028  44.551   3.774   5.279
 5059POPC   GL165029  44.509   4.023   5.688
 5059POPC   GL265030  44.423   4.398   5.750
 5059POPC   C1A65031  44.711   4.150   6.083
 5059POPC   D2A65032  44.593   4.227   6.497
 5059POPC   C3A65033  44.924   4.248   6.769
 5059POPC   C4A65034  44.934   4.090   7.158
 5059POPC   C1B65035  44.300   4.583   6.147
 5059POPC   C2B65036  44.418   4.727   6.519
 5059POPC   C3B65037  44.722   4.778   6.809
 5059POPC   C4B65038  44.655   4.507   7.126
 5060POPC   NC365039  27.606  39.616   5.645
 5060POPC   PO465040  27.826  40.259   5.447
 5060POPC   GL165041  27.815  40.056   5.829
 5060POPC   GL265042  27.445  40.035   5.929
 5060POPC   C1A65043  27.867  40.142   6.254
 5060POPC   D2A65044  27.588  40.170   6.594
 5060POPC   C3A65045  27.824  40.125   6.928
 5060POPC   C4A65046  27.758  40.395   7.194
 5060POPC   C1B65047  27.178  40.055   6.302
 5060POPC   C2B65048  27.199  39.793   6.695
 5060POPC   C3B65049  27.366  39.921   7.057
 5060POPC   C4B65050  27.278  40.236   7.316
 5061POPC   NC365051   5.618  20.249   5.169
 5061POPC   PO465052   5.643  20.872   5.535
 5061POPC   GL165053   5.846  20.788   5.934
 5061POPC   GL265054   6.105  20.583   5.804
 5061POPC   C1A65055   5.800  20.729   6.378
 5061POPC   D2A65056   5.864  20.805   6.814
 5061POPC   C3A65057   5.528  20.592   7.095
 5061POPC   C4A65058   5.454  20.669   7.549
 5061POPC   C1B65059   6.149  20.362   6.206
 5061POPC   C2B65060   5.980  20.303   6.633
 5061POPC   C3B65061   5.995  20.397   7.083
 5061POPC   C4B65062   5.907  20.410   7.523
 5062POPC   NC365063   2.966   3.276   5.503
 5062POPC   PO465064   2.549   2.643   5.468
 5062POPC   GL165065   2.775   2.868   5.801
 5062POPC   GL265066   2.777   2.561   5.988
 5062POPC   C1A65067   2.932   2.992   6.221
 5062POPC   D2A65068   2.905   2.717   6.584
 5062POPC   C3A65069   2.667   2.789   6.961
 5062POPC   C4A65070   2.535   2.769   7.379
 5062POPC   C1B65071   3.209   2.553   6.180
 5062POPC   C2B65072   3.417   2.768   6.582
 5062POPC   C3B65073   3.171   2.973   6.947
 5062POPC   C4B65074   3.069   2.862   7.368
 5063POPC   NC365075  25.215   4.381   5.337
 5063POPC   PO465076  25.508   3.819   5.462
 5063POPC   GL165077  25.385   4.128   5.790
 5063POPC   GL265078  25.042   4.060   5.717
 5063POPC   C1A65079  25.327   4.379   6.212
 5063POPC   D2A65080  25.321   4.260   6.685
 5063POPC   C3A65081  25.339   4.562   7.066
 5063POPC   C4A65082  25.334   4.673   7.544
 5063POPC   C1B65083  24.894   4.113   6.131
 5063POPC   C2B65084  24.848   4.051   6.565
 5063POPC   C3B65085  24.907   4.165   6.986
 5063POPC   C4B65086  24.741   4.083   7.390
 5064POPC   NC365087  15.611   9.580   5.338
 5064POPC   PO465088  16.258   9.591   5.190
 5064POPC   GL165089  15.979   9.707   5.639
 5064POPC   GL265090  16.077   9.979   5.831
 5064POPC   C1A65091  15.827   9.644   6.106
 5064POPC   D2A65092  15.736   9.861   6.513
 5064POPC   C3A65093  15.673   9.579   6.820
 5064POPC   C4A65094  16.040   9.574   7.047
 5064POPC   C1B65095  15.929  10.184   6.183
 5064POPC   C2B65096  16.174  10.276   6.547
 5064POPC   C3B65097  16.222  10.134   6.937
 5064POPC   C4B65098  15.851  10.043   7.068
 5065POPC   NC365099  19.619  44.109   5.528
 5065POPC   PO465100  20.020  43.546   5.596
 5065POPC   GL165101  19.825  43.809   5.915
 5065POPC   GL265102  19.972  44.155   5.895
 5065POPC   C1A65103  19.814  43.835   6.358
 5065POPC   D2A65104  19.613  43.963   6.737
 5065POPC   C3A65105  19.717  43.648   6.991
 5065POPC   C4A65106  20.042  43.724   7.234
 5065POPC   C1B65107  19.781  44.331   6.249
 5065POPC   C2B65108  19.991  44.289   6.660
 5065POPC   C3B65109  19.929  44.219   7.113
 5065POPC   C4B65110  19.960  44.279   7.581
 5066POPC   NC365111  15.385   4.391   5.432
 5066POPC   PO465112  14.953   3.884   5.467
 5066POPC   GL165113  14.930   4.081   5.880
 5066POPC   GL265114  15.219   4.337   5.936
 5066POPC   C1A65115  14.772   4.139   6.313
 5066POPC   D2A65116  14.985   4.299   6.703
 5066POPC   C3A65117  14.937   4.057   7.087
 5066POPC   C4A65118  15.102   4.065   7.528
 5066POPC   C1B65119  15.559   4.362   6.293
 5066POPC   C2B65120  15.573   4.328   6.750
 5066POPC   C3B65121  15.458   4.198   7.150
 5066POPC   C4B65122  15.453   4.420   7.539
 5067POPC   NC365123  44.363  17.176   5.404
 5067POPC   PO465124  44.792  17.718   5.449
 5067POPC   GL165125  44.555  17.545   5.746
 5067POPC   GL265126  44.390  17.870   5.797
 5067POPC   C1A65127  44.528  17.380   6.172
 5067POPC   D2A65128  44.450  17.635   6.569
 5067POPC   C3A65129  44.456  17.409   6.960
 5067POPC   C4A65130  44.806  17.253   7.225
 5067POPC   C1B65131  44.692  17.846   6.143
 5067POPC   C2B65132  44.941  17.636   6.454
 5067POPC   C3B65133  44.903  17.670   6.916
 5067POPC   C4B65134  44.620  17.793   7.273
 5068POPC   NC365135  12.349   6.192   4.938
 5068POPC   PO465136  12.090   6.528   5.482
 5068POPC   GL165137  12.099   6.681   5.916
 5068POPC   GL265138  11.921   7.018   5.962
 5068POPC   C1A65139  12.291   6.480   6.282
 5068POPC   D2A65140  12.337   6.261   6.688
 5068POPC   C3A65141  12.231   6.445   7.080
 5068POPC   C4A65142  11.989   6.301   7.460
 5068POPC   C1B65143  11.758   6.829   6.312
 5068POPC   C2B65144  11.945   6.648   6.672
 5068POPC   C3B65145  11.876   6.819   7.067
 5068POPC   C4B65146  11.802   7.117   7.371
 5069POPC   NC365147   9.829  14.646   5.384
 5069POPC   PO465148   9.613  14.124   5.411
 5069POPC   GL165149   9.762  14.293   5.779
 5069POPC   GL265150  10.051  14.151   5.910
 5069POPC   C1A65151   9.634  14.324   6.232
 5069POPC   D2A65152   9.485  14.096   6.635
 5069POPC   C3A65153   9.599  14.215   7.071
 5069POPC   C4A65154   9.821  14.264   7.474
 5069POPC   C1B65155  10.072  14.553   6.093
 5069POPC   C2B65156  10.142  14.563   6.524
 5069POPC   C3B65157  10.038  14.452   6.952
 5069POPC   C4B65158  10.114  14.706   7.317
 5070POPC   NC365159  42.504   1.164   5.319
 5070POPC   PO465160  42.592   1.726   5.658
 5070POPC   GL165161  42.345   1.413   5.829
 5070POPC   GL265162  42.315   1.027   5.784
 5070POPC   C1A65163  42.474   1.301   6.224
 5070POPC   D2A65164  42.499   1.144   6.613
 5070POPC   C3A65165  42.436   1.428   6.923
 5070POPC   C4A65166  42.308   1.416   7.332
 5070POPC   C1B65167  42.366   0.812   6.200
 5070POPC   C2B65168  42.255   0.698   6.633
 5070POPC   C3B65169  42.248   0.945   7.019
 5070POPC   C4B65170  42.126   0.959   7.459
 5071POPC   NC365171  25.307   3.391   5.447
 5071POPC   PO465172  24.736   3.665   5.564
 5071POPC   GL165173  24.973   3.433   5.835
 5071POPC   GL265174  25.282   3.624   5.904
 5071POPC   C1A65175  24.961   3.413   6.260
 5071POPC   D2A65176  24.755   3.532   6.609
 5071POPC   C3A65177  25.063   3.669   6.868
 5071POPC   C4A65178  25.146   3.764   7.248
 5071POPC   C1B65179  25.477   3.269   6.110
 5071POPC   C2B65180  25.673   3.209   6.500
 5071POPC   C3B65181  25.415   3.261   6.839
 5071POPC   C4B65182  25.498   3.409   7.223
 5072POPC   NC365183  43.705  32.991   5.393
 5072POPC   PO465184  43.372  33.540   5.387
 5072POPC   GL165185  43.645  33.404   5.782
 5072POPC   GL265186  43.892  33.121   5.840
 5072POPC   C1A65187  43.565  33.225   6.210
 5072POPC   D2A65188  43.906  33.061   6.475
 5072POPC   C3A65189  43.818  32.977   6.909
 5072POPC   C4A65190  43.822  33.227   7.263
 5072POPC   C1B65191  44.105  32.790   6.071
 5072POPC   C2B65192  44.297  32.717   6.479
 5072POPC   C3B65193  44.304  32.746   6.936
 5072POPC   C4B65194  44.130  32.831   7.358
 5073POPC   NC365195  10.739   5.010   5.323
 5073POPC   PO465196  10.527   5.604   5.440
 5073POPC   GL165197  10.499   5.300   5.770
 5073POPC   GL265198  10.405   4.943   5.744
 5073POPC   C1A65199  10.633   5.227   6.182
 5073POPC   D2A65200  10.796   5.244   6.607
 5073POPC   C3A65201  10.665   5.287   7.043
 5073POPC   C4A65202  10.578   5.005   7.410
 5073POPC   C1B65203  10.420   4.688   6.114
 5073POPC   C2B65204  10.505   4.837   6.515
 5073POPC   C3B65205  10.383   4.889   6.934
 5073POPC   C4B65206  10.182   4.721   7.263
 5074POPC   NC365207  24.743  20.425   5.437
 5074POPC   PO465208  24.146  20.754   5.470
 5074POPC   GL165209  24.092  20.499   5.843
 5074POPC   GL265210  24.361  20.268   5.750
 5074POPC   C1A65211  24.210  20.640   6.284
 5074POPC   D2A65212  24.629  20.780   6.475
 5074POPC   C3A65213  24.731  20.694   6.921
 5074POPC   C4A65214  24.464  20.894   7.246
 5074POPC   C1B65215  24.598  20.368   6.144
 5074POPC   C2B65216  24.467  20.303   6.613
 5074POPC   C3B65217  24.348  20.398   7.069
 5074POPC   C4B65218  24.420  20.181   7.475
 5075POPC   NC365219  41.736  13.212   5.189
 5075POPC   PO465220  41.628  12.550   5.332
 5075POPC   GL165221  41.700  12.753   5.735
 5075POPC   GL265222  41.855  13.060   5.688
 5075POPC   C1A65223  41.606  12.766   6.179
 5075POPC   D2A65224  41.299  12.792   6.498
 5075POPC   C3A65225  41.403  12.818   6.910
 5075POPC   C4A65226  41.581  12.807   7.300
 5075POPC   C1B65227  41.849  13.223   6.125
 5075POPC   C2B65228  41.661  13.187   6.557
 5075POPC   C3B65229  41.740  13.216   7.021
 5075POPC   C4B65230  42.031  13.062   7.360
 5076POPC   NC365231   8.588  27.620   5.728
 5076POPC   PO465232   8.056  27.359   5.422
 5076POPC   GL165233   8.106  27.535   5.863
 5076POPC   GL265234   8.273  27.234   5.927
 5076POPC   C1A65235   8.149  27.783   6.281
 5076POPC   D2A65236   8.031  27.898   6.734
 5076POPC   C3A65237   8.153  27.677   7.138
 5076POPC   C4A65238   7.933  27.686   7.541
 5076POPC   C1B65239   8.449  27.343   6.313
 5076POPC   C2B65240   8.663  27.307   6.658
 5076POPC   C3B65241   8.464  27.147   6.981
 5076POPC   C4B65242   8.250  27.213   7.387
 5077POPC   NC365243  23.491  41.113   5.105
 5077POPC   PO465244  23.431  41.733   5.391
 5077POPC   GL165245  23.211  41.710   5.801
 5077POPC   GL265246  23.288  41.368   5.897
 5077POPC   C1A65247  23.343  41.728   6.256
 5077POPC   D2A65248  23.521  41.370   6.510
 5077POPC   C3A65249  23.597  41.420   6.959
 5077POPC   C4A65250  23.570  41.799   7.250
 5077POPC   C1B65251  23.732  41.447   6.041
 5077POPC   C2B65252  24.025  41.442   6.415
 5077POPC   C3B65253  24.009  41.687   6.794
 5077POPC   C4B65254  24.093  41.726   7.227
 5078POPC   NC365255  37.861   8.378   5.258
 5078POPC   PO465256  37.543   7.802   5.431
 5078POPC   GL165257  37.839   8.052   5.693
 5078POPC   GL265258  37.737   8.397   5.756
 5078POPC   C1A65259  37.872   8.003   6.157
 5078POPC   D2A65260  37.851   8.183   6.579
 5078POPC   C3A65261  37.788   7.947   6.939
 5078POPC   C4A65262  37.596   8.010   7.311
 5078POPC   C1B65263  37.740   8.512   6.191
 5078POPC   C2B65264  37.525   8.575   6.596
 5078POPC   C3B65265  37.620   8.429   7.004
 5078POPC   C4B65266  37.941   8.573   7.293
 5079POPC   NC365267   8.578  33.578   5.560
 5079POPC   PO465268   8.936  34.085   5.422
 5079POPC   GL165269   8.972  33.876   5.818
 5079POPC   GL265270   9.034  33.498   5.815
 5079POPC   C1A65271   8.953  34.057   6.239
 5079POPC   D2A65272   9.241  34.204   6.566
 5079POPC   C3A65273   8.985  34.117   6.908
 5079POPC   C4A65274   8.927  33.835   7.219
 5079POPC   C1B65275   8.760  33.566   6.192
 5079POPC   C2B65276   8.644  33.680   6.604
 5079POPC   C3B65277   8.827  33.443   6.933
 5079POPC   C4B65278   8.927  33.354   7.407
 5080POPC   NC365279  26.996  41.105   5.225
 5080POPC   PO465280  26.853  40.462   5.431
 5080POPC   GL165281  26.879  40.808   5.724
 5080POPC   GL265282  27.210  40.969   5.731
 5080POPC   C1A65283  26.719  40.719   6.143
 5080POPC   D2A65284  26.777  40.886   6.548
 5080POPC   C3A65285  26.797  40.693   6.954
 5080POPC   C4A65286  26.675  40.828   7.366
 5080POPC   C1B65287  27.059  41.093   6.171
 5080POPC   C2B65288  27.024  41.308   6.617
 5080POPC   C3B65289  26.936  41.210   7.085
 5080POPC   C4B65290  27.015  41.147   7.556
 5081POPC   NC365291  13.035  11.426   4.555
 5081POPC   PO465292  12.779  11.361   5.199
 5081POPC   GL165293  12.825  11.309   5.702
 5081POPC   GL265294  13.077  11.528   5.834
 5081POPC   C1A65295  12.657  11.152   6.146
 5081POPC   D2A65296  12.797  11.131   6.584
 5081POPC   C3A65297  12.558  11.371   6.881
 5081POPC   C4A65298  12.484  11.570   7.257
 5081POPC   C1B65299  13.144  11.316   6.245
 5081POPC   C2B65300  13.292  11.450   6.691
 5081POPC   C3B65301  13.032  11.536   7.054
 5081POPC   C4B65302  12.959  11.240   7.373
 5082POPC   NC365303  32.770   7.835   5.557
 5082POPC   PO465304  32.948   8.411   5.195
 5082POPC   GL165305  32.970   8.432   5.678
 5082POPC   GL265306  33.087   8.129   5.836
 5082POPC   C1A65307  33.137   8.528   6.130
 5082POPC   D2A65308  32.997   8.408   6.553
 5082POPC   C3A65309  33.212   8.453   6.931
 5082POPC   C4A65310  33.154   8.407   7.351
 5082POPC   C1B65311  33.223   8.019   6.273
 5082POPC   C2B65312  33.062   7.935   6.723
 5082POPC   C3B65313  33.106   7.901   7.175
 5082POPC   C4B65314  33.462   8.004   7.361
 5083POPC   NC365315  24.369   7.710   5.488
 5083POPC   PO465316  24.786   7.102   5.431
 5083POPC   GL165317  24.540   7.307   5.778
 5083POPC   GL265318  24.691   7.636   5.871
 5083POPC   C1A65319  24.366   7.437   6.190
 5083POPC   D2A65320  24.230   7.650   6.569
 5083POPC   C3A65321  24.241   7.472   6.973
 5083POPC   C4A65322  24.383   7.463   7.413
 5083POPC   C1B65323  24.565   7.904   6.179
 5083POPC   C2B65324  24.722   7.969   6.577
 5083POPC   C3B65325  24.570   7.867   6.957
 5083POPC   C4B65326  24.753   7.901   7.348
 5084POPC   NC365327   9.334   3.671   5.261
 5084POPC   PO465328  10.014   3.824   5.355
 5084POPC   GL165329   9.785   3.830   5.742
 5084POPC   GL265330  10.078   3.829   5.886
 5084POPC   C1A65331   9.660   3.807   6.214
 5084POPC   D2A65332   9.547   3.869   6.673
 5084POPC   C3A65333   9.503   3.444   6.900
 5084POPC   C4A65334   9.376   3.336   7.303
 5084POPC   C1B65335  10.103   3.558   6.248
 5084POPC   C2B65336   9.956   3.585   6.658
 5084POPC   C3B65337   9.924   3.637   7.090
 5084POPC   C4B65338   9.867   3.256   7.254
 5085POPC   NC365339  21.630  42.641   5.402
 5085POPC   PO465340  21.458  41.999   5.381
 5085POPC   GL165341  21.611  42.215   5.704
 5085POPC   GL265342  21.374  42.447   5.834
 5085POPC   C1A65343  21.695  42.169   6.127
 5085POPC   D2A65344  21.489  42.460   6.390
 5085POPC   C3A65345  21.495  42.334   6.797
 5085POPC   C4A65346  21.480  42.382   7.221
 5085POPC   C1B65347  21.096  42.219   6.144
 5085POPC   C2B65348  21.132  42.030   6.538
 5085POPC   C3B65349  21.006  42.144   6.949
 5085POPC   C4B65350  21.086  42.096   7.378
 5086POPC   NC365351  44.013   9.847   5.307
 5086POPC   PO465352  43.540   9.469   5.024
 5086POPC   GL165353  43.715   9.552   5.580
 5086POPC   GL265354  43.981   9.842   5.794
 5086POPC   C1A65355  43.679   9.638   6.102
 5086POPC   D2A65356  43.604   9.834   6.521
 5086POPC   C3A65357  43.751   9.547   6.833
 5086POPC   C4A65358  43.932   9.539   7.244
 5086POPC   C1B65359  43.955  10.087   6.218
 5086POPC   C2B65360  44.024  10.165   6.674
 5086POPC   C3B65361  43.898  10.010   7.080
 5086POPC   C4B65362  44.169   9.972   7.451
 5087POPC   NC365363   0.801  31.678   5.372
 5087POPC   PO465364   1.361  31.434   5.160
 5087POPC   GL165365   1.221  31.455   5.647
 5087POPC   GL265366   0.999  31.657   5.853
 5087POPC   C1A65367   1.370  31.393   6.102
 5087POPC   D2A65368   1.238  31.321   6.528
 5087POPC   C3A65369   1.415  31.362   6.957
 5087POPC   C4A65370   1.355  31.811   7.097
 5087POPC   C1B65371   0.831  31.423   6.221
 5087POPC   C2B65372   0.735  31.314   6.656
 5087POPC   C3B65373   0.933  31.512   7.015
 5087POPC   C4B65374   1.037  31.640   7.455
 5088POPC   NC365375   7.126  35.660   5.358
 5088POPC   PO465376   7.314  36.380   5.239
 5088POPC   GL165377   7.438  36.190   5.700
 5088POPC   GL265378   7.314  35.845   5.792
 5088POPC   C1A65379   7.512  36.191   6.204
 5088POPC   D2A65380   7.473  36.416   6.643
 5088POPC   C3A65381   7.576  36.189   7.078
 5088POPC   C4A65382   7.549  35.750   7.288
 5088POPC   C1B65383   7.062  35.961   6.169
 5088POPC   C2B65384   7.067  36.092   6.607
 5088POPC   C3B65385   7.135  35.939   7.034
 5088POPC   C4B65386   7.075  35.790   7.456
 5089POPC   NC365387  30.181  17.957   4.970
 5089POPC   PO465388  29.934  18.388   5.278
 5089POPC   GL165389  30.106  18.313   5.701
 5089POPC   GL265390  30.146  17.950   5.783
 5089POPC   C1A65391  30.112  18.377   6.155
 5089POPC   D2A65392  29.744  18.431   6.449
 5089POPC   C3A65393  29.762  18.361   6.903
 5089POPC   C4A65394  30.146  18.431   7.087
 5089POPC   C1B65395  30.178  17.886   6.252
 5089POPC   C2B65396  30.157  18.148   6.629
 5089POPC   C3B65397  30.044  17.933   7.006
 5089POPC   C4B65398  29.812  17.889   7.405
 5090POPC   NC365399  36.357   8.688   5.524
 5090POPC   PO465400  36.195   8.071   5.385
 5090POPC   GL165401  36.049   8.323   5.729
 5090POPC   GL265402  36.356   8.350   5.931
 5090POPC   C1A65403  35.870   8.302   6.123
 5090POPC   D2A65404  35.828   8.050   6.494
 5090POPC   C3A65405  36.060   8.312   6.800
 5090POPC   C4A65406  36.016   8.168   7.181
 5090POPC   C1B65407  36.304   8.167   6.358
 5090POPC   C2B65408  36.356   7.902   6.759
 5090POPC   C3B65409  36.483   8.010   7.191
 5090POPC   C4B65410  36.315   8.373   7.543
 5091POPC   NC365411  25.157   8.326   5.501
 5091POPC   PO465412  25.645   8.759   5.658
 5091POPC   GL165413  25.564   8.331   5.844
 5091POPC   GL265414  25.450   7.966   5.769
 5091POPC   C1A65415  25.391   8.186   6.250
 5091POPC   D2A65416  25.116   8.331   6.595
 5091POPC   C3A65417  25.236   8.256   7.053
 5091POPC   C4A65418  25.038   8.321   7.489
 5091POPC   C1B65419  25.165   7.746   6.075
 5091POPC   C2B65420  25.210   7.769   6.523
 5091POPC   C3B65421  25.106   7.757   6.965
 5091POPC   C4B65422  25.265   7.854   7.392
 5092POPC   NC365423  14.515  39.311   5.215
 5092POPC   PO465424  14.090  38.816   5.518
 5092POPC   GL165425  14.249  39.015   5.855
 5092POPC   GL265426  14.520  39.217   5.727
 5092POPC   C1A65427  14.255  39.119   6.282
 5092POPC   D2A65428  14.310  39.389   6.627
 5092POPC   C3A65429  14.528  39.161   6.952
 5092POPC   C4A65430  14.453  39.058   7.379
 5092POPC   C1B65431  14.789  39.289   6.094
 5092POPC   C2B65432  14.906  39.366   6.539
 5092POPC   C3B65433  14.706  39.618   6.830
 5092POPC   C4B65434  14.572  39.573   7.289
 5093POPC   NC365435  22.723  16.654   5.258
 5093POPC   PO465436  22.060  16.801   5.478
 5093POPC   GL165437  22.352  16.800   5.795
 5093POPC   GL265438  22.102  16.986   5.952
 5093POPC   C1A65439  22.393  16.638   6.222
 5093POPC   D2A65440  22.576  16.693   6.654
 5093POPC   C3A65441  22.341  16.514   7.015
 5093POPC   C4A65442  21.970  16.590   7.266
 5093POPC   C1B65443  21.836  16.947   6.281
 5093POPC   C2B65444  22.062  16.767   6.610
 5093POPC   C3B65445  22.061  16.973   6.974
 5093POPC   C4B65446  21.855  17.273   7.195
 5094POPC   NC365447   8.180  35.240   5.297
 5094POPC   PO465448   7.542  35.419   5.392
 5094POPC   GL165449   7.926  35.336   5.721
 5094POPC   GL265450   8.326  35.368   5.753
 5094POPC   C1A65451   8.032  35.310   6.153
 5094POPC   D2A65452   8.035  35.191   6.554
 5094POPC   C3A65453   8.219  35.447   6.833
 5094POPC   C4A65454   7.958  35.444   7.193
 5094POPC   C1B65455   8.539  35.234   6.120
 5094POPC   C2B65456   8.526  35.063   6.504
 5094POPC   C3B65457   8.572  35.083   6.902
 5094POPC   C4B65458   8.422  35.250   7.263
 5095POPC   NC365459  23.269  11.440   5.477
 5095POPC   PO465460  23.992  11.484   5.469
 5095POPC   GL165461  23.704  11.386   5.841
 5095POPC   GL265462  23.345  11.449   5.977
 5095POPC   C1A65463  23.792  11.362   6.290
 5095POPC   D2A65464  23.832  11.607   6.661
 5095POPC   C3A65465  23.915  11.328   6.962
 5095POPC   C4A65466  24.033  11.454   7.327
 5095POPC   C1B65467  23.447  11.005   6.128
 5095POPC   C2B65468  23.595  10.926   6.563
 5095POPC   C3B65469  23.492  11.031   7.003
 5095POPC   C4B65470  23.563  11.259   7.388
 5096POPC   NC365471  13.305   9.018   5.477
 5096POPC   PO465472  13.943   9.160   5.291
 5096POPC   GL165473  13.803   9.126   5.714
 5096POPC   GL265474  13.769   8.789   5.833
 5096POPC   C1A65475  13.614   9.299   6.099
 5096POPC   D2A65476  13.394   9.217   6.479
 5096POPC   C3A65477  13.454   9.384   6.879
 5096POPC   C4A65478  13.455   9.206   7.271
 5096POPC   C1B65479  13.831   8.872   6.300
 5096POPC   C2B65480  13.766   8.972   6.757
 5096POPC   C3B65481  13.727   8.787   7.183
 5096POPC   C4B65482  13.914   8.671   7.600
 5097POPC   NC365483  10.196  25.522   5.332
 5097POPC   PO465484  10.828  25.588   5.499
 5097POPC   GL165485  10.556  25.200   5.699
 5097POPC   GL265486  10.248  25.305   5.780
 5097POPC   C1A65487  10.386  24.950   6.108
 5097POPC   D2A65488  10.515  24.809   6.546
 5097POPC   C3A65489  10.540  25.126   6.890
 5097POPC   C4A65490  10.575  25.243   7.321
 5097POPC   C1B65491  10.368  25.473   6.199
 5097POPC   C2B65492  10.190  25.452   6.627
 5097POPC   C3B65493  10.210  25.556   7.082
 5097POPC   C4B65494  10.394  25.708   7.454
 5098POPC   NC365495   7.209  36.838   5.351
 5098POPC   PO465496   7.684  37.280   5.471
 5098POPC   GL165497   7.451  37.000   5.767
 5098POPC   GL265498   7.088  37.107   5.783
 5098POPC   C1A65499   7.534  36.703   6.103
 5098POPC   D2A65500   7.801  36.794   6.448
 5098POPC   C3A65501   7.868  36.666   6.874
 5098POPC   C4A65502   7.566  36.682   7.205
 5098POPC   C1B65503   7.163  37.027   6.221
 5098POPC   C2B65504   7.354  37.056   6.632
 5098POPC   C3B65505   7.162  36.964   7.020
 5098POPC   C4B65506   6.960  37.150   7.362
 5099POPC   NC365507  44.703   2.376   5.184
 5099POPC   PO465508  44.139   2.032   5.395
 5099POPC   GL165509  44.402   2.005   5.779
 5099POPC   GL265510  44.486   1.690   5.803
 5099POPC   C1A65511  44.663   2.025   6.188
 5099POPC   D2A65512  44.581   2.094   6.585
 5099POPC   C3A65513  44.912   2.066   6.871
 5099POPC   C4A65514  44.873   2.321   7.251
 5099POPC   C1B65515  44.749   1.522   6.136
 5099POPC   C2B65516  44.795   1.623   6.558
 5099POPC   C3B65517  44.531   1.689   6.898
 5099POPC   C4B65518  44.738   1.782   7.257
 5100POPC   NC365519  37.323  17.218   5.417
 5100POPC   PO465520  36.745  17.406   5.185
 5100POPC   GL165521  36.900  17.493   5.626
 5100POPC   GL265522  37.228  17.697   5.643
 5100POPC   C1A65523  36.984  17.343   6.081
 5100POPC   D2A65524  36.909  17.183   6.539
 5100POPC   C3A65525  36.736  17.474   6.874
 5100POPC   C4A65526  36.853  17.489   7.331
 5100POPC   C1B65527  36.976  17.854   6.002
 5100POPC   C2B65528  36.940  17.718   6.443
 5100POPC   C3B65529  37.074  17.870   6.864
 5100POPC   C4B65530  37.258  17.775   7.255
 5101POPC   NC365531   0.234  41.494   5.399
 5101POPC   PO465532  44.647  41.842   5.441
 5101POPC   GL165533  44.838  41.649   5.775
 5101POPC   GL265534  44.536  41.737   5.960
 5101POPC   C1A65535  44.988  41.789   6.177
 5101POPC   D2A65536  44.704  41.840   6.516
 5101POPC   C3A65537  44.751  41.636   6.903
 5101POPC   C4A65538  44.844  41.435   7.272
 5101POPC   C1B65539  44.296  42.013   6.190
 5101POPC   C2B65540  44.129  41.997   6.593
 5101POPC   C3B65541  44.370  41.990   6.943
 5101POPC   C4B65542  44.523  41.849   7.326
 5102POPC   NC365543   4.478   3.374   5.645
 5102POPC   PO465544   4.886   3.847   5.493
 5102POPC   GL165545   4.518   3.886   5.795
 5102POPC   GL265546   4.136   3.753   5.801
 5102POPC   C1A65547   4.426   3.741   6.229
 5102POPC   D2A65548   4.524   3.405   6.517
 5102POPC   C3A65549   4.487   3.536   6.947
 5102POPC   C4A65550   4.555   3.253   7.261
 5102POPC   C1B65551   3.936   3.651   6.241
 5102POPC   C2B65552   4.025   3.549   6.679
 5102POPC   C3B65553   3.986   3.476   7.115
 5102POPC   C4B65554   4.002   3.146   7.351
 5103POPC   NC365555   4.931   4.110   5.117
 5103POPC   PO465556   5.219   4.517   5.587
 5103POPC   GL165557   5.220   4.236   5.955
 5103POPC   GL265558   5.146   3.897   5.914
 5103POPC   C1A65559   5.312   4.054   6.392
 5103POPC   D2A65560   5.191   4.050   6.819
 5103POPC   C3A65561   5.149   4.463   6.982
 5103POPC   C4A65562   5.341   4.561   7.347
 5103POPC   C1B65563   4.833   4.030   6.219
 5103POPC   C2B65564   4.736   3.872   6.624
 5103POPC   C3B65565   4.693   4.026   7.023
 5103POPC   C4B65566   4.666   4.424   7.206
 5104POPC   NC365567  14.480  36.353   5.480
 5104POPC   PO465568  14.198  35.784   5.294
 5104POPC   GL165569  14.184  35.971   5.704
 5104POPC   GL265570  13.978  36.263   5.649
 5104POPC   C1A65571  14.273  35.992   6.167
 5104POPC   D2A65572  14.466  35.910   6.573
 5104POPC   C3A65573  14.445  36.135   6.936
 5104POPC   C4A65574  14.195  35.888   7.201
 5104POPC   C1B65575  14.160  36.457   6.007
 5104POPC   C2B65576  14.241  36.494   6.448
 5104POPC   C3B65577  14.208  36.587   6.883
 5104POPC   C4B65578  14.150  36.417   7.278
 5105POPC   NC365579  15.023  13.071   5.404
 5105POPC   PO465580  15.307  12.656   5.659
 5105POPC   GL165581  14.935  12.829   5.910
 5105POPC   GL265582  14.870  13.215   5.869
 5105POPC   C1A65583  14.937  12.648   6.363
 5105POPC   D2A65584  15.281  12.656   6.682
 5105POPC   C3A65585  15.186  12.638   7.127
 5105POPC   C4A65586  14.993  12.611   7.560
 5105POPC   C1B65587  14.883  13.157   6.322
 5105POPC   C2B65588  14.924  13.019   6.754
 5105POPC   C3B65589  15.170  13.162   7.095
 5105POPC   C4B65590  15.092  13.429   7.431
 5106POPC   NC365591  15.129  18.558   5.462
 5106POPC   PO465592  15.458  17.918   5.443
 5106POPC   GL165593  15.154  18.114   5.806
 5106POPC   GL265594  15.206  18.474   5.955
 5106POPC   C1A65595  15.105  18.087   6.299
 5106POPC   D2A65596  14.918  18.311   6.671
 5106POPC   C3A65597  15.069  18.334   7.131
 5106POPC   C4A65598  14.992  18.068   7.515
 5106POPC   C1B65599  15.489  18.439   6.315
 5106POPC   C2B65600  15.442  18.297   6.743
 5106POPC   C3B65601  15.588  18.474   7.118
 5106POPC   C4B65602  15.454  18.485   7.543
 5107POPC   NC365603  36.245   0.022   5.160
 5107POPC   PO465604  36.116  44.414   5.262
 5107POPC   GL165605  36.207  44.501   5.706
 5107POPC   GL265606  36.333  44.835   5.769
 5107POPC   C1A65607  35.939  44.556   6.087
 5107POPC   D2A65608  35.853  44.715   6.492
 5107POPC   C3A65609  35.927  44.502   6.880
 5107POPC   C4A65610  35.861  44.596   7.294
 5107POPC   C1B65611  36.213  44.990   6.214
 5107POPC   C2B65612  36.281  44.967   6.686
 5107POPC   C3B65613  36.102   0.002   7.109
 5107POPC   C4B65614  36.167   0.009   7.565
 5108POPC   NC365615  20.690  38.164   5.294
 5108POPC   PO465616  20.751  38.811   5.406
 5108POPC   GL165617  20.701  38.610   5.814
 5108POPC   GL265618  20.574  38.273   5.800
 5108POPC   C1A65619  20.441  38.661   6.201
 5108POPC   D2A65620  20.204  38.718   6.604
 5108POPC   C3A65621  20.419  38.662   7.022
 5108POPC   C4A65622  20.608  38.653   7.463
 5108POPC   C1B65623  20.465  38.157   6.259
 5108POPC   C2B65624  20.354  38.220   6.727
 5108POPC   C3B65625  20.555  38.198   7.172
 5108POPC   C4B65626  20.753  37.958   7.510
 5109POPC   NC365627   4.321  26.412   5.386
 5109POPC   PO465628   4.548  26.987   5.201
 5109POPC   GL165629   4.441  26.867   5.699
 5109POPC   GL265630   4.101  26.688   5.790
 5109POPC   C1A65631   4.443  26.747   6.197
 5109POPC   D2A65632   4.494  26.513   6.644
 5109POPC   C3A65633   4.449  26.713   7.060
 5109POPC   C4A65634   4.590  26.706   7.491
 5109POPC   C1B65635   3.930  26.728   6.223
 5109POPC   C2B65636   3.953  26.919   6.653
 5109POPC   C3B65637   3.937  26.713   7.035
 5109POPC   C4B65638   4.034  26.879   7.438
 5110POPC   NC365639  11.241  21.110   4.848
 5110POPC   PO465640  11.416  21.663   5.289
 5110POPC   GL165641  11.470  21.405   5.704
 5110POPC   GL265642  11.279  21.094   5.696
 5110POPC   C1A65643  11.273  21.302   6.151
 5110POPC   D2A65644  11.140  21.233   6.574
 5110POPC   C3A65645  11.290  21.540   6.856
 5110POPC   C4A65646  11.494  21.467   7.240
 5110POPC   C1B65647  11.648  20.982   6.002
 5110POPC   C2B65648  11.618  21.047   6.471
 5110POPC   C3B65649  11.472  21.005   6.938
 5110POPC   C4B65650  11.603  20.998   7.392
 5111POPC   NC365651  33.404   0.519   5.339
 5111POPC   PO465652  33.033   0.017   5.161
 5111POPC   GL165653  33.115   0.106   5.673
 5111POPC   GL265654  32.963   0.414   5.812
 5111POPC   C1A65655  33.322   0.221   6.138
 5111POPC   D2A65656  33.382   0.508   6.539
 5111POPC   C3A65657  33.237   0.353   6.960
 5111POPC   C4A65658  33.187   0.492   7.454
 5111POPC   C1B65659  33.034   0.637   6.185
 5111POPC   C2B65660  32.869   0.641   6.592
 5111POPC   C3B65661  32.733   0.410   6.926
 5111POPC   C4B65662  32.648   0.539   7.338
 5112POPC   NC365663  18.333  37.253   5.586
 5112POPC   PO465664  18.089  36.673   5.509
 5112POPC   GL165665  18.096  36.851   5.920
 5112POPC   GL265666  17.830  37.052   5.875
 5112POPC   C1A65667  18.394  37.016   6.258
 5112POPC   D2A65668  18.582  36.830   6.641
 5112POPC   C3A65669  18.548  37.023   7.051
 5112POPC   C4A65670  18.393  36.910   7.484
 5112POPC   C1B65671  17.950  37.275   6.271
 5112POPC   C2B65672  18.138  37.149   6.693
 5112POPC   C3B65673  18.039  36.988   7.111
 5112POPC   C4B65674  17.926  37.168   7.523
 5113POPC   NC365675  14.220   6.375   5.403
 5113POPC   PO465676  14.411   6.998   5.509
 5113POPC   GL165677  14.485   6.624   5.774
 5113POPC   GL265678  14.639   6.285   5.707
 5113POPC   C1A65679  14.254   6.476   6.138
 5113POPC   D2A65680  14.153   6.738   6.516
 5113POPC   C3A65681  14.141   6.595   6.934
 5113POPC   C4A65682  14.365   6.724   7.295
 5113POPC   C1B65683  14.791   6.397   6.131
 5113POPC   C2B65684  14.585   6.421   6.532
 5113POPC   C3B65685  14.672   6.599   6.924
 5113POPC   C4B65686  14.795   6.413   7.302
 5114POPC   NC365687   9.532  24.819   5.484
 5114POPC   PO465688  10.070  24.371   5.420
 5114POPC   GL165689   9.820  24.492   5.771
 5114POPC   GL265690   9.946  24.847   5.818
 5114POPC   C1A65691   9.907  24.440   6.206
 5114POPC   D2A65692  10.071  24.436   6.628
 5114POPC   C3A65693   9.760  24.401   6.967
 5114POPC   C4A65694   9.988  24.404   7.331
 5114POPC   C1B65695   9.614  24.846   6.141
 5114POPC   C2B65696   9.601  24.675   6.553
 5114POPC   C3B65697   9.545  24.868   6.928
 5114POPC   C4B65698   9.681  24.838   7.331
 5115POPC   NC365699  30.230   8.463   5.346
 5115POPC   PO465700  30.593   7.955   5.541
 5115POPC   GL165701  30.759   8.029   5.923
 5115POPC   GL265702  31.081   7.956   5.965
 5115POPC   C1A65703  30.582   8.132   6.316
 5115POPC   D2A65704  30.748   8.339   6.673
 5115POPC   C3A65705  30.547   8.657   6.879
 5115POPC   C4A65706  30.454   8.477   7.261
 5115POPC   C1B65707  31.081   8.018   6.427
 5115POPC   C2B65708  30.950   7.928   6.881
 5115POPC   C3B65709  30.562   7.853   7.146
 5115POPC   C4B65710  30.363   7.792   7.574
 5116POPC   NC365711  40.122  18.901   5.429
 5116POPC   PO465712  40.298  19.544   5.707
 5116POPC   GL165713  40.073  19.186   5.843
 5116POPC   GL265714  40.216  18.815   5.912
 5116POPC   C1A65715  40.035  19.165   6.241
 5116POPC   D2A65716  39.950  19.322   6.606
 5116POPC   C3A65717  40.165  19.260   6.957
 5116POPC   C4A65718  39.972  19.341   7.310
 5116POPC   C1B65719  39.854  18.697   6.138
 5116POPC   C2B65720  39.794  18.834   6.549
 5116POPC   C3B65721  39.957  18.756   6.922
 5116POPC   C4B65722  40.084  18.845   7.297
 5117POPC   NC365723  13.995   9.591   5.485
 5117POPC   PO465724  13.255   9.554   5.546
 5117POPC   GL165725  13.502   9.821   5.820
 5117POPC   GL265726  13.849   9.725   5.952
 5117POPC   C1A65727  13.271   9.951   6.170
 5117POPC   D2A65728  13.241   9.732   6.544
 5117POPC   C3A65729  13.480   9.905   6.875
 5117POPC   C4A65730  13.319   9.883   7.261
 5117POPC   C1B65731  13.740   9.868   6.364
 5117POPC   C2B65732  13.896  10.137   6.679
 5117POPC   C3B65733  14.043   9.873   6.998
 5117POPC   C4B65734  13.747   9.629   7.232
 5118POPC   NC365735  17.016  38.997   5.490
 5118POPC   PO465736  16.553  39.362   5.341
 5118POPC   GL165737  16.681  39.397   5.737
 5118POPC   GL265738  16.628  39.069   5.837
 5118POPC   C1A65739  16.518  39.522   6.140
 5118POPC   D2A65740  16.757  39.453   6.503
 5118POPC   C3A65741  16.538  39.339   6.849
 5118POPC   C4A65742  16.726  39.446   7.215
 5118POPC   C1B65743  16.928  39.085   6.196
 5118POPC   C2B65744  16.869  38.946   6.642
 5118POPC   C3B65745  17.070  38.896   7.046
 5118POPC   C4B65746  16.952  39.030   7.452
 5119POPC   NC365747  31.280  20.126   5.374
 5119POPC   PO465748  31.976  20.094   5.578
 5119POPC   GL165749  31.602  20.086   5.773
 5119POPC   GL265750  31.364  19.808   5.759
 5119POPC   C1A65751  31.330  20.221   6.089
 5119POPC   D2A65752  31.358  20.041   6.475
 5119POPC   C3A65753  31.326  20.122   6.876
 5119POPC   C4A65754  31.630  19.944   7.116
 5119POPC   C1B65755  31.456  19.644   6.165
 5119POPC   C2B65756  31.283  19.508   6.600
 5119POPC   C3B65757  31.312  19.543   7.076
 5119POPC   C4B65758  31.680  19.505   7.374
 5120POPC   NC365759  24.303   6.868   5.479
 5120POPC   PO465760  24.694   6.254   5.422
 5120POPC   GL165761  24.500   6.487   5.760
 5120POPC   GL265762  24.678   6.809   5.859
 5120POPC   C1A65763  24.521   6.479   6.215
 5120POPC   D2A65764  24.620   6.802   6.515
 5120POPC   C3A65765  24.679   6.577   6.876
 5120POPC   C4A65766  24.433   6.520   7.211
 5120POPC   C1B65767  24.296   6.944   6.132
 5120POPC   C2B65768  24.161   7.057   6.577
 5120POPC   C3B65769  24.388   6.987   6.981
 5120POPC   C4B65770  24.821   6.936   7.204
 5121POPC   NC365771  26.541   5.264   5.513
 5121POPC   PO465772  25.890   4.948   5.258
 5121POPC   GL165773  25.982   5.066   5.717
 5121POPC   GL265774  25.806   5.392   5.805
 5121POPC   C1A65775  26.179   4.940   6.151
 5121POPC   D2A65776  26.271   4.650   6.525
 5121POPC   C3A65777  26.165   4.808   6.952
 5121POPC   C4A65778  26.320   4.716   7.373
 5121POPC   C1B65779  26.215   5.468   6.056
 5121POPC   C2B65780  26.527   5.317   6.386
 5121POPC   C3B65781  26.470   5.323   6.850
 5121POPC   C4B65782  26.349   5.564   7.224
 5122POPC   NC365783  32.066  24.358   5.328
 5122POPC   PO465784  32.576  24.775   5.469
 5122POPC   GL165785  32.409  24.438   5.768
 5122POPC   GL265786  32.106  24.235   5.807
 5122POPC   C1A65787  32.214  24.540   6.191
 5122POPC   D2A65788  32.363  24.781   6.541
 5122POPC   C3A65789  32.460  24.590   6.951
 5122POPC   C4A65790  32.155  24.638   7.280
 5122POPC   C1B65791  32.171  24.054   6.182
 5122POPC   C2B65792  32.323  24.245   6.560
 5122POPC   C3B65793  32.058  24.310   6.879
 5122POPC   C4B65794  32.065  24.076   7.219
 5123POPC   NC365795  44.614  25.170   5.223
 5123POPC   PO465796   0.196  25.461   5.430
 5123POPC   GL165797  44.780  25.391   5.671
 5123POPC   GL265798  44.536  25.079   5.713
 5123POPC   C1A65799  44.669  25.475   6.101
 5123POPC   D2A65800  44.845  25.570   6.495
 5123POPC   C3A65801  44.667  25.528   6.916
 5123POPC   C4A65802  44.809  25.318   7.291
 5123POPC   C1B65803  44.623  24.962   6.135
 5123POPC   C2B65804  44.535  25.161   6.513
 5123POPC   C3B65805  44.594  25.028   6.917
 5123POPC   C4B65806  44.488  24.945   7.335
 5124POPC   NC365807  16.005   6.054   5.281
 5124POPC   PO465808  15.869   5.404   5.306
 5124POPC   GL165809  15.877   5.729   5.660
 5124POPC   GL265810  16.218   5.899   5.735
 5124POPC   C1A65811  15.837   5.974   6.045
 5124POPC   D2A65812  15.901   6.082   6.472
 5124POPC   C3A65813  16.090   5.761   6.709
 5124POPC   C4A65814  15.962   5.729   7.128
 5124POPC   C1B65815  16.328   5.922   6.209
 5124POPC   C2B65816  16.389   6.209   6.597
 5124POPC   C3B65817  16.335   6.088   7.036
 5124POPC   C4B65818  16.045   6.160   7.404
 5125POPC   NC365819  22.433  11.985   5.413
 5125POPC   PO465820  21.755  11.878   5.457
 5125POPC   GL165821  22.068  11.919   5.765
 5125POPC   GL265822  22.338  11.603   5.733
 5125POPC   C1A65823  21.994  12.089   6.188
 5125POPC   D2A65824  21.962  12.266   6.592
 5125POPC   C3A65825  22.273  12.240   6.901
 5125POPC   C4A65826  22.002  12.109   7.210
 5125POPC   C1B65827  22.197  11.633   6.154
 5125POPC   C2B65828  22.305  11.762   6.562
 5125POPC   C3B65829  22.241  11.727   6.983
 5125POPC   C4B65830  22.449  11.952   7.343
 5126POPC   NC365831  41.024  23.129   5.433
 5126POPC   PO465832  40.486  22.627   5.450
 5126POPC   GL165833  40.648  22.862   5.830
 5126POPC   GL265834  40.688  23.226   5.824
 5126POPC   C1A65835  40.813  22.762   6.262
 5126POPC   D2A65836  40.717  22.528   6.641
 5126POPC   C3A65837  40.798  22.805   7.000
 5126POPC   C4A65838  40.641  23.048   7.322
 5126POPC   C1B65839  40.971  23.257   6.175
 5126POPC   C2B65840  40.909  23.140   6.625
 5126POPC   C3B65841  40.959  23.323   7.055
 5126POPC   C4B65842  41.099  23.276   7.514
 5127POPC   NC365843   6.354  29.669   5.382
 5127POPC   PO465844   6.756  30.141   5.359
 5127POPC   GL165845   6.719  29.846   5.718
 5127POPC   GL265846   6.425  30.036   5.790
 5127POPC   C1A65847   6.636  29.765   6.196
 5127POPC   D2A65848   6.612  29.628   6.638
 5127POPC   C3A65849   6.830  29.729   7.025
 5127POPC   C4A65850   6.541  29.827   7.360
 5127POPC   C1B65851   6.812  30.212   6.045
 5127POPC   C2B65852   6.873  30.133   6.493
 5127POPC   C3B65853   6.618  30.149   6.882
 5127POPC   C4B65854   6.682  30.339   7.257
 5128POPC   NC365855  24.585  44.600   5.430
 5128POPC   PO465856  23.970  44.407   5.430
 5128POPC   GL165857  24.208  44.632   5.776
 5128POPC   GL265858  24.578  44.588   5.919
 5128POPC   C1A65859  24.170  44.734   6.201
 5128POPC   D2A65860  24.231  44.494   6.568
 5128POPC   C3A65861  24.247  44.655   6.972
 5128POPC   C4A65862  24.368  44.762   7.403
 5128POPC   C1B65863  24.682  44.725   6.319
 5128POPC   C2B65864  24.745  44.514   6.686
 5128POPC   C3B65865  24.698  44.502   7.106
 5128POPC   C4B65866  24.893  44.700   7.442
 5129POPC   NC365867  43.622  42.376   5.373
 5129POPC   PO465868  44.259  42.598   5.467
 5129POPC   GL165869  43.942  42.557   5.830
 5129POPC   GL265870  43.744  42.230   5.843
 5129POPC   C1A65871  43.905  42.348   6.283
 5129POPC   D2A65872  43.678  42.293   6.637
 5129POPC   C3A65873  43.926  42.241   7.002
 5129POPC   C4A65874  43.997  41.936   7.316
 5129POPC   C1B65875  43.517  42.603   6.126
 5129POPC   C2B65876  43.652  42.810   6.514
 5129POPC   C3B65877  43.685  42.722   6.950
 5129POPC   C4B65878  43.982  42.651   7.278
 5130POPC   NC365879  20.051   2.638   5.347
 5130POPC   PO465880  20.678   2.855   5.271
 5130POPC   GL165881  20.663   2.860   5.744
 5130POPC   GL265882  20.320   2.989   5.886
 5130POPC   C1A65883  20.746   3.102   6.135
 5130POPC   D2A65884  20.448   3.122   6.496
 5130POPC   C3A65885  20.526   2.917   6.901
 5130POPC   C4A65886  20.517   2.766   7.329
 5130POPC   C1B65887  20.455   2.655   6.182
 5130POPC   C2B65888  20.575   2.511   6.581
 5130POPC   C3B65889  20.367   2.420   6.958
 5130POPC   C4B65890  20.246   2.324   7.367
 5131POPC   NC365891   8.319  38.149   5.423
 5131POPC   PO465892   8.035  38.743   5.397
 5131POPC   GL165893   8.116  38.554   5.781
 5131POPC   GL265894   7.776  38.475   5.822
 5131POPC   C1A65895   8.366  38.384   6.125
 5131POPC   D2A65896   8.267  38.184   6.533
 5131POPC   C3A65897   8.488  38.343   6.889
 5131POPC   C4A65898   8.427  38.668   7.200
 5131POPC   C1B65899   7.888  38.158   6.143
 5131POPC   C2B65900   7.732  38.097   6.580
 5131POPC   C3B65901   7.922  38.198   6.992
 5131POPC   C4B65902   8.253  38.010   7.198
 5132POPC   NC365903  25.680  44.314   5.531
 5132POPC   PO465904  25.003  44.471   5.537
 5132POPC   GL165905  25.306  44.562   5.857
 5132POPC   GL265906  25.496  44.312   5.991
 5132POPC   C1A65907  25.391  44.720   6.278
 5132POPC   D2A65908  25.160  44.820   6.639
 5132POPC   C3A65909  25.391  44.882   6.992
 5132POPC   C4A65910  25.408  44.714   7.392
 5132POPC   C1B65911  25.836  44.448   6.218
 5132POPC   C2B65912  25.761  44.493   6.644
 5132POPC   C3B65913  25.622  44.191   6.904
 5132POPC   C4B65914  25.531  44.159   7.313
 5133POPC   NC365915  35.994   4.373   5.450
 5133POPC   PO465916  35.606   3.892   5.706
 5133POPC   GL165917  35.926   4.145   5.973
 5133POPC   GL265918  36.084   4.475   5.941
 5133POPC   C1A65919  35.939   4.349   6.395
 5133POPC   D2A65920  35.793   4.178   6.750
 5133POPC   C3A65921  36.117   4.241   7.004
 5133POPC   C4A65922  35.981   4.530   7.271
 5133POPC   C1B65923  36.356   4.624   6.299
 5133POPC   C2B65924  36.517   4.499   6.725
 5133POPC   C3B65925  36.503   4.519   7.202
 5133POPC   C4B65926  36.357   4.637   7.626
 5134POPC   NC365927  40.381  11.140   5.453
 5134POPC   PO465928  41.056  11.038   5.507
 5134POPC   GL165929  40.805  11.204   5.822
 5134POPC   GL265930  40.555  11.466   5.837
 5134POPC   C1A65931  40.909  11.057   6.206
 5134POPC   D2A65932  40.696  11.028   6.554
 5134POPC   C3A65933  40.954  11.089   6.892
 5134POPC   C4A65934  41.004  11.465   7.139
 5134POPC   C1B65935  40.753  11.534   6.243
 5134POPC   C2B65936  40.571  11.510   6.635
 5134POPC   C3B65937  40.500  11.306   6.996
 5134POPC   C4B65938  40.545  11.465   7.383
 5135POPC   NC365939  44.125   1.552   5.371
 5135POPC   PO465940  43.945   0.827   5.399
 5135POPC   GL165941  44.090   0.981   5.747
 5135POPC   GL265942  43.949   1.290   5.786
 5135POPC   C1A65943  43.924   0.921   6.156
 5135POPC   D2A65944  43.958   1.057   6.533
 5135POPC   C3A65945  43.787   1.080   6.909
 5135POPC   C4A65946  44.022   0.998   7.246
 5135POPC   C1B65947  43.834   1.438   6.202
 5135POPC   C2B65948  43.794   1.541   6.648
 5135POPC   C3B65949  43.962   1.545   7.081
 5135POPC   C4B65950  43.985   1.432   7.534
 5136POPC   NC365951  42.563  14.537   5.341
 5136POPC   PO465952  41.872  14.548   5.365
 5136POPC   GL165953  42.200  14.524   5.746
 5136POPC   GL265954  42.567  14.653   5.835
 5136POPC   C1A65955  42.215  14.376   6.196
 5136POPC   D2A65956  42.023  14.151   6.556
 5136POPC   C3A65957  42.146  14.220   6.979
 5136POPC   C4A65958  42.257  14.616   7.107
 5136POPC   C1B65959  42.687  14.271   6.065
 5136POPC   C2B65960  42.613  14.116   6.460
 5136POPC   C3B65961  42.596  14.389   6.805
 5136POPC   C4B65962  42.668  14.260   7.212
 5137POPC   NC365963  12.447  28.439   5.230
 5137POPC   PO465964  13.041  28.344   5.440
 5137POPC   GL165965  12.866  28.387   5.858
 5137POPC   GL265966  12.707  28.090   5.982
 5137POPC   C1A65967  12.921  28.492   6.307
 5137POPC   D2A65968  12.925  28.664   6.728
 5137POPC   C3A65969  12.818  28.317   7.021
 5137POPC   C4A65970  12.956  28.093   7.415
 5137POPC   C1B65971  13.138  28.051   6.140
 5137POPC   C2B65972  13.309  27.994   6.552
 5137POPC   C3B65973  13.270  28.088   6.976
 5137POPC   C4B65974  13.237  28.488   7.222
 5138POPC   NC365975  36.966  42.063   5.490
 5138POPC   PO465976  36.720  41.482   5.259
 5138POPC   GL165977  36.829  41.555   5.680
 5138POPC   GL265978  37.173  41.651   5.721
 5138POPC   C1A65979  36.947  41.382   6.105
 5138POPC   D2A65980  37.116  41.499   6.507
 5138POPC   C3A65981  36.880  41.461   6.887
 5138POPC   C4A65982  37.021  41.555   7.300
 5138POPC   C1B65983  37.050  41.889   6.127
 5138POPC   C2B65984  37.255  41.998   6.505
 5138POPC   C3B65985  37.253  41.830   6.885
 5138POPC   C4B65986  37.327  41.948   7.260
 5139POPC   NC365987  26.910  10.264   5.212
 5139POPC   PO465988  26.854   9.646   5.470
 5139POPC   GL165989  26.840   9.716   5.920
 5139POPC   GL265990  26.628   9.988   5.836
 5139POPC   C1A65991  26.981   9.640   6.383
 5139POPC   D2A65992  26.810   9.690   6.834
 5139POPC   C3A65993  26.949   9.459   7.214
 5139POPC   C4A65994  27.256   9.286   7.526
 5139POPC   C1B65995  26.767  10.128   6.243
 5139POPC   C2B65996  26.998  10.138   6.632
 5139POPC   C3B65997  26.868  10.164   7.053
 5139POPC   C4B65998  26.588   9.933   7.294
 5140POPC   NC365999   8.563  28.395   5.148
 5140POPC   PO466000   8.289  27.947   5.586
 5140POPC   GL166001   8.208  28.349   5.818
 5140POPC   GL266002   8.043  28.635   5.630
 5140POPC   C1A66003   8.188  28.479   6.277
 5140POPC   D2A66004   8.411  28.584   6.660
 5140POPC   C3A66005   8.364  28.239   6.949
 5140POPC   C4A66006   8.047  28.156   7.233
 5140POPC   C1B66007   7.798  28.692   6.029
 5140POPC   C2B66008   7.680  28.535   6.463
 5140POPC   C3B66009   7.930  28.489   6.813
 5140POPC   C4B66010   8.158  28.683   7.142
 5141POPC   NC366011  18.693  21.782   5.391
 5141POPC   PO466012  18.235  21.304   5.487
 5141POPC   GL166013  18.279  21.462   5.889
 5141POPC   GL266014  18.589  21.659   5.879
 5141POPC   C1A66015  18.043  21.399   6.287
 5141POPC   D2A66016  18.233  21.334   6.682
 5141POPC   C3A66017  18.178  21.427   7.102
 5141POPC   C4A66018  17.940  21.154   7.324
 5141POPC   C1B66019  18.517  21.624   6.324
 5141POPC   C2B66020  18.739  21.459   6.675
 5141POPC   C3B66021  18.679  21.393   7.122
 5141POPC   C4B66022  18.678  21.581   7.595
 5142POPC   NC366023  12.289  18.570   5.347
 5142POPC   PO466024  11.686  18.272   5.147
 5142POPC   GL166025  11.890  18.337   5.602
 5142POPC   GL266026  11.941  18.661   5.728
 5142POPC   C1A66027  12.069  18.208   6.056
 5142POPC   D2A66028  12.066  18.149   6.535
 5142POPC   C3A66029  11.962  18.211   7.005
 5142POPC   C4A66030  11.732  17.955   7.347
 5142POPC   C1B66031  12.018  18.690   6.193
 5142POPC   C2B66032  12.117  18.662   6.652
 5142POPC   C3B66033  11.993  18.731   7.075
 5142POPC   C4B66034  12.138  18.748   7.515
 5143POPC   NC366035  14.817  27.517   5.526
 5143POPC   PO466036  14.183  27.644   5.292
 5143POPC   GL166037  14.264  27.568   5.741
 5143POPC   GL266038  14.549  27.372   5.944
 5143POPC   C1A66039  14.191  27.659   6.185
 5143POPC   D2A66040  14.543  27.585   6.443
 5143POPC   C3A66041  14.497  27.691   6.855
 5143POPC   C4A66042  14.297  27.704   7.252
 5143POPC   C1B66043  14.325  27.144   6.268
 5143POPC   C2B66044  14.202  27.277   6.678
 5143POPC   C3B66045  14.398  27.231   7.076
 5143POPC   C4B66046  14.811  27.431   7.155
 5144POPC   NC366047   1.943   5.596   5.448
 5144POPC   PO466048   2.141   6.248   5.371
 5144POPC   GL166049   2.057   6.047   5.724
 5144POPC   GL266050   1.739   6.127   5.739
 5144POPC   C1A66051   2.153   5.798   6.070
 5144POPC   D2A66052   2.227   5.777   6.465
 5144POPC   C3A66053   1.991   5.913   6.783
 5144POPC   C4A66054   1.999   5.915   7.223
 5144POPC   C1B66055   1.661   5.898   6.132
 5144POPC   C2B66056   1.513   5.912   6.548
 5144POPC   C3B66057   1.526   5.867   6.989
 5144POPC   C4B66058   1.565   6.150   7.366
 5145POPC   NC366059  33.939  34.810   5.268
 5145POPC   PO466060  33.933  35.500   5.261
 5145POPC   GL166061  33.853  35.227   5.610
 5145POPC   GL266062  33.561  35.374   5.754
 5145POPC   C1A66063  33.974  35.129   6.039
 5145POPC   D2A66064  33.988  35.269   6.478
 5145POPC   C3A66065  33.961  35.403   6.911
 5145POPC   C4A66066  33.963  35.218   7.309
 5145POPC   C1B66067  33.480  35.215   6.194
 5145POPC   C2B66068  33.473  35.308   6.631
 5145POPC   C3B66069  33.531  35.165   7.040
 5145POPC   C4B66070  33.514  35.503   7.307
 5146POPC   NC366071  19.936   4.703   5.432
 5146POPC   PO466072  19.610   4.098   5.455
 5146POPC   GL166073  19.706   4.315   5.850
 5146POPC   GL266074  19.963   4.087   6.005
 5146POPC   C1A66075  19.732   4.591   6.237
 5146POPC   D2A66076  20.094   4.741   6.542
 5146POPC   C3A66077  19.989   4.622   6.971
 5146POPC   C4A66078  19.545   4.609   7.108
 5146POPC   C1B66079  20.047   4.239   6.406
 5146POPC   C2B66080  19.701   4.289   6.701
 5146POPC   C3B66081  19.801   4.139   7.094
 5146POPC   C4B66082  20.234   4.176   7.204
 5147POPC   NC366083   2.446  44.011   5.549
 5147POPC   PO466084   3.071  43.806   5.461
 5147POPC   GL166085   2.844  43.774   5.867
 5147POPC   GL266086   2.493  43.629   5.904
 5147POPC   C1A66087   2.967  43.838   6.327
 5147POPC   D2A66088   2.960  44.169   6.682
 5147POPC   C3A66089   2.926  43.981   7.112
 5147POPC   C4A66090   3.034  43.781   7.510
 5147POPC   C1B66091   2.490  43.963   6.212
 5147POPC   C2B66092   2.528  43.898   6.645
 5147POPC   C3B66093   2.429  44.056   7.012
 5147POPC   C4B66094   2.290  43.877   7.391
 5148POPC   NC366095  42.529  19.460   5.601
 5148POPC   PO466096  42.032  18.969   5.557
 5148POPC   GL166097  42.256  19.013   5.970
 5148POPC   GL266098  42.633  19.092   5.957
 5148POPC   C1A66099  42.392  18.944   6.414
 5148POPC   D2A66100  42.729  19.168   6.663
 5148POPC   C3A66101  42.672  19.042   7.082
 5148POPC   C4A66102  42.238  19.135   7.220
 5148POPC   C1B66103  42.472  19.433   6.261
 5148POPC   C2B66104  42.283  19.434   6.685
 5148POPC   C3B66105  42.521  19.514   7.064
 5148POPC   C4B66106  42.557  19.417   7.533
 5149POPC   NC366107  24.760  33.505   5.136
 5149POPC   PO466108  24.636  34.052   5.430
 5149POPC   GL166109  24.587  33.801   5.839
 5149POPC   GL266110  24.662  33.415   5.769
 5149POPC   C1A66111  24.599  33.983   6.263
 5149POPC   D2A66112  24.309  34.202   6.529
 5149POPC   C3A66113  24.339  34.008   6.925
 5149POPC   C4A66114  24.707  33.839   7.103
 5149POPC   C1B66115  24.650  33.439   6.227
 5149POPC   C2B66116  24.577  33.579   6.647
 5149POPC   C3B66117  24.616  33.319   7.014
 5149POPC   C4B66118  24.462  33.481   7.393
 5150POPC   NC366119  29.779   1.615   5.090
 5150POPC   PO466120  29.746   1.003   5.347
 5150POPC   GL166121  29.914   1.210   5.720
 5150POPC   GL266122  29.696   1.446   5.879
 5150POPC   C1A66123  29.930   1.110   6.199
 5150POPC   D2A66124  29.968   1.330   6.614
 5150POPC   C3A66125  30.109   1.117   6.971
 5150POPC   C4A66126  29.956   0.864   7.251
 5150POPC   C1B66127  29.583   1.528   6.336
 5150POPC   C2B66128  29.505   1.513   6.806
 5150POPC   C3B66129  29.636   1.331   7.236
 5150POPC   C4B66130  29.638   1.465   7.705
 5151POPC   NC366131   0.785  36.531   5.513
 5151POPC   PO466132   0.582  35.900   5.410
 5151POPC   GL166133   0.680  36.092   5.795
 5151POPC   GL266134   0.346  36.186   5.837
 5151POPC   C1A66135   0.663  36.361   6.185
 5151POPC   D2A66136   0.424  36.443   6.574
 5151POPC   C3A66137   0.615  36.343   6.987
 5151POPC   C4A66138   0.436  36.001   7.275
 5151POPC   C1B66139   0.380  35.932   6.248
 5151POPC   C2B66140   0.292  35.962   6.713
 5151POPC   C3B66141   0.100  36.285   6.984
 5151POPC   C4B66142   0.072  36.338   7.419
 5152POPC   NC366143  39.217   9.442   5.469
 5152POPC   PO466144  39.525   9.938   5.547
 5152POPC   GL166145  39.334   9.735   5.897
 5152POPC   GL266146  39.505   9.436   5.890
 5152POPC   C1A66147  39.297   9.887   6.332
 5152POPC   D2A66148  39.343  10.181   6.678
 5152POPC   C3A66149  39.151  10.161   7.104
 5152POPC   C4A66150  39.080  10.263   7.568
 5152POPC   C1B66151  39.674   9.549   6.235
 5152POPC   C2B66152  39.482   9.476   6.618
 5152POPC   C3B66153  39.433   9.713   7.003
 5152POPC   C4B66154  39.528   9.498   7.383
 5153POPC   NC366155  41.102   0.406   5.554
 5153POPC   PO466156  40.490   0.755   5.444
 5153POPC   GL166157  40.726   0.603   5.842
 5153POPC   GL266158  40.724   0.227   5.867
 5153POPC   C1A66159  40.836   0.493   6.287
 5153POPC   D2A66160  40.655   0.542   6.696
 5153POPC   C3A66161  40.976   0.531   7.025
 5153POPC   C4A66162  41.042   0.724   7.437
 5153POPC   C1B66163  40.464   0.067   6.220
 5153POPC   C2B66164  40.455  44.986   6.655
 5153POPC   C3B66165  40.563   0.173   7.038
 5153POPC   C4B66166  40.515   0.608   7.231
 5154POPC   NC366167  12.712  20.863   5.528
 5154POPC   PO466168  12.760  20.175   5.444
 5154POPC   GL166169  12.729  20.423   5.813
 5154POPC   GL266170  13.011  20.604   5.931
 5154POPC   C1A66171  12.624  20.507   6.236
 5154POPC   D2A66172  12.935  20.445   6.532
 5154POPC   C3A66173  12.706  20.310   6.839
 5154POPC   C4A66174  12.570  20.263   7.235
 5154POPC   C1B66175  12.932  20.904   6.274
 5154POPC   C2B66176  12.912  20.899   6.738
 5154POPC   C3B66177  12.984  20.662   7.103
 5154POPC   C4B66178  12.852  20.835   7.500
 5155POPC   NC366179  25.591  43.284   5.602
 5155POPC   PO466180  26.152  42.987   5.337
 5155POPC   GL166181  26.223  43.013   5.817
 5155POPC   GL266182  25.887  43.024   5.933
 5155POPC   C1A66183  26.253  43.198   6.258
 5155POPC   D2A66184  26.004  43.377   6.602
 5155POPC   C3A66185  26.102  43.202   6.986
 5155POPC   C4A66186  26.345  42.935   7.225
 5155POPC   C1B66187  25.640  43.131   6.294
 5155POPC   C2B66188  25.560  43.146   6.731
 5155POPC   C3B66189  25.601  43.208   7.143
 5155POPC   C4B66190  25.860  43.011   7.415
 5156POPC   NC366191   7.579   7.612   5.445
 5156POPC   PO466192   7.428   6.879   5.479
 5156POPC   GL166193   7.466   7.197   5.803
 5156POPC   GL266194   7.264   7.447   5.808
 5156POPC   C1A66195   7.610   7.329   6.211
 5156POPC   D2A66196   7.762   7.656   6.497
 5156POPC   C3A66197   7.696   7.538   6.934
 5156POPC   C4A66198   7.290   7.327   6.988
 5156POPC   C1B66199   7.059   7.249   6.158
 5156POPC   C2B66200   6.930   7.203   6.592
 5156POPC   C3B66201   6.757   7.326   6.978
 5156POPC   C4B66202   6.863   7.709   7.196
 5157POPC   NC366203  18.448  34.472   5.422
 5157POPC   PO466204  17.971  34.910   5.344
 5157POPC   GL166205  18.009  34.698   5.748
 5157POPC   GL266206  17.896  34.340   5.757
 5157POPC   C1A66207  18.255  34.504   6.110
 5157POPC   D2A66208  18.408  34.429   6.536
 5157POPC   C3A66209  18.284  34.748   6.820
 5157POPC   C4A66210  18.299  34.745   7.258
 5157POPC   C1B66211  17.901  34.093   6.180
 5157POPC   C2B66212  18.060  33.999   6.605
 5157POPC   C3B66213  18.181  34.235   6.976
 5157POPC   C4B66214  18.144  34.285   7.411
 5158POPC   NC366215  12.359  33.834   5.611
 5158POPC   PO466216  11.885  33.636   5.213
 5158POPC   GL166217  11.851  33.860   5.660
 5158POPC   GL266218  11.992  33.562   5.848
 5158POPC   C1A66219  11.867  33.947   6.172
 5158POPC   D2A66220  12.160  33.969   6.588
 5158POPC   C3A66221  12.044  33.840   7.007
 5158POPC   C4A66222  11.875  33.891   7.399
 5158POPC   C1B66223  12.236  33.593   6.256
 5158POPC   C2B66224  12.332  33.483   6.686
 5158POPC   C3B66225  12.531  33.674   7.042
 5158POPC   C4B66226  12.354  33.731   7.453
 5159POPC   NC366227  30.248  10.720   5.350
 5159POPC   PO466228  29.583  10.450   5.251
 5159POPC   GL166229  29.824  10.495   5.686
 5159POPC   GL266230  30.192  10.351   5.747
 5159POPC   C1A66231  29.984  10.660   6.113
 5159POPC   D2A66232  30.182  10.895   6.460
 5159POPC   C3A66233  29.999  10.798   6.848
 5159POPC   C4A66234  29.879  10.502   7.209
 5159POPC   C1B66235  30.242  10.207   6.203
 5159POPC   C2B66236  30.155  10.360   6.627
 5159POPC   C3B66237  30.266  10.200   7.074
 5159POPC   C4B66238  30.209  10.304   7.543
 5160POPC   NC366239   3.501  19.218   5.421
 5160POPC   PO466240   3.507  18.589   5.654
 5160POPC   GL166241   3.628  18.968   5.846
 5160POPC   GL266242   3.260  19.075   5.836
 5160POPC   C1A66243   3.673  19.137   6.261
 5160POPC   D2A66244   3.508  18.839   6.561
 5160POPC   C3A66245   3.284  18.873   6.946
 5160POPC   C4A66246   3.513  18.827   7.306
 5160POPC   C1B66247   3.161  19.285   6.210
 5160POPC   C2B66248   3.346  19.331   6.619
 5160POPC   C3B66249   3.646  19.235   6.913
 5160POPC   C4B66250   3.393  19.328   7.251
 5161POPC   NC366251  32.286  21.674   5.489
 5161POPC   PO466252  32.319  21.029   5.484
 5161POPC   GL166253  32.422  21.195   5.877
 5161POPC   GL266254  32.539  21.528   5.892
 5161POPC   C1A66255  32.379  21.282   6.345
 5161POPC   D2A66256  32.222  21.533   6.721
 5161POPC   C3A66257  32.251  21.385   7.154
 5161POPC   C4A66258  32.002  21.079   7.258
 5161POPC   C1B66259  32.343  21.797   6.207
 5161POPC   C2B66260  32.403  21.981   6.607
 5161POPC   C3B66261  32.487  21.837   7.056
 5161POPC   C4B66262  32.583  21.628   7.506
 5162POPC   NC366263  15.105  40.508   5.489
 5162POPC   PO466264  15.289  41.165   5.410
 5162POPC   GL166265  15.238  40.906   5.818
 5162POPC   GL266266  14.882  40.780   5.882
 5162POPC   C1A66267  15.352  40.854   6.285
 5162POPC   D2A66268  15.568  41.028   6.680
 5162POPC   C3A66269  15.267  40.978   7.008
 5162POPC   C4A66270  15.178  40.622   7.233
 5162POPC   C1B66271  14.885  40.521   6.270
 5162POPC   C2B66272  14.935  40.571   6.731
 5162POPC   C3B66273  14.771  40.379   7.117
 5162POPC   C4B66274  14.808  40.483   7.569
 5163POPC   NC366275  22.549  31.140   5.564
 5163POPC   PO466276  21.896  31.433   5.433
 5163POPC   GL166277  22.150  31.302   5.848
 5163POPC   GL266278  22.456  31.539   5.861
 5163POPC   C1A66279  22.353  31.299   6.306
 5163POPC   D2A66280  22.353  31.200   6.775
 5163POPC   C3A66281  22.326  31.490   7.101
 5163POPC   C4A66282  21.906  31.523   7.217
 5163POPC   C1B66283  22.459  31.806   6.224
 5163POPC   C2B66284  22.602  31.853   6.654
 5163POPC   C3B66285  22.514  31.967   7.090
 5163POPC   C4B66286  22.674  31.847   7.490
 5164POPC   NC366287  17.316   4.995   5.427
 5164POPC   PO466288  17.978   4.890   5.495
 5164POPC   GL166289  17.635   5.101   5.819
 5164POPC   GL266290  17.226   5.214   5.876
 5164POPC   C1A66291  17.534   5.201   6.266
 5164POPC   D2A66292  17.592   5.366   6.666
 5164POPC   C3A66293  17.433   5.025   6.895
 5164POPC   C4A66294  17.604   4.663   7.119
 5164POPC   C1B66295  17.062   5.371   6.291
 5164POPC   C2B66296  17.079   5.500   6.753
 5164POPC   C3B66297  17.084   5.306   7.172
 5164POPC   C4B66298  17.230   4.947   7.342
 5165POPC   NC366299   1.672  15.353   5.427
 5165POPC   PO466300   2.045  14.735   5.402
 5165POPC   GL166301   1.995  15.050   5.722
 5165POPC   GL266302   1.660  15.062   5.842
 5165POPC   C1A66303   2.182  15.112   6.126
 5165POPC   D2A66304   2.120  14.991   6.548
 5165POPC   C3A66305   2.155  15.275   6.890
 5165POPC   C4A66306   2.305  15.053   7.244
 5165POPC   C1B66307   1.706  15.304   6.226
 5165POPC   C2B66308   1.656  15.155   6.653
 5165POPC   C3B66309   1.717  15.116   7.117
 5165POPC   C4B66310   1.913  15.459   7.379
 5166POPC   NC366311  10.827  11.619   5.388
 5166POPC   PO466312  10.292  11.243   5.563
 5166POPC   GL166313  10.586  11.409   5.798
 5166POPC   GL266314  10.620  11.110   5.938
 5166POPC   C1A66315  10.721  11.489   6.215
 5166POPC   D2A66316  10.511  11.495   6.605
 5166POPC   C3A66317  10.707  11.405   7.020
 5166POPC   C4A66318  10.853  11.616   7.406
 5166POPC   C1B66319  10.349  11.120   6.255
 5166POPC   C2B66320  10.422  11.005   6.679
 5166POPC   C3B66321  10.487  10.955   7.100
 5166POPC   C4B66322  10.422  11.055   7.555
 5167POPC   NC366323  33.727  42.032   5.366
 5167POPC   PO466324  34.243  42.470   5.363
 5167POPC   GL166325  34.057  42.250   5.686
 5167POPC   GL266326  34.013  42.552   5.860
 5167POPC   C1A66327  33.762  42.153   6.043
 5167POPC   D2A66328  33.913  42.302   6.440
 5167POPC   C3A66329  33.733  42.332   6.840
 5167POPC   C4A66330  33.987  42.342   7.192
 5167POPC   C1B66331  33.677  42.672   6.170
 5167POPC   C2B66332  33.494  42.760   6.563
 5167POPC   C3B66333  33.597  42.818   6.985
 5167POPC   C4B66334  33.564  42.616   7.355
 5168POPC   NC366335   7.842  25.445   5.419
 5168POPC   PO466336   8.244  24.978   5.239
 5168POPC   GL166337   8.121  25.077   5.657
 5168POPC   GL266338   8.458  25.087   5.784
 5168POPC   C1A66339   8.045  25.282   6.090
 5168POPC   D2A66340   7.911  25.457   6.527
 5168POPC   C3A66341   8.081  25.295   6.913
 5168POPC   C4A66342   8.053  25.387   7.380
 5168POPC   C1B66343   8.620  24.899   6.161
 5168POPC   C2B66344   8.729  24.900   6.600
 5168POPC   C3B66345   8.579  24.751   6.988
 5168POPC   C4B66346   8.226  24.925   7.221
 5169POPC   NC366347  32.533  30.880   5.490
 5169POPC   PO466348  32.221  30.400   5.282
 5169POPC   GL166349  32.101  30.498   5.742
 5169POPC   GL266350  32.225  30.776   5.878
 5169POPC   C1A66351  32.171  30.401   6.219
 5169POPC   D2A66352  32.445  30.443   6.618
 5169POPC   C3A66353  32.274  30.542   7.060
 5169POPC   C4A66354  32.432  30.537   7.524
 5169POPC   C1B66355  32.456  30.836   6.248
 5169POPC   C2B66356  32.302  30.929   6.649
 5169POPC   C3B66357  32.474  31.010   7.039
 5169POPC   C4B66358  32.220  30.973   7.384
 5170POPC   NC366359  14.619  32.048   5.267
 5170POPC   PO466360  14.170  32.474   5.452
 5170POPC   GL166361  14.374  32.138   5.735
 5170POPC   GL266362  14.712  32.288   5.757
 5170POPC   C1A66363  14.388  32.055   6.214
 5170POPC   D2A66364  14.090  32.170   6.589
 5170POPC   C3A66365  14.150  32.050   7.039
 5170POPC   C4A66366  14.564  32.059   7.198
 5170POPC   C1B66367  14.765  32.473   6.182
 5170POPC   C2B66368  14.687  32.313   6.589
 5170POPC   C3B66369  14.424  32.458   6.888
 5170POPC   C4B66370  14.417  32.550   7.303
 5171POPC   NC366371   5.024   9.338   5.039
 5171POPC   PO466372   4.949   8.776   5.449
 5171POPC   GL166373   5.131   8.914   5.851
 5171POPC   GL266374   5.480   8.785   5.881
 5171POPC   C1A66375   5.178   8.768   6.294
 5171POPC   D2A66376   5.011   8.732   6.708
 5171POPC   C3A66377   5.008   9.118   6.958
 5171POPC   C4A66378   5.069   9.021   7.354
 5171POPC   C1B66379   5.492   9.173   6.165
 5171POPC   C2B66380   5.403   9.113   6.643
 5171POPC   C3B66381   5.414   8.788   7.050
 5171POPC   C4B66382   5.518   8.901   7.542
 5172POPC   NC366383   4.200  34.529   5.125
 5172POPC   PO466384   4.653  34.177   5.496
 5172POPC   GL166385   4.403  34.425   5.783
 5172POPC   GL266386   4.233  34.753   5.741
 5172POPC   C1A66387   4.219  34.345   6.189
 5172POPC   D2A66388   4.400  34.451   6.615
 5172POPC   C3A66389   4.451  34.206   7.008
 5172POPC   C4A66390   4.248  34.266   7.420
 5172POPC   C1B66391   4.447  34.802   6.172
 5172POPC   C2B66392   4.355  34.964   6.598
 5172POPC   C3B66393   4.195  34.738   7.021
 5172POPC   C4B66394   4.278  34.847   7.454
 5173POPC   NC366395   9.601  31.089   5.421
 5173POPC   PO466396  10.013  31.674   5.480
 5173POPC   GL166397   9.902  31.498   5.884
 5173POPC   GL266398   9.578  31.338   5.874
 5173POPC   C1A66399   9.840  31.230   6.278
 5173POPC   D2A66400   9.664  31.340   6.675
 5173POPC   C3A66401   9.878  31.341   7.077
 5173POPC   C4A66402   9.990  31.485   7.489
 5173POPC   C1B66403   9.495  31.660   6.180
 5173POPC   C2B66404   9.334  31.737   6.608
 5173POPC   C3B66405   9.285  31.479   6.987
 5173POPC   C4B66406   9.417  31.054   7.093
 5174POPC   NC366407  18.698  38.935   5.457
 5174POPC   PO466408  18.551  38.325   5.276
 5174POPC   GL166409  18.369  38.540   5.675
 5174POPC   GL266410  18.063  38.414   5.879
 5174POPC   C1A66411  18.478  38.514   6.118
 5174POPC   D2A66412  18.457  38.505   6.540
 5174POPC   C3A66413  18.136  38.318   6.776
 5174POPC   C4A66414  18.146  38.463   7.187
 5174POPC   C1B66415  17.965  38.547   6.319
 5174POPC   C2B66416  18.068  38.812   6.702
 5174POPC   C3B66417  18.494  38.868   6.884
 5174POPC   C4B66418  18.580  38.727   7.249
 5175POPC   NC366419   0.579  35.454   5.324
 5175POPC   PO466420   0.116  34.978   5.508
 5175POPC   GL166421   0.475  35.186   5.773
 5175POPC   GL266422   0.536  35.571   5.840
 5175POPC   C1A66423   0.676  35.180   6.196
 5175POPC   D2A66424   0.722  35.529   6.513
 5175POPC   C3A66425   0.654  35.393   6.935
 5175POPC   C4A66426   0.335  35.216   7.145
 5175POPC   C1B66427   0.232  35.437   6.191
 5175POPC   C2B66428   0.194  35.455   6.668
 5175POPC   C3B66429   0.098  35.663   7.077
 5175POPC   C4B66430  44.971  35.804   7.485
 5176POPC   NC366431  29.714  19.578   5.598
 5176POPC   PO466432  29.996  20.236   5.324
 5176POPC   GL166433  30.091  20.051   5.712
 5176POPC   GL266434  29.753  20.062   5.782
 5176POPC   C1A66435  30.047  19.858   6.137
 5176POPC   D2A66436  29.766  19.711   6.454
 5176POPC   C3A66437  29.988  19.683   6.809
 5176POPC   C4A66438  30.040  19.667   7.221
 5176POPC   C1B66439  29.603  20.117   6.176
 5176POPC   C2B66440  29.445  20.205   6.546
 5176POPC   C3B66441  29.559  19.949   6.896
 5176POPC   C4B66442  29.655  20.024   7.326
 5177POPC   NC366443   2.196  21.638   5.286
 5177POPC   PO466444   2.045  22.318   5.246
 5177POPC   GL166445   2.020  22.211   5.739
 5177POPC   GL266446   1.740  22.391   5.877
 5177POPC   C1A66447   2.012  22.017   6.210
 5177POPC   D2A66448   2.074  22.006   6.689
 5177POPC   C3A66449   1.736  22.001   7.023
 5177POPC   C4A66450   1.986  21.869   7.396
 5177POPC   C1B66451   1.911  22.519   6.289
 5177POPC   C2B66452   1.983  22.497   6.732
 5177POPC   C3B66453   2.071  22.369   7.135
 5177POPC   C4B66454   1.839  22.548   7.454
 5178POPC   NC366455  44.615  30.233   5.494
 5178POPC   PO466456  44.297  29.849   5.019
 5178POPC   GL166457  44.283  29.854   5.546
 5178POPC   GL266458  44.636  29.761   5.707
 5178POPC   C1A66459  44.295  29.880   6.059
 5178POPC   D2A66460  44.524  30.054   6.432
 5178POPC   C3A66461  44.544  29.908   6.895
 5178POPC   C4A66462  44.365  29.864   7.329
 5178POPC   C1B66463  44.880  29.659   6.081
 5178POPC   C2B66464  44.778  29.598   6.494
 5178POPC   C3B66465  44.782  29.433   6.886
 5178POPC   C4B66466  44.968  29.438   7.297
 5179POPC   NC366467  29.623  38.950   5.464
 5179POPC   PO466468  29.099  38.502   5.258
 5179POPC   GL166469  29.176  38.482   5.694
 5179POPC   GL266470  28.895  38.583   5.825
 5179POPC   C1A66471  29.367  38.564   6.097
 5179POPC   D2A66472  29.448  38.343   6.490
 5179POPC   C3A66473  29.234  38.498   6.841
 5179POPC   C4A66474  29.240  38.459   7.270
 5179POPC   C1B66475  28.960  38.287   6.209
 5179POPC   C2B66476  28.969  38.099   6.623
 5179POPC   C3B66477  29.071  38.004   7.043
 5179POPC   C4B66478  28.865  38.140   7.431
 5180POPC   NC366479  32.871   1.362   5.415
 5180POPC   PO466480  32.963   0.686   5.370
 5180POPC   GL166481  33.070   0.966   5.725
 5180POPC   GL266482  33.389   1.187   5.774
 5180POPC   C1A66483  32.992   1.147   6.136
 5180POPC   D2A66484  33.211   1.081   6.523
 5180POPC   C3A66485  32.976   1.147   6.889
 5180POPC   C4A66486  33.024   0.793   7.080
 5180POPC   C1B66487  33.435   1.422   6.183
 5180POPC   C2B66488  33.341   1.584   6.626
 5180POPC   C3B66489  33.389   1.433   7.082
 5180POPC   C4B66490  33.220   1.434   7.539
 5181POPC   NC366491   1.864  41.176   5.370
 5181POPC   PO466492   1.656  41.864   5.460
 5181POPC   GL166493   1.784  41.705   5.874
 5181POPC   GL266494   1.840  41.362   5.868
 5181POPC   C1A66495   1.997  41.630   6.288
 5181POPC   D2A66496   2.167  41.359   6.628
 5181POPC   C3A66497   2.219  41.621   6.975
 5181POPC   C4A66498   1.886  41.854   7.209
 5181POPC   C1B66499   1.706  41.190   6.259
 5181POPC   C2B66500   1.722  41.147   6.721
 5181POPC   C3B66501   1.749  41.321   7.150
 5181POPC   C4B66502   1.695  41.262   7.623
 5182POPC   NC366503  31.742  33.093   5.501
 5182POPC   PO466504  31.151  33.201   5.186
 5182POPC   GL166505  31.291  32.937   5.655
 5182POPC   GL266506  31.562  32.659   5.739
 5182POPC   C1A66507  31.350  32.954   6.123
 5182POPC   D2A66508  31.663  32.993   6.462
 5182POPC   C3A66509  31.452  32.997   6.867
 5182POPC   C4A66510  31.216  33.121   7.244
 5182POPC   C1B66511  31.639  32.535   6.183
 5182POPC   C2B66512  31.672  32.513   6.634
 5182POPC   C3B66513  31.873  32.714   6.968
 5182POPC   C4B66514  31.733  33.004   7.301
 5183POPC   NC366515  35.197  18.818   5.593
 5183POPC   PO466516  35.353  18.260   5.163
 5183POPC   GL166517  35.474  18.347   5.669
 5183POPC   GL266518  35.266  18.484   5.955
 5183POPC   C1A66519  35.528  18.081   6.107
 5183POPC   D2A66520  35.334  18.074   6.565
 5183POPC   C3A66521  35.512  17.960   6.972
 5183POPC   C4A66522  35.547  18.217   7.327
 5183POPC   C1B66523  35.452  18.525   6.371
 5183POPC   C2B66524  35.506  18.527   6.810
 5183POPC   C3B66525  35.516  18.700   7.216
 5183POPC   C4B66526  35.542  18.756   7.672
 5184POPC   NC366527   5.906  21.346   5.452
 5184POPC   PO466528   6.069  21.974   5.623
 5184POPC   GL166529   6.062  21.566   5.906
 5184POPC   GL266530   6.187  21.185   5.835
 5184POPC   C1A66531   5.773  21.489   6.290
 5184POPC   D2A66532   5.784  21.308   6.681
 5184POPC   C3A66533   5.621  21.542   7.057
 5184POPC   C4A66534   5.785  21.397   7.450
 5184POPC   C1B66535   6.124  21.126   6.275
 5184POPC   C2B66536   6.302  21.220   6.679
 5184POPC   C3B66537   6.078  21.217   7.082
 5184POPC   C4B66538   5.918  20.869   7.319
 5185POPC   NC366539  10.218  30.310   5.574
 5185POPC   PO466540  10.803  30.389   5.246
 5185POPC   GL166541  10.697  30.453   5.712
 5185POPC   GL266542  10.442  30.748   5.792
 5185POPC   C1A66543  10.507  30.368   6.144
 5185POPC   D2A66544  10.357  30.539   6.528
 5185POPC   C3A66545  10.656  30.594   6.864
 5185POPC   C4A66546  10.772  30.844   7.211
 5185POPC   C1B66547  10.334  30.989   6.201
 5185POPC   C2B66548  10.200  31.102   6.634
 5185POPC   C3B66549  10.333  31.073   7.067
 5185POPC   C4B66550  10.190  30.912   7.473
 5186POPC   NC366551  34.660  30.647   5.558
 5186POPC   PO466552  34.086  30.650   5.442
 5186POPC   GL166553  34.251  30.839   5.839
 5186POPC   GL266554  34.435  31.149   5.874
 5186POPC   C1A66555  34.528  30.732   6.194
 5186POPC   D2A66556  34.533  30.480   6.545
 5186POPC   C3A66557  34.829  30.596   6.812
 5186POPC   C4A66558  34.716  30.731   7.184
 5186POPC   C1B66559  34.465  31.202   6.349
 5186POPC   C2B66560  34.538  31.013   6.756
 5186POPC   C3B66561  34.245  30.940   7.102
 5186POPC   C4B66562  34.100  30.825   7.536
 5187POPC   NC366563  33.054  24.503   5.384
 5187POPC   PO466564  33.732  24.169   5.437
 5187POPC   GL166565  33.350  24.292   5.777
 5187POPC   GL266566  32.950  24.242   5.810
 5187POPC   C1A66567  33.223  24.279   6.256
 5187POPC   D2A66568  33.366  24.539   6.638
 5187POPC   C3A66569  33.080  24.678   7.008
 5187POPC   C4A66570  32.768  24.761   7.319
 5187POPC   C1B66571  32.700  24.366   6.189
 5187POPC   C2B66572  32.842  24.462   6.608
 5187POPC   C3B66573  33.116  24.182   6.908
 5187POPC   C4B66574  32.955  24.264   7.323
 5188POPC   NC366575   4.126  15.484   5.382
 5188POPC   PO466576   4.630  15.063   5.384
 5188POPC   GL166577   4.330  14.979   5.757
 5188POPC   GL266578   4.271  15.329   5.853
 5188POPC   C1A66579   4.061  14.905   6.154
 5188POPC   D2A66580   4.050  15.071   6.613
 5188POPC   C3A66581   4.371  15.097   6.928
 5188POPC   C4A66582   4.385  14.849   7.253
 5188POPC   C1B66583   4.434  15.233   6.261
 5188POPC   C2B66584   4.359  15.504   6.601
 5188POPC   C3B66585   4.109  15.529   6.949
 5188POPC   C4B66586   4.301  15.465   7.344
 5189POPC   NC366587   0.823  21.893   5.411
 5189POPC   PO466588   0.251  22.174   5.376
 5189POPC   GL166589   0.436  22.051   5.747
 5189POPC   GL266590   0.706  22.254   5.764
 5189POPC   C1A66591   0.441  21.960   6.193
 5189POPC   D2A66592   0.337  22.162   6.601
 5189POPC   C3A66593   0.166  21.933   6.942
 5189POPC   C4A66594   0.501  21.826   7.192
 5189POPC   C1B66595   0.571  22.445   6.095
 5189POPC   C2B66596   0.528  22.611   6.436
 5189POPC   C3B66597   0.513  22.601   6.845
 5189POPC   C4B66598   0.388  22.375   7.186
 5190POPC   NC366599   2.313  30.531   5.546
 5190POPC   PO466600   2.967  30.590   5.287
 5190POPC   GL166601   2.804  30.676   5.717
 5190POPC   GL266602   2.528  30.902   5.815
 5190POPC   C1A66603   2.711  30.500   6.123
 5190POPC   D2A66604   2.863  30.360   6.537
 5190POPC   C3A66605   2.768  30.635   6.851
 5190POPC   C4A66606   2.703  30.412   7.209
 5190POPC   C1B66607   2.424  30.901   6.254
 5190POPC   C2B66608   2.310  30.936   6.690
 5190POPC   C3B66609   2.343  30.806   7.089
 5190POPC   C4B66610   2.607  30.850   7.415
 5191POPC   NC366611  10.572  24.209   5.480
 5191POPC   PO466612  10.288  23.613   5.412
 5191POPC   GL166613  10.510  23.779   5.735
 5191POPC   GL266614  10.210  23.955   5.807
 5191POPC   C1A66615  10.733  23.902   6.092
 5191POPC   D2A66616  10.761  23.699   6.495
 5191POPC   C3A66617  10.725  23.867   6.903
 5191POPC   C4A66618  10.607  23.727   7.311
 5191POPC   C1B66619  10.277  23.637   6.161
 5191POPC   C2B66620  10.339  23.391   6.536
 5191POPC   C3B66621  10.317  23.513   6.958
 5191POPC   C4B66622  10.274  23.360   7.392
 5192POPC   NC366623  16.986   4.513   5.238
 5192POPC   PO466624  16.462   4.105   5.487
 5192POPC   GL166625  16.551   4.301   5.883
 5192POPC   GL266626  16.562   4.661   5.832
 5192POPC   C1A66627  16.571   4.159   6.323
 5192POPC   D2A66628  16.500   4.149   6.781
 5192POPC   C3A66629  16.828   4.201   7.123
 5192POPC   C4A66630  17.283   4.039   7.113
 5192POPC   C1B66631  16.365   4.608   6.247
 5192POPC   C2B66632  16.384   4.744   6.688
 5192POPC   C3B66633  16.403   4.510   7.124
 5192POPC   C4B66634  16.316   4.370   7.588
 5193POPC   NC366635  22.092  41.073   5.603
 5193POPC   PO466636  22.459  41.536   5.267
 5193POPC   GL166637  22.247  41.575   5.708
 5193POPC   GL266638  21.970  41.836   5.708
 5193POPC   C1A66639  22.355  41.484   6.176
 5193POPC   D2A66640  22.430  41.673   6.589
 5193POPC   C3A66641  22.439  41.470   7.014
 5193POPC   C4A66642  22.443  41.463   7.494
 5193POPC   C1B66643  21.851  41.589   6.079
 5193POPC   C2B66644  21.943  41.432   6.496
 5193POPC   C3B66645  21.768  41.444   6.898
 5193POPC   C4B66646  21.996  41.523   7.258
 5194POPC   NC366647  37.457  10.034   5.208
 5194POPC   PO466648  37.831   9.605   5.502
 5194POPC   GL166649  37.495   9.674   5.792
 5194POPC   GL266650  37.470   9.365   5.961
 5194POPC   C1A66651  37.532   9.801   6.225
 5194POPC   D2A66652  37.802   9.844   6.569
 5194POPC   C3A66653  37.546   9.784   6.915
 5194POPC   C4A66654  37.543   9.978   7.293
 5194POPC   C1B66655  37.917   9.377   6.138
 5194POPC   C2B66656  38.099   9.263   6.546
 5194POPC   C3B66657  37.957   9.468   6.910
 5194POPC   C4B66658  37.881   9.624   7.344
 5195POPC   NC366659  44.537  39.818   5.219
 5195POPC   PO466660  44.967  40.239   5.565
 5195POPC   GL166661  44.602  40.096   5.778
 5195POPC   GL266662  44.505  39.730   5.787
 5195POPC   C1A66663  44.395  40.195   6.176
 5195POPC   D2A66664  44.496  40.076   6.590
 5195POPC   C3A66665  44.798  40.258   6.803
 5195POPC   C4A66666  44.756  40.276   7.233
 5195POPC   C1B66667  44.759  39.800   6.184
 5195POPC   C2B66668  44.938  39.780   6.601
 5195POPC   C3B66669  44.768  39.811   7.007
 5195POPC   C4B66670  44.977  39.842   7.429
 5196POPC   NC366671  21.463  28.413   5.428
 5196POPC   PO466672  20.968  28.844   5.229
 5196POPC   GL166673  21.099  28.629   5.703
 5196POPC   GL266674  21.461  28.655   5.877
 5196POPC   C1A66675  21.214  28.318   6.126
 5196POPC   D2A66676  21.523  28.336   6.488
 5196POPC   C3A66677  21.431  28.293   6.914
 5196POPC   C4A66678  21.606  28.235   7.321
 5196POPC   C1B66679  21.752  28.705   6.228
 5196POPC   C2B66680  21.758  28.766   6.696
 5196POPC   C3B66681  21.602  28.727   7.139
 5196POPC   C4B66682  21.806  28.634   7.561
 5197POPC   NC366683  16.400  42.252   5.085
 5197POPC   PO466684  16.686  42.476   5.562
 5197POPC   GL166685  16.469  42.133   5.808
 5197POPC   GL266686  16.752  42.103   5.925
 5197POPC   C1A66687  16.437  41.947   6.282
 5197POPC   D2A66688  16.333  42.087   6.710
 5197POPC   C3A66689  16.503  42.268   7.119
 5197POPC   C4A66690  16.326  42.442   7.512
 5197POPC   C1B66691  16.848  42.272   6.293
 5197POPC   C2B66692  16.846  42.296   6.719
 5197POPC   C3B66693  16.970  42.485   7.087
 5197POPC   C4B66694  16.867  42.301   7.478
 5198POPC   NC366695  12.317  27.476   4.978
 5198POPC   PO466696  12.278  28.028   5.352
 5198POPC   GL166697  12.247  27.582   5.584
 5198POPC   GL266698  11.920  27.376   5.687
 5198POPC   C1A66699  12.290  27.458   6.057
 5198POPC   D2A66700  12.300  27.719   6.480
 5198POPC   C3A66701  12.322  27.604   6.929
 5198POPC   C4A66702  12.014  27.795   7.240
 5198POPC   C1B66703  11.805  27.312   6.154
 5198POPC   C2B66704  11.705  27.285   6.604
 5198POPC   C3B66705  11.870  27.350   7.007
 5198POPC   C4B66706  11.551  27.528   7.279
 5199POPC   NC366707  14.141  30.104   5.136
 5199POPC   PO466708  13.476  29.942   5.370
 5199POPC   GL166709  13.621  30.060   5.771
 5199POPC   GL266710  13.977  30.154   5.693
 5199POPC   C1A66711  13.839  29.866   6.156
 5199POPC   D2A66712  13.794  29.684   6.584
 5199POPC   C3A66713  13.358  29.593   6.748
 5199POPC   C4A66714  13.283  29.638   7.202
 5199POPC   C1B66715  13.869  30.375   6.085
 5199POPC   C2B66716  13.784  30.259   6.495
 5199POPC   C3B66717  13.896  30.103   6.908
 5199POPC   C4B66718  13.721  30.161   7.310
 5200POPC   NC366719  33.469  43.684   5.368
 5200POPC   PO466720  32.833  43.374   5.447
 5200POPC   GL166721  33.013  43.500   5.842
 5200POPC   GL266722  32.885  43.859   5.930
 5200POPC   C1A66723  33.083  43.554   6.287
 5200POPC   D2A66724  33.023  43.832   6.644
 5200POPC   C3A66725  33.103  43.698   7.066
 5200POPC   C4A66726  33.390  43.577   7.399
 5200POPC   C1B66727  32.863  44.226   6.317
 5200POPC   C2B66728  32.859  44.327   6.762
 5200POPC   C3B66729  32.772  44.215   7.174
 5200POPC   C4B66730  32.774  44.309   7.607
 5201POPC   NC366731  21.924   9.161   5.404
 5201POPC   PO466732  22.201   8.584   5.541
 5201POPC   GL166733  22.287   8.886   5.852
 5201POPC   GL266734  22.134   9.214   5.854
 5201POPC   C1A66735  22.135   8.842   6.262
 5201POPC   D2A66736  21.918   8.578   6.554
 5201POPC   C3A66737  21.932   8.720   6.979
 5201POPC   C4A66738  22.226   8.884   7.245
 5201POPC   C1B66739  22.293   9.352   6.214
 5201POPC   C2B66740  22.244   9.236   6.598
 5201POPC   C3B66741  22.463   9.247   6.968
 5201POPC   C4B66742  22.423   9.340   7.388
 5202POPC   NC366743  17.864  25.112   5.580
 5202POPC   PO466744  17.264  25.637   5.593
 5202POPC   GL166745  17.534  25.438   5.806
 5202POPC   GL266746  17.357  25.122   5.779
 5202POPC   C1A66747  17.634  25.290   6.208
 5202POPC   D2A66748  17.525  25.116   6.605
 5202POPC   C3A66749  17.673  25.369   6.945
 5202POPC   C4A66750  17.715  25.294   7.371
 5202POPC   C1B66751  17.107  25.281   6.132
 5202POPC   C2B66752  16.954  25.217   6.542
 5202POPC   C3B66753  17.128  25.288   6.946
 5202POPC   C4B66754  17.074  25.053   7.314
 5203POPC   NC366755  27.038   8.557   5.447
 5203POPC   PO466756  26.420   8.161   5.455
 5203POPC   GL166757  26.746   8.136   5.740
 5203POPC   GL266758  26.734   8.448   5.831
 5203POPC   C1A66759  26.759   8.063   6.194
 5203POPC   D2A66760  27.042   7.845   6.465
 5203POPC   C3A66761  26.950   7.842   6.890
 5203POPC   C4A66762  26.890   8.074   7.222
 5203POPC   C1B66763  26.998   8.647   6.122
 5203POPC   C2B66764  26.987   8.443   6.500
 5203POPC   C3B66765  27.016   8.501   6.906
 5203POPC   C4B66766  26.804   8.568   7.278
 5204POPC   NC366767   6.032   2.218   5.484
 5204POPC   PO466768   5.640   1.636   5.482
 5204POPC   GL166769   5.790   1.893   5.824
 5204POPC   GL266770   6.125   1.778   5.744
 5204POPC   C1A66771   5.935   2.047   6.249
 5204POPC   D2A66772   5.737   1.950   6.673
 5204POPC   C3A66773   5.763   2.079   7.121
 5204POPC   C4A66774   5.959   2.456   7.226
 5204POPC   C1B66775   6.339   1.761   6.122
 5204POPC   C2B66776   6.376   1.999   6.521
 5204POPC   C3B66777   6.216   1.913   6.922
 5204POPC   C4B66778   6.397   1.647   7.223
 5205POPC   NC366779  23.991   5.467   5.327
 5205POPC   PO466780  23.517   5.054   5.361
 5205POPC   GL166781  23.631   5.029   5.786
 5205POPC   GL266782  23.408   5.311   5.841
 5205POPC   C1A66783  23.695   5.112   6.242
 5205POPC   D2A66784  23.722   4.903   6.621
 5205POPC   C3A66785  23.556   5.069   7.018
 5205POPC   C4A66786  23.692   5.005   7.457
 5205POPC   C1B66787  23.367   5.510   6.205
 5205POPC   C2B66788  23.307   5.311   6.599
 5205POPC   C3B66789  23.195   5.471   7.002
 5205POPC   C4B66790  23.373   5.415   7.398
 5206POPC   NC366791  23.301  28.560   5.318
 5206POPC   PO466792  24.030  28.478   5.369
 5206POPC   GL166793  23.819  28.513   5.772
 5206POPC   GL266794  23.887  28.161   5.834
 5206POPC   C1A66795  23.683  28.476   6.234
 5206POPC   D2A66796  23.776  28.391   6.678
 5206POPC   C3A66797  23.635  28.665   7.026
 5206POPC   C4A66798  23.644  28.421   7.386
 5206POPC   C1B66799  24.184  27.905   6.116
 5206POPC   C2B66800  24.288  28.021   6.536
 5206POPC   C3B66801  24.271  27.917   6.960
 5206POPC   C4B66802  24.035  28.144   7.262
 5207POPC   NC366803   9.444  13.725   5.305
 5207POPC   PO466804   8.874  13.506   5.144
 5207POPC   GL166805   8.886  13.350   5.613
 5207POPC   GL266806   9.245  13.322   5.752
 5207POPC   C1A66807   8.812  13.347   6.074
 5207POPC   D2A66808   8.869  13.578   6.482
 5207POPC   C3A66809   8.948  13.438   6.923
 5207POPC   C4A66810   8.983  13.662   7.342
 5207POPC   C1B66811   9.354  13.468   6.210
 5207POPC   C2B66812   9.560  13.592   6.617
 5207POPC   C3B66813   9.404  13.725   7.040
 5207POPC   C4B66814   9.376  13.968   7.461
 5208POPC   NC366815   3.007   2.540   5.486
 5208POPC   PO466816   2.879   1.984   5.052
 5208POPC   GL166817   2.835   2.057   5.525
 5208POPC   GL266818   2.514   2.157   5.730
 5208POPC   C1A66819   2.966   2.093   5.975
 5208POPC   D2A66820   2.897   2.220   6.417
 5208POPC   C3A66821   3.013   1.958   6.791
 5208POPC   C4A66822   3.053   2.083   7.213
 5208POPC   C1B66823   2.531   1.905   6.161
 5208POPC   C2B66824   2.517   1.970   6.618
 5208POPC   C3B66825   2.622   2.237   6.971
 5208POPC   C4B66826   2.487   2.036   7.325
 5209POPC   NC366827  39.831   5.719   5.094
 5209POPC   PO466828  40.338   6.185   5.255
 5209POPC   GL166829  40.051   5.996   5.574
 5209POPC   GL266830  39.840   6.263   5.726
 5209POPC   C1A66831  40.139   5.837   6.019
 5209POPC   D2A66832  40.139   6.030   6.438
 5209POPC   C3A66833  39.996   5.972   6.846
 5209POPC   C4A66834  39.963   5.628   7.149
 5209POPC   C1B66835  39.723   6.150   6.160
 5209POPC   C2B66836  39.557   6.006   6.580
 5209POPC   C3B66837  39.529   5.906   7.039
 5209POPC   C4B66838  39.836   6.095   7.319
 5210POPC   NC366839  22.092   0.735   5.406
 5210POPC   PO466840  22.316   0.145   5.392
 5210POPC   GL166841  22.303   0.291   5.786
 5210POPC   GL266842  22.442   0.617   5.790
 5210POPC   C1A66843  22.159   0.281   6.193
 5210POPC   D2A66844  22.329   0.229   6.578
 5210POPC   C3A66845  22.037   0.188   6.915
 5210POPC   C4A66846  22.028   0.285   7.361
 5210POPC   C1B66847  22.362   0.758   6.204
 5210POPC   C2B66848  22.205   0.731   6.617
 5210POPC   C3B66849  22.342   0.610   7.014
 5210POPC   C4B66850  22.279   0.733   7.452
 5211POPC   NC366851  36.576  42.867   5.504
 5211POPC   PO466852  37.126  42.395   5.223
 5211POPC   GL166853  37.086  42.397   5.844
 5211POPC   GL266854  36.788  42.618   6.022
 5211POPC   C1A66855  37.167  42.442   6.288
 5211POPC   D2A66856  36.876  42.375   6.645
 5211POPC   C3A66857  37.124  42.331   6.963
 5211POPC   C4A66858  37.203  42.444   7.351
 5211POPC   C1B66859  36.643  42.212   6.223
 5211POPC   C2B66860  36.751  41.888   6.570
 5211POPC   C3B66861  36.770  41.954   7.048
 5211POPC   C4B66862  36.687  42.366   7.250
 5212POPC   NC366863   9.157  29.096   5.291
 5212POPC   PO466864   8.595  29.436   5.521
 5212POPC   GL166865   8.909  29.251   5.801
 5212POPC   GL266866   9.243  29.112   5.803
 5212POPC   C1A66867   8.892  29.094   6.207
 5212POPC   D2A66868   8.955  29.388   6.521
 5212POPC   C3A66869   8.946  29.277   6.941
 5212POPC   C4A66870   8.989  28.997   7.297
 5212POPC   C1B66871   9.389  29.189   6.246
 5212POPC   C2B66872   9.320  29.061   6.680
 5212POPC   C3B66873   9.452  29.119   7.117
 5212POPC   C4B66874   9.459  28.881   7.529
 5213POPC   NC366875  21.173  21.153   5.435
 5213POPC   PO466876  21.611  21.662   5.185
 5213POPC   GL166877  21.580  21.550   5.644
 5213POPC   GL266878  21.252  21.505   5.815
 5213POPC   C1A66879  21.668  21.473   6.120
 5213POPC   D2A66880  21.488  21.392   6.528
 5213POPC   C3A66881  21.639  21.379   6.949
 5213POPC   C4A66882  21.545  21.585   7.335
 5213POPC   C1B66883  21.283  21.121   6.123
 5213POPC   C2B66884  21.341  20.912   6.565
 5213POPC   C3B66885  21.376  20.971   7.027
 5213POPC   C4B66886  21.385  21.123   7.476
 5214POPC   NC366887  22.960  13.264   5.506
 5214POPC   PO466888  22.896  13.994   5.529
 5214POPC   GL166889  23.071  13.690   5.833
 5214POPC   GL266890  22.864  13.415   5.976
 5214POPC   C1A66891  23.198  13.731   6.266
 5214POPC   D2A66892  23.012  13.718   6.710
 5214POPC   C3A66893  23.093  13.764   7.192
 5214POPC   C4A66894  23.152  13.541   7.612
 5214POPC   C1B66895  22.557  13.348   6.291
 5214POPC   C2B66896  22.600  13.332   6.709
 5214POPC   C3B66897  22.914  13.292   7.004
 5214POPC   C4B66898  22.747  13.408   7.363
 5215POPC   NC366899  35.030   8.759   5.495
 5215POPC   PO466900  34.396   8.706   5.352
 5215POPC   GL166901  34.384   8.538   5.765
 5215POPC   GL266902  34.039   8.505   5.734
 5215POPC   C1A66903  34.546   8.602   6.217
 5215POPC   D2A66904  34.629   8.778   6.675
 5215POPC   C3A66905  34.842   9.187   6.738
 5215POPC   C4A66906  34.907   9.385   7.153
 5215POPC   C1B66907  34.034   8.706   6.155
 5215POPC   C2B66908  34.137   8.609   6.572
 5215POPC   C3B66909  34.176   8.815   6.958
 5215POPC   C4B66910  34.429   9.183   7.033
 5216POPC   NC366911   8.205  23.872   5.465
 5216POPC   PO466912   8.468  23.230   5.425
 5216POPC   GL166913   8.293  23.495   5.816
 5216POPC   GL266914   7.995  23.415   5.961
 5216POPC   C1A66915   8.407  23.807   6.209
 5216POPC   D2A66916   8.480  23.807   6.651
 5216POPC   C3A66917   8.079  23.830   6.843
 5216POPC   C4A66918   8.045  24.005   7.204
 5216POPC   C1B66919   8.333  23.317   6.310
 5216POPC   C2B66920   8.268  23.360   6.765
 5216POPC   C3B66921   8.221  23.468   7.184
 5216POPC   C4B66922   7.785  23.604   7.308
 5217POPC   NC366923  42.475  37.886   5.442
 5217POPC   PO466924  42.155  37.292   5.501
 5217POPC   GL166925  42.536  37.431   5.717
 5217POPC   GL266926  42.324  37.388   6.013
 5217POPC   C1A66927  42.680  37.723   6.086
 5217POPC   D2A66928  42.481  37.697   6.483
 5217POPC   C3A66929  42.593  37.625   6.907
 5217POPC   C4A66930  42.559  37.377   7.236
 5217POPC   C1B66931  42.159  37.814   6.089
 5217POPC   C2B66932  42.102  38.037   6.456
 5217POPC   C3B66933  42.143  37.864   6.850
 5217POPC   C4B66934  42.247  37.796   7.282
 5218POPC   NC366935  12.277  38.952   5.081
 5218POPC   PO466936  12.480  39.396   5.695
 5218POPC   GL166937  12.051  39.338   5.816
 5218POPC   GL266938  11.901  38.975   5.781
 5218POPC   C1A66939  11.909  39.373   6.215
 5218POPC   D2A66940  12.182  39.232   6.547
 5218POPC   C3A66941  12.024  39.362   6.962
 5218POPC   C4A66942  12.077  39.485   7.419
 5218POPC   C1B66943  12.095  38.868   6.165
 5218POPC   C2B66944  11.965  38.749   6.563
 5218POPC   C3B66945  12.155  38.878   6.914
 5218POPC   C4B66946  12.044  38.996   7.300
 5219POPC   NC366947  21.712  29.381   5.425
 5219POPC   PO466948  22.328  29.087   5.246
 5219POPC   GL166949  22.096  29.063   5.664
 5219POPC   GL266950  22.313  29.309   5.768
 5219POPC   C1A66951  22.150  29.029   6.159
 5219POPC   D2A66952  22.446  29.089   6.528
 5219POPC   C3A66953  22.409  28.989   6.987
 5219POPC   C4A66954  21.996  29.036   7.157
 5219POPC   C1B66955  22.466  29.470   6.157
 5219POPC   C2B66956  22.352  29.601   6.569
 5219POPC   C3B66957  22.476  29.516   6.956
 5219POPC   C4B66958  22.333  29.588   7.345
 5220POPC   NC366959  40.929  36.760   5.069
 5220POPC   PO466960  41.576  36.814   5.336
 5220POPC   GL166961  41.665  36.837   5.760
 5220POPC   GL266962  41.422  36.583   5.821
 5220POPC   C1A66963  41.554  36.947   6.185
 5220POPC   D2A66964  41.577  36.811   6.599
 5220POPC   C3A66965  41.622  37.130   6.891
 5220POPC   C4A66966  41.657  37.040   7.327
 5220POPC   C1B66967  41.378  36.464   6.245
 5220POPC   C2B66968  41.160  36.543   6.635
 5220POPC   C3B66969  41.271  36.785   7.037
 5220POPC   C4B66970  41.450  36.589   7.403
 5221POPC   NC366971   4.017  31.097   5.506
 5221POPC   PO466972   4.533  30.765   5.352
 5221POPC   GL166973   4.370  30.727   5.797
 5221POPC   GL266974   4.259  31.038   5.964
 5221POPC   C1A66975   4.176  30.616   6.246
 5221POPC   D2A66976   4.314  30.847   6.652
 5221POPC   C3A66977   4.122  30.931   7.062
 5221POPC   C4A66978   3.969  30.635   7.359
 5221POPC   C1B66979   4.614  30.880   6.219
 5221POPC   C2B66980   4.824  30.816   6.601
 5221POPC   C3B66981   4.727  30.607   6.994
 5221POPC   C4B66982   4.487  30.562   7.368
 5222POPC   NC366983  42.691  27.581   5.472
 5222POPC   PO466984  42.021  27.347   5.407
 5222POPC   GL166985  42.276  27.400   5.824
 5222POPC   GL266986  42.504  27.689   5.922
 5222POPC   C1A66987  42.169  27.509   6.279
 5222POPC   D2A66988  42.050  27.745   6.663
 5222POPC   C3A66989  42.096  27.443   7.002
 5222POPC   C4A66990  42.333  27.350   7.337
 5222POPC   C1B66991  42.683  27.546   6.313
 5222POPC   C2B66992  42.540  27.611   6.723
 5222POPC   C3B66993  42.423  27.830   7.092
 5222POPC   C4B66994  42.615  27.764   7.465
 5223POPC   NC366995  17.380  42.058   5.142
 5223POPC   PO466996  17.730  41.467   5.278
 5223POPC   GL166997  17.472  41.575   5.590
 5223POPC   GL266998  17.520  41.883   5.623
 5223POPC   C1A66999  17.377  41.559   6.029
 5223POPC   D2A67000  17.473  41.427   6.444
 5223POPC   C3A67001  17.343  41.606   6.833
 5223POPC   C4A67002  17.292  41.369   7.222
 5223POPC   C1B67003  17.734  41.892   6.047
 5223POPC   C2B67004  17.738  41.862   6.495
 5223POPC   C3B67005  17.743  41.942   6.937
 5223POPC   C4B67006  17.517  41.807   7.305
 5224POPC   NC367007  29.125  43.021   5.465
 5224POPC   PO467008  28.713  43.470   5.708
 5224POPC   GL167009  28.950  43.168   5.930
 5224POPC   GL267010  29.282  43.048   5.958
 5224POPC   C1A67011  28.914  42.999   6.318
 5224POPC   D2A67012  29.162  43.017   6.656
 5224POPC   C3A67013  28.989  43.115   6.986
 5224POPC   C4A67014  29.107  43.378   7.302
 5224POPC   C1B67015  29.391  42.753   6.299
 5224POPC   C2B67016  29.524  42.659   6.749
 5224POPC   C3B67017  29.425  42.885   7.142
 5224POPC   C4B67018  29.079  42.874   7.462
 5225POPC   NC367019   5.384   3.761   5.477
 5225POPC   PO467020   5.188   3.063   5.281
 5225POPC   GL167021   4.997   3.342   5.638
 5225POPC   GL267022   5.284   3.346   5.838
 5225POPC   C1A67023   4.904   3.498   6.136
 5225POPC   D2A67024   5.153   3.588   6.552
 5225POPC   C3A67025   5.002   3.603   7.020
 5225POPC   C4A67026   4.782   3.673   7.407
 5225POPC   C1B67027   5.486   3.616   6.152
 5225POPC   C2B67028   5.670   3.688   6.560
 5225POPC   C3B67029   5.507   3.671   6.980
 5225POPC   C4B67030   5.564   4.042   7.215
 5226POPC   NC367031  16.923  32.773   5.191
 5226POPC   PO467032  16.503  33.201   5.523
 5226POPC   GL167033  16.593  32.995   5.922
 5226POPC   GL267034  16.930  32.865   5.995
 5226POPC   C1A67035  16.579  32.933   6.360
 5226POPC   D2A67036  16.762  33.128   6.700
 5226POPC   C3A67037  16.561  32.954   7.016
 5226POPC   C4A67038  16.530  33.086   7.434
 5226POPC   C1B67039  17.002  33.270   6.267
 5226POPC   C2B67040  17.089  33.540   6.642
 5226POPC   C3B67041  17.089  33.424   7.044
 5226POPC   C4B67042  17.039  33.003   7.138
 5227POPC   NC367043  23.694  44.801   5.343
 5227POPC   PO467044  23.300  44.290   5.206
 5227POPC   GL167045  23.387  44.504   5.660
 5227POPC   GL267046  23.690  44.710   5.835
 5227POPC   C1A67047  23.467  44.377   6.126
 5227POPC   D2A67048  23.733  44.587   6.423
 5227POPC   C3A67049  23.734  44.538   6.872
 5227POPC   C4A67050  23.902  44.566   7.319
 5227POPC   C1B67051  23.716   0.037   6.172
 5227POPC   C2B67052  23.809   0.210   6.606
 5227POPC   C3B67053  23.885   0.024   6.991
 5227POPC   C4B67054  23.539  44.912   7.224
 5228POPC   NC367055  41.789  22.511   5.251
 5228POPC   PO467056  41.283  22.036   5.443
 5228POPC   GL167057  41.354  22.188   5.823
 5228POPC   GL267058  41.700  22.260   5.733
 5228POPC   C1A67059  41.389  21.998   6.231
 5228POPC   D2A67060  41.579  22.160   6.612
 5228POPC   C3A67061  41.438  22.047   7.018
 5228POPC   C4A67062  41.406  21.910   7.438
 5228POPC   C1B67063  41.860  22.225   6.156
 5228POPC   C2B67064  42.001  22.460   6.543
 5228POPC   C3B67065  41.906  22.349   6.983
 5228POPC   C4B67066  41.784  22.263   7.399
 5229POPC   NC367067  14.384  23.445   5.557
 5229POPC   PO467068  14.448  24.149   5.546
 5229POPC   GL167069  14.286  23.880   5.805
 5229POPC   GL267070  14.603  23.762   5.907
 5229POPC   C1A67071  14.143  23.599   6.144
 5229POPC   D2A67072  14.137  23.454   6.580
 5229POPC   C3A67073  14.273  23.624   6.977
 5229POPC   C4A67074  14.174  23.396   7.374
 5229POPC   C1B67075  14.595  23.703   6.345
 5229POPC   C2B67076  14.869  23.543   6.648
 5229POPC   C3B67077  14.789  23.620   7.066
 5229POPC   C4B67078  14.550  23.909   7.296
 5230POPC   NC367079  25.349  41.433   5.616
 5230POPC   PO467080  25.116  41.993   5.578
 5230POPC   GL167081  25.308  41.810   5.955
 5230POPC   GL267082  25.609  41.567   6.044
 5230POPC   C1A67083  25.220  41.719   6.348
 5230POPC   D2A67084  24.928  41.500   6.576
 5230POPC   C3A67085  25.033  41.565   6.977
 5230POPC   C4A67086  25.032  41.343   7.346
 5230POPC   C1B67087  25.713  41.772   6.463
 5230POPC   C2B67088  25.427  41.864   6.810
 5230POPC   C3B67089  25.493  41.700   7.229
 5230POPC   C4B67090  25.560  41.298   7.380
 5231POPC   NC367091  33.527   9.766   5.205
 5231POPC   PO467092  34.026   9.448   5.536
 5231POPC   GL167093  33.701   9.714   5.703
 5231POPC   GL267094  33.902   9.877   5.924
 5231POPC   C1A67095  33.499   9.615   6.109
 5231POPC   D2A67096  33.663   9.543   6.520
 5231POPC   C3A67097  33.483   9.831   6.825
 5231POPC   C4A67098  33.419   9.750   7.262
 5231POPC   C1B67099  34.140   9.711   6.250
 5231POPC   C2B67100  34.117   9.683   6.690
 5231POPC   C3B67101  33.920   9.769   7.065
 5231POPC   C4B67102  34.179   9.543   7.278
 5232POPC   NC367103  18.678  11.478   5.515
 5232POPC   PO467104  19.242  11.337   5.480
 5232POPC   GL167105  19.216  11.129   5.878
 5232POPC   GL267106  18.863  11.134   5.875
 5232POPC   C1A67107  19.115  11.148   6.347
 5232POPC   D2A67108  19.110  11.118   6.817
 5232POPC   C3A67109  19.155  11.328   7.214
 5232POPC   C4A67110  19.145  11.395   7.666
 5232POPC   C1B67111  18.600  11.184   6.232
 5232POPC   C2B67112  18.629  11.000   6.654
 5232POPC   C3B67113  18.685  11.099   7.096
 5232POPC   C4B67114  18.506  11.128   7.482
 5233POPC   NC367115  25.002  43.052   5.151
 5233POPC   PO467116  25.357  43.566   5.300
 5233POPC   GL167117  25.119  43.453   5.685
 5233POPC   GL267118  25.057  43.105   5.694
 5233POPC   C1A67119  25.216  43.420   6.141
 5233POPC   D2A67120  25.039  43.238   6.497
 5233POPC   C3A67121  25.138  43.389   6.890
 5233POPC   C4A67122  25.108  43.244   7.286
 5233POPC   C1B67123  25.212  42.908   6.071
 5233POPC   C2B67124  25.292  42.792   6.488
 5233POPC   C3B67125  25.176  42.873   6.919
 5233POPC   C4B67126  25.373  42.759   7.280
 5234POPC   NC367127  44.641  42.326   5.441
 5234POPC   PO467128   0.252  42.634   5.354
 5234POPC   GL167129   0.023  42.486   5.760
 5234POPC   GL267130  44.701  42.669   5.836
 5234POPC   C1A67131  44.774  42.266   6.143
 5234POPC   D2A67132  44.569  42.313   6.568
 5234POPC   C3A67133  44.837  42.191   6.924
 5234POPC   C4A67134  44.812  42.337   7.347
 5234POPC   C1B67135  44.344  42.556   6.176
 5234POPC   C2B67136  44.150  42.590   6.648
 5234POPC   C3B67137  44.401  42.492   7.040
 5234POPC   C4B67138  44.313  42.319   7.462
 5235POPC   NC367139  43.546  18.009   5.551
 5235POPC   PO467140  44.083  18.228   5.288
 5235POPC   GL167141  43.972  18.369   5.698
 5235POPC   GL267142  43.943  18.099   5.902
 5235POPC   C1A67143  43.978  18.581   6.111
 5235POPC   D2A67144  43.986  18.357   6.492
 5235POPC   C3A67145  44.046  18.596   6.861
 5235POPC   C4A67146  44.089  18.425   7.232
 5235POPC   C1B67147  43.695  17.956   6.236
 5235POPC   C2B67148  43.557  18.038   6.614
 5235POPC   C3B67149  43.750  18.193   6.925
 5235POPC   C4B67150  43.790  18.040   7.324
 5236POPC   NC367151   5.170  26.400   5.186
 5236POPC   PO467152   5.438  25.889   5.534
 5236POPC   GL167153   5.236  25.951   5.942
 5236POPC   GL267154   4.853  26.051   5.984
 5236POPC   C1A67155   5.283  26.218   6.279
 5236POPC   D2A67156   5.478  26.479   6.549
 5236POPC   C3A67157   5.470  26.303   6.963
 5236POPC   C4A67158   5.210  26.077   7.228
 5236POPC   C1B67159   4.936  25.843   6.346
 5236POPC   C2B67160   5.043  25.786   6.761
 5236POPC   C3B67161   4.798  25.834   7.080
 5236POPC   C4B67162   4.551  25.744   7.414
 5237POPC   NC367163  44.939   0.066   5.420
 5237POPC   PO467164  44.915  44.375   5.384
 5237POPC   GL167165  44.609  44.547   5.627
 5237POPC   GL267166  44.339  44.310   5.635
 5237POPC   C1A67167  44.639  44.764   6.009
 5237POPC   D2A67168  44.641  44.612   6.422
 5237POPC   C3A67169  44.418  44.826   6.711
 5237POPC   C4A67170  44.565  44.739   7.096
 5237POPC   C1B67171  44.424  44.255   6.099
 5237POPC   C2B67172  44.460  44.140   6.576
 5237POPC   C3B67173  44.306  44.304   7.017
 5237POPC   C4B67174  44.232  44.246   7.495
 5238POPC   NC367175   8.673  32.059   5.494
 5238POPC   PO467176   8.016  32.234   5.474
 5238POPC   GL167177   8.266  32.178   5.798
 5238POPC   GL267178   8.497  32.479   5.772
 5238POPC   C1A67179   8.114  32.095   6.197
 5238POPC   D2A67180   8.151  32.258   6.588
 5238POPC   C3A67181   8.045  31.986   6.899
 5238POPC   C4A67182   7.838  32.010   7.284
 5238POPC   C1B67183   8.363  32.579   6.207
 5238POPC   C2B67184   8.480  32.634   6.664
 5238POPC   C3B67185   8.602  32.598   7.125
 5238POPC   C4B67186   8.558  32.473   7.615
 5239POPC   NC367187   2.192  16.348   5.406
 5239POPC   PO467188   2.050  15.640   5.408
 5239POPC   GL167189   1.997  15.754   5.811
 5239POPC   GL267190   1.895  16.106   5.750
 5239POPC   C1A67191   2.100  15.662   6.240
 5239POPC   D2A67192   1.976  15.914   6.595
 5239POPC   C3A67193   2.060  15.807   7.020
 5239POPC   C4A67194   1.763  15.950   7.337
 5239POPC   C1B67195   2.024  16.230   6.157
 5239POPC   C2B67196   2.214  16.415   6.509
 5239POPC   C3B67197   2.021  16.352   6.864
 5239POPC   C4B67198   2.190  16.259   7.219
 5240POPC   NC367199  42.060   6.047   5.304
 5240POPC   PO467200  42.521   5.570   5.290
 5240POPC   GL167201  42.549   5.737   5.722
 5240POPC   GL267202  42.346   6.053   5.757
 5240POPC   C1A67203  42.523   5.826   6.182
 5240POPC   D2A67204  42.437   5.607   6.538
 5240POPC   C3A67205  42.372   5.760   6.933
 5240POPC   C4A67206  42.428   5.484   7.235
 5240POPC   C1B67207  42.203   6.234   6.177
 5240POPC   C2B67208  42.252   6.153   6.631
 5240POPC   C3B67209  42.074   6.171   7.081
 5240POPC   C4B67210  42.026   6.194   7.594
 5241POPC   NC367211  34.533  10.966   5.565
 5241POPC   PO467212  34.470  11.670   5.463
 5241POPC   GL167213  34.637  11.407   5.798
 5241POPC   GL267214  34.966  11.262   5.713
 5241POPC   C1A67215  34.598  11.198   6.207
 5241POPC   D2A67216  34.322  11.343   6.549
 5241POPC   C3A67217  34.306  11.231   6.979
 5241POPC   C4A67218  34.209  11.434   7.362
 5241POPC   C1B67219  35.021  11.502   6.118
 5241POPC   C2B67220  34.822  11.527   6.548
 5241POPC   C3B67221  34.736  11.656   6.987
 5241POPC   C4B67222  34.733  11.374   7.302
 5242POPC   NC367223  11.396  32.626   5.696
 5242POPC   PO467224  11.052  33.087   5.269
 5242POPC   GL167225  11.260  33.139   5.714
 5242POPC   GL267226  11.549  33.024   5.980
 5242POPC   C1A67227  11.166  33.326   6.145
 5242POPC   D2A67228  11.376  33.199   6.541
 5242POPC   C3A67229  11.173  33.241   6.927
 5242POPC   C4A67230  10.944  33.367   7.280
 5242POPC   C1B67231  11.526  32.709   6.381
 5242POPC   C2B67232  11.360  32.739   6.852
 5242POPC   C3B67233  11.314  32.893   7.314
 5242POPC   C4B67234  11.365  32.647   7.761
 5243POPC   NC367235  10.933  42.562   5.342
 5243POPC   PO467236  11.597  42.460   5.429
 5243POPC   GL167237  11.534  42.106   5.669
 5243POPC   GL267238  11.204  42.195   5.658
 5243POPC   C1A67239  11.433  42.028   6.097
 5243POPC   D2A67240  11.276  42.231   6.454
 5243POPC   C3A67241  11.537  42.312   6.778
 5243POPC   C4A67242  11.483  42.281   7.214
 5243POPC   C1B67243  11.015  42.353   6.043
 5243POPC   C2B67244  10.827  42.514   6.431
 5243POPC   C3B67245  11.095  42.562   6.806
 5243POPC   C4B67246  11.022  42.472   7.214
 5244POPC   NC367247  40.491  29.148   5.646
 5244POPC   PO467248  40.017  29.395   5.148
 5244POPC   GL167249  39.989  29.375   5.624
 5244POPC   GL267250  39.779  29.105   5.765
 5244POPC   C1A67251  40.014  29.466   6.073
 5244POPC   D2A67252  39.798  29.403   6.487
 5244POPC   C3A67253  40.038  29.304   6.880
 5244POPC   C4A67254  39.851  29.263   7.269
 5244POPC   C1B67255  39.893  28.971   6.191
 5244POPC   C2B67256  39.911  28.877   6.609
 5244POPC   C3B67257  39.766  28.834   7.003
 5244POPC   C4B67258  40.134  28.843   7.248
 5245POPC   NC367259  13.172  24.700   5.550
 5245POPC   PO467260  13.518  24.140   5.370
 5245POPC   GL167261  13.699  24.370   5.776
 5245POPC   GL267262  13.458  24.557   5.920
 5245POPC   C1A67263  13.825  24.429   6.219
 5245POPC   D2A67264  13.590  24.325   6.564
 5245POPC   C3A67265  13.838  24.456   6.853
 5245POPC   C4A67266  13.825  24.488   7.265
 5245POPC   C1B67267  13.244  24.547   6.268
 5245POPC   C2B67268  13.123  24.555   6.683
 5245POPC   C3B67269  13.360  24.470   7.045
 5245POPC   C4B67270  13.367  24.447   7.493
 5246POPC   NC367271  26.936  44.880   5.470
 5246POPC   PO467272  26.516  44.337   5.525
 5246POPC   GL167273  26.839  44.355   5.885
 5246POPC   GL267274  26.995  44.706   5.938
 5246POPC   C1A67275  26.820  44.444   6.350
 5246POPC   D2A67276  26.551  44.797   6.552
 5246POPC   C3A67277  26.606  44.852   6.996
 5246POPC   C4A67278  26.638  44.432   7.169
 5246POPC   C1B67279  27.010  44.909   6.334
 5246POPC   C2B67280  27.075  44.742   6.730
 5246POPC   C3B67281  27.071  44.744   7.173
 5246POPC   C4B67282  27.284  44.613   7.534
 5247POPC   NC367283   7.983  22.103   5.480
 5247POPC   PO467284   8.667  22.283   5.319
 5247POPC   GL167285   8.479  22.218   5.734
 5247POPC   GL267286   8.389  21.918   5.791
 5247POPC   C1A67287   8.323  22.243   6.198
 5247POPC   D2A67288   8.222  22.452   6.616
 5247POPC   C3A67289   8.076  22.461   7.048
 5247POPC   C4A67290   8.296  22.297   7.400
 5247POPC   C1B67291   8.026  21.847   6.084
 5247POPC   C2B67292   8.030  21.875   6.527
 5247POPC   C3B67293   8.262  22.000   6.896
 5247POPC   C4B67294   8.029  21.896   7.266
 5248POPC   NC367295  36.966   6.548   5.575
 5248POPC   PO467296  36.395   6.728   5.171
 5248POPC   GL167297  36.606   6.954   5.630
 5248POPC   GL267298  36.996   7.009   5.791
 5248POPC   C1A67299  36.652   6.805   6.118
 5248POPC   D2A67300  36.908   6.870   6.473
 5248POPC   C3A67301  36.864   6.596   6.827
 5248POPC   C4A67302  36.582   6.622   7.180
 5248POPC   C1B67303  37.205   7.213   6.185
 5248POPC   C2B67304  37.195   7.270   6.652
 5248POPC   C3B67305  37.251   7.158   7.069
 5248POPC   C4B67306  37.077   6.808   7.224
 5249POPC   NC367307  24.795  17.563   5.423
 5249POPC   PO467308  24.369  17.054   5.331
 5249POPC   GL167309  24.239  17.318   5.736
 5249POPC   GL267310  24.466  17.588   5.817
 5249POPC   C1A67311  24.351  17.280   6.209
 5249POPC   D2A67312  24.574  17.338   6.591
 5249POPC   C3A67313  24.456  17.383   7.023
 5249POPC   C4A67314  24.178  17.192   7.297
 5249POPC   C1B67315  24.542  17.746   6.246
 5249POPC   C2B67316  24.215  17.727   6.592
 5249POPC   C3B67317  24.222  17.845   7.021
 5249POPC   C4B67318  24.642  17.807   7.221
 5250POPC   NC367319  40.113  41.316   5.300
 5250POPC   PO467320  39.800  41.970   5.282
 5250POPC   GL167321  39.930  41.719   5.621
 5250POPC   GL267322  39.719  41.451   5.608
 5250POPC   C1A67323  40.077  41.682   6.050
 5250POPC   D2A67324  40.041  41.772   6.485
 5250POPC   C3A67325  40.130  41.506   6.819
 5250POPC   C4A67326  40.244  41.492   7.231
 5250POPC   C1B67327  39.604  41.376   6.011
 5250POPC   C2B67328  39.709  41.401   6.435
 5250POPC   C3B67329  39.577  41.539   6.814
 5250POPC   C4B67330  39.682  41.477   7.222
 5251POPC   NC367331  28.390  41.474   5.491
 5251POPC   PO467332  28.579  42.020   5.184
 5251POPC   GL167333  28.569  41.884   5.713
 5251POPC   GL267334  28.193  41.778   5.863
 5251POPC   C1A67335  28.578  41.606   6.153
 5251POPC   D2A67336  28.299  41.577   6.509
 5251POPC   C3A67337  28.426  41.756   6.892
 5251POPC   C4A67338  28.282  41.693   7.315
 5251POPC   C1B67339  28.132  41.324   6.072
 5251POPC   C2B67340  28.111  41.048   6.446
 5251POPC   C3B67341  28.074  41.239   6.841
 5251POPC   C4B67342  27.930  41.348   7.229
 5252POPC   NC367343  20.697   4.728   5.626
 5252POPC   PO467344  20.177   4.381   5.647
 5252POPC   GL167345  20.451   4.098   5.863
 5252POPC   GL267346  20.725   4.237   5.768
 5252POPC   C1A67347  20.546   4.068   6.271
 5252POPC   D2A67348  20.522   4.459   6.451
 5252POPC   C3A67349  20.471   4.467   6.874
 5252POPC   C4A67350  20.564   4.814   7.144
 5252POPC   C1B67351  20.984   4.300   6.090
 5252POPC   C2B67352  20.983   4.256   6.503
 5252POPC   C3B67353  20.956   4.265   6.926
 5252POPC   C4B67354  20.786   4.367   7.306
 5253POPC   NC367355  39.603  11.139   5.733
 5253POPC   PO467356  39.106  10.770   5.562
 5253POPC   GL167357  39.410  10.539   5.804
 5253POPC   GL267358  39.183  10.231   5.819
 5253POPC   C1A67359  39.539  10.699   6.247
 5253POPC   D2A67360  39.280  10.741   6.641
 5253POPC   C3A67361  39.479  10.565   6.990
 5253POPC   C4A67362  39.743  10.188   7.055
 5253POPC   C1B67363  39.123  10.420   6.227
 5253POPC   C2B67364  38.793  10.622   6.479
 5253POPC   C3B67365  38.811  10.529   6.896
 5253POPC   C4B67366  39.036  10.664   7.245
 5254POPC   NC367367  25.244  17.969   5.192
 5254POPC   PO467368  25.588  18.516   5.359
 5254POPC   GL167369  25.245  18.434   5.714
 5254POPC   GL267370  25.322  18.117   5.819
 5254POPC   C1A67371  24.961  18.258   6.120
 5254POPC   D2A67372  24.971  17.943   6.486
 5254POPC   C3A67373  24.968  18.126   6.928
 5254POPC   C4A67374  25.218  18.375   7.234
 5254POPC   C1B67375  25.542  18.128   6.203
 5254POPC   C2B67376  25.687  18.200   6.610
 5254POPC   C3B67377  25.585  18.107   7.018
 5254POPC   C4B67378  25.283  17.828   7.221
 5255POPC   NC367379   0.812  28.629   5.508
 5255POPC   PO467380   1.367  28.251   5.338
 5255POPC   GL167381   1.251  28.173   5.782
 5255POPC   GL267382   0.887  28.201   5.843
 5255POPC   C1A67383   1.230  28.397   6.220
 5255POPC   D2A67384   1.393  28.334   6.654
 5255POPC   C3A67385   1.234  28.447   7.067
 5255POPC   C4A67386   1.320  28.526   7.509
 5255POPC   C1B67387   0.725  28.283   6.280
 5255POPC   C2B67388   0.842  28.311   6.743
 5255POPC   C3B67389   0.785  28.240   7.201
 5255POPC   C4B67390   1.075  28.082   7.521
 5256POPC   NC367391  38.725  12.729   5.392
 5256POPC   PO467392  38.350  13.175   5.643
 5256POPC   GL167393  38.429  12.772   5.827
 5256POPC   GL267394  38.765  12.655   5.890
 5256POPC   C1A67395  38.314  12.731   6.239
 5256POPC   D2A67396  38.550  12.655   6.618
 5256POPC   C3A67397  38.368  12.629   7.028
 5256POPC   C4A67398  38.425  12.873   7.395
 5256POPC   C1B67399  38.802  12.944   6.223
 5256POPC   C2B67400  38.913  13.050   6.646
 5256POPC   C3B67401  38.701  13.085   7.033
 5256POPC   C4B67402  38.690  13.299   7.455
 5257POPC   NC367403   0.641  42.403   5.305
 5257POPC   PO467404   0.671  43.097   5.432
 5257POPC   GL167405   0.494  42.751   5.786
 5257POPC   GL267406   0.558  42.364   5.801
 5257POPC   C1A67407   0.642  42.641   6.214
 5257POPC   D2A67408   0.707  42.284   6.476
 5257POPC   C3A67409   0.482  42.370   6.843
 5257POPC   C4A67410   0.306  42.328   7.235
 5257POPC   C1B67411   0.280  42.275   6.160
 5257POPC   C2B67412   0.190  42.065   6.550
 5257POPC   C3B67413   0.272  41.904   6.961
 5257POPC   C4B67414   0.046  41.896   7.351
 5258POPC   NC367415  11.940  25.613   5.391
 5258POPC   PO467416  12.232  25.094   5.235
 5258POPC   GL167417  12.108  25.168   5.676
 5258POPC   GL267418  12.347  24.975   5.842
 5258POPC   C1A67419  11.902  25.058   6.106
 5258POPC   D2A67420  11.666  25.202   6.504
 5258POPC   C3A67421  11.920  25.298   6.869
 5258POPC   C4A67422  11.978  25.513   7.242
 5258POPC   C1B67423  12.446  25.220   6.228
 5258POPC   C2B67424  12.413  25.378   6.678
 5258POPC   C3B67425  12.405  25.190   7.096
 5258POPC   C4B67426  12.238  25.066   7.502
 5259POPC   NC367427  37.037  16.544   5.406
 5259POPC   PO467428  36.445  16.811   5.460
 5259POPC   GL167429  36.710  16.786   5.806
 5259POPC   GL267430  37.005  16.961   5.730
 5259POPC   C1A67431  36.603  16.887   6.215
 5259POPC   D2A67432  36.427  16.678   6.569
 5259POPC   C3A67433  36.725  16.708   6.886
 5259POPC   C4A67434  36.736  17.039   7.165
 5259POPC   C1B67435  37.321  16.962   6.058
 5259POPC   C2B67436  37.345  16.906   6.498
 5259POPC   C3B67437  37.207  16.890   6.899
 5259POPC   C4B67438  37.102  16.723   7.256
 5260POPC   NC367439  42.908   1.856   5.355
 5260POPC   PO467440  43.390   2.390   5.272
 5260POPC   GL167441  43.267   2.119   5.658
 5260POPC   GL267442  42.988   2.039   5.828
 5260POPC   C1A67443  43.355   2.285   6.085
 5260POPC   D2A67444  43.127   2.207   6.461
 5260POPC   C3A67445  43.166   2.241   6.874
 5260POPC   C4A67446  43.040   1.890   7.076
 5260POPC   C1B67447  43.197   1.790   6.166
 5260POPC   C2B67448  43.310   1.751   6.623
 5260POPC   C3B67449  43.415   1.536   7.012
 5260POPC   C4B67450  43.546   1.691   7.439
 5261POPC   NC367451  20.744  24.277   5.479
 5261POPC   PO467452  20.215  24.419   5.789
 5261POPC   GL167453  20.577  24.366   5.979
 5261POPC   GL267454  20.788  24.642   5.847
 5261POPC   C1A67455  20.397  24.324   6.411
 5261POPC   D2A67456  20.203  24.194   6.777
 5261POPC   C3A67457  20.382  24.417   7.026
 5261POPC   C4A67458  20.687  24.353   7.176
 5261POPC   C1B67459  20.676  24.747   6.287
 5261POPC   C2B67460  20.762  24.602   6.695
 5261POPC   C3B67461  20.948  24.760   7.052
 5261POPC   C4B67462  20.734  24.761   7.469
 5262POPC   NC367463   2.498  25.895   5.037
 5262POPC   PO467464   2.877  26.374   5.262
 5262POPC   GL167465   2.872  26.153   5.667
 5262POPC   GL267466   3.173  26.236   5.894
 5262POPC   C1A67467   2.726  26.105   6.103
 5262POPC   D2A67468   2.802  25.795   6.449
 5262POPC   C3A67469   3.065  25.951   6.806
 5262POPC   C4A67470   2.923  26.057   7.197
 5262POPC   C1B67471   3.179  26.175   6.351
 5262POPC   C2B67472   3.082  26.466   6.715
 5262POPC   C3B67473   3.106  26.513   7.195
 5262POPC   C4B67474   3.222  26.269   7.579
 5263POPC   NC367475   0.739  19.112   5.642
 5263POPC   PO467476   1.271  19.027   5.247
 5263POPC   GL167477   1.262  19.197   5.696
 5263POPC   GL267478   1.047  19.500   5.771
 5263POPC   C1A67479   1.521  19.177   6.105
 5263POPC   D2A67480   1.536  19.370   6.540
 5263POPC   C3A67481   1.282  19.215   6.899
 5263POPC   C4A67482   1.328  18.918   7.269
 5263POPC   C1B67483   1.035  19.313   6.199
 5263POPC   C2B67484   0.834  19.110   6.573
 5263POPC   C3B67485   0.830  18.984   7.012
 5263POPC   C4B67486   0.923  19.182   7.389
 5264POPC   NC367487  10.641  26.961   5.371
 5264POPC   PO467488  11.106  27.208   5.720
 5264POPC   GL167489  10.812  26.943   5.902
 5264POPC   GL267490  10.453  26.970   5.872
 5264POPC   C1A67491  10.806  26.932   6.340
 5264POPC   D2A67492  10.781  26.766   6.736
 5264POPC   C3A67493  10.425  26.524   6.804
 5264POPC   C4A67494  10.358  26.568   7.219
 5264POPC   C1B67495  10.398  27.227   6.253
 5264POPC   C2B67496  10.488  27.205   6.715
 5264POPC   C3B67497  10.583  27.055   7.146
 5264POPC   C4B67498  10.452  27.214   7.552
 5265POPC   NC367499  20.058  22.625   5.395
 5265POPC   PO467500  19.822  23.212   5.384
 5265POPC   GL167501  19.997  22.990   5.763
 5265POPC   GL267502  20.360  22.809   5.754
 5265POPC   C1A67503  19.801  22.971   6.176
 5265POPC   D2A67504  19.617  22.966   6.596
 5265POPC   C3A67505  19.493  22.813   7.001
 5265POPC   C4A67506  19.783  23.030   7.266
 5265POPC   C1B67507  20.255  22.731   6.167
 5265POPC   C2B67508  20.058  22.728   6.547
 5265POPC   C3B67509  19.968  22.630   6.940
 5265POPC   C4B67510  20.166  22.695   7.328
 5266POPC   NC367511   6.613  37.188   5.357
 5266POPC   PO467512   6.849  36.663   5.554
 5266POPC   GL167513   6.526  36.899   5.780
 5266POPC   GL267514   6.262  36.669   5.866
 5266POPC   C1A67515   6.497  37.169   6.151
 5266POPC   D2A67516   6.751  37.094   6.519
 5266POPC   C3A67517   6.652  37.057   6.940
 5266POPC   C4A67518   6.698  36.704   7.220
 5266POPC   C1B67519   6.452  36.654   6.302
 5266POPC   C2B67520   6.407  36.639   6.771
 5266POPC   C3B67521   6.206  36.862   7.140
 5266POPC   C4B67522   6.077  36.789   7.605
 5267POPC   NC367523  22.461  42.742   5.455
 5267POPC   PO467524  21.868  42.903   5.701
 5267POPC   GL167525  22.273  42.870   5.921
 5267POPC   GL267526  22.615  43.034   5.881
 5267POPC   C1A67527  22.318  43.028   6.319
 5267POPC   D2A67528  22.213  43.065   6.742
 5267POPC   C3A67529  22.329  42.782   7.058
 5267POPC   C4A67530  21.904  42.782   7.227
 5267POPC   C1B67531  22.503  43.459   6.086
 5267POPC   C2B67532  22.375  43.514   6.528
 5267POPC   C3B67533  22.150  43.554   6.902
 5267POPC   C4B67534  22.177  43.233   7.224
 5268POPC   NC367535   8.113  29.541   5.320
 5268POPC   PO467536   8.390  30.162   5.373
 5268POPC   GL167537   8.336  30.209   5.783
 5268POPC   GL267538   8.215  29.848   5.773
 5268POPC   C1A67539   8.262  30.131   6.201
 5268POPC   D2A67540   8.396  29.903   6.548
 5268POPC   C3A67541   8.255  30.045   6.952
 5268POPC   C4A67542   8.121  30.172   7.339
 5268POPC   C1B67543   8.168  29.623   6.165
 5268POPC   C2B67544   8.151  29.441   6.562
 5268POPC   C3B67545   8.317  29.541   6.968
 5268POPC   C4B67546   8.242  29.680   7.405
 5269POPC   NC367547  37.886  32.670   5.338
 5269POPC   PO467548  37.520  32.056   5.343
 5269POPC   GL167549  37.594  32.301   5.708
 5269POPC   GL267550  37.924  32.430   5.784
 5269POPC   C1A67551  37.548  32.396   6.142
 5269POPC   D2A67552  37.484  32.474   6.569
 5269POPC   C3A67553  37.700  32.233   6.902
 5269POPC   C4A67554  37.469  32.203   7.273
 5269POPC   C1B67555  38.008  32.646   6.157
 5269POPC   C2B67556  37.992  32.460   6.548
 5269POPC   C3B67557  38.070  32.650   6.967
 5269POPC   C4B67558  37.875  32.505   7.322
 5270POPC   NC367559  43.796  30.965   5.388
 5270POPC   PO467560  44.180  30.421   5.581
 5270POPC   GL167561  43.995  30.747   5.875
 5270POPC   GL267562  43.608  30.840   5.864
 5270POPC   C1A67563  43.845  30.802   6.320
 5270POPC   D2A67564  43.686  30.506   6.619
 5270POPC   C3A67565  43.904  30.634   6.986
 5270POPC   C4A67566  43.934  30.791   7.406
 5270POPC   C1B67567  43.400  31.021   6.267
 5270POPC   C2B67568  43.427  30.935   6.740
 5270POPC   C3B67569  43.461  30.805   7.185
 5270POPC   C4B67570  43.491  30.849   7.658
 5271POPC   NC367571  25.514  30.195   5.090
 5271POPC   PO467572  25.038  29.707   5.227
 5271POPC   GL167573  25.194  29.911   5.615
 5271POPC   GL267574  25.090  30.247   5.705
 5271POPC   C1A67575  25.304  29.821   6.061
 5271POPC   D2A67576  25.589  29.809   6.424
 5271POPC   C3A67577  25.353  29.826   6.790
 5271POPC   C4A67578  25.250  29.895   7.195
 5271POPC   C1B67579  25.241  30.326   6.159
 5271POPC   C2B67580  25.108  30.237   6.582
 5271POPC   C3B67581  24.903  30.313   7.003
 5271POPC   C4B67582  24.857  30.321   7.481
 5272POPC   NC367583  39.961  14.742   5.241
 5272POPC   PO467584  39.513  14.578   5.774
 5272POPC   GL167585  39.976  14.644   5.786
 5272POPC   GL267586  40.185  14.331   5.774
 5272POPC   C1A67587  40.260  14.749   6.126
 5272POPC   D2A67588  40.336  14.685   6.570
 5272POPC   C3A67589  40.090  14.379   6.792
 5272POPC   C4A67590  40.200  14.205   7.178
 5272POPC   C1B67591  40.057  14.256   6.221
 5272POPC   C2B67592  39.709  14.083   6.490
 5272POPC   C3B67593  39.567  14.262   6.855
 5272POPC   C4B67594  39.716  14.144   7.229
 5273POPC   NC367595  42.166   2.723   5.589
 5273POPC   PO467596  42.537   3.091   5.216
 5273POPC   GL167597  42.607   2.897   5.714
 5273POPC   GL267598  42.358   3.040   5.965
 5273POPC   C1A67599  42.407   2.599   6.154
 5273POPC   D2A67600  42.300   2.796   6.536
 5273POPC   C3A67601  42.237   2.650   6.951
 5273POPC   C4A67602  42.338   2.819   7.370
 5273POPC   C1B67603  42.748   2.974   6.185
 5273POPC   C2B67604  42.905   3.021   6.560
 5273POPC   C3B67605  42.632   2.973   6.902
 5273POPC   C4B67606  42.652   3.203   7.234
 5274POPC   NC367607  39.683  44.427   4.968
 5274POPC   PO467608  40.164  44.453   5.446
 5274POPC   GL167609  40.084  44.377   5.888
 5274POPC   GL267610  40.398  44.331   5.922
 5274POPC   C1A67611  39.985  44.530   6.332
 5274POPC   D2A67612  39.937  44.836   6.666
 5274POPC   C3A67613  39.850  44.718   7.094
 5274POPC   C4A67614  39.717  44.984   7.429
 5274POPC   C1B67615  40.489  44.512   6.338
 5274POPC   C2B67616  40.348  44.488   6.746
 5274POPC   C3B67617  40.355  44.623   7.152
 5274POPC   C4B67618  40.158  44.252   7.306
 5275POPC   NC367619   7.888   6.699   5.446
 5275POPC   PO467620   8.567   6.514   5.343
 5275POPC   GL167621   8.365   6.478   5.777
 5275POPC   GL267622   8.032   6.606   5.927
 5275POPC   C1A67623   8.475   6.701   6.172
 5275POPC   D2A67624   8.250   6.752   6.554
 5275POPC   C3A67625   8.272   6.457   6.868
 5275POPC   C4A67626   8.517   6.609   7.216
 5275POPC   C1B67627   7.805   6.632   6.326
 5275POPC   C2B67628   7.771   6.687   6.756
 5275POPC   C3B67629   7.917   6.722   7.176
 5275POPC   C4B67630   7.916   6.724   7.628
 5276POPC   NC367631  29.874  22.783   5.467
 5276POPC   PO467632  29.629  23.383   5.575
 5276POPC   GL167633  29.943  23.252   5.902
 5276POPC   GL267634  30.134  22.959   5.861
 5276POPC   C1A67635  30.014  23.122   6.321
 5276POPC   D2A67636  29.857  22.856   6.610
 5276POPC   C3A67637  29.887  23.077   6.961
 5276POPC   C4A67638  30.035  23.029   7.343
 5276POPC   C1B67639  30.212  22.654   6.202
 5276POPC   C2B67640  30.351  22.744   6.620
 5276POPC   C3B67641  30.224  22.680   7.017
 5276POPC   C4B67642  30.165  22.497   7.396
 5277POPC   NC367643   6.917  37.790   5.438
 5277POPC   PO467644   6.269  37.474   5.481
 5277POPC   GL167645   6.491  37.728   5.743
 5277POPC   GL267646   6.756  37.504   5.844
 5277POPC   C1A67647   6.516  37.842   6.186
 5277POPC   D2A67648   6.281  37.806   6.582
 5277POPC   C3A67649   6.566  37.731   6.913
 5277POPC   C4A67650   6.552  37.444   7.251
 5277POPC   C1B67651   6.974  37.520   6.280
 5277POPC   C2B67652   7.017  37.456   6.774
 5277POPC   C3B67653   7.015  37.646   7.196
 5277POPC   C4B67654   6.899  37.586   7.648
 5278POPC   NC367655  12.881  14.927   5.062
 5278POPC   PO467656  13.148  15.378   5.516
 5278POPC   GL167657  12.971  15.533   5.847
 5278POPC   GL267658  12.626  15.517   5.687
 5278POPC   C1A67659  13.092  15.346   6.239
 5278POPC   D2A67660  13.220  15.416   6.623
 5278POPC   C3A67661  12.982  15.194   6.931
 5278POPC   C4A67662  13.160  14.934   7.211
 5278POPC   C1B67663  12.584  15.412   6.152
 5278POPC   C2B67664  12.599  15.211   6.563
 5278POPC   C3B67665  12.483  15.006   6.968
 5278POPC   C4B67666  12.652  15.033   7.380
 5279POPC   NC367667  24.743  15.152   5.400
 5279POPC   PO467668  24.168  14.890   5.465
 5279POPC   GL167669  24.295  15.114   5.845
 5279POPC   GL267670  24.600  15.326   5.853
 5279POPC   C1A67671  24.218  15.432   6.182
 5279POPC   D2A67672  24.152  15.614   6.585
 5279POPC   C3A67673  24.278  15.442   6.995
 5279POPC   C4A67674  24.059  15.167   7.208
 5279POPC   C1B67675  24.652  15.175   6.266
 5279POPC   C2B67676  24.559  15.154   6.697
 5279POPC   C3B67677  24.628  15.069   7.145
 5279POPC   C4B67678  24.889  15.285   7.478
 5280POPC   NC367679   1.858  30.235   5.479
 5280POPC   PO467680   2.037  30.885   5.651
 5280POPC   GL167681   2.057  30.611   5.982
 5280POPC   GL267682   1.768  30.355   5.984
 5280POPC   C1A67683   2.040  30.546   6.398
 5280POPC   D2A67684   1.899  30.642   6.787
 5280POPC   C3A67685   2.080  30.367   7.071
 5280POPC   C4A67686   2.246  30.487   7.473
 5280POPC   C1B67687   1.581  30.739   6.145
 5280POPC   C2B67688   1.489  30.870   6.562
 5280POPC   C3B67689   1.512  30.846   7.025
 5280POPC   C4B67690   1.802  30.700   7.339
 5281POPC   NC367691  44.798  34.873   5.163
 5281POPC   PO467692  44.298  34.523   5.521
 5281POPC   GL167693  44.443  34.685   5.905
 5281POPC   GL267694  44.783  34.709   5.833
 5281POPC   C1A67695  44.430  34.561   6.367
 5281POPC   D2A67696  44.338  34.258   6.688
 5281POPC   C3A67697  44.348  34.319   7.153
 5281POPC   C4A67698  44.359  34.501   7.576
 5281POPC   C1B67699  44.799  34.866   6.247
 5281POPC   C2B67700  44.828  34.739   6.703
 5281POPC   C3B67701   0.136  34.762   7.054
 5281POPC   C4B67702   0.258  34.885   7.513
 5282POPC   NC367703  11.408   5.658   5.140
 5282POPC   PO467704  11.288   6.050   5.711
 5282POPC   GL167705  11.295   5.766   5.961
 5282POPC   GL267706  11.394   5.454   5.825
 5282POPC   C1A67707  11.260   5.937   6.355
 5282POPC   D2A67708  11.363   6.205   6.676
 5282POPC   C3A67709  11.100   6.019   6.946
 5282POPC   C4A67710  11.161   6.027   7.350
 5282POPC   C1B67711  11.141   5.391   6.247
 5282POPC   C2B67712  11.143   5.580   6.692
 5282POPC   C3B67713  11.217   5.540   7.131
 5282POPC   C4B67714  10.991   5.331   7.473
 5283POPC   NC367715  35.806  12.024   4.929
 5283POPC   PO467716  36.279  11.872   5.438
 5283POPC   GL167717  36.220  11.937   5.858
 5283POPC   GL267718  35.860  11.927   5.940
 5283POPC   C1A67719  36.193  12.164   6.253
 5283POPC   D2A67720  35.907  12.337   6.570
 5283POPC   C3A67721  36.152  12.571   6.896
 5283POPC   C4A67722  36.358  12.583   7.322
 5283POPC   C1B67723  35.790  11.863   6.377
 5283POPC   C2B67724  36.065  11.859   6.690
 5283POPC   C3B67725  36.087  12.072   7.049
 5283POPC   C4B67726  36.479  12.115   7.189
 5284POPC   NC367727  21.292  38.745   5.444
 5284POPC   PO467728  21.136  38.093   5.310
 5284POPC   GL167729  21.144  38.334   5.718
 5284POPC   GL267730  21.501  38.316   5.686
 5284POPC   C1A67731  21.310  38.641   6.096
 5284POPC   D2A67732  21.503  38.723   6.538
 5284POPC   C3A67733  21.350  38.639   6.986
 5284POPC   C4A67734  21.493  38.507   7.423
 5284POPC   C1B67735  21.489  38.170   6.143
 5284POPC   C2B67736  21.331  38.231   6.605
 5284POPC   C3B67737  21.401  38.114   7.080
 5284POPC   C4B67738  21.319  38.034   7.546
 5285POPC   NC367739  22.946  41.525   5.345
 5285POPC   PO467740  22.547  41.118   5.693
 5285POPC   GL167741  22.751  41.468   5.817
 5285POPC   GL267742  22.693  41.822   5.677
 5285POPC   C1A67743  22.889  41.456   6.220
 5285POPC   D2A67744  23.034  41.245   6.578
 5285POPC   C3A67745  22.972  41.393   6.962
 5285POPC   C4A67746  22.935  41.472   7.377
 5285POPC   C1B67747  22.751  41.933   6.109
 5285POPC   C2B67748  22.927  41.829   6.548
 5285POPC   C3B67749  22.769  41.868   6.952
 5285POPC   C4B67750  22.522  41.944   7.293
 5286POPC   NC367751  24.359   8.486   5.352
 5286POPC   PO467752  24.853   7.966   5.502
 5286POPC   GL167753  24.647   8.247   5.760
 5286POPC   GL267754  24.292   8.151   5.744
 5286POPC   C1A67755  24.779   8.362   6.180
 5286POPC   D2A67756  24.602   8.495   6.560
 5286POPC   C3A67757  24.751   8.350   6.964
 5286POPC   C4A67758  24.538   8.368   7.346
 5286POPC   C1B67759  24.259   8.337   6.141
 5286POPC   C2B67760  24.242   8.157   6.536
 5286POPC   C3B67761  24.247   8.260   6.948
 5286POPC   C4B67762  24.244   7.971   7.352
 5287POPC   NC367763   9.799  36.499   5.349
 5287POPC   PO467764   9.282  36.069   5.523
 5287POPC   GL167765   9.721  36.127   5.765
 5287POPC   GL267766   9.901  36.460   5.836
 5287POPC   C1A67767   9.942  36.098   6.208
 5287POPC   D2A67768  10.000  35.991   6.662
 5287POPC   C3A67769   9.691  36.090   6.936
 5287POPC   C4A67770   9.632  35.898   7.325
 5287POPC   C1B67771  10.058  36.631   6.210
 5287POPC   C2B67772   9.889  36.495   6.590
 5287POPC   C3B67773  10.061  36.480   6.971
 5287POPC   C4B67774   9.902  36.334   7.339
 5288POPC   NC367775  22.409  20.126   5.534
 5288POPC   PO467776  21.764  19.962   5.347
 5288POPC   GL167777  22.014  19.810   5.711
 5288POPC   GL267778  21.966  19.441   5.801
 5288POPC   C1A67779  22.251  19.824   6.117
 5288POPC   D2A67780  22.167  19.641   6.533
 5288POPC   C3A67781  22.326  19.786   6.923
 5288POPC   C4A67782  22.082  19.974   7.250
 5288POPC   C1B67783  21.867  19.329   6.248
 5288POPC   C2B67784  21.751  19.385   6.710
 5288POPC   C3B67785  21.941  19.483   7.143
 5288POPC   C4B67786  22.330  19.519   7.373
 5289POPC   NC367787   9.579   7.569   5.380
 5289POPC   PO467788  10.236   7.628   5.520
 5289POPC   GL167789   9.890   7.407   5.782
 5289POPC   GL267790   9.516   7.332   5.818
 5289POPC   C1A67791   9.894   7.253   6.213
 5289POPC   D2A67792   9.624   7.211   6.591
 5289POPC   C3A67793   9.853   7.204   6.995
 5289POPC   C4A67794   9.723   7.388   7.370
 5289POPC   C1B67795   9.575   7.669   6.106
 5289POPC   C2B67796   9.402   7.695   6.508
 5289POPC   C3B67797   9.575   7.645   6.892
 5289POPC   C4B67798   9.691   7.960   7.155
 5290POPC   NC367799  15.397   6.301   5.402
 5290POPC   PO467800  14.884   6.642   5.420
 5290POPC   GL167801  15.129   6.559   5.787
 5290POPC   GL267802  15.477   6.627   5.780
 5290POPC   C1A67803  15.221   6.750   6.203
 5290POPC   D2A67804  15.062   6.662   6.598
 5290POPC   C3A67805  15.056   6.955   6.952
 5290POPC   C4A67806  14.832   6.923   7.336
 5290POPC   C1B67807  15.617   6.421   6.155
 5290POPC   C2B67808  15.489   6.358   6.580
 5290POPC   C3B67809  15.352   6.498   6.989
 5290POPC   C4B67810  15.267   6.654   7.394
 5291POPC   NC367811  31.428  13.053   5.268
 5291POPC   PO467812  30.680  13.012   5.348
 5291POPC   GL167813  30.829  12.896   5.729
 5291POPC   GL267814  31.115  13.095   5.705
 5291POPC   C1A67815  30.671  12.708   6.135
 5291POPC   D2A67816  30.825  12.780   6.565
 5291POPC   C3A67817  30.624  12.737   6.995
 5291POPC   C4A67818  30.735  12.494   7.382
 5291POPC   C1B67819  31.099  13.004   6.160
 5291POPC   C2B67820  31.059  13.236   6.534
 5291POPC   C3B67821  31.026  13.072   6.933
 5291POPC   C4B67822  31.052  13.220   7.323
 5292POPC   NC367823  10.320   1.424   5.441
 5292POPC   PO467824  10.857   1.108   5.442
 5292POPC   GL167825  10.644   0.986   5.828
 5292POPC   GL267826  10.335   1.191   5.907
 5292POPC   C1A67827  10.689   1.053   6.292
 5292POPC   D2A67828  10.344   1.146   6.580
 5292POPC   C3A67829  10.338   1.072   7.047
 5292POPC   C4A67830  10.611   1.113   7.420
 5292POPC   C1B67831  10.698   1.484   6.025
 5292POPC   C2B67832  10.666   1.563   6.462
 5292POPC   C3B67833  10.726   1.408   6.881
 5292POPC   C4B67834  10.951   1.503   7.246
 5293POPC   NC367835  18.438  33.027   4.884
 5293POPC   PO467836  18.253  33.208   5.425
 5293POPC   GL167837  18.231  32.963   5.847
 5293POPC   GL267838  18.454  32.678   5.866
 5293POPC   C1A67839  17.940  32.961   6.221
 5293POPC   D2A67840  17.878  32.866   6.660
 5293POPC   C3A67841  18.195  33.056   6.919
 5293POPC   C4A67842  18.263  33.201   7.328
 5293POPC   C1B67843  18.291  32.552   6.288
 5293POPC   C2B67844  18.341  32.576   6.752
 5293POPC   C3B67845  18.597  32.779   7.104
 5293POPC   C4B67846  18.596  32.896   7.572
 5294POPC   NC367847  23.994  28.952   5.383
 5294POPC   PO467848  23.324  29.061   5.326
 5294POPC   GL167849  23.634  29.024   5.754
 5294POPC   GL267850  24.028  29.166   5.829
 5294POPC   C1A67851  23.668  29.263   6.174
 5294POPC   D2A67852  23.631  29.413   6.584
 5294POPC   C3A67853  23.376  29.134   6.807
 5294POPC   C4A67854  23.406  29.092   7.227
 5294POPC   C1B67855  23.979  28.864   6.130
 5294POPC   C2B67856  23.812  28.887   6.556
 5294POPC   C3B67857  23.898  29.110   6.932
 5294POPC   C4B67858  23.903  29.084   7.367
 5295POPC   NC367859  41.501  40.789   5.338
 5295POPC   PO467860  42.080  40.477   5.166
 5295POPC   GL167861  41.852  40.666   5.676
 5295POPC   GL267862  41.493  40.721   5.826
 5295POPC   C1A67863  41.833  40.662   6.182
 5295POPC   D2A67864  41.673  40.585   6.612
 5295POPC   C3A67865  41.846  40.754   6.998
 5295POPC   C4A67866  41.624  40.990   7.292
 5295POPC   C1B67867  41.251  40.561   6.176
 5295POPC   C2B67868  41.104  40.685   6.586
 5295POPC   C3B67869  41.318  40.835   6.917
 5295POPC   C4B67870  41.329  40.572   7.261
 5296POPC   NC367871  44.173  44.753   5.412
 5296POPC   PO467872  43.483  44.895   5.499
 5296POPC   GL167873  43.792  44.621   5.755
 5296POPC   GL267874  44.143  44.704   5.909
 5296POPC   C1A67875  43.901  44.336   6.115
 5296POPC   D2A67876  44.064  44.456   6.541
 5296POPC   C3A67877  43.824  44.560   6.930
 5296POPC   C4A67878  43.916  44.649   7.381
 5296POPC   C1B67879  43.863  44.839   6.243
 5296POPC   C2B67880  43.927   0.014   6.673
 5296POPC   C3B67881  44.119   0.017   7.096
 5296POPC   C4B67882  44.475   0.232   7.328
 5297POPC   NC367883  27.407  33.486   5.568
 5297POPC   PO467884  27.335  34.125   5.499
 5297POPC   GL167885  27.637  33.921   5.808
 5297POPC   GL267886  27.962  34.102   5.787
 5297POPC   C1A67887  27.580  33.691   6.191
 5297POPC   D2A67888  27.375  33.846   6.554
 5297POPC   C3A67889  27.545  33.733   6.919
 5297POPC   C4A67890  27.507  33.780   7.313
 5297POPC   C1B67891  27.981  33.994   6.241
 5297POPC   C2B67892  27.872  34.059   6.676
 5297POPC   C3B67893  27.880  34.093   7.140
 5297POPC   C4B67894  27.922  33.884   7.570
 5298POPC   NC367895  30.891  43.597   5.361
 5298POPC   PO467896  30.301  43.704   5.559
 5298POPC   GL167897  30.731  43.857   5.773
 5298POPC   GL267898  30.811  44.204   5.793
 5298POPC   C1A67899  30.980  43.897   6.172
 5298POPC   D2A67900  30.876  43.658   6.559
 5298POPC   C3A67901  30.744  43.911   6.918
 5298POPC   C4A67902  30.546  43.806   7.296
 5298POPC   C1B67903  30.499  44.143   6.164
 5298POPC   C2B67904  30.348  43.924   6.565
 5298POPC   C3B67905  30.218  44.052   6.990
 5298POPC   C4B67906  30.345  44.270   7.368
 5299POPC   NC367907  35.194  37.419   5.442
 5299POPC   PO467908  35.646  37.969   5.573
 5299POPC   GL167909  35.563  37.591   5.832
 5299POPC   GL267910  35.281  37.696   5.854
 5299POPC   C1A67911  35.429  37.382   6.207
 5299POPC   D2A67912  35.336  37.281   6.605
 5299POPC   C3A67913  35.652  37.440   6.874
 5299POPC   C4A67914  35.492  37.427   7.256
 5299POPC   C1B67915  35.103  37.780   6.203
 5299POPC   C2B67916  35.374  37.797   6.528
 5299POPC   C3B67917  35.260  37.759   6.924
 5299POPC   C4B67918  35.442  37.989   7.213
 5300POPC   NC367919  33.224  12.396   5.451
 5300POPC   PO467920  32.755  12.886   5.518
 5300POPC   GL167921  32.862  13.080   5.880
 5300POPC   GL267922  33.167  12.884   5.861
 5300POPC   C1A67923  32.928  13.041   6.308
 5300POPC   D2A67924  32.957  12.727   6.608
 5300POPC   C3A67925  32.826  12.853   6.998
 5300POPC   C4A67926  32.819  12.535   7.292
 5300POPC   C1B67927  33.333  12.742   6.226
 5300POPC   C2B67928  33.445  12.979   6.564
 5300POPC   C3B67929  33.346  12.902   6.939
 5300POPC   C4B67930  33.258  12.754   7.324
 5301POPC   NC367931  23.854  18.869   5.340
 5301POPC   PO467932  23.956  19.486   5.481
 5301POPC   GL167933  23.778  19.172   5.752
 5301POPC   GL267934  23.547  19.383   5.906
 5301POPC   C1A67935  23.684  18.860   6.094
 5301POPC   D2A67936  23.930  18.801   6.494
 5301POPC   C3A67937  23.731  18.947   6.887
 5301POPC   C4A67938  23.305  18.908   7.065
 5301POPC   C1B67939  23.881  19.310   6.240
 5301POPC   C2B67940  24.082  19.320   6.640
 5301POPC   C3B67941  23.936  19.397   7.036
 5301POPC   C4B67942  23.475  19.386   7.118
 5302POPC   NC367943  36.654  15.620   5.395
 5302POPC   PO467944  37.136  16.088   5.482
 5302POPC   GL167945  36.901  16.228   5.813
 5302POPC   GL267946  37.122  16.480   5.901
 5302POPC   C1A67947  36.997  16.057   6.215
 5302POPC   D2A67948  37.236  15.846   6.531
 5302POPC   C3A67949  36.945  15.846   6.871
 5302POPC   C4A67950  36.962  15.708   7.273
 5302POPC   C1B67951  37.019  16.577   6.284
 5302POPC   C2B67952  37.256  16.379   6.571
 5302POPC   C3B67953  37.121  16.323   6.926
 5302POPC   C4B67954  36.849  16.271   7.240
 5303POPC   NC367955   1.676  18.770   5.363
 5303POPC   PO467956   2.240  19.266   5.311
 5303POPC   GL167957   2.191  19.196   5.744
 5303POPC   GL267958   2.009  18.886   5.736
 5303POPC   C1A67959   2.025  19.347   6.154
 5303POPC   D2A67960   2.017  19.540   6.573
 5303POPC   C3A67961   1.930  19.290   6.924
 5303POPC   C4A67962   2.164  19.374   7.280
 5303POPC   C1B67963   2.194  18.860   6.142
 5303POPC   C2B67964   2.130  18.984   6.549
 5303POPC   C3B67965   2.113  18.810   6.960
 5303POPC   C4B67966   2.174  18.877   7.399
 5304POPC   NC367967   8.787  27.506   5.175
 5304POPC   PO467968   8.753  27.183   5.744
 5304POPC   GL167969   9.075  27.486   5.882
 5304POPC   GL267970   9.048  27.863   5.819
 5304POPC   C1A67971   9.121  27.446   6.301
 5304POPC   D2A67972   9.196  27.208   6.630
 5304POPC   C3A67973   9.041  27.367   6.993
 5304POPC   C4A67974   9.040  27.765   7.199
 5304POPC   C1B67975   9.076  27.942   6.261
 5304POPC   C2B67976   8.943  27.771   6.668
 5304POPC   C3B67977   8.606  27.743   6.924
 5304POPC   C4B67978   8.639  27.491   7.293
 5305POPC   NC367979  33.423  15.420   5.481
 5305POPC   PO467980  33.152  14.867   5.705
 5305POPC   GL167981  33.201  15.278   5.929
 5305POPC   GL267982  32.959  15.570   5.895
 5305POPC   C1A67983  33.277  15.436   6.343
 5305POPC   D2A67984  33.182  15.309   6.789
 5305POPC   C3A67985  33.371  14.926   6.979
 5305POPC   C4A67986  33.613  14.754   7.353
 5305POPC   C1B67987  32.795  15.354   6.279
 5305POPC   C2B67988  32.640  15.466   6.694
 5305POPC   C3B67989  32.802  15.514   7.084
 5305POPC   C4B67990  32.821  15.067   7.071
 5306POPC   NC367991  29.213   7.289   5.504
 5306POPC   PO467992  28.974   7.987   5.352
 5306POPC   GL167993  29.072   7.734   5.748
 5306POPC   GL267994  29.422   7.613   5.860
 5306POPC   C1A67995  29.025   7.726   6.197
 5306POPC   D2A67996  29.276   7.725   6.584
 5306POPC   C3A67997  29.137   7.515   6.985
 5306POPC   C4A67998  28.740   7.358   7.216
 5306POPC   C1B67999  29.300   7.304   6.190
 5306POPC   C2B68000  28.973   7.289   6.554
 5306POPC   C3B68001  29.008   7.024   6.948
 5306POPC   C4B68002  29.416   7.031   7.159
 5307POPC   NC368003  19.058  10.879   5.441
 5307POPC   PO468004  18.769  10.233   5.437
 5307POPC   GL168005  18.842  10.280   5.856
 5307POPC   GL268006  18.860  10.620   5.825
 5307POPC   C1A68007  18.930  10.234   6.292
 5307POPC   D2A68008  18.900  10.180   6.726
 5307POPC   C3A68009  19.274  10.334   6.945
 5307POPC   C4A68010  19.319  10.761   7.113
 5307POPC   C1B68011  18.821  10.727   6.231
 5307POPC   C2B68012  19.038  10.670   6.605
 5307POPC   C3B68013  18.843  10.630   6.994
 5307POPC   C4B68014  18.583  10.281   7.104
 5308POPC   NC368015  41.594  20.981   5.359
 5308POPC   PO468016  41.867  20.385   5.249
 5308POPC   GL168017  41.788  20.514   5.734
 5308POPC   GL268018  41.725  20.861   5.848
 5308POPC   C1A68019  41.592  20.411   6.166
 5308POPC   D2A68020  41.746  20.358   6.613
 5308POPC   C3A68021  41.502  20.435   6.981
 5308POPC   C4A68022  41.185  20.533   7.262
 5308POPC   C1B68023  41.818  20.850   6.309
 5308POPC   C2B68024  41.599  20.892   6.716
 5308POPC   C3B68025  41.409  20.954   7.123
 5308POPC   C4B68026  41.542  21.063   7.567
 5309POPC   NC368027   2.440  20.478   5.389
 5309POPC   PO468028   1.790  20.657   5.379
 5309POPC   GL168029   1.826  20.623   5.810
 5309POPC   GL268030   2.147  20.611   5.794
 5309POPC   C1A68031   1.763  20.595   6.263
 5309POPC   D2A68032   1.757  20.607   6.713
 5309POPC   C3A68033   2.008  20.856   6.995
 5309POPC   C4A68034   1.773  20.726   7.305
 5309POPC   C1B68035   2.225  20.359   6.126
 5309POPC   C2B68036   2.241  20.476   6.546
 5309POPC   C3B68037   2.179  20.361   6.949
 5309POPC   C4B68038   2.253  20.523   7.345
 5310POPC   NC368039  31.447  22.154   5.271
 5310POPC   PO468040  31.204  22.680   5.433
 5310POPC   GL168041  31.418  22.386   5.751
 5310POPC   GL268042  31.493  21.997   5.739
 5310POPC   C1A68043  31.441  22.417   6.217
 5310POPC   D2A68044  31.335  22.619   6.629
 5310POPC   C3A68045  31.226  22.362   6.975
 5310POPC   C4A68046  31.569  22.267   7.238
 5310POPC   C1B68047  31.484  21.907   6.165
 5310POPC   C2B68048  31.409  22.061   6.589
 5310POPC   C3B68049  31.503  21.863   6.962
 5310POPC   C4B68050  31.782  21.589   7.131
 5311POPC   NC368051  44.711  34.301   5.531
 5311POPC   PO468052  44.896  33.684   5.316
 5311POPC   GL168053  44.656  33.831   5.784
 5311POPC   GL268054  44.500  34.169   5.955
 5311POPC   C1A68055  44.685  33.841   6.296
 5311POPC   D2A68056  44.489  33.769   6.742
 5311POPC   C3A68057  44.607  33.878   7.197
 5311POPC   C4A68058  44.351  33.999   7.627
 5311POPC   C1B68059  44.873  34.318   6.218
 5311POPC   C2B68060  44.839  34.215   6.670
 5311POPC   C3B68061  44.918  34.274   7.103
 5311POPC   C4B68062  44.815  34.203   7.561
 5312POPC   NC368063  37.075  22.857   5.304
 5312POPC   PO468064  36.434  22.828   5.510
 5312POPC   GL168065  36.696  22.871   5.886
 5312POPC   GL268066  37.040  22.893   5.806
 5312POPC   C1A68067  36.675  22.771   6.344
 5312POPC   D2A68068  36.359  22.733   6.697
 5312POPC   C3A68069  36.549  22.849   7.091
 5312POPC   C4A68070  36.849  22.746   7.408
 5312POPC   C1B68071  37.170  23.019   6.208
 5312POPC   C2B68072  37.262  22.747   6.550
 5312POPC   C3B68073  37.057  22.761   6.932
 5312POPC   C4B68074  37.083  23.130   7.202
 5313POPC   NC368075  18.398  31.953   5.429
 5313POPC   PO468076  18.030  32.509   5.465
 5313POPC   GL168077  18.186  32.236   5.826
 5313POPC   GL268078  17.980  31.939   5.832
 5313POPC   C1A68079  18.520  32.079   6.165
 5313POPC   D2A68080  18.768  32.211   6.556
 5313POPC   C3A68081  18.662  32.249   7.002
 5313POPC   C4A68082  18.632  32.387   7.450
 5313POPC   C1B68083  18.037  32.096   6.287
 5313POPC   C2B68084  18.272  32.027   6.647
 5313POPC   C3B68085  18.195  32.081   7.082
 5313POPC   C4B68086  18.173  32.199   7.521
 5314POPC   NC368087   3.413   6.711   5.371
 5314POPC   PO468088   3.902   6.235   5.606
 5314POPC   GL168089   3.667   6.569   5.881
 5314POPC   GL268090   3.526   6.924   5.834
 5314POPC   C1A68091   3.773   6.836   6.277
 5314POPC   D2A68092   3.602   6.609   6.621
 5314POPC   C3A68093   3.660   6.638   7.045
 5314POPC   C4A68094   3.545   6.835   7.433
 5314POPC   C1B68095   3.270   6.769   6.223
 5314POPC   C2B68096   3.141   6.868   6.683
 5314POPC   C3B68097   3.121   6.765   7.152
 5314POPC   C4B68098   3.074   6.866   7.637
 5315POPC   NC368099  41.184  15.615   5.560
 5315POPC   PO468100  40.484  15.724   5.478
 5315POPC   GL168101  40.657  15.925   5.911
 5315POPC   GL268102  40.860  16.249   5.910
 5315POPC   C1A68103  40.535  16.131   6.301
 5315POPC   D2A68104  40.298  16.104   6.685
 5315POPC   C3A68105  40.514  15.816   6.942
 5315POPC   C4A68106  40.489  15.912   7.377
 5315POPC   C1B68107  41.059  16.101   6.267
 5315POPC   C2B68108  40.909  16.064   6.690
 5315POPC   C3B68109  40.949  16.006   7.140
 5315POPC   C4B68110  40.833  16.249   7.535
 5316POPC   NC368111  17.279  33.875   5.318
 5316POPC   PO468112  17.431  33.299   5.593
 5316POPC   GL168113  17.297  33.616   5.852
 5316POPC   GL268114  17.610  33.825   5.827
 5316POPC   C1A68115  17.381  33.754   6.277
 5316POPC   D2A68116  17.599  33.750   6.657
 5316POPC   C3A68117  17.354  33.852   6.990
 5316POPC   C4A68118  17.218  34.146   7.276
 5316POPC   C1B68119  17.808  33.503   6.150
 5316POPC   C2B68120  17.962  33.393   6.596
 5316POPC   C3B68121  17.854  33.480   7.054
 5316POPC   C4B68122  17.705  33.827   7.348
 5317POPC   NC368123  44.843  15.735   5.391
 5317POPC   PO468124  44.258  15.994   5.564
 5317POPC   GL168125  44.514  15.757   5.824
 5317POPC   GL268126  44.235  15.542   5.873
 5317POPC   C1A68127  44.736  15.797   6.237
 5317POPC   D2A68128  44.702  16.014   6.657
 5317POPC   C3A68129  44.801  15.858   7.077
 5317POPC   C4A68130  44.819  16.147   7.473
 5317POPC   C1B68131  44.217  15.722   6.290
 5317POPC   C2B68132  44.252  15.714   6.737
 5317POPC   C3B68133  44.292  15.822   7.151
 5317POPC   C4B68134  44.527  15.707   7.515
 5318POPC   NC368135  10.124  19.430   5.560
 5318POPC   PO468136   9.841  19.952   5.422
 5318POPC   GL168137   9.888  20.073   5.860
 5318POPC   GL268138  10.079  20.405   5.915
 5318POPC   C1A68139   9.737  19.885   6.246
 5318POPC   D2A68140   9.479  20.043   6.616
 5318POPC   C3A68141   9.583  19.852   6.999
 5318POPC   C4A68142   9.991  19.820   7.157
 5318POPC   C1B68143  10.139  20.226   6.295
 5318POPC   C2B68144  10.026  20.003   6.645
 5318POPC   C3B68145  10.280  20.164   6.895
 5318POPC   C4B68146  10.316  20.197   7.290
 5319POPC   NC368147  31.726   0.180   5.261
 5319POPC   PO468148  31.519   0.807   5.303
 5319POPC   GL168149  31.627   0.602   5.698
 5319POPC   GL268150  31.829   0.852   5.846
 5319POPC   C1A68151  31.692   0.332   6.100
 5319POPC   D2A68152  31.849   0.312   6.568
 5319POPC   C3A68153  31.595   0.270   6.964
 5319POPC   C4A68154  31.780   0.247   7.370
 5319POPC   C1B68155  31.642   0.822   6.257
 5319POPC   C2B68156  31.494   0.670   6.666
 5319POPC   C3B68157  31.595   0.782   7.104
 5319POPC   C4B68158  31.389   0.996   7.451
 5320POPC   NC368159  35.769  40.652   5.352
 5320POPC   PO468160  36.401  40.897   5.441
 5320POPC   GL168161  36.084  40.713   5.763
 5320POPC   GL268162  35.796  40.961   5.797
 5320POPC   C1A68163  35.848  40.560   6.146
 5320POPC   D2A68164  35.791  40.346   6.554
 5320POPC   C3A68165  35.840  40.610   6.921
 5320POPC   C4A68166  36.260  40.699   7.011
 5320POPC   C1B68167  36.061  41.067   6.164
 5320POPC   C2B68168  36.056  40.971   6.600
 5320POPC   C3B68169  36.024  41.174   7.002
 5320POPC   C4B68170  36.233  41.059   7.389
 5321POPC   NC368171  12.342   5.156   5.332
 5321POPC   PO468172  11.702   5.394   5.410
 5321POPC   GL168173  11.917   5.048   5.730
 5321POPC   GL268174  12.238   4.802   5.808
 5321POPC   C1A68175  12.051   5.110   6.167
 5321POPC   D2A68176  12.010   5.312   6.550
 5321POPC   C3A68177  11.891   5.036   6.868
 5321POPC   C4A68178  12.037   5.092   7.254
 5321POPC   C1B68179  12.475   4.814   6.173
 5321POPC   C2B68180  12.301   4.881   6.573
 5321POPC   C3B68181  12.404   5.146   6.919
 5321POPC   C4B68182  12.666   5.005   7.231
 5322POPC   NC368183  39.626  42.370   5.124
 5322POPC   PO468184  40.130  42.476   5.594
 5322POPC   GL168185  39.949  42.196   5.843
 5322POPC   GL268186  39.630  42.146   5.720
 5322POPC   C1A68187  39.960  42.225   6.278
 5322POPC   D2A68188  39.984  42.321   6.711
 5322POPC   C3A68189  40.271  42.440   7.041
 5322POPC   C4A68190  40.139  42.391   7.497
 5322POPC   C1B68191  39.607  41.887   6.107
 5322POPC   C2B68192  39.591  41.982   6.569
 5322POPC   C3B68193  39.878  41.914   6.975
 5322POPC   C4B68194  39.866  41.939   7.429
 5323POPC   NC368195  10.754   6.234   5.391
 5323POPC   PO468196  10.184   6.630   5.560
 5323POPC   GL168197  10.521   6.500   5.809
 5323POPC   GL268198  10.596   6.846   5.820
 5323POPC   C1A68199  10.693   6.585   6.241
 5323POPC   D2A68200  10.655   6.956   6.550
 5323POPC   C3A68201  10.646   6.745   6.993
 5323POPC   C4A68202  10.665   6.279   7.096
 5323POPC   C1B68203  10.265   6.831   6.193
 5323POPC   C2B68204  10.289   6.587   6.622
 5323POPC   C3B68205  10.149   6.566   7.078
 5323POPC   C4B68206  10.319   6.445   7.479
 5324POPC   NC368207  23.723   3.950   5.339
 5324POPC   PO468208  23.246   3.436   5.162
 5324POPC   GL168209  23.520   3.432   5.592
 5324POPC   GL268210  23.749   3.685   5.763
 5324POPC   C1A68211  23.644   3.283   6.040
 5324POPC   D2A68212  23.767   3.200   6.476
 5324POPC   C3A68213  23.927   3.413   6.846
 5324POPC   C4A68214  23.724   3.208   7.191
 5324POPC   C1B68215  23.524   3.837   6.131
 5324POPC   C2B68216  23.617   3.817   6.585
 5324POPC   C3B68217  23.558   3.700   7.019
 5324POPC   C4B68218  23.815   3.680   7.369
 5325POPC   NC368219   9.983   5.821   5.319
 5325POPC   PO468220   9.579   5.591   5.759
 5325POPC   GL168221   9.733   6.017   5.804
 5325POPC   GL268222  10.019   6.231   5.821
 5325POPC   C1A68223   9.895   5.948   6.235
 5325POPC   D2A68224   9.692   5.846   6.634
 5325POPC   C3A68225   9.731   5.738   7.091
 5325POPC   C4A68226   9.370   5.535   7.242
 5325POPC   C1B68227  10.281   6.264   6.202
 5325POPC   C2B68228  10.249   6.035   6.601
 5325POPC   C3B68229  10.229   6.035   7.039
 5325POPC   C4B68230   9.966   6.100   7.382
 5326POPC   NC368231  21.576  25.891   5.249
 5326POPC   PO468232  21.310  26.543   5.453
 5326POPC   GL168233  21.337  26.231   5.775
 5326POPC   GL268234  21.667  26.088   5.846
 5326POPC   C1A68235  21.347  26.212   6.235
 5326POPC   D2A68236  21.356  26.372   6.649
 5326POPC   C3A68237  21.246  26.079   6.944
 5326POPC   C4A68238  21.333  25.963   7.334
 5326POPC   C1B68239  21.736  25.847   6.232
 5326POPC   C2B68240  21.588  25.871   6.633
 5326POPC   C3B68241  21.702  25.718   7.037
 5326POPC   C4B68242  21.838  25.906   7.361
 5327POPC   NC368243   7.132   5.619   5.099
 5327POPC   PO468244   6.855   6.066   5.589
 5327POPC   GL168245   6.564   6.020   5.928
 5327POPC   GL268246   6.577   5.687   5.976
 5327POPC   C1A68247   6.546   6.038   6.378
 5327POPC   D2A68248   6.881   6.212   6.643
 5327POPC   C3A68249   6.932   5.962   6.990
 5327POPC   C4A68250   6.530   5.834   7.124
 5327POPC   C1B68251   6.832   5.612   6.377
 5327POPC   C2B68252   6.617   5.416   6.744
 5327POPC   C3B68253   6.562   5.349   7.197
 5327POPC   C4B68254   6.670   5.498   7.619
 5328POPC   NC368255  29.576  20.220   5.113
 5328POPC   PO468256  29.077  20.617   5.418
 5328POPC   GL168257  28.946  20.575   5.876
 5328POPC   GL268258  29.229  20.415   6.030
 5328POPC   C1A68259  29.019  20.684   6.360
 5328POPC   D2A68260  29.310  20.733   6.665
 5328POPC   C3A68261  29.151  20.719   7.046
 5328POPC   C4A68262  28.754  20.551   7.134
 5328POPC   C1B68263  29.572  20.642   6.206
 5328POPC   C2B68264  29.790  20.628   6.568
 5328POPC   C3B68265  29.626  20.456   6.966
 5328POPC   C4B68266  29.469  20.504   7.389
 5329POPC   NC368267  18.320   6.533   5.417
 5329POPC   PO468268  18.374   7.148   5.240
 5329POPC   GL168269  18.284   7.022   5.683
 5329POPC   GL268270  18.441   6.717   5.880
 5329POPC   C1A68271  18.157   7.063   6.123
 5329POPC   D2A68272  18.193   6.778   6.459
 5329POPC   C3A68273  18.530   6.748   6.778
 5329POPC   C4A68274  18.360   6.862   7.179
 5329POPC   C1B68275  18.132   6.411   6.075
 5329POPC   C2B68276  17.940   6.321   6.477
 5329POPC   C3B68277  18.101   6.477   6.870
 5329POPC   C4B68278  18.264   6.365   7.260
 5330POPC   NC368279   3.882  27.882   5.667
 5330POPC   PO468280   3.337  28.230   5.288
 5330POPC   GL168281   3.356  28.349   5.763
 5330POPC   GL268282   3.654  28.222   5.972
 5330POPC   C1A68283   3.316  28.536   6.174
 5330POPC   D2A68284   3.210  28.411   6.602
 5330POPC   C3A68285   3.373  28.656   6.964
 5330POPC   C4A68286   3.590  28.648   7.369
 5330POPC   C1B68287   4.033  28.147   6.235
 5330POPC   C2B68288   3.995  27.964   6.608
 5330POPC   C3B68289   3.666  28.166   6.813
 5330POPC   C4B68290   3.467  28.187   7.182
 5331POPC   NC368291   8.600  11.465   5.268
 5331POPC   PO468292   8.161  10.972   5.363
 5331POPC   GL168293   8.329  11.005   5.783
 5331POPC   GL268294   8.222  11.324   5.798
 5331POPC   C1A68295   8.416  11.128   6.244
 5331POPC   D2A68296   8.184  11.330   6.615
 5331POPC   C3A68297   8.182  11.174   7.051
 5331POPC   C4A68298   7.986  11.234   7.449
 5331POPC   C1B68299   8.238  11.617   6.173
 5331POPC   C2B68300   8.471  11.764   6.555
 5331POPC   C3B68301   8.461  11.608   6.980
 5331POPC   C4B68302   8.324  11.593   7.393
 5332POPC   NC368303  21.057   9.510   5.425
 5332POPC   PO468304  21.311  10.058   5.187
 5332POPC   GL168305  21.345   9.887   5.649
 5332POPC   GL268306  21.626   9.654   5.781
 5332POPC   C1A68307  21.367   9.945   6.116
 5332POPC   D2A68308  21.599  10.030   6.523
 5332POPC   C3A68309  21.423   9.986   6.927
 5332POPC   C4A68310  21.588   9.988   7.355
 5332POPC   C1B68311  21.332   9.445   6.081
 5332POPC   C2B68312  21.334   9.333   6.528
 5332POPC   C3B68313  21.475   9.475   6.916
 5332POPC   C4B68314  21.369   9.512   7.336
 5333POPC   NC368315  42.308  44.554   5.225
 5333POPC   PO468316  42.558   0.103   5.485
 5333POPC   GL168317  42.312  44.931   5.827
 5333POPC   GL268318  42.447  44.567   5.884
 5333POPC   C1A68319  42.310  44.824   6.294
 5333POPC   D2A68320  42.631  44.807   6.598
 5333POPC   C3A68321  42.445  44.720   7.005
 5333POPC   C4A68322  42.020  44.761   7.126
 5333POPC   C1B68323  42.578  44.338   6.319
 5333POPC   C2B68324  42.638  44.276   6.812
 5333POPC   C3B68325  42.521  44.290   7.302
 5333POPC   C4B68326  42.611  44.361   7.775
 5334POPC   NC368327  13.825  27.847   5.498
 5334POPC   PO468328  13.210  27.592   5.519
 5334POPC   GL168329  13.549  27.542   5.818
 5334POPC   GL268330  13.821  27.294   5.675
 5334POPC   C1A68331  13.683  27.815   6.175
 5334POPC   D2A68332  13.818  28.006   6.561
 5334POPC   C3A68333  13.984  27.748   6.838
 5334POPC   C4A68334  13.774  27.712   7.202
 5334POPC   C1B68335  13.834  27.263   6.135
 5334POPC   C2B68336  13.694  27.419   6.544
 5334POPC   C3B68337  13.778  27.272   6.961
 5334POPC   C4B68338  13.966  27.261   7.373
 5335POPC   NC368339   6.985   5.601   5.645
 5335POPC   PO468340   7.473   5.918   5.204
 5335POPC   GL168341   7.466   5.888   5.667
 5335POPC   GL268342   7.562   5.539   5.736
 5335POPC   C1A68343   7.495   5.904   6.136
 5335POPC   D2A68344   7.264   5.889   6.538
 5335POPC   C3A68345   7.445   5.845   6.969
 5335POPC   C4A68346   7.363   6.093   7.348
 5335POPC   C1B68347   7.789   5.481   6.122
 5335POPC   C2B68348   7.755   5.680   6.534
 5335POPC   C3B68349   7.886   5.587   6.944
 5335POPC   C4B68350   7.860   5.767   7.341
 5336POPC   NC368351  35.083  15.098   5.150
 5336POPC   PO468352  34.754  15.369   5.610
 5336POPC   GL168353  34.698  15.093   5.939
 5336POPC   GL268354  34.852  14.807   5.938
 5336POPC   C1A68355  34.557  15.212   6.304
 5336POPC   D2A68356  34.323  15.376   6.603
 5336POPC   C3A68357  34.589  15.374   6.935
 5336POPC   C4A68358  34.315  15.438   7.219
 5336POPC   C1B68359  34.762  14.756   6.383
 5336POPC   C2B68360  34.539  14.900   6.747
 5336POPC   C3B68361  34.591  14.911   7.203
 5336POPC   C4B68362  34.906  14.849   7.541
 5337POPC   NC368363  11.202  29.915   5.369
 5337POPC   PO468364  11.848  29.587   5.351
 5337POPC   GL168365  11.689  29.902   5.691
 5337POPC   GL268366  11.399  29.728   5.799
 5337POPC   C1A68367  11.572  30.100   6.116
 5337POPC   D2A68368  11.304  30.071   6.503
 5337POPC   C3A68369  11.529  30.097   6.913
 5337POPC   C4A68370  11.635  29.767   7.205
 5337POPC   C1B68371  11.193  29.582   6.143
 5337POPC   C2B68372  11.012  29.612   6.523
 5337POPC   C3B68373  11.202  29.692   6.902
 5337POPC   C4B68374  11.156  29.957   7.239
 5338POPC   NC368375  10.991  25.093   5.274
 5338POPC   PO468376  11.617  25.307   5.522
 5338POPC   GL168377  11.275  25.197   5.778
 5338POPC   GL268378  11.003  24.974   5.776
 5338POPC   C1A68379  11.237  25.307   6.198
 5338POPC   D2A68380  11.300  25.617   6.511
 5338POPC   C3A68381  11.318  25.383   6.886
 5338POPC   C4A68382  11.464  25.442   7.276
 5338POPC   C1B68383  10.903  24.920   6.221
 5338POPC   C2B68384  11.013  25.008   6.687
 5338POPC   C3B68385  11.052  25.025   7.174
 5338POPC   C4B68386  11.326  24.899   7.537
 5339POPC   NC368387   1.085  30.104   5.300
 5339POPC   PO468388   1.686  29.754   5.443
 5339POPC   GL168389   1.453  30.011   5.740
 5339POPC   GL268390   1.126  29.883   5.752
 5339POPC   C1A68391   1.441  29.917   6.201
 5339POPC   D2A68392   1.206  29.898   6.620
 5339POPC   C3A68393   1.348  29.979   7.048
 5339POPC   C4A68394   1.466  30.322   7.313
 5339POPC   C1B68395   0.934  29.951   6.130
 5339POPC   C2B68396   0.772  29.705   6.451
 5339POPC   C3B68397   0.734  29.688   6.875
 5339POPC   C4B68398   0.908  29.834   7.258
 5340POPC   NC368399  15.642  25.305   5.423
 5340POPC   PO468400  16.268  25.126   5.524
 5340POPC   GL168401  15.975  25.198   5.844
 5340POPC   GL268402  15.691  24.991   5.826
 5340POPC   C1A68403  16.048  25.083   6.277
 5340POPC   D2A68404  16.067  25.255   6.682
 5340POPC   C3A68405  16.215  25.055   7.050
 5340POPC   C4A68406  16.190  25.447   7.227
 5340POPC   C1B68407  15.537  25.174   6.236
 5340POPC   C2B68408  15.563  25.189   6.720
 5340POPC   C3B68409  15.725  25.244   7.165
 5340POPC   C4B68410  15.906  25.185   7.622
 5341POPC   NC368411  19.890  21.255   5.052
 5341POPC   PO468412  19.768  21.449   5.691
 5341POPC   GL168413  19.496  21.389   6.043
 5341POPC   GL268414  19.694  21.107   6.096
 5341POPC   C1A68415  19.490  21.361   6.483
 5341POPC   D2A68416  19.734  21.607   6.756
 5341POPC   C3A68417  19.683  21.444   7.134
 5341POPC   C4A68418  19.576  21.526   7.530
 5341POPC   C1B68419  19.977  21.350   6.353
 5341POPC   C2B68420  20.093  21.216   6.772
 5341POPC   C3B68421  20.116  21.191   7.183
 5341POPC   C4B68422  19.839  21.091   7.486
 5342POPC   NC368423   5.445  37.646   5.501
 5342POPC   PO468424   4.847  38.005   5.419
 5342POPC   GL168425   4.961  37.799   5.799
 5342POPC   GL268426   4.952  37.457   5.776
 5342POPC   C1A68427   5.227  37.721   6.171
 5342POPC   D2A68428   5.164  37.864   6.602
 5342POPC   C3A68429   5.227  37.912   7.044
 5342POPC   C4A68430   4.839  37.828   7.278
 5342POPC   C1B68431   4.996  37.273   6.207
 5342POPC   C2B68432   5.222  37.363   6.581
 5342POPC   C3B68433   5.022  37.439   6.955
 5342POPC   C4B68434   4.816  37.309   7.311
 5343POPC   NC368435  24.892  13.839   5.557
 5343POPC   PO468436  25.438  13.680   5.394
 5343POPC   GL168437  25.261  13.552   5.844
 5343POPC   GL268438  25.245  13.182   5.939
 5343POPC   C1A68439  25.018  13.485   6.261
 5343POPC   D2A68440  25.152  13.333   6.694
 5343POPC   C3A68441  24.925  13.446   7.062
 5343POPC   C4A68442  24.945  13.570   7.509
 5343POPC   C1B68443  25.513  13.273   6.310
 5343POPC   C2B68444  25.656  13.420   6.742
 5343POPC   C3B68445  25.463  13.505   7.173
 5343POPC   C4B68446  25.457  13.510   7.648
 5344POPC   NC368447  43.578  27.598   5.489
 5344POPC   PO468448  43.304  27.051   5.396
 5344POPC   GL168449  43.132  27.408   5.700
 5344POPC   GL268450  43.394  27.356   5.917
 5344POPC   C1A68451  43.112  27.733   6.103
 5344POPC   D2A68452  43.389  27.792   6.456
 5344POPC   C3A68453  43.288  27.804   6.900
 5344POPC   C4A68454  42.920  27.658   7.067
 5344POPC   C1B68455  43.156  27.266   6.292
 5344POPC   C2B68456  43.188  27.327   6.730
 5344POPC   C3B68457  43.364  27.342   7.148
 5344POPC   C4B68458  43.495  27.288   7.615
 5345POPC   NC368459  12.852   8.504   5.134
 5345POPC   PO468460  12.858   7.882   5.220
 5345POPC   GL168461  12.894   8.020   5.668
 5345POPC   GL268462  12.729   8.365   5.651
 5345POPC   C1A68463  13.035   7.970   6.134
 5345POPC   D2A68464  13.051   8.159   6.581
 5345POPC   C3A68465  12.972   7.961   7.020
 5345POPC   C4A68466  12.740   7.917   7.476
 5345POPC   C1B68467  12.874   8.487   6.081
 5345POPC   C2B68468  12.783   8.582   6.520
 5345POPC   C3B68469  12.938   8.495   6.951
 5345POPC   C4B68470  12.650   8.589   7.301
 5346POPC   NC368471  34.020  19.833   5.187
 5346POPC   PO468472  34.625  19.765   5.375
 5346POPC   GL168473  34.567  19.969   5.788
 5346POPC   GL268474  34.192  20.091   5.749
 5346POPC   C1A68475  34.712  20.007   6.232
 5346POPC   D2A68476  34.758  19.673   6.547
 5346POPC   C3A68477  34.598  19.731   6.956
 5346POPC   C4A68478  34.499  19.456   7.256
 5346POPC   C1B68479  34.215  19.861   6.152
 5346POPC   C2B68480  34.277  19.891   6.600
 5346POPC   C3B68481  34.101  19.778   7.035
 5346POPC   C4B68482  34.310  19.887   7.423
 5347POPC   NC368483  22.878   7.711   5.541
 5347POPC   PO468484  23.300   8.052   5.107
 5347POPC   GL168485  23.219   8.102   5.652
 5347POPC   GL268486  22.882   8.027   5.911
 5347POPC   C1A68487  23.265   8.170   6.165
 5347POPC   D2A68488  23.275   8.362   6.592
 5347POPC   C3A68489  23.109   8.165   6.977
 5347POPC   C4A68490  22.709   8.259   7.216
 5347POPC   C1B68491  22.765   8.375   6.210
 5347POPC   C2B68492  22.741   8.360   6.650
 5347POPC   C3B68493  22.653   7.968   6.815
 5347POPC   C4B68494  22.619   7.735   7.191
 5348POPC   NC368495  16.458  16.750   5.250
 5348POPC   PO468496  16.764  17.052   5.634
 5348POPC   GL168497  16.386  17.059   5.873
 5348POPC   GL268498  16.259  16.728   5.828
 5348POPC   C1A68499  16.392  17.058   6.350
 5348POPC   D2A68500  16.715  17.006   6.659
 5348POPC   C3A68501  16.613  16.953   7.089
 5348POPC   C4A68502  17.009  16.845   7.266
 5348POPC   C1B68503  16.376  16.567   6.255
 5348POPC   C2B68504  16.427  16.594   6.728
 5348POPC   C3B68505  16.719  16.448   7.086
 5348POPC   C4B68506  16.653  16.186   7.466
 5349POPC   NC368507  28.736  28.424   5.507
 5349POPC   PO468508  28.107  28.654   5.334
 5349POPC   GL168509  28.262  28.478   5.738
 5349POPC   GL268510  28.168  28.154   5.905
 5349POPC   C1A68511  28.265  28.590   6.174
 5349POPC   D2A68512  28.131  28.390   6.550
 5349POPC   C3A68513  28.236  28.654   6.894
 5349POPC   C4A68514  28.389  28.604   7.296
 5349POPC   C1B68515  28.570  28.198   6.084
 5349POPC   C2B68516  28.632  28.174   6.503
 5349POPC   C3B68517  28.568  28.267   6.928
 5349POPC   C4B68518  28.592  28.134   7.362
 5350POPC   NC368519  41.848   4.525   5.460
 5350POPC   PO468520  42.399   4.082   5.195
 5350POPC   GL168521  42.389   4.332   5.620
 5350POPC   GL268522  42.200   4.590   5.807
 5350POPC   C1A68523  42.352   4.213   6.087
 5350POPC   D2A68524  42.548   4.243   6.489
 5350POPC   C3A68525  42.385   4.128   6.914
 5350POPC   C4A68526  42.400   4.196   7.362
 5350POPC   C1B68527  42.339   4.748   6.225
 5350POPC   C2B68528  42.361   4.785   6.690
 5350POPC   C3B68529  42.241   4.613   7.097
 5350POPC   C4B68530  42.132   4.696   7.540
 5351POPC   NC368531  35.319   1.104   4.988
 5351POPC   PO468532  35.271   0.621   5.365
 5351POPC   GL168533  35.246   0.785   5.844
 5351POPC   GL268534  35.068   1.093   5.945
 5351POPC   C1A68535  35.315   0.867   6.328
 5351POPC   D2A68536  35.253   0.995   6.794
 5351POPC   C3A68537  35.467   1.311   7.094
 5351POPC   C4A68538  35.380   1.432   7.533
 5351POPC   C1B68539  35.042   1.298   6.387
 5351POPC   C2B68540  35.037   1.479   6.832
 5351POPC   C3B68541  34.979   1.304   7.239
 5351POPC   C4B68542  34.919   1.191   7.688
 5352POPC   NC368543   5.021  21.454   4.898
 5352POPC   PO468544   5.408  21.570   5.438
 5352POPC   GL168545   5.347  21.436   5.865
 5352POPC   GL268546   5.628  21.246   5.884
 5352POPC   C1A68547   5.142  21.507   6.250
 5352POPC   D2A68548   5.320  21.506   6.641
 5352POPC   C3A68549   5.111  21.414   7.005
 5352POPC   C4A68550   4.811  21.516   7.303
 5352POPC   C1B68551   5.451  21.100   6.296
 5352POPC   C2B68552   5.402  20.980   6.728
 5352POPC   C3B68553   5.472  21.082   7.200
 5352POPC   C4B68554   5.467  21.125   7.715
 5353POPC   NC368555   7.989  36.220   5.248
 5353POPC   PO468556   8.396  35.656   5.313
 5353POPC   GL168557   8.174  35.843   5.683
 5353POPC   GL268558   7.815  35.831   5.615
 5353POPC   C1A68559   8.300  35.782   6.152
 5353POPC   D2A68560   8.398  35.904   6.621
 5353POPC   C3A68561   8.265  36.279   6.826
 5353POPC   C4A68562   8.102  36.358   7.228
 5353POPC   C1B68563   7.737  35.711   6.053
 5353POPC   C2B68564   7.912  35.701   6.487
 5353POPC   C3B68565   7.936  35.877   6.903
 5353POPC   C4B68566   8.277  35.863   7.169
 5354POPC   NC368567  43.492   3.420   5.576
 5354POPC   PO468568  42.931   3.810   5.436
 5354POPC   GL168569  42.957   3.592   5.795
 5354POPC   GL268570  43.261   3.778   5.868
 5354POPC   C1A68571  43.124   3.321   6.141
 5354POPC   D2A68572  43.330   3.336   6.559
 5354POPC   C3A68573  43.105   3.317   6.949
 5354POPC   C4A68574  43.222   3.181   7.342
 5354POPC   C1B68575  43.289   3.785   6.303
 5354POPC   C2B68576  43.283   3.860   6.751
 5354POPC   C3B68577  43.459   3.703   7.113
 5354POPC   C4B68578  43.389   3.690   7.569
 5355POPC   NC368579  40.258  30.940   5.377
 5355POPC   PO468580  39.776  31.250   5.734
 5355POPC   GL168581  39.779  30.813   5.812
 5355POPC   GL268582  40.131  30.783   5.848
 5355POPC   C1A68583  39.815  30.526   6.175
 5355POPC   D2A68584  39.882  30.746   6.583
 5355POPC   C3A68585  40.031  30.482   6.888
 5355POPC   C4A68586  39.824  30.213   7.180
 5355POPC   C1B68587  40.290  30.703   6.267
 5355POPC   C2B68588  40.446  30.915   6.612
 5355POPC   C3B68589  40.495  30.785   7.015
 5355POPC   C4B68590  40.210  30.730   7.286
 5356POPC   NC368591  19.823  20.318   5.497
 5356POPC   PO468592  19.755  20.950   5.353
 5356POPC   GL168593  19.743  20.729   5.781
 5356POPC   GL268594  19.438  20.529   5.804
 5356POPC   C1A68595  19.867  20.643   6.255
 5356POPC   D2A68596  20.125  20.588   6.648
 5356POPC   C3A68597  19.988  20.714   7.061
 5356POPC   C4A68598  19.666  20.639   7.375
 5356POPC   C1B68599  19.578  20.244   6.136
 5356POPC   C2B68600  19.625  20.156   6.562
 5356POPC   C3B68601  19.724  20.297   6.955
 5356POPC   C4B68602  19.675  20.140   7.338
 5357POPC   NC368603  31.404  42.701   5.552
 5357POPC   PO468604  31.456  41.986   5.283
 5357POPC   GL168605  31.484  42.223   5.727
 5357POPC   GL268606  31.752  42.428   5.843
 5357POPC   C1A68607  31.588  42.112   6.199
 5357POPC   D2A68608  31.264  42.207   6.533
 5357POPC   C3A68609  31.394  42.305   6.955
 5357POPC   C4A68610  31.510  42.396   7.354
 5357POPC   C1B68611  31.431  42.594   6.214
 5357POPC   C2B68612  31.292  42.728   6.683
 5357POPC   C3B68613  31.115  42.688   7.140
 5357POPC   C4B68614  31.107  42.656   7.644
 5358POPC   NC368615  26.006  36.716   5.195
 5358POPC   PO468616  26.587  37.043   5.251
 5358POPC   GL168617  26.201  37.080   5.539
 5358POPC   GL268618  26.219  37.355   5.817
 5358POPC   C1A68619  25.949  36.953   5.917
 5358POPC   D2A68620  26.057  37.034   6.391
 5358POPC   C3A68621  25.984  36.843   6.829
 5358POPC   C4A68622  26.095  36.740   7.270
 5358POPC   C1B68623  25.822  37.414   6.061
 5358POPC   C2B68624  25.641  37.324   6.439
 5358POPC   C3B68625  25.834  37.322   6.824
 5358POPC   C4B68626  25.861  37.189   7.213
 5359POPC   NC368627   3.794   5.799   5.521
 5359POPC   PO468628   3.293   5.583   5.155
 5359POPC   GL168629   3.298   5.849   5.598
 5359POPC   GL268630   3.505   5.683   5.910
 5359POPC   C1A68631   3.331   6.158   5.970
 5359POPC   D2A68632   3.598   6.152   6.376
 5359POPC   C3A68633   3.403   6.146   6.809
 5359POPC   C4A68634   3.349   6.292   7.255
 5359POPC   C1B68635   3.428   5.499   6.322
 5359POPC   C2B68636   3.275   5.571   6.745
 5359POPC   C3B68637   3.438   5.739   7.139
 5359POPC   C4B68638   3.860   5.600   7.318
 5360POPC   NC368639   3.219  12.570   5.193
 5360POPC   PO468640   3.591  13.047   5.158
 5360POPC   GL168641   3.348  12.899   5.575
 5360POPC   GL268642   3.643  12.949   5.753
 5360POPC   C1A68643   3.290  12.716   6.041
 5360POPC   D2A68644   3.453  12.691   6.480
 5360POPC   C3A68645   3.280  12.677   6.910
 5360POPC   C4A68646   3.271  12.954   7.251
 5360POPC   C1B68647   3.835  12.780   6.123
 5360POPC   C2B68648   3.958  12.841   6.549
 5360POPC   C3B68649   3.767  12.871   6.949
 5360POPC   C4B68650   3.746  13.174   7.254
 5361POPC   NC368651  41.915  10.840   5.389
 5361POPC   PO468652  41.525  10.311   5.198
 5361POPC   GL168653  41.493  10.406   5.753
 5361POPC   GL268654  41.371  10.760   5.868
 5361POPC   C1A68655  41.809  10.442   6.162
 5361POPC   D2A68656  41.902  10.581   6.606
 5361POPC   C3A68657  41.567  10.684   6.916
 5361POPC   C4A68658  41.532  10.464   7.335
 5361POPC   C1B68659  41.424  10.727   6.328
 5361POPC   C2B68660  41.426  10.325   6.554
 5361POPC   C3B68661  41.232  10.268   6.948
 5361POPC   C4B68662  41.072  10.648   7.162
 5362POPC   NC368663  36.806   6.902   5.095
 5362POPC   PO468664  36.912   7.603   5.187
 5362POPC   GL168665  36.843   7.466   5.615
 5362POPC   GL268666  37.171   7.536   5.761
 5362POPC   C1A68667  36.712   7.313   6.058
 5362POPC   D2A68668  36.697   7.340   6.536
 5362POPC   C3A68669  36.757   7.099   6.921
 5362POPC   C4A68670  36.589   7.100   7.342
 5362POPC   C1B68671  36.967   7.748   6.079
 5362POPC   C2B68672  37.059   7.713   6.490
 5362POPC   C3B68673  36.837   7.708   6.865
 5362POPC   C4B68674  36.893   7.499   7.224
 5363POPC   NC368675  12.411  22.313   5.279
 5363POPC   PO468676  11.741  22.180   5.344
 5363POPC   GL168677  12.002  22.334   5.665
 5363POPC   GL268678  12.193  22.060   5.673
 5363POPC   C1A68679  12.143  22.349   6.121
 5363POPC   D2A68680  11.899  22.249   6.533
 5363POPC   C3A68681  12.054  22.292   6.973
 5363POPC   C4A68682  12.339  22.022   7.210
 5363POPC   C1B68683  11.902  21.932   6.012
 5363POPC   C2B68684  12.126  21.829   6.358
 5363POPC   C3B68685  12.119  21.791   6.812
 5363POPC   C4B68686  11.870  21.813   7.216
 5364POPC   NC368687  44.974  39.770   5.573
 5364POPC   PO468688   0.607  39.850   5.340
 5364POPC   GL168689   0.409  39.959   5.749
 5364POPC   GL268690   0.671  40.091   5.905
 5364POPC   C1A68691   0.243  40.029   6.186
 5364POPC   D2A68692   0.274  40.204   6.599
 5364POPC   C3A68693   0.256  39.992   6.992
 5364POPC   C4A68694   0.566  39.942   7.314
 5364POPC   C1B68695   0.682  40.408   6.238
 5364POPC   C2B68696   0.609  40.577   6.660
 5364POPC   C3B68697   0.656  40.401   7.090
 5364POPC   C4B68698   0.669  40.383   7.578
 5365POPC   NC368699  15.015  17.678   5.413
 5365POPC   PO468700  15.371  17.128   5.331
 5365POPC   GL168701  15.135  17.246   5.719
 5365POPC   GL268702  15.225  17.600   5.844
 5365POPC   C1A68703  15.039  17.296   6.182
 5365POPC   D2A68704  15.071  17.543   6.565
 5365POPC   C3A68705  15.095  17.341   6.969
 5365POPC   C4A68706  15.004  17.541   7.369
 5365POPC   C1B68707  15.413  17.685   6.210
 5365POPC   C2B68708  15.513  17.793   6.619
 5365POPC   C3B68709  15.255  17.856   6.983
 5365POPC   C4B68710  15.448  18.025   7.345
 5366POPC   NC368711  37.819  30.841   5.429
 5366POPC   PO468712  37.368  30.284   5.620
 5366POPC   GL168713  37.656  30.573   5.848
 5366POPC   GL268714  37.596  30.949   5.858
 5366POPC   C1A68715  37.969  30.536   6.207
 5366POPC   D2A68716  38.045  30.704   6.637
 5366POPC   C3A68717  38.016  30.544   7.065
 5366POPC   C4A68718  37.675  30.540   7.394
 5366POPC   C1B68719  37.913  31.054   6.179
 5366POPC   C2B68720  38.030  31.227   6.591
 5366POPC   C3B68721  37.850  31.067   6.979
 5366POPC   C4B68722  37.608  31.046   7.376
 5367POPC   NC368723   0.901  18.480   4.989
 5367POPC   PO468724   1.301  18.028   5.253
 5367POPC   GL168725   1.229  18.078   5.738
 5367POPC   GL268726   0.881  18.072   5.855
 5367POPC   C1A68727   1.317  18.218   6.176
 5367POPC   D2A68728   1.359  18.013   6.584
 5367POPC   C3A68729   1.278  18.200   6.993
 5367POPC   C4A68730   1.279  18.409   7.386
 5367POPC   C1B68731   0.909  17.924   6.294
 5367POPC   C2B68732   0.879  17.929   6.737
 5367POPC   C3B68733   0.840  17.990   7.160
 5367POPC   C4B68734   1.105  17.881   7.472
 5368POPC   NC368735  40.520   1.184   5.317
 5368POPC   PO468736  41.120   1.407   5.310
 5368POPC   GL168737  41.007   1.077   5.676
 5368POPC   GL268738  40.653   1.113   5.809
 5368POPC   C1A68739  41.007   0.971   6.163
 5368POPC   D2A68740  40.983   0.931   6.651
 5368POPC   C3A68741  40.846   1.041   7.099
 5368POPC   C4A68742  40.931   1.202   7.540
 5368POPC   C1B68743  40.485   1.088   6.244
 5368POPC   C2B68744  40.529   1.175   6.708
 5368POPC   C3B68745  40.357   1.205   7.139
 5368POPC   C4B68746  40.445   1.324   7.574
 5369POPC   NC368747  11.871  23.154   5.283
 5369POPC   PO468748  12.327  22.701   5.498
 5369POPC   GL168749  11.938  22.843   5.744
 5369POPC   GL268750  11.946  23.206   5.824
 5369POPC   C1A68751  11.884  22.779   6.217
 5369POPC   D2A68752  12.243  22.647   6.525
 5369POPC   C3A68753  12.261  22.787   6.950
 5369POPC   C4A68754  11.910  22.772   7.225
 5369POPC   C1B68755  12.316  23.067   6.118
 5369POPC   C2B68756  12.429  23.133   6.569
 5369POPC   C3B68757  12.468  23.282   6.969
 5369POPC   C4B68758  12.105  23.252   7.143
 5370POPC   NC368759  21.328  18.761   5.647
 5370POPC   PO468760  21.214  18.201   5.234
 5370POPC   GL168761  21.330  18.236   5.662
 5370POPC   GL268762  21.007  18.337   5.764
 5370POPC   C1A68763  21.555  18.135   6.067
 5370POPC   D2A68764  21.794  17.991   6.437
 5370POPC   C3A68765  21.636  18.035   6.847
 5370POPC   C4A68766  21.559  18.215   7.258
 5370POPC   C1B68767  21.048  18.024   6.081
 5370POPC   C2B68768  21.239  18.023   6.497
 5370POPC   C3B68769  21.138  17.992   6.946
 5370POPC   C4B68770  21.223  17.833   7.363
 5371POPC   NC368771  14.817   7.041   5.712
 5371POPC   PO468772  15.343   7.345   5.404
 5371POPC   GL168773  15.272   7.317   5.844
 5371POPC   GL268774  15.558   7.124   5.911
 5371POPC   C1A68775  15.269   7.270   6.307
 5371POPC   D2A68776  15.333   7.573   6.616
 5371POPC   C3A68777  15.251   7.460   7.008
 5371POPC   C4A68778  14.926   7.689   7.141
 5371POPC   C1B68779  15.720   6.922   6.244
 5371POPC   C2B68780  15.552   6.869   6.660
 5371POPC   C3B68781  15.545   7.001   7.088
 5371POPC   C4B68782  15.251   7.168   7.425
 5372POPC   NC368783  23.666  17.889   5.429
 5372POPC   PO468784  23.965  18.439   5.456
 5372POPC   GL168785  23.817  18.182   5.820
 5372POPC   GL268786  24.025  17.875   5.884
 5372POPC   C1A68787  23.736  18.341   6.218
 5372POPC   D2A68788  23.848  18.218   6.614
 5372POPC   C3A68789  23.945  18.472   6.903
 5372POPC   C4A68790  23.738  18.561   7.234
 5372POPC   C1B68791  23.791  17.813   6.294
 5372POPC   C2B68792  23.681  17.768   6.740
 5372POPC   C3B68793  23.661  18.032   7.117
 5372POPC   C4B68794  23.872  18.107   7.503
 5373POPC   NC368795  21.548   4.580   5.142
 5373POPC   PO468796  21.304   5.174   5.335
 5373POPC   GL168797  21.344   5.122   5.796
 5373POPC   GL268798  21.221   4.808   5.918
 5373POPC   C1A68799  21.146   5.252   6.219
 5373POPC   D2A68800  21.197   5.084   6.609
 5373POPC   C3A68801  21.208   5.310   6.965
 5373POPC   C4A68802  21.535   5.274   7.245
 5373POPC   C1B68803  21.565   4.938   6.248
 5373POPC   C2B68804  21.819   4.683   6.546
 5373POPC   C3B68805  21.666   4.848   6.929
 5373POPC   C4B68806  21.622   4.785   7.318
 5374POPC   NC368807  20.843  10.716   5.544
 5374POPC   PO468808  20.357  10.340   5.209
 5374POPC   GL168809  20.372  10.516   5.650
 5374POPC   GL268810  20.454  10.204   5.724
 5374POPC   C1A68811  20.534  10.525   6.133
 5374POPC   D2A68812  20.709  10.530   6.584
 5374POPC   C3A68813  20.496  10.676   6.991
 5374POPC   C4A68814  20.744  10.790   7.384
 5374POPC   C1B68815  20.286  10.063   6.108
 5374POPC   C2B68816  20.449  10.088   6.510
 5374POPC   C3B68817  20.733  10.094   6.859
 5374POPC   C4B68818  20.689  10.296   7.267
 5375POPC   NC368819   9.996   0.449   5.339
 5375POPC   PO468820   9.392   0.462   5.142
 5375POPC   GL168821   9.544   0.375   5.653
 5375POPC   GL268822   9.744   0.654   5.780
 5375POPC   C1A68823   9.745   0.321   6.151
 5375POPC   D2A68824   9.650   0.486   6.589
 5375POPC   C3A68825   9.735   0.389   7.026
 5375POPC   C4A68826   9.528   0.178   7.357
 5375POPC   C1B68827   9.411   0.690   6.143
 5375POPC   C2B68828   9.254   0.849   6.563
 5375POPC   C3B68829   9.267   0.735   6.999
 5375POPC   C4B68830   9.397   0.673   7.410
 5376POPC   NC368831  33.057   8.886   5.276
 5376POPC   PO468832  32.493   9.149   5.540
 5376POPC   GL168833  32.886   9.178   5.741
 5376POPC   GL268834  32.826   8.853   5.895
 5376POPC   C1A68835  33.179   9.160   6.102
 5376POPC   D2A68836  33.094   8.909   6.493
 5376POPC   C3A68837  32.998   9.056   6.905
 5376POPC   C4A68838  33.223   9.290   7.201
 5376POPC   C1B68839  32.630   8.658   6.313
 5376POPC   C2B68840  32.644   8.679   6.820
 5376POPC   C3B68841  32.788   8.756   7.293
 5376POPC   C4B68842  32.946   8.612   7.768
 5377POPC   NC368843  14.007  14.335   5.447
 5377POPC   PO468844  13.352  14.017   5.627
 5377POPC   GL168845  13.470  14.315   5.923
 5377POPC   GL268846  13.760  14.553   5.865
 5377POPC   C1A68847  13.458  14.298   6.360
 5377POPC   D2A68848  13.662  14.512   6.695
 5377POPC   C3A68849  13.443  14.533   7.083
 5377POPC   C4A68850  13.538  14.763   7.491
 5377POPC   C1B68851  13.979  14.289   6.160
 5377POPC   C2B68852  13.868  14.013   6.501
 5377POPC   C3B68853  13.836  14.090   6.939
 5377POPC   C4B68854  13.927  14.430   7.244
 5378POPC   NC368855  28.640   8.641   5.090
 5378POPC   PO468856  28.258   8.129   5.311
 5378POPC   GL168857  28.231   8.141   5.767
 5378POPC   GL268858  28.248   8.519   5.807
 5378POPC   C1A68859  28.356   8.166   6.219
 5378POPC   D2A68860  28.314   8.006   6.644
 5378POPC   C3A68861  28.427   8.241   6.978
 5378POPC   C4A68862  28.217   8.308   7.351
 5378POPC   C1B68863  28.536   8.641   6.167
 5378POPC   C2B68864  28.631   8.498   6.571
 5378POPC   C3B68865  28.869   8.492   6.949
 5378POPC   C4B68866  28.637   8.621   7.291
 5379POPC   NC368867  14.944  11.855   5.378
 5379POPC   PO468868  15.169  11.195   5.356
 5379POPC   GL168869  15.003  11.387   5.751
 5379POPC   GL268870  15.325  11.424   5.863
 5379POPC   C1A68871  15.031  11.346   6.247
 5379POPC   D2A68872  14.962  11.075   6.602
 5379POPC   C3A68873  15.076  11.237   7.018
 5379POPC   C4A68874  14.957  11.041   7.399
 5379POPC   C1B68875  15.438  11.067   6.150
 5379POPC   C2B68876  15.593  11.031   6.607
 5379POPC   C3B68877  15.513  10.994   7.091
 5379POPC   C4B68878  15.420  11.174   7.536
 5380POPC   NC368879  43.620  25.258   5.274
 5380POPC   PO468880  44.219  25.571   5.248
 5380POPC   GL168881  44.095  25.363   5.653
 5380POPC   GL268882  43.770  25.238   5.784
 5380POPC   C1A68883  44.184  25.279   6.109
 5380POPC   D2A68884  43.922  25.101   6.455
 5380POPC   C3A68885  44.111  25.181   6.834
 5380POPC   C4A68886  44.154  25.323   7.225
 5380POPC   C1B68887  43.716  25.484   6.195
 5380POPC   C2B68888  43.808  25.561   6.649
 5380POPC   C3B68889  43.651  25.449   7.050
 5380POPC   C4B68890  43.355  25.607   7.376
 5381POPC   NC368891  10.286  41.186   5.327
 5381POPC   PO468892  10.848  41.413   5.463
 5381POPC   GL168893  10.695  41.547   5.817
 5381POPC   GL268894  10.431  41.725   5.653
 5381POPC   C1A68895  10.697  41.432   6.269
 5381POPC   D2A68896  10.551  41.305   6.670
 5381POPC   C3A68897  10.727  41.558   7.005
 5381POPC   C4A68898  10.768  41.423   7.427
 5381POPC   C1B68899  10.307  41.725   6.093
 5381POPC   C2B68900  10.295  41.750   6.539
 5381POPC   C3B68901  10.367  41.913   6.950
 5381POPC   C4B68902  10.362  41.739   7.367
 5382POPC   NC368903  33.303  38.940   5.581
 5382POPC   PO468904  33.177  39.527   5.229
 5382POPC   GL168905  32.948  39.359   5.647
 5382POPC   GL268906  32.585  39.454   5.715
 5382POPC   C1A68907  32.897  39.149   6.089
 5382POPC   D2A68908  33.155  39.023   6.476
 5382POPC   C3A68909  32.996  39.119   6.878
 5382POPC   C4A68910  33.153  39.235   7.262
 5382POPC   C1B68911  32.762  39.675   6.094
 5382POPC   C2B68912  32.870  39.485   6.503
 5382POPC   C3B68913  32.947  39.615   6.934
 5382POPC   C4B68914  32.673  39.392   7.168
 5383POPC   NC368915   1.567  44.485   5.504
 5383POPC   PO468916   1.928  44.973   5.192
 5383POPC   GL168917   1.946  44.828   5.675
 5383POPC   GL268918   2.251   0.005   5.782
 5383POPC   C1A68919   1.810  44.674   6.150
 5383POPC   D2A68920   1.868  44.524   6.635
 5383POPC   C3A68921   1.706  44.656   7.077
 5383POPC   C4A68922   1.744  44.610   7.602
 5383POPC   C1B68923   2.313  44.708   6.109
 5383POPC   C2B68924   2.286  44.862   6.530
 5383POPC   C3B68925   2.195  44.773   6.947
 5383POPC   C4B68926   2.383  44.818   7.345
 5384POPC   NC368927  29.141  21.920   5.338
 5384POPC   PO468928  29.583  22.412   5.409
 5384POPC   GL168929  29.542  22.164   5.824
 5384POPC   GL268930  29.384  21.868   5.799
 5384POPC   C1A68931  29.355  22.085   6.276
 5384POPC   D2A68932  29.303  21.811   6.647
 5384POPC   C3A68933  29.289  21.968   7.073
 5384POPC   C4A68934  29.232  22.077   7.540
 5384POPC   C1B68935  28.975  21.810   6.049
 5384POPC   C2B68936  28.862  21.623   6.477
 5384POPC   C3B68937  28.884  21.653   6.950
 5384POPC   C4B68938  28.811  22.009   7.258
 5385POPC   NC368939  29.700  12.375   5.510
 5385POPC   PO468940  30.319  12.083   5.428
 5385POPC   GL168941  30.030  12.082   5.790
 5385POPC   GL268942  29.707  11.891   5.771
 5385POPC   C1A68943  29.911  11.992   6.235
 5385POPC   D2A68944  30.025  11.850   6.643
 5385POPC   C3A68945  29.953  12.178   6.971
 5385POPC   C4A68946  30.251  12.417   7.207
 5385POPC   C1B68947  29.544  11.639   6.134
 5385POPC   C2B68948  29.594  11.566   6.590
 5385POPC   C3B68949  29.692  11.734   7.039
 5385POPC   C4B68950  29.532  11.888   7.487
 5386POPC   NC368951   3.782  34.380   5.561
 5386POPC   PO468952   3.507  34.972   5.297
 5386POPC   GL168953   3.716  34.877   5.691
 5386POPC   GL268954   3.430  34.710   5.800
 5386POPC   C1A68955   3.837  34.688   6.136
 5386POPC   D2A68956   3.935  34.692   6.574
 5386POPC   C3A68957   3.668  34.717   6.944
 5386POPC   C4A68958   3.782  34.685   7.374
 5386POPC   C1B68959   3.399  34.392   6.117
 5386POPC   C2B68960   3.525  34.393   6.516
 5386POPC   C3B68961   3.431  34.246   6.908
 5386POPC   C4B68962   3.341  34.440   7.256
 5387POPC   NC368963  14.414  38.543   5.333
 5387POPC   PO468964  14.987  38.349   5.378
 5387POPC   GL168965  14.652  38.283   5.789
 5387POPC   GL268966  14.335  38.494   5.834
 5387POPC   C1A68967  14.476  38.296   6.280
 5387POPC   D2A68968  14.461  38.698   6.602
 5387POPC   C3A68969  14.693  38.684   7.038
 5387POPC   C4A68970  14.502  38.398   7.325
 5387POPC   C1B68971  14.085  38.608   6.209
 5387POPC   C2B68972  13.980  38.271   6.522
 5387POPC   C3B68973  13.989  38.308   6.979
 5387POPC   C4B68974  14.186  38.711   7.082
 5388POPC   NC368975  23.124  38.851   4.943
 5388POPC   PO468976  22.813  38.379   5.234
 5388POPC   GL168977  22.953  38.296   5.655
 5388POPC   GL268978  22.724  38.488   5.843
 5388POPC   C1A68979  23.253  38.435   5.986
 5388POPC   D2A68980  23.442  38.460   6.404
 5388POPC   C3A68981  23.239  38.491   6.805
 5388POPC   C4A68982  23.104  38.357   7.216
 5388POPC   C1B68983  22.693  38.783   6.165
 5388POPC   C2B68984  22.816  38.705   6.576
 5388POPC   C3B68985  22.706  38.558   6.972
 5388POPC   C4B68986  22.447  38.690   7.296
 5389POPC   NC368987   9.868   2.951   5.191
 5389POPC   PO468988   9.546   3.398   5.593
 5389POPC   GL168989   9.728   2.994   5.744
 5389POPC   GL268990   9.554   2.672   5.758
 5389POPC   C1A68991   9.735   2.923   6.218
 5389POPC   D2A68992   9.788   3.091   6.649
 5389POPC   C3A68993  10.043   2.877   6.960
 5389POPC   C4A68994   9.909   2.794   7.416
 5389POPC   C1B68995   9.514   2.479   6.195
 5389POPC   C2B68996   9.633   2.590   6.644
 5389POPC   C3B68997   9.521   2.810   7.052
 5389POPC   C4B68998   9.433   2.568   7.442
 5390POPC   NC368999  15.711  19.114   5.229
 5390POPC   PO469000  16.217  18.568   5.412
 5390POPC   GL169001  16.090  18.845   5.784
 5390POPC   GL269002  16.150  19.189   5.970
 5390POPC   C1A69003  15.911  18.813   6.214
 5390POPC   D2A69004  15.694  18.866   6.583
 5390POPC   C3A69005  15.930  18.837   6.939
 5390POPC   C4A69006  16.265  19.034   7.152
 5390POPC   C1B69007  15.824  19.311   6.327
 5390POPC   C2B69008  15.676  19.360   6.768
 5390POPC   C3B69009  15.727  19.243   7.220
 5390POPC   C4B69010  15.646  19.487   7.589
 5391POPC   NC369011  30.382  24.599   5.329
 5391POPC   PO469012  30.924  24.288   5.470
 5391POPC   GL169013  30.815  24.489   5.785
 5391POPC   GL269014  30.504  24.354   5.767
 5391POPC   C1A69015  30.961  24.559   6.178
 5391POPC   D2A69016  30.816  24.486   6.571
 5391POPC   C3A69017  31.050  24.665   6.876
 5391POPC   C4A69018  30.881  24.505   7.246
 5391POPC   C1B69019  30.430  24.493   6.154
 5391POPC   C2B69020  30.340  24.678   6.528
 5391POPC   C3B69021  30.402  24.569   6.913
 5391POPC   C4B69022  30.347  24.820   7.245
 5392POPC   NC369023  18.723  26.195   4.931
 5392POPC   PO469024  19.335  26.053   5.255
 5392POPC   GL169025  19.127  26.009   5.680
 5392POPC   GL269026  19.248  25.709   5.808
 5392POPC   C1A69027  18.916  25.985   6.094
 5392POPC   D2A69028  18.710  26.053   6.489
 5392POPC   C3A69029  18.887  26.090   6.899
 5392POPC   C4A69030  18.849  25.918   7.317
 5392POPC   C1B69031  19.397  25.853   6.226
 5392POPC   C2B69032  19.260  26.197   6.519
 5392POPC   C3B69033  19.354  26.314   6.967
 5392POPC   C4B69034  19.362  25.988   7.308
 5393POPC   NC369035  11.118   3.900   5.677
 5393POPC   PO469036  11.366   4.454   5.355
 5393POPC   GL169037  11.383   4.378   5.766
 5393POPC   GL269038  11.575   4.102   5.814
 5393POPC   C1A69039  11.297   4.466   6.184
 5393POPC   D2A69040  11.344   4.274   6.562
 5393POPC   C3A69041  11.275   4.516   6.899
 5393POPC   C4A69042  11.193   4.324   7.259
 5393POPC   C1B69043  11.646   3.975   6.223
 5393POPC   C2B69044  11.816   4.102   6.614
 5393POPC   C3B69045  11.574   4.082   7.008
 5393POPC   C4B69046  11.557   4.035   7.500
 5394POPC   NC369047  21.726   9.857   5.283
 5394POPC   PO469048  22.314   9.440   5.427
 5394POPC   GL169049  22.306   9.702   5.809
 5394POPC   GL269050  22.642   9.875   5.859
 5394POPC   C1A69051  21.970   9.751   6.155
 5394POPC   D2A69052  21.843   9.583   6.556
 5394POPC   C3A69053  21.909   9.833   6.940
 5394POPC   C4A69054  22.044   9.693   7.349
 5394POPC   C1B69055  22.468   9.831   6.278
 5394POPC   C2B69056  22.349   9.716   6.710
 5394POPC   C3B69057  22.518   9.780   7.138
 5394POPC   C4B69058  22.504   9.871   7.608
 5395POPC   NC369059   8.582   7.645   5.387
 5395POPC   PO469060   7.914   7.417   5.156
 5395POPC   GL169061   8.032   7.435   5.616
 5395POPC   GL269062   7.960   7.108   5.755
 5395POPC   C1A69063   8.063   7.585   6.053
 5395POPC   D2A69064   8.362   7.658   6.390
 5395POPC   C3A69065   8.191   7.617   6.781
 5395POPC   C4A69066   8.155   7.637   7.221
 5395POPC   C1B69067   8.070   7.070   6.181
 5395POPC   C2B69068   7.969   7.182   6.589
 5395POPC   C3B69069   8.149   7.136   6.988
 5395POPC   C4B69070   7.913   7.203   7.332
 5396POPC   NC369071  31.809  18.108   5.525
 5396POPC   PO469072  32.474  18.067   5.297
 5396POPC   GL169073  32.272  18.148   5.707
 5396POPC   GL269074  32.397  18.482   5.791
 5396POPC   C1A69075  32.148  18.184   6.177
 5396POPC   D2A69076  32.001  18.108   6.621
 5396POPC   C3A69077  32.195  18.228   7.058
 5396POPC   C4A69078  32.153  18.128   7.563
 5396POPC   C1B69079  32.542  18.679   6.208
 5396POPC   C2B69080  32.651  18.870   6.632
 5396POPC   C3B69081  32.585  18.749   7.071
 5396POPC   C4B69082  32.266  18.653   7.379
 5397POPC   NC369083  34.555   4.199   5.268
 5397POPC   PO469084  34.996   4.493   5.505
 5397POPC   GL169085  34.761   4.193   5.765
 5397POPC   GL269086  34.458   4.350   5.821
 5397POPC   C1A69087  34.711   4.061   6.205
 5397POPC   D2A69088  34.715   4.269   6.622
 5397POPC   C3A69089  34.732   4.093   7.026
 5397POPC   C4A69090  35.096   4.023   7.270
 5397POPC   C1B69091  34.641   4.585   6.211
 5397POPC   C2B69092  34.614   4.757   6.675
 5397POPC   C3B69093  34.439   4.597   7.084
 5397POPC   C4B69094  34.231   4.713   7.492
 5398POPC   NC369095  44.614  26.687   5.389
 5398POPC   PO469096  44.906  27.250   5.669
 5398POPC   GL169097  44.804  26.849   5.867
 5398POPC   GL269098  44.463  26.837   5.950
 5398POPC   C1A69099  44.774  26.706   6.314
 5398POPC   D2A69100  44.634  26.930   6.692
 5398POPC   C3A69101  44.830  26.730   7.011
 5398POPC   C4A69102  44.544  26.471   7.205
 5398POPC   C1B69103  44.646  27.208   6.254
 5398POPC   C2B69104  44.974  27.310   6.581
 5398POPC   C3B69105  44.878  27.251   7.022
 5398POPC   C4B69106  44.475  27.021   7.226
 5399POPC   NC369107   0.914  13.108   5.528
 5399POPC   PO469108   1.358  12.563   5.376
 5399POPC   GL169109   1.246  12.774   5.769
 5399POPC   GL269110   0.872  12.665   5.776
 5399POPC   C1A69111   1.479  12.986   6.159
 5399POPC   D2A69112   1.535  13.166   6.597
 5399POPC   C3A69113   1.312  12.862   6.838
 5399POPC   C4A69114   1.384  12.640   7.214
 5399POPC   C1B69115   0.954  12.946   6.160
 5399POPC   C2B69116   0.871  12.861   6.573
 5399POPC   C3B69117   0.815  12.993   6.983
 5399POPC   C4B69118   1.023  13.001   7.364
 5400POPC   NC369119  35.994  42.296   5.473
 5400POPC   PO469120  36.661  42.426   5.583
 5400POPC   GL169121  36.293  42.542   5.895
 5400POPC   GL269122  35.911  42.585   5.897
 5400POPC   C1A69123  36.133  42.331   6.269
 5400POPC   D2A69124  36.224  41.970   6.465
 5400POPC   C3A69125  36.374  42.186   6.803
 5400POPC   C4A69126  36.248  42.065   7.192
 5400POPC   C1B69127  35.961  42.798   6.282
 5400POPC   C2B69128  36.026  42.638   6.693
 5400POPC   C3B69129  36.098  42.551   7.106
 5400POPC   C4B69130  36.009  42.829   7.406
 5401POPC   NC369131  12.556  40.522   5.375
 5401POPC   PO469132  13.038  40.964   5.481
 5401POPC   GL169133  12.778  40.775   5.768
 5401POPC   GL269134  13.060  40.757   5.986
 5401POPC   C1A69135  12.564  40.642   6.151
 5401POPC   D2A69136  12.630  40.520   6.584
 5401POPC   C3A69137  12.541  40.637   6.988
 5401POPC   C4A69138  12.847  40.770   7.262
 5401POPC   C1B69139  12.954  40.917   6.385
 5401POPC   C2B69140  13.195  40.850   6.757
 5401POPC   C3B69141  13.291  41.025   7.157
 5401POPC   C4B69142  13.207  40.977   7.616
 5402POPC   NC369143  36.644  24.515   5.608
 5402POPC   PO469144  35.972  24.563   5.309
 5402POPC   GL169145  36.123  24.599   5.778
 5402POPC   GL269146  36.331  24.323   5.963
 5402POPC   C1A69147  36.208  24.731   6.251
 5402POPC   D2A69148  36.045  24.598   6.685
 5402POPC   C3A69149  36.163  24.801   7.073
 5402POPC   C4A69150  36.347  24.717   7.498
 5402POPC   C1B69151  36.603  24.257   6.362
 5402POPC   C2B69152  36.577  24.216   6.830
 5402POPC   C3B69153  36.237  24.267   7.129
 5402POPC   C4B69154  36.209  24.207   7.606
 5403POPC   NC369155  21.738  26.545   5.635
 5403POPC   PO469156  21.376  27.133   5.321
 5403POPC   GL169157  21.430  26.945   5.734
 5403POPC   GL269158  21.756  27.122   5.807
 5403POPC   C1A69159  21.204  26.713   6.108
 5403POPC   D2A69160  20.972  26.711   6.512
 5403POPC   C3A69161  21.199  26.774   6.920
 5403POPC   C4A69162  21.418  26.469   7.228
 5403POPC   C1B69163  21.512  27.114   6.195
 5403POPC   C2B69164  21.543  26.844   6.531
 5403POPC   C3B69165  21.715  26.736   6.922
 5403POPC   C4B69166  21.600  26.963   7.307
 5404POPC   NC369167  17.603   1.546   5.350
 5404POPC   PO469168  17.082   1.815   5.533
 5404POPC   GL169169  17.388   1.582   5.878
 5404POPC   GL269170  17.694   1.363   5.849
 5404POPC   C1A69171  17.663   1.612   6.293
 5404POPC   D2A69172  17.656   1.353   6.685
 5404POPC   C3A69173  17.825   1.237   7.098
 5404POPC   C4A69174  17.607   1.326   7.490
 5404POPC   C1B69175  17.452   1.150   6.243
 5404POPC   C2B69176  17.349   0.951   6.698
 5404POPC   C3B69177  17.483   0.839   7.147
 5404POPC   C4B69178  17.489   0.655   7.579
 5405POPC   NC369179  38.389  35.060   5.205
 5405POPC   PO469180  38.720  34.544   5.376
 5405POPC   GL169181  38.500  34.767   5.736
 5405POPC   GL269182  38.394  34.464   5.916
 5405POPC   C1A69183  38.625  34.792   6.203
 5405POPC   D2A69184  38.614  34.484   6.572
 5405POPC   C3A69185  38.555  34.703   6.994
 5405POPC   C4A69186  38.572  34.654   7.426
 5405POPC   C1B69187  38.152  34.487   6.290
 5405POPC   C2B69188  38.030  34.282   6.665
 5405POPC   C3B69189  38.127  34.387   7.077
 5405POPC   C4B69190  38.045  34.654   7.387
 5406POPC   NC369191  29.671  27.079   5.378
 5406POPC   PO469192  29.981  26.468   5.359
 5406POPC   GL169193  29.789  26.669   5.690
 5406POPC   GL269194  29.918  27.024   5.804
 5406POPC   C1A69195  29.765  26.662   6.134
 5406POPC   D2A69196  29.953  26.734   6.511
 5406POPC   C3A69197  29.816  26.614   6.903
 5406POPC   C4A69198  30.102  26.598   7.252
 5406POPC   C1B69199  29.555  27.102   6.089
 5406POPC   C2B69200  29.446  26.918   6.499
 5406POPC   C3B69201  29.425  27.101   6.930
 5406POPC   C4B69202  29.710  26.986   7.232
 5407POPC   NC369203   3.084  16.796   5.477
 5407POPC   PO469204   2.316  16.858   5.416
 5407POPC   GL169205   2.623  16.703   5.726
 5407POPC   GL269206   2.780  16.381   5.622
 5407POPC   C1A69207   2.813  16.836   6.130
 5407POPC   D2A69208   2.581  16.851   6.499
 5407POPC   C3A69209   2.761  16.825   6.876
 5407POPC   C4A69210   2.985  16.843   7.217
 5407POPC   C1B69211   2.990  16.352   6.037
 5407POPC   C2B69212   2.815  16.402   6.452
 5407POPC   C3B69213   2.939  16.341   6.885
 5407POPC   C4B69214   2.655  16.445   7.217
 5408POPC   NC369215   5.292   2.794   5.660
 5408POPC   PO469216   4.601   2.914   5.634
 5408POPC   GL169217   4.892   2.927   5.943
 5408POPC   GL269218   4.901   2.553   5.917
 5408POPC   C1A69219   5.085   3.060   6.339
 5408POPC   D2A69220   4.950   3.171   6.759
 5408POPC   C3A69221   4.976   2.910   7.134
 5408POPC   C4A69222   4.733   2.849   7.524
 5408POPC   C1B69223   5.162   2.554   6.280
 5408POPC   C2B69224   5.188   2.682   6.706
 5408POPC   C3B69225   5.166   2.427   7.067
 5408POPC   C4B69226   4.977   2.423   7.485
 5409POPC   NC369227  24.308  34.381   5.304
 5409POPC   PO469228  24.850  34.798   5.203
 5409POPC   GL169229  24.687  34.605   5.569
 5409POPC   GL269230  24.432  34.847   5.649
 5409POPC   C1A69231  24.782  34.386   5.975
 5409POPC   D2A69232  24.700  34.539   6.402
 5409POPC   C3A69233  24.759  34.290   6.765
 5409POPC   C4A69234  24.635  34.350   7.182
 5409POPC   C1B69235  24.313  34.595   6.022
 5409POPC   C2B69236  24.211  34.702   6.459
 5409POPC   C3B69237  24.373  34.644   6.844
 5409POPC   C4B69238  24.382  34.795   7.264
 5410POPC   NC369239  31.023  19.406   5.567
 5410POPC   PO469240  30.621  18.895   5.412
 5410POPC   GL169241  30.725  19.009   5.814
 5410POPC   GL269242  30.989  18.792   5.833
 5410POPC   C1A69243  30.511  19.132   6.237
 5410POPC   D2A69244  30.245  19.230   6.628
 5410POPC   C3A69245  30.406  19.313   7.057
 5410POPC   C4A69246  30.547  19.060   7.415
 5410POPC   C1B69247  31.029  19.101   6.205
 5410POPC   C2B69248  30.830  19.131   6.623
 5410POPC   C3B69249  30.923  19.091   7.033
 5410POPC   C4B69250  30.987  18.731   7.245
 5411POPC   NC369251  13.709  20.888   5.463
 5411POPC   PO469252  13.577  20.167   5.391
 5411POPC   GL169253  13.770  20.337   5.746
 5411POPC   GL269254  13.492  20.549   5.777
 5411POPC   C1A69255  13.728  20.473   6.203
 5411POPC   D2A69256  13.455  20.434   6.579
 5411POPC   C3A69257  13.650  20.374   6.988
 5411POPC   C4A69258  13.590  20.174   7.374
 5411POPC   C1B69259  13.429  20.903   6.086
 5411POPC   C2B69260  13.385  20.956   6.531
 5411POPC   C3B69261  13.430  20.834   6.954
 5411POPC   C4B69262  13.313  21.018   7.337
 5412POPC   NC369263  10.045   8.393   5.290
 5412POPC   PO469264   9.430   8.081   5.269
 5412POPC   GL169265   9.459   8.148   5.707
 5412POPC   GL269266   9.595   8.468   5.658
 5412POPC   C1A69267   9.767   8.154   6.071
 5412POPC   D2A69268   9.687   8.182   6.525
 5412POPC   C3A69269  10.028   8.186   6.821
 5412POPC   C4A69270  10.135   8.227   7.252
 5412POPC   C1B69271   9.411   8.517   6.092
 5412POPC   C2B69272   9.411   8.635   6.543
 5412POPC   C3B69273   9.544   8.460   6.946
 5412POPC   C4B69274   9.516   8.668   7.341
 5413POPC   NC369275   3.475  33.413   5.620
 5413POPC   PO469276   3.244  32.784   5.509
 5413POPC   GL169277   3.605  32.919   5.798
 5413POPC   GL269278   3.607  33.170   6.034
 5413POPC   C1A69279   3.805  32.759   6.213
 5413POPC   D2A69280   3.807  33.001   6.594
 5413POPC   C3A69281   3.770  32.770   6.980
 5413POPC   C4A69282   3.580  32.974   7.323
 5413POPC   C1B69283   3.792  33.443   6.277
 5413POPC   C2B69284   3.819  33.583   6.674
 5413POPC   C3B69285   3.714  33.326   7.001
 5413POPC   C4B69286   3.777  33.457   7.425
 5414POPC   NC369287  34.560  20.380   5.497
 5414POPC   PO469288  34.982  20.984   5.377
 5414POPC   GL169289  34.784  20.791   5.766
 5414POPC   GL269290  34.438  20.748   5.864
 5414POPC   C1A69291  34.815  20.589   6.197
 5414POPC   D2A69292  34.787  20.404   6.629
 5414POPC   C3A69293  34.686  20.667   7.011
 5414POPC   C4A69294  34.758  20.767   7.464
 5414POPC   C1B69295  34.338  20.400   6.154
 5414POPC   C2B69296  34.267  20.406   6.599
 5414POPC   C3B69297  34.414  20.216   6.993
 5414POPC   C4B69298  34.538  20.328   7.404
 5415POPC   NC369299   7.765  21.402   5.508
 5415POPC   PO469300   7.072  21.346   5.522
 5415POPC   GL169301   7.394  21.269   5.867
 5415POPC   GL269302   7.606  21.569   5.941
 5415POPC   C1A69303   7.433  21.299   6.341
 5415POPC   D2A69304   7.300  21.159   6.747
 5415POPC   C3A69305   7.357  21.413   7.091
 5415POPC   C4A69306   7.750  21.426   7.222
 5415POPC   C1B69307   7.525  21.821   6.291
 5415POPC   C2B69308   7.417  21.754   6.703
 5415POPC   C3B69309   7.125  21.897   6.984
 5415POPC   C4B69310   6.984  21.742   7.354
 5416POPC   NC369311   1.049  19.449   5.184
 5416POPC   PO469312   1.547  19.914   5.269
 5416POPC   GL169313   1.406  19.899   5.723
 5416POPC   GL269314   1.055  20.013   5.743
 5416POPC   C1A69315   1.380  19.727   6.176
 5416POPC   D2A69316   1.102  19.649   6.564
 5416POPC   C3A69317   1.273  19.743   6.963
 5416POPC   C4A69318   1.303  19.503   7.324
 5416POPC   C1B69319   0.885  19.859   6.134
 5416POPC   C2B69320   0.795  20.057   6.528
 5416POPC   C3B69321   0.820  20.000   6.971
 5416POPC   C4B69322   1.058  19.997   7.368
 5417POPC   NC369323  30.802  31.947   5.389
 5417POPC   PO469324  30.528  32.593   5.272
 5417POPC   GL169325  30.651  32.346   5.675
 5417POPC   GL269326  30.572  32.056   5.894
 5417POPC   C1A69327  30.780  32.450   6.126
 5417POPC   D2A69328  30.561  32.253   6.471
 5417POPC   C3A69329  30.652  32.386   6.884
 5417POPC   C4A69330  30.496  32.281   7.261
 5417POPC   C1B69331  30.842  31.893   6.257
 5417POPC   C2B69332  30.947  31.987   6.710
 5417POPC   C3B69333  31.026  32.141   7.132
 5417POPC   C4B69334  30.847  32.109   7.573
 5418POPC   NC369335  38.345  29.400   5.374
 5418POPC   PO469336  38.496  28.704   5.496
 5418POPC   GL169337  38.552  29.054   5.758
 5418POPC   GL269338  38.800  29.284   5.591
 5418POPC   C1A69339  38.526  29.025   6.233
 5418POPC   D2A69340  38.439  28.724   6.594
 5418POPC   C3A69341  38.663  28.829   6.973
 5418POPC   C4A69342  38.482  29.151   7.206
 5418POPC   C1B69343  38.932  29.253   6.014
 5418POPC   C2B69344  38.961  29.240   6.453
 5418POPC   C3B69345  38.818  29.337   6.850
 5418POPC   C4B69346  38.983  29.283   7.252
 5419POPC   NC369347  38.960  30.146   5.393
 5419POPC   PO469348  39.549  29.813   5.412
 5419POPC   GL169349  39.271  29.955   5.776
 5419POPC   GL269350  38.929  29.770   5.751
 5419POPC   C1A69351  39.316  30.195   6.202
 5419POPC   D2A69352  39.524  30.358   6.581
 5419POPC   C3A69353  39.352  30.133   6.923
 5419POPC   C4A69354  39.366  29.910   7.298
 5419POPC   C1B69355  38.842  30.025   6.092
 5419POPC   C2B69356  38.914  29.934   6.509
 5419POPC   C3B69357  38.924  29.835   6.928
 5419POPC   C4B69358  38.869  30.098   7.257
 5420POPC   NC369359   2.604  28.873   5.351
 5420POPC   PO469360   1.916  29.129   5.359
 5420POPC   GL169361   2.268  29.086   5.681
 5420POPC   GL269362   2.330  28.725   5.785
 5420POPC   C1A69363   2.357  29.153   6.139
 5420POPC   D2A69364   2.113  29.397   6.468
 5420POPC   C3A69365   2.125  29.207   6.883
 5420POPC   C4A69366   1.848  29.189   7.254
 5420POPC   C1B69367   1.927  28.902   6.000
 5420POPC   C2B69368   1.815  28.978   6.424
 5420POPC   C3B69369   1.605  28.803   6.772
 5420POPC   C4B69370   1.674  28.697   7.198
 5421POPC   NC369371  30.283  11.603   5.421
 5421POPC   PO469372  29.627  11.279   5.472
 5421POPC   GL169373  29.879  11.385   5.826
 5421POPC   GL269374  30.146  11.603   5.921
 5421POPC   C1A69375  29.831  11.214   6.230
 5421POPC   D2A69376  29.627  11.050   6.552
 5421POPC   C3A69377  29.680  11.209   6.956
 5421POPC   C4A69378  29.837  10.990   7.278
 5421POPC   C1B69379  30.252  11.471   6.341
 5421POPC   C2B69380  30.116  11.341   6.743
 5421POPC   C3B69381  30.079  11.441   7.190
 5421POPC   C4B69382  30.348  11.570   7.509
 5422POPC   NC369383   4.115  16.920   5.385
 5422POPC   PO469384   3.584  16.413   5.459
 5422POPC   GL169385   3.522  16.742   5.776
 5422POPC   GL269386   3.514  17.122   5.686
 5422POPC   C1A69387   3.328  16.722   6.193
 5422POPC   D2A69388   3.171  16.736   6.620
 5422POPC   C3A69389   3.387  16.635   7.018
 5422POPC   C4A69390   3.370  16.662   7.518
 5422POPC   C1B69391   3.677  17.097   6.100
 5422POPC   C2B69392   3.541  17.060   6.517
 5422POPC   C3B69393   3.698  17.036   6.916
 5422POPC   C4B69394   3.806  16.800   7.283
 5423POPC   NC369395   5.803   7.357   5.375
 5423POPC   PO469396   6.331   7.722   5.555
 5423POPC   GL169397   6.093   7.388   5.816
 5423POPC   GL269398   5.708   7.426   5.858
 5423POPC   C1A69399   5.980   7.283   6.258
 5423POPC   D2A69400   5.807   7.492   6.592
 5423POPC   C3A69401   5.784   7.300   6.972
 5423POPC   C4A69402   5.928   7.530   7.247
 5423POPC   C1B69403   5.461   7.594   6.194
 5423POPC   C2B69404   5.306   7.556   6.610
 5423POPC   C3B69405   5.445   7.725   6.976
 5423POPC   C4B69406   5.457   7.572   7.381
 5424POPC   NC369407  33.979  22.268   5.365
 5424POPC   PO469408  33.566  21.804   5.484
 5424POPC   GL169409  33.892  21.901   5.761
 5424POPC   GL269410  33.743  22.225   5.816
 5424POPC   C1A69411  34.010  21.965   6.207
 5424POPC   D2A69412  33.776  22.031   6.621
 5424POPC   C3A69413  33.962  21.903   7.036
 5424POPC   C4A69414  33.933  22.084   7.487
 5424POPC   C1B69415  33.793  22.421   6.201
 5424POPC   C2B69416  33.614  22.541   6.558
 5424POPC   C3B69417  33.456  22.404   6.906
 5424POPC   C4B69418  33.776  22.375   7.123
 5425POPC   NC369419  20.675  17.209   5.485
 5425POPC   PO469420  20.376  17.833   5.633
 5425POPC   GL169421  20.585  17.514   5.874
 5425POPC   GL269422  20.387  17.194   5.905
 5425POPC   C1A69423  20.861  17.560   6.233
 5425POPC   D2A69424  20.760  17.753   6.649
 5425POPC   C3A69425  20.908  17.544   7.036
 5425POPC   C4A69426  20.792  17.561   7.473
 5425POPC   C1B69427  20.365  17.419   6.314
 5425POPC   C2B69428  20.328  17.450   6.731
 5425POPC   C3B69429  20.396  17.576   7.127
 5425POPC   C4B69430  20.371  17.280   7.456
 5426POPC   NC369431  10.202  31.250   5.524
 5426POPC   PO469432  10.622  31.763   5.415
 5426POPC   GL169433  10.420  31.611   5.825
 5426POPC   GL269434  10.572  31.292   5.866
 5426POPC   C1A69435  10.258  31.536   6.276
 5426POPC   D2A69436  10.479  31.578   6.702
 5426POPC   C3A69437  10.370  31.579   7.163
 5426POPC   C4A69438  10.482  31.303   7.549
 5426POPC   C1B69439  10.739  31.359   6.278
 5426POPC   C2B69440  10.731  31.137   6.684
 5426POPC   C3B69441  10.800  31.341   7.087
 5426POPC   C4B69442  10.821  31.663   7.461
 5427POPC   NC369443  37.122  42.737   5.506
 5427POPC   PO469444  36.738  43.297   5.335
 5427POPC   GL169445  36.865  43.344   5.750
 5427POPC   GL269446  36.999  43.064   5.864
 5427POPC   C1A69447  36.748  43.395   6.182
 5427POPC   D2A69448  36.685  43.163   6.555
 5427POPC   C3A69449  36.794  43.316   6.934
 5427POPC   C4A69450  36.816  43.343   7.361
 5427POPC   C1B69451  37.077  42.954   6.275
 5427POPC   C2B69452  37.115  42.818   6.687
 5427POPC   C3B69453  36.932  42.804   7.087
 5427POPC   C4B69454  37.090  42.934   7.487
 5428POPC   NC369455   1.482   7.944   5.454
 5428POPC   PO469456   1.018   8.395   5.408
 5428POPC   GL169457   1.200   8.282   5.819
 5428POPC   GL269458   1.207   7.922   5.896
 5428POPC   C1A69459   1.169   8.450   6.252
 5428POPC   D2A69460   1.392   8.303   6.610
 5428POPC   C3A69461   1.234   8.369   7.024
 5428POPC   C4A69462   1.175   8.602   7.406
 5428POPC   C1B69463   0.880   8.031   6.223
 5428POPC   C2B69464   0.913   8.064   6.693
 5428POPC   C3B69465   0.928   7.968   7.132
 5428POPC   C4B69466   1.295   7.964   7.345
 5429POPC   NC369467  30.884  23.198   5.460
 5429POPC   PO469468  30.339  22.689   5.458
 5429POPC   GL169469  30.586  22.738   5.867
 5429POPC   GL269470  30.933  22.855   5.838
 5429POPC   C1A69471  30.595  23.014   6.232
 5429POPC   D2A69472  30.438  23.249   6.585
 5429POPC   C3A69473  30.495  23.113   6.987
 5429POPC   C4A69474  30.544  22.943   7.386
 5429POPC   C1B69475  30.975  22.635   6.218
 5429POPC   C2B69476  30.831  22.575   6.630
 5429POPC   C3B69477  30.892  22.760   7.035
 5429POPC   C4B69478  31.008  22.701   7.478
 5430POPC   NC369479  11.770  36.925   5.368
 5430POPC   PO469480  12.421  36.897   5.208
 5430POPC   GL169481  12.158  36.784   5.652
 5430POPC   GL269482  11.968  37.074   5.807
 5430POPC   C1A69483  12.140  36.740   6.139
 5430POPC   D2A69484  12.174  36.957   6.581
 5430POPC   C3A69485  12.053  36.782   6.979
 5430POPC   C4A69486  12.007  36.652   7.387
 5430POPC   C1B69487  12.026  37.253   6.184
 5430POPC   C2B69488  11.753  37.231   6.533
 5430POPC   C3B69489  11.878  37.253   6.937
 5430POPC   C4B69490  11.672  37.205   7.317
 5431POPC   NC369491  20.788  20.487   5.278
 5431POPC   PO469492  20.256  20.454   5.636
 5431POPC   GL169493  20.505  20.761   5.806
 5431POPC   GL269494  20.233  20.829   6.000
 5431POPC   C1A69495  20.652  20.662   6.218
 5431POPC   D2A69496  20.550  20.307   6.471
 5431POPC   C3A69497  20.540  20.375   6.899
 5431POPC   C4A69498  20.787  20.417   7.257
 5431POPC   C1B69499  20.313  20.986   6.375
 5431POPC   C2B69500  20.583  20.903   6.697
 5431POPC   C3B69501  20.494  20.841   7.125
 5431POPC   C4B69502  20.315  20.539   7.416
 5432POPC   NC369503  40.079  22.832   5.341
 5432POPC   PO469504  39.619  23.307   5.327
 5432POPC   GL169505  39.728  22.951   5.704
 5432POPC   GL269506  40.128  22.911   5.825
 5432POPC   C1A69507  39.784  22.958   6.187
 5432POPC   D2A69508  39.922  23.218   6.526
 5432POPC   C3A69509  39.892  23.032   6.928
 5432POPC   C4A69510  39.856  23.167   7.340
 5432POPC   C1B69511  40.316  22.900   6.239
 5432POPC   C2B69512  40.362  22.903   6.692
 5432POPC   C3B69513  40.282  22.772   7.119
 5432POPC   C4B69514  39.969  22.680   7.394
 5433POPC   NC369515  36.681  17.864   5.230
 5433POPC   PO469516  37.071  18.238   5.451
 5433POPC   GL169517  36.901  18.355   5.808
 5433POPC   GL269518  37.069  18.651   5.920
 5433POPC   C1A69519  36.699  18.255   6.169
 5433POPC   D2A69520  36.863  18.207   6.548
 5433POPC   C3A69521  36.788  18.380   6.922
 5433POPC   C4A69522  36.773  18.061   7.267
 5433POPC   C1B69523  36.863  18.717   6.339
 5433POPC   C2B69524  36.468  18.886   6.533
 5433POPC   C3B69525  36.364  18.828   6.962
 5433POPC   C4B69526  36.725  18.751   7.266
 5434POPC   NC369527  40.353   4.901   5.334
 5434POPC   PO469528  40.015   5.445   5.390
 5434POPC   GL169529  40.104   5.272   5.777
 5434POPC   GL269530  40.358   5.042   5.851
 5434POPC   C1A69531  40.143   5.339   6.221
 5434POPC   D2A69532  40.098   5.510   6.635
 5434POPC   C3A69533  40.179   5.209   6.962
 5434POPC   C4A69534  39.913   5.114   7.322
 5434POPC   C1B69535  40.556   5.015   6.301
 5434POPC   C2B69536  40.436   4.806   6.730
 5434POPC   C3B69537  40.280   4.741   7.200
 5434POPC   C4B69538  40.284   4.937   7.643
 5435POPC   NC369539  38.106  22.069   5.430
 5435POPC   PO469540  38.768  22.351   5.434
 5435POPC   GL169541  38.587  22.142   5.800
 5435POPC   GL269542  38.227  22.202   5.910
 5435POPC   C1A69543  38.598  22.074   6.248
 5435POPC   D2A69544  38.312  22.245   6.518
 5435POPC   C3A69545  38.467  22.116   6.906
 5435POPC   C4A69546  38.774  22.222   7.207
 5435POPC   C1B69547  38.159  21.835   6.194
 5435POPC   C2B69548  38.383  21.699   6.594
 5435POPC   C3B69549  38.253  21.677   7.068
 5435POPC   C4B69550  38.486  21.759   7.475
 5436POPC   NC369551   8.461  22.705   5.438
 5436POPC   PO469552   9.150  22.884   5.424
 5436POPC   GL169553   8.827  22.901   5.736
 5436POPC   GL269554   8.865  22.543   5.780
 5436POPC   C1A69555   8.807  23.099   6.142
 5436POPC   D2A69556   9.125  23.097   6.480
 5436POPC   C3A69557   8.981  22.946   6.873
 5436POPC   C4A69558   8.724  23.148   7.171
 5436POPC   C1B69559   9.034  22.623   6.218
 5436POPC   C2B69560   9.329  22.632   6.593
 5436POPC   C3B69561   9.408  22.734   7.045
 5436POPC   C4B69562   9.044  22.774   7.362
 5437POPC   NC369563  42.519  16.863   5.088
 5437POPC   PO469564  43.169  16.825   5.297
 5437POPC   GL169565  43.072  16.747   5.712
 5437POPC   GL269566  43.335  16.523   5.809
 5437POPC   C1A69567  42.925  16.767   6.139
 5437POPC   D2A69568  42.956  16.592   6.588
 5437POPC   C3A69569  43.075  16.737   7.028
 5437POPC   C4A69570  42.889  16.795   7.456
 5437POPC   C1B69571  43.560  16.438   6.188
 5437POPC   C2B69572  43.441  16.388   6.608
 5437POPC   C3B69573  43.439  16.335   7.038
 5437POPC   C4B69574  43.442  16.594   7.406
 5438POPC   NC369575  41.503  34.203   5.479
 5438POPC   PO469576  41.654  34.871   5.533
 5438POPC   GL169577  41.441  34.622   5.828
 5438POPC   GL269578  41.663  34.369   5.918
 5438POPC   C1A69579  41.470  34.678   6.275
 5438POPC   D2A69580  41.642  34.686   6.662
 5438POPC   C3A69581  41.294  34.706   6.903
 5438POPC   C4A69582  41.307  34.515   7.257
 5438POPC   C1B69583  41.280  34.222   6.152
 5438POPC   C2B69584  41.348  34.248   6.578
 5438POPC   C3B69585  41.219  34.122   6.945
 5438POPC   C4B69586  41.320  34.018   7.333
 5439POPC   NC369587   2.806  34.164   5.577
 5439POPC   PO469588   3.091  33.540   5.406
 5439POPC   GL169589   2.791  33.613   5.727
 5439POPC   GL269590   2.490  33.433   5.753
 5439POPC   C1A69591   2.803  33.740   6.148
 5439POPC   D2A69592   2.890  33.574   6.545
 5439POPC   C3A69593   2.951  33.884   6.840
 5439POPC   C4A69594   2.974  33.832   7.258
 5439POPC   C1B69595   2.315  33.598   6.158
 5439POPC   C2B69596   2.424  33.805   6.562
 5439POPC   C3B69597   2.528  33.628   6.985
 5439POPC   C4B69598   2.334  33.655   7.387
 5440POPC   NC369599  38.948  37.453   5.472
 5440POPC   PO469600  39.494  37.843   5.307
 5440POPC   GL169601  39.292  37.793   5.729
 5440POPC   GL269602  39.260  37.476   5.875
 5440POPC   C1A69603  39.256  37.884   6.197
 5440POPC   D2A69604  39.153  38.064   6.610
 5440POPC   C3A69605  39.283  37.830   6.964
 5440POPC   C4A69606  39.537  37.834   7.315
 5440POPC   C1B69607  38.944  37.438   6.196
 5440POPC   C2B69608  39.023  37.209   6.579
 5440POPC   C3B69609  39.109  37.347   6.965
 5440POPC   C4B69610  38.979  37.303   7.356
 5441POPC   NC369611  32.525   9.590   5.698
 5441POPC   PO469612  33.081   9.672   5.301
 5441POPC   GL169613  33.074   9.679   5.772
 5441POPC   GL269614  32.892   9.958   5.882
 5441POPC   C1A69615  32.958   9.590   6.235
 5441POPC   D2A69616  33.168   9.457   6.623
 5441POPC   C3A69617  32.955   9.645   6.985
 5441POPC   C4A69618  32.531   9.692   7.054
 5441POPC   C1B69619  33.198  10.027   6.193
 5441POPC   C2B69620  33.041   9.982   6.606
 5441POPC   C3B69621  33.124  10.153   7.024
 5441POPC   C4B69622  32.820  10.286   7.302
 5442POPC   NC369623  26.467   9.377   5.417
 5442POPC   PO469624  26.619   8.740   5.431
 5442POPC   GL169625  26.831   8.994   5.766
 5442POPC   GL269626  27.088   9.277   5.763
 5442POPC   C1A69627  26.676   9.081   6.199
 5442POPC   D2A69628  26.845   9.198   6.620
 5442POPC   C3A69629  26.575   9.181   6.956
 5442POPC   C4A69630  26.655   9.033   7.334
 5442POPC   C1B69631  27.175   9.137   6.218
 5442POPC   C2B69632  27.261   8.901   6.635
 5442POPC   C3B69633  27.133   8.968   7.090
 5442POPC   C4B69634  27.220   8.778   7.514
 5443POPC   NC369635  11.500  26.506   5.304
 5443POPC   PO469636  11.076  27.104   5.202
 5443POPC   GL169637  11.115  26.738   5.532
 5443POPC   GL269638  11.462  26.778   5.723
 5443POPC   C1A69639  11.124  26.542   5.979
 5443POPC   D2A69640  11.180  26.588   6.420
 5443POPC   C3A69641  11.231  26.571   6.877
 5443POPC   C4A69642  11.063  26.801   7.255
 5443POPC   C1B69643  11.524  26.887   6.153
 5443POPC   C2B69644  11.616  26.790   6.581
 5443POPC   C3B69645  11.568  26.936   7.011
 5443POPC   C4B69646  11.561  26.722   7.383
 5444POPC   NC369647  34.964  31.295   5.280
 5444POPC   PO469648  34.305  31.453   5.469
 5444POPC   GL169649  34.679  31.585   5.741
 5444POPC   GL269650  34.935  31.318   5.785
 5444POPC   C1A69651  34.645  31.663   6.200
 5444POPC   D2A69652  34.395  31.675   6.586
 5444POPC   C3A69653  34.527  31.485   6.986
 5444POPC   C4A69654  34.514  31.659   7.403
 5444POPC   C1B69655  34.950  31.224   6.205
 5444POPC   C2B69656  34.879  31.373   6.619
 5444POPC   C3B69657  34.924  31.189   7.058
 5444POPC   C4B69658  34.603  31.159   7.415
 5445POPC   NC369659  19.642   5.926   5.222
 5445POPC   PO469660  19.542   5.426   5.660
 5445POPC   GL169661  19.784   5.759   5.790
 5445POPC   GL269662  19.753   6.099   5.725
 5445POPC   C1A69663  19.882   5.869   6.209
 5445POPC   D2A69664  20.020   5.999   6.622
 5445POPC   C3A69665  19.731   5.804   6.882
 5445POPC   C4A69666  19.756   5.565   7.210
 5445POPC   C1B69667  19.673   6.321   6.115
 5445POPC   C2B69668  19.510   6.153   6.532
 5445POPC   C3B69669  19.573   6.283   6.973
 5445POPC   C4B69670  19.985   6.174   7.177
 5446POPC   NC369671  21.256  41.588   5.416
 5446POPC   PO469672  21.633  41.086   5.608
 5446POPC   GL169673  21.396  41.390   5.863
 5446POPC   GL269674  21.018  41.373   5.844
 5446POPC   C1A69675  21.366  41.772   6.111
 5446POPC   D2A69676  21.596  41.820   6.512
 5446POPC   C3A69677  21.424  41.842   6.933
 5446POPC   C4A69678  21.385  41.666   7.327
 5446POPC   C1B69679  21.105  41.383   6.309
 5446POPC   C2B69680  21.090  41.496   6.751
 5446POPC   C3B69681  21.173  41.255   7.118
 5446POPC   C4B69682  21.176  41.273   7.584
 5447POPC   NC369683  11.690   1.172   5.345
 5447POPC   PO469684  12.215   1.419   5.372
 5447POPC   GL169685  11.982   1.284   5.764
 5447POPC   GL269686  12.081   0.952   5.811
 5447POPC   C1A69687  11.827   1.217   6.224
 5447POPC   D2A69688  11.750   1.436   6.646
 5447POPC   C3A69689  11.826   1.224   7.074
 5447POPC   C4A69690  11.961   0.826   7.281
 5447POPC   C1B69691  12.325   1.157   6.167
 5447POPC   C2B69692  12.248   1.258   6.628
 5447POPC   C3B69693  12.338   1.187   7.098
 5447POPC   C4B69694  12.385   1.501   7.436
 5448POPC   NC369695  44.825  11.630   5.313
 5448POPC   PO469696  44.511  11.116   5.356
 5448POPC   GL169697  44.775  11.335   5.705
 5448POPC   GL269698  44.571  11.396   5.958
 5448POPC   C1A69699   0.038  11.558   6.050
 5448POPC   D2A69700  44.740  11.489   6.440
 5448POPC   C3A69701  44.768  11.406   6.885
 5448POPC   C4A69702  44.638  11.340   7.322
 5448POPC   C1B69703  44.913  11.081   6.121
 5448POPC   C2B69704   0.067  11.001   6.515
 5448POPC   C3B69705  44.823  10.891   6.838
 5448POPC   C4B69706  44.935  10.951   7.255
 5449POPC   NC369707  29.448  34.306   5.080
 5449POPC   PO469708  28.946  34.621   5.514
 5449POPC   GL169709  29.294  34.806   5.677
 5449POPC   GL269710  29.475  34.513   5.808
 5449POPC   C1A69711  29.220  34.865   6.112
 5449POPC   D2A69712  29.022  34.710   6.470
 5449POPC   C3A69713  29.268  34.632   6.824
 5449POPC   C4A69714  29.190  34.601   7.245
 5449POPC   C1B69715  29.264  34.345   6.192
 5449POPC   C2B69716  29.299  34.159   6.610
 5449POPC   C3B69717  29.072  34.154   7.000
 5449POPC   C4B69718  29.221  34.124   7.426
 5450POPC   NC369719  31.586  41.528   5.331
 5450POPC   PO469720  30.956  41.449   5.600
 5450POPC   GL169721  31.373  41.422   5.777
 5450POPC   GL269722  31.554  41.739   5.784
 5450POPC   C1A69723  31.561  41.439   6.180
 5450POPC   D2A69724  31.527  41.250   6.573
 5450POPC   C3A69725  31.566  41.401   6.989
 5450POPC   C4A69726  31.174  41.295   7.145
 5450POPC   C1B69727  31.196  41.829   6.065
 5450POPC   C2B69728  31.185  41.678   6.483
 5450POPC   C3B69729  31.254  41.817   6.889
 5450POPC   C4B69730  31.599  41.906   7.200
 5451POPC   NC369731  11.860  31.758   5.463
 5451POPC   PO469732  12.146  31.142   5.545
 5451POPC   GL169733  11.974  31.389   5.872
 5451POPC   GL269734  11.592  31.452   5.782
 5451POPC   C1A69735  12.246  31.470   6.258
 5451POPC   D2A69736  12.364  31.622   6.691
 5451POPC   C3A69737  12.392  31.336   7.059
 5451POPC   C4A69738  12.406  31.346   7.545
 5451POPC   C1B69739  11.653  31.707   6.147
 5451POPC   C2B69740  11.901  31.759   6.532
 5451POPC   C3B69741  11.839  31.700   6.988
 5451POPC   C4B69742  11.937  31.366   7.304
 5452POPC   NC369743   6.250  32.431   5.505
 5452POPC   PO469744   5.889  31.998   5.136
 5452POPC   GL169745   5.881  32.100   5.632
 5452POPC   GL269746   5.600  32.290   5.768
 5452POPC   C1A69747   5.937  31.998   6.115
 5452POPC   D2A69748   6.200  32.024   6.538
 5452POPC   C3A69749   5.987  32.008   6.961
 5452POPC   C4A69750   5.957  32.016   7.401
 5452POPC   C1B69751   5.556  32.383   6.218
 5452POPC   C2B69752   5.797  32.398   6.640
 5452POPC   C3B69753   5.723  32.437   7.112
 5452POPC   C4B69754   5.466  32.608   7.493
 5453POPC   NC369755  31.020  41.047   5.790
 5453POPC   PO469756  30.816  40.552   5.293
 5453POPC   GL169757  30.700  40.677   5.685
 5453POPC   GL269758  31.054  40.529   5.773
 5453POPC   C1A69759  30.463  40.753   6.058
 5453POPC   D2A69760  30.383  40.599   6.483
 5453POPC   C3A69761  30.606  40.817   6.821
 5453POPC   C4A69762  30.386  40.806   7.201
 5453POPC   C1B69763  30.871  40.499   6.188
 5453POPC   C2B69764  30.839  40.373   6.624
 5453POPC   C3B69765  30.626  40.369   7.035
 5453POPC   C4B69766  30.680  40.506   7.475
 5454POPC   NC369767  35.862  36.679   5.354
 5454POPC   PO469768  36.487  36.806   5.157
 5454POPC   GL169769  36.309  36.826   5.572
 5454POPC   GL269770  36.066  37.109   5.592
 5454POPC   C1A69771  36.122  36.708   5.996
 5454POPC   D2A69772  35.925  36.705   6.409
 5454POPC   C3A69773  36.187  36.608   6.751
 5454POPC   C4A69774  36.167  36.747   7.185
 5454POPC   C1B69775  35.879  37.177   6.010
 5454POPC   C2B69776  35.823  37.184   6.461
 5454POPC   C3B69777  36.027  37.097   6.848
 5454POPC   C4B69778  36.050  37.235   7.301
 5455POPC   NC369779  18.493  22.731   5.634
 5455POPC   PO469780  18.594  22.198   5.216
 5455POPC   GL169781  18.449  22.154   5.682
 5455POPC   GL269782  18.198  22.387   5.827
 5455POPC   C1A69783  18.200  21.945   6.059
 5455POPC   D2A69784  18.052  21.874   6.484
 5455POPC   C3A69785  18.366  21.817   6.802
 5455POPC   C4A69786  18.469  21.854   7.225
 5455POPC   C1B69787  18.312  22.408   6.277
 5455POPC   C2B69788  18.222  22.311   6.699
 5455POPC   C3B69789  18.075  22.168   7.100
 5455POPC   C4B69790  18.117  22.467   7.437
 5456POPC   NC369791  19.997  16.785   5.342
 5456POPC   PO469792  19.815  16.241   5.690
 5456POPC   GL169793  19.965  16.637   5.828
 5456POPC   GL269794  19.623  16.752   5.744
 5456POPC   C1A69795  20.252  16.786   6.169
 5456POPC   D2A69796  20.418  16.899   6.594
 5456POPC   C3A69797  20.164  16.628   6.888
 5456POPC   C4A69798  20.234  16.242   7.153
 5456POPC   C1B69799  19.658  16.743   6.225
 5456POPC   C2B69800  19.680  16.631   6.682
 5456POPC   C3B69801  19.539  16.522   7.117
 5456POPC   C4B69802  19.522  16.770   7.506
 5457POPC   NC369803  11.721   4.140   5.321
 5457POPC   PO469804  12.134   4.722   5.334
 5457POPC   GL169805  11.854   4.531   5.620
 5457POPC   GL269806  12.053   4.292   5.787
 5457POPC   C1A69807  11.763   4.641   6.056
 5457POPC   D2A69808  11.640   4.723   6.514
 5457POPC   C3A69809  11.779   4.532   6.899
 5457POPC   C4A69810  11.986   4.268   7.227
 5457POPC   C1B69811  12.160   4.393   6.258
 5457POPC   C2B69812  12.240   4.381   6.718
 5457POPC   C3B69813  12.231   4.685   7.052
 5457POPC   C4B69814  12.241   4.686   7.494
 5458POPC   NC369815  34.711  42.541   5.300
 5458POPC   PO469816  34.889  41.869   5.368
 5458POPC   GL169817  34.582  42.152   5.712
 5458POPC   GL269818  34.538  42.539   5.794
 5458POPC   C1A69819  34.316  42.206   6.110
 5458POPC   D2A69820  34.370  42.503   6.400
 5458POPC   C3A69821  34.347  42.385   6.836
 5458POPC   C4A69822  34.451  42.553   7.268
 5458POPC   C1B69823  34.805  42.377   6.158
 5458POPC   C2B69824  34.785  42.195   6.598
 5458POPC   C3B69825  34.809  42.273   7.062
 5458POPC   C4B69826  34.771  42.272   7.531
 5459POPC   NC369827  19.224  37.410   5.506
 5459POPC   PO469828  19.370  38.000   5.204
 5459POPC   GL169829  19.289  37.991   5.681
 5459POPC   GL269830  18.982  37.801   5.751
 5459POPC   C1A69831  19.245  37.863   6.157
 5459POPC   D2A69832  18.917  37.779   6.506
 5459POPC   C3A69833  19.008  37.916   6.919
 5459POPC   C4A69834  19.262  37.823   7.261
 5459POPC   C1B69835  18.906  37.459   6.127
 5459POPC   C2B69836  18.807  37.294   6.581
 5459POPC   C3B69837  18.948  37.399   7.025
 5459POPC   C4B69838  18.800  37.647   7.350
 5460POPC   NC369839   0.944  25.761   5.557
 5460POPC   PO469840   1.213  26.216   5.130
 5460POPC   GL169841   1.224  26.290   5.660
 5460POPC   GL269842   1.015  26.235   5.888
 5460POPC   C1A69843   1.432  26.068   6.115
 5460POPC   D2A69844   1.423  25.669   6.418
 5460POPC   C3A69845   1.491  25.723   6.895
 5460POPC   C4A69846   1.270  25.607   7.295
 5460POPC   C1B69847   1.223  26.522   6.145
 5460POPC   C2B69848   1.348  26.392   6.553
 5460POPC   C3B69849   1.220  26.199   6.934
 5460POPC   C4B69850   0.952  26.021   7.225
 5461POPC   NC369851  39.755  44.222   5.516
 5461POPC   PO469852  40.074  43.587   5.365
 5461POPC   GL169853  40.180  43.915   5.647
 5461POPC   GL269854  39.873  43.874   5.841
 5461POPC   C1A69855  40.313  43.867   6.089
 5461POPC   D2A69856  40.266  44.007   6.510
 5461POPC   C3A69857  40.163  43.657   6.824
 5461POPC   C4A69858  40.147  43.734   7.264
 5461POPC   C1B69859  39.836  44.062   6.219
 5461POPC   C2B69860  39.758  43.879   6.603
 5461POPC   C3B69861  39.720  43.945   7.026
 5461POPC   C4B69862  39.579  43.614   7.257
 5462POPC   NC369863  27.850   1.877   5.500
 5462POPC   PO469864  27.266   2.113   5.611
 5462POPC   GL169865  27.433   1.880   5.893
 5462POPC   GL269866  27.674   2.140   5.950
 5462POPC   C1A69867  27.351   1.960   6.321
 5462POPC   D2A69868  27.593   2.184   6.632
 5462POPC   C3A69869  27.626   1.940   6.981
 5462POPC   C4A69870  27.272   1.742   7.233
 5462POPC   C1B69871  27.834   1.849   6.249
 5462POPC   C2B69872  27.879   1.595   6.614
 5462POPC   C3B69873  28.038   1.561   7.003
 5462POPC   C4B69874  27.833   1.699   7.368
 5463POPC   NC369875  10.992  27.530   5.406
 5463POPC   PO469876  10.296  27.697   5.399
 5463POPC   GL169877  10.438  27.763   5.858
 5463POPC   GL269878  10.772  27.571   5.933
 5463POPC   C1A69879  10.443  27.739   6.337
 5463POPC   D2A69880  10.830  27.598   6.571
 5463POPC   C3A69881  10.730  27.597   7.019
 5463POPC   C4A69882  10.298  27.507   7.158
 5463POPC   C1B69883  10.822  27.997   6.145
 5463POPC   C2B69884  10.733  28.126   6.594
 5463POPC   C3B69885  10.446  28.068   6.951
 5463POPC   C4B69886  10.467  27.954   7.393
 5464POPC   NC369887  22.175  25.726   5.297
 5464POPC   PO469888  21.798  26.306   5.233
 5464POPC   GL169889  22.108  26.185   5.608
 5464POPC   GL269890  22.377  25.963   5.696
 5464POPC   C1A69891  22.125  26.161   6.100
 5464POPC   D2A69892  21.843  26.318   6.465
 5464POPC   C3A69893  21.900  26.195   6.913
 5464POPC   C4A69894  22.196  26.266   7.258
 5464POPC   C1B69895  22.569  25.824   6.088
 5464POPC   C2B69896  22.612  25.744   6.545
 5464POPC   C3B69897  22.470  25.968   6.940
 5464POPC   C4B69898  22.324  25.802   7.388
 5465POPC   NC369899   3.205  18.501   5.331
 5465POPC   PO469900   3.657  17.999   5.419
 5465POPC   GL169901   3.481  18.110   5.833
 5465POPC   GL269902   3.178  18.113   5.697
 5465POPC   C1A69903   3.511  18.400   6.243
 5465POPC   D2A69904   3.638  18.331   6.634
 5465POPC   C3A69905   3.522  18.430   7.019
 5465POPC   C4A69906   3.684  18.340   7.427
 5465POPC   C1B69907   3.060  18.218   6.126
 5465POPC   C2B69908   3.210  18.010   6.516
 5465POPC   C3B69909   3.370  17.969   6.942
 5465POPC   C4B69910   3.220  18.099   7.353
 5466POPC   NC369911  35.350  39.122   5.322
 5466POPC   PO469912  35.032  38.596   5.608
 5466POPC   GL169913  35.175  39.050   5.785
 5466POPC   GL269914  34.947  39.328   5.788
 5466POPC   C1A69915  35.361  39.380   6.131
 5466POPC   D2A69916  35.323  39.606   6.555
 5466POPC   C3A69917  35.525  39.475   6.956
 5466POPC   C4A69918  35.490  39.045   7.133
 5466POPC   C1B69919  34.935  39.125   6.219
 5466POPC   C2B69920  34.949  39.213   6.640
 5466POPC   C3B69921  35.058  39.325   7.045
 5466POPC   C4B69922  35.181  39.259   7.480
 5467POPC   NC369923   4.422  33.678   5.443
 5467POPC   PO469924   3.898  34.099   5.220
 5467POPC   GL169925   4.116  34.005   5.690
 5467POPC   GL269926   4.033  33.723   5.904
 5467POPC   C1A69927   4.488  33.914   6.041
 5467POPC   D2A69928   4.551  33.679   6.418
 5467POPC   C3A69929   4.295  33.778   6.781
 5467POPC   C4A69930   4.176  33.504   7.091
 5467POPC   C1B69931   4.084  33.853   6.323
 5467POPC   C2B69932   3.962  34.158   6.590
 5467POPC   C3B69933   3.942  34.287   6.980
 5467POPC   C4B69934   3.913  33.925   7.188
 5468POPC   NC369935  24.157  42.652   5.392
 5468POPC   PO469936  24.301  41.969   5.508
 5468POPC   GL169937  24.621  42.166   5.812
 5468POPC   GL269938  24.638  42.551   5.843
 5468POPC   C1A69939  24.525  42.226   6.243
 5468POPC   D2A69940  24.480  42.408   6.635
 5468POPC   C3A69941  24.462  42.077   6.916
 5468POPC   C4A69942  24.382  42.157   7.321
 5468POPC   C1B69943  24.818  42.650   6.275
 5468POPC   C2B69944  24.971  42.475   6.681
 5468POPC   C3B69945  24.814  42.536   7.103
 5468POPC   C4B69946  24.626  42.554   7.504
 5469POPC   NC369947  43.593   4.838   5.535
 5469POPC   PO469948  43.774   5.439   5.317
 5469POPC   GL169949  43.870   5.263   5.761
 5469POPC   GL269950  43.586   5.147   5.941
 5469POPC   C1A69951  43.884   5.403   6.248
 5469POPC   D2A69952  43.649   5.152   6.590
 5469POPC   C3A69953  43.809   5.189   7.013
 5469POPC   C4A69954  44.136   5.504   7.027
 5469POPC   C1B69955  43.888   4.897   6.144
 5469POPC   C2B69956  43.910   4.719   6.526
 5469POPC   C3B69957  43.688   4.696   6.878
 5469POPC   C4B69958  43.885   4.630   7.218
 5470POPC   NC369959   6.354  31.503   5.502
 5470POPC   PO469960   6.783  31.092   5.666
 5470POPC   GL169961   6.676  31.538   5.921
 5470POPC   GL269962   6.389  31.809   5.898
 5470POPC   C1A69963   6.674  31.763   6.323
 5470POPC   D2A69964   6.588  31.375   6.516
 5470POPC   C3A69965   6.684  31.241   6.926
 5470POPC   C4A69966   6.511  31.286   7.336
 5470POPC   C1B69967   6.178  31.469   6.147
 5470POPC   C2B69968   6.069  31.409   6.561
 5470POPC   C3B69969   6.295  31.601   6.884
 5470POPC   C4B69970   6.373  31.780   7.265
 5471POPC   NC369971  42.836   2.734   5.278
 5471POPC   PO469972  43.438   2.977   5.455
 5471POPC   GL169973  43.152   2.916   5.778
 5471POPC   GL269974  43.043   2.576   5.722
 5471POPC   C1A69975  43.243   2.811   6.211
 5471POPC   D2A69976  43.340   2.659   6.615
 5471POPC   C3A69977  43.085   2.762   6.975
 5471POPC   C4A69978  42.858   2.741   7.351
 5471POPC   C1B69979  42.879   2.471   6.115
 5471POPC   C2B69980  42.752   2.533   6.572
 5471POPC   C3B69981  42.695   2.405   7.007
 5471POPC   C4B69982  42.777   2.216   7.411
 5472POPC   NC369983  11.634  17.921   5.438
 5472POPC   PO469984  11.872  17.313   5.402
 5472POPC   GL169985  12.100  17.580   5.741
 5472POPC   GL269986  12.477  17.539   5.804
 5472POPC   C1A69987  12.107  17.689   6.217
 5472POPC   D2A69988  11.894  17.638   6.651
 5472POPC   C3A69989  12.097  17.709   7.069
 5472POPC   C4A69990  12.139  17.708   7.526
 5472POPC   C1B69991  12.280  17.216   6.078
 5472POPC   C2B69992  12.109  17.165   6.504
 5472POPC   C3B69993  12.191  17.221   6.946
 5472POPC   C4B69994  11.995  17.259   7.355
 5473POPC   NC369995  15.683   7.609   5.235
 5473POPC   PO469996  15.906   8.230   5.461
 5473POPC   GL169997  15.939   8.484   5.830
 5473POPC   GL269998  15.630   8.351   6.010
 5473POPC   C1A69999  16.086   8.555   6.224
 5473POPC   D2A70000  15.846   8.378   6.531
 5473POPC   C3A70001  16.025   8.566   6.869
 5473POPC   C4A70002  16.100   8.438   7.262
 5473POPC   C1B70003  16.007   8.055   6.128
 5473POPC   C2B70004  16.293   8.126   6.488
 5473POPC   C3B70005  16.087   8.066   6.872
 5473POPC   C4B70006  16.134   7.927   7.271
 5474POPC   NC370007   9.847  28.858   5.236
 5474POPC   PO470008   9.777  28.204   5.356
 5474POPC   GL170009   9.791  28.442   5.715
 5474POPC   GL270010   9.510  28.688   5.644
 5474POPC   C1A70011   9.765  28.236   6.130
 5474POPC   D2A70012   9.895  28.034   6.526
 5474POPC   C3A70013   9.755  28.215   6.903
 5474POPC   C4A70014   9.362  28.106   7.029
 5474POPC   C1B70015   9.633  28.754   6.093
 5474POPC   C2B70016   9.797  28.603   6.484
 5474POPC   C3B70017   9.662  28.714   6.848
 5474POPC   C4B70018   9.805  28.715   7.199
 5475POPC   NC370019  18.800   8.192   5.433
 5475POPC   PO470020  19.416   8.457   5.329
 5475POPC   GL170021  19.155   8.550   5.715
 5475POPC   GL270022  18.823   8.462   5.859
 5475POPC   C1A70023  19.169   8.631   6.187
 5475POPC   D2A70024  19.433   8.541   6.581
 5475POPC   C3A70025  19.190   8.419   6.962
 5475POPC   C4A70026  19.228   8.058   7.211
 5475POPC   C1B70027  18.707   8.291   6.245
 5475POPC   C2B70028  18.755   8.272   6.707
 5475POPC   C3B70029  18.741   8.069   7.096
 5475POPC   C4B70030  18.764   7.917   7.501
 5476POPC   NC370031  23.208  15.848   5.110
 5476POPC   PO470032  22.723  16.185   5.185
 5476POPC   GL170033  22.796  15.896   5.579
 5476POPC   GL270034  23.068  15.621   5.569
 5476POPC   C1A70035  22.762  15.938   6.058
 5476POPC   D2A70036  22.630  16.003   6.507
 5476POPC   C3A70037  22.792  16.247   6.857
 5476POPC   C4A70038  22.838  16.028   7.241
 5476POPC   C1B70039  23.173  15.612   6.027
 5476POPC   C2B70040  23.120  15.846   6.430
 5476POPC   C3B70041  23.141  15.838   6.866
 5476POPC   C4B70042  23.130  15.589   7.234
 5477POPC   NC370043  11.738  12.019   5.492
 5477POPC   PO470044  12.421  11.892   5.423
 5477POPC   GL170045  12.171  11.989   5.808
 5477POPC   GL270046  11.880  12.178   5.965
 5477POPC   C1A70047  12.312  12.033   6.233
 5477POPC   D2A70048  12.346  11.790   6.606
 5477POPC   C3A70049  12.235  12.019   7.000
 5477POPC   C4A70050  12.493  12.344   7.186
 5477POPC   C1B70051  11.770  11.818   6.212
 5477POPC   C2B70052  11.839  11.896   6.631
 5477POPC   C3B70053  11.729  12.129   6.988
 5477POPC   C4B70054  11.815  12.169   7.432
 5478POPC   NC370055  24.995  27.758   5.430
 5478POPC   PO470056  24.398  27.570   5.571
 5478POPC   GL170057  24.665  27.632   5.893
 5478POPC   GL270058  24.948  27.896   5.901
 5478POPC   C1A70059  24.479  27.511   6.306
 5478POPC   D2A70060  24.156  27.518   6.644
 5478POPC   C3A70061  24.328  27.404   7.054
 5478POPC   C4A70062  24.179  27.161   7.383
 5478POPC   C1B70063  24.717  27.965   6.264
 5478POPC   C2B70064  24.728  27.765   6.681
 5478POPC   C3B70065  24.845  27.939   7.065
 5478POPC   C4B70066  24.769  27.982   7.527
 5479POPC   NC370067  22.044  21.553   5.328
 5479POPC   PO470068  21.654  21.070   5.458
 5479POPC   GL170069  21.966  21.210   5.792
 5479POPC   GL270070  22.081  21.577   5.833
 5479POPC   C1A70071  22.143  21.281   6.227
 5479POPC   D2A70072  21.988  21.496   6.583
 5479POPC   C3A70073  22.156  21.427   6.983
 5479POPC   C4A70074  22.435  21.138   7.150
 5479POPC   C1B70075  22.019  21.847   6.195
 5479POPC   C2B70076  21.694  21.900   6.531
 5479POPC   C3B70077  21.820  21.838   6.966
 5479POPC   C4B70078  22.021  21.686   7.418
 5480POPC   NC370079  16.983  31.619   4.983
 5480POPC   PO470080  16.480  31.563   5.351
 5480POPC   GL170081  16.735  31.495   5.738
 5480POPC   GL270082  16.991  31.217   5.714
 5480POPC   C1A70083  16.642  31.273   6.129
 5480POPC   D2A70084  16.466  31.253   6.525
 5480POPC   C3A70085  16.572  31.562   6.844
 5480POPC   C4A70086  16.488  31.453   7.257
 5480POPC   C1B70087  17.158  31.350   6.106
 5480POPC   C2B70088  16.956  31.529   6.465
 5480POPC   C3B70089  17.089  31.599   6.882
 5480POPC   C4B70090  16.994  31.335   7.243
 5481POPC   NC370091   8.142  37.196   5.403
 5481POPC   PO470092   8.274  36.560   5.122
 5481POPC   GL170093   8.150  36.709   5.640
 5481POPC   GL270094   8.350  36.998   5.819
 5481POPC   C1A70095   8.236  36.631   6.166
 5481POPC   D2A70096   8.584  36.604   6.540
 5481POPC   C3A70097   8.472  36.714   7.007
 5481POPC   C4A70098   8.112  36.873   7.293
 5481POPC   C1B70099   8.170  37.129   6.221
 5481POPC   C2B70100   8.243  36.975   6.614
 5481POPC   C3B70101   8.292  37.204   6.948
 5481POPC   C4B70102   8.693  37.175   7.153
 5482POPC   NC370103  17.348  30.879   5.548
 5482POPC   PO470104  17.939  30.550   5.412
 5482POPC   GL170105  17.721  30.559   5.774
 5482POPC   GL270106  17.749  30.891   5.863
 5482POPC   C1A70107  17.541  30.429   6.172
 5482POPC   D2A70108  17.189  30.450   6.490
 5482POPC   C3A70109  17.404  30.446   6.908
 5482POPC   C4A70110  17.588  30.553   7.297
 5482POPC   C1B70111  17.436  30.915   6.195
 5482POPC   C2B70112  17.507  30.829   6.590
 5482POPC   C3B70113  17.680  30.901   6.954
 5482POPC   C4B70114  17.534  31.091   7.318
 5483POPC   NC370115  12.005  30.098   5.335
 5483POPC   PO470116  12.393  29.612   5.139
 5483POPC   GL170117  12.235  29.769   5.636
 5483POPC   GL270118  12.373  30.080   5.756
 5483POPC   C1A70119  12.054  29.858   6.096
 5483POPC   D2A70120  11.906  29.760   6.534
 5483POPC   C3A70121  12.240  29.592   6.842
 5483POPC   C4A70122  12.100  29.599   7.281
 5483POPC   C1B70123  12.284  30.302   6.137
 5483POPC   C2B70124  12.099  30.235   6.545
 5483POPC   C3B70125  12.046  30.050   6.951
 5483POPC   C4B70126  11.967  30.122   7.363
 5484POPC   NC370127  21.565  20.257   5.660
 5484POPC   PO470128  21.187  20.710   5.277
 5484POPC   GL170129  21.334  20.738   5.732
 5484POPC   GL270130  21.672  20.744   5.821
 5484POPC   C1A70131  21.354  20.577   6.182
 5484POPC   D2A70132  21.037  20.503   6.470
 5484POPC   C3A70133  21.011  20.645   6.869
 5484POPC   C4A70134  21.283  20.519   7.218
 5484POPC   C1B70135  21.748  20.934   6.210
 5484POPC   C2B70136  21.760  20.625   6.522
 5484POPC   C3B70137  21.471  20.408   6.742
 5484POPC   C4B70138  21.707  20.261   7.056
 5485POPC   NC370139  31.566  25.225   5.337
 5485POPC   PO470140  32.072  25.542   5.542
 5485POPC   GL170141  31.792  25.261   5.819
 5485POPC   GL270142  31.454  25.063   5.827
 5485POPC   C1A70143  31.607  25.350   6.237
 5485POPC   D2A70144  31.709  25.625   6.582
 5485POPC   C3A70145  31.687  25.418   6.980
 5485POPC   C4A70146  31.292  25.229   7.087
 5485POPC   C1B70147  31.449  24.836   6.234
 5485POPC   C2B70148  31.578  24.994   6.663
 5485POPC   C3B70149  31.715  24.925   7.107
 5485POPC   C4B70150  31.350  24.783   7.328
 5486POPC   NC370151  11.855  28.263   5.386
 5486POPC   PO470152  12.202  28.799   5.099
 5486POPC   GL170153  12.129  28.608   5.586
 5486POPC   GL270154  12.355  28.384   5.732
 5486POPC   C1A70155  11.941  28.538   6.036
 5486POPC   D2A70156  12.053  28.255   6.415
 5486POPC   C3A70157  12.027  28.475   6.847
 5486POPC   C4A70158  11.927  28.342   7.290
 5486POPC   C1B70159  12.434  28.492   6.164
 5486POPC   C2B70160  12.501  28.385   6.608
 5486POPC   C3B70161  12.365  28.118   6.969
 5486POPC   C4B70162  12.439  28.326   7.380
 5487POPC   NC370163   2.991  21.370   5.208
 5487POPC   PO470164   3.775  21.528   5.331
 5487POPC   GL170165   3.783  21.665   5.765
 5487POPC   GL270166   3.772  21.316   5.817
 5487POPC   C1A70167   3.631  21.612   6.220
 5487POPC   D2A70168   3.386  21.353   6.550
 5487POPC   C3A70169   3.127  21.370   6.943
 5487POPC   C4A70170   3.322  21.497   7.345
 5487POPC   C1B70171   3.576  21.087   6.136
 5487POPC   C2B70172   3.732  20.955   6.539
 5487POPC   C3B70173   3.625  21.108   6.954
 5487POPC   C4B70174   3.843  21.296   7.297
 5488POPC   NC370175   3.041  10.887   5.620
 5488POPC   PO470176   2.523  10.586   5.410
 5488POPC   GL170177   2.613  10.753   5.839
 5488POPC   GL270178   2.353  10.627   5.981
 5488POPC   C1A70179   2.813  10.734   6.247
 5488POPC   D2A70180   3.081  10.563   6.560
 5488POPC   C3A70181   2.911  10.679   6.943
 5488POPC   C4A70182   2.899  11.091   7.108
 5488POPC   C1B70183   2.504  10.276   6.231
 5488POPC   C2B70184   2.629  10.311   6.651
 5488POPC   C3B70185   2.485  10.368   7.075
 5488POPC   C4B70186   2.482  10.282   7.524
 5489POPC   NC370187  39.217  26.134   5.089
 5489POPC   PO470188  39.349  25.536   5.322
 5489POPC   GL170189  39.279  25.899   5.622
 5489POPC   GL270190  39.580  25.831   5.782
 5489POPC   C1A70191  39.056  26.087   6.013
 5489POPC   D2A70192  39.133  26.188   6.474
 5489POPC   C3A70193  38.905  26.062   6.875
 5489POPC   C4A70194  39.079  26.211   7.279
 5489POPC   C1B70195  39.538  26.067   6.135
 5489POPC   C2B70196  39.553  25.909   6.527
 5489POPC   C3B70197  39.426  26.071   6.895
 5489POPC   C4B70198  39.515  25.910   7.278
 5490POPC   NC370199  39.674  26.213   5.499
 5490POPC   PO470200  40.288  25.864   5.424
 5490POPC   GL170201  40.068  26.004   5.804
 5490POPC   GL270202  39.995  26.363   5.878
 5490POPC   C1A70203  40.018  26.015   6.255
 5490POPC   D2A70204  39.958  26.197   6.637
 5490POPC   C3A70205  40.230  26.105   6.943
 5490POPC   C4A70206  40.017  25.858   7.227
 5490POPC   C1B70207  39.773  26.512   6.269
 5490POPC   C2B70208  39.612  26.560   6.723
 5490POPC   C3B70209  39.786  26.340   7.115
 5490POPC   C4B70210  39.976  26.313   7.511
 5491POPC   NC370211  13.089  26.160   5.458
 5491POPC   PO470212  12.508  25.760   5.486
 5491POPC   GL170213  12.763  25.973   5.799
 5491POPC   GL270214  13.135  25.826   5.819
 5491POPC   C1A70215  12.683  26.078   6.216
 5491POPC   D2A70216  12.842  25.930   6.598
 5491POPC   C3A70217  12.611  26.041   6.962
 5491POPC   C4A70218  12.443  25.706   7.174
 5491POPC   C1B70219  13.187  26.055   6.191
 5491POPC   C2B70220  13.160  26.324   6.532
 5491POPC   C3B70221  13.098  26.226   6.935
 5491POPC   C4B70222  12.871  26.381   7.238
 5492POPC   NC370223  28.529  36.334   5.460
 5492POPC   PO470224  28.049  35.892   5.451
 5492POPC   GL170225  28.336  35.968   5.804
 5492POPC   GL270226  28.702  35.933   5.772
 5492POPC   C1A70227  28.345  35.925   6.240
 5492POPC   D2A70228  28.258  36.175   6.552
 5492POPC   C3A70229  28.432  36.199   6.936
 5492POPC   C4A70230  28.183  36.267   7.292
 5492POPC   C1B70231  28.728  36.230   6.112
 5492POPC   C2B70232  28.802  36.313   6.564
 5492POPC   C3B70233  28.828  36.537   6.985
 5492POPC   C4B70234  28.778  36.259   7.328
 5493POPC   NC370235   6.125  26.240   5.436
 5493POPC   PO470236   6.788  25.918   5.505
 5493POPC   GL170237   6.721  26.238   5.794
 5493POPC   GL270238   6.416  26.116   5.885
 5493POPC   C1A70239   6.795  26.261   6.238
 5493POPC   D2A70240   6.672  26.118   6.650
 5493POPC   C3A70241   6.820  26.181   7.085
 5493POPC   C4A70242   6.805  25.871   7.456
 5493POPC   C1B70243   6.259  25.833   6.235
 5493POPC   C2B70244   6.430  25.642   6.592
 5493POPC   C3B70245   6.491  25.801   7.009
 5493POPC   C4B70246   6.359  26.101   7.318
 5494POPC   NC370247  42.931  30.463   5.370
 5494POPC   PO470248  43.351  31.046   5.306
 5494POPC   GL170249  43.048  30.950   5.647
 5494POPC   GL270250  43.132  30.624   5.818
 5494POPC   C1A70251  42.905  31.045   6.098
 5494POPC   D2A70252  42.966  30.884   6.526
 5494POPC   C3A70253  42.976  31.075   6.938
 5494POPC   C4A70254  42.947  30.870   7.291
 5494POPC   C1B70255  43.258  30.526   6.248
 5494POPC   C2B70256  43.063  30.387   6.635
 5494POPC   C3B70257  43.258  30.360   7.043
 5494POPC   C4B70258  43.208  30.461   7.475
 5495POPC   NC370259  14.642  16.042   5.616
 5495POPC   PO470260  14.150  16.453   5.492
 5495POPC   GL170261  14.216  16.087   5.864
 5495POPC   GL270262  14.560  16.108   6.085
 5495POPC   C1A70263  14.207  15.850   6.305
 5495POPC   D2A70264  14.565  16.068   6.574
 5495POPC   C3A70265  14.566  16.039   6.966
 5495POPC   C4A70266  14.192  15.937   7.154
 5495POPC   C1B70267  14.702  15.701   6.251
 5495POPC   C2B70268  14.914  15.669   6.660
 5495POPC   C3B70269  14.797  15.583   7.061
 5495POPC   C4B70270  14.826  15.655   7.495
 5496POPC   NC370271  31.004   7.163   5.317
 5496POPC   PO470272  31.505   7.587   5.358
 5496POPC   GL170273  31.350   7.564   5.763
 5496POPC   GL270274  31.660   7.415   5.853
 5496POPC   C1A70275  31.371   7.630   6.230
 5496POPC   D2A70276  31.163   7.538   6.618
 5496POPC   C3A70277  31.365   7.601   7.004
 5496POPC   C4A70278  31.371   7.369   7.383
 5496POPC   C1B70279  31.879   7.538   6.241
 5496POPC   C2B70280  31.779   7.562   6.672
 5496POPC   C3B70281  31.930   7.291   7.004
 5496POPC   C4B70282  31.760   6.993   7.271
 5497POPC   NC370283  15.401   3.628   5.375
 5497POPC   PO470284  14.931   3.120   5.471
 5497POPC   GL170285  15.216   3.384   5.787
 5497POPC   GL270286  15.321   3.768   5.848
 5497POPC   C1A70287  15.185   3.477   6.257
 5497POPC   D2A70288  14.854   3.694   6.554
 5497POPC   C3A70289  14.832   3.491   6.954
 5497POPC   C4A70290  15.107   3.193   7.172
 5497POPC   C1B70291  15.252   3.968   6.284
 5497POPC   C2B70292  15.299   3.886   6.722
 5497POPC   C3B70293  15.278   3.691   7.128
 5497POPC   C4B70294  15.512   3.739   7.499
 5498POPC   NC370295  23.033  17.670   5.259
 5498POPC   PO470296  22.711  17.093   5.425
 5498POPC   GL170297  22.884  17.289   5.818
 5498POPC   GL270298  23.030  17.622   5.772
 5498POPC   C1A70299  22.830  17.482   6.238
 5498POPC   D2A70300  22.806  17.736   6.593
 5498POPC   C3A70301  22.792  17.551   6.996
 5498POPC   C4A70302  22.976  17.199   7.212
 5498POPC   C1B70303  23.146  17.906   6.121
 5498POPC   C2B70304  23.335  18.069   6.495
 5498POPC   C3B70305  23.200  17.908   6.887
 5498POPC   C4B70306  23.206  17.703   7.272
 5499POPC   NC370307   0.166   5.954   5.550
 5499POPC   PO470308   0.593   5.461   5.347
 5499POPC   GL170309   0.480   5.579   5.827
 5499POPC   GL270310   0.236   5.847   6.017
 5499POPC   C1A70311   0.625   5.723   6.264
 5499POPC   D2A70312   0.429   5.875   6.667
 5499POPC   C3A70313   0.534   5.654   7.053
 5499POPC   C4A70314   0.759   5.862   7.379
 5499POPC   C1B70315   0.012   6.193   6.268
 5499POPC   C2B70316   0.136   6.342   6.683
 5499POPC   C3B70317   0.040   6.161   7.084
 5499POPC   C4B70318   0.259   5.960   7.402
 5500POPC   NC370319  40.453  15.206   5.445
 5500POPC   PO470320  41.138  15.165   5.651
 5500POPC   GL170321  40.778  15.079   5.880
 5500POPC   GL270322  40.718  15.426   5.868
 5500POPC   C1A70323  40.600  15.117   6.296
 5500POPC   D2A70324  40.561  15.340   6.677
 5500POPC   C3A70325  40.424  15.036   6.958
 5500POPC   C4A70326  40.745  14.871   7.207
 5500POPC   C1B70327  40.880  15.592   6.279
 5500POPC   C2B70328  41.057  15.572   6.711
 5500POPC   C3B70329  40.886  15.475   7.114
 5500POPC   C4B70330  40.457  15.421   7.285
 5501POPC   NC370331  11.372  11.372   5.270
 5501POPC   PO470332  10.770  11.154   5.356
 5501POPC   GL170333  11.069  11.254   5.726
 5501POPC   GL270334  11.422  11.237   5.773
 5501POPC   C1A70335  11.093  11.098   6.179
 5501POPC   D2A70336  10.954  11.233   6.587
 5501POPC   C3A70337  11.166  11.135   6.962
 5501POPC   C4A70338  11.287  11.376   7.311
 5501POPC   C1B70339  11.583  11.253   6.192
 5501POPC   C2B70340  11.544  11.056   6.619
 5501POPC   C3B70341  11.690  11.172   7.049
 5501POPC   C4B70342  11.730  11.256   7.518
 5502POPC   NC370343  10.518   9.830   5.369
 5502POPC   PO470344  10.788  10.384   5.432
 5502POPC   GL170345  10.749  10.032   5.761
 5502POPC   GL270346  10.773   9.643   5.784
 5502POPC   C1A70347  10.624  10.009   6.175
 5502POPC   D2A70348  10.782   9.771   6.506
 5502POPC   C3A70349  10.579   9.694   6.898
 5502POPC   C4A70350  10.510   9.863   7.275
 5502POPC   C1B70351  10.543   9.476   6.152
 5502POPC   C2B70352  10.318   9.399   6.550
 5502POPC   C3B70353  10.347   9.240   6.975
 5502POPC   C4B70354  10.401   9.394   7.460
 5503POPC   NC370355   7.204   6.472   5.537
 5503POPC   PO470356   7.834   6.269   5.581
 5503POPC   GL170357   7.563   6.363   5.918
 5503POPC   GL270358   7.494   6.707   5.947
 5503POPC   C1A70359   7.329   6.371   6.334
 5503POPC   D2A70360   7.362   6.311   6.797
 5503POPC   C3A70361   7.416   6.609   7.112
 5503POPC   C4A70362   7.460   6.988   7.392
 5503POPC   C1B70363   7.347   6.880   6.359
 5503POPC   C2B70364   7.090   6.735   6.717
 5503POPC   C3B70365   7.008   6.913   7.140
 5503POPC   C4B70366   6.961   6.825   7.591
 5504POPC   NC370367  41.288  39.831   5.537
 5504POPC   PO470368  40.610  39.970   5.451
 5504POPC   GL170369  40.758  40.141   5.820
 5504POPC   GL270370  40.613  39.814   5.961
 5504POPC   C1A70371  40.953  40.084   6.234
 5504POPC   D2A70372  40.723  39.828   6.543
 5504POPC   C3A70373  40.766  39.992   6.989
 5504POPC   C4A70374  41.035  40.135   7.300
 5504POPC   C1B70375  40.419  40.135   6.219
 5504POPC   C2B70376  40.289  40.049   6.640
 5504POPC   C3B70377  40.308  40.213   7.010
 5504POPC   C4B70378  40.495  40.296   7.355
 5505POPC   NC370379  23.045  18.667   5.328
 5505POPC   PO470380  22.779  18.060   5.334
 5505POPC   GL170381  22.723  18.087   5.775
 5505POPC   GL270382  22.937  18.355   5.882
 5505POPC   C1A70383  22.641  18.045   6.213
 5505POPC   D2A70384  22.846  18.241   6.567
 5505POPC   C3A70385  22.695  18.083   6.962
 5505POPC   C4A70386  22.955  18.158   7.263
 5505POPC   C1B70387  23.227  18.587   6.168
 5505POPC   C2B70388  23.454  18.593   6.576
 5505POPC   C3B70389  23.337  18.402   6.959
 5505POPC   C4B70390  23.249  18.553   7.393
 5506POPC   NC370391  28.524   2.153   5.294
 5506POPC   PO470392  28.246   1.635   5.490
 5506POPC   GL170393  28.173   1.767   5.888
 5506POPC   GL270394  28.173   2.125   5.802
 5506POPC   C1A70395  28.296   1.625   6.311
 5506POPC   D2A70396  28.568   1.720   6.672
 5506POPC   C3A70397  28.526   1.652   7.117
 5506POPC   C4A70398  28.316   1.669   7.511
 5506POPC   C1B70399  28.241   2.159   6.248
 5506POPC   C2B70400  28.114   2.035   6.683
 5506POPC   C3B70401  28.154   2.042   7.149
 5506POPC   C4B70402  28.165   2.268   7.539
 5507POPC   NC370403  12.321  19.770   5.245
 5507POPC   PO470404  12.272  19.061   5.332
 5507POPC   GL170405  12.185  19.096   5.781
 5507POPC   GL270406  12.528  19.144   5.875
 5507POPC   C1A70407  11.927  19.171   6.177
 5507POPC   D2A70408  11.786  19.044   6.586
 5507POPC   C3A70409  11.946  19.225   6.995
 5507POPC   C4A70410  12.042  19.298   7.456
 5507POPC   C1B70411  12.405  19.036   6.299
 5507POPC   C2B70412  12.479  19.063   6.740
 5507POPC   C3B70413  12.389  19.040   7.171
 5507POPC   C4B70414  12.587  19.181   7.546
 5508POPC   NC370415  33.107  21.792   5.472
 5508POPC   PO470416  32.735  22.358   5.423
 5508POPC   GL170417  32.803  22.084   5.773
 5508POPC   GL270418  33.175  22.182   5.817
 5508POPC   C1A70419  32.838  22.024   6.220
 5508POPC   D2A70420  32.808  22.280   6.574
 5508POPC   C3A70421  32.961  22.218   6.998
 5508POPC   C4A70422  32.833  22.525   7.301
 5508POPC   C1B70423  33.399  22.077   6.193
 5508POPC   C2B70424  33.259  22.014   6.604
 5508POPC   C3B70425  33.405  21.914   7.001
 5508POPC   C4B70426  33.415  22.090   7.401
 5509POPC   NC370427   7.328  22.493   5.371
 5509POPC   PO470428   7.554  21.858   5.460
 5509POPC   GL170429   7.627  22.071   5.841
 5509POPC   GL270430   7.607  22.386   5.772
 5509POPC   C1A70431   7.785  22.267   6.231
 5509POPC   D2A70432   7.515  22.283   6.563
 5509POPC   C3A70433   7.706  22.117   6.927
 5509POPC   C4A70434   7.533  21.886   7.272
 5509POPC   C1B70435   7.259  22.338   6.079
 5509POPC   C2B70436   7.092  22.566   6.416
 5509POPC   C3B70437   7.102  22.468   6.840
 5509POPC   C4B70438   7.318  22.332   7.197
 5510POPC   NC370439  31.373  39.240   4.930
 5510POPC   PO470440  31.645  39.250   5.515
 5510POPC   GL170441  31.616  39.120   5.915
 5510POPC   GL270442  31.354  39.301   6.049
 5510POPC   C1A70443  31.560  38.949   6.347
 5510POPC   D2A70444  31.246  39.045   6.671
 5510POPC   C3A70445  31.442  39.105   7.100
 5510POPC   C4A70446  31.835  39.066   7.321
 5510POPC   C1B70447  31.773  39.413   6.299
 5510POPC   C2B70448  31.731  39.345   6.730
 5510POPC   C3B70449  31.653  39.584   7.094
 5510POPC   C4B70450  31.591  39.613   7.507
 5511POPC   NC370451  41.349  42.408   5.373
 5511POPC   PO470452  41.870  42.043   5.353
 5511POPC   GL170453  41.640  42.196   5.748
 5511POPC   GL270454  41.551  42.551   5.808
 5511POPC   C1A70455  41.456  42.228   6.176
 5511POPC   D2A70456  41.486  42.073   6.572
 5511POPC   C3A70457  41.402  42.329   6.932
 5511POPC   C4A70458  41.330  42.262   7.381
 5511POPC   C1B70459  41.586  42.760   6.176
 5511POPC   C2B70460  41.677  42.610   6.548
 5511POPC   C3B70461  41.799  42.793   6.892
 5511POPC   C4B70462  41.576  42.707   7.244
 5512POPC   NC370463  11.785  29.127   5.523
 5512POPC   PO470464  11.095  29.455   5.452
 5512POPC   GL170465  11.186  29.181   5.814
 5512POPC   GL270466  11.188  28.817   5.719
 5512POPC   C1A70467  11.037  29.089   6.252
 5512POPC   D2A70468  10.986  29.071   6.708
 5512POPC   C3A70469  11.308  29.196   7.005
 5512POPC   C4A70470  11.264  29.463   7.378
 5512POPC   C1B70471  11.417  28.735   6.128
 5512POPC   C2B70472  11.426  28.877   6.579
 5512POPC   C3B70473  11.603  28.767   7.007
 5512POPC   C4B70474  11.421  28.858   7.426
 5513POPC   NC370475  31.325   9.978   5.186
 5513POPC   PO470476  31.918   9.777   5.340
 5513POPC   GL170477  31.686   9.917   5.703
 5513POPC   GL270478  31.350   9.873   5.701
 5513POPC   C1A70479  31.651   9.761   6.144
 5513POPC   D2A70480  31.373   9.519   6.441
 5513POPC   C3A70481  31.540   9.580   6.857
 5513POPC   C4A70482  31.465   9.768   7.261
 5513POPC   C1B70483  31.250  10.061   6.118
 5513POPC   C2B70484  31.213   9.983   6.544
 5513POPC   C3B70485  31.273  10.120   6.950
 5513POPC   C4B70486  31.150  10.158   7.384
 5514POPC   NC370487  16.000   2.199   5.360
 5514POPC   PO470488  16.106   1.608   5.462
 5514POPC   GL170489  16.119   2.004   5.804
 5514POPC   GL270490  16.332   2.312   5.820
 5514POPC   C1A70491  15.936   2.194   6.203
 5514POPC   D2A70492  15.965   1.964   6.613
 5514POPC   C3A70493  15.826   2.108   7.021
 5514POPC   C4A70494  15.539   1.912   7.334
 5514POPC   C1B70495  16.428   2.287   6.279
 5514POPC   C2B70496  16.205   2.402   6.668
 5514POPC   C3B70497  16.326   2.262   7.093
 5514POPC   C4B70498  16.712   2.173   7.301
 5515POPC   NC370499  41.428   9.972   5.487
 5515POPC   PO470500  41.930   9.503   5.411
 5515POPC   GL170501  41.947   9.635   5.831
 5515POPC   GL270502  41.827   9.964   5.800
 5515POPC   C1A70503  41.669   9.466   6.178
 5515POPC   D2A70504  41.308   9.661   6.420
 5515POPC   C3A70505  41.475   9.740   6.813
 5515POPC   C4A70506  41.638   9.418   7.067
 5515POPC   C1B70507  41.638   9.973   6.177
 5515POPC   C2B70508  41.848  10.030   6.566
 5515POPC   C3B70509  41.734  10.179   6.972
 5515POPC   C4B70510  41.456   9.938   7.284
 5516POPC   NC370511  40.246  16.641   5.253
 5516POPC   PO470512  39.825  17.113   5.275
 5516POPC   GL170513  39.915  16.866   5.675
 5516POPC   GL270514  40.298  16.835   5.732
 5516POPC   C1A70515  39.786  16.787   6.133
 5516POPC   D2A70516  39.887  16.923   6.573
 5516POPC   C3A70517  39.661  16.860   6.974
 5516POPC   C4A70518  39.696  16.512   7.281
 5516POPC   C1B70519  40.247  16.521   6.052
 5516POPC   C2B70520  40.296  16.577   6.497
 5516POPC   C3B70521  40.104  16.581   6.897
 5516POPC   C4B70522  40.110  16.837   7.272
 5517POPC   NC370523  36.628  38.083   5.140
 5517POPC   PO470524  37.009  37.575   5.376
 5517POPC   GL170525  36.964  37.831   5.755
 5517POPC   GL270526  37.106  37.575   5.922
 5517POPC   C1A70527  36.924  37.918   6.245
 5517POPC   D2A70528  37.006  37.810   6.722
 5517POPC   C3A70529  36.718  37.910   7.085
 5517POPC   C4A70530  36.799  37.860   7.536
 5517POPC   C1B70531  36.735  37.443   6.164
 5517POPC   C2B70532  36.744  37.374   6.612
 5517POPC   C3B70533  36.847  37.402   7.069
 5517POPC   C4B70534  36.891  37.313   7.537
 5518POPC   NC370535  26.002  29.379   5.400
 5518POPC   PO470536  25.877  28.766   5.391
 5518POPC   GL170537  25.875  29.012   5.767
 5518POPC   GL270538  26.216  29.137   5.788
 5518POPC   C1A70539  25.898  29.143   6.213
 5518POPC   D2A70540  25.760  29.327   6.608
 5518POPC   C3A70541  25.948  29.055   6.896
 5518POPC   C4A70542  26.128  28.802   7.195
 5518POPC   C1B70543  26.277  29.483   6.124
 5518POPC   C2B70544  26.136  29.726   6.491
 5518POPC   C3B70545  26.144  29.552   6.898
 5518POPC   C4B70546  26.214  29.307   7.242
 5519POPC   NC370547   2.958   8.452   5.312
 5519POPC   PO470548   2.517   7.887   5.242
 5519POPC   GL170549   2.577   8.147   5.674
 5519POPC   GL270550   2.922   8.288   5.804
 5519POPC   C1A70551   2.579   8.021   6.122
 5519POPC   D2A70552   2.895   8.126   6.438
 5519POPC   C3A70553   2.971   8.001   6.863
 5519POPC   C4A70554   2.777   8.106   7.233
 5519POPC   C1B70555   2.672   8.508   6.119
 5519POPC   C2B70556   2.439   8.383   6.495
 5519POPC   C3B70557   2.650   8.448   6.858
 5519POPC   C4B70558   2.574   8.643   7.230
 5520POPC   NC370559  25.549  36.418   5.424
 5520POPC   PO470560  25.168  35.881   5.294
 5520POPC   GL170561  25.116  35.844   5.735
 5520POPC   GL270562  25.196  36.186   5.748
 5520POPC   C1A70563  25.025  35.873   6.193
 5520POPC   D2A70564  24.933  36.094   6.596
 5520POPC   C3A70565  24.979  36.038   7.049
 5520POPC   C4A70566  25.049  36.391   7.335
 5520POPC   C1B70567  25.532  36.053   6.019
 5520POPC   C2B70568  25.579  36.219   6.425
 5520POPC   C3B70569  25.439  36.111   6.823
 5520POPC   C4B70570  25.491  36.094   7.244
 5521POPC   NC370571  10.827  10.786   5.649
 5521POPC   PO470572  10.263  10.463   5.387
 5521POPC   GL170573  10.348  10.691   5.829
 5521POPC   GL270574  10.558  10.455   5.922
 5521POPC   C1A70575  10.677  10.748   6.298
 5521POPC   D2A70576  11.039  10.736   6.631
 5521POPC   C3A70577  10.950  10.631   7.088
 5521POPC   C4A70578  10.654  10.625   7.446
 5521POPC   C1B70579  10.283  10.418   6.282
 5521POPC   C2B70580  10.286  10.515   6.728
 5521POPC   C3B70581  10.441  10.347   7.082
 5521POPC   C4B70582  10.291  10.273   7.503
 5522POPC   NC370583  31.541  43.198   5.105
 5522POPC   PO470584  31.871  42.824   5.528
 5522POPC   GL170585  31.719  42.937   5.923
 5522POPC   GL270586  31.615  43.247   5.871
 5522POPC   C1A70587  31.570  43.064   6.355
 5522POPC   D2A70588  31.219  43.240   6.618
 5522POPC   C3A70589  31.315  43.180   7.041
 5522POPC   C4A70590  31.587  42.866   7.196
 5522POPC   C1B70591  31.814  43.499   6.237
 5522POPC   C2B70592  31.815  43.387   6.688
 5522POPC   C3B70593  31.715  43.585   7.078
 5522POPC   C4B70594  31.715  43.542   7.562
 5523POPC   NC370595  42.200  32.557   5.253
 5523POPC   PO470596  42.115  32.017   5.640
 5523POPC   GL170597  42.023  32.331   5.886
 5523POPC   GL270598  42.318  32.522   5.742
 5523POPC   C1A70599  41.985  32.263   6.338
 5523POPC   D2A70600  42.364  32.073   6.473
 5523POPC   C3A70601  42.419  32.114   6.892
 5523POPC   C4A70602  42.136  32.421   7.077
 5523POPC   C1B70603  42.464  32.487   6.143
 5523POPC   C2B70604  42.356  32.576   6.557
 5523POPC   C3B70605  42.616  32.729   6.838
 5523POPC   C4B70606  42.662  32.468   7.175
 5524POPC   NC370607  31.192  14.373   5.249
 5524POPC   PO470608  31.860  14.342   5.372
 5524POPC   GL170609  31.604  14.359   5.794
 5524POPC   GL270610  31.271  14.423   5.742
 5524POPC   C1A70611  31.468  14.509   6.222
 5524POPC   D2A70612  31.562  14.435   6.651
 5524POPC   C3A70613  31.429  14.194   6.992
 5524POPC   C4A70614  31.503  14.496   7.293
 5524POPC   C1B70615  30.976  14.461   6.072
 5524POPC   C2B70616  31.009  14.606   6.516
 5524POPC   C3B70617  31.179  14.670   6.941
 5524POPC   C4B70618  31.060  14.725   7.370
 5525POPC   NC370619  42.009  26.850   5.454
 5525POPC   PO470620  42.668  27.097   5.517
 5525POPC   GL170621  42.369  26.874   5.841
 5525POPC   GL270622  42.061  26.653   5.929
 5525POPC   C1A70623  42.296  26.931   6.290
 5525POPC   D2A70624  42.378  27.121   6.691
 5525POPC   C3A70625  42.248  26.927   7.072
 5525POPC   C4A70626  42.292  26.876   7.553
 5525POPC   C1B70627  42.182  26.416   6.321
 5525POPC   C2B70628  42.253  26.477   6.789
 5525POPC   C3B70629  42.369  26.474   7.249
 5525POPC   C4B70630  42.289  26.410   7.751
 5526POPC   NC370631  37.527   9.254   5.458
 5526POPC   PO470632  37.994   8.788   5.409
 5526POPC   GL170633  37.926   8.937   5.813
 5526POPC   GL270634  37.588   8.880   5.845
 5526POPC   C1A70635  38.153   8.864   6.196
 5526POPC   D2A70636  38.106   8.663   6.595
 5526POPC   C3A70637  37.835   8.908   6.842
 5526POPC   C4A70638  37.885   9.096   7.217
 5526POPC   C1B70639  37.623   8.995   6.294
 5526POPC   C2B70640  37.594   9.341   6.571
 5526POPC   C3B70641  37.464   9.271   6.992
 5526POPC   C4B70642  37.451   8.854   7.209
 5527POPC   NC370643   3.922  35.327   5.275
 5527POPC   PO470644   3.296  35.602   5.529
 5527POPC   GL170645   3.457  35.548   5.931
 5527POPC   GL270646   3.738  35.378   5.801
 5527POPC   C1A70647   3.483  35.507   6.405
 5527POPC   D2A70648   3.187  35.549   6.713
 5527POPC   C3A70649   3.366  35.732   7.037
 5527POPC   C4A70650   3.655  35.565   7.285
 5527POPC   C1B70651   3.540  35.088   6.131
 5527POPC   C2B70652   3.471  34.974   6.549
 5527POPC   C3B70653   3.474  35.187   6.962
 5527POPC   C4B70654   3.419  35.069   7.412
 5528POPC   NC370655  12.815  21.403   5.376
 5528POPC   PO470656  13.154  20.791   5.477
 5528POPC   GL170657  13.035  21.188   5.833
 5528POPC   GL270658  12.906  21.585   5.836
 5528POPC   C1A70659  12.966  21.405   6.295
 5528POPC   D2A70660  13.146  21.374   6.727
 5528POPC   C3A70661  12.913  21.263   7.098
 5528POPC   C4A70662  12.961  21.326   7.556
 5528POPC   C1B70663  12.618  21.788   6.117
 5528POPC   C2B70664  12.569  21.675   6.541
 5528POPC   C3B70665  12.693  21.777   6.936
 5528POPC   C4B70666  12.705  21.690   7.352
 5529POPC   NC370667  42.633   7.199   5.393
 5529POPC   PO470668  42.147   7.520   5.226
 5529POPC   GL170669  42.186   7.446   5.708
 5529POPC   GL270670  42.266   7.071   5.743
 5529POPC   C1A70671  42.220   7.663   6.155
 5529POPC   D2A70672  42.471   7.857   6.506
 5529POPC   C3A70673  42.646   7.570   6.832
 5529POPC   C4A70674  42.505   7.535   7.275
 5529POPC   C1B70675  42.420   7.204   6.162
 5529POPC   C2B70676  42.271   7.306   6.581
 5529POPC   C3B70677  42.412   7.109   6.981
 5529POPC   C4B70678  42.491   7.028   7.448
 5530POPC   NC370679   6.701  27.020   5.191
 5530POPC   PO470680   6.149  26.711   5.455
 5530POPC   GL170681   6.449  26.691   5.744
 5530POPC   GL270682   6.460  27.053   5.778
 5530POPC   C1A70683   6.593  26.740   6.166
 5530POPC   D2A70684   6.679  26.640   6.584
 5530POPC   C3A70685   6.987  26.854   6.827
 5530POPC   C4A70686   6.882  26.684   7.197
 5530POPC   C1B70687   6.298  27.174   6.196
 5530POPC   C2B70688   6.253  26.974   6.599
 5530POPC   C3B70689   6.503  26.985   6.965
 5530POPC   C4B70690   6.478  27.147   7.377
 5531POPC   NC370691  44.580  10.639   5.304
 5531POPC   PO470692  43.947  10.611   5.146
 5531POPC   GL170693  44.107  10.470   5.607
 5531POPC   GL270694  43.833  10.359   5.822
 5531POPC   C1A70695  44.185  10.593   6.088
 5531POPC   D2A70696  43.956  10.871   6.389
 5531POPC   C3A70697  43.903  10.784   6.824
 5531POPC   C4A70698  44.085  10.486   7.103
 5531POPC   C1B70699  43.615  10.540   6.167
 5531POPC   C2B70700  43.591  10.410   6.569
 5531POPC   C3B70701  43.593  10.402   6.994
 5531POPC   C4B70702  43.505  10.724   7.261
 5532POPC   NC370703  41.018  38.897   5.305
 5532POPC   PO470704  40.796  38.219   5.427
 5532POPC   GL170705  40.847  38.471   5.785
 5532POPC   GL270706  41.172  38.623   5.759
 5532POPC   C1A70707  40.689  38.431   6.223
 5532POPC   D2A70708  40.687  38.636   6.648
 5532POPC   C3A70709  40.653  38.418   7.066
 5532POPC   C4A70710  40.518  38.368   7.515
 5532POPC   C1B70711  41.203  38.349   6.151
 5532POPC   C2B70712  41.255  38.108   6.533
 5532POPC   C3B70713  41.172  38.216   6.944
 5532POPC   C4B70714  41.114  38.625   7.092
 5533POPC   NC370715  24.769  16.757   5.359
 5533POPC   PO470716  24.174  16.485   5.312
 5533POPC   GL170717  24.389  16.723   5.723
 5533POPC   GL270718  24.653  17.048   5.757
 5533POPC   C1A70719  24.161  16.816   6.128
 5533POPC   D2A70720  24.077  16.956   6.538
 5533POPC   C3A70721  24.341  16.896   6.897
 5533POPC   C4A70722  24.278  16.683   7.280
 5533POPC   C1B70723  24.665  16.868   6.157
 5533POPC   C2B70724  24.756  16.856   6.585
 5533POPC   C3B70725  24.848  17.066   6.959
 5533POPC   C4B70726  24.684  16.968   7.359
 5534POPC   NC370727  27.594  17.433   4.916
 5534POPC   PO470728  27.854  17.639   5.364
 5534POPC   GL170729  27.884  17.416   5.786
 5534POPC   GL270730  27.746  17.069   5.755
 5534POPC   C1A70731  27.840  17.522   6.272
 5534POPC   D2A70732  27.548  17.563   6.651
 5534POPC   C3A70733  27.639  17.394   7.098
 5534POPC   C4A70734  27.395  17.383   7.509
 5534POPC   C1B70735  27.564  17.099   6.197
 5534POPC   C2B70736  27.560  17.035   6.669
 5534POPC   C3B70737  27.569  16.880   7.128
 5534POPC   C4B70738  27.931  16.962   7.417
 5535POPC   NC370739  37.924  13.231   5.433
 5535POPC   PO470740  37.532  12.779   5.242
 5535POPC   GL170741  37.588  12.905   5.729
 5535POPC   GL270742  37.943  12.931   5.847
 5535POPC   C1A70743  37.683  12.686   6.178
 5535POPC   D2A70744  37.773  12.775   6.590
 5535POPC   C3A70745  37.599  12.531   6.925
 5535POPC   C4A70746  37.512  12.725   7.318
 5535POPC   C1B70747  38.072  13.176   6.239
 5535POPC   C2B70748  38.200  13.054   6.680
 5535POPC   C3B70749  37.954  12.916   7.069
 5535POPC   C4B70750  37.943  12.933   7.528
 5536POPC   NC370751  11.515  40.034   5.592
 5536POPC   PO470752  11.039  39.558   5.403
 5536POPC   GL170753  11.069  39.819   5.805
 5536POPC   GL270754  10.985  40.190   5.866
 5536POPC   C1A70755  11.312  39.930   6.196
 5536POPC   D2A70756  11.544  39.687   6.514
 5536POPC   C3A70757  11.595  39.834   6.957
 5536POPC   C4A70758  11.355  39.818   7.368
 5536POPC   C1B70759  11.078  40.366   6.295
 5536POPC   C2B70760  11.396  40.219   6.620
 5536POPC   C3B70761  11.198  40.161   6.985
 5536POPC   C4B70762  10.815  40.332   7.120
 5537POPC   NC370763   3.931  30.137   5.458
 5537POPC   PO470764   3.310  29.836   5.438
 5537POPC   GL170765   3.583  29.915   5.803
 5537POPC   GL270766   3.746  29.596   5.827
 5537POPC   C1A70767   3.563  30.067   6.245
 5537POPC   D2A70768   3.395  30.180   6.645
 5537POPC   C3A70769   3.693  30.298   6.981
 5537POPC   C4A70770   3.599  30.257   7.410
 5537POPC   C1B70771   3.696  29.519   6.277
 5537POPC   C2B70772   3.645  29.714   6.696
 5537POPC   C3B70773   3.766  29.817   7.125
 5537POPC   C4B70774   3.833  29.817   7.595
 5538POPC   NC370775  42.496  39.276   5.338
 5538POPC   PO470776  41.900  39.621   5.393
 5538POPC   GL170777  42.113  39.331   5.690
 5538POPC   GL270778  42.125  38.969   5.635
 5538POPC   C1A70779  42.394  39.318   6.036
 5538POPC   D2A70780  42.456  39.501   6.435
 5538POPC   C3A70781  42.429  39.437   6.876
 5538POPC   C4A70782  42.286  39.647   7.243
 5538POPC   C1B70783  42.048  38.935   6.067
 5538POPC   C2B70784  42.284  39.005   6.447
 5538POPC   C3B70785  42.295  38.919   6.872
 5538POPC   C4B70786  42.134  39.133   7.238
 5539POPC   NC370787   1.616  23.572   5.390
 5539POPC   PO470788   2.064  24.008   5.518
 5539POPC   GL170789   2.032  23.782   5.889
 5539POPC   GL270790   1.877  23.430   5.836
 5539POPC   C1A70791   2.137  23.922   6.306
 5539POPC   D2A70792   2.247  24.117   6.687
 5539POPC   C3A70793   2.017  24.025   7.052
 5539POPC   C4A70794   2.049  23.848   7.447
 5539POPC   C1B70795   1.706  23.603   6.246
 5539POPC   C2B70796   1.794  23.717   6.683
 5539POPC   C3B70797   1.846  23.530   7.107
 5539POPC   C4B70798   1.753  23.475   7.595
 5540POPC   NC370799  38.120  39.854   5.500
 5540POPC   PO470800  38.573  40.112   4.978
 5540POPC   GL170801  38.584  40.159   5.513
 5540POPC   GL270802  38.928  40.216   5.637
 5540POPC   C1A70803  38.542  40.047   6.034
 5540POPC   D2A70804  38.474  39.954   6.534
 5540POPC   C3A70805  38.469  39.669   6.917
 5540POPC   C4A70806  38.361  39.820   7.341
 5540POPC   C1B70807  38.992  40.289   6.076
 5540POPC   C2B70808  38.917  40.202   6.532
 5540POPC   C3B70809  38.851  40.056   6.982
 5540POPC   C4B70810  38.933  40.327   7.378
 5541POPC   NC370811  35.977  14.146   5.357
 5541POPC   PO470812  36.455  14.517   5.466
 5541POPC   GL170813  36.209  14.485   5.866
 5541POPC   GL270814  35.891  14.314   5.818
 5541POPC   C1A70815  35.914  14.591   6.246
 5541POPC   D2A70816  35.855  14.675   6.703
 5541POPC   C3A70817  36.076  14.369   7.012
 5541POPC   C4A70818  36.258  14.298   7.466
 5541POPC   C1B70819  36.056  14.084   6.175
 5541POPC   C2B70820  35.827  14.137   6.554
 5541POPC   C3B70821  35.665  14.027   6.945
 5541POPC   C4B70822  35.957  13.941   7.270
 5542POPC   NC370823  26.363  26.811   5.599
 5542POPC   PO470824  26.048  27.145   5.130
 5542POPC   GL170825  25.843  27.158   5.619
 5542POPC   GL270826  25.992  26.951   5.873
 5542POPC   C1A70827  25.704  27.198   6.159
 5542POPC   D2A70828  25.805  26.902   6.539
 5542POPC   C3A70829  25.753  26.770   6.990
 5542POPC   C4A70830  25.643  26.975   7.373
 5542POPC   C1B70831  26.056  26.626   6.201
 5542POPC   C2B70832  26.285  26.651   6.610
 5542POPC   C3B70833  26.426  26.485   6.996
 5542POPC   C4B70834  26.058  26.296   7.203
 5543POPC   NC370835   3.568  38.223   5.218
 5543POPC   PO470836   3.048  38.605   5.356
 5543POPC   GL170837   3.387  38.532   5.664
 5543POPC   GL270838   3.456  38.172   5.747
 5543POPC   C1A70839   3.503  38.668   6.103
 5543POPC   D2A70840   3.393  38.491   6.507
 5543POPC   C3A70841   3.608  38.586   6.894
 5543POPC   C4A70842   3.392  38.584   7.289
 5543POPC   C1B70843   3.619  38.149   6.192
 5543POPC   C2B70844   3.700  38.105   6.649
 5543POPC   C3B70845   3.492  38.128   7.063
 5543POPC   C4B70846   3.558  38.150   7.513
 5544POPC   NC370847  11.353  22.071   5.102
 5544POPC   PO470848  11.089  22.605   5.364
 5544POPC   GL170849  11.067  22.281   5.691
 5544POPC   GL270850  11.332  22.012   5.665
 5544POPC   C1A70851  11.108  22.184   6.144
 5544POPC   D2A70852  11.095  21.871   6.482
 5544POPC   C3A70853  11.049  22.143   6.799
 5544POPC   C4A70854  11.210  22.415   7.104
 5544POPC   C1B70855  11.419  21.778   6.065
 5544POPC   C2B70856  11.624  21.767   6.491
 5544POPC   C3B70857  11.550  22.011   6.879
 5544POPC   C4B70858  11.331  21.937   7.287
 5545POPC   NC370859  13.936  19.858   5.309
 5545POPC   PO470860  14.571  20.106   5.305
 5545POPC   GL170861  14.456  19.777   5.649
 5545POPC   GL270862  14.093  19.728   5.786
 5545POPC   C1A70863  14.513  19.650   6.082
 5545POPC   D2A70864  14.361  19.799   6.455
 5545POPC   C3A70865  14.298  19.679   6.863
 5545POPC   C4A70866  14.461  19.984   7.164
 5545POPC   C1B70867  14.216  20.092   6.022
 5545POPC   C2B70868  14.107  20.239   6.435
 5545POPC   C3B70869  14.090  20.145   6.858
 5545POPC   C4B70870  14.078  20.329   7.282
 5546POPC   NC370871  20.910   5.047   5.110
 5546POPC   PO470872  20.333   5.012   5.510
 5546POPC   GL170873  20.476   5.258   5.861
 5546POPC   GL270874  20.820   5.169   5.863
 5546POPC   C1A70875  20.616   5.330   6.309
 5546POPC   D2A70876  20.516   5.134   6.715
 5546POPC   C3A70877  20.704   5.303   7.111
 5546POPC   C4A70878  20.583   5.152   7.539
 5546POPC   C1B70879  20.831   4.851   6.270
 5546POPC   C2B70880  20.866   4.735   6.729
 5546POPC   C3B70881  21.104   4.811   7.130
 5546POPC   C4B70882  21.091   5.150   7.468
 5547POPC   NC370883  34.928  41.394   5.274
 5547POPC   PO470884  34.365  41.347   5.637
 5547POPC   GL170885  34.575  41.429   5.918
 5547POPC   GL270886  34.779  41.670   5.812
 5547POPC   C1A70887  34.449  41.391   6.305
 5547POPC   D2A70888  34.578  41.196   6.661
 5547POPC   C3A70889  34.396  41.359   7.025
 5547POPC   C4A70890  34.521  41.533   7.419
 5547POPC   C1B70891  34.663  41.852   6.198
 5547POPC   C2B70892  34.427  41.824   6.578
 5547POPC   C3B70893  34.570  41.833   6.979
 5547POPC   C4B70894  34.400  42.022   7.309
 5548POPC   NC370895   5.773  22.908   5.078
 5548POPC   PO470896   5.228  23.047   5.414
 5548POPC   GL170897   4.977  22.915   5.739
 5548POPC   GL270898   5.109  23.154   5.924
 5548POPC   C1A70899   4.821  22.842   6.178
 5548POPC   D2A70900   4.900  23.101   6.537
 5548POPC   C3A70901   4.815  23.068   6.983
 5548POPC   C4A70902   4.923  22.825   7.313
 5548POPC   C1B70903   5.314  22.794   6.141
 5548POPC   C2B70904   5.253  22.694   6.555
 5548POPC   C3B70905   5.298  22.885   6.925
 5548POPC   C4B70906   5.433  22.684   7.278
 5549POPC   NC370907   8.501  34.296   5.374
 5549POPC   PO470908   7.933  34.775   5.360
 5549POPC   GL170909   8.183  34.798   5.735
 5549POPC   GL270910   8.169  34.439   5.865
 5549POPC   C1A70911   8.204  34.828   6.199
 5549POPC   D2A70912   8.281  34.644   6.616
 5549POPC   C3A70913   8.114  34.880   6.948
 5549POPC   C4A70914   8.067  34.880   7.349
 5549POPC   C1B70915   8.000  34.346   6.301
 5549POPC   C2B70916   8.029  34.224   6.755
 5549POPC   C3B70917   8.111  34.369   7.189
 5549POPC   C4B70918   7.939  34.193   7.581
 5550POPC   NC370919   5.082   6.794   5.361
 5550POPC   PO470920   4.693   6.349   5.399
 5550POPC   GL170921   4.840   6.628   5.763
 5550POPC   GL270922   5.245   6.591   5.788
 5550POPC   C1A70923   4.981   6.716   6.180
 5550POPC   D2A70924   5.222   6.651   6.523
 5550POPC   C3A70925   5.121   6.717   6.935
 5550POPC   C4A70926   5.066   6.701   7.363
 5550POPC   C1B70927   5.457   6.387   6.130
 5550POPC   C2B70928   5.681   6.448   6.522
 5550POPC   C3B70929   5.453   6.313   6.871
 5550POPC   C4B70930   5.599   6.257   7.266
 5551POPC   NC370931  17.112   2.265   5.451
 5551POPC   PO470932  17.701   1.958   5.189
 5551POPC   GL170933  17.723   1.916   5.681
 5551POPC   GL270934  17.435   2.089   5.844
 5551POPC   C1A70935  17.903   2.018   6.097
 5551POPC   D2A70936  17.946   2.199   6.544
 5551POPC   C3A70937  17.776   2.063   6.941
 5551POPC   C4A70938  17.654   1.696   7.118
 5551POPC   C1B70939  17.454   2.082   6.320
 5551POPC   C2B70940  17.380   1.829   6.707
 5551POPC   C3B70941  17.169   1.887   7.149
 5551POPC   C4B70942  16.983   1.831   7.591
 5552POPC   NC370943  19.010  29.431   5.154
 5552POPC   PO470944  18.997  28.801   5.207
 5552POPC   GL170945  19.113  29.007   5.599
 5552POPC   GL270946  18.808  29.169   5.642
 5552POPC   C1A70947  19.128  29.188   6.047
 5552POPC   D2A70948  18.892  29.344   6.406
 5552POPC   C3A70949  19.163  29.368   6.784
 5552POPC   C4A70950  19.218  29.191   7.171
 5552POPC   C1B70951  18.787  28.821   5.977
 5552POPC   C2B70952  18.833  28.831   6.429
 5552POPC   C3B70953  18.720  29.093   6.820
 5552POPC   C4B70954  18.776  28.992   7.273
 5553POPC   NC370955  16.489  40.525   5.514
 5553POPC   PO470956  16.825  41.114   5.397
 5553POPC   GL170957  16.875  40.845   5.729
 5553POPC   GL270958  16.557  40.969   5.838
 5553POPC   C1A70959  17.000  40.713   6.139
 5553POPC   D2A70960  16.773  40.614   6.522
 5553POPC   C3A70961  17.011  40.760   6.870
 5553POPC   C4A70962  17.002  40.586   7.268
 5553POPC   C1B70963  16.467  40.929   6.263
 5553POPC   C2B70964  16.564  41.035   6.711
 5553POPC   C3B70965  16.554  40.870   7.138
 5553POPC   C4B70966  16.321  40.899   7.546
 5554POPC   NC370967   6.853   1.749   5.157
 5554POPC   PO470968   6.481   1.288   5.528
 5554POPC   GL170969   6.764   1.270   5.869
 5554POPC   GL270970   6.850   0.949   6.017
 5554POPC   C1A70971   6.697   1.425   6.280
 5554POPC   D2A70972   6.527   1.542   6.689
 5554POPC   C3A70973   6.695   1.291   7.005
 5554POPC   C4A70974   6.875   1.062   7.320
 5554POPC   C1B70975   6.417   1.008   6.132
 5554POPC   C2B70976   6.267   1.136   6.509
 5554POPC   C3B70977   6.208   1.155   6.946
 5554POPC   C4B70978   6.075   0.825   7.240
 5555POPC   NC370979  37.504   4.913   5.416
 5555POPC   PO470980  37.173   5.315   5.024
 5555POPC   GL170981  37.277   5.366   5.528
 5555POPC   GL270982  37.127   5.092   5.739
 5555POPC   C1A70983  37.500   5.321   6.006
 5555POPC   D2A70984  37.592   5.130   6.476
 5555POPC   C3A70985  37.765   5.273   6.918
 5555POPC   C4A70986  37.928   5.495   7.305
 5555POPC   C1B70987  37.195   4.932   6.183
 5555POPC   C2B70988  37.126   4.950   6.650
 5555POPC   C3B70989  37.275   5.138   7.063
 5555POPC   C4B70990  37.599   5.060   7.386
 5556POPC   NC370991  43.960  22.686   5.505
 5556POPC   PO470992  43.937  23.324   5.231
 5556POPC   GL170993  43.938  23.169   5.701
 5556POPC   GL270994  43.580  23.166   5.794
 5556POPC   C1A70995  44.045  22.910   6.118
 5556POPC   D2A70996  43.957  22.660   6.519
 5556POPC   C3A70997  44.094  22.824   6.929
 5556POPC   C4A70998  43.937  22.740   7.328
 5556POPC   C1B70999  43.753  23.301   6.206
 5556POPC   C2B71000  43.939  23.174   6.594
 5556POPC   C3B71001  43.863  23.258   7.048
 5556POPC   C4B71002  43.882  23.201   7.525
 5557POPC   NC371003  12.978   7.443   5.328
 5557POPC   PO471004  12.853   6.751   5.384
 5557POPC   GL171005  12.923   7.126   5.743
 5557POPC   GL271006  12.809   7.500   5.817
 5557POPC   C1A71007  13.147   7.335   6.147
 5557POPC   D2A71008  13.096   7.618   6.530
 5557POPC   C3A71009  13.158   7.445   6.951
 5557POPC   C4A71010  13.154   7.625   7.383
 5557POPC   C1B71011  12.633   7.418   6.241
 5557POPC   C2B71012  12.505   7.449   6.687
 5557POPC   C3B71013  12.671   7.550   7.115
 5557POPC   C4B71014  12.692   7.428   7.561
 5558POPC   NC371015  24.668  40.840   5.187
 5558POPC   PO471016  24.331  40.465   5.623
 5558POPC   GL171017  24.642  40.652   5.868
 5558POPC   GL271018  24.858  40.376   5.815
 5558POPC   C1A71019  24.657  40.765   6.320
 5558POPC   D2A71020  24.953  40.984   6.574
 5558POPC   C3A71021  24.783  41.121   6.940
 5558POPC   C4A71022  24.491  40.996   7.223
 5558POPC   C1B71023  24.584  40.261   6.186
 5558POPC   C2B71024  24.634  40.328   6.597
 5558POPC   C3B71025  24.597  40.588   6.924
 5558POPC   C4B71026  24.446  40.490   7.319
 5559POPC   NC371027  23.954  16.938   5.538
 5559POPC   PO471028  23.461  17.471   5.378
 5559POPC   GL171029  23.729  17.433   5.700
 5559POPC   GL271030  23.546  17.678   5.874
 5559POPC   C1A71031  23.868  17.335   6.098
 5559POPC   D2A71032  23.722  17.320   6.499
 5559POPC   C3A71033  23.968  17.342   6.846
 5559POPC   C4A71034  23.828  17.552   7.171
 5559POPC   C1B71035  23.340  17.385   6.125
 5559POPC   C2B71036  23.261  17.524   6.533
 5559POPC   C3B71037  23.386  17.368   6.922
 5559POPC   C4B71038  23.494  17.225   7.330
 5560POPC   NC371039  20.383   0.319   5.297
 5560POPC   PO471040  20.757   0.936   5.340
 5560POPC   GL171041  20.606   0.659   5.706
 5560POPC   GL271042  20.228   0.616   5.758
 5560POPC   C1A71043  20.686   0.501   6.151
 5560POPC   D2A71044  20.958   0.620   6.524
 5560POPC   C3A71045  20.802   0.464   6.937
 5560POPC   C4A71046  20.360   0.585   7.101
 5560POPC   C1B71047  20.245   0.808   6.181
 5560POPC   C2B71048  20.440   0.706   6.584
 5560POPC   C3B71049  20.397   0.255   6.708
 5560POPC   C4B71050  20.284   0.050   7.088
 5561POPC   NC371051  43.475  18.908   5.341
 5561POPC   PO471052  42.967  19.338   5.434
 5561POPC   GL171053  43.164  19.130   5.745
 5561POPC   GL271054  43.096  18.791   5.684
 5561POPC   C1A71055  43.255  19.250   6.153
 5561POPC   D2A71056  43.458  19.168   6.532
 5561POPC   C3A71057  43.199  19.248   6.887
 5561POPC   C4A71058  42.986  19.412   7.249
 5561POPC   C1B71059  43.005  18.769   6.129
 5561POPC   C2B71060  43.067  18.799   6.577
 5561POPC   C3B71061  43.100  18.760   7.039
 5561POPC   C4B71062  43.351  19.043   7.324
 5562POPC   NC371063  44.457   6.754   5.653
 5562POPC   PO471064   0.008   6.390   5.444
 5562POPC   GL171065  44.850   6.546   5.879
 5562POPC   GL271066  44.520   6.479   6.111
 5562POPC   C1A71067  44.909   6.758   6.260
 5562POPC   D2A71068  44.660   6.609   6.594
 5562POPC   C3A71069  44.831   6.673   6.979
 5562POPC   C4A71070  44.671   6.452   7.315
 5562POPC   C1B71071  44.278   6.886   6.271
 5562POPC   C2B71072  44.199   7.150   6.634
 5562POPC   C3B71073  44.374   6.903   6.932
 5562POPC   C4B71074  44.533   6.953   7.316
 5563POPC   NC371075  28.701  12.425   5.517
 5563POPC   PO471076  29.321  12.098   5.498
 5563POPC   GL171077  29.130  12.114   5.887
 5563POPC   GL271078  28.783  11.970   5.817
 5563POPC   C1A71079  29.266  12.020   6.331
 5563POPC   D2A71080  29.565  12.066   6.657
 5563POPC   C3A71081  29.381  12.149   7.059
 5563POPC   C4A71082  28.952  12.300   7.033
 5563POPC   C1B71083  29.019  11.654   6.056
 5563POPC   C2B71084  28.994  11.591   6.455
 5563POPC   C3B71085  29.136  11.786   6.792
 5563POPC   C4B71086  29.221  11.614   7.161
 5564POPC   NC371087  18.577  39.687   5.476
 5564POPC   PO471088  18.251  39.059   5.493
 5564POPC   GL171089  18.386  39.277   5.855
 5564POPC   GL271090  18.559  38.973   5.943
 5564POPC   C1A71091  18.389  39.515   6.268
 5564POPC   D2A71092  18.596  39.680   6.662
 5564POPC   C3A71093  18.557  39.570   7.129
 5564POPC   C4A71094  18.292  39.413   7.540
 5564POPC   C1B71095  18.442  38.992   6.366
 5564POPC   C2B71096  18.274  39.289   6.709
 5564POPC   C3B71097  18.157  39.189   7.109
 5564POPC   C4B71098  18.017  38.910   7.417
 5565POPC   NC371099  39.811  39.020   5.237
 5565POPC   PO471100  40.142  39.434   5.694
 5565POPC   GL171101  40.061  39.160   5.978
 5565POPC   GL271102  39.960  38.882   5.758
 5565POPC   C1A71103  39.999  39.206   6.387
 5565POPC   D2A71104  39.872  39.474   6.700
 5565POPC   C3A71105  40.028  39.285   7.060
 5565POPC   C4A71106  40.097  39.418   7.481
 5565POPC   C1B71107  39.796  38.777   6.181
 5565POPC   C2B71108  39.690  38.847   6.612
 5565POPC   C3B71109  39.839  38.780   7.016
 5565POPC   C4B71110  39.842  38.980   7.428
 5566POPC   NC371111  23.354  43.239   5.459
 5566POPC   PO471112  23.969  43.574   5.406
 5566POPC   GL171113  23.820  43.269   5.725
 5566POPC   GL271114  23.643  42.950   5.779
 5566POPC   C1A71115  23.715  43.336   6.162
 5566POPC   D2A71116  23.412  43.327   6.524
 5566POPC   C3A71117  23.671  43.418   6.901
 5566POPC   C4A71118  23.660  43.384   7.357
 5566POPC   C1B71119  23.508  42.870   6.223
 5566POPC   C2B71120  23.654  42.872   6.665
 5566POPC   C3B71121  23.476  42.985   7.083
 5566POPC   C4B71122  23.459  42.944   7.535
 5567POPC   NC371123  32.483  33.939   5.547
 5567POPC   PO471124  32.053  33.448   5.464
 5567POPC   GL171125  32.116  33.637   5.844
 5567POPC   GL271126  32.439  33.509   5.894
 5567POPC   C1A71127  31.940  33.720   6.268
 5567POPC   D2A71128  31.960  34.019   6.636
 5567POPC   C3A71129  31.907  33.822   7.032
 5567POPC   C4A71130  31.924  33.877   7.500
 5567POPC   C1B71131  32.430  33.663   6.292
 5567POPC   C2B71132  32.251  33.607   6.689
 5567POPC   C3B71133  32.441  33.783   7.058
 5567POPC   C4B71134  32.659  34.172   7.097
 5568POPC   NC371135  24.266  39.644   5.393
 5568POPC   PO471136  23.585  39.763   5.417
 5568POPC   GL171137  23.624  39.959   5.806
 5568POPC   GL271138  23.971  39.892   5.791
 5568POPC   C1A71139  23.459  40.123   6.221
 5568POPC   D2A71140  23.710  40.298   6.588
 5568POPC   C3A71141  23.642  40.188   7.048
 5568POPC   C4A71142  23.774  39.771   7.176
 5568POPC   C1B71143  23.985  40.128   6.167
 5568POPC   C2B71144  24.195  40.064   6.559
 5568POPC   C3B71145  24.182  40.209   6.978
 5568POPC   C4B71146  24.158  40.062   7.402
 5569POPC   NC371147  16.030  28.645   5.363
 5569POPC   PO471148  16.013  29.257   5.475
 5569POPC   GL171149  16.099  29.390   5.895
 5569POPC   GL271150  15.768  29.373   5.943
 5569POPC   C1A71151  16.071  29.192   6.341
 5569POPC   D2A71152  16.396  29.117   6.681
 5569POPC   C3A71153  16.201  29.063   7.077
 5569POPC   C4A71154  16.099  29.462   7.172
 5569POPC   C1B71155  15.548  29.350   6.352
 5569POPC   C2B71156  15.774  29.401   6.754
 5569POPC   C3B71157  15.615  29.541   7.157
 5569POPC   C4B71158  15.691  29.123   7.218
 5570POPC   NC371159  37.683  36.943   5.394
 5570POPC   PO471160  37.280  36.677   5.773
 5570POPC   GL171161  37.627  36.909   5.941
 5570POPC   GL271162  37.892  37.144   5.818
 5570POPC   C1A71163  37.693  36.950   6.369
 5570POPC   D2A71164  37.552  37.038   6.771
 5570POPC   C3A71165  37.668  36.802   7.166
 5570POPC   C4A71166  37.980  36.578   7.478
 5570POPC   C1B71167  38.072  37.268   6.224
 5570POPC   C2B71168  38.057  37.159   6.662
 5570POPC   C3B71169  37.910  37.252   7.059
 5570POPC   C4B71170  38.027  37.059   7.424
 5571POPC   NC371171  23.245  14.976   5.537
 5571POPC   PO471172  22.701  15.199   5.352
 5571POPC   GL171173  22.715  15.140   5.801
 5571POPC   GL271174  22.665  15.468   5.870
 5571POPC   C1A71175  22.908  15.215   6.255
 5571POPC   D2A71176  23.205  15.372   6.617
 5571POPC   C3A71177  23.223  15.110   6.997
 5571POPC   C4A71178  23.013  14.981   7.391
 5571POPC   C1B71179  22.516  15.543   6.292
 5571POPC   C2B71180  22.705  15.522   6.688
 5571POPC   C3B71181  22.747  15.278   7.048
 5571POPC   C4B71182  22.623  15.512   7.383
 5572POPC   NC371183  25.781  31.767   5.096
 5572POPC   PO471184  25.855  31.201   5.338
 5572POPC   GL171185  26.026  31.406   5.736
 5572POPC   GL271186  26.340  31.631   5.740
 5572POPC   C1A71187  25.924  31.585   6.160
 5572POPC   D2A71188  25.808  31.701   6.579
 5572POPC   C3A71189  25.814  31.446   6.934
 5572POPC   C4A71190  25.740  31.523   7.365
 5572POPC   C1B71191  26.421  31.484   6.159
 5572POPC   C2B71192  26.335  31.680   6.530
 5572POPC   C3B71193  26.307  31.564   6.922
 5572POPC   C4B71194  26.251  31.412   7.302
 5573POPC   NC371195  27.823  36.968   5.224
 5573POPC   PO471196  28.469  36.789   5.314
 5573POPC   GL171197  28.281  36.761   5.713
 5573POPC   GL271198  28.612  36.665   5.850
 5573POPC   C1A71199  28.162  37.035   6.079
 5573POPC   D2A71200  28.074  37.036   6.536
 5573POPC   C3A71201  28.320  37.210   6.899
 5573POPC   C4A71202  28.235  37.130   7.346
 5573POPC   C1B71203  28.325  36.546   6.194
 5573POPC   C2B71204  28.424  36.663   6.626
 5573POPC   C3B71205  28.329  36.704   7.037
 5573POPC   C4B71206  28.455  36.643   7.460
 5574POPC   NC371207  35.984   9.471   5.119
 5574POPC   PO471208  36.342   9.966   5.438
 5574POPC   GL171209  36.351   9.889   5.897
 5574POPC   GL271210  36.547   9.586   5.939
 5574POPC   C1A71211  36.179   9.652   6.293
 5574POPC   D2A71212  35.927   9.554   6.677
 5574POPC   C3A71213  35.937   9.875   6.997
 5574POPC   C4A71214  35.753  10.026   7.357
 5574POPC   C1B71215  36.655   9.874   6.316
 5574POPC   C2B71216  36.430   9.850   6.720
 5574POPC   C3B71217  36.327   9.537   7.012
 5574POPC   C4B71218  36.236   9.391   7.417
 5575POPC   NC371219  37.392  12.349   5.303
 5575POPC   PO471220  37.793  11.761   5.418
 5575POPC   GL171221  37.610  12.064   5.704
 5575POPC   GL271222  37.754  12.413   5.717
 5575POPC   C1A71223  37.452  12.223   6.103
 5575POPC   D2A71224  37.651  12.225   6.498
 5575POPC   C3A71225  37.506  12.008   6.861
 5575POPC   C4A71226  37.327  12.099   7.256
 5575POPC   C1B71227  38.019  12.300   6.095
 5575POPC   C2B71228  38.120  12.381   6.542
 5575POPC   C3B71229  38.007  12.222   6.905
 5575POPC   C4B71230  37.935  12.431   7.291
 5576POPC   NC371231  31.664   8.308   5.221
 5576POPC   PO471232  30.986   8.271   5.195
 5576POPC   GL171233  31.199   8.319   5.624
 5576POPC   GL271234  31.479   8.060   5.639
 5576POPC   C1A71235  31.444   8.433   6.016
 5576POPC   D2A71236  31.488   8.578   6.453
 5576POPC   C3A71237  31.283   8.339   6.782
 5576POPC   C4A71238  31.369   8.098   7.147
 5576POPC   C1B71239  31.715   7.980   6.023
 5576POPC   C2B71240  31.620   8.048   6.468
 5576POPC   C3B71241  31.796   8.038   6.884
 5576POPC   C4B71242  31.818   7.744   7.191
 5577POPC   NC371243  40.998  18.698   5.085
 5577POPC   PO471244  40.517  19.163   5.289
 5577POPC   GL171245  40.590  19.116   5.743
 5577POPC   GL271246  40.762  18.825   5.903
 5577POPC   C1A71247  40.543  19.194   6.197
 5577POPC   D2A71248  40.772  19.105   6.565
 5577POPC   C3A71249  40.684  19.323   6.944
 5577POPC   C4A71250  41.008  19.261   7.227
 5577POPC   C1B71251  40.516  18.687   6.289
 5577POPC   C2B71252  40.306  18.906   6.584
 5577POPC   C3B71253  40.482  18.848   6.958
 5577POPC   C4B71254  40.769  18.619   7.242
 5578POPC   NC371255  26.582  38.770   5.337
 5578POPC   PO471256  26.704  39.358   5.078
 5578POPC   GL171257  26.668  39.264   5.593
 5578POPC   GL271258  26.428  39.025   5.736
 5578POPC   C1A71259  26.771  39.191   6.075
 5578POPC   D2A71260  26.950  39.348   6.501
 5578POPC   C3A71261  26.935  39.164   6.918
 5578POPC   C4A71262  27.067  39.131   7.355
 5578POPC   C1B71263  26.331  38.848   6.094
 5578POPC   C2B71264  26.478  39.010   6.467
 5578POPC   C3B71265  26.647  38.757   6.797
 5578POPC   C4B71266  26.644  38.783   7.218
 5579POPC   NC371267  34.829  32.818   5.499
 5579POPC   PO471268  34.353  33.308   5.455
 5579POPC   GL171269  34.477  33.059   5.831
 5579POPC   GL271270  34.812  33.109   5.911
 5579POPC   C1A71271  34.595  32.767   6.194
 5579POPC   D2A71272  34.662  32.857   6.620
 5579POPC   C3A71273  34.851  33.171   6.859
 5579POPC   C4A71274  34.663  32.997   7.206
 5579POPC   C1B71275  34.690  33.287   6.302
 5579POPC   C2B71276  34.425  33.351   6.640
 5579POPC   C3B71277  34.332  33.382   7.062
 5579POPC   C4B71278  34.391  33.294   7.507
 5580POPC   NC371279  13.016  35.606   5.413
 5580POPC   PO471280  12.527  35.190   5.233
 5580POPC   GL171281  12.711  35.243   5.658
 5580POPC   GL271282  12.818  34.943   5.838
 5580POPC   C1A71283  12.858  35.412   6.079
 5580POPC   D2A71284  12.663  35.468   6.512
 5580POPC   C3A71285  12.829  35.325   6.918
 5580POPC   C4A71286  13.106  35.623   7.117
 5580POPC   C1B71287  13.159  34.994   6.162
 5580POPC   C2B71288  13.216  35.163   6.607
 5580POPC   C3B71289  13.246  35.045   7.067
 5580POPC   C4B71290  13.006  35.217   7.419
 5581POPC   NC371291  13.431  29.567   5.676
 5581POPC   PO471292  13.751  29.048   5.404
 5581POPC   GL171293  13.690  29.138   5.834
 5581POPC   GL271294  13.407  28.944   5.903
 5581POPC   C1A71295  13.568  29.289   6.270
 5581POPC   D2A71296  13.533  29.078   6.673
 5581POPC   C3A71297  13.679  29.311   7.032
 5581POPC   C4A71298  13.648  29.213   7.462
 5581POPC   C1B71299  13.168  28.949   6.280
 5581POPC   C2B71300  13.041  29.176   6.647
 5581POPC   C3B71301  13.191  29.122   7.093
 5581POPC   C4B71302  13.234  28.904   7.509
 5582POPC   NC371303   6.568  10.302   5.396
 5582POPC   PO471304   6.639   9.656   5.397
 5582POPC   GL171305   6.838   9.725   5.798
 5582POPC   GL271306   6.529   9.603   5.895
 5582POPC   C1A71307   6.771   9.981   6.179
 5582POPC   D2A71308   6.630   9.849   6.578
 5582POPC   C3A71309   6.821   9.930   6.965
 5582POPC   C4A71310   6.549  10.029   7.305
 5582POPC   C1B71311   6.608   9.452   6.261
 5582POPC   C2B71312   6.376   9.411   6.605
 5582POPC   C3B71313   6.438   9.584   6.991
 5582POPC   C4B71314   6.670   9.348   7.276
 5583POPC   NC371315  12.382  20.068   5.704
 5583POPC   PO471316  11.860  19.751   5.340
 5583POPC   GL171317  11.951  19.807   5.746
 5583POPC   GL271318  12.266  19.588   5.747
 5583POPC   C1A71319  11.815  19.998   6.169
 5583POPC   D2A71320  12.020  19.934   6.588
 5583POPC   C3A71321  12.194  20.246   6.863
 5583POPC   C4A71322  12.063  20.310   7.287
 5583POPC   C1B71323  12.130  19.618   6.175
 5583POPC   C2B71324  12.166  19.431   6.573
 5583POPC   C3B71325  12.348  19.516   6.970
 5583POPC   C4B71326  12.182  19.797   7.250
 5584POPC   NC371327  43.773  16.739   5.427
 5584POPC   PO471328  44.447  16.769   5.594
 5584POPC   GL171329  44.086  16.663   5.897
 5584POPC   GL271330  43.754  16.860   5.924
 5584POPC   C1A71331  43.981  16.676   6.367
 5584POPC   D2A71332  43.690  16.949   6.589
 5584POPC   C3A71333  43.608  16.890   7.042
 5584POPC   C4A71334  43.805  16.964   7.477
 5584POPC   C1B71335  44.069  17.132   6.126
 5584POPC   C2B71336  44.229  17.165   6.539
 5584POPC   C3B71337  44.083  17.040   6.925
 5584POPC   C4B71338  44.111  16.660   7.182
 5585POPC   NC371339  34.047   2.587   5.136
 5585POPC   PO471340  33.484   2.556   5.398
 5585POPC   GL171341  33.838   2.673   5.704
 5585POPC   GL271342  34.163   2.551   5.649
 5585POPC   C1A71343  33.910   2.850   6.147
 5585POPC   D2A71344  33.893   2.997   6.590
 5585POPC   C3A71345  33.613   2.830   6.923
 5585POPC   C4A71346  33.655   2.823   7.353
 5585POPC   C1B71347  34.175   2.423   6.094
 5585POPC   C2B71348  33.926   2.424   6.497
 5585POPC   C3B71349  33.977   2.471   6.952
 5585POPC   C4B71350  34.256   2.549   7.301
 5586POPC   NC371351  27.092  18.360   5.251
 5586POPC   PO471352  26.519  18.163   5.414
 5586POPC   GL171353  26.542  18.174   5.865
 5586POPC   GL271354  26.550  18.498   5.951
 5586POPC   C1A71355  26.699  18.149   6.331
 5586POPC   D2A71356  26.999  18.380   6.685
 5586POPC   C3A71357  27.110  18.155   7.095
 5586POPC   C4A71358  27.060  17.892   7.503
 5586POPC   C1B71359  26.703  18.669   6.316
 5586POPC   C2B71360  26.514  18.482   6.661
 5586POPC   C3B71361  26.569  18.169   6.969
 5586POPC   C4B71362  26.702  18.249   7.386
 5587POPC   NC371363  23.045  22.626   5.345
 5587POPC   PO471364  22.456  22.920   5.473
 5587POPC   GL171365  22.659  22.789   5.861
 5587POPC   GL271366  23.010  22.772   5.824
 5587POPC   C1A71367  22.768  22.879   6.306
 5587POPC   D2A71368  22.770  22.809   6.754
 5587POPC   C3A71369  22.703  23.071   7.124
 5587POPC   C4A71370  22.940  23.310   7.461
 5587POPC   C1B71371  23.279  22.771   6.191
 5587POPC   C2B71372  23.252  22.956   6.593
 5587POPC   C3B71373  23.181  22.930   7.044
 5587POPC   C4B71374  23.377  22.699   7.361
 5588POPC   NC371375   9.946  39.035   5.354
 5588POPC   PO471376   9.447  39.472   5.546
 5588POPC   GL171377   9.669  39.202   5.808
 5588POPC   GL271378   9.918  39.381   5.802
 5588POPC   C1A71379   9.511  39.100   6.209
 5588POPC   D2A71380   9.727  39.033   6.566
 5588POPC   C3A71381   9.469  38.971   6.915
 5588POPC   C4A71382   9.420  39.136   7.301
 5588POPC   C1B71383  10.010  39.288   6.199
 5588POPC   C2B71384  10.089  39.407   6.607
 5588POPC   C3B71385   9.865  39.287   6.982
 5588POPC   C4B71386   9.859  39.334   7.403
 5589POPC   NC371387   7.237  31.024   5.690
 5589POPC   PO471388   7.569  30.475   5.653
 5589POPC   GL171389   7.407  30.282   5.962
 5589POPC   GL271390   7.210  30.525   6.036
 5589POPC   C1A71391   7.420  30.224   6.422
 5589POPC   D2A71392   7.641  30.506   6.712
 5589POPC   C3A71393   7.359  30.696   6.997
 5589POPC   C4A71394   7.527  31.019   7.209
 5589POPC   C1B71395   7.479  30.759   6.289
 5589POPC   C2B71396   7.464  31.038   6.620
 5589POPC   C3B71397   7.243  31.278   6.876
 5589POPC   C4B71398   7.072  31.218   7.256
 5590POPC   NC371399  27.269   5.859   5.435
 5590POPC   PO471400  27.309   5.295   5.754
 5590POPC   GL171401  27.376   5.727   5.933
 5590POPC   GL271402  27.492   6.071   5.843
 5590POPC   C1A71403  27.636   5.848   6.297
 5590POPC   D2A71404  27.513   5.682   6.701
 5590POPC   C3A71405  27.765   5.653   7.066
 5590POPC   C4A71406  27.923   5.883   7.411
 5590POPC   C1B71407  27.300   6.220   6.208
 5590POPC   C2B71408  27.422   6.225   6.612
 5590POPC   C3B71409  27.319   6.051   6.992
 5590POPC   C4B71410  27.279   5.694   7.246
 5591POPC   NC371411  11.236  44.521   5.445
 5591POPC   PO471412  11.682  44.865   5.414
 5591POPC   GL171413  11.464  44.821   5.822
 5591POPC   GL271414  11.076  44.808   5.841
 5591POPC   C1A71415  11.511  44.735   6.286
 5591POPC   D2A71416  11.446  44.554   6.739
 5591POPC   C3A71417  11.527  44.789   7.132
 5591POPC   C4A71418  11.641  44.706   7.565
 5591POPC   C1B71419  11.009  44.667   6.282
 5591POPC   C2B71420  10.922  44.571   6.721
 5591POPC   C3B71421  10.991  44.776   7.133
 5591POPC   C4B71422  11.175  44.946   7.497
 5592POPC   NC371423  12.403  33.046   5.350
 5592POPC   PO471424  11.706  32.807   5.393
 5592POPC   GL171425  11.992  33.046   5.688
 5592POPC   GL271426  12.305  32.867   5.800
 5592POPC   C1A71427  12.034  33.133   6.151
 5592POPC   D2A71428  11.876  33.040   6.560
 5592POPC   C3A71429  12.197  33.009   6.859
 5592POPC   C4A71430  12.231  33.293   7.184
 5592POPC   C1B71431  12.024  32.641   6.048
 5592POPC   C2B71432  12.111  32.592   6.482
 5592POPC   C3B71433  11.859  32.612   6.874
 5592POPC   C4B71434  11.809  32.917   7.205
 5593POPC   NC371435  31.547  23.826   5.291
 5593POPC   PO471436  30.864  23.598   5.229
 5593POPC   GL171437  31.141  23.745   5.659
 5593POPC   GL271438  31.530  23.730   5.775
 5593POPC   C1A71439  31.214  23.562   6.121
 5593POPC   D2A71440  31.349  23.760   6.528
 5593POPC   C3A71441  31.397  23.563   6.920
 5593POPC   C4A71442  31.153  23.691   7.238
 5593POPC   C1B71443  31.713  23.799   6.163
 5593POPC   C2B71444  31.788  24.036   6.527
 5593POPC   C3B71445  31.644  24.012   6.926
 5593POPC   C4B71446  31.641  23.810   7.305
 5594POPC   NC371447   7.126   3.376   5.368
 5594POPC   PO471448   7.779   3.623   5.405
 5594POPC   GL171449   7.489   3.494   5.714
 5594POPC   GL271450   7.247   3.758   5.724
 5594POPC   C1A71451   7.399   3.358   6.132
 5594POPC   D2A71452   7.655   3.449   6.484
 5594POPC   C3A71453   7.408   3.391   6.827
 5594POPC   C4A71454   7.658   3.226   7.098
 5594POPC   C1B71455   7.484   3.844   6.123
 5594POPC   C2B71456   7.323   3.830   6.563
 5594POPC   C3B71457   7.457   3.874   6.997
 5594POPC   C4B71458   7.289   3.583   7.300
 5595POPC   NC371459  26.249  30.927   5.370
 5595POPC   PO471460  25.938  30.262   5.286
 5595POPC   GL171461  26.043  30.510   5.671
 5595POPC   GL271462  25.915  30.865   5.750
 5595POPC   C1A71463  26.272  30.546   6.072
 5595POPC   D2A71464  26.264  30.749   6.485
 5595POPC   C3A71465  26.150  30.540   6.860
 5595POPC   C4A71466  25.828  30.538   7.154
 5595POPC   C1B71467  26.085  31.065   6.113
 5595POPC   C2B71468  26.109  31.240   6.516
 5595POPC   C3B71469  26.203  31.070   6.890
 5595POPC   C4B71470  25.955  31.026   7.213
 5596POPC   NC371471  15.395  30.826   5.432
 5596POPC   PO471472  14.987  30.308   5.289
 5596POPC   GL171473  15.084  30.569   5.742
 5596POPC   GL271474  15.455  30.606   5.890
 5596POPC   C1A71475  15.117  30.877   6.136
 5596POPC   D2A71476  15.023  30.753   6.577
 5596POPC   C3A71477  15.226  30.819   6.974
 5596POPC   C4A71478  15.031  30.778   7.383
 5596POPC   C1B71479  15.235  30.396   6.264
 5596POPC   C2B71480  15.233  30.279   6.707
 5596POPC   C3B71481  15.476  30.377   7.078
 5596POPC   C4B71482  15.489  30.556   7.477
 5597POPC   NC371483  41.760   6.889   5.314
 5597POPC   PO471484  41.241   6.496   5.519
 5597POPC   GL171485  41.648   6.531   5.723
 5597POPC   GL271486  41.740   6.875   5.830
 5597POPC   C1A71487  41.725   6.462   6.168
 5597POPC   D2A71488  41.441   6.488   6.534
 5597POPC   C3A71489  41.594   6.400   6.933
 5597POPC   C4A71490  41.810   6.569   7.265
 5597POPC   C1B71491  41.358   6.838   6.110
 5597POPC   C2B71492  41.210   6.952   6.534
 5597POPC   C3B71493  41.191   6.765   6.927
 5597POPC   C4B71494  41.346   6.837   7.323
 5598POPC   NC371495  26.646  32.550   5.469
 5598POPC   PO471496  27.137  31.977   5.533
 5598POPC   GL171497  26.970  32.241   5.830
 5598POPC   GL271498  26.646  32.170   5.822
 5598POPC   C1A71499  26.988  32.295   6.271
 5598POPC   D2A71500  27.032  32.155   6.687
 5598POPC   C3A71501  26.925  32.370   7.095
 5598POPC   C4A71502  26.952  32.320   7.558
 5598POPC   C1B71503  26.553  32.485   6.117
 5598POPC   C2B71504  26.522  32.365   6.530
 5598POPC   C3B71505  26.434  32.530   6.936
 5598POPC   C4B71506  26.272  32.399   7.341
 5599POPC   NC371507  17.040  27.683   5.509
 5599POPC   PO471508  16.391  27.487   5.325
 5599POPC   GL171509  16.414  27.399   5.789
 5599POPC   GL271510  16.799  27.387   5.878
 5599POPC   C1A71511  16.465  27.116   6.149
 5599POPC   D2A71512  16.488  27.275   6.551
 5599POPC   C3A71513  16.816  27.451   6.849
 5599POPC   C4A71514  16.661  27.508   7.265
 5599POPC   C1B71515  17.103  27.615   6.174
 5599POPC   C2B71516  17.043  27.842   6.568
 5599POPC   C3B71517  17.010  27.939   6.997
 5599POPC   C4B71518  16.792  27.987   7.363
 5600POPC   NC371519  43.094   8.694   5.635
 5600POPC   PO471520  42.865   9.311   5.595
 5600POPC   GL171521  42.815   9.101   5.967
 5600POPC   GL271522  43.172   9.017   6.056
 5600POPC   C1A71523  42.805   9.151   6.401
 5600POPC   D2A71524  43.185   9.186   6.564
 5600POPC   C3A71525  43.228   9.136   6.992
 5600POPC   C4A71526  42.995   8.875   7.232
 5600POPC   C1B71527  43.422   8.681   6.279
 5600POPC   C2B71528  43.555   8.481   6.639
 5600POPC   C3B71529  43.440   8.623   7.038
 5600POPC   C4B71530  43.377   8.611   7.449
 5601POPC   NC371531  10.596  43.267   5.273
 5601POPC   PO471532  10.294  42.665   5.381
 5601POPC   GL171533  10.547  42.941   5.741
 5601POPC   GL271534  10.618  43.305   5.789
 5601POPC   C1A71535  10.345  43.099   6.163
 5601POPC   D2A71536  10.452  42.925   6.537
 5601POPC   C3A71537  10.337  43.167   6.876
 5601POPC   C4A71538  10.205  43.100   7.277
 5601POPC   C1B71539  10.847  43.078   6.172
 5601POPC   C2B71540  10.923  42.993   6.631
 5601POPC   C3B71541  10.709  42.850   7.010
 5601POPC   C4B71542  10.703  43.225   7.258
 5602POPC   NC371543  19.928   0.899   5.454
 5602POPC   PO471544  20.199   1.486   5.427
 5602POPC   GL171545  19.955   1.356   5.753
 5602POPC   GL271546  19.997   1.656   5.929
 5602POPC   C1A71547  19.847   1.133   6.133
 5602POPC   D2A71548  19.622   1.220   6.505
 5602POPC   C3A71549  19.727   1.147   6.932
 5602POPC   C4A71550  19.490   1.443   7.170
 5602POPC   C1B71551  19.966   1.609   6.378
 5602POPC   C2B71552  19.845   1.628   6.796
 5602POPC   C3B71553  19.999   1.531   7.213
 5602POPC   C4B71554  19.730   1.554   7.615
 5603POPC   NC371555   3.363  15.023   5.386
 5603POPC   PO471556   3.736  15.439   5.628
 5603POPC   GL171557   3.695  15.122   5.878
 5603POPC   GL271558   3.369  15.152   5.885
 5603POPC   C1A71559   3.620  15.131   6.324
 5603POPC   D2A71560   3.357  15.239   6.650
 5603POPC   C3A71561   3.628  15.095   6.951
 5603POPC   C4A71562   3.952  15.107   7.224
 5603POPC   C1B71563   3.149  14.967   6.205
 5603POPC   C2B71564   3.033  14.830   6.602
 5603POPC   C3B71565   3.126  14.930   6.994
 5603POPC   C4B71566   3.318  15.044   7.350
 5604POPC   NC371567   1.553  16.851   5.164
 5604POPC   PO471568   0.974  16.593   5.441
 5604POPC   GL171569   1.166  16.780   5.805
 5604POPC   GL271570   1.435  16.982   5.665
 5604POPC   C1A71571   1.168  16.685   6.287
 5604POPC   D2A71572   1.134  16.905   6.703
 5604POPC   C3A71573   1.329  16.772   7.108
 5604POPC   C4A71574   1.630  16.418   7.170
 5604POPC   C1B71575   1.361  17.141   6.114
 5604POPC   C2B71576   1.566  17.092   6.494
 5604POPC   C3B71577   1.457  17.241   6.892
 5604POPC   C4B71578   1.199  17.238   7.233
 5605POPC   NC371579   1.010  12.282   5.263
 5605POPC   PO471580   0.936  11.613   5.377
 5605POPC   GL171581   1.077  11.845   5.757
 5605POPC   GL271582   1.152  12.218   5.754
 5605POPC   C1A71583   1.225  11.911   6.195
 5605POPC   D2A71584   1.328  12.008   6.634
 5605POPC   C3A71585   1.152  11.781   6.969
 5605POPC   C4A71586   1.287  11.783   7.425
 5605POPC   C1B71587   1.136  12.434   6.148
 5605POPC   C2B71588   0.955  12.350   6.521
 5605POPC   C3B71589   0.950  12.494   6.940
 5605POPC   C4B71590   1.111  12.223   7.233
 5606POPC   NC371591  19.452  23.010   5.582
 5606POPC   PO471592  18.901  22.548   5.527
 5606POPC   GL171593  19.043  22.782   5.865
 5606POPC   GL271594  18.975  23.128   5.875
 5606POPC   C1A71595  19.299  22.788   6.225
 5606POPC   D2A71596  19.133  22.755   6.638
 5606POPC   C3A71597  18.816  22.980   6.818
 5606POPC   C4A71598  18.903  22.971   7.232
 5606POPC   C1B71599  18.943  23.138   6.337
 5606POPC   C2B71600  19.229  23.259   6.680
 5606POPC   C3B71601  19.386  23.314   7.093
 5606POPC   C4B71602  19.170  23.404   7.466
 5607POPC   NC371603  38.912  17.693   5.690
 5607POPC   PO471604  38.357  17.680   5.256
 5607POPC   GL171605  38.254  17.459   5.719
 5607POPC   GL271606  38.613  17.285   5.752
 5607POPC   C1A71607  38.069  17.589   6.194
 5607POPC   D2A71608  38.040  17.876   6.605
 5607POPC   C3A71609  38.397  17.845   6.911
 5607POPC   C4A71610  38.648  17.570   7.220
 5607POPC   C1B71611  38.714  17.210   6.200
 5607POPC   C2B71612  38.437  17.376   6.525
 5607POPC   C3B71613  38.160  17.380   6.857
 5607POPC   C4B71614  38.178  17.354   7.279
 5608POPC   NC371615  25.048  42.445   5.557
 5608POPC   PO471616  25.402  42.927   5.365
 5608POPC   GL171617  25.521  42.681   5.745
 5608POPC   GL271618  25.421  42.311   5.878
 5608POPC   C1A71619  25.653  42.610   6.187
 5608POPC   D2A71620  25.478  42.274   6.441
 5608POPC   C3A71621  25.467  42.422   6.844
 5608POPC   C4A71622  25.432  42.217   7.200
 5608POPC   C1B71623  25.043  42.198   6.190
 5608POPC   C2B71624  24.870  42.005   6.586
 5608POPC   C3B71625  24.971  42.064   7.015
 5608POPC   C4B71626  25.065  41.881   7.399
 5609POPC   NC371627  40.655  16.149   5.460
 5609POPC   PO471628  40.751  16.741   5.349
 5609POPC   GL171629  40.820  16.755   5.790
 5609POPC   GL271630  41.088  16.970   5.883
 5609POPC   C1A71631  40.740  16.615   6.225
 5609POPC   D2A71632  40.875  16.799   6.604
 5609POPC   C3A71633  40.591  16.746   6.941
 5609POPC   C4A71634  40.585  16.336   7.063
 5609POPC   C1B71635  41.246  16.615   6.160
 5609POPC   C2B71636  41.318  16.448   6.581
 5609POPC   C3B71637  41.090  16.468   6.951
 5609POPC   C4B71638  40.944  16.680   7.284
 5610POPC   NC371639  29.501  30.245   5.350
 5610POPC   PO471640  30.097  29.930   5.281
 5610POPC   GL171641  29.917  30.009   5.704
 5610POPC   GL271642  30.036  30.333   5.716
 5610POPC   C1A71643  29.894  29.812   6.162
 5610POPC   D2A71644  30.149  29.774   6.577
 5610POPC   C3A71645  29.983  29.819   6.998
 5610POPC   C4A71646  29.643  29.666   7.255
 5610POPC   C1B71647  30.079  30.448   6.164
 5610POPC   C2B71648  29.961  30.468   6.598
 5610POPC   C3B71649  30.037  30.334   7.020
 5610POPC   C4B71650  29.884  30.108   7.414
 5611POPC   NC371651  10.628  26.023   5.335
 5611POPC   PO471652  10.281  26.700   5.473
 5611POPC   GL171653  10.364  26.326   5.648
 5611POPC   GL271654  10.703  26.427   5.715
 5611POPC   C1A71655  10.422  26.007   6.002
 5611POPC   D2A71656  10.501  25.904   6.470
 5611POPC   C3A71657  10.509  25.978   6.937
 5611POPC   C4A71658  10.139  26.084   7.158
 5611POPC   C1B71659  10.695  26.407   6.214
 5611POPC   C2B71660  10.856  26.258   6.641
 5611POPC   C3B71661  10.817  26.372   7.092
 5611POPC   C4B71662  10.792  26.480   7.546
 5612POPC   NC371663  17.683   4.238   5.663
 5612POPC   PO471664  18.297   4.176   5.444
 5612POPC   GL171665  18.268   4.267   5.843
 5612POPC   GL271666  18.042   4.541   5.868
 5612POPC   C1A71667  18.101   4.172   6.231
 5612POPC   D2A71668  18.075   4.360   6.632
 5612POPC   C3A71669  18.304   4.150   6.933
 5612POPC   C4A71670  18.534   3.940   7.215
 5612POPC   C1B71671  18.339   4.662   6.205
 5612POPC   C2B71672  18.661   4.761   6.534
 5612POPC   C3B71673  18.470   4.644   6.882
 5612POPC   C4B71674  18.095   4.584   7.107
 5613POPC   NC371675  40.923  17.176   5.394
 5613POPC   PO471676  40.642  17.694   5.265
 5613POPC   GL171677  40.580  17.563   5.689
 5613POPC   GL271678  40.639  17.241   5.800
 5613POPC   C1A71679  40.626  17.647   6.131
 5613POPC   D2A71680  40.752  17.482   6.540
 5613POPC   C3A71681  40.708  17.724   6.894
 5613POPC   C4A71682  40.775  17.584   7.299
 5613POPC   C1B71683  40.660  17.109   6.199
 5613POPC   C2B71684  40.436  17.073   6.588
 5613POPC   C3B71685  40.457  17.268   6.996
 5613POPC   C4B71686  40.533  17.136   7.424
 5614POPC   NC371687  34.528  20.963   5.322
 5614POPC   PO471688  34.332  21.674   5.360
 5614POPC   GL171689  34.275  21.530   5.762
 5614POPC   GL271690  34.503  21.257   5.751
 5614POPC   C1A71691  34.376  21.589   6.162
 5614POPC   D2A71692  34.575  21.481   6.525
 5614POPC   C3A71693  34.413  21.670   6.871
 5614POPC   C4A71694  34.439  21.559   7.270
 5614POPC   C1B71695  34.649  21.121   6.148
 5614POPC   C2B71696  34.629  20.953   6.555
 5614POPC   C3B71697  34.580  21.161   6.945
 5614POPC   C4B71698  34.380  21.064   7.319
 5615POPC   NC371699   4.987  33.932   5.294
 5615POPC   PO471700   5.528  33.700   5.573
 5615POPC   GL171701   5.222  33.774   5.892
 5615POPC   GL271702   4.869  33.708   5.744
 5615POPC   C1A71703   5.205  33.734   6.360
 5615POPC   D2A71704   4.939  33.761   6.717
 5615POPC   C3A71705   5.093  33.923   7.058
 5615POPC   C4A71706   4.862  34.148   7.389
 5615POPC   C1B71707   4.865  33.431   6.102
 5615POPC   C2B71708   4.888  33.285   6.529
 5615POPC   C3B71709   4.643  33.389   6.896
 5615POPC   C4B71710   4.638  33.719   7.172
 5616POPC   NC371711  42.082  29.936   5.326
 5616POPC   PO471712  42.588  29.636   5.479
 5616POPC   GL171713  42.242  29.701   5.759
 5616POPC   GL271714  42.221  30.075   5.782
 5616POPC   C1A71715  42.382  29.724   6.173
 5616POPC   D2A71716  42.578  29.502   6.489
 5616POPC   C3A71717  42.380  29.625   6.862
 5616POPC   C4A71718  42.543  29.727   7.247
 5616POPC   C1B71719  42.334  30.232   6.171
 5616POPC   C2B71720  42.599  30.081   6.504
 5616POPC   C3B71721  42.432  30.126   6.893
 5616POPC   C4B71722  42.368  30.208   7.287
 5617POPC   NC371723  39.713  12.682   5.535
 5617POPC   PO471724  39.078  13.051   5.459
 5617POPC   GL171725  39.227  12.964   5.880
 5617POPC   GL271726  39.306  12.604   5.875
 5617POPC   C1A71727  39.311  12.897   6.334
 5617POPC   D2A71728  39.462  12.872   6.764
 5617POPC   C3A71729  39.148  12.826   7.078
 5617POPC   C4A71730  38.944  12.861   7.467
 5617POPC   C1B71731  39.531  12.443   6.250
 5617POPC   C2B71732  39.488  12.343   6.698
 5617POPC   C3B71733  39.547  12.456   7.116
 5617POPC   C4B71734  39.271  12.481   7.464
 5618POPC   NC371735  35.800  11.771   5.457
 5618POPC   PO471736  35.468  12.353   5.215
 5618POPC   GL171737  35.483  12.198   5.690
 5618POPC   GL271738  35.348  11.873   5.851
 5618POPC   C1A71739  35.527  12.239   6.167
 5618POPC   D2A71740  35.418  12.166   6.598
 5618POPC   C3A71741  35.611  11.893   6.894
 5618POPC   C4A71742  35.633  12.087   7.290
 5618POPC   C1B71743  35.061  12.021   6.204
 5618POPC   C2B71744  34.922  12.017   6.628
 5618POPC   C3B71745  35.132  12.005   7.000
 5618POPC   C4B71746  35.112  12.068   7.405
 5619POPC   NC371747  12.111  35.472   5.354
 5619POPC   PO471748  12.139  34.821   5.198
 5619POPC   GL171749  12.212  35.073   5.676
 5619POPC   GL271750  11.922  35.279   5.798
 5619POPC   C1A71751  12.342  35.309   6.119
 5619POPC   D2A71752  12.177  35.342   6.596
 5619POPC   C3A71753  12.353  35.480   6.999
 5619POPC   C4A71754  12.077  35.438   7.347
 5619POPC   C1B71755  11.830  35.321   6.233
 5619POPC   C2B71756  11.718  35.598   6.612
 5619POPC   C3B71757  11.676  35.652   7.075
 5619POPC   C4B71758  11.833  35.871   7.469
 5620POPC   NC371759  37.131  10.847   5.332
 5620POPC   PO471760  36.725  10.399   5.090
 5620POPC   GL171761  36.758  10.456   5.590
 5620POPC   GL271762  37.012  10.640   5.784
 5620POPC   C1A71763  36.645  10.340   6.040
 5620POPC   D2A71764  36.479  10.337   6.473
 5620POPC   C3A71765  36.766  10.219   6.810
 5620POPC   C4A71766  36.875  10.458   7.155
 5620POPC   C1B71767  36.881  10.788   6.177
 5620POPC   C2B71768  36.958  10.613   6.555
 5620POPC   C3B71769  37.126  10.794   6.891
 5620POPC   C4B71770  36.957  10.951   7.265
 5621POPC   NC371771  38.231  43.506   5.121
 5621POPC   PO471772  37.687  43.806   5.332
 5621POPC   GL171773  37.633  43.972   5.754
 5621POPC   GL271774  37.948  44.118   5.842
 5621POPC   C1A71775  37.569  43.831   6.175
 5621POPC   D2A71776  37.407  43.790   6.593
 5621POPC   C3A71777  37.579  43.559   6.918
 5621POPC   C4A71778  37.835  43.595   7.258
 5621POPC   C1B71779  38.040  43.925   6.271
 5621POPC   C2B71780  38.084  43.863   6.736
 5621POPC   C3B71781  37.865  44.054   7.068
 5621POPC   C4B71782  37.444  44.048   7.030
 5622POPC   NC371783  42.903  13.991   5.544
 5622POPC   PO471784  43.138  13.369   5.459
 5622POPC   GL171785  42.959  13.552   5.799
 5622POPC   GL271786  43.303  13.624   5.892
 5622POPC   C1A71787  42.909  13.735   6.212
 5622POPC   D2A71788  43.126  13.754   6.609
 5622POPC   C3A71789  43.014  13.568   6.973
 5622POPC   C4A71790  42.851  13.719   7.332
 5622POPC   C1B71791  43.485  13.833   6.234
 5622POPC   C2B71792  43.534  14.047   6.628
 5622POPC   C3B71793  43.576  13.788   6.978
 5622POPC   C4B71794  43.355  13.667   7.343
 5623POPC   NC371795  20.444  13.102   4.992
 5623POPC   PO471796  20.808  13.165   5.551
 5623POPC   GL171797  20.887  12.921   5.944
 5623POPC   GL271798  20.576  12.796   6.031
 5623POPC   C1A71799  20.950  12.905   6.404
 5623POPC   D2A71800  20.608  12.810   6.704
 5623POPC   C3A71801  20.624  12.655   7.140
 5623POPC   C4A71802  20.633  12.851   7.582
 5623POPC   C1B71803  20.563  13.195   6.290
 5623POPC   C2B71804  20.751  13.311   6.709
 5623POPC   C3B71805  20.662  13.150   7.138
 5623POPC   C4B71806  20.387  13.289   7.495
 5624POPC   NC371807  36.224  22.561   5.207
 5624POPC   PO471808  36.157  21.899   5.389
 5624POPC   GL171809  36.208  22.170   5.710
 5624POPC   GL271810  35.904  22.061   5.853
 5624POPC   C1A71811  36.236  22.269   6.154
 5624POPC   D2A71812  36.104  21.966   6.470
 5624POPC   C3A71813  36.309  22.090   6.851
 5624POPC   C4A71814  36.259  22.366   7.191
 5624POPC   C1B71815  35.689  22.151   6.173
 5624POPC   C2B71816  35.563  22.092   6.555
 5624POPC   C3B71817  35.787  21.973   6.895
 5624POPC   C4B71818  35.999  21.909   7.248
 5625POPC   NC371819  23.429   2.056   5.253
 5625POPC   PO471820  24.071   1.713   5.414
 5625POPC   GL171821  24.041   1.864   5.824
 5625POPC   GL271822  23.694   2.032   5.814
 5625POPC   C1A71823  23.983   1.874   6.250
 5625POPC   D2A71824  23.755   1.820   6.592
 5625POPC   C3A71825  24.011   1.777   6.919
 5625POPC   C4A71826  23.902   2.043   7.223
 5625POPC   C1B71827  23.724   2.312   6.191
 5625POPC   C2B71828  23.453   2.383   6.562
 5625POPC   C3B71829  23.465   2.179   6.959
 5625POPC   C4B71830  23.509   1.747   7.034
 5626POPC   NC371831  44.508  31.662   5.463
 5626POPC   PO471832  44.909  31.084   5.542
 5626POPC   GL171833  44.713  31.281   5.858
 5626POPC   GL271834  44.801  31.620   5.916
 5626POPC   C1A71835  44.577  31.333   6.277
 5626POPC   D2A71836  44.437  31.522   6.647
 5626POPC   C3A71837  44.591  31.298   6.991
 5626POPC   C4A71838  44.770  31.139   7.368
 5626POPC   C1B71839  44.738  31.846   6.306
 5626POPC   C2B71840  44.907  31.916   6.712
 5626POPC   C3B71841  44.912  31.679   7.100
 5626POPC   C4B71842  44.760  31.629   7.542
 5627POPC   NC371843  18.859  40.586   5.347
 5627POPC   PO471844  19.320  41.076   5.276
 5627POPC   GL171845  19.110  40.907   5.675
 5627POPC   GL271846  18.733  40.956   5.704
 5627POPC   C1A71847  19.113  40.637   6.092
 5627POPC   D2A71848  19.339  40.622   6.533
 5627POPC   C3A71849  19.125  40.429   6.923
 5627POPC   C4A71850  18.899  40.599   7.287
 5627POPC   C1B71851  18.956  41.128   6.079
 5627POPC   C2B71852  18.879  40.902   6.482
 5627POPC   C3B71853  19.041  40.931   6.898
 5627POPC   C4B71854  18.945  41.117   7.278
 5628POPC   NC371855  12.807  38.122   5.301
 5628POPC   PO471856  12.663  38.767   5.265
 5628POPC   GL171857  12.903  38.607   5.655
 5628POPC   GL271858  12.887  38.254   5.774
 5628POPC   C1A71859  13.083  38.592   6.089
 5628POPC   D2A71860  13.034  38.488   6.519
 5628POPC   C3A71861  12.856  38.703   6.844
 5628POPC   C4A71862  12.799  38.543   7.247
 5628POPC   C1B71863  12.792  38.099   6.137
 5628POPC   C2B71864  12.608  38.192   6.502
 5628POPC   C3B71865  12.815  38.144   6.876
 5628POPC   C4B71866  12.698  37.946   7.222
 5629POPC   NC371867  35.116   9.581   5.378
 5629POPC   PO471868  35.730   9.828   5.298
 5629POPC   GL171869  35.674   9.839   5.765
 5629POPC   GL271870  35.427   9.568   5.823
 5629POPC   C1A71871  35.678   9.802   6.249
 5629POPC   D2A71872  35.409   9.686   6.629
 5629POPC   C3A71873  35.423   9.723   7.092
 5629POPC   C4A71874  35.441   9.675   7.561
 5629POPC   C1B71875  35.232   9.967   6.032
 5629POPC   C2B71876  35.070  10.042   6.470
 5629POPC   C3B71877  35.007   9.970   6.927
 5629POPC   C4B71878  35.081   9.991   7.388
 5630POPC   NC371879  21.091   6.334   5.314
 5630POPC   PO471880  21.434   6.850   5.387
 5630POPC   GL171881  21.401   6.641   5.758
 5630POPC   GL271882  21.096   6.676   5.841
 5630POPC   C1A71883  21.605   6.551   6.134
 5630POPC   D2A71884  21.760   6.308   6.466
 5630POPC   C3A71885  21.590   6.384   6.875
 5630POPC   C4A71886  21.589   6.660   7.209
 5630POPC   C1B71887  21.118   6.473   6.242
 5630POPC   C2B71888  21.244   6.679   6.636
 5630POPC   C3B71889  21.101   6.649   7.066
 5630POPC   C4B71890  21.126   6.499   7.518
 5631POPC   NC371891  15.499  29.058   5.454
 5631POPC   PO471892  15.136  29.550   5.154
 5631POPC   GL171893  15.311  29.504   5.687
 5631POPC   GL271894  15.333  29.136   5.909
 5631POPC   C1A71895  15.090  29.500   6.115
 5631POPC   D2A71896  15.009  29.409   6.554
 5631POPC   C3A71897  15.295  29.230   6.853
 5631POPC   C4A71898  15.216  29.263   7.300
 5631POPC   C1B71899  15.108  28.978   6.251
 5631POPC   C2B71900  14.954  28.892   6.634
 5631POPC   C3B71901  14.998  28.863   7.052
 5631POPC   C4B71902  14.925  28.906   7.498
 5632POPC   NC371903  17.340  40.343   5.369
 5632POPC   PO471904  17.789  39.906   5.233
 5632POPC   GL171905  17.708  39.985   5.665
 5632POPC   GL271906  17.675  40.305   5.764
 5632POPC   C1A71907  17.602  39.868   6.097
 5632POPC   D2A71908  17.537  40.042   6.515
 5632POPC   C3A71909  17.426  39.791   6.876
 5632POPC   C4A71910  17.605  39.865   7.273
 5632POPC   C1B71911  17.290  40.267   6.064
 5632POPC   C2B71912  17.217  40.410   6.495
 5632POPC   C3B71913  17.133  40.230   6.921
 5632POPC   C4B71914  17.113  39.936   7.305
 5633POPC   NC371915  42.034  16.833   5.529
 5633POPC   PO471916  42.603  16.487   5.329
 5633POPC   GL171917  42.539  16.741   5.698
 5633POPC   GL271918  42.318  16.503   5.859
 5633POPC   C1A71919  42.418  16.962   6.115
 5633POPC   D2A71920  42.084  17.000   6.463
 5633POPC   C3A71921  42.181  16.889   6.921
 5633POPC   C4A71922  42.531  17.082   7.147
 5633POPC   C1B71923  42.565  16.410   6.260
 5633POPC   C2B71924  42.489  16.356   6.727
 5633POPC   C3B71925  42.578  16.511   7.169
 5633POPC   C4B71926  42.641  16.348   7.662
 5634POPC   NC371927  23.201  10.564   5.564
 5634POPC   PO471928  22.637  10.754   5.443
 5634POPC   GL171929  22.748  10.669   5.874
 5634POPC   GL271930  22.895  10.349   5.916
 5634POPC   C1A71931  23.037  10.684   6.244
 5634POPC   D2A71932  23.176  10.652   6.653
 5634POPC   C3A71933  23.096  10.291   6.899
 5634POPC   C4A71934  23.134  10.480   7.303
 5634POPC   C1B71935  22.594  10.324   6.224
 5634POPC   C2B71936  22.690  10.464   6.601
 5634POPC   C3B71937  22.716  10.604   6.998
 5634POPC   C4B71938  22.673  10.258   7.288
 5635POPC   NC371939  42.405  25.903   5.441
 5635POPC   PO471940  41.965  26.387   5.490
 5635POPC   GL171941  42.190  26.182   5.809
 5635POPC   GL271942  42.503  26.341   5.876
 5635POPC   C1A71943  42.185  25.915   6.142
 5635POPC   D2A71944  42.072  25.791   6.555
 5635POPC   C3A71945  42.210  25.987   6.963
 5635POPC   C4A71946  42.146  26.071   7.410
 5635POPC   C1B71947  42.662  26.094   6.245
 5635POPC   C2B71948  42.837  25.752   6.539
 5635POPC   C3B71949  42.637  25.590   6.922
 5635POPC   C4B71950  42.513  25.728   7.351
 5636POPC   NC371951  28.896  38.891   5.397
 5636POPC   PO471952  29.369  39.420   5.444
 5636POPC   GL171953  29.131  39.323   5.813
 5636POPC   GL271954  29.227  38.983   5.801
 5636POPC   C1A71955  29.148  39.416   6.274
 5636POPC   D2A71956  28.913  39.411   6.676
 5636POPC   C3A71957  29.079  39.378   7.102
 5636POPC   C4A71958  28.844  39.344   7.511
 5636POPC   C1B71959  28.980  38.938   6.168
 5636POPC   C2B71960  29.065  38.940   6.577
 5636POPC   C3B71961  28.890  38.909   6.979
 5636POPC   C4B71962  29.064  38.922   7.378
 5637POPC   NC371963  23.476  32.543   5.484
 5637POPC   PO471964  23.733  31.931   5.539
 5637POPC   GL171965  23.942  32.178   5.853
 5637POPC   GL271966  23.678  32.405   5.951
 5637POPC   C1A71967  23.894  32.082   6.295
 5637POPC   D2A71968  23.589  32.094   6.613
 5637POPC   C3A71969  23.732  32.199   6.983
 5637POPC   C4A71970  23.852  32.004   7.341
 5637POPC   C1B71971  23.369  32.106   6.147
 5637POPC   C2B71972  23.068  32.105   6.521
 5637POPC   C3B71973  23.177  32.136   6.986
 5637POPC   C4B71974  23.107  32.186   7.452
 5638POPC   NC371975  16.055  31.398   5.320
 5638POPC   PO471976  15.508  31.697   5.540
 5638POPC   GL171977  15.858  31.376   5.788
 5638POPC   GL271978  16.250  31.281   5.767
 5638POPC   C1A71979  16.015  31.293   6.210
 5638POPC   D2A71980  15.845  31.407   6.568
 5638POPC   C3A71981  16.100  31.342   6.903
 5638POPC   C4A71982  15.928  31.211   7.261
 5638POPC   C1B71983  16.329  31.665   6.043
 5638POPC   C2B71984  16.229  31.722   6.485
 5638POPC   C3B71985  16.142  31.877   6.913
 5638POPC   C4B71986  16.297  32.100   7.261
 5639POPC   NC371987  24.203  27.977   5.451
 5639POPC   PO471988  23.800  27.385   5.366
 5639POPC   GL171989  23.892  27.636   5.759
 5639POPC   GL271990  23.550  27.767   5.887
 5639POPC   C1A71991  23.846  27.505   6.218
 5639POPC   D2A71992  23.464  27.570   6.527
 5639POPC   C3A71993  23.602  27.479   6.938
 5639POPC   C4A71994  23.897  27.619   7.205
 5639POPC   C1B71995  23.704  27.979   6.288
 5639POPC   C2B71996  23.805  27.895   6.718
 5639POPC   C3B71997  23.575  27.995   7.091
 5639POPC   C4B71998  23.693  27.938   7.575
 5640POPC   NC371999  24.612  38.896   5.442
 5640POPC   PO472000  24.733  39.563   5.467
 5640POPC   GL172001  24.486  39.421   5.831
 5640POPC   GL272002  24.441  39.064   5.883
 5640POPC   C1A72003  24.504  39.352   6.298
 5640POPC   D2A72004  24.730  39.318   6.680
 5640POPC   C3A72005  24.461  39.275   7.058
 5640POPC   C4A72006  24.230  39.560   7.292
 5640POPC   C1B72007  24.136  39.018   6.200
 5640POPC   C2B72008  24.260  39.015   6.656
 5640POPC   C3B72009  24.156  38.864   7.108
 5640POPC   C4B72010  24.500  38.878   7.430
 5641POPC   NC372011  25.638  30.177   5.624
 5641POPC   PO472012  25.194  30.516   5.252
 5641POPC   GL172013  25.156  30.757   5.669
 5641POPC   GL272014  25.463  30.640   5.779
 5641POPC   C1A72015  25.176  30.848   6.153
 5641POPC   D2A72016  24.958  30.720   6.558
 5641POPC   C3A72017  25.130  30.762   6.999
 5641POPC   C4A72018  25.049  30.830   7.464
 5641POPC   C1B72019  25.687  30.670   6.182
 5641POPC   C2B72020  25.483  30.611   6.579
 5641POPC   C3B72021  25.450  30.320   6.924
 5641POPC   C4B72022  25.328  30.403   7.311
 5642POPC   NC372023   8.583   5.202   5.537
 5642POPC   PO472024   7.880   5.285   5.408
 5642POPC   GL172025   8.107   5.128   5.740
 5642POPC   GL272026   8.229   5.449   5.816
 5642POPC   C1A72027   8.176   5.122   6.190
 5642POPC   D2A72028   8.094   5.312   6.554
 5642POPC   C3A72029   7.924   5.071   6.878
 5642POPC   C4A72030   8.011   5.210   7.286
 5642POPC   C1B72031   8.601   5.421   6.139
 5642POPC   C2B72032   8.603   5.320   6.568
 5642POPC   C3B72033   8.391   5.421   6.968
 5642POPC   C4B72034   8.349   5.593   7.369
 5643POPC   NC372035  28.841  30.588   5.572
 5643POPC   PO472036  29.112  29.901   5.448
 5643POPC   GL172037  29.062  29.829   5.886
 5643POPC   GL272038  28.724  29.804   6.021
 5643POPC   C1A72039  29.070  30.001   6.345
 5643POPC   D2A72040  28.951  30.015   6.798
 5643POPC   C3A72041  29.316  29.998   7.042
 5643POPC   C4A72042  29.388  30.041   7.484
 5643POPC   C1B72043  28.993  29.501   6.261
 5643POPC   C2B72044  29.208  29.570   6.662
 5643POPC   C3B72045  29.051  29.551   7.069
 5643POPC   C4B72046  28.918  29.920   7.352
 5644POPC   NC372047  27.691  28.699   5.101
 5644POPC   PO472048  27.438  29.333   5.253
 5644POPC   GL172049  27.400  29.200   5.669
 5644POPC   GL272050  27.248  29.506   5.776
 5644POPC   C1A72051  27.585  28.920   6.015
 5644POPC   D2A72052  27.868  28.828   6.395
 5644POPC   C3A72053  27.827  28.932   6.792
 5644POPC   C4A72054  27.628  28.961   7.176
 5644POPC   C1B72055  27.545  29.426   6.109
 5644POPC   C2B72056  27.463  29.159   6.453
 5644POPC   C3B72057  27.489  29.315   6.835
 5644POPC   C4B72058  27.382  29.417   7.224
 5645POPC   NC372059  22.488   6.094   5.385
 5645POPC   PO472060  21.836   5.984   5.472
 5645POPC   GL172061  22.181   5.762   5.672
 5645POPC   GL272062  21.981   5.529   5.818
 5645POPC   C1A72063  22.378   5.784   6.093
 5645POPC   D2A72064  22.303   6.073   6.436
 5645POPC   C3A72065  22.350   5.878   6.834
 5645POPC   C4A72066  22.459   5.793   7.237
 5645POPC   C1B72067  21.879   5.872   6.152
 5645POPC   C2B72068  21.867   5.839   6.604
 5645POPC   C3B72069  21.897   6.004   7.034
 5645POPC   C4B72070  22.091   6.092   7.440
 5646POPC   NC372071  19.364   6.735   5.429
 5646POPC   PO472072  18.741   6.409   5.554
 5646POPC   GL172073  19.136   6.466   5.827
 5646POPC   GL272074  19.208   6.830   5.886
 5646POPC   C1A72075  19.226   6.524   6.284
 5646POPC   D2A72076  19.172   6.768   6.675
 5646POPC   C3A72077  19.014   6.532   7.008
 5646POPC   C4A72078  18.751   6.512   7.366
 5646POPC   C1B72079  19.213   7.067   6.236
 5646POPC   C2B72080  19.490   7.160   6.553
 5646POPC   C3B72081  19.287   7.209   6.941
 5646POPC   C4B72082  19.279   6.882   7.259
 5647POPC   NC372083  17.602  32.527   5.305
 5647POPC   PO472084  17.268  31.931   5.173
 5647POPC   GL172085  17.383  32.166   5.625
 5647POPC   GL272086  17.095  32.371   5.754
 5647POPC   C1A72087  17.636  32.253   6.049
 5647POPC   D2A72088  17.645  32.289   6.556
 5647POPC   C3A72089  17.855  32.443   6.975
 5647POPC   C4A72090  17.725  32.445   7.449
 5647POPC   C1B72091  17.152  32.053   6.090
 5647POPC   C2B72092  17.287  31.921   6.502
 5647POPC   C3B72093  17.244  32.136   6.877
 5647POPC   C4B72094  17.332  32.132   7.303
 5648POPC   NC372095  22.483  37.373   5.603
 5648POPC   PO472096  22.285  37.949   5.339
 5648POPC   GL172097  22.205  37.783   5.753
 5648POPC   GL272098  21.989  37.462   5.717
 5648POPC   C1A72099  22.185  37.933   6.186
 5648POPC   D2A72100  22.126  38.041   6.618
 5648POPC   C3A72101  22.443  37.898   6.866
 5648POPC   C4A72102  22.536  37.620   7.203
 5648POPC   C1B72103  22.017  37.433   6.183
 5648POPC   C2B72104  22.185  37.520   6.615
 5648POPC   C3B72105  22.017  37.677   7.039
 5648POPC   C4B72106  21.641  37.622   7.319
 5649POPC   NC372107  16.585  11.338   5.285
 5649POPC   PO472108  16.745  10.753   5.499
 5649POPC   GL172109  16.625  10.986   5.873
 5649POPC   GL272110  16.928  11.067   6.086
 5649POPC   C1A72111  16.457  11.052   6.297
 5649POPC   D2A72112  16.658  11.114   6.703
 5649POPC   C3A72113  16.480  11.160   7.124
 5649POPC   C4A72114  16.659  11.055   7.533
 5649POPC   C1B72115  16.934  11.429   6.393
 5649POPC   C2B72116  16.855  11.560   6.846
 5649POPC   C3B72117  16.975  11.298   7.214
 5649POPC   C4B72118  17.293  11.401   7.529
 5650POPC   NC372119  40.016  29.834   5.348
 5650POPC   PO472120  40.437  30.423   5.417
 5650POPC   GL172121  40.339  30.059   5.701
 5650POPC   GL272122  39.946  30.056   5.802
 5650POPC   C1A72123  40.304  29.924   6.128
 5650POPC   D2A72124  40.110  30.187   6.457
 5650POPC   C3A72125  40.191  29.987   6.861
 5650POPC   C4A72126  40.325  29.787   7.242
 5650POPC   C1B72127  39.733  29.889   6.188
 5650POPC   C2B72128  39.721  29.889   6.646
 5650POPC   C3B72129  39.790  29.725   7.057
 5650POPC   C4B72130  39.839  29.785   7.504
 5651POPC   NC372131  18.806  42.886   5.671
 5651POPC   PO472132  19.212  43.372   5.435
 5651POPC   GL172133  19.209  43.150   5.820
 5651POPC   GL272134  18.905  43.380   5.892
 5651POPC   C1A72135  19.062  43.081   6.262
 5651POPC   D2A72136  18.920  43.250   6.637
 5651POPC   C3A72137  18.980  42.952   6.968
 5651POPC   C4A72138  19.202  43.036   7.318
 5651POPC   C1B72139  19.329  43.526   6.131
 5651POPC   C2B72140  19.567  43.401   6.510
 5651POPC   C3B72141  19.389  43.269   6.886
 5651POPC   C4B72142  19.303  43.510   7.266
 5652POPC   NC372143  26.633  11.088   5.541
 5652POPC   PO472144  26.024  11.396   5.350
 5652POPC   GL172145  26.002  11.423   5.824
 5652POPC   GL272146  26.162  11.112   5.781
 5652POPC   C1A72147  25.925  11.522   6.294
 5652POPC   D2A72148  25.812  11.423   6.769
 5652POPC   C3A72149  26.085  11.586   7.138
 5652POPC   C4A72150  26.224  11.572   7.606
 5652POPC   C1B72151  26.375  11.078   6.163
 5652POPC   C2B72152  26.198  11.145   6.531
 5652POPC   C3B72153  26.237  11.149   6.960
 5652POPC   C4B72154  26.083  11.133   7.393
 5653POPC   NC372155  38.242  11.860   5.499
 5653POPC   PO472156  38.696  12.264   5.418
 5653POPC   GL172157  38.464  12.231   5.802
 5653POPC   GL272158  38.499  11.880   5.948
 5653POPC   C1A72159  38.527  12.270   6.244
 5653POPC   D2A72160  38.413  11.962   6.555
 5653POPC   C3A72161  38.539  12.170   6.906
 5653POPC   C4A72162  38.334  12.114   7.276
 5653POPC   C1B72163  38.837  11.853   6.267
 5653POPC   C2B72164  38.914  11.856   6.733
 5653POPC   C3B72165  38.588  11.682   7.056
 5653POPC   C4B72166  38.305  11.650   7.474
 5654POPC   NC372167  20.886  12.709   5.448
 5654POPC   PO472168  21.604  12.711   5.424
 5654POPC   GL172169  21.332  12.824   5.724
 5654POPC   GL272170  21.175  12.486   5.805
 5654POPC   C1A72171  21.358  13.073   6.131
 5654POPC   D2A72172  21.434  12.995   6.592
 5654POPC   C3A72173  21.093  12.979   6.906
 5654POPC   C4A72174  21.077  12.838   7.333
 5654POPC   C1B72175  21.300  12.575   6.218
 5654POPC   C2B72176  21.496  12.488   6.589
 5654POPC   C3B72177  21.438  12.626   7.009
 5654POPC   C4B72178  21.407  12.378   7.388
 5655POPC   NC372179   1.576  26.095   5.384
 5655POPC   PO472180   2.229  26.150   5.300
 5655POPC   GL172181   2.088  25.968   5.651
 5655POPC   GL272182   2.403  25.795   5.694
 5655POPC   C1A72183   1.945  26.049   6.083
 5655POPC   D2A72184   1.882  25.852   6.498
 5655POPC   C3A72185   1.929  26.009   6.932
 5655POPC   C4A72186   1.952  25.786   7.323
 5655POPC   C1B72187   2.351  25.769   6.153
 5655POPC   C2B72188   2.339  26.082   6.500
 5655POPC   C3B72189   2.441  26.120   6.948
 5655POPC   C4B72190   2.486  25.810   7.269
 5656POPC   NC372191  16.088  38.139   5.611
 5656POPC   PO472192  15.801  38.707   5.418
 5656POPC   GL172193  16.072  38.755   5.758
 5656POPC   GL272194  15.805  38.972   5.865
 5656POPC   C1A72195  16.177  38.569   6.150
 5656POPC   D2A72196  15.991  38.316   6.465
 5656POPC   C3A72197  16.050  38.450   6.894
 5656POPC   C4A72198  15.829  38.274   7.217
 5656POPC   C1B72199  15.737  38.818   6.278
 5656POPC   C2B72200  15.815  38.914   6.696
 5656POPC   C3B72201  15.706  38.797   7.112
 5656POPC   C4B72202  15.680  38.884   7.567
 5657POPC   NC372203  40.947  36.616   5.586
 5657POPC   PO472204  40.321  36.747   5.707
 5657POPC   GL172205  40.729  36.947   5.905
 5657POPC   GL272206  41.130  37.034   5.790
 5657POPC   C1A72207  40.952  36.776   6.224
 5657POPC   D2A72208  40.688  36.669   6.526
 5657POPC   C3A72209  40.785  36.747   6.911
 5657POPC   C4A72210  40.835  37.047   7.181
 5657POPC   C1B72211  41.135  37.241   6.174
 5657POPC   C2B72212  41.153  37.081   6.592
 5657POPC   C3B72213  41.149  37.338   6.919
 5657POPC   C4B72214  41.331  37.422   7.269
 5658POPC   NC372215  29.745  39.645   5.283
 5658POPC   PO472216  30.150  39.089   5.398
 5658POPC   GL172217  30.272  39.235   5.805
 5658POPC   GL272218  29.996  39.042   5.917
 5658POPC   C1A72219  30.330  39.207   6.275
 5658POPC   D2A72220  29.946  39.248   6.547
 5658POPC   C3A72221  29.908  39.098   6.982
 5658POPC   C4A72222  29.653  39.382   7.264
 5658POPC   C1B72223  29.617  39.022   6.166
 5658POPC   C2B72224  29.572  38.849   6.574
 5658POPC   C3B72225  29.408  38.970   6.970
 5658POPC   C4B72226  29.565  38.880   7.349
 5659POPC   NC372227   3.914  18.471   5.500
 5659POPC   PO472228   4.425  18.090   5.410
 5659POPC   GL172229   4.299  18.171   5.825
 5659POPC   GL272230   3.984  18.059   5.854
 5659POPC   C1A72231   4.199  18.281   6.281
 5659POPC   D2A72232   4.326  18.089   6.700
 5659POPC   C3A72233   4.405  18.409   7.041
 5659POPC   C4A72234   4.142  18.618   7.334
 5659POPC   C1B72235   3.772  17.974   6.250
 5659POPC   C2B72236   3.837  17.882   6.701
 5659POPC   C3B72237   3.944  18.114   7.055
 5659POPC   C4B72238   4.166  18.107   7.441
 5660POPC   NC372239  13.856  38.424   5.612
 5660POPC   PO472240  13.241  38.299   5.408
 5660POPC   GL172241  13.391  38.182   5.860
 5660POPC   GL272242  13.739  38.152   6.031
 5660POPC   C1A72243  13.287  38.110   6.301
 5660POPC   D2A72244  13.493  38.303   6.696
 5660POPC   C3A72245  13.239  38.391   7.037
 5660POPC   C4A72246  13.118  38.194   7.442
 5660POPC   C1B72247  13.583  38.540   6.251
 5660POPC   C2B72248  13.771  38.740   6.643
 5660POPC   C3B72249  13.674  38.715   7.084
 5660POPC   C4B72250  13.531  38.531   7.466
 5661POPC   NC372251  27.009  12.214   4.931
 5661POPC   PO472252  26.755  12.578   5.480
 5661POPC   GL172253  26.680  12.880   5.846
 5661POPC   GL272254  26.347  12.869   5.950
 5661POPC   C1A72255  26.788  12.981   6.311
 5661POPC   D2A72256  26.941  12.709   6.684
 5661POPC   C3A72257  27.162  12.887   7.053
 5661POPC   C4A72258  27.400  12.968   7.448
 5661POPC   C1B72259  26.502  12.572   6.250
 5661POPC   C2B72260  26.441  12.591   6.703
 5661POPC   C3B72261  26.645  12.688   7.131
 5661POPC   C4B72262  26.619  12.569   7.594
 5662POPC   NC372263  19.002   1.458   5.376
 5662POPC   PO472264  19.499   1.051   5.453
 5662POPC   GL172265  19.189   1.065   5.812
 5662POPC   GL272266  18.831   1.217   5.829
 5662POPC   C1A72267  19.163   1.255   6.251
 5662POPC   D2A72268  19.204   1.475   6.672
 5662POPC   C3A72269  19.017   1.190   6.938
 5662POPC   C4A72270  18.848   0.782   7.078
 5662POPC   C1B72271  18.726   1.536   6.147
 5662POPC   C2B72272  18.653   1.481   6.600
 5662POPC   C3B72273  18.777   1.631   7.016
 5662POPC   C4B72274  18.648   1.562   7.432
 5663POPC   NC372275  33.286  37.688   5.259
 5663POPC   PO472276  33.981  37.389   5.388
 5663POPC   GL172277  34.013  37.713   5.718
 5663POPC   GL272278  33.726  37.919   5.737
 5663POPC   C1A72279  34.046  37.866   6.150
 5663POPC   D2A72280  33.827  37.687   6.509
 5663POPC   C3A72281  34.012  37.602   6.883
 5663POPC   C4A72282  33.843  37.800   7.229
 5663POPC   C1B72283  33.516  37.894   6.137
 5663POPC   C2B72284  33.432  37.986   6.562
 5663POPC   C3B72285  33.393  37.957   6.991
 5663POPC   C4B72286  33.400  37.934   7.447
 5664POPC   NC372287  32.487  41.328   5.541
 5664POPC   PO472288  31.971  41.730   5.477
 5664POPC   GL172289  32.028  41.500   5.845
 5664POPC   GL272290  32.346  41.657   5.908
 5664POPC   C1A72291  32.017  41.649   6.285
 5664POPC   D2A72292  32.216  41.524   6.651
 5664POPC   C3A72293  32.045  41.595   7.066
 5664POPC   C4A72294  31.951  41.275   7.383
 5664POPC   C1B72295  32.607  41.739   6.268
 5664POPC   C2B72296  32.684  41.711   6.712
 5664POPC   C3B72297  32.550  41.754   7.130
 5664POPC   C4B72298  32.373  41.552   7.467
 5665POPC   NC372299  23.951  12.146   5.286
 5665POPC   PO472300  23.289  11.897   5.577
 5665POPC   GL172301  23.675  12.104   5.746
 5665POPC   GL272302  23.939  11.865   5.853
 5665POPC   C1A72303  23.780  12.313   6.142
 5665POPC   D2A72304  23.926  12.096   6.508
 5665POPC   C3A72305  23.743  12.165   6.916
 5665POPC   C4A72306  23.876  11.954   7.283
 5665POPC   C1B72307  23.601  11.832   6.202
 5665POPC   C2B72308  23.349  11.719   6.582
 5665POPC   C3B72309  23.427  11.633   7.025
 5665POPC   C4B72310  23.388  11.891   7.382
 5666POPC   NC372311  26.461  35.816   5.136
 5666POPC   PO472312  25.960  36.264   5.272
 5666POPC   GL172313  25.932  36.124   5.702
 5666POPC   GL272314  26.203  36.366   5.749
 5666POPC   C1A72315  26.023  36.029   6.209
 5666POPC   D2A72316  25.885  35.865   6.669
 5666POPC   C3A72317  26.110  35.918   7.067
 5666POPC   C4A72318  26.302  36.283   7.214
 5666POPC   C1B72319  25.885  36.480   6.050
 5666POPC   C2B72320  25.994  36.497   6.461
 5666POPC   C3B72321  25.893  36.351   6.887
 5666POPC   C4B72322  25.607  36.570   7.158
 5667POPC   NC372323  28.475  32.590   5.334
 5667POPC   PO472324  28.202  31.912   5.429
 5667POPC   GL172325  28.477  32.138   5.672
 5667POPC   GL272326  28.283  32.430   5.772
 5667POPC   C1A72327  28.605  32.118   6.092
 5667POPC   D2A72328  28.282  32.255   6.352
 5667POPC   C3A72329  28.185  32.029   6.718
 5667POPC   C4A72330  28.326  32.059   7.136
 5667POPC   C1B72331  28.527  32.630   6.059
 5667POPC   C2B72332  28.611  32.625   6.498
 5667POPC   C3B72333  28.419  32.567   6.879
 5667POPC   C4B72334  28.613  32.469   7.253
 5668POPC   NC372335  12.925  14.101   5.462
 5668POPC   PO472336  12.939  13.462   5.414
 5668POPC   GL172337  13.005  13.574   5.843
 5668POPC   GL272338  12.759  13.810   5.864
 5668POPC   C1A72339  13.015  13.394   6.264
 5668POPC   D2A72340  12.993  13.545   6.680
 5668POPC   C3A72341  13.247  13.377   7.044
 5668POPC   C4A72342  13.130  13.493   7.484
 5668POPC   C1B72343  12.978  13.922   6.253
 5668POPC   C2B72344  12.974  14.253   6.567
 5668POPC   C3B72345  13.037  14.164   7.002
 5668POPC   C4B72346  12.885  13.754   7.141
 5669POPC   NC372347  21.353  25.163   5.322
 5669POPC   PO472348  21.726  25.647   5.609
 5669POPC   GL172349  21.774  25.176   5.824
 5669POPC   GL272350  21.539  24.850   5.771
 5669POPC   C1A72351  21.764  25.164   6.299
 5669POPC   D2A72352  21.656  25.355   6.699
 5669POPC   C3A72353  21.647  25.187   7.146
 5669POPC   C4A72354  21.744  25.098   7.623
 5669POPC   C1B72355  21.187  24.870   6.089
 5669POPC   C2B72356  21.121  24.943   6.544
 5669POPC   C3B72357  21.195  25.178   6.939
 5669POPC   C4B72358  21.246  25.036   7.401
 5670POPC   NC372359   4.480  19.261   5.270
 5670POPC   PO472360   3.885  18.939   5.335
 5670POPC   GL172361   4.171  18.948   5.680
 5670POPC   GL272362   4.279  19.281   5.790
 5670POPC   C1A72363   4.170  18.874   6.121
 5670POPC   D2A72364   4.037  18.816   6.541
 5670POPC   C3A72365   4.349  18.973   6.820
 5670POPC   C4A72366   4.302  19.080   7.194
 5670POPC   C1B72367   4.512  19.381   6.198
 5670POPC   C2B72368   4.633  19.410   6.641
 5670POPC   C3B72369   4.617  19.444   7.093
 5670POPC   C4B72370   4.702  19.275   7.536
 5671POPC   NC372371  28.693  42.421   5.384
 5671POPC   PO472372  29.352  42.256   5.336
 5671POPC   GL172373  29.161  42.315   5.725
 5671POPC   GL272374  29.004  42.641   5.779
 5671POPC   C1A72375  29.310  42.153   6.102
 5671POPC   D2A72376  29.258  42.263   6.530
 5671POPC   C3A72377  29.148  42.130   6.932
 5671POPC   C4A72378  29.409  42.365   7.180
 5671POPC   C1B72379  28.949  42.501   6.205
 5671POPC   C2B72380  28.877  42.582   6.642
 5671POPC   C3B72381  28.967  42.604   7.053
 5671POPC   C4B72382  28.958  42.358   7.441
 5672POPC   NC372383   5.861  38.665   5.503
 5672POPC   PO472384   5.569  38.088   5.537
 5672POPC   GL172385   5.614  38.345   5.877
 5672POPC   GL272386   5.951  38.284   5.875
 5672POPC   C1A72387   5.722  38.534   6.287
 5672POPC   D2A72388   5.705  38.711   6.719
 5672POPC   C3A72389   5.971  38.668   7.079
 5672POPC   C4A72390   5.776  38.512   7.504
 5672POPC   C1B72391   6.108  38.172   6.264
 5672POPC   C2B72392   6.019  38.284   6.700
 5672POPC   C3B72393   6.133  38.202   7.146
 5672POPC   C4B72394   6.132  38.152   7.604
 5673POPC   NC372395  33.138  13.135   5.419
 5673POPC   PO472396  33.143  13.743   5.344
 5673POPC   GL172397  32.930  13.565   5.693
 5673POPC   GL272398  33.225  13.440   5.801
 5673POPC   C1A72399  32.889  13.564   6.162
 5673POPC   D2A72400  32.865  13.821   6.561
 5673POPC   C3A72401  32.712  13.714   6.967
 5673POPC   C4A72402  32.813  13.641   7.375
 5673POPC   C1B72403  33.351  13.271   6.150
 5673POPC   C2B72404  33.228  13.442   6.526
 5673POPC   C3B72405  33.372  13.410   6.916
 5673POPC   C4B72406  33.127  13.256   7.242
 5674POPC   NC372407  32.483  15.646   5.607
 5674POPC   PO472408  32.358  16.274   5.571
 5674POPC   GL172409  32.269  15.980   5.933
 5674POPC   GL272410  32.051  15.662   5.907
 5674POPC   C1A72411  32.200  15.923   6.370
 5674POPC   D2A72412  32.146  15.619   6.710
 5674POPC   C3A72413  32.146  15.839   7.041
 5674POPC   C4A72414  32.435  15.803   7.314
 5674POPC   C1B72415  31.775  15.669   6.308
 5674POPC   C2B72416  31.699  15.857   6.751
 5674POPC   C3B72417  31.662  15.939   7.218
 5674POPC   C4B72418  31.631  15.941   7.692
 5675POPC   NC372419  11.123   1.475   5.475
 5675POPC   PO472420  11.403   0.837   5.455
 5675POPC   GL172421  11.450   1.232   5.791
 5675POPC   GL272422  11.112   1.187   5.913
 5675POPC   C1A72423  11.379   1.450   6.237
 5675POPC   D2A72424  11.137   1.219   6.584
 5675POPC   C3A72425  11.342   1.329   6.986
 5675POPC   C4A72426  11.475   1.457   7.425
 5675POPC   C1B72427  11.386   0.942   6.230
 5675POPC   C2B72428  11.563   0.937   6.697
 5675POPC   C3B72429  11.472   0.718   7.133
 5675POPC   C4B72430  11.211   0.573   7.551
 5676POPC   NC372431   3.494  23.762   5.320
 5676POPC   PO472432   3.781  23.244   5.638
 5676POPC   GL172433   3.641  23.648   5.819
 5676POPC   GL272434   3.395  23.922   5.800
 5676POPC   C1A72435   3.661  23.825   6.204
 5676POPC   D2A72436   3.773  23.861   6.583
 5676POPC   C3A72437   3.518  23.557   6.804
 5676POPC   C4A72438   3.509  23.567   7.254
 5676POPC   C1B72439   3.252  24.152   6.190
 5676POPC   C2B72440   3.276  24.046   6.623
 5676POPC   C3B72441   3.530  24.025   6.993
 5676POPC   C4B72442   3.363  24.071   7.346
 5677POPC   NC372443   8.495  44.740   5.425
 5677POPC   PO472444   9.000  44.471   5.179
 5677POPC   GL172445   9.094  44.509   5.662
 5677POPC   GL272446   8.858  44.776   5.813
 5677POPC   C1A72447   9.200  44.578   6.130
 5677POPC   D2A72448   9.211  44.845   6.507
 5677POPC   C3A72449   9.057  44.770   6.898
 5677POPC   C4A72450   9.208  44.765   7.282
 5677POPC   C1B72451   8.813   0.020   6.221
 5677POPC   C2B72452   8.751   0.128   6.662
 5677POPC   C3B72453   8.632   0.024   7.092
 5677POPC   C4B72454   8.754  44.820   7.491
 5678POPC   NC372455   9.772  43.811   5.427
 5678POPC   PO472456   9.969  44.501   5.260
 5678POPC   GL172457   9.969  44.169   5.713
 5678POPC   GL272458   9.717  43.957   5.890
 5678POPC   C1A72459  10.076  44.014   6.193
 5678POPC   D2A72460   9.878  44.072   6.588
 5678POPC   C3A72461   9.777  43.967   6.986
 5678POPC   C4A72462  10.023  44.022   7.337
 5678POPC   C1B72463   9.598  43.753   6.268
 5678POPC   C2B72464   9.653  43.556   6.664
 5678POPC   C3B72465   9.567  43.471   7.077
 5678POPC   C4B72466   9.477  43.541   7.468
 5679POPC   NC372467   2.863  27.059   5.327
 5679POPC   PO472468   2.833  27.695   5.258
 5679POPC   GL172469   2.717  27.448   5.667
 5679POPC   GL272470   2.998  27.573   5.815
 5679POPC   C1A72471   2.748  27.289   6.134
 5679POPC   D2A72472   2.946  27.519   6.491
 5679POPC   C3A72473   2.873  27.407   6.912
 5679POPC   C4A72474   2.687  27.373   7.306
 5679POPC   C1B72475   2.738  27.797   6.107
 5679POPC   C2B72476   2.838  28.036   6.456
 5679POPC   C3B72477   2.771  27.905   6.832
 5679POPC   C4B72478   2.881  27.837   7.233
 5680POPC   NC372479  39.740  35.007   5.437
 5680POPC   PO472480  40.348  34.673   5.414
 5680POPC   GL172481  40.077  34.684   5.768
 5680POPC   GL272482  39.967  34.332   5.812
 5680POPC   C1A72483  39.903  34.649   6.199
 5680POPC   D2A72484  39.903  34.421   6.599
 5680POPC   C3A72485  39.909  34.707   6.937
 5680POPC   C4A72486  40.035  34.598   7.331
 5680POPC   C1B72487  40.228  34.249   6.225
 5680POPC   C2B72488  40.374  34.253   6.698
 5680POPC   C3B72489  40.344  34.243   7.174
 5680POPC   C4B72490  40.296  34.316   7.671
 5681POPC   NC372491   6.899   1.712   5.649
 5681POPC   PO472492   6.462   2.105   5.306
 5681POPC   GL172493   6.567   2.066   5.770
 5681POPC   GL272494   6.864   2.263   5.787
 5681POPC   C1A72495   6.787   1.979   6.213
 5681POPC   D2A72496   7.004   1.982   6.597
 5681POPC   C3A72497   6.746   1.946   6.942
 5681POPC   C4A72498   6.987   1.664   7.184
 5681POPC   C1B72499   6.935   2.460   6.175
 5681POPC   C2B72500   6.743   2.429   6.584
 5681POPC   C3B72501   6.946   2.456   6.981
 5681POPC   C4B72502   7.061   2.177   7.266
 5682POPC   NC372503   3.057  11.228   5.190
 5682POPC   PO472504   3.525  11.536   5.590
 5682POPC   GL172505   3.731  11.433   5.931
 5682POPC   GL272506   3.663  11.067   5.882
 5682POPC   C1A72507   3.847  11.273   6.298
 5682POPC   D2A72508   3.653  11.175   6.625
 5682POPC   C3A72509   3.487  11.480   6.867
 5682POPC   C4A72510   3.718  11.510   7.236
 5682POPC   C1B72511   3.360  10.921   6.231
 5682POPC   C2B72512   3.172  11.054   6.639
 5682POPC   C3B72513   3.393  10.973   7.025
 5682POPC   C4B72514   3.444  11.141   7.438
 5683POPC   NC372515  27.561  19.228   5.289
 5683POPC   PO472516  28.089  18.962   5.408
 5683POPC   GL172517  27.826  19.119   5.783
 5683POPC   GL272518  27.479  19.310   5.783
 5683POPC   C1A72519  27.630  19.074   6.222
 5683POPC   D2A72520  27.696  19.324   6.592
 5683POPC   C3A72521  27.743  19.101   7.001
 5683POPC   C4A72522  27.542  18.710   7.199
 5683POPC   C1B72523  27.292  19.466   6.196
 5683POPC   C2B72524  27.159  19.410   6.645
 5683POPC   C3B72525  27.429  19.515   7.035
 5683POPC   C4B72526  27.310  19.501   7.514
 5684POPC   NC372527   5.122  26.984   5.565
 5684POPC   PO472528   5.059  26.343   5.627
 5684POPC   GL172529   5.202  26.616   5.929
 5684POPC   GL272530   4.904  26.820   5.993
 5684POPC   C1A72531   5.348  26.901   6.244
 5684POPC   D2A72532   5.135  27.040   6.618
 5684POPC   C3A72533   5.301  26.788   6.901
 5684POPC   C4A72534   5.519  26.720   7.259
 5684POPC   C1B72535   4.857  26.465   6.296
 5684POPC   C2B72536   4.974  26.299   6.721
 5684POPC   C3B72537   4.937  26.504   7.129
 5684POPC   C4B72538   5.098  26.604   7.547
 5685POPC   NC372539  17.646  36.825   5.424
 5685POPC   PO472540  17.095  37.104   5.459
 5685POPC   GL172541  17.315  37.006   5.812
 5685POPC   GL272542  17.197  36.690   5.820
 5685POPC   C1A72543  17.448  37.111   6.238
 5685POPC   D2A72544  17.693  36.853   6.526
 5685POPC   C3A72545  17.591  36.766   6.960
 5685POPC   C4A72546  17.552  37.152   7.181
 5685POPC   C1B72547  17.277  36.632   6.243
 5685POPC   C2B72548  17.161  36.785   6.651
 5685POPC   C3B72549  17.040  36.662   7.079
 5685POPC   C4B72550  17.075  36.425   7.481
 5686POPC   NC372551   4.139  32.010   5.116
 5686POPC   PO472552   4.506  32.487   5.469
 5686POPC   GL172553   4.233  32.325   5.784
 5686POPC   GL272554   4.101  32.678   5.820
 5686POPC   C1A72555   4.252  32.033   6.175
 5686POPC   D2A72556   4.406  31.815   6.565
 5686POPC   C3A72557   4.381  32.011   7.003
 5686POPC   C4A72558   4.419  31.866   7.475
 5686POPC   C1B72559   4.291  32.561   6.220
 5686POPC   C2B72560   4.477  32.337   6.554
 5686POPC   C3B72561   4.400  32.528   6.924
 5686POPC   C4B72562   4.170  32.558   7.271
 5687POPC   NC372563  17.914  38.731   5.474
 5687POPC   PO472564  17.898  38.060   5.570
 5687POPC   GL172565  17.586  38.207   5.863
 5687POPC   GL272566  17.577  38.581   5.834
 5687POPC   C1A72567  17.437  38.338   6.279
 5687POPC   D2A72568  17.596  38.474   6.682
 5687POPC   C3A72569  17.391  38.461   7.090
 5687POPC   C4A72570  17.688  38.520   7.410
 5687POPC   C1B72571  17.537  38.841   6.191
 5687POPC   C2B72572  17.415  38.984   6.585
 5687POPC   C3B72573  17.627  38.913   6.964
 5687POPC   C4B72574  17.489  38.976   7.352
 5688POPC   NC372575  19.912   1.860   5.460
 5688POPC   PO472576  19.562   2.392   5.584
 5688POPC   GL172577  19.789   2.149   5.900
 5688POPC   GL272578  20.117   2.196   5.899
 5688POPC   C1A72579  19.835   2.115   6.360
 5688POPC   D2A72580  19.720   2.411   6.695
 5688POPC   C3A72581  19.803   2.299   7.093
 5688POPC   C4A72582  19.708   1.927   7.247
 5688POPC   C1B72583  20.306   1.957   6.191
 5688POPC   C2B72584  20.291   2.077   6.590
 5688POPC   C3B72585  20.194   1.946   6.982
 5688POPC   C4B72586  20.433   1.859   7.304
 5689POPC   NC372587  32.668  21.043   5.167
 5689POPC   PO472588  33.006  20.471   5.428
 5689POPC   GL172589  32.876  20.403   5.822
 5689POPC   GL272590  33.148  20.201   5.847
 5689POPC   C1A72591  32.896  20.520   6.249
 5689POPC   D2A72592  32.781  20.362   6.623
 5689POPC   C3A72593  32.805  20.561   7.010
 5689POPC   C4A72594  33.101  20.856   7.175
 5689POPC   C1B72595  33.331  20.222   6.256
 5689POPC   C2B72596  33.301  20.201   6.689
 5689POPC   C3B72597  33.301  20.412   7.055
 5689POPC   C4B72598  33.057  20.315   7.408
 5690POPC   NC372599  34.218  33.722   5.606
 5690POPC   PO472600  33.564  33.630   5.441
 5690POPC   GL172601  33.703  33.740   5.819
 5690POPC   GL272602  33.894  33.481   5.879
 5690POPC   C1A72603  33.924  33.894   6.186
 5690POPC   D2A72604  33.941  34.212   6.483
 5690POPC   C3A72605  33.713  33.984   6.762
 5690POPC   C4A72606  33.555  33.880   7.164
 5690POPC   C1B72607  34.175  33.343   6.157
 5690POPC   C2B72608  33.936  33.435   6.514
 5690POPC   C3B72609  33.830  33.497   6.930
 5690POPC   C4B72610  33.911  33.319   7.349
 5691POPC   NC372611  36.815  14.819   5.565
 5691POPC   PO472612  37.095  15.431   5.314
 5691POPC   GL172613  37.105  15.258   5.790
 5691POPC   GL272614  37.301  14.986   5.883
 5691POPC   C1A72615  36.973  15.456   6.210
 5691POPC   D2A72616  37.036  15.378   6.669
 5691POPC   C3A72617  36.838  15.054   6.905
 5691POPC   C4A72618  36.638  15.102   7.304
 5691POPC   C1B72619  37.030  14.928   6.290
 5691POPC   C2B72620  37.024  14.526   6.574
 5691POPC   C3B72621  37.083  14.595   7.028
 5691POPC   C4B72622  37.199  14.945   7.274
 5692POPC   NC372623  20.226  39.860   5.557
 5692POPC   PO472624  20.873  39.741   5.273
 5692POPC   GL172625  20.690  40.007   5.727
 5692POPC   GL272626  20.537  40.244   5.917
 5692POPC   C1A72627  20.723  39.921   6.240
 5692POPC   D2A72628  20.496  40.004   6.636
 5692POPC   C3A72629  20.758  39.855   6.904
 5692POPC   C4A72630  20.841  39.845   7.307
 5692POPC   C1B72631  20.230  40.047   6.203
 5692POPC   C2B72632  20.246  39.632   6.387
 5692POPC   C3B72633  20.298  39.542   6.830
 5692POPC   C4B72634  20.307  39.874   7.136
 5693POPC   NC372635  25.556   5.276   5.341
 5693POPC   PO472636  25.082   4.784   5.513
 5693POPC   GL172637  25.429   4.985   5.741
 5693POPC   GL272638  25.274   5.331   5.771
 5693POPC   C1A72639  25.598   4.909   6.175
 5693POPC   D2A72640  25.454   4.749   6.602
 5693POPC   C3A72641  25.564   5.020   6.973
 5693POPC   C4A72642  25.887   5.320   7.112
 5693POPC   C1B72643  25.103   5.077   6.115
 5693POPC   C2B72644  25.222   5.183   6.495
 5693POPC   C3B72645  25.093   5.170   6.869
 5693POPC   C4B72646  25.080   5.031   7.256
 5694POPC   NC372647  35.430  41.867   5.386
 5694POPC   PO472648  35.321  41.145   5.315
 5694POPC   GL172649  35.350  41.328   5.746
 5694POPC   GL272650  35.020  41.214   5.769
 5694POPC   C1A72651  35.549  41.494   6.193
 5694POPC   D2A72652  35.511  41.696   6.641
 5694POPC   C3A72653  35.514  41.398   7.024
 5694POPC   C4A72654  35.332  41.455   7.459
 5694POPC   C1B72655  35.035  41.453   6.171
 5694POPC   C2B72656  35.083  41.393   6.594
 5694POPC   C3B72657  34.966  41.475   7.005
 5694POPC   C4B72658  34.892  41.179   7.292
 5695POPC   NC372659  42.813  32.564   5.496
 5695POPC   PO472660  42.478  32.143   5.166
 5695POPC   GL172661  42.706  32.068   5.607
 5695POPC   GL272662  43.081  32.191   5.708
 5695POPC   C1A72663  42.737  32.059   6.091
 5695POPC   D2A72664  42.818  32.312   6.494
 5695POPC   C3A72665  42.953  32.133   6.891
 5695POPC   C4A72666  43.156  32.361   7.215
 5695POPC   C1B72667  43.254  32.060   6.139
 5695POPC   C2B72668  43.293  31.875   6.571
 5695POPC   C3B72669  43.464  31.987   6.982
 5695POPC   C4B72670  43.488  32.063   7.444
 5696POPC   NC372671  39.984   8.807   5.378
 5696POPC   PO472672  40.316   9.328   5.596
 5696POPC   GL172673  39.960   9.166   5.895
 5696POPC   GL272674  39.863   8.828   5.852
 5696POPC   C1A72675  39.647   9.052   6.232
 5696POPC   D2A72676  39.604   8.919   6.633
 5696POPC   C3A72677  39.970   8.902   6.891
 5696POPC   C4A72678  39.755   8.989   7.263
 5696POPC   C1B72679  40.121   8.859   6.269
 5696POPC   C2B72680  40.382   8.619   6.580
 5696POPC   C3B72681  40.255   8.446   6.976
 5696POPC   C4B72682  40.099   8.635   7.341
 5697POPC   NC372683  24.216   9.301   5.495
 5697POPC   PO472684  24.809   9.539   5.437
 5697POPC   GL172685  24.694   9.751   5.799
 5697POPC   GL272686  24.549   9.435   5.895
 5697POPC   C1A72687  24.494   9.841   6.202
 5697POPC   D2A72688  24.699   9.799   6.575
 5697POPC   C3A72689  24.570  10.022   6.911
 5697POPC   C4A72690  24.792  10.085   7.268
 5697POPC   C1B72691  24.682   9.351   6.323
 5697POPC   C2B72692  24.719   9.338   6.784
 5697POPC   C3B72693  24.543   9.558   7.131
 5697POPC   C4B72694  24.187   9.461   7.419
 5698POPC   NC372695  13.410   2.476   5.363
 5698POPC   PO472696  13.409   1.851   5.412
 5698POPC   GL172697  13.490   2.213   5.798
 5698POPC   GL272698  13.211   2.507   5.826
 5698POPC   C1A72699  13.786   2.288   6.207
 5698POPC   D2A72700  13.741   2.203   6.679
 5698POPC   C3A72701  13.911   2.145   7.117
 5698POPC   C4A72702  13.898   1.940   7.563
 5698POPC   C1B72703  13.383   2.584   6.224
 5698POPC   C2B72704  13.284   2.472   6.653
 5698POPC   C3B72705  13.444   2.402   7.061
 5698POPC   C4B72706  13.495   2.229   7.454
 5699POPC   NC372707  44.436  35.789   5.312
 5699POPC   PO472708  43.842  36.203   5.356
 5699POPC   GL172709  43.678  36.099   5.761
 5699POPC   GL272710  43.940  35.862   5.854
 5699POPC   C1A72711  43.669  36.267   6.153
 5699POPC   D2A72712  43.901  36.227   6.531
 5699POPC   C3A72713  43.680  36.397   6.882
 5699POPC   C4A72714  43.790  36.319   7.315
 5699POPC   C1B72715  43.773  35.782   6.252
 5699POPC   C2B72716  43.511  35.891   6.615
 5699POPC   C3B72717  43.737  35.917   7.010
 5699POPC   C4B72718  44.116  35.760   7.232
 5700POPC   NC372719  11.940  20.922   5.428
 5700POPC   PO472720  12.013  20.323   5.636
 5700POPC   GL172721  12.220  20.503   5.942
 5700POPC   GL272722  12.292  20.852   5.851
 5700POPC   C1A72723  12.132  20.375   6.355
 5700POPC   D2A72724  11.795  20.560   6.584
 5700POPC   C3A72725  11.969  20.906   6.817
 5700POPC   C4A72726  12.026  20.809   7.209
 5700POPC   C1B72727  12.167  20.883   6.301
 5700POPC   C2B72728  12.407  20.700   6.667
 5700POPC   C3B72729  12.502  20.759   7.100
 5700POPC   C4B72730  12.387  20.639   7.561
 5701POPC   NC372731   4.328   2.532   5.678
 5701POPC   PO472732   4.193   3.138   5.357
 5701POPC   GL172733   4.116   3.003   5.798
 5701POPC   GL272734   4.394   3.113   6.069
 5701POPC   C1A72735   4.001   2.828   6.203
 5701POPC   D2A72736   4.165   2.998   6.579
 5701POPC   C3A72737   4.070   2.747   6.910
 5701POPC   C4A72738   4.333   2.819   7.186
 5701POPC   C1B72739   4.598   2.799   6.334
 5701POPC   C2B72740   4.645   2.760   6.758
 5701POPC   C3B72741   4.670   2.486   7.078
 5701POPC   C4B72742   4.463   2.422   7.455
 5702POPC   NC372743  35.905   5.422   5.402
 5702POPC   PO472744  35.943   4.804   5.582
 5702POPC   GL172745  36.057   4.988   5.988
 5702POPC   GL272746  36.000   5.324   5.902
 5702POPC   C1A72747  36.005   4.984   6.451
 5702POPC   D2A72748  36.062   4.720   6.801
 5702POPC   C3A72749  36.236   4.963   7.136
 5702POPC   C4A72750  36.582   5.057   7.424
 5702POPC   C1B72751  35.745   5.398   6.258
 5702POPC   C2B72752  35.829   5.547   6.716
 5702POPC   C3B72753  35.816   5.294   7.112
 5702POPC   C4B72754  35.533   5.201   7.478
 5703POPC   NC372755  10.735   4.034   5.193
 5703POPC   PO472756  10.396   4.621   5.349
 5703POPC   GL172757  10.575   4.397   5.712
 5703POPC   GL272758  10.532   4.032   5.744
 5703POPC   C1A72759  10.794   4.312   6.106
 5703POPC   D2A72760  10.860   4.440   6.521
 5703POPC   C3A72761  10.548   4.411   6.812
 5703POPC   C4A72762  10.660   4.517   7.225
 5703POPC   C1B72763  10.492   3.895   6.197
 5703POPC   C2B72764  10.674   3.922   6.632
 5703POPC   C3B72765  10.818   4.032   7.067
 5703POPC   C4B72766  11.068   3.828   7.409
 5704POPC   NC372767  13.820  32.076   5.489
 5704POPC   PO472768  13.192  32.274   5.395
 5704POPC   GL172769  13.429  32.335   5.776
 5704POPC   GL272770  13.545  31.989   5.906
 5704POPC   C1A72771  13.524  32.413   6.220
 5704POPC   D2A72772  13.566  32.148   6.587
 5704POPC   C3A72773  13.621  32.384   6.951
 5704POPC   C4A72774  13.308  32.643   7.153
 5704POPC   C1B72775  13.830  31.851   6.245
 5704POPC   C2B72776  13.878  31.709   6.701
 5704POPC   C3B72777  13.677  31.832   7.109
 5704POPC   C4B72778  13.869  31.889   7.539
 5705POPC   NC372779  41.688  31.903   5.492
 5705POPC   PO472780  41.582  32.557   5.263
 5705POPC   GL172781  41.544  32.387   5.667
 5705POPC   GL272782  41.300  32.138   5.827
 5705POPC   C1A72783  41.584  32.518   6.082
 5705POPC   D2A72784  41.409  32.321   6.397
 5705POPC   C3A72785  41.561  32.346   6.787
 5705POPC   C4A72786  41.637  32.315   7.195
 5705POPC   C1B72787  41.124  31.915   6.208
 5705POPC   C2B72788  41.039  31.946   6.658
 5705POPC   C3B72789  41.307  31.928   7.031
 5705POPC   C4B72790  41.253  31.987   7.486
 5706POPC   NC372791  41.157  12.498   5.440
 5706POPC   PO472792  40.855  13.105   5.428
 5706POPC   GL172793  40.867  13.100   5.843
 5706POPC   GL272794  40.534  13.073   5.907
 5706POPC   C1A72795  40.990  12.732   6.086
 5706POPC   D2A72796  40.832  12.520   6.462
 5706POPC   C3A72797  40.873  12.816   6.796
 5706POPC   C4A72798  40.977  12.834   7.210
 5706POPC   C1B72799  40.635  13.000   6.343
 5706POPC   C2B72800  40.390  12.781   6.633
 5706POPC   C3B72801  40.428  12.594   7.023
 5706POPC   C4B72802  40.467  12.934   7.276
 5707POPC   NC372803   1.482  14.567   5.376
 5707POPC   PO472804   0.889  14.284   5.453
 5707POPC   GL172805   1.211  14.323   5.751
 5707POPC   GL272806   1.273  14.693   5.831
 5707POPC   C1A72807   1.410  14.327   6.150
 5707POPC   D2A72808   1.302  14.602   6.463
 5707POPC   C3A72809   1.313  14.446   6.833
 5707POPC   C4A72810   1.534  14.593   7.143
 5707POPC   C1B72811   0.930  14.634   6.130
 5707POPC   C2B72812   0.793  14.556   6.581
 5707POPC   C3B72813   0.888  14.614   7.034
 5707POPC   C4B72814   0.874  14.672   7.527
 5708POPC   NC372815  35.009  36.780   5.556
 5708POPC   PO472816  35.568  37.127   5.389
 5708POPC   GL172817  35.402  37.070   5.794
 5708POPC   GL272818  35.079  37.186   5.896
 5708POPC   C1A72819  35.474  36.876   6.190
 5708POPC   D2A72820  35.387  36.609   6.520
 5708POPC   C3A72821  35.583  36.857   6.810
 5708POPC   C4A72822  35.663  36.937   7.242
 5708POPC   C1B72823  34.937  36.927   6.260
 5708POPC   C2B72824  34.885  37.047   6.698
 5708POPC   C3B72825  35.183  37.052   7.057
 5708POPC   C4B72826  35.300  36.589   7.170
 5709POPC   NC372827  24.443  18.518   5.430
 5709POPC   PO472828  24.866  18.006   5.455
 5709POPC   GL172829  24.498  18.121   5.835
 5709POPC   GL272830  24.253  18.435   5.880
 5709POPC   C1A72831  24.240  18.143   6.279
 5709POPC   D2A72832  24.498  18.187   6.673
 5709POPC   C3A72833  24.388  18.321   7.108
 5709POPC   C4A72834  24.380  18.110   7.509
 5709POPC   C1B72835  24.532  18.549   6.189
 5709POPC   C2B72836  24.797  18.597   6.512
 5709POPC   C3B72837  24.778  18.623   6.934
 5709POPC   C4B72838  24.763  18.566   7.359
 5710POPC   NC372839  32.401  43.506   5.382
 5710POPC   PO472840  31.989  44.051   5.536
 5710POPC   GL172841  32.065  43.895   5.916
 5710POPC   GL272842  32.365  43.687   5.907
 5710POPC   C1A72843  32.106  43.913   6.328
 5710POPC   D2A72844  31.870  43.904   6.640
 5710POPC   C3A72845  32.064  44.000   7.006
 5710POPC   C4A72846  32.142  43.709   7.306
 5710POPC   C1B72847  32.594  43.811   6.321
 5710POPC   C2B72848  32.513  43.881   6.750
 5710POPC   C3B72849  32.613  43.739   7.148
 5710POPC   C4B72850  32.556  43.828   7.594
 5711POPC   NC372851  16.816   3.020   5.266
 5711POPC   PO472852  16.302   2.548   5.323
 5711POPC   GL172853  16.543   2.743   5.610
 5711POPC   GL272854  16.428   3.077   5.671
 5711POPC   C1A72855  16.658   2.715   6.045
 5711POPC   D2A72856  16.512   2.777   6.476
 5711POPC   C3A72857  16.664   2.598   6.847
 5711POPC   C4A72858  16.913   2.655   7.219
 5711POPC   C1B72859  16.369   3.143   6.114
 5711POPC   C2B72860  16.443   3.260   6.578
 5711POPC   C3B72861  16.569   3.106   7.012
 5711POPC   C4B72862  16.424   2.747   7.268
 5712POPC   NC372863  19.354  34.830   5.196
 5712POPC   PO472864  18.876  34.487   5.285
 5712POPC   GL172865  18.979  34.598   5.731
 5712POPC   GL272866  19.251  34.850   5.741
 5712POPC   C1A72867  19.000  34.555   6.219
 5712POPC   D2A72868  18.892  34.668   6.669
 5712POPC   C3A72869  18.659  34.460   7.015
 5712POPC   C4A72870  18.696  34.442   7.478
 5712POPC   C1B72871  19.483  34.745   6.142
 5712POPC   C2B72872  19.496  34.449   6.505
 5712POPC   C3B72873  19.278  34.365   6.896
 5712POPC   C4B72874  19.094  34.673   7.155
 5713POPC   NC372875  41.418  35.182   5.298
 5713POPC   PO472876  41.969  35.284   5.100
 5713POPC   GL172877  41.814  35.381   5.589
 5713POPC   GL272878  41.916  35.158   5.859
 5713POPC   C1A72879  41.551  35.488   6.018
 5713POPC   D2A72880  41.197  35.327   6.348
 5713POPC   C3A72881  41.286  35.263   6.816
 5713POPC   C4A72882  41.538  35.511   7.113
 5713POPC   C1B72883  41.892  34.973   6.261
 5713POPC   C2B72884  41.788  35.185   6.653
 5713POPC   C3B72885  41.691  35.030   7.052
 5713POPC   C4B72886  41.794  34.725   7.300
 5714POPC   NC372887  38.185  36.226   5.004
 5714POPC   PO472888  38.611  36.126   5.543
 5714POPC   GL172889  38.713  36.237   5.917
 5714POPC   GL272890  38.834  35.922   6.002
 5714POPC   C1A72891  38.488  36.338   6.275
 5714POPC   D2A72892  38.322  36.211   6.634
 5714POPC   C3A72893  38.569  36.296   6.911
 5714POPC   C4A72894  38.691  36.263   7.313
 5714POPC   C1B72895  38.508  35.826   6.244
 5714POPC   C2B72896  38.402  35.688   6.619
 5714POPC   C3B72897  38.516  35.800   6.979
 5714POPC   C4B72898  38.220  36.004   7.174
 5715POPC   NC372899   9.174  22.348   5.338
 5715POPC   PO472900   9.001  21.984   5.835
 5715POPC   GL172901   8.960  21.847   6.193
 5715POPC   GL272902   9.253  21.593   6.094
 5715POPC   C1A72903   8.675  22.047   6.512
 5715POPC   D2A72904   8.753  22.483   6.640
 5715POPC   C3A72905   9.008  22.450   6.964
 5715POPC   C4A72906   8.886  22.284   7.340
 5715POPC   C1B72907   9.428  21.892   6.368
 5715POPC   C2B72908   9.175  22.146   6.578
 5715POPC   C3B72909   8.972  21.956   6.927
 5715POPC   C4B72910   9.062  21.790   7.312
 5716POPC   NC372911  31.161   0.550   5.388
 5716POPC   PO472912  30.538   0.438   5.424
 5716POPC   GL172913  30.766   0.135   5.735
 5716POPC   GL272914  30.487   0.171   5.930
 5716POPC   C1A72915  30.886   0.066   6.213
 5716POPC   D2A72916  30.722   0.284   6.583
 5716POPC   C3A72917  31.024   0.394   6.938
 5716POPC   C4A72918  30.952   0.761   7.249
 5716POPC   C1B72919  30.382  44.954   6.303
 5716POPC   C2B72920  30.441  44.892   6.748
 5716POPC   C3B72921  30.560   0.187   7.061
 5716POPC   C4B72922  30.840   0.283   7.411
 5717POPC   NC372923  27.743  31.908   5.349
 5717POPC   PO472924  27.914  32.571   5.324
 5717POPC   GL172925  27.776  32.306   5.705
 5717POPC   GL272926  27.983  32.036   5.860
 5717POPC   C1A72927  27.454  32.340   6.050
 5717POPC   D2A72928  27.374  32.548   6.472
 5717POPC   C3A72929  27.440  32.424   6.920
 5717POPC   C4A72930  27.376  32.192   7.297
 5717POPC   C1B72931  27.799  32.049   6.257
 5717POPC   C2B72932  27.545  32.050   6.593
 5717POPC   C3B72933  27.733  31.992   6.979
 5717POPC   C4B72934  27.890  32.016   7.387
 5718POPC   NC372935  16.778   9.247   5.715
 5718POPC   PO472936  16.355   8.687   5.607
 5718POPC   GL172937  16.641   8.780   5.963
 5718POPC   GL272938  17.021   8.685   6.001
 5718POPC   C1A72939  16.517   9.059   6.320
 5718POPC   D2A72940  16.594   9.361   6.657
 5718POPC   C3A72941  16.557   9.183   7.061
 5718POPC   C4A72942  16.964   8.982   7.158
 5718POPC   C1B72943  16.900   8.714   6.412
 5718POPC   C2B72944  16.518   8.597   6.631
 5718POPC   C3B72945  16.507   8.672   7.068
 5718POPC   C4B72946  16.657   8.743   7.486
 5719POPC   NC372947   3.487   9.291   5.377
 5719POPC   PO472948   3.345  10.024   5.313
 5719POPC   GL172949   3.445  10.006   5.749
 5719POPC   GL272950   3.749   9.805   5.690
 5719POPC   C1A72951   3.313   9.811   6.170
 5719POPC   D2A72952   3.299   9.576   6.589
 5719POPC   C3A72953   3.348   9.829   6.980
 5719POPC   C4A72954   3.295   9.918   7.409
 5719POPC   C1B72955   3.742   9.513   6.039
 5719POPC   C2B72956   3.902   9.435   6.443
 5719POPC   C3B72957   3.758   9.564   6.835
 5719POPC   C4B72958   3.773   9.700   7.276
 5720POPC   NC372959   7.615   4.057   5.349
 5720POPC   PO472960   7.241   4.587   5.364
 5720POPC   GL172961   7.307   4.663   5.783
 5720POPC   GL272962   7.540   4.372   5.769
 5720POPC   C1A72963   7.460   4.632   6.194
 5720POPC   D2A72964   7.449   4.302   6.446
 5720POPC   C3A72965   7.472   4.409   6.859
 5720POPC   C4A72966   7.649   4.335   7.264
 5720POPC   C1B72967   7.181   4.211   6.002
 5720POPC   C2B72968   6.969   4.161   6.392
 5720POPC   C3B72969   7.013   4.137   6.855
 5720POPC   C4B72970   7.099   4.063   7.306
 5721POPC   NC372971   4.066  17.776   5.436
 5721POPC   PO472972   4.479  17.316   5.321
 5721POPC   GL172973   4.410  17.297   5.762
 5721POPC   GL272974   4.374  17.646   5.812
 5721POPC   C1A72975   4.181  17.259   6.161
 5721POPC   D2A72976   4.052  17.068   6.545
 5721POPC   C3A72977   4.181  17.167   6.990
 5721POPC   C4A72978   3.921  17.302   7.364
 5721POPC   C1B72979   4.243  17.762   6.226
 5721POPC   C2B72980   4.220  17.561   6.637
 5721POPC   C3B72981   4.236  17.685   7.069
 5721POPC   C4B72982   4.585  17.943   7.189
 5722POPC   NC372983   5.438  36.262   5.393
 5722POPC   PO472984   5.069  35.802   4.998
 5722POPC   GL172985   5.189  35.845   5.514
 5722POPC   GL272986   5.055  36.163   5.719
 5722POPC   C1A72987   5.305  35.835   6.022
 5722POPC   D2A72988   5.127  36.019   6.428
 5722POPC   C3A72989   5.224  36.019   6.860
 5722POPC   C4A72990   5.160  35.814   7.256
 5722POPC   C1B72991   5.283  36.363   6.083
 5722POPC   C2B72992   5.384  36.553   6.501
 5722POPC   C3B72993   5.234  36.548   6.947
 5722POPC   C4B72994   5.087  36.328   7.303
 5723POPC   NC372995   7.682  31.922   5.499
 5723POPC   PO472996   7.349  32.461   5.250
 5723POPC   GL172997   7.434  32.355   5.725
 5723POPC   GL272998   7.349  32.008   5.877
 5723POPC   C1A72999   7.630  32.313   6.171
 5723POPC   D2A73000   7.664  32.088   6.565
 5723POPC   C3A73001   7.591  32.321   6.949
 5723POPC   C4A73002   7.608  32.457   7.380
 5723POPC   C1B73003   7.250  31.900   6.315
 5723POPC   C2B73004   7.144  32.150   6.679
 5723POPC   C3B73005   7.168  32.072   7.117
 5723POPC   C4B73006   7.374  32.018   7.519
 5724POPC   NC373007  34.393  14.124   5.445
 5724POPC   PO473008  34.893  14.668   5.305
 5724POPC   GL173009  34.786  14.404   5.645
 5724POPC   GL273010  34.444  14.588   5.688
 5724POPC   C1A73011  34.923  14.326   6.092
 5724POPC   D2A73012  34.850  14.287   6.539
 5724POPC   C3A73013  34.901  14.525   6.919
 5724POPC   C4A73014  34.726  14.413   7.318
 5724POPC   C1B73015  34.421  14.471   6.118
 5724POPC   C2B73016  34.339  14.286   6.540
 5724POPC   C3B73017  34.394  14.452   6.921
 5724POPC   C4B73018  34.221  14.535   7.304
 5725POPC   NC373019  12.547  13.184   5.339
 5725POPC   PO473020  12.875  12.610   5.328
 5725POPC   GL173021  12.909  12.721   5.756
 5725POPC   GL273022  12.817  13.078   5.797
 5725POPC   C1A73023  12.859  12.670   6.192
 5725POPC   D2A73024  12.901  12.934   6.555
 5725POPC   C3A73025  12.806  12.679   6.918
 5725POPC   C4A73026  12.887  12.622   7.365
 5725POPC   C1B73027  12.574  13.113   6.180
 5725POPC   C2B73028  12.457  13.175   6.604
 5725POPC   C3B73029  12.736  13.205   6.972
 5725POPC   C4B73030  12.652  13.289   7.383
 5726POPC   NC373031  26.271  17.815   5.255
 5726POPC   PO473032  25.744  17.546   5.547
 5726POPC   GL173033  25.828  17.779   5.930
 5726POPC   GL273034  26.136  17.864   5.766
 5726POPC   C1A73035  25.866  17.748   6.380
 5726POPC   D2A73036  25.878  17.474   6.747
 5726POPC   C3A73037  25.758  17.651   7.142
 5726POPC   C4A73038  25.726  17.725   7.599
 5726POPC   C1B73039  26.349  17.784   6.154
 5726POPC   C2B73040  26.364  17.630   6.579
 5726POPC   C3B73041  26.275  17.703   7.013
 5726POPC   C4B73042  26.175  17.530   7.435
 5727POPC   NC373043   0.107  24.136   5.599
 5727POPC   PO473044   0.494  24.550   5.287
 5727POPC   GL173045   0.587  24.576   5.717
 5727POPC   GL273046   0.609  24.244   5.800
 5727POPC   C1A73047   0.351  24.702   6.108
 5727POPC   D2A73048   0.272  24.532   6.525
 5727POPC   C3A73049   0.384  24.755   6.899
 5727POPC   C4A73050   0.485  24.672   7.333
 5727POPC   C1B73051   0.451  24.164   6.186
 5727POPC   C2B73052   0.401  24.017   6.583
 5727POPC   C3B73053   0.581  24.027   6.955
 5727POPC   C4B73054   0.592  24.134   7.395
 5728POPC   NC373055  13.412  31.181   5.308
 5728POPC   PO473056  13.933  31.621   5.552
 5728POPC   GL173057  13.711  31.471   5.871
 5728POPC   GL273058  13.393  31.525   5.718
 5728POPC   C1A73059  13.740  31.353   6.313
 5728POPC   D2A73060  13.756  31.076   6.657
 5728POPC   C3A73061  13.651  31.321   7.002
 5728POPC   C4A73062  13.688  31.399   7.438
 5728POPC   C1B73063  13.297  31.597   6.170
 5728POPC   C2B73064  13.384  31.673   6.615
 5728POPC   C3B73065  13.215  31.548   7.010
 5728POPC   C4B73066  13.214  31.246   7.341
 5729POPC   NC373067  16.730  22.299   5.261
 5729POPC   PO473068  17.103  21.899   5.534
 5729POPC   GL173069  16.785  22.166   5.742
 5729POPC   GL273070  16.902  22.486   5.777
 5729POPC   C1A73071  16.527  22.290   6.098
 5729POPC   D2A73072  16.673  22.223   6.515
 5729POPC   C3A73073  16.467  22.376   6.852
 5729POPC   C4A73074  16.364  22.298   7.255
 5729POPC   C1B73075  17.066  22.243   6.163
 5729POPC   C2B73076  17.156  22.071   6.581
 5729POPC   C3B73077  16.987  22.260   6.960
 5729POPC   C4B73078  17.060  22.041   7.344
 5730POPC   NC373079   6.604  20.132   5.290
 5730POPC   PO473080   6.487  19.621   5.565
 5730POPC   GL173081   6.802  19.833   5.853
 5730POPC   GL273082   6.924  20.179   5.752
 5730POPC   C1A73083   6.849  19.700   6.296
 5730POPC   D2A73084   6.974  19.807   6.731
 5730POPC   C3A73085   6.651  19.729   7.060
 5730POPC   C4A73086   6.499  19.628   7.495
 5730POPC   C1B73087   6.740  20.271   6.187
 5730POPC   C2B73088   6.886  20.314   6.652
 5730POPC   C3B73089   6.901  20.172   7.090
 5730POPC   C4B73090   6.895  19.973   7.482
 5731POPC   NC373091   8.588  10.680   5.330
 5731POPC   PO473092   8.153  10.156   5.469
 5731POPC   GL173093   8.247  10.503   5.698
 5731POPC   GL273094   8.557  10.420   5.821
 5731POPC   C1A73095   8.248  10.635   6.163
 5731POPC   D2A73096   7.970  10.482   6.514
 5731POPC   C3A73097   8.084  10.679   6.911
 5731POPC   C4A73098   8.158  10.753   7.377
 5731POPC   C1B73099   8.630  10.279   6.250
 5731POPC   C2B73100   8.501  10.504   6.625
 5731POPC   C3B73101   8.522  10.499   7.072
 5731POPC   C4B73102   8.341  10.270   7.406
 5732POPC   NC373103  14.562   4.172   5.368
 5732POPC   PO473104  13.881   4.299   5.416
 5732POPC   GL173105  14.230   4.408   5.700
 5732POPC   GL273106  14.586   4.427   5.794
 5732POPC   C1A73107  14.291   4.220   6.127
 5732POPC   D2A73108  14.141   4.016   6.484
 5732POPC   C3A73109  14.496   4.070   6.757
 5732POPC   C4A73110  14.484   4.307   7.128
 5732POPC   C1B73111  14.737   4.610   6.141
 5732POPC   C2B73112  14.553   4.551   6.571
 5732POPC   C3B73113  14.728   4.707   6.944
 5732POPC   C4B73114  15.000   4.529   7.266
 5733POPC   NC373115  44.119  24.460   5.378
 5733POPC   PO473116  43.598  24.792   5.159
 5733POPC   GL173117  43.678  24.611   5.649
 5733POPC   GL273118  43.985  24.448   5.849
 5733POPC   C1A73119  43.566  24.370   6.087
 5733POPC   D2A73120  43.897  24.371   6.390
 5733POPC   C3A73121  43.771  24.620   6.746
 5733POPC   C4A73122  43.803  24.429   7.142
 5733POPC   C1B73123  44.133  24.765   6.123
 5733POPC   C2B73124  44.257  24.749   6.575
 5733POPC   C3B73125  44.222  24.670   7.005
 5733POPC   C4B73126  44.274  24.236   7.151
 5734POPC   NC373127   9.698   9.278   5.190
 5734POPC   PO473128  10.126   8.827   5.446
 5734POPC   GL173129   9.992   8.732   5.852
 5734POPC   GL273130   9.657   8.914   5.881
 5734POPC   C1A73131   9.870   8.687   6.291
 5734POPC   D2A73132   9.941   8.997   6.609
 5734POPC   C3A73133   9.856   8.873   6.996
 5734POPC   C4A73134   9.974   9.140   7.290
 5734POPC   C1B73135   9.620   9.178   6.243
 5734POPC   C2B73136   9.395   9.149   6.618
 5734POPC   C3B73137   9.404   9.081   7.040
 5734POPC   C4B73138   9.179   9.262   7.353
 5735POPC   NC373139  22.030   8.166   5.421
 5735POPC   PO473140  22.732   8.161   5.429
 5735POPC   GL173141  22.424   8.164   5.755
 5735POPC   GL273142  22.394   7.823   5.697
 5735POPC   C1A73143  22.235   8.320   6.154
 5735POPC   D2A73144  22.207   8.138   6.554
 5735POPC   C3A73145  22.291   8.356   6.918
 5735POPC   C4A73146  22.062   8.304   7.280
 5735POPC   C1B73147  22.349   7.798   6.150
 5735POPC   C2B73148  22.340   7.656   6.581
 5735POPC   C3B73149  22.159   7.834   6.990
 5735POPC   C4B73150  22.210   7.862   7.473
 5736POPC   NC373151   9.883  20.400   5.456
 5736POPC   PO473152   9.415  20.856   5.409
 5736POPC   GL173153   9.613  20.701   5.799
 5736POPC   GL273154   9.463  20.368   5.775
 5736POPC   C1A73155   9.878  20.803   6.194
 5736POPC   D2A73156   9.853  20.982   6.620
 5736POPC   C3A73157  10.007  20.789   7.035
 5736POPC   C4A73158   9.981  20.909   7.511
 5736POPC   C1B73159   9.624  20.370   6.203
 5736POPC   C2B73160   9.790  20.463   6.605
 5736POPC   C3B73161   9.794  20.318   7.015
 5736POPC   C4B73162   9.643  20.569   7.328
 5737POPC   NC373163   7.682  27.069   5.381
 5737POPC   PO473164   7.061  26.755   5.397
 5737POPC   GL173165   7.381  26.825   5.720
 5737POPC   GL273166   7.543  26.538   5.759
 5737POPC   C1A73167   7.415  26.965   6.162
 5737POPC   D2A73168   7.326  27.130   6.552
 5737POPC   C3A73169   7.569  26.951   6.842
 5737POPC   C4A73170   7.376  26.870   7.193
 5737POPC   C1B73171   7.270  26.468   6.120
 5737POPC   C2B73172   7.358  26.558   6.563
 5737POPC   C3B73173   7.278  26.397   6.981
 5737POPC   C4B73174   7.252  26.446   7.448
 5738POPC   NC373175  17.013  19.798   5.183
 5738POPC   PO473176  16.510  20.142   5.541
 5738POPC   GL173177  16.792  19.896   5.739
 5738POPC   GL273178  17.007  19.639   5.718
 5738POPC   C1A73179  16.814  19.935   6.160
 5738POPC   D2A73180  16.585  19.871   6.535
 5738POPC   C3A73181  16.748  20.112   6.855
 5738POPC   C4A73182  16.717  19.958   7.249
 5738POPC   C1B73183  17.185  19.585   6.149
 5738POPC   C2B73184  17.082  19.766   6.565
 5738POPC   C3B73185  16.957  19.589   6.944
 5738POPC   C4B73186  17.026  19.549   7.366
 5739POPC   NC373187  31.036   7.875   5.431
 5739POPC   PO473188  30.591   7.351   5.293
 5739POPC   GL173189  30.783   7.517   5.728
 5739POPC   GL273190  30.452   7.603   5.878
 5739POPC   C1A73191  30.822   7.586   6.222
 5739POPC   D2A73192  30.618   7.598   6.654
 5739POPC   C3A73193  30.856   7.430   7.053
 5739POPC   C4A73194  30.886   7.354   7.546
 5739POPC   C1B73195  30.342   7.312   6.212
 5739POPC   C2B73196  30.302   7.175   6.636
 5739POPC   C3B73197  30.336   7.355   7.033
 5739POPC   C4B73198  30.063   7.641   7.207
 5740POPC   NC373199  10.589  10.753   5.215
 5740POPC   PO473200  11.217  10.849   5.407
 5740POPC   GL173201  11.304  10.713   5.833
 5740POPC   GL273202  11.119  10.389   5.860
 5740POPC   C1A73203  11.442  10.674   6.269
 5740POPC   D2A73204  11.445  10.413   6.662
 5740POPC   C3A73205  11.469  10.689   7.000
 5740POPC   C4A73206  11.395  10.893   7.380
 5740POPC   C1B73207  11.015  10.358   6.272
 5740POPC   C2B73208  10.737  10.303   6.599
 5740POPC   C3B73209  10.871  10.127   6.952
 5740POPC   C4B73210  11.263  10.168   7.155
 5741POPC   NC373211  27.779   2.633   4.850
 5741POPC   PO473212  28.171   2.483   5.403
 5741POPC   GL173213  28.243   2.629   5.863
 5741POPC   GL273214  27.947   2.558   6.043
 5741POPC   C1A73215  28.310   2.831   6.297
 5741POPC   D2A73216  28.370   3.135   6.653
 5741POPC   C3A73217  28.472   2.971   7.074
 5741POPC   C4A73218  28.355   3.123   7.510
 5741POPC   C1B73219  27.950   2.514   6.483
 5741POPC   C2B73220  27.978   2.481   6.927
 5741POPC   C3B73221  28.038   2.774   7.274
 5741POPC   C4B73222  27.994   2.735   7.719
 5742POPC   NC373223  44.435   0.718   5.403
 5742POPC   PO473224   0.029   0.507   5.236
 5742POPC   GL173225  44.954   0.542   5.707
 5742POPC   GL273226  44.601   0.426   5.808
 5742POPC   C1A73227  44.896   0.514   6.204
 5742POPC   D2A73228  44.591   0.311   6.523
 5742POPC   C3A73229  44.783   0.174   6.919
 5742POPC   C4A73230   0.035   0.407   7.200
 5742POPC   C1B73231  44.376   0.666   6.132
 5742POPC   C2B73232  44.405   0.801   6.531
 5742POPC   C3B73233  44.649   0.694   6.901
 5742POPC   C4B73234  44.496   0.809   7.276
 5743POPC   NC373235  14.219  29.017   5.401
 5743POPC   PO473236  15.021  29.139   5.516
 5743POPC   GL173237  14.814  29.098   5.843
 5743POPC   GL273238  14.496  29.171   5.776
 5743POPC   C1A73239  14.664  29.245   6.237
 5743POPC   D2A73240  14.487  29.061   6.564
 5743POPC   C3A73241  14.607  29.177   6.946
 5743POPC   C4A73242  14.490  28.904   7.237
 5743POPC   C1B73243  14.170  29.110   6.105
 5743POPC   C2B73244  14.005  29.182   6.522
 5743POPC   C3B73245  14.087  29.008   6.930
 5743POPC   C4B73246  14.151  29.315   7.255
 5744POPC   NC373247   3.977  16.161   5.376
 5744POPC   PO473248   4.546  15.770   5.353
 5744POPC   GL173249   4.272  15.862   5.708
 5744POPC   GL273250   4.321  16.223   5.769
 5744POPC   C1A73251   4.331  15.799   6.168
 5744POPC   D2A73252   4.344  16.058   6.566
 5744POPC   C3A73253   4.426  15.932   7.000
 5744POPC   C4A73254   4.500  16.184   7.345
 5744POPC   C1B73255   3.961  16.175   6.056
 5744POPC   C2B73256   3.831  16.067   6.476
 5744POPC   C3B73257   3.932  16.058   6.908
 5744POPC   C4B73258   3.960  15.867   7.296
 5745POPC   NC373259  12.526  34.756   5.434
 5745POPC   PO473260  12.181  34.251   5.682
 5745POPC   GL173261  11.944  34.427   5.943
 5745POPC   GL273262  11.817  34.744   5.824
 5745POPC   C1A73263  12.049  34.399   6.362
 5745POPC   D2A73264  12.117  34.581   6.732
 5745POPC   C3A73265  12.068  34.416   7.119
 5745POPC   C4A73266  12.030  34.835   7.368
 5745POPC   C1B73267  12.106  34.867   6.181
 5745POPC   C2B73268  12.446  34.917   6.521
 5745POPC   C3B73269  12.351  34.981   6.964
 5745POPC   C4B73270  12.509  35.107   7.360
 5746POPC   NC373271   1.473  40.687   5.295
 5746POPC   PO473272   0.861  40.687   5.598
 5746POPC   GL173273   1.271  40.649   5.770
 5746POPC   GL273274   1.515  40.935   5.766
 5746POPC   C1A73275   1.231  40.487   6.182
 5746POPC   D2A73276   1.098  40.706   6.558
 5746POPC   C3A73277   1.177  40.535   6.978
 5746POPC   C4A73278   0.954  40.765   7.302
 5746POPC   C1B73279   1.225  41.064   6.093
 5746POPC   C2B73280   1.255  41.195   6.528
 5746POPC   C3B73281   1.292  41.039   6.964
 5746POPC   C4B73282   1.588  40.843   7.247
 5747POPC   NC373283  27.910   0.110   5.208
 5747POPC   PO473284  27.386  44.829   5.512
 5747POPC   GL173285  27.468  44.543   5.836
 5747POPC   GL273286  27.825  44.549   5.801
 5747POPC   C1A73287  27.341  44.525   6.278
 5747POPC   D2A73288  27.590  44.638   6.618
 5747POPC   C3A73289  27.486  44.473   7.016
 5747POPC   C4A73290  27.783  44.573   7.321
 5747POPC   C1B73291  27.996  44.937   6.026
 5747POPC   C2B73292  27.996   0.144   6.439
 5747POPC   C3B73293  27.984  44.961   6.851
 5747POPC   C4B73294  27.876   0.057   7.251
 5748POPC   NC373295  10.972   3.230   5.413
 5748POPC   PO473296  11.490   3.741   5.441
 5748POPC   GL173297  11.484   3.553   5.862
 5748POPC   GL273298  11.212   3.386   5.828
 5748POPC   C1A73299  11.396   3.480   6.329
 5748POPC   D2A73300  11.263   3.760   6.681
 5748POPC   C3A73301  11.412   3.619   7.079
 5748POPC   C4A73302  11.830   3.684   7.212
 5748POPC   C1B73303  11.017   3.147   6.150
 5748POPC   C2B73304  11.243   3.005   6.501
 5748POPC   C3B73305  11.297   3.176   6.886
 5748POPC   C4B73306  11.131   3.191   7.312
 5749POPC   NC373307   6.053  28.716   5.419
 5749POPC   PO473308   5.424  28.559   5.307
 5749POPC   GL173309   5.532  28.378   5.700
 5749POPC   GL273310   5.850  28.179   5.656
 5749POPC   C1A73311   5.515  28.217   6.124
 5749POPC   D2A73312   5.444  28.142   6.593
 5749POPC   C3A73313   5.706  28.417   6.845
 5749POPC   C4A73314   5.941  28.697   7.108
 5749POPC   C1B73315   6.067  28.155   6.073
 5749POPC   C2B73316   6.263  28.119   6.490
 5749POPC   C3B73317   6.176  28.204   6.942
 5749POPC   C4B73318   6.209  28.281   7.399
 5750POPC   NC373319  28.129  43.027   5.550
 5750POPC   PO473320  28.709  42.889   5.304
 5750POPC   GL173321  28.547  42.900   5.821
 5750POPC   GL273322  28.208  42.773   5.992
 5750POPC   C1A73323  28.433  43.190   6.226
 5750POPC   D2A73324  28.140  43.316   6.589
 5750POPC   C3A73325  28.335  43.372   6.985
 5750POPC   C4A73326  28.611  43.213   7.283
 5750POPC   C1B73327  28.486  42.692   6.323
 5750POPC   C2B73328  28.536  42.969   6.704
 5750POPC   C3B73329  28.283  42.872   7.082
 5750POPC   C4B73330  28.500  42.593   7.322
 5751POPC   NC373331  31.573   9.425   5.440
 5751POPC   PO473332  31.458   8.689   5.371
 5751POPC   GL173333  31.475   8.958   5.785
 5751POPC   GL273334  31.570   9.314   5.920
 5751POPC   C1A73335  31.312   9.016   6.232
 5751POPC   D2A73336  31.366   9.061   6.697
 5751POPC   C3A73337  31.602   8.729   6.937
 5751POPC   C4A73338  31.701   8.683   7.380
 5751POPC   C1B73339  31.776   9.263   6.313
 5751POPC   C2B73340  31.846   9.165   6.745
 5751POPC   C3B73341  31.653   9.184   7.178
 5751POPC   C4B73342  31.775   9.481   7.518
 5752POPC   NC373343  21.981   1.388   5.627
 5752POPC   PO473344  22.480   0.998   5.430
 5752POPC   GL173345  22.392   1.154   5.883
 5752POPC   GL273346  22.034   1.102   6.039
 5752POPC   C1A73347  22.365   1.301   6.355
 5752POPC   D2A73348  21.993   1.203   6.617
 5752POPC   C3A73349  22.061   1.044   7.011
 5752POPC   C4A73350  22.075   1.181   7.420
 5752POPC   C1B73351  21.814   1.511   6.230
 5752POPC   C2B73352  21.612   1.577   6.662
 5752POPC   C3B73353  21.839   1.546   7.075
 5752POPC   C4B73354  21.885   1.615   7.563
 5753POPC   NC373355  19.898  28.988   5.276
 5753POPC   PO473356  19.377  29.449   5.442
 5753POPC   GL173357  19.619  29.125   5.723
 5753POPC   GL273358  19.994  28.977   5.754
 5753POPC   C1A73359  19.615  29.094   6.175
 5753POPC   D2A73360  19.642  29.309   6.555
 5753POPC   C3A73361  19.660  29.128   6.938
 5753POPC   C4A73362  19.964  29.320   7.205
 5753POPC   C1B73363  20.098  29.211   6.083
 5753POPC   C2B73364  20.067  28.999   6.448
 5753POPC   C3B73365  20.144  29.002   6.831
 5753POPC   C4B73366  19.993  28.790   7.176
 5754POPC   NC373367  18.143  18.566   5.325
 5754POPC   PO473368  18.802  18.405   5.304
 5754POPC   GL173369  18.514  18.419   5.672
 5754POPC   GL273370  18.212  18.219   5.673
 5754POPC   C1A73371  18.536  18.356   6.127
 5754POPC   D2A73372  18.456  18.558   6.523
 5754POPC   C3A73373  18.555  18.330   6.890
 5754POPC   C4A73374  18.479  18.487   7.288
 5754POPC   C1B73375  18.059  18.186   6.069
 5754POPC   C2B73376  17.935  18.342   6.420
 5754POPC   C3B73377  18.041  18.392   6.836
 5754POPC   C4B73378  18.168  18.096   7.130
 5755POPC   NC373379  24.584   3.220   5.538
 5755POPC   PO473380  24.065   3.619   5.352
 5755POPC   GL173381  24.268   3.578   5.774
 5755POPC   GL273382  24.177   3.243   5.856
 5755POPC   C1A73383  24.484   3.762   6.178
 5755POPC   D2A73384  24.357   3.905   6.601
 5755POPC   C3A73385  24.534   3.786   7.011
 5755POPC   C4A73386  24.281   3.524   7.290
 5755POPC   C1B73387  24.450   3.249   6.223
 5755POPC   C2B73388  24.365   3.209   6.661
 5755POPC   C3B73389  24.616   3.257   7.036
 5755POPC   C4B73390  25.011   3.252   7.200
 5756POPC   NC373391   6.279  14.683   5.558
 5756POPC   PO473392   6.638  14.186   5.484
 5756POPC   GL173393   6.388  14.224   5.867
 5756POPC   GL273394   6.489  14.512   5.987
 5756POPC   C1A73395   6.417  13.999   6.271
 5756POPC   D2A73396   6.361  14.081   6.723
 5756POPC   C3A73397   6.675  14.364   6.910
 5756POPC   C4A73398   6.814  14.562   7.288
 5756POPC   C1B73399   6.593  14.482   6.406
 5756POPC   C2B73400   6.609  14.821   6.694
 5756POPC   C3B73401   6.461  14.895   7.089
 5756POPC   C4B73402   6.638  14.993   7.526
 5757POPC   NC373403   1.066  13.867   5.336
 5757POPC   PO473404   1.359  13.289   5.589
 5757POPC   GL173405   1.180  13.511   5.849
 5757POPC   GL273406   1.329  13.818   5.785
 5757POPC   C1A73407   1.237  13.443   6.282
 5757POPC   D2A73408   1.255  13.666   6.661
 5757POPC   C3A73409   1.204  13.397   7.013
 5757POPC   C4A73410   1.514  13.139   7.197
 5757POPC   C1B73411   1.089  13.931   6.163
 5757POPC   C2B73412   1.048  14.117   6.530
 5757POPC   C3B73413   1.040  14.033   6.962
 5757POPC   C4B73414   1.159  14.287   7.303
 5758POPC   NC373415  25.879  34.148   5.600
 5758POPC   PO473416  26.423  34.512   5.360
 5758POPC   GL173417  26.218  34.682   5.837
 5758POPC   GL273418  26.083  34.362   5.985
 5758POPC   C1A73419  26.128  34.726   6.310
 5758POPC   D2A73420  25.865  34.589   6.656
 5758POPC   C3A73421  26.071  34.451   7.027
 5758POPC   C4A73422  26.222  34.559   7.439
 5758POPC   C1B73423  25.705  34.345   6.227
 5758POPC   C2B73424  25.560  34.150   6.623
 5758POPC   C3B73425  25.570  34.323   7.011
 5758POPC   C4B73426  25.733  34.244   7.372
 5759POPC   NC373427  43.871   8.282   5.259
 5759POPC   PO473428  44.348   8.596   5.577
 5759POPC   GL173429  43.967   8.409   5.780
 5759POPC   GL273430  44.111   8.081   5.780
 5759POPC   C1A73431  43.772   8.273   6.212
 5759POPC   D2A73432  43.676   8.000   6.607
 5759POPC   C3A73433  43.784   8.204   7.058
 5759POPC   C4A73434  43.696   8.240   7.583
 5759POPC   C1B73435  44.275   8.298   6.190
 5759POPC   C2B73436  44.127   8.233   6.608
 5759POPC   C3B73437  44.299   8.263   7.004
 5759POPC   C4B73438  44.172   8.195   7.419
 5760POPC   NC373439  27.299  40.300   5.468
 5760POPC   PO473440  27.467  40.960   5.222
 5760POPC   GL173441  27.685  40.799   5.621
 5760POPC   GL273442  27.574  40.528   5.826
 5760POPC   C1A73443  27.934  40.834   5.998
 5760POPC   D2A73444  27.753  40.644   6.390
 5760POPC   C3A73445  27.800  40.796   6.822
 5760POPC   C4A73446  27.759  40.872   7.253
 5760POPC   C1B73447  27.238  40.594   6.105
 5760POPC   C2B73448  27.264  40.739   6.515
 5760POPC   C3B73449  27.323  40.543   6.897
 5760POPC   C4B73450  27.252  40.807   7.240
 5761POPC   NC373451  37.933  24.327   5.266
 5761POPC   PO473452  37.345  24.258   5.474
 5761POPC   GL173453  37.601  24.502   5.756
 5761POPC   GL273454  37.961  24.513   5.739
 5761POPC   C1A73455  37.631  24.671   6.165
 5761POPC   D2A73456  37.815  24.585   6.560
 5761POPC   C3A73457  37.623  24.480   6.940
 5761POPC   C4A73458  37.465  24.763   7.240
 5761POPC   C1B73459  37.957  24.257   6.108
 5761POPC   C2B73460  37.958  24.100   6.543
 5761POPC   C3B73461  38.108  24.204   6.994
 5761POPC   C4B73462  37.951  24.458   7.358
 5762POPC   NC373463  43.860  15.752   5.567
 5762POPC   PO473464  43.575  16.316   5.403
 5762POPC   GL173465  43.803  16.241   5.766
 5762POPC   GL273466  43.603  15.977   5.964
 5762POPC   C1A73467  44.033  16.197   6.145
 5762POPC   D2A73468  43.870  16.040   6.512
 5762POPC   C3A73469  43.921  16.308   6.837
 5762POPC   C4A73470  43.903  16.161   7.236
 5762POPC   C1B73471  43.658  15.567   6.192
 5762POPC   C2B73472  43.788  15.527   6.612
 5762POPC   C3B73473  43.778  15.740   6.984
 5762POPC   C4B73474  43.527  15.653   7.339
 5763POPC   NC373475  20.731  11.874   4.919
 5763POPC   PO473476  20.814  12.212   5.516
 5763POPC   GL173477  20.724  12.041   5.903
 5763POPC   GL273478  20.487  12.286   5.967
 5763POPC   C1A73479  20.578  11.962   6.356
 5763POPC   D2A73480  20.567  12.274   6.715
 5763POPC   C3A73481  20.523  12.145   7.136
 5763POPC   C4A73482  20.148  11.984   7.368
 5763POPC   C1B73483  20.827  12.408   6.271
 5763POPC   C2B73484  21.016  12.499   6.690
 5763POPC   C3B73485  21.010  12.328   7.083
 5763POPC   C4B73486  20.876  12.396   7.511
 5764POPC   NC373487  13.836  39.936   5.144
 5764POPC   PO473488  14.068  39.762   5.748
 5764POPC   GL173489  13.787  40.041   5.964
 5764POPC   GL273490  13.590  40.210   5.714
 5764POPC   C1A73491  13.630  39.986   6.375
 5764POPC   D2A73492  13.322  40.034   6.666
 5764POPC   C3A73493  13.535  40.180   6.994
 5764POPC   C4A73494  13.638  39.902   7.253
 5764POPC   C1B73495  13.381  40.348   6.114
 5764POPC   C2B73496  13.084  40.411   6.424
 5764POPC   C3B73497  13.030  40.399   6.906
 5764POPC   C4B73498  13.268  40.501   7.311
 5765POPC   NC373499  10.526  21.577   5.368
 5765POPC   PO473500  10.829  21.035   5.092
 5765POPC   GL173501  10.786  21.193   5.566
 5765POPC   GL273502  10.960  21.525   5.669
 5765POPC   C1A73503  10.472  21.284   5.950
 5765POPC   D2A73504  10.303  21.065   6.335
 5765POPC   C3A73505  10.296  21.182   6.783
 5765POPC   C4A73506  10.391  21.113   7.214
 5765POPC   C1B73507  10.842  21.609   6.116
 5765POPC   C2B73508  10.667  21.429   6.508
 5765POPC   C3B73509  10.780  21.338   6.948
 5765POPC   C4B73510  10.993  21.537   7.278
 5766POPC   NC373511  33.229  43.146   5.455
 5766POPC   PO473512  32.769  42.724   5.620
 5766POPC   GL173513  32.990  42.978   5.893
 5766POPC   GL273514  33.333  42.871   5.863
 5766POPC   C1A73515  32.981  43.053   6.332
 5766POPC   D2A73516  32.829  43.342   6.679
 5766POPC   C3A73517  32.829  43.091   7.036
 5766POPC   C4A73518  32.487  42.784   7.143
 5766POPC   C1B73519  33.440  43.187   6.156
 5766POPC   C2B73520  33.361  43.258   6.603
 5766POPC   C3B73521  33.334  43.254   7.007
 5766POPC   C4B73522  33.243  43.066   7.376
 5767POPC   NC373523  18.550  41.925   5.565
 5767POPC   PO473524  18.499  42.615   5.444
 5767POPC   GL173525  18.334  42.389   5.820
 5767POPC   GL273526  18.082  42.126   5.769
 5767POPC   C1A73527  18.351  42.523   6.272
 5767POPC   D2A73528  18.470  42.323   6.668
 5767POPC   C3A73529  18.571  42.504   7.074
 5767POPC   C4A73530  18.230  42.651   7.347
 5767POPC   C1B73531  18.168  42.057   6.233
 5767POPC   C2B73532  18.207  41.895   6.682
 5767POPC   C3B73533  18.233  42.076   7.083
 5767POPC   C4B73534  18.392  42.191   7.492
 5768POPC   NC373535  26.719  31.829   5.437
 5768POPC   PO473536  26.852  31.234   5.413
 5768POPC   GL173537  26.782  31.362   5.841
 5768POPC   GL273538  26.870  31.707   5.907
 5768POPC   C1A73539  26.916  31.342   6.283
 5768POPC   D2A73540  26.610  31.197   6.588
 5768POPC   C3A73541  26.692  31.257   7.012
 5768POPC   C4A73542  27.068  31.421   7.189
 5768POPC   C1B73543  26.768  31.846   6.320
 5768POPC   C2B73544  26.788  31.700   6.754
 5768POPC   C3B73545  26.729  31.858   7.161
 5768POPC   C4B73546  26.550  31.983   7.570
 5769POPC   NC373547  16.502  18.965   5.395
 5769POPC   PO473548  17.077  19.345   5.318
 5769POPC   GL173549  16.906  19.144   5.697
 5769POPC   GL273550  16.588  19.336   5.731
 5769POPC   C1A73551  16.691  18.895   6.011
 5769POPC   D2A73552  16.558  18.818   6.415
 5769POPC   C3A73553  16.848  18.916   6.746
 5769POPC   C4A73554  16.777  18.969   7.181
 5769POPC   C1B73555  16.712  19.404   6.153
 5769POPC   C2B73556  16.639  19.362   6.590
 5769POPC   C3B73557  16.448  19.533   6.967
 5769POPC   C4B73558  16.530  19.401   7.389
 5770POPC   NC373559  41.709  15.865   5.384
 5770POPC   PO473560  41.122  16.104   5.510
 5770POPC   GL173561  41.497  16.098   5.802
 5770POPC   GL273562  41.890  16.015   5.828
 5770POPC   C1A73563  41.578  16.131   6.238
 5770POPC   D2A73564  41.430  15.924   6.603
 5770POPC   C3A73565  41.437  16.093   6.980
 5770POPC   C4A73566  41.360  15.869   7.379
 5770POPC   C1B73567  41.950  15.767   6.197
 5770POPC   C2B73568  41.919  15.754   6.622
 5770POPC   C3B73569  42.090  15.875   7.005
 5770POPC   C4B73570  41.828  16.033   7.290
 5771POPC   NC373571  27.224  31.432   5.627
 5771POPC   PO473572  27.781  31.450   5.256
 5771POPC   GL173573  27.717  31.526   5.732
 5771POPC   GL273574  27.527  31.822   5.827
 5771POPC   C1A73575  27.584  31.391   6.186
 5771POPC   D2A73576  27.475  31.142   6.571
 5771POPC   C3A73577  27.582  31.377   6.957
 5771POPC   C4A73578  27.808  31.325   7.363
 5771POPC   C1B73579  27.282  31.846   6.195
 5771POPC   C2B73580  27.261  31.630   6.578
 5771POPC   C3B73581  27.262  31.816   6.981
 5771POPC   C4B73582  27.489  31.694   7.357
 5772POPC   NC373583  17.473   7.062   5.486
 5772POPC   PO473584  17.427   6.446   5.279
 5772POPC   GL173585  17.432   6.612   5.755
 5772POPC   GL273586  17.254   6.943   5.912
 5772POPC   C1A73587  17.625   6.609   6.185
 5772POPC   D2A73588  17.679   6.717   6.647
 5772POPC   C3A73589  17.641   6.500   7.063
 5772POPC   C4A73590  17.624   6.306   7.493
 5772POPC   C1B73591  17.627   7.118   6.171
 5772POPC   C2B73592  17.858   7.184   6.555
 5772POPC   C3B73593  17.582   7.142   6.907
 5772POPC   C4B73594  17.394   6.915   7.249
 5773POPC   NC373595  41.108  13.496   5.473
 5773POPC   PO473596  40.539  13.795   5.357
 5773POPC   GL173597  40.597  13.579   5.736
 5773POPC   GL273598  40.402  13.846   5.947
 5773POPC   C1A73599  40.669  13.479   6.172
 5773POPC   D2A73600  40.776  13.536   6.587
 5773POPC   C3A73601  40.729  13.289   6.965
 5773POPC   C4A73602  40.931  13.589   7.243
 5773POPC   C1B73603  40.696  14.034   6.280
 5773POPC   C2B73604  40.974  14.220   6.631
 5773POPC   C3B73605  41.118  14.045   7.046
 5773POPC   C4B73606  41.103  13.981   7.550
 5774POPC   NC373607  37.152  26.846   4.855
 5774POPC   PO473608  36.728  26.907   5.391
 5774POPC   GL173609  36.804  26.725   5.779
 5774POPC   GL273610  37.096  26.521   5.758
 5774POPC   C1A73611  37.009  26.849   6.161
 5774POPC   D2A73612  36.876  26.713   6.561
 5774POPC   C3A73613  36.989  27.000   6.856
 5774POPC   C4A73614  36.713  27.151   7.155
 5774POPC   C1B73615  37.045  26.355   6.193
 5774POPC   C2B73616  37.226  26.339   6.614
 5774POPC   C3B73617  37.039  26.461   7.004
 5774POPC   C4B73618  36.848  26.433   7.430
 5775POPC   NC373619  32.910  35.713   5.561
 5775POPC   PO473620  33.304  36.182   5.262
 5775POPC   GL173621  32.988  36.229   5.706
 5775POPC   GL273622  32.657  36.042   5.853
 5775POPC   C1A73623  33.000  36.209   6.187
 5775POPC   D2A73624  32.973  36.096   6.622
 5775POPC   C3A73625  33.346  35.982   6.817
 5775POPC   C4A73626  33.379  36.064   7.244
 5775POPC   C1B73627  32.521  36.424   6.091
 5775POPC   C2B73628  32.462  36.585   6.537
 5775POPC   C3B73629  32.665  36.470   6.930
 5775POPC   C4B73630  32.882  36.302   7.307
 5776POPC   NC373631  29.768  26.202   5.043
 5776POPC   PO473632  29.404  25.652   5.326
 5776POPC   GL173633  29.721  25.759   5.635
 5776POPC   GL273634  29.689  26.119   5.593
 5776POPC   C1A73635  29.947  25.829   6.053
 5776POPC   D2A73636  30.026  26.176   6.368
 5776POPC   C3A73637  29.991  26.091   6.818
 5776POPC   C4A73638  30.193  25.983   7.214
 5776POPC   C1B73639  29.612  26.211   6.038
 5776POPC   C2B73640  29.546  26.382   6.491
 5776POPC   C3B73641  29.488  26.234   6.898
 5776POPC   C4B73642  29.741  26.215   7.258
 5777POPC   NC373643  24.388  11.685   5.581
 5777POPC   PO473644  24.525  11.097   5.257
 5777POPC   GL173645  24.506  11.106   5.739
 5777POPC   GL273646  24.820  10.978   5.928
 5777POPC   C1A73647  24.298  11.163   6.176
 5777POPC   D2A73648  24.318  11.509   6.536
 5777POPC   C3A73649  24.433  11.440   6.993
 5777POPC   C4A73650  24.329  11.052   7.206
 5777POPC   C1B73651  24.770  11.100   6.347
 5777POPC   C2B73652  24.490  11.018   6.692
 5777POPC   C3B73653  24.801  11.054   7.015
 5777POPC   C4B73654  24.814  11.120   7.436
 5778POPC   NC373655  38.267  19.670   5.414
 5778POPC   PO473656  38.636  20.264   5.433
 5778POPC   GL173657  38.386  20.046   5.738
 5778POPC   GL273658  38.635  19.806   5.792
 5778POPC   C1A73659  38.300  19.841   6.152
 5778POPC   D2A73660  38.589  19.881   6.500
 5778POPC   C3A73661  38.462  19.965   6.919
 5778POPC   C4A73662  38.408  19.725   7.284
 5778POPC   C1B73663  38.774  20.138   6.083
 5778POPC   C2B73664  39.027  20.243   6.436
 5778POPC   C3B73665  38.974  20.077   6.850
 5778POPC   C4B73666  38.810  20.055   7.281
 5779POPC   NC373667  44.313  13.240   5.055
 5779POPC   PO473668  44.786  13.624   5.411
 5779POPC   GL173669  44.495  13.659   5.766
 5779POPC   GL273670  44.333  13.956   5.734
 5779POPC   C1A73671  44.474  13.461   6.198
 5779POPC   D2A73672  44.770  13.423   6.529
 5779POPC   C3A73673  44.558  13.447   6.901
 5779POPC   C4A73674  44.742  13.603   7.253
 5779POPC   C1B73675  44.368  13.966   6.159
 5779POPC   C2B73676  44.498  13.869   6.588
 5779POPC   C3B73677  44.429  13.942   7.036
 5779POPC   C4B73678  44.622  14.062   7.439
 5780POPC   NC373679  23.866  23.307   5.353
 5780POPC   PO473680  23.671  23.930   5.365
 5780POPC   GL173681  23.684  23.936   5.789
 5780POPC   GL273682  23.624  23.602   5.877
 5780POPC   C1A73683  23.740  23.959   6.234
 5780POPC   D2A73684  23.600  23.877   6.637
 5780POPC   C3A73685  23.689  23.782   7.053
 5780POPC   C4A73686  23.668  24.038   7.436
 5780POPC   C1B73687  23.425  23.495   6.297
 5780POPC   C2B73688  23.440  23.401   6.743
 5780POPC   C3B73689  23.349  23.395   7.144
 5780POPC   C4B73690  23.459  23.193   7.529
 5781POPC   NC373691  13.274  17.264   5.532
 5781POPC   PO473692  13.372  17.931   5.427
 5781POPC   GL173693  13.200  17.779   5.837
 5781POPC   GL273694  12.996  17.483   5.882
 5781POPC   C1A73695  13.006  17.788   6.274
 5781POPC   D2A73696  12.855  17.604   6.685
 5781POPC   C3A73697  13.119  17.603   7.059
 5781POPC   C4A73698  13.256  17.306   7.347
 5781POPC   C1B73699  12.739  17.352   6.217
 5781POPC   C2B73700  12.621  17.153   6.605
 5781POPC   C3B73701  12.689  17.156   7.043
 5781POPC   C4B73702  12.544  17.482   7.297
 5782POPC   NC373703   6.405  12.072   5.388
 5782POPC   PO473704   7.045  12.267   5.655
 5782POPC   GL173705   6.724  11.974   5.795
 5782POPC   GL273706   6.350  11.854   5.832
 5782POPC   C1A73707   6.702  11.887   6.212
 5782POPC   D2A73708   6.884  12.036   6.573
 5782POPC   C3A73709   6.719  11.865   6.937
 5782POPC   C4A73710   6.668  12.171   7.212
 5782POPC   C1B73711   6.196  11.815   6.236
 5782POPC   C2B73712   6.321  12.100   6.582
 5782POPC   C3B73713   6.229  12.216   6.998
 5782POPC   C4B73714   6.279  11.811   7.219
 5783POPC   NC373715   5.150  23.510   5.524
 5783POPC   PO473716   4.544  23.747   5.619
 5783POPC   GL173717   4.910  23.668   5.959
 5783POPC   GL273718   5.303  23.610   5.999
 5783POPC   C1A73719   5.049  23.730   6.406
 5783POPC   D2A73720   5.290  23.997   6.665
 5783POPC   C3A73721   4.996  23.953   6.950
 5783POPC   C4A73722   4.852  23.712   7.326
 5783POPC   C1B73723   5.332  23.294   6.362
 5783POPC   C2B73724   5.228  23.391   6.802
 5783POPC   C3B73725   5.361  23.658   7.122
 5783POPC   C4B73726   5.369  23.646   7.580
 5784POPC   NC373727  40.321  42.062   5.488
 5784POPC   PO473728  40.882  42.505   5.434
 5784POPC   GL173729  40.747  42.379   5.866
 5784POPC   GL273730  40.409  42.436   6.011
 5784POPC   C1A73731  40.920  42.276   6.283
 5784POPC   D2A73732  40.907  41.925   6.586
 5784POPC   C3A73733  40.928  42.088   7.030
 5784POPC   C4A73734  40.934  42.563   7.157
 5784POPC   C1B73735  40.448  42.035   6.264
 5784POPC   C2B73736  40.422  41.975   6.726
 5784POPC   C3B73737  40.389  41.969   7.141
 5784POPC   C4B73738  40.628  42.240   7.436
 5785POPC   NC373739  20.768  40.449   5.430
 5785POPC   PO473740  20.182  40.718   5.275
 5785POPC   GL173741  20.446  40.711   5.745
 5785POPC   GL273742  20.788  40.686   5.871
 5785POPC   C1A73743  20.446  40.637   6.237
 5785POPC   D2A73744  20.238  40.674   6.649
 5785POPC   C3A73745  20.435  40.809   7.044
 5785POPC   C4A73746  20.306  41.096   7.386
 5785POPC   C1B73747  20.912  40.418   6.232
 5785POPC   C2B73748  20.727  40.461   6.657
 5785POPC   C3B73749  20.600  40.320   7.059
 5785POPC   C4B73750  20.835  40.394   7.388
 5786POPC   NC373751  35.121  40.163   5.678
 5786POPC   PO473752  35.257  39.560   5.466
 5786POPC   GL173753  35.417  39.790   5.846
 5786POPC   GL273754  35.123  39.853   6.100
 5786POPC   C1A73755  35.570  40.066   6.184
 5786POPC   D2A73756  35.331  40.118   6.565
 5786POPC   C3A73757  35.461  39.979   6.956
 5786POPC   C4A73758  35.250  39.743   7.310
 5786POPC   C1B73759  34.913  40.249   6.276
 5786POPC   C2B73760  34.913  40.384   6.685
 5786POPC   C3B73761  34.971  40.128   7.039
 5786POPC   C4B73762  35.046  40.195   7.482
 5787POPC   NC373763  25.524  40.850   5.486
 5787POPC   PO473764  25.299  40.248   5.539
 5787POPC   GL173765  25.347  40.538   5.877
 5787POPC   GL273766  25.141  40.855   5.846
 5787POPC   C1A73767  25.163  40.604   6.282
 5787POPC   D2A73768  25.385  40.694   6.648
 5787POPC   C3A73769  25.096  40.641   6.945
 5787POPC   C4A73770  24.942  40.784   7.291
 5787POPC   C1B73771  25.431  41.041   6.170
 5787POPC   C2B73772  25.394  41.282   6.553
 5787POPC   C3B73773  25.310  41.132   6.956
 5787POPC   C4B73774  25.534  40.817   7.166
 5788POPC   NC373775  37.283  44.843   5.480
 5788POPC   PO473776  36.654  44.938   5.356
 5788POPC   GL173777  36.814  44.663   5.794
 5788POPC   GL273778  36.681  44.335   5.867
 5788POPC   C1A73779  36.944  44.517   6.261
 5788POPC   D2A73780  36.842  44.695   6.700
 5788POPC   C3A73781  36.960  44.533   7.117
 5788POPC   C4A73782  37.225  44.678   7.511
 5788POPC   C1B73783  36.443  44.534   6.169
 5788POPC   C2B73784  36.348  44.464   6.578
 5788POPC   C3B73785  36.433  44.534   7.011
 5788POPC   C4B73786  36.561  44.823   7.301
 5789POPC   NC373787  10.970   0.665   5.407
 5789POPC   PO473788  10.420   0.293   5.241
 5789POPC   GL173789  10.357   0.377   5.693
 5789POPC   GL273790  10.403   0.067   5.833
 5789POPC   C1A73791  10.276   0.529   6.133
 5789POPC   D2A73792  10.500   0.640   6.534
 5789POPC   C3A73793  10.510   0.376   6.908
 5789POPC   C4A73794  10.235   0.502   7.202
 5789POPC   C1B73795  10.146   0.031   6.206
 5789POPC   C2B73796  10.131   0.277   6.579
 5789POPC   C3B73797  10.106   0.040   6.963
 5789POPC   C4B73798  10.034   0.063   7.378
 5790POPC   NC373799   2.893   1.565   5.296
 5790POPC   PO473800   2.403   1.195   5.507
 5790POPC   GL173801   2.752   1.260   5.733
 5790POPC   GL273802   2.668   1.619   5.748
 5790POPC   C1A73803   2.681   1.213   6.188
 5790POPC   D2A73804   2.510   0.971   6.522
 5790POPC   C3A73805   2.766   1.025   6.907
 5790POPC   C4A73806   2.557   1.071   7.288
 5790POPC   C1B73807   3.012   1.581   6.034
 5790POPC   C2B73808   2.903   1.602   6.447
 5790POPC   C3B73809   2.578   1.468   6.711
 5790POPC   C4B73810   2.667   1.575   7.128
 5791POPC   NC373811  42.957  17.208   5.438
 5791POPC   PO473812  43.229  17.822   5.262
 5791POPC   GL173813  43.135  17.655   5.684
 5791POPC   GL273814  43.321  17.806   5.944
 5791POPC   C1A73815  43.127  17.369   6.088
 5791POPC   D2A73816  43.219  17.076   6.433
 5791POPC   C3A73817  43.240  17.231   6.859
 5791POPC   C4A73818  43.005  17.235   7.235
 5791POPC   C1B73819  42.962  17.918   6.109
 5791POPC   C2B73820  42.951  17.951   6.516
 5791POPC   C3B73821  43.115  17.765   6.851
 5791POPC   C4B73822  43.044  17.729   7.261
 5792POPC   NC373823  30.098  32.714   5.365
 5792POPC   PO473824  29.505  32.991   5.317
 5792POPC   GL173825  29.652  33.083   5.756
 5792POPC   GL273826  30.034  33.052   5.777
 5792POPC   C1A73827  29.803  32.980   6.201
 5792POPC   D2A73828  30.040  32.867   6.509
 5792POPC   C3A73829  29.888  32.973   6.883
 5792POPC   C4A73830  29.684  32.984   7.243
 5792POPC   C1B73831  30.239  33.260   6.143
 5792POPC   C2B73832  30.410  33.231   6.559
 5792POPC   C3B73833  30.274  33.323   6.970
 5792POPC   C4B73834  30.102  33.266   7.389
 5793POPC   NC373835  38.725  31.082   5.129
 5793POPC   PO473836  38.261  30.718   5.495
 5793POPC   GL173837  38.416  30.676   5.890
 5793POPC   GL273838  38.535  30.353   5.860
 5793POPC   C1A73839  38.416  30.829   6.306
 5793POPC   D2A73840  38.611  30.766   6.708
 5793POPC   C3A73841  38.354  30.953   7.008
 5793POPC   C4A73842  38.128  30.950   7.376
 5793POPC   C1B73843  38.488  30.315   6.342
 5793POPC   C2B73844  38.582  30.245   6.790
 5793POPC   C3B73845  38.527  30.477   7.189
 5793POPC   C4B73846  38.679  30.443   7.654
 5794POPC   NC373847  18.909  41.293   5.357
 5794POPC   PO473848  18.997  41.993   5.510
 5794POPC   GL173849  18.964  41.626   5.739
 5794POPC   GL273850  19.276  41.398   5.717
 5794POPC   C1A73851  18.919  41.661   6.151
 5794POPC   D2A73852  18.899  41.409   6.479
 5794POPC   C3A73853  18.978  41.453   6.885
 5794POPC   C4A73854  18.880  41.616   7.289
 5794POPC   C1B73855  19.401  41.487   6.138
 5794POPC   C2B73856  19.306  41.734   6.515
 5794POPC   C3B73857  19.263  41.859   6.939
 5794POPC   C4B73858  19.373  41.546   7.226
 5795POPC   NC373859  26.930  12.151   5.440
 5795POPC   PO473860  27.009  11.535   5.248
 5795POPC   GL173861  26.790  11.694   5.653
 5795POPC   GL273862  26.534  11.496   5.827
 5795POPC   C1A73863  26.723  11.953   6.058
 5795POPC   D2A73864  26.749  11.885   6.533
 5795POPC   C3A73865  26.808  12.218   6.846
 5795POPC   C4A73866  26.771  12.190   7.271
 5795POPC   C1B73867  26.432  11.577   6.257
 5795POPC   C2B73868  26.310  11.611   6.675
 5795POPC   C3B73869  26.575  11.675   7.034
 5795POPC   C4B73870  26.731  11.695   7.474
 5796POPC   NC373871  31.001   8.712   5.331
 5796POPC   PO473872  30.400   8.906   5.390
 5796POPC   GL173873  30.680   8.870   5.732
 5796POPC   GL273874  30.696   8.496   5.705
 5796POPC   C1A73875  30.759   9.068   6.155
 5796POPC   D2A73876  30.925   9.269   6.534
 5796POPC   C3A73877  30.746   9.203   6.945
 5796POPC   C4A73878  30.863   9.086   7.370
 5796POPC   C1B73879  30.938   8.530   6.113
 5796POPC   C2B73880  30.989   8.754   6.528
 5796POPC   C3B73881  31.052   8.767   6.981
 5796POPC   C4B73882  30.972   8.417   7.227
 5797POPC   NC373883  25.989  18.616   5.119
 5797POPC   PO473884  26.236  19.122   5.387
 5797POPC   GL173885  25.945  18.971   5.692
 5797POPC   GL273886  26.129  18.768   5.894
 5797POPC   C1A73887  25.881  19.128   6.137
 5797POPC   D2A73888  26.123  19.312   6.480
 5797POPC   C3A73889  25.893  19.164   6.822
 5797POPC   C4A73890  26.031  18.915   7.191
 5797POPC   C1B73891  26.210  18.774   6.351
 5797POPC   C2B73892  26.317  18.914   6.774
 5797POPC   C3B73893  26.456  18.651   7.128
 5797POPC   C4B73894  26.254  18.478   7.461
 5798POPC   NC373895   4.048  44.460   5.458
 5798POPC   PO473896   4.555  44.748   5.438
 5798POPC   GL173897   4.401  44.898   5.847
 5798POPC   GL273898   4.038  44.959   5.848
 5798POPC   C1A73899   4.450  44.922   6.315
 5798POPC   D2A73900   4.431   0.151   6.731
 5798POPC   C3A73901   4.448  44.818   7.048
 5798POPC   C4A73902   4.311  44.553   7.424
 5798POPC   C1B73903   4.057  44.608   6.117
 5798POPC   C2B73904   3.938  44.651   6.542
 5798POPC   C3B73905   3.877  44.975   6.836
 5798POPC   C4B73906   4.012  44.946   7.248
 5799POPC   NC373907  23.832  41.953   5.504
 5799POPC   PO473908  23.661  42.623   5.387
 5799POPC   GL173909  23.696  42.413   5.801
 5799POPC   GL273910  23.552  42.079   5.918
 5799POPC   C1A73911  23.752  42.426   6.257
 5799POPC   D2A73912  23.539  42.289   6.626
 5799POPC   C3A73913  23.567  42.494   7.024
 5799POPC   C4A73914  23.328  42.457   7.381
 5799POPC   C1B73915  23.913  41.933   6.191
 5799POPC   C2B73916  24.057  42.133   6.568
 5799POPC   C3B73917  23.955  42.169   7.016
 5799POPC   C4B73918  23.892  42.129   7.479
 5800POPC   NC373919  11.126  37.460   5.266
 5800POPC   PO473920  11.334  38.128   5.328
 5800POPC   GL173921  11.537  37.919   5.700
 5800POPC   GL273922  11.550  37.534   5.631
 5800POPC   C1A73923  11.466  38.041   6.145
 5800POPC   D2A73924  11.575  37.867   6.543
 5800POPC   C3A73925  11.276  37.745   6.836
 5800POPC   C4A73926  11.603  37.652   7.115
 5800POPC   C1B73927  11.525  37.337   6.050
 5800POPC   C2B73928  11.259  37.278   6.435
 5800POPC   C3B73929  11.337  37.214   6.875
 5800POPC   C4B73930  11.127  37.413   7.220
 5801POPC   NC373931   8.629  41.345   5.458
 5801POPC   PO473932   9.177  41.499   5.286
 5801POPC   GL173933   9.125  41.451   5.762
 5801POPC   GL273934   8.785  41.445   5.939
 5801POPC   C1A73935   9.174  41.509   6.251
 5801POPC   D2A73936   8.890  41.428   6.633
 5801POPC   C3A73937   9.127  41.201   6.954
 5801POPC   C4A73938   9.418  41.213   7.300
 5801POPC   C1B73939   8.736  41.782   6.278
 5801POPC   C2B73940   8.863  41.934   6.703
 5801POPC   C3B73941   9.113  41.898   7.088
 5801POPC   C4B73942   9.131  42.190   7.471
 5802POPC   NC373943  22.074  19.208   5.253
 5802POPC   PO473944  22.634  18.872   5.422
 5802POPC   GL173945  22.389  19.079   5.756
 5802POPC   GL273946  22.117  18.942   5.685
 5802POPC   C1A73947  22.395  19.335   6.138
 5802POPC   D2A73948  22.625  19.441   6.533
 5802POPC   C3A73949  22.374  19.259   6.881
 5802POPC   C4A73950  22.340  19.021   7.262
 5802POPC   C1B73951  22.165  18.868   6.163
 5802POPC   C2B73952  21.938  18.909   6.578
 5802POPC   C3B73953  21.879  19.001   7.035
 5802POPC   C4B73954  21.931  18.727   7.386
 5803POPC   NC373955  38.005  10.535   5.457
 5803POPC   PO473956  37.245  10.393   5.390
 5803POPC   GL173957  37.504  10.451   5.793
 5803POPC   GL273958  37.779  10.701   5.885
 5803POPC   C1A73959  37.628  10.338   6.241
 5803POPC   D2A73960  37.882  10.474   6.602
 5803POPC   C3A73961  37.852  10.240   6.977
 5803POPC   C4A73962  37.793  10.394   7.392
 5803POPC   C1B73963  37.456  10.837   6.191
 5803POPC   C2B73964  37.591  10.915   6.633
 5803POPC   C3B73965  37.633  10.693   7.011
 5803POPC   C4B73966  37.336  10.613   7.332
 5804POPC   NC373967  28.129  27.415   5.488
 5804POPC   PO473968  28.463  28.019   5.373
 5804POPC   GL173969  28.494  27.776   5.784
 5804POPC   GL273970  28.655  27.459   5.822
 5804POPC   C1A73971  28.402  27.753   6.262
 5804POPC   D2A73972  28.241  27.898   6.676
 5804POPC   C3A73973  28.444  27.777   7.033
 5804POPC   C4A73974  28.531  27.510   7.339
 5804POPC   C1B73975  28.709  27.339   6.242
 5804POPC   C2B73976  28.591  27.431   6.674
 5804POPC   C3B73977  28.308  27.234   6.978
 5804POPC   C4B73978  28.058  27.309   7.350
 5805POPC   NC373979   3.562   5.243   5.343
 5805POPC   PO473980   3.378   4.606   5.352
 5805POPC   GL173981   3.563   4.779   5.757
 5805POPC   GL273982   3.257   4.843   5.848
 5805POPC   C1A73983   3.584   4.984   6.216
 5805POPC   D2A73984   3.650   5.151   6.662
 5805POPC   C3A73985   3.549   5.252   7.102
 5805POPC   C4A73986   3.726   5.091   7.523
 5805POPC   C1B73987   3.080   4.819   6.223
 5805POPC   C2B73988   3.150   5.072   6.554
 5805POPC   C3B73989   3.131   4.939   6.959
 5805POPC   C4B73990   3.080   5.216   7.279
 5806POPC   NC373991  31.286  17.150   5.276
 5806POPC   PO473992  31.711  17.712   5.301
 5806POPC   GL173993  31.506  17.675   5.704
 5806POPC   GL273994  31.493  17.319   5.726
 5806POPC   C1A73995  31.630  17.709   6.159
 5806POPC   D2A73996  31.507  17.916   6.550
 5806POPC   C3A73997  31.732  17.749   6.875
 5806POPC   C4A73998  31.703  17.478   7.169
 5806POPC   C1B73999  31.256  17.368   6.121
 5806POPC   C2B74000  31.318  17.442   6.589
 5806POPC   C3B74001  31.297  17.233   7.017
 5806POPC   C4B74002  31.069  17.029   7.353
 5807POPC   NC374003  39.669  42.650   5.586
 5807POPC   PO474004  39.217  42.215   5.282
 5807POPC   GL174005  39.130  42.163   5.737
 5807POPC   GL274006  39.194  42.505   5.801
 5807POPC   C1A74007  38.984  42.116   6.162
 5807POPC   D2A74008  39.076  42.353   6.525
 5807POPC   C3A74009  38.981  42.166   6.913
 5807POPC   C4A74010  39.145  42.388   7.256
 5807POPC   C1B74011  39.450  42.367   6.146
 5807POPC   C2B74012  39.575  42.555   6.507
 5807POPC   C3B74013  39.478  42.371   6.871
 5807POPC   C4B74014  39.731  42.355   7.186
 5808POPC   NC374015  19.430  42.143   5.428
 5808POPC   PO474016  19.481  42.793   5.516
 5808POPC   GL174017  19.234  42.525   5.766
 5808POPC   GL274018  18.861  42.394   5.805
 5808POPC   C1A74019  19.174  42.565   6.198
 5808POPC   D2A74020  18.938  42.454   6.550
 5808POPC   C3A74021  19.085  42.355   6.946
 5808POPC   C4A74022  19.066  42.560   7.324
 5808POPC   C1B74023  18.702  42.145   6.186
 5808POPC   C2B74024  18.782  41.914   6.586
 5808POPC   C3B74025  18.725  41.997   7.004
 5808POPC   C4B74026  18.892  42.113   7.407
 5809W        W74027  26.106  23.494   3.816
 5810W        W74028  39.605  40.954   1.381
 5811W        W74029  19.732  19.901   3.282
 5812W        W74030  23.511  40.481  10.751
 5813W        W74031  20.745  25.712   2.076
 5814W        W74032  10.802   9.230  14.556
 5815W        W74033  23.312  35.036   0.280
 5816W        W74034  26.225  20.795  11.216
 5817W        W74035  10.386  34.195   1.759
 5818W        W74036  10.050   6.970   4.449
 5819W        W74037  38.012   6.388   4.574
 5820W        W74038  32.529   0.454  10.688
 5821W        W74039  40.884  14.060  12.030
 5822W        W74040   1.484  44.754  13.392
 5823W        W74041   3.581   5.364   0.098
 5824W        W74042  37.925  26.971   4.090
 5825W        W74043  36.044  39.963   2.790
 5826W        W74044   6.445  40.570  12.900
 5827W        W74045  30.167   2.403  13.773
 5828W        W74046  26.242  42.976  10.758
 5829W        W74047  31.950   2.000   3.239
 5830W        W74048  12.845   4.230   3.054
 5831W        W74049  17.808  38.295   1.854
 5832W        W74050  32.391   4.222   2.212
 5833W        W74051  20.463   7.684   4.919
 5834W        W74052   0.776  38.122  14.389
 5835W        W74053  17.583   7.143  11.203
 5836W        W74054   9.090  28.059   0.446
 5837W        W74055  26.453   9.312  12.436
 5838W        W74056   6.781  33.486   1.182
 5839W        W74057  38.833   4.541   1.675
 5840W        W74058  30.148  43.164   2.709
 5841W        W74059  24.096  23.165  13.321
 5842W        W74060  27.142  38.210  12.517
 5843W        W74061  40.832  23.537  10.700
 5844W        W74062  27.593  38.017   4.015
 5845W        W74063  38.119  30.588   2.233
 5846W        W74064  26.470  42.498  10.831
 5847W        W74065  13.701  28.563   2.899
 5848W        W74066  40.180  40.344   2.753
 5849W        W74067  10.801  11.908   4.946
 5850W        W74068  19.300  18.809  12.412
 5851W        W74069   6.708  40.397   5.115
 5852W        W74070  11.727  12.663   3.700
 5853W        W74071  28.566  42.767  12.532
 5854W        W74072   0.059  24.642   1.778
 5855W        W74073   2.209  11.892  14.890
 5856W        W74074  28.864  14.895   1.267
 5857W        W74075  38.998  26.418  12.544
 5858W        W74076  15.025  12.354  14.893
 5859W        W74077  36.986   3.318  14.261
 5860W        W74078  35.149  38.345   3.223
 5861W        W74079  13.321   2.581  14.834
 5862W        W74080  23.154  31.603   4.176
 5863W        W74081   8.605  26.080  12.165
 5864W        W74082  17.252  33.596  13.082
 5865W        W74083  31.036   1.944  14.043
 5866W        W74084  11.893  38.034   3.829
 5867W        W74085  41.903  35.452   2.744
 5868W        W74086  13.951  39.460  11.638
 5869W        W74087  39.996   0.511   2.427
 5870W        W74088  20.129  34.133  14.591
 5871W        W74089  10.718   4.209  11.358
 5872W        W74090   3.379  43.297  14.840
 5873W        W74091  10.361  16.171   3.601
 5874W        W74092  43.566  16.651   4.314
 5875W        W74093   9.042  20.040  12.822
 5876W        W74094  37.583  33.423   5.196
 5877W        W74095  29.065  36.816   4.616
 5878W        W74096  19.751  12.205  11.676
 5879W        W74097  33.668   4.339  11.660
 5880W        W74098   4.915  12.086  13.333
 5881W        W74099  26.710  31.495  12.043
 5882W        W74100  35.466  13.595  13.973
 5883W        W74101  37.503  32.853  14.118
 5884W        W74102   3.721  14.273   2.356
 5885W        W74103  33.822  25.324   0.786
 5886W        W74104   0.879  19.799   2.916
 5887W        W74105  44.577  26.041   3.923
 5888W        W74106  29.055  43.444  12.996
 5889W        W74107   3.286  35.666  11.199
 5890W        W74108  28.484   0.925  14.289
 5891W        W74109  26.143  26.498   1.871
 5892W        W74110   5.585   5.790   0.182
 5893W        W74111  20.711   0.027   2.210
 5894W        W74112   0.246  16.743  12.790
 5895W        W74113  44.115   9.803   3.618
 5896W        W74114  34.403  39.751  13.149
 5897W        W74115  10.165  44.000  13.436
 5898W        W74116  10.321  30.819  14.029
 5899W        W74117  11.464  40.032   0.495
 5900W        W74118  17.707  41.228   0.243
 5901W        W74119  30.167   5.728  12.507
 5902W        W74120  36.904   8.379   0.541
 5903W        W74121  42.993  34.009  10.340
 5904W        W74122  29.019  41.887  14.794
 5905W        W74123  33.844  13.763   2.702
 5906W        W74124   1.337  32.114  13.452
 5907W        W74125  25.676  34.750   5.007
 5908W        W74126  42.083  19.280   1.861
 5909W        W74127  31.866  44.448  10.336
 5910W        W74128   5.477  36.830  10.720
 5911W        W74129  35.945  37.301  14.827
 5912W        W74130  44.211  37.390   0.341
 5913W        W74131  23.547   1.232  10.633
 5914W        W74132   4.153  30.806   0.955
 5915W        W74133  13.578   0.996  11.663
 5916W        W74134  11.080  31.276  14.370
 5917W        W74135  41.271   3.836  13.891
 5918W        W74136  30.387   4.257  14.430
 5919W        W74137  10.369   9.319   2.212
 5920W        W74138  34.662  24.056   2.118
 5921W        W74139   1.983   6.965  11.878
 5922W        W74140  18.746   4.816   4.278
 5923W        W74141  13.271   8.020  14.945
 5924W        W74142  41.288  33.311   0.694
 5925W        W74143  42.913  25.502   1.291
 5926W        W74144  17.980   3.939  13.440
 5927W        W74145  17.471  27.888   4.619
 5928W        W74146  17.169  32.847  13.305
 5929W        W74147  38.828   8.591  14.464
 5930W        W74148  24.552  28.346  13.817
 5931W        W74149  10.884   5.944   2.126
 5932W        W74150  21.368  15.696  11.559
 5933W        W74151  13.364  30.274  12.466
 5934W        W74152  21.697  11.275   4.092
 5935W        W74153  30.522  31.597   1.683
 5936W        W74154  18.424  34.867  11.011
 5937W        W74155  33.119  32.965   1.427
 5938W        W74156   5.319  17.570  10.892
 5939W        W74157  30.406   0.426   0.280
 5940W        W74158   7.700  19.141   2.367
 5941W        W74159   4.861  41.907  13.502
 5942W        W74160   6.935  38.563  11.696
 5943W        W74161  42.068   1.373  12.900
 5944W        W74162   9.189  12.736   1.669
 5945W        W74163   1.803  41.819   1.210
 5946W        W74164  21.139  11.063   1.706
 5947W        W74165  11.194  44.735   3.688
 5948W        W74166   9.094  42.818   0.971
 5949W        W74167  26.579  19.221  14.386
 5950W        W74168  16.989   9.322   4.093
 5951W        W74169  44.488   3.810   4.737
 5952W        W74170  14.098  31.569  14.828
 5953W        W74171  37.546  15.381   0.833
 5954W        W74172  16.290  44.441   2.458
 5955W        W74173  33.192  21.476  11.594
 5956W        W74174  28.944  27.055  12.012
 5957W        W74175  36.020  18.204   1.339
 5958W        W74176  43.848   4.093   3.500
 5959W        W74177  18.023  38.766  13.883
 5960W        W74178   2.282  43.972   4.027
 5961W        W74179  40.913  42.572   4.520
 5962W        W74180  26.477  31.532   1.768
 5963W        W74181  44.212  31.833  11.623
 5964W        W74182  30.725  35.089  11.598
 5965W        W74183  20.028  24.168  12.010
 5966W        W74184  22.710  11.699   2.640
 5967W        W74185   0.779  39.835   0.398
 5968W        W74186  32.621  34.369  13.414
 5969W        W74187  16.724   1.716  13.764
 5970W        W74188   0.241  43.989   3.698
 5971W        W74189  27.773   6.309  12.413
 5972W        W74190  12.763  34.398   2.346
 5973W        W74191  13.672  24.601  11.229
 5974W        W74192  29.358  14.137  10.353
 5975W        W74193   8.807  11.270   1.458
 5976W        W74194   2.971  42.830  11.608
 5977W        W74195  27.297  10.433   2.689
 5978W        W74196  29.451  33.948   1.244
 5979W        W74197  43.968  38.434   2.677
 5980W        W74198   3.628  41.116  12.688
 5981W        W74199   0.965   7.407  14.685
 5982W        W74200  43.891  12.278  11.548
 5983W        W74201  14.349  24.622   1.864
 5984W        W74202  29.971  38.803   2.005
 5985W        W74203  31.088   0.405  10.606
 5986W        W74204  15.979  30.382  11.991
 5987W        W74205  44.557  42.914   2.782
 5988W        W74206  35.580  22.602   0.823
 5989W        W74207  29.239   6.102  14.706
 5990W        W74208  17.538  11.110   3.326
 5991W        W74209   4.071   5.506   2.710
 5992W        W74210  32.067  34.022   0.416
 5993W        W74211  36.615  27.392  11.853
 5994W        W74212   5.785  38.841  13.842
 5995W        W74213  33.775  40.647  14.514
 5996W        W74214   5.758  11.694   3.816
 5997W        W74215  32.948  20.191   1.488
 5998W        W74216  17.538  17.318  10.924
 5999W        W74217  30.116  41.745  10.676
 6000W        W74218  22.228  25.499   0.867
 6001W        W74219  43.751  38.349  12.504
 6002W        W74220  21.756  21.404  10.978
 6003W        W74221  40.273  24.278  12.926
 6004W        W74222  13.908  40.324  10.713
 6005W        W74223  16.365  27.729   1.495
 6006W        W74224  25.177  37.530  11.725
 6007W        W74225  44.372  41.041   0.244
 6008W        W74226  15.205   0.656  11.101
 6009W        W74227  35.508  19.486  12.999
 6010W        W74228  19.681  30.125  13.674
 6011W        W74229  32.581  11.761   4.465
 6012W        W74230  35.830   7.381  12.632
 6013W        W74231  26.971  16.908  11.009
 6014W        W74232  20.751  22.640  12.359
 6015W        W74233  25.093  26.933  12.886
 6016W        W74234   0.931  44.650   1.273
 6017W        W74235   7.329  12.931   2.884
 6018W        W74236  26.014   5.666   1.920
 6019W        W74237  19.132  36.535   0.892
 6020W        W74238   6.969  30.042  13.115
 6021W        W74239   9.233  21.772   0.810
 6022W        W74240   7.123  34.754  13.960
 6023W        W74241   3.910   6.413  12.977
 6024W        W74242  32.828   8.091  14.806
 6025W        W74243  10.105   4.360   0.887
 6026W        W74244  43.322   7.309  13.371
 6027W        W74245   5.116  44.577   0.026
 6028W        W74246   8.439  24.487  14.860
 6029W        W74247  27.937  20.483   5.055
 6030W        W74248  21.559  13.352   3.747
 6031W        W74249   6.933  29.998  14.917
 6032W        W74250  26.882   6.558   5.137
 6033W        W74251  30.704  42.640   0.245
 6034W        W74252   5.199  28.189  12.011
 6035W        W74253  33.467   9.902   0.480
 6036W        W74254  23.322  29.970  13.749
 6037W        W74255   1.316  44.791  12.872
 6038W        W74256  30.916   5.171   1.367
 6039W        W74257   9.326  42.175  11.430
 6040W        W74258  14.630  26.964  11.849
 6041W        W74259  42.571  13.597  12.323
 6042W        W74260  22.674   7.839   1.892
 6043W        W74261   9.385  17.226  12.466
 6044W        W74262  15.730  39.573  12.577
 6045W        W74263   8.517   0.372   2.803
 6046W        W74264  10.925  18.864  11.418
 6047W        W74265  24.324   8.662   3.698
 6048W        W74266  16.182  15.799  13.496
 6049W        W74267  26.631  43.066  12.912
 6050W        W74268  40.987  12.596   0.409
 6051W        W74269  41.134  30.976  14.925
 6052W        W74270   7.948  38.023  14.845
 6053W        W74271   5.904  33.587  12.468
 6054W        W74272  31.949  14.967   4.741
 6055W        W74273  25.577   1.137  13.776
 6056W        W74274  33.698  36.891  14.377
 6057W        W74275  19.742   0.456  12.002
 6058W        W74276  39.917  34.055  14.906
 6059W        W74277   8.277  38.598  13.528
 6060W        W74278  40.002   7.814  13.490
 6061W        W74279  22.605  39.314   2.328
 6062W        W74280  19.708   3.964   1.713
 6063W        W74281   5.272  30.462  11.049
 6064W        W74282  42.531  40.296  13.314
 6065W        W74283  20.984   4.071  13.585
 6066W        W74284  34.821   7.321   2.242
 6067W        W74285  32.610  39.514  12.025
 6068W        W74286  34.554  30.112   1.126
 6069W        W74287  19.167  19.609   0.860
 6070W        W74288  27.498  22.036   3.680
 6071W        W74289  20.065   2.689  11.064
 6072W        W74290  13.773  12.558   3.476
 6073W        W74291  35.944  21.115  11.925
 6074W        W74292  16.517  19.664   5.330
 6075W        W74293  33.397  33.537  14.292
 6076W        W74294  17.828   2.453   3.769
 6077W        W74295   7.233  18.849   2.320
 6078W        W74296  23.278  15.322  13.283
 6079W        W74297   7.790   2.998   0.737
 6080W        W74298  11.383  20.634   2.284
 6081W        W74299   5.880   7.821  11.994
 6082W        W74300  33.464  34.626   3.092
 6083W        W74301  39.396   9.963  13.361
 6084W        W74302  31.100  14.113  13.128
 6085W        W74303  44.735  43.860   3.794
 6086W        W74304   0.553  24.432   1.940
 6087W        W74305  23.104  28.956   1.283
 6088W        W74306  35.407  42.487   3.066
 6089W        W74307   9.481  28.444   2.673
 6090W        W74308   3.151   5.448   2.709
 6091W        W74309  24.014   9.831   0.408
 6092W        W74310  28.582   5.413   0.220
 6093W        W74311  23.111   8.071   4.218
 6094W        W74312  17.901  33.640   3.893
 6095W        W74313  19.245  37.939  13.172
 6096W        W74314   9.961  17.730   3.717
 6097W        W74315  35.970  33.538  13.043
 6098W        W74316  31.999  21.750   2.951
 6099W        W74317   9.285  41.890  13.761
 6100W        W74318  38.850   0.926   4.355
 6101W        W74319   7.488  35.994   4.144
 6102W        W74320  26.578  13.370   2.583
 6103W        W74321   8.390   8.693  14.983
 6104W        W74322  10.812   0.581  12.261
 6105W        W74323  30.334   5.465   2.746
 6106W        W74324  32.829  37.069  14.601
 6107W        W74325  10.694  40.903  12.924
 6108W        W74326   7.928  20.098   1.427
 6109W        W74327  13.263  25.190   3.752
 6110W        W74328  32.043   3.939   2.793
 6111W        W74329  20.332  41.785  12.352
 6112W        W74330   0.753   3.630   4.199
 6113W        W74331  38.126  10.168   0.034
 6114W        W74332   7.606  14.601   2.228
 6115W        W74333  37.449   9.129  12.813
 6116W        W74334  22.943   6.371  13.867
 6117W        W74335  24.727  26.651  13.380
 6118W        W74336   3.451  22.578   0.640
 6119W        W74337  42.337  11.648  12.796
 6120W        W74338  22.937  35.048  10.680
 6121W        W74339   7.951   8.882   3.706
 6122W        W74340  43.521  24.557  12.546
 6123W        W74341   1.054  27.406  11.594
 6124W        W74342   1.016  41.611   0.722
 6125W        W74343  18.750  10.852  12.908
 6126W        W74344  11.187  18.558   0.314
 6127W        W74345  26.105  12.221  11.351
 6128W        W74346  25.053  17.117  13.449
 6129W        W74347  25.705  38.448   3.177
 6130W        W74348  39.085  29.497   4.646
 6131W        W74349   6.801  44.593   5.102
 6132W        W74350  11.618  26.973  14.387
 6133W        W74351  25.689  15.130   1.706
 6134W        W74352  13.231  23.967  12.179
 6135W        W74353  17.568   9.649   0.496
 6136W        W74354  11.621  14.516   1.440
 6137W        W74355  29.450   2.221   5.031
 6138W        W74356   7.424  30.653  12.926
 6139W        W74357  39.487   1.337  10.985
 6140W        W74358  37.969  14.562   4.543
 6141W        W74359  36.763  30.519   4.027
 6142W        W74360   7.743  42.879  12.507
 6143W        W74361   5.368   5.519   0.586
 6144W        W74362  11.250  13.398  10.695
 6145W        W74363  10.034  28.567   3.901
 6146W        W74364  39.495  10.001   1.894
 6147W        W74365   9.360   5.542   0.426
 6148W        W74366  44.284   1.732   4.171
 6149W        W74367  39.869   0.987  14.759
 6150W        W74368  21.569  44.589   3.619
 6151W        W74369   3.280  22.704   4.518
 6152W        W74370  39.994  11.140   3.431
 6153W        W74371  16.621  14.756   3.330
 6154W        W74372  36.888  21.637   3.307
 6155W        W74373  44.913  39.570   3.721
 6156W        W74374   8.158  25.779  11.094
 6157W        W74375  35.327  41.902   4.506
 6158W        W74376  34.933   5.854  14.052
 6159W        W74377  40.108   2.743   2.206
 6160W        W74378  29.933  20.137  12.941
 6161W        W74379  28.956  10.904   1.942
 6162W        W74380  33.375  22.442  14.812
 6163W        W74381  31.777  19.080   3.657
 6164W        W74382   2.464  13.992  11.961
 6165W        W74383  13.485  27.104  10.334
 6166W        W74384  32.386  15.059  14.782
 6167W        W74385   9.879   5.441   1.318
 6168W        W74386  14.420   1.263   9.969
 6169W        W74387  21.173   6.210   0.241
 6170W        W74388  11.820  37.612  11.078
 6171W        W74389  35.708   6.267   1.848
 6172W        W74390  17.819  17.496  14.337
 6173W        W74391   6.330  28.608   2.366
 6174W        W74392   6.444  18.791  12.389
 6175W        W74393   2.406  20.783   3.694
 6176W        W74394   1.221  38.972  13.582
 6177W        W74395  29.309   1.815   1.817
 6178W        W74396   8.619  18.553   2.336
 6179W        W74397  10.197  27.461  11.709
 6180W        W74398   2.752  12.038   3.639
 6181W        W74399  27.896  43.979  14.729
 6182W        W74400  29.861   5.357  14.876
 6183W        W74401  29.886  34.502   0.497
 6184W        W74402  32.798  28.243   1.002
 6185W        W74403   6.823   9.656   0.263
 6186W        W74404  42.996   1.992   3.890
 6187W        W74405  16.101  30.918  10.726
 6188W        W74406  19.001  21.148  11.274
 6189W        W74407  39.607  22.755  11.669
 6190W        W74408   8.452  22.875  11.715
 6191W        W74409  31.560   6.200   3.655
 6192W        W74410  11.664   8.382   4.337
 6193W        W74411  19.527  33.175   9.888
 6194W        W74412  11.315  11.327   2.555
 6195W        W74413  30.153  36.518   2.746
 6196W        W74414   2.175  41.914  12.465
 6197W        W74415  37.144  26.520  11.475
 6198W        W74416   8.959  23.670  11.991
 6199W        W74417  13.731  30.656  14.869
 6200W        W74418  34.509  31.886   0.978
 6201W        W74419  41.247   6.375   2.017
 6202W        W74420  11.152  44.999  13.394
 6203W        W74421   4.587  27.079   4.153
 6204W        W74422   8.132  20.957  12.073
 6205W        W74423  25.892  22.819   0.240
 6206W        W74424  12.408  16.079   2.670
 6207W        W74425   9.452  23.707   4.522
 6208W        W74426  32.059  26.769  13.806
 6209W        W74427  34.522  43.743   4.688
 6210W        W74428  22.049  28.198  14.392
 6211W        W74429  13.830  19.232   3.179
 6212W        W74430   2.331  35.133   0.414
 6213W        W74431   0.288  21.622  12.525
 6214W        W74432  35.326  27.958   2.217
 6215W        W74433  43.999  38.451   2.152
 6216W        W74434  26.253  21.076  14.825
 6217W        W74435  31.840   1.858  12.010
 6218W        W74436  13.868  34.284  14.493
 6219W        W74437  29.591  21.275  10.351
 6220W        W74438   9.694   8.190   3.577
 6221W        W74439  17.961   7.477  11.109
 6222W        W74440  24.537  31.522  13.560
 6223W        W74441  36.608  17.119   4.731
 6224W        W74442  27.714  16.332  13.928
 6225W        W74443  29.531  41.043  14.803
 6226W        W74444  32.508  10.970  12.803
 6227W        W74445  11.859  17.146  11.995
 6228W        W74446  34.398  41.795   1.469
 6229W        W74447   7.825  25.658  12.379
 6230W        W74448  44.499  18.707  14.434
 6231W        W74449  18.890  28.055   0.400
 6232W        W74450  21.179  14.662  14.424
 6233W        W74451  41.089  24.993   0.337
 6234W        W74452  40.442  34.796   3.306
 6235W        W74453  10.594  12.630   0.553
 6236W        W74454   4.226  14.338   3.293
 6237W        W74455  11.198  44.286   2.923
 6238W        W74456  27.581  33.194   0.911
 6239W        W74457  23.290  13.188   3.229
 6240W        W74458  23.616   6.334   0.146
 6241W        W74459  29.372  25.142  12.043
 6242W        W74460   6.699  28.117   3.670
 6243W        W74461  24.212  26.611  13.154
 6244W        W74462   8.671  35.435  14.883
 6245W        W74463  32.979  37.425   0.862
 6246W        W74464  14.282   2.291   2.218
 6247W        W74465  33.636  32.563  14.848
 6248W        W74466  16.008  21.261  14.501
 6249W        W74467  29.717  20.564   1.275
 6250W        W74468  25.037  23.397   2.766
 6251W        W74469   6.232  15.065  13.112
 6252W        W74470  22.210   8.116   4.038
 6253W        W74471  38.696   6.225   9.915
 6254W        W74472  11.548  24.992  11.982
 6255W        W74473   5.987  44.928  12.124
 6256W        W74474  12.354  38.849  13.844
 6257W        W74475  15.651  35.977   1.517
 6258W        W74476  24.188  28.974  10.633
 6259W        W74477  32.180  36.774   1.025
 6260W        W74478  13.534  25.320   4.166
 6261W        W74479  36.294  16.662  11.269
 6262W        W74480  41.595  13.144   3.753
 6263W        W74481  31.057  13.180  13.567
 6264W        W74482  44.450  18.342  14.883
 6265W        W74483  33.464  14.800   1.817
 6266W        W74484  28.689   7.771  10.766
 6267W        W74485   4.315   0.003   3.204
 6268W        W74486  34.731   7.464   4.509
 6269W        W74487  20.423  31.261   4.455
 6270W        W74488  37.450  41.489  11.196
 6271W        W74489  19.097  27.200  11.690
 6272W        W74490  30.261  17.446  11.221
 6273W        W74491  19.737  12.019  12.140
 6274W        W74492  10.890  43.238  12.436
 6275W        W74493  30.053  36.937  10.826
 6276W        W74494  10.716  43.025  14.466
 6277W        W74495  42.846  21.521  10.854
 6278W        W74496  15.899   6.775   0.297
 6279W        W74497   0.936  12.173  10.716
 6280W        W74498  35.165   1.243  10.641
 6281W        W74499  15.848  22.111   2.408
 6282W        W74500  43.381  30.141   3.894
 6283W        W74501   8.145  10.260   1.424
 6284W        W74502   6.891  25.385   2.952
 6285W        W74503  22.427  19.039   2.752
 6286W        W74504   3.935   3.564   3.692
 6287W        W74505   3.909  40.953   0.427
 6288W        W74506  16.788  13.371  11.294
 6289W        W74507  39.408  27.416  13.869
 6290W        W74508  42.928  26.706  12.212
 6291W        W74509   3.700  42.414   0.455
 6292W        W74510  41.435   6.281   4.671
 6293W        W74511   5.824  40.446   4.963
 6294W        W74512   6.150  37.124   1.323
 6295W        W74513   4.758  44.047  14.448
 6296W        W74514  11.713  43.458   2.729
 6297W        W74515  39.572   5.844  12.914
 6298W        W74516  40.394  37.524   2.420
 6299W        W74517  35.511  25.940   0.782
 6300W        W74518  39.628  41.956  12.012
 6301W        W74519   7.428   0.163   0.959
 6302W        W74520  19.722  34.847   4.767
 6303W        W74521  42.319  15.555   2.079
 6304W        W74522  36.504   4.305   4.638
 6305W        W74523   1.151  32.224   2.351
 6306W        W74524  33.482  39.038   3.278
 6307W        W74525  33.892  13.758   3.745
 6308W        W74526  15.262  40.814  12.671
 6309W        W74527   4.303  36.952  10.635
 6310W        W74528  32.151   5.881   9.879
 6311W        W74529   5.659  43.569  12.881
 6312W        W74530   3.735  23.249  12.290
 6313W        W74531  39.778  39.848   0.579
 6314W        W74532  41.338  38.304  11.214
 6315W        W74533  19.657  39.803  13.584
 6316W        W74534  35.617  42.852   4.741
 6317W        W74535  28.990   2.298   0.954
 6318W        W74536  29.715  24.372  11.760
 6319W        W74537  41.994   0.706   4.454
 6320W        W74538  21.040  28.601   0.271
 6321W        W74539  38.304  15.552   2.848
 6322W        W74540  42.433  44.810   1.487
 6323W        W74541  36.399  29.042   3.280
 6324W        W74542  44.351  34.489   3.836
 6325W        W74543  17.880  31.661  12.916
 6326W        W74544  38.890  16.117  12.668
 6327W        W74545  29.667  39.028   2.372
 6328W        W74546  35.606   4.481   0.976
 6329W        W74547  37.941  29.031   2.368
 6330W        W74548   8.140   3.313   1.975
 6331W        W74549  28.816   7.340   2.218
 6332W        W74550  37.834  22.079  11.196
 6333W        W74551  21.573   5.345   1.122
 6334W        W74552  32.298  34.681   4.133
 6335W        W74553  37.886  30.955   4.595
 6336W        W74554   8.118  29.587  14.528
 6337W        W74555  15.901  12.979  11.544
 6338W        W74556   7.341  37.312   3.816
 6339W        W74557   4.845  36.939  11.994
 6340W        W74558  25.654   1.700   1.216
 6341W        W74559  43.374  20.090  10.413
 6342W        W74560  18.457   4.815  12.015
 6343W        W74561  13.918  13.196   0.039
 6344W        W74562   2.687   4.788  11.128
 6345W        W74563  19.953  12.279   1.788
 6346W        W74564  42.758  15.111   1.806
 6347W        W74565  41.011  11.326  12.978
 6348W        W74566  18.618  30.386  12.615
 6349W        W74567   5.266  42.462  14.781
 6350W        W74568  40.265  37.656  14.161
 6351W        W74569  14.318  20.189  14.465
 6352W        W74570  21.836  26.010   3.232
 6353W        W74571  26.933  29.967   2.848
 6354W        W74572  22.953  37.570  14.812
 6355W        W74573  41.797  12.307   3.709
 6356W        W74574  14.455  27.070  10.612
 6357W        W74575  40.606   5.432  12.119
 6358W        W74576   4.745  28.665   0.399
 6359W        W74577  36.134  17.066   3.190
 6360W        W74578  44.582  37.355   3.293
 6361W        W74579  30.925  37.354  11.223
 6362W        W74580  20.077  22.068   4.418
 6363W        W74581  30.133   3.088  10.404
 6364W        W74582  17.210   2.675   3.173
 6365W        W74583  41.949  33.438   0.941
 6366W        W74584  44.325  43.421  10.957
 6367W        W74585   6.732  19.956  12.868
 6368W        W74586  41.976  24.866   2.663
 6369W        W74587  31.416  33.953   2.306
 6370W        W74588  41.920  33.565  11.689
 6371W        W74589  34.948  16.702   2.350
 6372W        W74590   0.946  30.131  13.960
 6373W        W74591  21.757  16.700  10.458
 6374W        W74592  31.269  24.272   3.272
 6375W        W74593  35.378  22.524   4.744
 6376W        W74594  42.392   0.670  14.678
 6377W        W74595  29.217  32.448   3.190
 6378W        W74596  42.800  18.291  11.620
 6379W        W74597  37.997  35.091   3.368
 6380W        W74598  10.222  16.149   1.201
 6381W        W74599  14.172  40.237   3.757
 6382W        W74600  36.260   8.154   4.093
 6383W        W74601  27.120   1.448  13.899
 6384W        W74602  21.066  19.689   1.760
 6385W        W74603  24.551   6.718   2.445
 6386W        W74604   1.519  14.913  13.077
 6387W        W74605  30.564  16.739   3.594
 6388W        W74606   2.858  13.250  11.616
 6389W        W74607  21.534   2.575  12.429
 6390W        W74608  16.198  23.950  12.937
 6391W        W74609  20.044  20.823  13.013
 6392W        W74610  18.079  16.087  12.446
 6393W        W74611  41.853  33.147   4.615
 6394W        W74612  15.636  11.184  13.910
 6395W        W74613  41.888  39.910   0.248
 6396W        W74614   1.235  17.732  12.839
 6397W        W74615  26.491  25.418   2.769
 6398W        W74616   5.186   1.651   3.209
 6399W        W74617  29.734  40.768   2.744
 6400W        W74618  30.073  25.178  11.686
 6401W        W74619  20.584  11.717   1.738
 6402W        W74620  33.081  35.183  12.558
 6403W        W74621  29.917  14.679  11.546
 6404W        W74622  29.410   1.403  13.977
 6405W        W74623   9.028  21.159  11.393
 6406W        W74624  16.335   3.163   0.302
 6407W        W74625  43.404  21.756  14.786
 6408W        W74626   6.379  41.627  11.887
 6409W        W74627  11.943  22.469   1.439
 6410W        W74628  31.735  37.550   4.640
 6411W        W74629  10.280  31.410  11.191
 6412W        W74630  38.637  35.538  14.402
 6413W        W74631  13.540  25.272   3.323
 6414W        W74632  13.790  27.563   0.229
 6415W        W74633  43.262  44.096   1.768
 6416W        W74634   3.430  14.096  12.907
 6417W        W74635   9.112  17.999   1.746
 6418W        W74636  22.432  37.120   4.989
 6419W        W74637  34.066   0.245  11.595
 6420W        W74638  31.465  27.109  13.065
 6421W        W74639  29.944  39.269  12.312
 6422W        W74640   7.723  22.583   1.407
 6423W        W74641  24.853  24.583   2.960
 6424W        W74642  40.948  16.727   1.188
 6425W        W74643   5.840  14.330   1.933
 6426W        W74644  43.685  15.255  14.533
 6427W        W74645  17.665  19.054   3.634
 6428W        W74646  15.807  34.326  10.819
 6429W        W74647  37.043  17.210  11.555
 6430W        W74648  13.716  11.599  14.967
 6431W        W74649  29.093  27.581   2.457
 6432W        W74650   3.903   4.462  14.894
 6433W        W74651  42.094  33.619   4.598
 6434W        W74652  41.826  28.515   2.742
 6435W        W74653  29.035  35.265  11.633
 6436W        W74654  44.881  44.744   3.253
 6437W        W74655  21.671  43.212   4.527
 6438W        W74656  12.539   6.606  13.939
 6439W        W74657   5.160   0.788   3.251
 6440W        W74658  26.570  14.737   3.549
 6441W        W74659  28.964  21.167  13.847
 6442W        W74660  18.720  28.499   3.330
 6443W        W74661  15.111  16.806  14.270
 6444W        W74662  22.913  10.042   3.577
 6445W        W74663  30.425  43.054   1.375
 6446W        W74664  11.792  18.230   1.414
 6447W        W74665   5.037  25.157   0.082
 6448W        W74666  27.708  31.434  11.080
 6449W        W74667  23.028  22.048  13.951
 6450W        W74668  35.116  28.694   3.199
 6451W        W74669  44.421  13.037  13.548
 6452W        W74670  36.038  31.700  12.712
 6453W        W74671  37.362  24.757   3.679
 6454W        W74672  21.158   6.987  11.521
 6455W        W74673   1.261  14.351   2.368
 6456W        W74674  25.187  25.628   3.133
 6457W        W74675  16.043  42.240   5.454
 6458W        W74676  36.563   0.510   0.003
 6459W        W74677   2.194  36.115  13.009
 6460W        W74678  23.323  10.600  14.244
 6461W        W74679  39.920  13.847   4.773
 6462W        W74680  39.344  15.746   2.603
 6463W        W74681  20.603   9.440   1.325
 6464W        W74682  37.516  34.457   3.629
 6465W        W74683  33.095  41.725   2.728
 6466W        W74684   1.643  39.317  12.904
 6467W        W74685  13.303  28.652  11.664
 6468W        W74686  16.602   1.661   3.620
 6469W        W74687  40.521  37.606   4.577
 6470W        W74688  43.166  10.288  11.999
 6471W        W74689  22.804  38.880   4.081
 6472W        W74690  13.608  44.300  13.412
 6473W        W74691  44.510  13.534  13.105
 6474W        W74692  40.274  33.042  14.809
 6475W        W74693  37.138  14.674   1.419
 6476W        W74694  25.929   0.352   1.764
 6477W        W74695  22.606   5.561  13.959
 6478W        W74696  32.908  29.990   1.205
 6479W        W74697  23.560  29.514   3.723
 6480W        W74698  16.604  44.268  13.986
 6481W        W74699  28.432  30.458   4.072
 6482W        W74700  34.013  26.715   3.226
 6483W        W74701  29.563   4.343   2.238
 6484W        W74702  18.530  12.612  12.369
 6485W        W74703   0.182  19.360   5.168
 6486W        W74704  11.862   1.996  13.906
 6487W        W74705  29.672  29.858  10.682
 6488W        W74706  37.373  43.947  10.813
 6489W        W74707   8.528  13.414  10.772
 6490W        W74708  29.882   9.792  11.134
 6491W        W74709  30.956  20.741   4.211
 6492W        W74710  13.534  34.539  13.341
 6493W        W74711  15.636  41.776   0.897
 6494W        W74712  33.443  12.464   0.407
 6495W        W74713  29.202  33.577   1.709
 6496W        W74714  28.768   4.694   0.984
 6497W        W74715  23.006   0.750  10.240
 6498W        W74716  31.982  11.968  13.463
 6499W        W74717   8.990  42.134   5.015
 6500W        W74718  17.828  39.512  11.563
 6501W        W74719  26.430  26.165  12.937
 6502W        W74720   4.142  16.601  10.820
 6503W        W74721  31.931  30.048  12.437
 6504W        W74722  43.526  27.221   2.992
 6505W        W74723  27.496  35.377  14.949
 6506W        W74724  28.548  28.033   2.420
 6507W        W74725  22.602  24.188  11.984
 6508W        W74726  44.265  28.639   0.516
 6509W        W74727  27.688  42.792   2.411
 6510W        W74728  27.899  19.387  10.415
 6511W        W74729  44.272  10.659  13.962
 6512W        W74730  14.642   9.007   1.456
 6513W        W74731  44.563  24.477   1.010
 6514W        W74732  20.210   1.684  13.112
 6515W        W74733  26.765  18.612   4.207
 6516W        W74734  10.816  15.328   0.839
 6517W        W74735   0.814  16.420  12.620
 6518W        W74736  25.329  31.312   2.688
 6519W        W74737   5.708  36.680   0.281
 6520W        W74738  23.996   8.252   0.878
 6521W        W74739  21.507  11.429  11.110
 6522W        W74740  24.466   9.587  11.146
 6523W        W74741  10.690  39.755  11.245
 6524W        W74742  22.845  11.198   1.006
 6525W        W74743  18.305  34.693   4.609
 6526W        W74744  44.031  25.084  12.948
 6527W        W74745  23.934  20.266   4.925
 6528W        W74746  33.059  10.583  11.312
 6529W        W74747   0.577   2.532   2.316
 6530W        W74748  12.181  14.268  10.825
 6531W        W74749  26.989  12.460   0.229
 6532W        W74750  35.623  30.502  10.556
 6533W        W74751  33.188   7.196   4.554
 6534W        W74752  20.982  17.541   2.035
 6535W        W74753  42.500   6.893  11.122
 6536W        W74754   0.572  30.863   2.966
 6537W        W74755  36.839  27.282   1.265
 6538W        W74756  10.945  26.486   2.659
 6539W        W74757  41.146  20.596   2.725
 6540W        W74758  28.146  16.228   4.966
 6541W        W74759  39.836  30.854  10.670
 6542W        W74760  24.526  39.693   0.514
 6543W        W74761  36.334  33.329  12.349
 6544W        W74762  23.219  34.819   3.564
 6545W        W74763   3.526  39.513  13.989
 6546W        W74764  43.398  16.068   2.820
 6547W        W74765  21.188  39.497  11.972
 6548W        W74766  13.817  27.244   2.847
 6549W        W74767  44.410  28.072  10.748
 6550W        W74768  32.521   9.603  12.505
 6551W        W74769  37.959  35.343   2.376
 6552W        W74770   8.790  19.608  12.122
 6553W        W74771  26.093   6.745   1.701
 6554W        W74772   9.253   7.800   2.652
 6555W        W74773   1.508  23.998  11.189
 6556W        W74774  16.174  18.141   1.738
 6557W        W74775  22.221   4.320  14.182
 6558W        W74776   1.814   7.618   2.253
 6559W        W74777   3.809  22.468   3.895
 6560W        W74778  35.084  38.433  13.841
 6561W        W74779   5.708   9.215  12.420
 6562W        W74780  16.196   1.994   4.309
 6563W        W74781  18.605   3.394   5.100
 6564W        W74782  24.282  13.519  11.906
 6565W        W74783  41.791   5.336  13.975
 6566W        W74784  33.377  12.275   1.455
 6567W        W74785  29.603  12.793   3.171
 6568W        W74786  12.120   8.439   0.931
 6569W        W74787  43.987  21.116   1.705
 6570W        W74788  31.517  39.018  13.894
 6571W        W74789  38.922  36.786  13.543
 6572W        W74790  11.594   0.615  13.435
 6573W        W74791  29.061  15.166   2.872
 6574W        W74792  10.105  10.813  12.019
 6575W        W74793  42.853  31.750   0.464
 6576W        W74794   7.282  22.759  11.542
 6577W        W74795   6.149  24.164   2.671
 6578W        W74796  12.508  29.016   3.511
 6579W        W74797   5.095  19.749  11.196
 6580W        W74798  33.548  30.851  12.408
 6581W        W74799  11.421  36.138   3.757
 6582W        W74800   8.930  28.454   0.795
 6583W        W74801  30.429  33.134   0.265
 6584W        W74802   1.914  18.287  12.503
 6585W        W74803  13.434  29.117   5.005
 6586W        W74804  44.838  43.221   0.400
 6587W        W74805   2.877  23.609  10.674
 6588W        W74806  35.431  16.176  12.404
 6589W        W74807  17.489  33.096  14.013
 6590W        W74808  16.216  19.827  13.980
 6591W        W74809  10.238  25.592   3.666
 6592W        W74810  22.541   6.933   3.705
 6593W        W74811  26.395  40.701  11.070
 6594W        W74812   4.407  19.816  11.599
 6595W        W74813  34.069   0.995   0.938
 6596W        W74814  30.313  35.915  13.860
 6597W        W74815  13.135   5.433  12.832
 6598W        W74816  38.966  34.617   1.189
 6599W        W74817   8.987  33.369   0.379
 6600W        W74818  11.211  38.277  14.253
 6601W        W74819  21.002  40.719   2.752
 6602W        W74820  12.799  28.184  12.937
 6603W        W74821   6.734  39.814   0.175
 6604W        W74822  32.844  19.515  12.992
 6605W        W74823  43.504   1.473  10.728
 6606W        W74824   5.458  37.360   4.960
 6607W        W74825  19.245  33.263   4.097
 6608W        W74826  10.200  37.287  14.750
 6609W        W74827  40.350   6.416  12.055
 6610W        W74828   8.900  40.888  12.586
 6611W        W74829  26.168  17.770  11.385
 6612W        W74830  14.785  38.608   1.455
 6613W        W74831  30.100  39.988  13.016
 6614W        W74832  18.291  38.124   0.760
 6615W        W74833  10.172  36.954   0.167
 6616W        W74834  40.538  18.715  12.424
 6617W        W74835  44.999  38.111  11.207
 6618W        W74836  12.295   6.245   1.179
 6619W        W74837  40.679   6.484  10.697
 6620W        W74838  40.457   9.126  14.435
 6621W        W74839  21.027  42.963  14.458
 6622W        W74840  44.893  26.380  10.130
 6623W        W74841  18.075  23.386  14.465
 6624W        W74842  18.039  17.180   3.188
 6625W        W74843  19.184  25.185  14.780
 6626W        W74844  25.972  42.871   2.935
 6627W        W74845  44.944   9.633  14.463
 6628W        W74846  31.824  41.274  11.050
 6629W        W74847  35.183  14.173   2.860
 6630W        W74848  44.814   9.275  11.745
 6631W        W74849  16.002  27.786   0.045
 6632W        W74850  35.365   0.936  13.588
 6633W        W74851  40.948  15.870  14.256
 6634W        W74852  13.765  42.321   3.449
 6635W        W74853  30.009  16.950   0.169
 6636W        W74854   9.801  24.417   3.820
 6637W        W74855  12.201  29.755   0.155
 6638W        W74856  43.828   3.297  13.414
 6639W        W74857  43.804  36.696   2.616
 6640W        W74858   6.829  44.508  14.351
 6641W        W74859  21.274  15.686  12.506
 6642W        W74860   7.871  17.729  11.874
 6643W        W74861  39.351  16.706  12.815
 6644W        W74862  12.034  27.938   0.392
 6645W        W74863  27.692  24.189   2.347
 6646W        W74864  22.220   9.651   0.723
 6647W        W74865   6.412  25.559   2.212
 6648W        W74866  43.926  43.872   4.404
 6649W        W74867   8.827  23.618  12.493
 6650W        W74868  41.761  16.753   3.216
 6651W        W74869  19.244   5.905  12.906
 6652W        W74870  21.468  22.652  10.990
 6653W        W74871  44.313  12.157  13.535
 6654W        W74872  15.066  33.603  10.795
 6655W        W74873   7.713  43.739   0.721
 6656W        W74874   3.889  33.586   3.755
 6657W        W74875   4.297  36.145   2.781
 6658W        W74876  18.339   5.005  10.695
 6659W        W74877  13.676   0.481   3.956
 6660W        W74878  22.392  42.178   3.407
 6661W        W74879  33.095  40.450  13.501
 6662W        W74880  40.296   7.904   1.855
 6663W        W74881  31.494  35.453   3.388
 6664W        W74882  24.696  40.004   0.935
 6665W        W74883  36.518  37.095   2.154
 6666W        W74884  42.256  41.331   1.685
 6667W        W74885   1.393  43.914   3.565
 6668W        W74886  15.692  27.644   0.939
 6669W        W74887   0.317  30.143   3.068
 6670W        W74888  17.178  37.937   3.809
 6671W        W74889  36.879  25.626  13.201
 6672W        W74890  31.393  36.605   3.280
 6673W        W74891  19.455   8.250   3.073
 6674W        W74892  25.971  14.020   5.295
 6675W        W74893  43.478  27.339   0.199
 6676W        W74894   8.829  34.855   2.915
 6677W        W74895   5.729   7.005  13.511
 6678W        W74896  36.313   3.600  10.236
 6679W        W74897   1.823  21.554   1.408
 6680W        W74898  17.621  36.571  13.342
 6681W        W74899   5.308  44.716  13.295
 6682W        W74900  33.970  22.224  14.476
 6683W        W74901   2.025  35.163   2.282
 6684W        W74902  36.411  39.000  12.361
 6685W        W74903   1.284  13.858  12.856
 6686W        W74904   6.891  36.887  14.958
 6687W        W74905  19.032  19.035   5.037
 6688W        W74906  18.730  12.784  13.281
 6689W        W74907  14.849  33.000   1.717
 6690W        W74908  35.525  28.883   0.769
 6691W        W74909  33.513  43.426  13.592
 6692W        W74910  19.293  25.201  14.232
 6693W        W74911  11.196  11.049  12.801
 6694W        W74912  17.130  39.508  10.172
 6695W        W74913  17.516  13.133  10.614
 6696W        W74914  15.098  22.561   2.159
 6697W        W74915  18.593  35.636  14.375
 6698W        W74916  36.808   1.538   1.919
 6699W        W74917  29.346   4.136   3.182
 6700W        W74918  12.539  34.550  13.586
 6701W        W74919   6.463   6.218  11.284
 6702W        W74920  11.824  31.845  12.716
 6703W        W74921  29.815  19.172   3.400
 6704W        W74922  13.243  34.251   2.121
 6705W        W74923  13.783  25.267   0.760
 6706W        W74924   6.306  13.610  11.987
 6707W        W74925  37.915  28.540  14.764
 6708W        W74926   3.397   3.340  14.464
 6709W        W74927  43.313  40.816  14.482
 6710W        W74928  28.975  21.324  11.968
 6711W        W74929  21.233  13.547  14.452
 6712W        W74930   6.916  42.506   1.295
 6713W        W74931   7.129  37.906   4.567
 6714W        W74932  23.211   6.868   1.662
 6715W        W74933  40.557   0.929  13.173
 6716W        W74934   5.156  25.182  13.042
 6717W        W74935  25.375  18.165   0.846
 6718W        W74936   4.794  13.695   2.110
 6719W        W74937  16.776  13.437   0.488
 6720W        W74938  20.760  15.659  12.551
 6721W        W74939   4.235  28.949   2.388
 6722W        W74940  40.066  32.510   4.567
 6723W        W74941  25.729   0.419  12.152
 6724W        W74942  27.333  28.117   3.158
 6725W        W74943  33.559  42.738  12.975
 6726W        W74944  18.829  15.449   4.307
 6727W        W74945  42.977  26.092   0.504
 6728W        W74946  11.764  18.902  12.615
 6729W        W74947  15.188   5.885  14.011
 6730W        W74948  41.207  32.068  11.201
 6731W        W74949   7.349  32.977  12.057
 6732W        W74950  32.528   8.661   0.334
 6733W        W74951  14.630  10.231  11.520
 6734W        W74952  32.046  13.285   0.808
 6735W        W74953  44.213   6.166   4.471
 6736W        W74954   0.542  38.954   5.009
 6737W        W74955  41.594  39.996   4.288
 6738W        W74956   7.913  23.137   2.709
 6739W        W74957  16.270  34.904  13.873
 6740W        W74958   0.048  33.851  11.600
 6741W        W74959  11.386  30.525  12.765
 6742W        W74960   2.154  14.109   2.258
 6743W        W74961  44.707  36.865  11.656
 6744W        W74962  43.910  19.385  11.419
 6745W        W74963  17.969  22.225  12.154
 6746W        W74964  40.404  23.841   0.840
 6747W        W74965  10.463  26.557   1.271
 6748W        W74966  24.323  32.672  11.870
 6749W        W74967  44.702  44.497  14.847
 6750W        W74968  38.812  36.818  10.989
 6751W        W74969  30.148   0.836  14.932
 6752W        W74970  21.343  43.322   2.588
 6753W        W74971  26.380  30.938  13.441
 6754W        W74972  11.886  10.592   0.283
 6755W        W74973   8.736  31.767  14.312
 6756W        W74974  30.527  21.392   4.930
 6757W        W74975  38.332   7.183  14.223
 6758W        W74976  41.746   9.183  14.793
 6759W        W74977  41.498   5.480  10.638
 6760W        W74978  20.413  14.107   0.220
 6761W        W74979  32.743  29.130   1.676
 6762W        W74980  44.874  10.813  11.941
 6763W        W74981  33.336  32.761   4.219
 6764W        W74982  23.630  32.805   0.494
 6765W        W74983  23.660   1.274  11.509
 6766W        W74984  22.133  39.388  13.527
 6767W        W74985  23.039   0.049  13.486
 6768W        W74986   3.211  21.283   2.199
 6769W        W74987  17.887  18.463   4.884
 6770W        W74988  36.320  41.317   9.767
 6771W        W74989  18.527  24.616  12.123
 6772W        W74990  34.699  36.732  11.848
 6773W        W74991  17.557  25.466   3.374
 6774W        W74992  14.335  41.547   1.809
 6775W        W74993   9.469   3.216   4.140
 6776W        W74994  24.109  27.009  13.952
 6777W        W74995  41.663  24.507  10.965
 6778W        W74996  43.781  35.359  12.622
 6779W        W74997  36.912  25.551  13.702
 6780W        W74998  32.947  15.355  12.656
 6781W        W74999  32.874  29.081  11.194
 6782W        W75000  25.917  15.170   3.948
 6783W        W75001  12.103  22.280   2.743
 6784W        W75002   1.163   5.810  13.070
 6785W        W75003  38.001   4.917   1.450
 6786W        W75004  32.938   9.592   1.182
 6787W        W75005  44.055  37.168   4.475
 6788W        W75006   4.673  38.792  10.417
 6789W        W75007  23.354   0.353  13.130
 6790W        W75008  26.975   3.212  12.518
 6791W        W75009   5.035  30.496   1.116
 6792W        W75010   0.181   5.445  14.382
 6793W        W75011  30.735  23.005  12.206
 6794W        W75012  37.147  15.769  12.441
 6795W        W75013  35.535  40.741   0.812
 6796W        W75014  31.827  21.060   1.772
 6797W        W75015  26.910  27.158  13.598
 6798W        W75016   0.116  38.612   3.817
 6799W        W75017  23.665   7.306  11.922
 6800W        W75018   1.409  10.415  12.399
 6801W        W75019   4.107   6.570  13.497
 6802W        W75020   6.202  29.026  10.723
 6803W        W75021  19.825  20.267   4.484
 6804W        W75022   8.685   6.831  13.438
 6805W        W75023   0.011  26.830  11.624
 6806W        W75024  41.552  13.353   2.910
 6807W        W75025  37.466   0.660   0.874
 6808W        W75026  20.463  33.079  11.584
 6809W        W75027  17.040  31.099   3.673
 6810W        W75028  34.981  39.027  13.781
 6811W        W75029  31.670   0.920   0.367
 6812W        W75030   0.596  19.470   4.891
 6813W        W75031  10.425  14.851   1.880
 6814W        W75032  39.862  32.196  11.256
 6815W        W75033   0.817  27.159  14.366
 6816W        W75034   7.198  35.871   1.005
 6817W        W75035   1.747  17.478   1.452
 6818W        W75036  22.145  37.872  10.780
 6819W        W75037  17.199  25.939   2.826
 6820W        W75038  27.428  26.572   0.091
 6821W        W75039  25.569  30.296  14.009
 6822W        W75040  21.222  37.475   3.140
 6823W        W75041  15.184  27.447  10.341
 6824W        W75042  16.600  38.003  10.626
 6825W        W75043  16.182  35.518   2.925
 6826W        W75044  39.332  11.290  10.901
 6827W        W75045   9.815  18.295   0.421
 6828W        W75046   7.605  16.674  12.508
 6829W        W75047  13.665  41.065  13.983
 6830W        W75048  26.223  30.176   0.334
 6831W        W75049  34.892  26.412   1.140
 6832W        W75050  42.931  34.117  14.743
 6833W        W75051  44.467   0.928   3.199
 6834W        W75052  13.111  14.593  13.864
 6835W        W75053  39.825  29.964  14.517
 6836W        W75054  21.041  41.927   3.813
 6837W        W75055  19.207  10.326  14.838
 6838W        W75056  42.648  11.769  13.764
 6839W        W75057  16.116  33.377   0.845
 6840W        W75058  31.712  26.991  12.608
 6841W        W75059  44.999   0.281  12.653
 6842W        W75060  31.565   8.671   3.821
 6843W        W75061  37.438  17.796  13.038
 6844W        W75062   0.144  12.077   4.116
 6845W        W75063  32.940  38.516  14.213
 6846W        W75064  41.931   2.871   2.495
 6847W        W75065   9.342  44.003   0.206
 6848W        W75066  12.573   4.083   4.324
 6849W        W75067   4.201  27.996   3.335
 6850W        W75068  36.095  17.296  12.009
 6851W        W75069  37.749   9.578   1.805
 6852W        W75070  30.421  30.630  11.447
 6853W        W75071  36.260  15.647  12.584
 6854W        W75072  25.934  43.263   3.283
 6855W        W75073  12.881  34.961  13.847
 6856W        W75074  17.857  27.629  13.051
 6857W        W75075  23.181  18.966  11.289
 6858W        W75076   2.956   0.337  13.803
 6859W        W75077   3.667  26.491  12.838
 6860W        W75078   4.480  27.706   2.226
 6861W        W75079   2.060  45.000  14.979
 6862W        W75080  20.127  32.127   3.320
 6863W        W75081  20.242  33.112   3.314
 6864W        W75082  30.766  34.118   3.273
 6865W        W75083  36.906  36.071  12.166
 6866W        W75084  38.007   3.322   1.996
 6867W        W75085  35.075   5.261   3.205
 6868W        W75086  31.612  38.795  12.495
 6869W        W75087  27.540  18.372  11.686
 6870W        W75088   9.270   7.842   3.204
 6871W        W75089   7.598  26.458  10.680
 6872W        W75090  13.665  12.100  14.856
 6873W        W75091  10.543  18.980   2.831
 6874W        W75092  29.173  21.238   4.106
 6875W        W75093  32.061  41.947  10.699
 6876W        W75094  37.131   5.957  12.877
 6877W        W75095  39.470  41.302   4.100
 6878W        W75096  23.521   2.765   1.782
 6879W        W75097   5.868  26.673  11.634
 6880W        W75098  43.510   9.777   2.204
 6881W        W75099  35.838  22.780   3.576
 6882W        W75100  37.543   8.873  13.332
 6883W        W75101  35.898   6.773  12.562
 6884W        W75102   8.313  31.450   4.322
 6885W        W75103   0.155  39.837  13.344
 6886W        W75104   4.416   1.870  12.094
 6887W        W75105  38.016  14.741   3.445
 6888W        W75106  37.825  37.845   1.676
 6889W        W75107  23.412   7.409   2.451
 6890W        W75108  30.282   8.157  10.743
 6891W        W75109  33.036  14.704  11.965
 6892W        W75110  25.201  15.704   0.293
 6893W        W75111  28.389  16.096  13.411
 6894W        W75112  26.066  26.898  11.071
 6895W        W75113   2.247  36.595   0.280
 6896W        W75114  30.038  15.590  10.855
 6897W        W75115  28.333  29.079  14.247
 6898W        W75116  36.724   0.206   1.744
 6899W        W75117  25.362   4.859  11.463
 6900W        W75118  27.926  28.966   4.545
 6901W        W75119  26.481  21.280  13.046
 6902W        W75120  42.846  27.419  13.368
 6903W        W75121   5.791  19.694   4.307
 6904W        W75122  41.243  40.602   1.710
 6905W        W75123  42.801  13.422  13.783
 6906W        W75124  10.092  39.925   4.193
 6907W        W75125  22.774  40.260  11.926
 6908W        W75126  28.582   3.392  13.336
 6909W        W75127   1.191  27.053  11.222
 6910W        W75128  16.319  37.237   3.153
 6911W        W75129  28.770   9.253   0.636
 6912W        W75130  25.105   0.169   2.248
 6913W        W75131  36.865   1.421  14.796
 6914W        W75132   4.715  10.316  10.091
 6915W        W75133  24.667  35.631  14.877
 6916W        W75134   3.477  15.095  13.090
 6917W        W75135  24.748  12.911  11.079
 6918W        W75136   0.897   2.289  13.945
 6919W        W75137  12.102  35.018   2.012
 6920W        W75138  10.103  35.376   1.260
 6921W        W75139  27.074   7.206  10.754
 6922W        W75140  38.242  26.524   2.402
 6923W        W75141  38.596  29.262  13.561
 6924W        W75142  12.952  29.051  10.397
 6925W        W75143  20.727  28.110   4.387
 6926W        W75144  11.368  43.571  10.022
 6927W        W75145  43.418   7.323   1.665
 6928W        W75146  19.066  20.999  14.500
 6929W        W75147  30.977  17.517  14.475
 6930W        W75148  30.322  39.588  11.464
 6931W        W75149  31.086   9.852  14.503
 6932W        W75150  14.552  16.750  14.973
 6933W        W75151   4.050   8.852   2.012
 6934W        W75152  10.179  18.339  13.033
 6935W        W75153  34.307   0.462  10.922
 6936W        W75154  28.959   3.970   5.018
 6937W        W75155  32.863  18.454  12.989
 6938W        W75156  18.780  37.124   2.765
 6939W        W75157   4.532  18.798   3.812
 6940W        W75158  40.358  43.996  11.910
 6941W        W75159   0.363  29.628   0.517
 6942W        W75160  23.865  37.995   4.355
 6943W        W75161  37.813  16.425  12.141
 6944W        W75162  21.541  19.865   1.364
 6945W        W75163  34.597   5.422  11.446
 6946W        W75164  33.011  42.052   0.220
 6947W        W75165  11.788  33.150   2.286
 6948W        W75166  28.227  31.628  11.115
 6949W        W75167  15.302   5.940  13.146
 6950W        W75168  26.272  19.093  11.162
 6951W        W75169  24.172  11.296   0.617
 6952W        W75170   6.348   0.232   3.057
 6953W        W75171  33.005  40.334  12.614
 6954W        W75172  16.595   9.408  13.448
 6955W        W75173  35.100   9.263  12.455
 6956W        W75174  29.461  31.392   2.336
 6957W        W75175  34.543  20.442  13.718
 6958W        W75176  33.560  30.742  12.929
 6959W        W75177  13.385  43.317  14.767
 6960W        W75178  22.763  37.475   0.304
 6961W        W75179   7.221  22.138  14.910
 6962W        W75180  44.295   0.829   1.443
 6963W        W75181  34.364  41.229  12.679
 6964W        W75182   8.312  10.361  11.565
 6965W        W75183  26.525  38.974  14.830
 6966W        W75184  44.346  31.281   1.516
 6967W        W75185   3.925  19.632  11.549
 6968W        W75186  24.777  36.751   2.407
 6969W        W75187  26.593  39.781  14.391
 6970W        W75188  33.981  18.367  14.011
 6971W        W75189  42.567  34.503   0.435
 6972W        W75190  40.002  22.434  14.618
 6973W        W75191  32.117  13.711   2.229
 6974W        W75192  25.684  43.778   0.646
 6975W        W75193  14.209  42.864  12.871
 6976W        W75194  33.517  18.066   3.653
 6977W        W75195  23.461  21.661   2.769
 6978W        W75196   5.225  11.055   3.678
 6979W        W75197  10.121  22.028   4.690
 6980W        W75198  40.765  37.478  11.171
 6981W        W75199  38.105  28.533   2.212
 6982W        W75200   3.736  29.543  14.947
 6983W        W75201  26.951  36.500   2.432
 6984W        W75202  11.144  14.231   3.661
 6985W        W75203  34.523  31.322   2.872
 6986W        W75204  42.128  30.765  14.301
 6987W        W75205  30.470  28.105  10.208
 6988W        W75206  14.265  41.487  14.738
 6989W        W75207  14.251  31.364   3.677
 6990W        W75208  32.285  26.144  11.534
 6991W        W75209  40.928  15.412   4.501
 6992W        W75210  14.031  28.982   1.651
 6993W        W75211  26.551  40.189  12.490
 6994W        W75212   2.974  18.044   2.983
 6995W        W75213  30.136   7.119  12.914
 6996W        W75214   3.369  32.942  11.977
 6997W        W75215  26.929  26.748  13.906
 6998W        W75216  27.635  38.982  11.754
 6999W        W75217   8.893   8.671   4.533
 7000W        W75218  21.150   4.731  14.220
 7001W        W75219  44.887  29.067  14.667
 7002W        W75220  15.649  16.857   4.004
 7003W        W75221  22.670  10.312   1.904
 7004W        W75222  37.315   9.694   4.018
 7005W        W75223  15.216  29.691   4.655
 7006W        W75224  22.561  11.608   1.197
 7007W        W75225  34.275  27.185   3.260
 7008W        W75226  26.208  19.203   2.165
 7009W        W75227  22.177  44.826  10.484
 7010W        W75228   0.394  23.930  12.868
 7011W        W75229  32.133  41.748  13.750
 7012W        W75230  10.755   6.484  12.084
 7013W        W75231   8.314   0.092   3.501
 7014W        W75232  42.042  39.762   4.424
 7015W        W75233  29.268  34.132   3.300
 7016W        W75234  24.866  39.785  12.037
 7017W        W75235  26.622   6.106   0.069
 7018W        W75236  38.485   3.457   0.394
 7019W        W75237   1.820  11.288   4.597
 7020W        W75238  44.883   3.365  11.896
 7021W        W75239  21.571   9.943   4.473
 7022W        W75240  13.231   4.653   3.744
 7023W        W75241  28.399  16.651   2.446
 7024W        W75242  10.421  30.523   4.170
 7025W        W75243  15.587  41.028  11.385
 7026W        W75244  35.605   7.015  12.949
 7027W        W75245  37.199   2.833  12.969
 7028W        W75246  44.518  21.265   0.830
 7029W        W75247  24.086  36.204   4.557
 7030W        W75248  25.659  28.383  11.121
 7031W        W75249  40.513  14.999   2.402
 7032W        W75250  14.589  10.741  10.726
 7033W        W75251  26.589  17.364   1.404
 7034W        W75252  10.390  40.931   2.273
 7035W        W75253   5.798  24.642   3.103
 7036W        W75254  29.641  32.032  12.934
 7037W        W75255  17.315  31.066  14.371
 7038W        W75256   6.357  44.002  11.707
 7039W        W75257  10.224  29.586   1.273
 7040W        W75258  23.960  12.538   1.797
 7041W        W75259  31.980  37.670  11.713
 7042W        W75260  43.234   6.847   1.545
 7043W        W75261  40.869  38.140  14.328
 7044W        W75262   0.231  33.061   0.025
 7045W        W75263  23.133  22.638   2.159
 7046W        W75264  19.105   7.938  11.464
 7047W        W75265  25.865  17.155   4.152
 7048W        W75266   0.393  14.314   3.599
 7049W        W75267  17.257   2.393   2.740
 7050W        W75268  23.074  17.891  14.195
 7051W        W75269  17.336  21.061  12.770
 7052W        W75270  20.612  22.001  14.408
 7053W        W75271  39.488  40.864   1.885
 7054W        W75272  21.645   6.880  14.335
 7055W        W75273  31.396  29.054  14.147
 7056W        W75274   6.321  16.165  13.918
 7057W        W75275  18.231  32.310   3.289
 7058W        W75276   3.625  24.790  13.388
 7059W        W75277  44.460  31.978   0.767
 7060W        W75278  43.116  22.486   0.577
 7061W        W75279  28.130  19.472   3.650
 7062W        W75280   3.805  24.598  12.482
 7063W        W75281  32.112   9.924  12.462
 7064W        W75282  44.706  41.484  12.977
 7065W        W75283  10.588  23.710   2.245
 7066W        W75284   5.752  26.101  12.945
 7067W        W75285  33.917  40.775   2.699
 7068W        W75286   7.604  17.281   3.658
 7069W        W75287  35.828  22.955  13.362
 7070W        W75288  21.596  29.929  13.140
 7071W        W75289  37.958  10.472   0.989
 7072W        W75290  43.856  36.190   2.430
 7073W        W75291  28.023   1.070  14.994
 7074W        W75292   0.734  11.812   2.280
 7075W        W75293   9.119   5.370   4.196
 7076W        W75294  23.746  28.050   0.508
 7077W        W75295  34.352  21.606   2.817
 7078W        W75296   1.999  43.020  13.848
 7079W        W75297  34.615   0.488   3.715
 7080W        W75298  27.120  33.851  10.920
 7081W        W75299   0.666   3.734  10.996
 7082W        W75300  10.718   3.692  12.860
 7083W        W75301  43.950   2.480   2.824
 7084W        W75302   6.875  34.969  12.123
 7085W        W75303   8.751  41.173  14.871
 7086W        W75304  16.572  32.909   4.822
 7087W        W75305  16.758  31.463   2.269
 7088W        W75306  43.862  29.043   1.337
 7089W        W75307  28.270  41.423   0.296
 7090W        W75308  12.115  22.691  12.597
 7091W        W75309   0.718  44.775   0.389
 7092W        W75310  14.856  32.647   4.518
 7093W        W75311  16.553  37.792  11.978
 7094W        W75312  33.813  30.161  13.848
 7095W        W75313  13.252  14.651  11.648
 7096W        W75314  30.512  38.841   4.587
 7097W        W75315  40.521  28.566   0.799
 7098W        W75316  12.686   5.223  12.640
 7099W        W75317  42.646  18.588  14.113
 7100W        W75318  25.773   6.631   4.626
 7101W        W75319  19.927  33.468   1.302
 7102W        W75320  25.728   3.690  12.003
 7103W        W75321   5.006   0.820   0.317
 7104W        W75322  44.893   1.645  10.706
 7105W        W75323  14.646   2.041  13.925
 7106W        W75324  15.312  43.368   2.120
 7107W        W75325  37.625  40.826   4.241
 7108W        W75326   1.661   9.689   3.261
 7109W        W75327  16.274   0.118   4.170
 7110W        W75328  42.338   2.302  13.945
 7111W        W75329   1.750  39.629   4.357
 7112W        W75330  12.701   2.973   1.919
 7113W        W75331  37.125  32.333  14.930
 7114W        W75332  22.825   7.839   5.032
 7115W        W75333  33.620  10.689   0.890
 7116W        W75334  37.341  35.299  11.601
 7117W        W75335   5.366  16.041  11.856
 7118W        W75336  13.708  40.309  12.030
 7119W        W75337  10.290  21.009  13.218
 7120W        W75338   9.851  22.660   4.021
 7121W        W75339  17.081  27.926  12.822
 7122W        W75340   6.845  20.971  10.731
 7123W        W75341   0.844  10.836  12.846
 7124W        W75342  32.954  39.868   0.685
 7125W        W75343   4.454  25.231   0.043
 7126W        W75344  10.874  13.563  11.176
 7127W        W75345  16.585   2.177   3.607
 7128W        W75346   9.631  10.704  12.485
 7129W        W75347  19.230  29.859   2.669
 7130W        W75348  10.181  36.937  10.510
 7131W        W75349  17.831  22.816   1.861
 7132W        W75350  20.869  11.570   0.350
 7133W        W75351   4.309  27.849  14.529
 7134W        W75352   1.112  33.436  12.452
 7135W        W75353  17.435  30.470   0.824
 7136W        W75354  26.872   4.221   3.141
 7137W        W75355   3.994  19.636   3.692
 7138W        W75356  37.534  43.331  13.804
 7139W        W75357   1.515   1.202  14.400
 7140W        W75358  13.369  19.375  11.651
 7141W        W75359  41.797   6.315  14.528
 7142W        W75360  11.867  27.102  10.299
 7143W        W75361  20.547  14.959  11.643
 7144W        W75362   6.350   8.592  11.057
 7145W        W75363  27.387  23.545  13.578
 7146W        W75364  23.576  27.964   3.055
 7147W        W75365   3.060  35.076  14.751
 7148W        W75366   6.807  39.252   5.717
 7149W        W75367  29.459  38.936   1.921
 7150W        W75368   9.785   8.051  10.508
 7151W        W75369  10.715  43.323  13.834
 7152W        W75370  17.634  34.406  10.409
 7153W        W75371  17.883  41.709  14.010
 7154W        W75372  35.410   8.525  11.459
 7155W        W75373  10.325   0.131   0.768
 7156W        W75374  28.656  42.339   2.261
 7157W        W75375  22.909   1.798  10.999
 7158W        W75376  41.938   6.437   3.683
 7159W        W75377  17.612   1.905  13.980
 7160W        W75378   4.664  29.438  13.721
 7161W        W75379  18.228  37.168   3.242
 7162W        W75380   7.811  25.141   4.996
 7163W        W75381  37.102  14.380   2.699
 7164W        W75382   9.745  37.642   1.394
 7165W        W75383  43.008  22.912  14.096
 7166W        W75384  21.292   8.797  11.225
 7167W        W75385  43.393  38.507  14.849
 7168W        W75386  15.609  30.976   2.409
 7169W        W75387   3.806  33.913  11.802
 7170W        W75388  44.174  31.412   3.168
 7171W        W75389  26.462   4.510  11.426
 7172W        W75390   0.336  33.395   2.643
 7173W        W75391  19.997  13.083  11.001
 7174W        W75392   4.336   6.689   3.110
 7175W        W75393  18.815  27.005   0.859
 7176W        W75394  15.119   0.506   2.887
 7177W        W75395  29.962  27.714   2.446
 7178W        W75396  36.024  15.301   0.885
 7179W        W75397  19.187  36.095  12.928
 7180W        W75398  12.682  43.268   0.270
 7181W        W75399  17.233  27.340   1.148
 7182W        W75400   7.212  21.067   3.144
 7183W        W75401   1.948   6.131   2.364
 7184W        W75402  16.584  19.933  13.037
 7185W        W75403  10.385  26.095  13.051
 7186W        W75404  14.148  29.147  11.625
 7187W        W75405  24.717  11.301  12.956
 7188W        W75406  12.824  33.582   0.552
 7189W        W75407  32.099  25.628  11.593
 7190W        W75408  31.634  31.557   0.448
 7191W        W75409  26.786  32.197  12.046
 7192W        W75410   4.066  38.381  14.350
 7193W        W75411  22.301   9.241   1.023
 7194W        W75412  19.186  17.112  12.959
 7195W        W75413  20.269  35.512  12.536
 7196W        W75414  13.348  26.971  13.003
 7197W        W75415  11.184  11.602  10.933
 7198W        W75416   4.737  10.830  13.936
 7199W        W75417  16.330  17.154  14.347
 7200W        W75418   8.776  44.051   1.546
 7201W        W75419  23.831  30.197  11.705
 7202W        W75420  10.499  11.037   0.712
 7203W        W75421  11.515  41.530   4.081
 7204W        W75422  14.083  10.418  11.069
 7205W        W75423  42.403  40.997   0.340
 7206W        W75424  42.454  30.678   0.838
 7207W        W75425  37.518  19.692  14.592
 7208W        W75426  31.374  25.264  11.187
 7209W        W75427  30.830   5.592  13.137
 7210W        W75428  30.474  34.971  12.822
 7211W        W75429  17.035  32.633  10.931
 7212W        W75430   7.387   0.693   0.990
 7213W        W75431  25.234  26.103  10.303
 7214W        W75432  10.758   9.903   4.643
 7215W        W75433  30.129  19.047  12.520
 7216W        W75434  22.717  38.194  14.226
 7217W        W75435   9.688  38.976  13.592
 7218W        W75436   1.778  38.928   1.772
 7219W        W75437  33.177  27.989  12.611
 7220W        W75438  44.397   7.172   4.198
 7221W        W75439  14.197  30.865  11.945
 7222W        W75440  27.531  39.736  11.552
 7223W        W75441  29.461  38.232   0.357
 7224W        W75442  35.814   1.444   1.891
 7225W        W75443  30.955  22.281  12.090
 7226W        W75444   3.801  38.976   2.787
 7227W        W75445  11.368  17.207   2.301
 7228W        W75446  14.041  24.768   3.577
 7229W        W75447  29.739   3.127  10.710
 7230W        W75448  41.777  25.086  13.535
 7231W        W75449  13.390  30.719   3.702
 7232W        W75450  43.921  41.608  11.896
 7233W        W75451  13.935  30.655  13.079
 7234W        W75452  10.232   6.234   0.948
 7235W        W75453  14.910   8.336  11.919
 7236W        W75454  13.118  10.312  12.677
 7237W        W75455  32.313  23.987  11.651
 7238W        W75456   2.291  37.563  12.877
 7239W        W75457  34.456  21.161   2.363
 7240W        W75458  27.943  11.101   2.306
 7241W        W75459  31.318  39.209  12.395
 7242W        W75460  23.069  31.082   4.183
 7243W        W75461  37.598  27.658  12.001
 7244W        W75462  31.557  41.777  11.947
 7245W        W75463  39.933  13.334   1.879
 7246W        W75464  18.324  13.115  13.478
 7247W        W75465  44.935  16.377   4.344
 7248W        W75466  37.429  15.668   3.093
 7249W        W75467  30.134  18.518  14.482
 7250W        W75468  39.319  29.992   0.816
 7251W        W75469  14.960  29.117   2.337
 7252W        W75470  39.846  39.413   4.023
 7253W        W75471  23.348  28.469   2.359
 7254W        W75472  10.821  17.525  11.146
 7255W        W75473   3.017  25.948  11.159
 7256W        W75474  16.763   1.689   4.124
 7257W        W75475  39.535  10.746  10.386
 7258W        W75476  11.602  10.929  13.550
 7259W        W75477  18.927  25.461  13.999
 7260W        W75478  28.219  34.774   2.331
 7261W        W75479  32.539  29.625  13.947
 7262W        W75480   7.821   8.635   4.164
 7263W        W75481  43.420  32.239  12.955
 7264W        W75482  35.211  23.029   1.745
 7265W        W75483  23.544  38.439   1.258
 7266W        W75484  14.137  37.639   2.631
 7267W        W75485  24.354  27.531  11.583
 7268W        W75486  11.495  35.788   1.031
 7269W        W75487  44.026   1.458  11.829
 7270W        W75488   2.989   7.260  13.585
 7271W        W75489  29.678  29.197   1.367
 7272W        W75490   6.388   7.623  12.032
 7273W        W75491  36.888  33.464   3.886
 7274W        W75492   5.763   8.657  10.790
 7275W        W75493  43.685  11.856   3.145
 7276W        W75494  31.728  22.709  10.838
 7277W        W75495  12.165  15.425   0.909
 7278W        W75496   9.044  22.083  11.395
 7279W        W75497  43.831  20.259  12.143
 7280W        W75498   5.319  23.754  14.929
 7281W        W75499  20.485   3.733   3.825
 7282W        W75500  32.191  22.934  13.505
 7283W        W75501  16.913  43.924   4.041
 7284W        W75502  24.404  17.904   0.569
 7285W        W75503  22.290   4.199  11.261
 7286W        W75504  13.446  32.359  11.521
 7287W        W75505  13.729  14.123   4.341
 7288W        W75506  44.137   9.848  14.795
 7289W        W75507  25.181  20.776   2.614
 7290W        W75508   5.904  24.221  12.454
 7291W        W75509  23.050  16.738  10.510
 7292W        W75510   0.231   4.800  14.893
 7293W        W75511   9.499   0.824   4.729
 7294W        W75512  16.529   9.799   2.907
 7295W        W75513  23.122   1.002  12.613
 7296W        W75514   8.370  11.012   4.425
 7297W        W75515  30.010  25.216   4.904
 7298W        W75516  26.211  22.028   3.481
 7299W        W75517  23.447  28.718  11.449
 7300W        W75518   8.839   4.383   3.622
 7301W        W75519   3.348  40.288   4.074
 7302W        W75520  17.878   5.723   1.869
 7303W        W75521   3.560   3.402  13.439
 7304W        W75522  34.000  38.502  10.952
 7305W        W75523   3.082  18.613  11.957
 7306W        W75524  13.131  35.954  10.758
 7307W        W75525  43.435  12.110  11.685
 7308W        W75526  35.647  42.027   0.476
 7309W        W75527   6.272  36.944  12.087
 7310W        W75528   1.003  37.026  12.519
 7311W        W75529  38.263   2.357  12.030
 7312W        W75530  40.051  15.198  14.924
 7313W        W75531  35.438  19.995  11.680
 7314W        W75532  42.488  17.477   2.149
 7315W        W75533  12.530  24.538  11.562
 7316W        W75534   0.353  15.542   4.601
 7317W        W75535  30.533  43.343  14.421
 7318W        W75536  25.811   3.958  12.901
 7319W        W75537   9.193  43.542  12.917
 7320W        W75538  36.895  32.760  11.660
 7321W        W75539   9.366   4.891   1.714
 7322W        W75540  37.604   6.796  12.982
 7323W        W75541  20.759  33.802   2.541
 7324W        W75542  37.544  35.470   0.039
 7325W        W75543  13.363  20.751  14.053
 7326W        W75544  26.032  32.828   2.185
 7327W        W75545  16.191  43.533  10.731
 7328W        W75546  18.908  20.195   4.625
 7329W        W75547  32.647  31.417   1.051
 7330W        W75548   2.186  19.614  13.931
 7331W        W75549   0.595  16.800   1.191
 7332W        W75550  36.245  35.101   1.373
 7333W        W75551   3.188  31.620  14.489
 7334W        W75552  10.865  28.436  12.909
 7335W        W75553  35.565  40.556  11.587
 7336W        W75554  27.253   6.189  12.461
 7337W        W75555  24.075   0.811  14.217
 7338W        W75556  14.268  24.056   3.258
 7339W        W75557  29.087   6.286   1.286
 7340W        W75558  28.985   1.263   3.573
 7341W        W75559  24.029  26.132  11.387
 7342W        W75560  16.686  31.943  10.708
 7343W        W75561  22.625   2.766   1.507
 7344W        W75562   1.837  18.529  12.953
 7345W        W75563  11.547  28.488   1.683
 7346W        W75564  11.290   5.853   3.706
 7347W        W75565  29.612  38.567   0.726
 7348W        W75566  27.210  25.260  10.647
 7349W        W75567  18.970   0.032  12.126
 7350W        W75568  44.576  21.700   2.820
 7351W        W75569  26.682  35.937  10.353
 7352W        W75570  29.991   9.174   2.405
 7353W        W75571  26.538  14.052   0.419
 7354W        W75572  18.976   0.479  12.376
 7355W        W75573  39.677   2.494   4.057
 7356W        W75574  12.797  37.311   1.713
 7357W        W75575  33.820   0.897  12.307
 7358W        W75576  27.080  15.032   2.659
 7359W        W75577   3.292  43.299  11.092
 7360W        W75578   3.321  44.672  14.577
 7361W        W75579  35.791  37.506  12.923
 7362W        W75580  12.700   1.229   0.883
 7363W        W75581   4.270  33.535  12.996
 7364W        W75582   1.885  32.061  11.284
 7365W        W75583  11.711  44.896   3.383
 7366W        W75584   0.283  17.696  10.754
 7367W        W75585  28.145  35.864   1.453
 7368W        W75586  32.842  39.130  11.304
 7369W        W75587   0.962   4.664  10.293
 7370W        W75588   3.487  25.073  12.458
 7371W        W75589  27.045  39.234   1.949
 7372W        W75590  41.800  14.832  10.933
 7373W        W75591  31.647  26.497   0.376
 7374W        W75592  11.826  21.145   0.491
 7375W        W75593   8.285  40.865  13.340
 7376W        W75594  36.460   7.669   2.160
 7377W        W75595  38.848  16.790   4.736
 7378W        W75596  25.708  20.011  11.104
 7379W        W75597  41.021   3.651  10.224
 7380W        W75598  29.891  27.562  13.799
 7381W        W75599  38.505  20.573  13.063
 7382W        W75600   1.289   7.389  13.317
 7383W        W75601   3.293  31.754   1.288
 7384W        W75602  43.765  21.570  10.823
 7385W        W75603  40.825  31.860  12.473
 7386W        W75604  43.004  44.664   0.312
 7387W        W75605  30.515  35.829  12.390
 7388W        W75606  16.864  31.316   2.771
 7389W        W75607  28.983   2.946  11.534
 7390W        W75608  23.751  42.228  12.423
 7391W        W75609  33.330  44.417   2.286
 7392W        W75610   7.399  38.077  10.616
 7393W        W75611  14.230   0.245   3.288
 7394W        W75612  29.921  24.948   1.451
 7395W        W75613  20.916  44.437   0.885
 7396W        W75614  34.055  44.865   2.450
 7397W        W75615  32.508  22.168   3.513
 7398W        W75616   9.165  32.474   4.608
 7399W        W75617  41.079  33.300   1.459
 7400W        W75618  38.790   7.213  10.583
 7401W        W75619  11.265  16.702  11.633
 7402W        W75620  36.322  29.172  11.198
 7403W        W75621   2.815  13.106   2.836
 7404W        W75622  34.346   3.454  11.648
 7405W        W75623   6.075  39.882   4.955
 7406W        W75624  11.795  14.887   3.189
 7407W        W75625   1.492  25.685  11.622
 7408W        W75626   4.755  18.855  13.348
 7409W        W75627  39.170  15.851  10.308
 7410W        W75628   9.135  37.228   4.458
 7411W        W75629  36.629  22.612   1.758
 7412W        W75630  18.046   1.267   4.038
 7413W        W75631  13.898   1.379   3.769
 7414W        W75632  31.514  40.736  14.809
 7415W        W75633  34.412   7.045   4.610
 7416W        W75634  35.402  13.316   4.912
 7417W        W75635  10.146  37.044  11.924
 7418W        W75636   5.266  25.159  14.600
 7419W        W75637  41.757  42.278  13.051
 7420W        W75638  14.065  27.190   3.292
 7421W        W75639  35.402  25.250  14.367
 7422W        W75640  30.933  13.635  12.885
 7423W        W75641  43.281  27.964  13.998
 7424W        W75642  19.023   3.335   4.094
 7425W        W75643   5.193  18.244  11.200
 7426W        W75644   5.859  10.806  10.728
 7427W        W75645   7.095   1.497  11.308
 7428W        W75646   7.233   7.334  11.494
 7429W        W75647  37.331  28.952  10.725
 7430W        W75648  32.202  21.096   4.409
 7431W        W75649  16.712  29.965   1.084
 7432W        W75650  37.223  12.659  10.606
 7433W        W75651   6.911  36.703  13.093
 7434W        W75652   3.991  11.382   3.238
 7435W        W75653  15.111  28.162   0.327
 7436W        W75654  37.931  39.092   2.676
 7437W        W75655  26.507  33.273   0.916
 7438W        W75656  16.422  42.300  13.466
 7439W        W75657   4.660  18.377  14.901
 7440W        W75658  14.627   0.492   2.612
 7441W        W75659  39.294  28.984   2.000
 7442W        W75660  16.161  34.814  12.528
 7443W        W75661   9.394  20.843  11.229
 7444W        W75662   3.708  14.623  12.639
 7445W        W75663   3.168  36.798   3.222
 7446W        W75664  20.390  42.929   1.743
 7447W        W75665  25.539  20.143   0.092
 7448W        W75666  35.618  19.351  10.764
 7449W        W75667  42.894   2.804   0.530
 7450W        W75668  27.565  39.639  14.026
 7451W        W75669  44.831   4.048  12.882
 7452W        W75670   3.151  43.796  11.169
 7453W        W75671  27.502   8.759   1.244
 7454W        W75672  26.731  37.601   3.692
 7455W        W75673  42.322  32.875   3.564
 7456W        W75674  29.682  37.415   4.975
 7457W        W75675  37.087   1.244   0.313
 7458W        W75676   3.450  25.993  14.913
 7459W        W75677   0.959  10.371  11.101
 7460W        W75678  25.619  12.325  11.564
 7461W        W75679  40.422  38.027   2.280
 7462W        W75680  24.008  18.132  11.600
 7463W        W75681  13.247  37.345   4.905
 7464W        W75682  30.748  20.569  10.593
 7465W        W75683  15.181   4.657  14.912
 7466W        W75684  14.941  26.269   3.816
 7467W        W75685  17.526  32.981  12.127
 7468W        W75686  34.389   2.807  14.283
 7469W        W75687  34.281  15.628   1.178
 7470W        W75688  34.877   6.639   3.746
 7471W        W75689  22.421  12.813   3.388
 7472W        W75690  11.327  33.810   4.006
 7473W        W75691  26.388  42.824  13.295
 7474W        W75692  21.052  32.333  13.808
 7475W        W75693  43.778   1.345   2.730
 7476W        W75694  31.554  37.399   1.353
 7477W        W75695  33.888  42.922  14.478
 7478W        W75696  35.852   3.757   2.131
 7479W        W75697  38.118   1.900  12.964
 7480W        W75698  35.942   7.623  11.568
 7481W        W75699   6.806  25.817  11.374
 7482W        W75700  11.807  38.304  13.385
 7483W        W75701  16.480  26.887   3.831
 7484W        W75702  37.646  20.453  14.017
 7485W        W75703  19.112  22.053  13.299
 7486W        W75704  43.078  41.248  11.388
 7487W        W75705  20.713  33.994  13.766
 7488W        W75706  16.794   9.251   3.625
 7489W        W75707  19.645  27.836  12.529
 7490W        W75708  17.445  35.173   3.731
 7491W        W75709  29.530  37.825   3.837
 7492W        W75710  30.276  21.643  11.022
 7493W        W75711  42.302  34.855  12.104
 7494W        W75712  16.301  43.787  12.094
 7495W        W75713  20.234  30.954  14.934
 7496W        W75714  19.535  40.394   2.369
 7497W        W75715   5.761  32.005   1.246
 7498W        W75716  20.523  32.134   4.555
 7499W        W75717   9.709  15.684  10.711
 7500W        W75718  24.061  33.910   0.964
 7501W        W75719   8.204  11.165  12.898
 7502W        W75720  27.591   3.826  13.856
 7503W        W75721  18.895  27.471  14.053
 7504W        W75722   0.013  14.367   2.755
 7505W        W75723  43.454  38.880  14.238
 7506W        W75724  18.190   3.981  10.669
 7507W        W75725  24.513   4.473   4.645
 7508W        W75726  16.186  25.809  14.865
 7509W        W75727  31.562  27.700   0.375
 7510W        W75728  21.508   8.908   3.526
 7511W        W75729   1.403   8.498   4.215
 7512W        W75730  37.388  35.915  12.335
 7513W        W75731   9.063   0.987   3.819
 7514W        W75732  35.084   3.039  11.940
 7515W        W75733   6.926  21.749   0.913
 7516W        W75734  12.113   1.860   2.127
 7517W        W75735  28.625  32.851   0.383
 7518W        W75736  30.067   1.346  12.806
 7519W        W75737  43.543   3.702  11.341
 7520W        W75738   8.652  12.366   0.899
 7521W        W75739  18.740   9.843   2.617
 7522W        W75740   1.001  32.585   0.022
 7523W        W75741   7.331  25.548   1.781
 7524W        W75742   8.569   1.080   3.831
 7525W        W75743  21.525  25.400  13.508
 7526W        W75744  33.044  42.827   3.336
 7527W        W75745  30.974   1.714   0.371
 7528W        W75746  43.669  36.702  12.065
 7529W        W75747  41.302  12.329   4.582
 7530W        W75748  19.068  14.176  12.914
 7531W        W75749  27.473   9.022  10.535
 7532W        W75750   8.213  27.606   0.071
 7533W        W75751  21.290  23.208  13.807
 7534W        W75752  43.763  11.198  14.957
 7535W        W75753  38.258  11.761  12.166
 7536W        W75754   4.810  22.574  12.158
 7537W        W75755  22.969  34.388   0.919
 7538W        W75756  30.011  41.406   4.059
 7539W        W75757   4.461   4.515  12.440
 7540W        W75758  27.521  40.130   3.835
 7541W        W75759  31.022   7.608  12.996
 7542W        W75760  20.511  16.299   9.806
 7543W        W75761   7.284   5.908   1.979
 7544W        W75762  15.315  33.068   1.991
 7545W        W75763  34.903  28.170   1.793
 7546W        W75764  30.578  25.029  11.674
 7547W        W75765  20.349  32.526   4.205
 7548W        W75766  43.488   8.936  11.153
 7549W        W75767  27.995  30.085  12.479
 7550W        W75768  38.817  16.622   1.916
 7551W        W75769  38.376  22.755  11.340
 7552W        W75770   0.537  10.592  11.307
 7553W        W75771   7.767  38.499   3.770
 7554W        W75772  35.104  14.323  13.375
 7555W        W75773  35.170   7.200  11.586
 7556W        W75774  36.088  35.603  14.908
 7557W        W75775  33.636  16.470   1.207
 7558W        W75776  20.536  23.550   2.330
 7559W        W75777   0.885   0.575   0.064
 7560W        W75778   2.523  24.078  13.554
 7561W        W75779  19.725  28.017  10.609
 7562W        W75780   6.043  13.677   0.176
 7563W        W75781   5.236  35.604   2.790
 7564W        W75782  29.861  17.731  13.469
 7565W        W75783  22.585  36.633   1.276
 7566W        W75784   4.759  23.040  13.966
 7567W        W75785  42.862   2.135   0.049
 7568W        W75786   7.747  10.336  14.057
 7569W        W75787  44.778   3.152   2.382
 7570W        W75788   3.691  28.670   3.750
 7571W        W75789  40.461   9.130   2.865
 7572W        W75790  19.708  25.822  11.198
 7573W        W75791  18.580  30.939   0.225
 7574W        W75792  44.432  24.524  11.511
 7575W        W75793   4.489  31.494  13.067
 7576W        W75794  31.534   6.937  13.870
 7577W        W75795  18.258  11.705  14.248
 7578W        W75796  16.532  24.967  11.596
 7579W        W75797   8.789  20.636   4.628
 7580W        W75798  27.944  30.986   0.475
 7581W        W75799  38.393   5.283  13.826
 7582W        W75800  16.674   4.791  14.224
 7583W        W75801  20.209  24.805  13.078
 7584W        W75802  42.456   0.495  11.496
 7585W        W75803   7.278  44.561   2.729
 7586W        W75804  20.855   3.447   3.222
 7587W        W75805  18.013  19.823   2.779
 7588W        W75806  36.942  13.643  14.498
 7589W        W75807  24.503  13.307  13.648
 7590W        W75808  34.331   7.429  12.284
 7591W        W75809  11.107  37.847  14.866
 7592W        W75810  14.204  38.995  10.907
 7593W        W75811  10.458  11.569   0.873
 7594W        W75812   2.308  31.090  14.440
 7595W        W75813  37.772   9.618  12.327
 7596W        W75814  10.542  36.605  14.341
 7597W        W75815   2.846  30.379   0.894
 7598W        W75816  20.049  19.798   2.186
 7599W        W75817  21.641  26.501  13.772
 7600W        W75818  36.119  24.926  14.808
 7601W        W75819  11.681  13.127  11.045
 7602W        W75820  44.022  15.885   4.174
 7603W        W75821   9.102  20.146  11.098
 7604W        W75822  20.761  25.399  12.921
 7605W        W75823  18.062  15.827  10.187
 7606W        W75824   0.044  23.618  12.658
 7607W        W75825  43.020  21.024  13.862
 7608W        W75826   1.897  26.090  11.884
 7609W        W75827  22.602  20.622  10.634
 7610W        W75828  41.501   6.732  13.370
 7611W        W75829   9.646  42.902  13.606
 7612W        W75830  42.762   3.366  12.579
 7613W        W75831  34.066  43.309  11.252
 7614W        W75832  31.630  13.371  11.867
 7615W        W75833  40.026   8.013   0.236
 7616W        W75834  29.576  16.720   4.001
 7617W        W75835  17.250   1.245   0.362
 7618W        W75836  24.613   9.640   2.340
 7619W        W75837   3.562  31.686   3.174
 7620W        W75838  12.909  18.090  12.034
 7621W        W75839  30.901  17.283   4.346
 7622W        W75840   9.071  25.933  11.457
 7623W        W75841  35.873   5.551   2.927
 7624W        W75842  35.634  29.456   2.345
 7625W        W75843  26.132  22.042  10.713
 7626W        W75844   7.382  16.732   0.390
 7627W        W75845  26.895  40.894  11.181
 7628W        W75846  21.487  20.972  11.024
 7629W        W75847  11.965  10.171  11.985
 7630W        W75848   4.336   4.905   4.495
 7631W        W75849  10.641  12.136  12.904
 7632W        W75850  36.898   7.441   2.293
 7633W        W75851   1.746  26.018   3.189
 7634W        W75852  14.605  33.475   1.725
 7635W        W75853  17.126  29.071   3.685
 7636W        W75854  29.649   7.180   3.226
 7637W        W75855  21.250  20.157  13.837
 7638W        W75856  14.806  18.249   0.041
 7639W        W75857  40.037   0.340   4.975
 7640W        W75858   1.372  15.788  12.807
 7641W        W75859  21.335  31.102  13.527
 7642W        W75860  16.269  26.652  10.605
 7643W        W75861  44.606   9.124   4.628
 7644W        W75862  18.874  39.313  12.919
 7645W        W75863  20.205  13.339  10.148
 7646W        W75864   1.355  18.098   2.720
 7647W        W75865  18.289  44.989   3.871
 7648W        W75866  19.995  44.597   4.166
 7649W        W75867  38.418  24.053  11.877
 7650W        W75868  39.835   6.936   1.067
 7651W        W75869  36.268  35.543   4.643
 7652W        W75870  39.618  11.621  13.854
 7653W        W75871  17.784  35.828  12.031
 7654W        W75872  41.255  17.072  10.679
 7655W        W75873  32.574  40.476  13.510
 7656W        W75874  34.509  14.157  12.103
 7657W        W75875  38.490  35.506  12.981
 7658W        W75876  17.191  26.814   1.364
 7659W        W75877  20.910  25.426   4.137
 7660W        W75878  36.347   8.703  12.268
 7661W        W75879  15.326  20.056   1.393
 7662W        W75880   4.890   0.053   1.813
 7663W        W75881  36.988  17.807  12.401
 7664W        W75882  12.086  12.693   2.340
 7665W        W75883   3.283  13.372   4.819
 7666W        W75884   4.394  38.124  14.684
 7667W        W75885  14.875  42.358  11.731
 7668W        W75886   8.206  25.531  11.556
 7669W        W75887  28.461  31.859   2.734
 7670W        W75888  31.160  34.462   3.264
 7671W        W75889  11.761  26.429  12.842
 7672W        W75890  37.592  33.206   2.891
 7673W        W75891   1.207  19.086   1.671
 7674W        W75892  31.225  34.851   0.346
 7675W        W75893  29.145  38.515  11.987
 7676W        W75894   3.930  19.165  13.550
 7677W        W75895  38.919  28.905   0.489
 7678W        W75896   9.857  12.175  14.422
 7679W        W75897  23.613  41.715  14.450
 7680W        W75898  42.355   1.296  13.415
 7681W        W75899  23.096  33.168  14.727
 7682W        W75900  15.496  31.313  11.752
 7683W        W75901  32.108  25.401  14.407
 7684W        W75902  26.978   8.168   3.024
 7685W        W75903   8.446  21.517  13.429
 7686W        W75904  22.635  39.148  11.048
 7687W        W75905   0.278  18.887  13.430
 7688W        W75906  34.086  24.762   2.266
 7689W        W75907  12.645   2.898   1.411
 7690W        W75908  24.532  25.484  13.824
 7691W        W75909  21.234   1.398   4.326
 7692W        W75910   0.737   5.424   0.329
 7693W        W75911  31.474   8.874  11.044
 7694W        W75912  22.210  11.851   2.708
 7695W        W75913  21.035  38.529   5.063
 7696W        W75914  34.641  33.125   1.229
 7697W        W75915  37.890   3.612  11.684
 7698W        W75916   1.842  34.840   3.760
 7699W        W75917  32.877  23.884  10.847
 7700W        W75918   7.551   6.445   5.138
 7701W        W75919  29.673   6.881   2.803
 7702W        W75920  11.429   5.203   1.307
 7703W        W75921   1.374   8.298  10.953
 7704W        W75922   7.956  11.065   3.086
 7705W        W75923  32.665   0.641   0.096
 7706W        W75924  43.605  30.569   3.656
 7707W        W75925  23.661  33.417  11.572
 7708W        W75926   9.343   4.426  12.618
 7709W        W75927  19.954  33.007  11.666
 7710W        W75928  35.357  26.603   2.568
 7711W        W75929  37.559  44.054  12.037
 7712W        W75930  12.280   8.489  12.589
 7713W        W75931  11.967  33.930   4.503
 7714W        W75932  18.580  41.386  12.488
 7715W        W75933   3.200   8.816  13.816
 7716W        W75934  22.118   6.394  10.740
 7717W        W75935  42.924  44.202   2.149
 7718W        W75936  22.561   5.237   1.403
 7719W        W75937  20.391   8.727  10.931
 7720W        W75938  37.107  10.211  14.109
 7721W        W75939   7.024  36.938  14.445
 7722W        W75940   3.988   0.395   1.788
 7723W        W75941  21.646  20.101   3.248
 7724W        W75942  28.973  23.225  11.210
 7725W        W75943  13.172  29.203  12.602
 7726W        W75944  26.777  11.192  12.423
 7727W        W75945  16.903  41.730  13.900
 7728W        W75946  28.907   6.008  14.234
 7729W        W75947  18.310   0.669   2.782
 7730W        W75948  16.551   1.205  14.435
 7731W        W75949  24.038  29.837  14.311
 7732W        W75950  44.097  43.078  12.520
 7733W        W75951  38.679   4.489   0.245
 7734W        W75952  18.767   4.992  13.714
 7735W        W75953   5.853   7.698  11.481
 7736W        W75954  16.563   7.425   0.180
 7737W        W75955  10.448   8.772  12.124
 7738W        W75956  28.637  29.191   3.429
 7739W        W75957   8.412  43.775  12.011
 7740W        W75958  26.360  24.163  10.832
 7741W        W75959  34.177  25.746  13.475
 7742W        W75960  37.538  36.947   2.103
 7743W        W75961  18.569  21.626  10.632
 7744W        W75962  13.505  35.069  14.035
 7745W        W75963   6.441  40.048  10.803
 7746W        W75964  21.452  40.379   3.584
 7747W        W75965  35.982  38.292  12.604
 7748W        W75966  18.068   0.112   2.205
 7749W        W75967  18.116  41.730   1.658
 7750W        W75968  39.815   9.926   0.132
 7751W        W75969   6.251  42.881   2.688
 7752W        W75970  31.964  22.596  12.465
 7753W        W75971  23.191  35.148  14.793
 7754W        W75972   1.816  33.217  13.089
 7755W        W75973  15.314  27.172   4.130
 7756W        W75974  27.068  26.002   4.120
 7757W        W75975  23.659  21.226  13.392
 7758W        W75976  41.525  23.037  13.829
 7759W        W75977  30.201   1.211   4.714
 7760W        W75978   2.327  16.322   4.633
 7761W        W75979  38.794  38.499   2.668
 7762W        W75980  41.428  19.472  13.053
 7763W        W75981  37.281  36.323  13.873
 7764W        W75982  36.535  35.042   2.828
 7765W        W75983  31.987  39.029   3.648
 7766W        W75984  29.652  21.266  14.498
 7767W        W75985  12.780  34.058  12.333
 7768W        W75986   8.642  33.079   0.659
 7769W        W75987  21.866  12.304  14.415
 7770W        W75988  15.397  22.916  13.968
 7771W        W75989   4.555  30.452   0.980
 7772W        W75990   2.235   1.866   0.743
 7773W        W75991  25.084  26.604  13.748
 7774W        W75992   4.359  40.832  11.134
 7775W        W75993  24.285  38.089   0.692
 7776W        W75994  40.194  44.241   3.523
 7777W        W75995  41.858   4.356  14.230
 7778W        W75996  37.827  25.518   1.900
 7779W        W75997  12.212  44.062  13.443
 7780W        W75998  20.756   7.956   3.320
 7781W        W75999  16.204  26.875   3.399
 7782W        W76000  13.245  37.024   1.830
 7783W        W76001  19.984  18.300   2.579
 7784W        W76002  23.092   5.318   3.102
 7785W        W76003  25.631  21.703  11.957
 7786W        W76004  10.331   1.358   3.348
 7787W        W76005  44.753  17.851  10.703
 7788W        W76006  17.064   6.630  14.491
 7789W        W76007  28.813   2.300   2.598
 7790W        W76008   5.098  18.550  13.645
 7791W        W76009  42.051  19.580  11.546
 7792W        W76010  43.506  19.845  13.448
 7793W        W76011  29.665  39.695   0.594
 7794W        W76012  19.631  18.363  12.115
 7795W        W76013   4.101  32.307   3.822
 7796W        W76014  30.079  11.297  14.541
 7797W        W76015  42.088  11.046   0.702
 7798W        W76016  41.302  10.868   2.315
 7799W        W76017  30.690  43.028   2.836
 7800W        W76018   1.394   6.102   4.522
 7801W        W76019  33.711  11.128   1.807
 7802W        W76020  12.149  16.436   0.069
 7803W        W76021  22.944  38.621  13.982
 7804W        W76022   7.521  26.220  11.132
 7805W        W76023  39.488  30.216   3.217
 7806W        W76024  12.249   4.166  11.263
 7807W        W76025   7.673  36.097   3.104
 7808W        W76026  43.807  36.750  11.197
 7809W        W76027  41.981   8.645  13.025
 7810W        W76028   2.082  20.109   1.858
 7811W        W76029  11.809  44.360  14.668
 7812W        W76030  24.112  29.451  12.097
 7813W        W76031  27.893  20.184  12.914
 7814W        W76032   8.610  41.451   4.658
 7815W        W76033  20.362  21.219   9.861
 7816W        W76034  35.366  26.053   3.264
 7817W        W76035  13.046   8.759   3.154
 7818W        W76036  13.884  37.127   4.092
 7819W        W76037   8.347  32.382   4.767
 7820W        W76038  31.644  34.662  14.335
 7821W        W76039  23.577  42.927  13.922
 7822W        W76040   4.195  26.233  12.021
 7823W        W76041  28.673   6.475   2.175
 7824W        W76042  25.438   5.629   4.490
 7825W        W76043  14.530  37.496   2.339
 7826W        W76044  12.271   5.686   2.485
 7827W        W76045   3.269  35.444   3.411
 7828W        W76046   3.329  30.286  14.866
 7829W        W76047  31.669  23.466  13.785
 7830W        W76048  12.184  30.721  13.522
 7831W        W76049  33.691  18.706  14.335
 7832W        W76050  19.596  38.600  12.824
 7833W        W76051  13.288  31.380  14.440
 7834W        W76052  31.973  14.134   3.126
 7835W        W76053  24.743   6.229  11.900
 7836W        W76054  20.192   1.752   1.029
 7837W        W76055  31.473  15.254  12.017
 7838W        W76056  17.849  34.377   1.092
 7839W        W76057  14.596  26.499  12.897
 7840W        W76058  38.824  10.353   4.974
 7841W        W76059  14.663  16.118   1.788
 7842W        W76060   3.263  17.038   5.045
 7843W        W76061  41.374  25.749  14.429
 7844W        W76062  37.571  39.115   4.615
 7845W        W76063  16.608  43.764  13.930
 7846W        W76064  41.103   2.601   4.924
 7847W        W76065  18.988  35.159   5.083
 7848W        W76066  23.587  29.599   0.896
 7849W        W76067   7.365  41.067  14.719
 7850W        W76068  26.176  29.194  13.293
 7851W        W76069  24.648   9.241   1.997
 7852W        W76070  26.048  42.683   2.107
 7853W        W76071  40.660  30.618  14.483
 7854W        W76072   7.275  33.225  11.623
 7855W        W76073  36.845  35.375  11.483
 7856W        W76074  14.259  40.206  14.678
 7857W        W76075   5.818  42.785   1.538
 7858W        W76076  38.893  19.079   0.819
 7859W        W76077  36.096  12.254  12.496
 7860W        W76078  24.104  11.782  14.036
 7861W        W76079  38.005  31.921   1.282
 7862W        W76080   5.889  44.008   2.151
 7863W        W76081  33.216  33.814   0.997
 7864W        W76082  25.919  31.970  12.968
 7865W        W76083   1.803   2.624   0.780
 7866W        W76084   1.205  19.153  13.522
 7867W        W76085  32.893  41.487   3.804
 7868W        W76086  11.775  32.604   0.944
 7869W        W76087   0.032  31.898   3.720
 7870W        W76088  10.380  37.538  14.324
 7871W        W76089  38.086   5.850  14.135
 7872W        W76090  26.366  32.001  13.806
 7873W        W76091  40.367  20.283   1.598
 7874W        W76092  40.419  32.962  11.236
 7875W        W76093  35.378  15.174  11.559
 7876W        W76094  23.097  19.682  13.721
 7877W        W76095  25.596  29.836   3.122
 7878W        W76096   1.179  35.548  14.839
 7879W        W76097  21.562  20.303   4.015
 7880W        W76098  21.282   3.140   3.037
 7881W        W76099  14.749   1.822  12.210
 7882W        W76100  29.881  16.346   4.197
 7883W        W76101   9.815  16.159  14.920
 7884W        W76102  32.755  19.694   1.383
 7885W        W76103  40.922   4.219  13.835
 7886W        W76104  18.345  43.005   3.616
 7887W        W76105  41.129  36.439   2.165
 7888W        W76106  32.010  14.537   1.731
 7889W        W76107   9.901  11.681  13.644
 7890W        W76108  20.752  32.929  12.071
 7891W        W76109   6.195   7.190  14.922
 7892W        W76110   1.951   5.661  11.976
 7893W        W76111   1.873   2.933   1.224
 7894W        W76112  31.885  32.230  12.120
 7895W        W76113  12.353  35.974   3.179
 7896W        W76114  44.883  10.400  13.129
 7897W        W76115  13.309   8.505  13.768
 7898W        W76116  26.084   1.636   4.418
 7899W        W76117  18.060  31.529   0.224
 7900W        W76118  35.269  39.186   3.350
 7901W        W76119  19.114   2.433   1.272
 7902W        W76120  15.929  37.258  11.576
 7903W        W76121  31.673  26.620  10.697
 7904W        W76122   6.269  16.625  10.775
 7905W        W76123   5.663  28.002  12.583
 7906W        W76124  14.916  34.166  10.847
 7907W        W76125  29.940  17.835   4.516
 7908W        W76126   6.850  22.391  13.584
 7909W        W76127   5.733   9.924  14.481
 7910W        W76128  42.363  36.184  11.194
 7911W        W76129  40.552   5.822  12.891
 7912W        W76130  41.121  15.798   3.615
 7913W        W76131  11.804  16.769  12.946
 7914W        W76132  34.647  42.468   0.726
 7915W        W76133   4.712  22.276  11.487
 7916W        W76134   5.699  37.970  11.551
 7917W        W76135  19.578  22.584  10.992
 7918W        W76136  42.829  43.482  13.408
 7919W        W76137  12.419  42.818  11.029
 7920W        W76138  28.959   7.496   0.826
 7921W        W76139   5.773   7.680   4.892
 7922W        W76140  15.593  35.936   0.991
 7923W        W76141   7.290  34.569   2.407
 7924W        W76142  37.338  23.908   0.125
 7925W        W76143  29.677   3.505  11.952
 7926W        W76144  26.391   2.701  13.528
 7927W        W76145   3.918   2.305   4.171
 7928W        W76146  44.771  19.689  12.977
 7929W        W76147  33.230   4.641  13.507
 7930W        W76148  15.452  42.106  14.095
 7931W        W76149   3.768  28.005   3.705
 7932W        W76150  34.848   2.892  14.505
 7933W        W76151   9.480  23.719  11.981
 7934W        W76152  29.547  33.041  11.534
 7935W        W76153  25.013   4.211   1.792
 7936W        W76154   3.443  34.999   3.655
 7937W        W76155  15.533  42.766  12.421
 7938W        W76156  12.784  29.215  13.866
 7939W        W76157   5.726  14.033   2.339
 7940W        W76158   6.685  41.808  10.964
 7941W        W76159  21.496   9.616  11.980
 7942W        W76160  21.920  24.908   5.040
 7943W        W76161  38.016   9.375   0.090
 7944W        W76162  32.032  28.066  11.166
 7945W        W76163   9.509  37.142   2.587
 7946W        W76164  14.355  43.971   0.190
 7947W        W76165  28.349  43.996   2.463
 7948W        W76166  34.769   6.628  11.222
 7949W        W76167  27.941  21.748   0.292
 7950W        W76168  36.457  15.017  11.531
 7951W        W76169  15.325  40.894   4.784
 7952W        W76170   4.322  12.077   0.709
 7953W        W76171  42.061  35.948  13.295
 7954W        W76172  38.855  16.568   4.271
 7955W        W76173  30.701  21.165   4.083
 7956W        W76174  31.939   3.411  11.078
 7957W        W76175  23.991  26.078   2.747
 7958W        W76176  20.041  39.967  12.008
 7959W        W76177   0.146   7.130  11.761
 7960W        W76178  10.720   5.423  10.692
 7961W        W76179  23.009   7.882  12.951
 7962W        W76180  27.659  37.015   2.178
 7963W        W76181  38.357  37.209  14.667
 7964W        W76182  21.648   5.147  13.380
 7965W        W76183  30.937  24.730  13.202
 7966W        W76184  10.308   7.910   1.432
 7967W        W76185  32.440  38.478   3.213
 7968W        W76186  38.373   0.304   0.907
 7969W        W76187  37.443  17.827   2.740
 7970W        W76188  13.830   5.985  12.478
 7971W        W76189  33.537  10.481   3.740
 7972W        W76190   8.748  32.075  11.953
 7973W        W76191  35.905  26.027  14.356
 7974W        W76192  40.789  14.367   4.443
 7975W        W76193  13.286  14.540  12.484
 7976W        W76194  16.093  21.693  12.478
 7977W        W76195   1.634  37.529   2.946
 7978W        W76196   1.049   5.755   1.686
 7979W        W76197  22.204  10.395   4.018
 7980W        W76198  38.603   1.331   4.514
 7981W        W76199  34.934  28.389   3.580
 7982W        W76200  29.291  20.979  14.858
 7983W        W76201  30.184   6.012   0.956
 7984W        W76202  24.537   7.598  11.567
 7985W        W76203  22.036  35.806   0.797
 7986W        W76204   3.561  16.556   1.567
 7987W        W76205  22.011   1.020  11.080
 7988W        W76206  24.704  40.273  11.999
 7989W        W76207  13.113   8.825   2.631
 7990W        W76208  28.948  41.887  14.267
 7991W        W76209  37.114  21.668  10.948
 7992W        W76210  38.806  44.100   4.134
 7993W        W76211  17.132  22.414   4.977
 7994W        W76212  44.706  39.495   2.369
 7995W        W76213  38.842  18.048  11.427
 7996W        W76214  10.968   2.401  11.520
 7997W        W76215  18.135  17.606   2.927
 7998W        W76216  36.405   5.166  13.022
 7999W        W76217  30.673  29.293   4.682
 8000W        W76218  25.092  39.754   4.548
 8001W        W76219   8.790  12.853   0.726
 8002W        W76220  11.617  12.634  11.603
 8003W        W76221  31.719  19.214  12.293
 8004W        W76222  41.575  43.243   1.290
 8005W        W76223  25.595  36.572   0.794
 8006W        W76224   9.765  42.127  13.035
 8007W        W76225  29.642  39.995   3.140
 8008W        W76226  35.692  20.721  10.756
 8009W        W76227   8.489  16.153  13.968
 8010W        W76228  34.357  29.405   0.895
 8011W        W76229   0.180  17.604  13.096
 8012W        W76230  26.929  30.499   4.089
 8013W        W76231   6.237  21.809  13.005
 8014W        W76232  41.003  22.098   2.920
 8015W        W76233  16.221   9.327   2.797
 8016W        W76234  11.178  16.762   2.552
 8017W        W76235  37.392   0.833   5.021
 8018W        W76236  34.531  41.937  14.420
 8019W        W76237  27.612  26.168  12.421
 8020W        W76238   0.413   3.717   1.965
 8021W        W76239  19.210  23.702   0.187
 8022W        W76240   3.642  36.818   2.847
 8023W        W76241  26.783  10.246   2.743
 8024W        W76242  17.545   2.338  14.766
 8025W        W76243  22.144   5.754  13.874
 8026W        W76244  42.214  43.047  14.067
 8027W        W76245  27.673  30.082  10.655
 8028W        W76246  21.418  10.268   2.785
 8029W        W76247  26.570   1.569  12.609
 8030W        W76248  29.691  14.063   3.660
 8031W        W76249  29.173  30.977   2.153
 8032W        W76250   2.236  32.248  13.336
 8033W        W76251  41.369   1.739  11.151
 8034W        W76252   2.217   4.444  11.603
 8035W        W76253   1.710  14.328   3.191
 8036W        W76254  41.464  15.607   3.268
 8037W        W76255   0.809   6.811   3.843
 8038W        W76256  27.518  15.844   0.964
 8039W        W76257  12.671  11.369   2.801
 8040W        W76258  36.892  26.080   2.997
 8041W        W76259  15.647   2.080  10.858
 8042W        W76260  24.699  16.548   2.721
 8043W        W76261  10.720   8.934  11.672
 8044W        W76262   0.623  34.043  14.935
 8045W        W76263  31.397  28.944   0.824
 8046W        W76264  16.555  30.430  12.367
 8047W        W76265  18.881  11.372   3.559
 8048W        W76266  23.693  37.967  12.566
 8049W        W76267  31.383  44.853   4.625
 8050W        W76268  16.950  26.584   0.442
 8051W        W76269  13.862  36.381   0.580
 8052W        W76270  29.046  18.747   4.210
 8053W        W76271  30.610  27.962   4.573
 8054W        W76272  22.898   2.072  13.876
 8055W        W76273   6.319  25.535   0.445
 8056W        W76274  37.707  39.650  14.734
 8057W        W76275  23.794  36.850  14.028
 8058W        W76276  31.995   9.737   1.652
 8059W        W76277  34.543   5.279  10.019
 8060W        W76278  10.257  42.566   4.841
 8061W        W76279  23.056   1.327  10.813
 8062W        W76280   9.009  35.140   3.312
 8063W        W76281  44.339  39.954  10.678
 8064W        W76282   5.046  33.639  10.221
 8065W        W76283   9.965  32.556   1.727
 8066W        W76284  16.531  38.468   4.690
 8067W        W76285  39.759  26.278  14.918
 8068W        W76286  34.860  39.031  14.291
 8069W        W76287   2.377  17.554   4.116
 8070W        W76288  17.727  17.672  11.229
 8071W        W76289  19.851  15.709  10.738
 8072W        W76290   1.876  18.211  11.574
 8073W        W76291   1.895  42.988   4.169
 8074W        W76292  38.796  22.150   0.393
 8075W        W76293  17.978  43.930  14.824
 8076W        W76294  26.747  44.422  13.400
 8077W        W76295  44.928  31.049  13.414
 8078W        W76296  17.527   0.264   0.881
 8079W        W76297  28.760  24.134  10.299
 8080W        W76298  44.989   3.514   5.078
 8081W        W76299  42.752   0.894   2.200
 8082W        W76300   0.282  19.982  14.890
 8083W        W76301  21.675  12.244   2.992
 8084W        W76302   6.602   8.662   4.318
 8085W        W76303   4.350   7.340  10.668
 8086W        W76304  34.925  26.126  11.590
 8087W        W76305  12.682  21.039   5.018
 8088W        W76306  34.085  28.832   1.487
 8089W        W76307  27.166   6.321  13.860
 8090W        W76308  44.829   4.145  10.994
 8091W        W76309  41.772  22.980   1.233
 8092W        W76310   8.285  25.301  11.080
 8093W        W76311  16.987  26.923  10.367
 8094W        W76312  43.938  36.247  11.126
 8095W        W76313  28.739  28.936   1.264
 8096W        W76314  44.381  22.704   3.126
 8097W        W76315  22.550  18.489  13.840
 8098W        W76316  28.950  14.695   4.244
 8099W        W76317  10.532   2.754  11.895
 8100W        W76318  19.744  32.438  14.083
 8101W        W76319   8.877  18.705  12.864
 8102W        W76320  25.109  33.853   3.124
 8103W        W76321   5.231  39.796  11.616
 8104W        W76322  16.618  10.756   3.281
 8105W        W76323  40.495   8.740   0.292
 8106W        W76324   9.299   6.876   2.093
 8107W        W76325  10.606  12.477   1.800
 8108W        W76326  10.398  14.677  13.948
 8109W        W76327   2.918   5.868  12.205
 8110W        W76328  43.467  21.779  12.560
 8111W        W76329  37.450  25.795  13.437
 8112W        W76330  10.221   5.683   4.179
 8113W        W76331  30.972  24.495   2.635
 8114W        W76332  30.062   5.649   3.792
 8115W        W76333  35.467  21.136   1.906
 8116W        W76334  16.216   6.794  10.455
 8117W        W76335  44.786  18.806  12.081
 8118W        W76336  35.359  29.042  12.033
 8119W        W76337  36.009  31.607  10.777
 8120W        W76338  11.921  24.714  13.819
 8121W        W76339   1.026  11.140  14.087
 8122W        W76340  25.416  30.091   0.617
 8123W        W76341   9.649   2.750   3.050
 8124W        W76342  33.472   9.116   0.316
 8125W        W76343  12.104  18.671  11.811
 8126W        W76344  40.531  26.307  10.406
 8127W        W76345  30.004  28.564  14.242
 8128W        W76346  26.637   3.422   3.722
 8129W        W76347  32.704  19.700  11.618
 8130W        W76348  14.733  29.047  10.810
 8131W        W76349  28.943  28.463   0.357
 8132W        W76350  37.782   4.291   0.253
 8133W        W76351  40.361   2.466   1.333
 8134W        W76352  40.324  13.692  12.124
 8135W        W76353  10.815  26.332  14.275
 8136W        W76354  36.169  20.092   2.859
 8137W        W76355   0.678  16.345  10.679
 8138W        W76356  25.136  16.634   1.133
 8139W        W76357   1.793  32.948   0.443
 8140W        W76358  22.150   8.095   0.083
 8141W        W76359  17.210  30.748  11.453
 8142W        W76360  31.670  43.184  12.082
 8143W        W76361  43.694  20.679  11.870
 8144W        W76362  25.033   5.246   0.362
 8145W        W76363  26.995   1.773  10.957
 8146W        W76364  29.080  15.839  14.506
 8147W        W76365  16.294   9.212   3.665
 8148W        W76366   6.914   2.525   1.887
 8149W        W76367   2.237  32.611   4.104
 8150W        W76368  12.169  39.560   1.659
 8151W        W76369  42.828  28.630   2.742
 8152W        W76370  27.483  31.428   2.737
 8153W        W76371  36.267  36.425   2.641
 8154W        W76372  25.284  31.399  12.473
 8155W        W76373  10.513   2.214  14.011
 8156W        W76374  40.045  34.498  14.244
 8157W        W76375  40.933  16.431   4.746
 8158W        W76376  39.101  18.801  14.459
 8159W        W76377  34.546  33.508  11.985
 8160W        W76378  19.645   8.146   0.328
 8161W        W76379   3.200   0.794   2.701
 8162W        W76380  23.045   4.041   0.988
 8163W        W76381   5.993  18.497  11.125
 8164W        W76382   1.569  17.221  14.537
 8165W        W76383   4.758  33.540  14.163
 8166W        W76384   8.344  34.558  11.523
 8167W        W76385  34.053   0.332   4.095
 8168W        W76386  23.221  38.559  10.721
 8169W        W76387  32.970  24.237   0.814
 8170W        W76388  10.442   8.377  14.732
 8171W        W76389  33.583  39.815  13.574
 8172W        W76390  38.308  20.211  14.940
 8173W        W76391  17.222  34.919   1.445
 8174W        W76392  38.131  40.790  12.349
 8175W        W76393  37.333  39.903  14.993
 8176W        W76394   4.040  39.251  11.025
 8177W        W76395   4.240  19.090   2.382
 8178W        W76396  12.243  40.610  14.482
 8179W        W76397  35.008  13.580  10.821
 8180W        W76398  23.507  44.210  14.370
 8181W        W76399  26.438  35.114  13.594
 8182W        W76400   5.012  18.768   3.652
 8183W        W76401  11.994  41.956  12.007
 8184W        W76402  21.955  33.559   3.752
 8185W        W76403  19.777  23.887   4.923
 8186W        W76404   4.509  19.220  13.634
 8187W        W76405  29.285   5.799  11.471
 8188W        W76406  38.528  26.050   3.385
 8189W        W76407  29.549  31.410   4.542
 8190W        W76408  40.390  21.751  14.883
 8191W        W76409  30.879  14.561  13.038
 8192W        W76410  11.584  27.511   2.778
 8193W        W76411  20.538  26.083   2.333
 8194W        W76412  27.030  37.130  14.920
 8195W        W76413  42.849  23.519  13.917
 8196W        W76414  16.860  41.420  10.889
 8197W        W76415  43.405  30.633  12.124
 8198W        W76416   2.166   5.913   2.875
 8199W        W76417  10.217  41.381  12.856
 8200W        W76418  31.429  14.763   2.479
 8201W        W76419   1.900  12.203   2.522
 8202W        W76420  27.183  19.780   2.706
 8203W        W76421   0.430   5.420   1.214
 8204W        W76422  27.499   8.696   3.236
 8205W        W76423  24.533   0.043   0.731
 8206W        W76424   5.431   7.619   1.265
 8207W        W76425   2.206  32.103  11.674
 8208W        W76426  14.844  22.105   1.349
 8209W        W76427  30.187   1.349  13.332
 8210W        W76428  12.643  17.458   4.661
 8211W        W76429   2.217  11.671   3.175
 8212W        W76430   8.983   5.803  13.020
 8213W        W76431  30.595  15.040   0.526
 8214W        W76432  15.422  20.601   4.533
 8215W        W76433  25.715  17.522  11.180
 8216W        W76434  20.924  42.455   1.641
 8217W        W76435  39.930  24.462  14.519
 8218W        W76436  32.665  32.077  12.527
 8219W        W76437  17.688  36.575  11.613
 8220W        W76438  12.691   6.809   4.213
 8221W        W76439  10.211  27.017   1.737
 8222W        W76440  22.261  28.220  13.492
 8223W        W76441  37.292  41.976   4.155
 8224W        W76442  32.953  10.299   2.285
 8225W        W76443  26.516   9.281   3.697
 8226W        W76444  15.180  25.068  14.307
 8227W        W76445  22.772  29.285   1.983
 8228W        W76446   7.417  17.244   3.176
 8229W        W76447  31.397   9.991   4.649
 8230W        W76448   6.422  18.020   3.649
 8231W        W76449  40.066  18.239   0.256
 8232W        W76450  32.966   7.415  13.013
 8233W        W76451   9.587   9.963  14.495
 8234W        W76452  14.735  29.873  14.758
 8235W        W76453  32.598  31.368   3.247
 8236W        W76454  38.121  25.275   3.142
 8237W        W76455  23.794  24.598   3.773
 8238W        W76456  29.451  37.920   1.348
 8239W        W76457  37.525  29.651   1.346
 8240W        W76458  14.443   3.762   0.799
 8241W        W76459  24.164  36.320   3.263
 8242W        W76460   4.492  32.523  14.573
 8243W        W76461  23.304  10.686   0.359
 8244W        W76462  13.170  12.671  12.935
 8245W        W76463  32.490  23.446   1.466
 8246W        W76464   5.872  25.008   4.062
 8247W        W76465   6.489  19.472   2.780
 8248W        W76466  40.666  35.779   3.347
 8249W        W76467   4.630  13.053   1.461
 8250W        W76468  23.437  12.329   0.322
 8251W        W76469  30.653  32.029   0.882
 8252W        W76470  40.692  22.507   0.059
 8253W        W76471   6.348  30.888   1.343
 8254W        W76472   3.930  35.623   1.290
 8255W        W76473  19.129   1.812   1.640
 8256W        W76474  16.682   0.948   5.215
 8257W        W76475   1.805  24.446   3.051
 8258W        W76476  44.502  32.884   1.845
 8259W        W76477   9.204  34.619  11.997
 8260W        W76478  39.443  24.887   3.805
 8261W        W76479   3.977   2.853  11.165
 8262W        W76480  40.918  35.827   0.907
 8263W        W76481  22.718  13.745  13.849
 8264W        W76482  22.361  30.643   3.676
 8265W        W76483  19.260   0.901  12.516
 8266W        W76484  23.777  41.414   4.307
 8267W        W76485  13.025  36.342  12.086
 8268W        W76486  22.721   1.956   4.158
 8269W        W76487   2.358  26.574   3.731
 8270W        W76488  19.819  35.629  10.789
 8271W        W76489   9.168  40.035  13.925
 8272W        W76490  28.741  18.098  10.680
 8273W        W76491  23.564  43.654   0.342
 8274W        W76492  11.703   8.635   3.792
 8275W        W76493  44.372  25.669   1.358
 8276W        W76494  11.887   7.119   3.666
 8277W        W76495  32.240  18.405  11.181
 8278W        W76496  31.398   0.488   0.496
 8279W        W76497  32.817  24.716   1.947
 8280W        W76498  39.894  25.293  14.928
 8281W        W76499   7.177  11.100  13.114
 8282W        W76500  22.787  24.223  14.262
 8283W        W76501  39.543  25.735  14.885
 8284W        W76502  44.421  35.850   4.305
 8285W        W76503   0.041  34.882  12.441
 8286W        W76504  18.059  40.860   0.458
 8287W        W76505  33.291  17.588   0.853
 8288W        W76506  20.492   6.076  12.021
 8289W        W76507  36.543  13.329  14.719
 8290W        W76508  30.014  18.371   3.135
 8291W        W76509  24.179  43.218  13.047
 8292W        W76510  33.021  35.710  10.698
 8293W        W76511  39.458  23.869   3.164
 8294W        W76512   1.756  39.978  13.961
 8295W        W76513  31.100   7.370  11.633
 8296W        W76514  22.190  38.115  11.659
 8297W        W76515  38.343  18.632   2.788
 8298W        W76516  22.143   2.539  14.574
 8299W        W76517   7.813  27.942   2.663
 8300W        W76518   0.423   4.241   0.608
 8301W        W76519  14.262  27.947   2.393
 8302W        W76520  41.327  19.198  12.205
 8303W        W76521  43.748   9.247   4.184
 8304W        W76522   2.102  14.673  11.297
 8305W        W76523   3.922  39.523   2.991
 8306W        W76524  16.326  38.307  12.202
 8307W        W76525   8.178  36.925  12.920
 8308W        W76526  24.544  24.946  14.809
 8309W        W76527  10.731  26.455   0.808
 8310W        W76528  34.431   1.511  11.306
 8311W        W76529  16.088  35.325  11.650
 8312W        W76530  26.047  44.543  11.995
 8313W        W76531  37.494  42.060   3.107
 8314W        W76532  30.466  34.893  11.169
 8315W        W76533   9.440  28.045   3.001
 8316W        W76534  23.515  20.471  13.916
 8317W        W76535   2.479  28.599  11.169
 8318W        W76536  17.196  27.033  10.863
 8319W        W76537  27.149  26.500   4.582
 8320W        W76538  40.264  18.646   0.517
 8321W        W76539  40.403  31.047  14.310
 8322W        W76540  42.342  33.863  11.627
 8323W        W76541  24.068  20.495  11.473
 8324W        W76542  14.727  19.012  12.282
 8325W        W76543  32.918  12.735   4.071
 8326W        W76544  44.954  11.490   0.150
 8327W        W76545  18.526  20.356  10.887
 8328W        W76546  42.012  22.542   4.792
 8329W        W76547   4.537  39.335  11.128
 8330W        W76548  30.730  32.901   1.213
 8331W        W76549   8.532  27.483  13.892
 8332W        W76550  38.131  29.174  14.373
 8333W        W76551  29.126  35.788   4.556
 8334W        W76552  15.115  25.856  11.347
 8335W        W76553  31.444   6.355   2.789
 8336W        W76554  42.267  36.719   2.929
 8337W        W76555   6.152  25.041  10.750
 8338W        W76556  37.529  31.675  11.935
 8339W        W76557  27.958  23.589  11.422
 8340W        W76558  33.075  22.636   3.751
 8341W        W76559   1.642   2.583  14.234
 8342W        W76560  28.002   5.321  11.751
 8343W        W76561  38.753  24.637   1.874
 8344W        W76562  43.287  11.684  10.519
 8345W        W76563  36.641   8.835   3.399
 8346W        W76564  21.251  37.149  10.331
 8347W        W76565  43.890  19.071   1.320
 8348W        W76566  18.130  23.415   3.747
 8349W        W76567  10.682   6.346  14.401
 8350W        W76568  32.132  39.815   2.342
 8351W        W76569   1.814  36.525   4.621
 8352W        W76570  42.227  19.102  10.675
 8353W        W76571  34.644   2.331   2.399
 8354W        W76572  26.203  17.341  10.270
 8355W        W76573  11.423  34.081  13.777
 8356W        W76574  15.776   4.696  14.464
 8357W        W76575   6.644  42.351  12.570
 8358W        W76576  18.102  20.299  11.610
 8359W        W76577  35.657   1.188  10.502
 8360W        W76578  24.473  13.199  13.092
 8361W        W76579  27.572  22.956  11.535
 8362W        W76580  43.131   7.347  11.938
 8363W        W76581  23.542  26.120  13.041
 8364W        W76582   9.608  20.768  13.409
 8365W        W76583  39.037  18.876   1.276
 8366W        W76584  32.877  18.290  14.416
 8367W        W76585   4.869  10.155  14.629
 8368W        W76586  24.470  37.828   3.757
 8369W        W76587  44.940  28.649  12.040
 8370W        W76588  40.385  11.732   0.477
 8371W        W76589  35.043   3.793   0.819
 8372W        W76590  26.747  24.245   4.602
 8373W        W76591  19.923  16.298   5.173
 8374W        W76592   9.711   5.749   0.804
 8375W        W76593  38.412  15.370  12.140
 8376W        W76594  17.717  37.890  14.855
 8377W        W76595  43.312  33.392   3.686
 8378W        W76596   8.856  13.035  12.981
 8379W        W76597  25.092  19.876  13.564
 8380W        W76598  25.136  21.265  14.815
 8381W        W76599  39.914   2.752   1.350
 8382W        W76600  21.552  42.128  13.247
 8383W        W76601  26.430  28.572  10.688
 8384W        W76602  15.813  33.622   0.455
 8385W        W76603  20.609  44.463   1.325
 8386W        W76604  12.045  17.080   4.976
 8387W        W76605  21.771   8.518  11.990
 8388W        W76606  10.281  29.248  13.993
 8389W        W76607  30.564  29.767   4.570
 8390W        W76608   1.512   0.302  13.956
 8391W        W76609   1.999  41.354   2.547
 8392W        W76610  33.081  33.947  11.679
 8393W        W76611  34.026  13.811  10.642
 8394W        W76612  12.317  11.701   4.072
 8395W        W76613  34.642  17.813  14.509
 8396W        W76614  19.021  12.361   3.994
 8397W        W76615   5.522   4.813  12.313
 8398W        W76616  27.468  37.991   0.723
 8399W        W76617  33.837  44.476   1.405
 8400W        W76618  11.755  17.518   2.140
 8401W        W76619  19.606   5.497   2.361
 8402W        W76620  18.334  38.669  14.596
 8403W        W76621   3.344  41.287   4.116
 8404W        W76622   1.346  39.387   4.562
 8405W        W76623  43.146   9.546  12.495
 8406W        W76624  44.670   2.886  12.004
 8407W        W76625  24.508   5.644   2.862
 8408W        W76626  14.608  10.851   2.253
 8409W        W76627  34.042  26.186   2.342
 8410W        W76628  14.391  19.020  14.474
 8411W        W76629   6.826  10.277   0.973
 8412W        W76630  38.400  17.559  14.105
 8413W        W76631  24.642   5.137  10.478
 8414W        W76632  13.235  36.497   4.339
 8415W        W76633  29.041  37.312  13.857
 8416W        W76634   9.806  19.196  10.704
 8417W        W76635  18.045   4.270   3.767
 8418W        W76636  33.612  43.694   4.216
 8419W        W76637  42.369  40.947   4.739
 8420W        W76638  12.817  33.047   2.223
 8421W        W76639  15.211  41.747  11.672
 8422W        W76640   5.830  21.793   3.628
 8423W        W76641   7.415  40.896  12.379
 8424W        W76642  26.564  30.675  10.751
 8425W        W76643  42.038  39.068   0.859
 8426W        W76644  30.493   4.110   1.391
 8427W        W76645   5.906  20.520   1.809
 8428W        W76646  38.580  44.336  11.558
 8429W        W76647  21.798  17.729  14.877
 8430W        W76648  23.582  13.827   1.464
 8431W        W76649  36.467  23.449   2.868
 8432W        W76650   9.316  17.064  14.998
 8433W        W76651  31.986  25.891  13.465
 8434W        W76652  38.013  43.533  13.961
 8435W        W76653  34.434  36.085  13.410
 8436W        W76654  24.612  38.536  14.752
 8437W        W76655   9.580  17.461   2.862
 8438W        W76656  37.807   0.744   3.766
 8439W        W76657  11.240  26.851   0.262
 8440W        W76658   5.258   5.169  14.547
 8441W        W76659  30.092  11.182  11.242
 8442W        W76660  37.336  11.507  14.045
 8443W        W76661   6.230  36.993  12.597
 8444W        W76662   8.945  28.223  11.477
 8445W        W76663   1.833  13.353   0.827
 8446W        W76664  27.766  22.597  13.492
 8447W        W76665  11.328  30.071  13.438
 8448W        W76666  22.421  17.250   2.735
 8449W        W76667  18.202  14.421   2.197
 8450W        W76668  14.343  36.411   5.004
 8451W        W76669  40.357  20.055   4.095
 8452W        W76670  34.256  21.595   1.310
 8453W        W76671  32.729   5.942   0.322
 8454W        W76672  37.784  41.543   1.240
 8455W        W76673  15.119   1.173   2.169
 8456W        W76674  11.586   8.502  11.402
 8457W        W76675   6.246  17.537  11.968
 8458W        W76676  39.435  22.675  14.815
 8459W        W76677   0.273  40.808  11.667
 8460W        W76678  41.432  13.839   1.938
 8461W        W76679   6.246  10.895  12.728
 8462W        W76680   7.766   2.820  14.328
 8463W        W76681  41.415  44.081  13.362
 8464W        W76682   6.804  43.943  11.450
 8465W        W76683  21.609   2.741   0.747
 8466W        W76684  14.104  28.956   3.700
 8467W        W76685  24.223   6.947   0.237
 8468W        W76686  23.486  19.039   3.575
 8469W        W76687  27.086  28.837  10.653
 8470W        W76688  12.547  13.014   4.808
 8471W        W76689  13.402  20.782  10.633
 8472W        W76690  36.534  44.229  10.418
 8473W        W76691  41.882  17.222   2.843
 8474W        W76692  27.368   6.814  10.503
 8475W        W76693  28.863  44.448   1.808
 8476W        W76694  36.842  20.612   0.631
 8477W        W76695  20.544  29.176  11.540
 8478W        W76696  30.380  10.052   0.894
 8479W        W76697  32.550  22.536   3.886
 8480W        W76698   0.308  29.430   3.147
 8481W        W76699  40.173  17.176  12.397
 8482W        W76700   9.922  31.239   1.850
 8483W        W76701  23.285  42.924   5.032
 8484W        W76702  27.918  27.477   3.391
 8485W        W76703  15.250  17.696  13.961
 8486W        W76704  38.472  42.860  10.663
 8487W        W76705  15.514   2.776  11.640
 8488W        W76706  14.773  32.589  10.712
 8489W        W76707  29.799   6.870   0.183
 8490W        W76708  16.337  33.126   0.458
 8491W        W76709   1.912   6.820   3.662
 8492W        W76710  40.099  19.737  14.471
 8493W        W76711  28.924  34.259  14.290
 8494W        W76712   1.372  43.735  11.223
 8495W        W76713  36.239   8.209  12.353
 8496W        W76714  42.991   9.597   3.813
 8497W        W76715   2.848   9.154  10.729
 8498W        W76716  20.069   3.492  13.323
 8499W        W76717   8.795   7.227   1.261
 8500W        W76718  21.125  34.327  11.204
 8501W        W76719  32.690  21.858  14.042
 8502W        W76720   3.180  11.834  13.963
 8503W        W76721   8.906  23.108   0.398
 8504W        W76722  25.674   0.115   3.110
 8505W        W76723   6.602  25.616   0.894
 8506W        W76724   3.961  23.045   0.723
 8507W        W76725  12.906  27.255   4.305
 8508W        W76726  15.405  35.099  10.948
 8509W        W76727  17.941   8.220   0.946
 8510W        W76728  40.381  21.977   0.435
 8511W        W76729  11.176   6.253   0.434
 8512W        W76730  30.123  37.197   1.309
 8513W        W76731   0.296   3.871   4.274
 8514W        W76732   0.193  26.695   0.826
 8515W        W76733  13.525  41.387  13.530
 8516W        W76734  39.564   2.902  12.115
 8517W        W76735  23.945  32.074  13.838
 8518W        W76736  11.743  44.525  10.522
 8519W        W76737  27.959  18.074  13.522
 8520W        W76738  36.786  11.296   3.831
 8521W        W76739   5.174  43.562  13.859
 8522W        W76740  38.251  25.896   4.795
 8523W        W76741  25.164  20.255   0.843
 8524W        W76742  30.522  20.183  12.085
 8525W        W76743   5.670  17.775  10.600
 8526W        W76744  33.583  16.128   4.174
 8527W        W76745  23.394  34.702   9.721
 8528W        W76746  12.598   9.628  14.969
 8529W        W76747  24.204   7.762   0.780
 8530W        W76748  27.601  24.465  13.979
 8531W        W76749   0.255  30.222   4.097
 8532W        W76750  32.276  20.945  12.583
 8533W        W76751   6.356  36.472   3.487
 8534W        W76752  10.881  37.122   2.831
 8535W        W76753   0.045  31.712   1.329
 8536W        W76754   4.254  40.228  14.000
 8537W        W76755   3.959   1.222  11.601
 8538W        W76756  36.371  15.878   0.474
 8539W        W76757  37.639  24.144   2.446
 8540W        W76758  44.946  19.536  14.124
 8541W        W76759  11.616  11.201  14.484
 8542W        W76760  35.949   4.177   1.824
 8543W        W76761  19.954  28.579  13.832
 8544W        W76762  41.739  25.229  13.053
 8545W        W76763  23.640  39.466   3.638
 8546W        W76764   6.727  19.793  11.886
 8547W        W76765  20.551  43.591   2.368
 8548W        W76766  22.171  27.641   1.957
 8549W        W76767  13.835  36.024  14.414
 8550W        W76768  14.707  31.272  11.995
 8551W        W76769   7.896  22.764   4.126
 8552W        W76770  42.091   5.350   1.241
 8553W        W76771   4.734  28.167  11.764
 8554W        W76772  23.581  21.203  12.850
 8555W        W76773  43.809  10.642   2.166
 8556W        W76774  39.484   9.964   3.590
 8557W        W76775   3.773  42.741   1.829
 8558W        W76776  43.822  34.509   4.975
 8559W        W76777  23.543  42.308   2.281
 8560W        W76778  16.577  30.502  13.718
 8561W        W76779   7.796   6.222   1.330
 8562W        W76780   0.235  12.719   1.175
 8563W        W76781  34.009  14.038  14.297
 8564W        W76782  42.958  15.813  13.329
 8565W        W76783  43.018  27.657  12.941
 8566W        W76784  22.033   4.379   2.284
 8567W        W76785  31.026  23.982  14.809
 8568W        W76786  15.190  27.429   1.670
 8569W        W76787   5.125  43.419  11.571
 8570W        W76788  20.752  33.667   3.044
 8571W        W76789  37.973   4.723  14.344
 8572W        W76790  36.938  20.012  12.530
 8573W        W76791  16.172   0.013  10.826
 8574W        W76792  16.444  11.104  10.668
 8575W        W76793  37.897  22.525  11.995
 8576W        W76794  28.265  17.069  11.285
 8577W        W76795  12.137  30.409   3.335
 8578W        W76796   2.682  26.383   1.153
 8579W        W76797  37.690  37.646  13.765
 8580W        W76798  37.070   3.340   1.195
 8581W        W76799  37.968  43.606  11.577
 8582W        W76800  10.831  16.261  10.450
 8583W        W76801  32.397   2.786   2.673
 8584W        W76802   1.460  37.386  13.418
 8585W        W76803  34.231  13.708  11.117
 8586W        W76804  37.928  26.903  10.919
 8587W        W76805  25.061  19.625   3.198
 8588W        W76806  28.543  10.266  11.897
 8589W        W76807  22.689  43.791   0.241
 8590W        W76808  44.771   1.400   0.301
 8591W        W76809   4.896   3.310  10.263
 8592W        W76810  39.792  36.076   4.345
 8593W        W76811  37.616  28.638   4.275
 8594W        W76812  12.717  21.270  14.586
 8595W        W76813  31.913  16.322   1.847
 8596W        W76814  16.577   2.641  14.531
 8597W        W76815  11.209  23.007   0.984
 8598W        W76816  24.217   1.872  10.649
 8599W        W76817  34.790  13.256   1.746
 8600W        W76818  24.872  34.195  13.586
 8601W        W76819  33.624   2.874  13.177
 8602W        W76820   1.372  30.179   3.290
 8603W        W76821  30.645   3.110  11.084
 8604W        W76822  32.340  32.188   2.851
 8605W        W76823  40.993  12.615  10.806
 8606W        W76824  14.805  40.867  14.628
 8607W        W76825  21.774  37.874   5.488
 8608W        W76826  20.520   9.320   2.198
 8609W        W76827  18.082  38.237   2.318
 8610W        W76828  30.702  29.129   2.240
 8611W        W76829  43.316  25.049   2.222
 8612W        W76830  39.980  25.528  10.367
 8613W        W76831  36.789  22.694  14.851
 8614W        W76832  32.615  35.377  12.371
 8615W        W76833  15.257   6.002  11.021
 8616W        W76834  37.348  43.849   3.874
 8617W        W76835  13.420  16.682   3.088
 8618W        W76836   0.608   2.060   0.939
 8619W        W76837  35.898   0.829  10.228
 8620W        W76838  20.276  12.683   1.782
 8621W        W76839  40.442  39.033   2.269
 8622W        W76840  37.813  30.140  12.598
 8623W        W76841  28.036  42.853   4.600
 8624W        W76842  44.903  28.742  12.980
 8625W        W76843   9.556  26.285  12.162
 8626W        W76844  34.079  42.812   2.920
 8627W        W76845   2.219  22.573  13.423
 8628W        W76846  31.883  37.930  14.868
 8629W        W76847  43.112  17.578  14.454
 8630W        W76848  42.435  23.607   1.200
 8631W        W76849  20.009  16.965  11.388
 8632W        W76850  16.363  24.435   0.195
 8633W        W76851  24.927  24.318   3.644
 8634W        W76852  28.022   4.887  12.401
 8635W        W76853   7.080  39.088   3.396
 8636W        W76854  42.586  18.712  12.356
 8637W        W76855   3.338  12.070   0.759
 8638W        W76856  44.154  28.356   4.778
 8639W        W76857  12.861  11.553  14.708
 8640W        W76858  13.091  16.633  10.500
 8641W        W76859   4.137  18.624   0.963
 8642W        W76860  35.827  39.290  11.494
 8643W        W76861  11.764  15.329  13.215
 8644W        W76862  17.561   4.313  13.862
 8645W        W76863  18.341  21.930  14.503
 8646W        W76864  24.601  37.386   1.181
 8647W        W76865  24.097  12.110   3.830
 8648W        W76866   0.717   5.239   3.442
 8649W        W76867  39.431  42.500  11.421
 8650W        W76868  41.425  44.557  13.574
 8651W        W76869  24.709  25.001  12.448
 8652W        W76870  18.549  37.629  13.518
 8653W        W76871  34.645  15.299  10.971
 8654W        W76872  19.290   5.733   1.234
 8655W        W76873   7.121  13.366   2.719
 8656W        W76874  17.129  32.730   2.654
 8657W        W76875  10.845  28.588  11.579
 8658W        W76876  24.524  37.271  12.929
 8659W        W76877  10.779  35.447  10.522
 8660W        W76878  30.056  16.134  14.342
 8661W        W76879  35.345  23.110  14.629
 8662W        W76880  38.498   0.262   3.528
 8663W        W76881  19.123  30.260  11.992
 8664W        W76882   6.621  13.062   0.751
 8665W        W76883   2.931  41.554   2.743
 8666W        W76884   0.529  34.643  13.473
 8667W        W76885  17.619  32.945  14.996
 8668W        W76886   6.950  13.152  14.236
 8669W        W76887   4.437   9.893  11.256
 8670W        W76888  31.629  31.988   4.017
 8671W        W76889  33.207  36.148   1.408
 8672W        W76890  33.702  24.210  14.417
 8673W        W76891   2.990  17.420   3.127
 8674W        W76892  16.893  26.071  12.009
 8675W        W76893  13.193   6.371  14.381
 8676W        W76894  41.239  37.819  14.514
 8677W        W76895  14.229  25.095   0.018
 8678W        W76896  33.494  12.796  10.258
 8679W        W76897  16.343  10.587  10.419
 8680W        W76898  13.576  32.382   0.762
 8681W        W76899   6.735  20.528   1.159
 8682W        W76900  41.382   1.170   3.591
 8683W        W76901   4.750  31.137  14.411
 8684W        W76902  32.408  32.918  12.886
 8685W        W76903  18.636  44.098  12.421
 8686W        W76904   3.989   7.211   4.060
 8687W        W76905  21.544  28.729   0.868
 8688W        W76906  37.964  10.849   0.641
 8689W        W76907  20.968  25.896  11.026
 8690W        W76908  30.689  15.096  13.866
 8691W        W76909   2.211  11.263  11.115
 8692W        W76910  43.962  18.739  11.943
 8693W        W76911  21.769  16.008  13.441
 8694W        W76912  30.102  15.221   1.764
 8695W        W76913   9.854   2.501  13.507
 8696W        W76914  39.375   1.189  14.772
 8697W        W76915  44.469   3.258  12.622
 8698W        W76916  13.827  20.756   4.578
 8699W        W76917  36.388  17.765  10.736
 8700W        W76918  41.031  13.001  12.144
 8701W        W76919  27.076  20.606   0.248
 8702W        W76920  20.696  19.801  12.255
 8703W        W76921   5.815  42.344   0.362
 8704W        W76922  31.614  19.043   4.169
 8705W        W76923  43.208  29.600   1.793
 8706W        W76924   8.236  15.506   0.832
 8707W        W76925  38.355  18.213  12.156
 8708W        W76926   2.690  25.607   4.656
 8709W        W76927   4.733  19.568   4.196
 8710W        W76928  38.046  10.433   2.872
 8711W        W76929  40.781  22.555   2.711
 8712W        W76930  28.752  13.788   2.716
 8713W        W76931   2.704   8.030   1.837
 8714W        W76932   9.326  42.163   0.229
 8715W        W76933  13.740   7.140   4.742
 8716W        W76934   8.567  39.269   4.370
 8717W        W76935  20.581   8.604  12.958
 8718W        W76936  34.692   7.027  11.575
 8719W        W76937  32.118  23.628   3.335
 8720W        W76938  26.716   6.957   2.856
 8721W        W76939  38.900  12.773  13.104
 8722W        W76940  39.876  31.132  14.903
 8723W        W76941  33.537  23.664   1.282
 8724W        W76942   3.141  32.413   2.939
 8725W        W76943   7.333   0.362  13.474
 8726W        W76944  19.732  22.206   1.224
 8727W        W76945   6.123  16.095  13.453
 8728W        W76946  43.302  42.892  14.700
 8729W        W76947   5.235  16.250   1.165
 8730W        W76948  41.615  27.710   1.296
 8731W        W76949  37.387  17.811  13.970
 8732W        W76950  26.628  23.470   1.802
 8733W        W76951  23.562  30.035  11.248
 8734W        W76952  12.648  16.774  11.403
 8735W        W76953  29.581   0.639  12.501
 8736W        W76954   1.872  31.403  12.498
 8737W        W76955  30.847  25.607   1.924
 8738W        W76956  29.975   0.816  13.368
 8739W        W76957   7.361  27.480   1.826
 8740W        W76958  16.823  12.764   2.206
 8741W        W76959  25.605  18.116   3.922
 8742W        W76960  44.292  15.121   1.638
 8743W        W76961  44.468  15.378   0.860
 8744W        W76962  15.736  36.566  12.386
 8745W        W76963  31.059  42.116   1.762
 8746W        W76964  38.140  29.608  12.617
 8747W        W76965  28.270   1.415  13.406
 8748W        W76966   8.357  27.158   4.154
 8749W        W76967  42.100  31.468  11.180
 8750W        W76968   8.250  13.606   1.291
 8751W        W76969  40.429  17.569   4.769
 8752W        W76970  33.883  32.326   2.219
 8753W        W76971  40.726  44.106   2.109
 8754W        W76972   5.683  29.339   0.827
 8755W        W76973  14.904  23.011   2.412
 8756W        W76974  36.129  44.481   3.872
 8757W        W76975   3.375  32.147   2.221
 8758W        W76976  42.614  13.155  13.314
 8759W        W76977  39.124  11.409   3.292
 8760W        W76978  38.331  37.747   4.901
 8761W        W76979  16.567   4.651  13.057
 8762W        W76980  15.427  37.520   4.098
 8763W        W76981  12.805  24.706   1.503
 8764W        W76982  12.071   8.426   1.554
 8765W        W76983  36.295  17.459   2.895
 8766W        W76984  30.093   0.536  12.479
 8767W        W76985  17.216  43.340   4.584
 8768W        W76986  34.402  18.913   1.791
 8769W        W76987  43.942  16.866   2.905
 8770W        W76988  35.990  19.049  14.463
 8771W        W76989  24.252   2.734  13.978
 8772W        W76990  36.815  19.180  13.607
 8773W        W76991  36.132   7.076   4.867
 8774W        W76992  17.124  20.269   0.116
 8775W        W76993  37.330   7.774  11.627
 8776W        W76994  19.970  36.299  14.897
 8777W        W76995  32.803   9.880  13.820
 8778W        W76996  23.096   3.029   1.736
 8779W        W76997  39.825  23.612  10.496
 8780W        W76998  20.270  32.352   1.218
 8781W        W76999   3.953  15.057  12.894
 8782W        W77000  21.562  32.593  11.064
 8783W        W77001  43.029  40.743   2.019
 8784W        W77002  12.065   1.473  14.416
 8785W        W77003   1.177  28.707  11.545
 8786W        W77004  22.276   1.519   3.232
 8787W        W77005   6.735  36.601  13.572
 8788W        W77006   3.479   2.314  12.506
 8789W        W77007  42.564   3.886   4.073
 8790W        W77008  27.208   1.391  10.696
 8791W        W77009  20.014  34.338   1.050
 8792W        W77010   8.371   7.379   0.400
 8793W        W77011  38.338  17.735   4.694
 8794W        W77012  20.248   1.251  11.441
 8795W        W77013  42.516  15.860   3.756
 8796W        W77014  13.819  28.968   1.194
 8797W        W77015  17.597   8.917   2.696
 8798W        W77016  16.154  21.603  10.351
 8799W        W77017  23.236  34.707   4.056
 8800W        W77018  39.672  33.635   4.480
 8801W        W77019  15.220  31.247  14.029
 8802W        W77020  39.384   9.414  10.772
 8803W        W77021  44.542   0.131  11.480
 8804W        W77022  38.054   5.931   3.698
 8805W        W77023  40.936  17.464   4.590
 8806W        W77024  34.930  16.753  14.351
 8807W        W77025  31.439  35.536   2.333
 8808W        W77026  33.627  13.875   1.673
 8809W        W77027  15.211  23.437  11.913
 8810W        W77028  38.977   8.224  10.344
 8811W        W77029   5.462  34.264  13.565
 8812W        W77030  21.400  21.657   1.966
 8813W        W77031   8.775  35.303   3.824
 8814W        W77032  13.134   3.640  12.008
 8815W        W77033  11.092   0.513  13.439
 8816W        W77034  35.639  25.128  13.921
 8817W        W77035  42.813  21.436   4.927
 8818W        W77036   5.803  15.360  11.906
 8819W        W77037  44.854  36.703   4.567
 8820W        W77038  16.842  27.654  13.946
 8821W        W77039  43.421  11.836   1.201
 8822W        W77040  42.144  11.436   0.359
 8823W        W77041  22.396  44.334   0.871
 8824W        W77042  44.930   5.955  13.661
 8825W        W77043  14.656   8.356  13.358
 8826W        W77044  44.250   8.277   1.340
 8827W        W77045   2.250  32.707  12.735
 8828W        W77046   2.501  31.677  10.878
 8829W        W77047   6.326   5.945  14.454
 8830W        W77048  22.709  15.572   1.853
 8831W        W77049   5.504  34.908  13.663
 8832W        W77050  41.824  42.521  14.249
 8833W        W77051  17.027  19.537   4.402
 8834W        W77052  17.587  28.210   2.229
 8835W        W77053  23.984  15.638  13.719
 8836W        W77054  16.399  29.592  11.053
 8837W        W77055  17.436  28.967  12.851
 8838W        W77056  42.037  38.040   2.562
 8839W        W77057  14.853  43.961   3.072
 8840W        W77058  20.020   7.886   2.102
 8841W        W77059  30.928  44.531  14.908
 8842W        W77060  26.572   3.505   4.730
 8843W        W77061  37.012  28.151   1.583
 8844W        W77062  30.938  10.400  10.702
 8845W        W77063   7.912   6.918  13.022
 8846W        W77064  21.455  31.030   2.258
 8847W        W77065  13.908  21.752  14.948
 8848W        W77066  11.435  38.125  12.988
 8849W        W77067   6.504  31.031  14.364
 8850W        W77068  24.664  44.026  12.040
 8851W        W77069  22.131  20.751  14.709
 8852W        W77070  12.950  13.549  13.653
 8853W        W77071  42.022  39.619   1.817
 8854W        W77072  42.801   1.856   4.365
 8855W        W77073   1.475  25.512   3.305
 8856W        W77074  19.111  42.281   2.782
 8857W        W77075  13.264   4.291  14.279
 8858W        W77076  23.058  40.064   1.379
 8859W        W77077  35.477  31.989   4.570
 8860W        W77078  15.292  34.613  10.730
 8861W        W77079  29.605  27.357   1.301
 8862W        W77080  10.288   8.672  13.438
 8863W        W77081  21.856   0.523  11.056
 8864W        W77082  18.838  33.480   0.292
 8865W        W77083  23.789   7.860  11.974
 8866W        W77084  28.021  39.345  11.106
 8867W        W77085  13.535  23.859  11.728
 8868W        W77086  19.046  36.338  12.486
 8869W        W77087  38.885   0.290  11.251
 8870W        W77088  40.094   6.407   3.854
 8871W        W77089  11.438  40.277   3.665
 8872W        W77090  37.116  23.065  12.514
 8873W        W77091  13.532  32.472  14.842
 8874W        W77092  10.665  16.272  13.160
 8875W        W77093  12.112  10.785   1.937
 8876W        W77094  39.914  21.526   3.720
 8877W        W77095   9.643  39.569   3.538
 8878W        W77096  40.006  16.802  11.375
 8879W        W77097   2.905   1.945   2.138
 8880W        W77098   2.735  44.559   1.264
 8881W        W77099  39.689  13.889  13.464
 8882W        W77100  33.374  23.633  10.137
 8883W        W77101  21.980  34.833  12.066
 8884W        W77102  12.265   4.619  12.951
 8885W        W77103  24.634  25.395  13.337
 8886W        W77104   9.806  34.054   4.216
 8887W        W77105   4.399  14.315  12.522
 8888W        W77106  38.340  22.175  12.001
 8889W        W77107  37.714  10.192   2.520
 8890W        W77108  10.513  35.279   3.213
 8891W        W77109  28.663  16.776  12.091
 8892W        W77110  27.026  14.277   4.062
 8893W        W77111  27.516  30.969  12.617
 8894W        W77112  44.822  42.399  12.861
 8895W        W77113  43.758  31.255  12.869
 8896W        W77114  23.253   6.014  11.280
 8897W        W77115  10.318  41.670   5.152
 8898W        W77116  43.254   4.153  13.766
 8899W        W77117  37.317  41.859   5.180
 8900W        W77118  33.930  29.134  12.028
 8901W        W77119  20.465  38.287   2.072
 8902W        W77120  27.085   6.238   0.792
 8903W        W77121  28.950  16.170  12.723
 8904W        W77122  43.507  32.328   3.766
 8905W        W77123  43.975  43.354   4.363
 8906W        W77124   4.345  12.075   1.231
 8907W        W77125  13.109  29.605   4.526
 8908W        W77126  15.066  38.945  14.894
 8909W        W77127  43.542  41.913   2.709
 8910W        W77128  11.637  13.879  12.893
 8911W        W77129  11.976  35.640   2.230
 8912W        W77130  19.123  18.225  12.104
 8913W        W77131  19.085   6.770  14.672
 8914W        W77132  40.557   1.839  12.120
 8915W        W77133   8.459  43.925   4.559
 8916W        W77134  19.665   0.805  10.596
 8917W        W77135   6.507  12.751   2.227
 8918W        W77136  38.010  20.604   2.127
 8919W        W77137  27.438  19.733   3.173
 8920W        W77138  39.439  25.981  11.857
 8921W        W77139  28.676   6.678   0.788
 8922W        W77140  41.723   6.608   1.750
 8923W        W77141   8.806  24.221   2.373
 8924W        W77142  13.547   6.410  13.392
 8925W        W77143  33.839  27.068   1.415
 8926W        W77144  33.133  30.797  14.863
 8927W        W77145   1.032  15.815  13.390
 8928W        W77146   2.260  43.987  13.914
 8929W        W77147   1.271   8.646  14.789
 8930W        W77148   4.063  21.901   2.785
 8931W        W77149   7.843  37.063   3.329
 8932W        W77150   5.435  12.357   2.229
 8933W        W77151  19.877  42.985  12.923
 8934W        W77152  38.561  12.322   4.087
 8935W        W77153  30.959  15.147  12.949
 8936W        W77154  22.067  44.947   4.581
 8937W        W77155  30.732  42.962   3.759
 8938W        W77156   2.322  18.199   5.026
 8939W        W77157  33.098   7.113  11.459
 8940W        W77158  14.342  23.709  11.688
 8941W        W77159  14.105  12.288   4.022
 8942W        W77160  40.351  10.925   2.346
 8943W        W77161  29.820  19.038  12.972
 8944W        W77162  42.272  29.412   1.715
 8945W        W77163  21.483   1.882  13.973
 8946W        W77164  32.541  38.448   1.426
 8947W        W77165  40.338  37.843  13.114
 8948W        W77166  35.454  30.554   3.656
 8949W        W77167  10.762  17.264   1.366
 8950W        W77168  17.680  30.598   2.698
 8951W        W77169  27.275  44.835  12.693
 8952W        W77170  36.474  13.198  11.567
 8953W        W77171  41.902  29.388  12.091
 8954W        W77172  21.176   8.320   3.351
 8955W        W77173  43.572  22.170  12.990
 8956W        W77174  39.587  32.049  11.682
 8957W        W77175  10.188   9.111  12.421
 8958W        W77176   7.215  21.054  14.412
 8959W        W77177  33.575   0.690   2.701
 8960W        W77178  26.970  28.516  14.262
 8961W        W77179  42.065  41.720   3.347
 8962W        W77180  43.487  43.032  11.154
 8963W        W77181  34.948  29.202   4.575
 8964W        W77182   7.904  39.574  12.506
 8965W        W77183  32.559  15.193  13.935
 8966W        W77184   7.516   5.675  13.083
 8967W        W77185   0.030  14.712  12.931
 8968W        W77186   8.646  26.603   2.662
 8969W        W77187  37.206  17.079  11.083
 8970W        W77188  24.040  22.173  12.049
 8971W        W77189  18.827   6.467   2.745
 8972W        W77190  28.391  20.234  12.823
 8973W        W77191  21.945  10.270   2.693
 8974W        W77192  14.620  37.151   3.764
 8975W        W77193  31.546  42.345  12.579
 8976W        W77194   6.565  22.798  11.114
 8977W        W77195   2.656  26.861   2.086
 8978W        W77196  16.018  39.890  14.747
 8979W        W77197  28.713  29.021  14.648
 8980W        W77198  39.546   4.702   0.439
 8981W        W77199  41.339  34.456   0.965
 8982W        W77200  39.233  38.414  12.074
 8983W        W77201  34.311   9.355   3.708
 8984W        W77202  30.915  26.982   2.893
 8985W        W77203  41.973   5.596  11.648
 8986W        W77204  24.897   6.781  13.447
 8987W        W77205   6.442  11.874  11.674
 8988W        W77206  43.292  19.984   5.024
 8989W        W77207  29.360  21.763   0.211
 8990W        W77208  16.900  23.136   0.202
 8991W        W77209   0.503  18.298   4.619
 8992W        W77210  13.206  17.326   3.601
 8993W        W77211  14.861  13.899  14.351
 8994W        W77212   0.721  34.632  14.861
 8995W        W77213   2.163  12.088  13.977
 8996W        W77214  12.138  32.450  12.941
 8997W        W77215  39.481  35.707   4.555
 8998W        W77216  43.503  11.851  13.709
 8999W        W77217  21.160  35.106  13.445
 9000W        W77218   4.975  38.559  14.121
 9001W        W77219  13.275   3.182  11.268
 9002W        W77220  31.612   2.159   2.728
 9003W        W77221  38.208  25.170   2.628
 9004W        W77222  20.461  36.663   3.310
 9005W        W77223   8.841  32.622   2.304
 9006W        W77224  30.432  39.232   1.533
 9007W        W77225  13.011  42.660  11.898
 9008W        W77226  29.571  44.234  14.589
 9009W        W77227  41.419  28.055   3.583
 9010W        W77228  29.603   9.931   4.124
 9011W        W77229   9.662  34.615   2.347
 9012W        W77230   7.668  43.985  12.864
 9013W        W77231  30.162   3.262  10.993
 9014W        W77232  31.187  18.383   3.662
 9015W        W77233   4.835  31.515   3.153
 9016W        W77234  44.475  25.318  13.749
 9017W        W77235  17.673  26.995   3.237
 9018W        W77236  24.851  40.497  14.275
 9019W        W77237  14.248  14.884   4.015
 9020W        W77238  12.331  23.351   1.541
 9021W        W77239   8.324  42.303   3.820
 9022W        W77240  22.941  33.367  11.767
 9023W        W77241  29.642  32.204   3.391
 9024W        W77242   4.987  27.741  13.920
 9025W        W77243  41.881  34.008   1.816
 9026W        W77244   2.221  21.600  11.729
 9027W        W77245  29.399  38.845   2.762
 9028W        W77246  23.129  41.221  13.064
 9029W        W77247   1.309  11.619   4.046
 9030W        W77248  15.218   1.995  10.551
 9031W        W77249   7.592  22.201  14.106
 9032W        W77250  21.096  29.651  13.046
 9033W        W77251  35.941   2.007  13.780
 9034W        W77252  29.867   6.196  14.710
 9035W        W77253  39.925  11.869   0.689
 9036W        W77254  17.282  29.997  12.501
 9037W        W77255  26.975  36.423   4.291
 9038W        W77256  26.742  13.221   0.685
 9039W        W77257  22.753   9.394   3.239
 9040W        W77258  36.551  32.606  12.017
 9041W        W77259  21.515  30.891  12.103
 9042W        W77260   2.028   1.770  13.925
 9043W        W77261  33.102  14.855  11.473
 9044W        W77262   6.704  18.985  10.608
 9045W        W77263  34.492  23.961   3.146
 9046W        W77264  19.139   3.939   1.381
 9047W        W77265   2.739   3.961   2.981
 9048W        W77266  36.235  19.367  11.562
 9049W        W77267  26.717  37.059  12.031
 9050W        W77268  39.110  39.569   2.414
 9051W        W77269  42.850   2.815   2.402
 9052W        W77270  12.833   1.894  13.765
 9053W        W77271   8.304  16.356   4.114
 9054W        W77272  32.982  44.892   4.672
 9055W        W77273   5.284  14.829   4.067
 9056W        W77274  20.042  14.796   2.134
 9057W        W77275  35.110  30.509  10.657
 9058W        W77276  36.352  21.755   4.211
 9059W        W77277  30.119   5.950   2.750
 9060W        W77278  35.071  35.498  14.923
 9061W        W77279  23.910  38.408   3.606
 9062W        W77280  30.636   9.632  11.556
 9063W        W77281   5.383  33.524   1.258
 9064W        W77282  23.287   6.724  13.674
 9065W        W77283  20.729  23.062   1.247
 9066W        W77284  36.367   6.301  13.942
 9067W        W77285   0.775  41.982   0.977
 9068W        W77286  11.356   7.217  14.862
 9069W        W77287   2.750  35.964  11.695
 9070W        W77288   9.415  23.130   0.462
 9071W        W77289  13.908   2.247   3.739
 9072W        W77290  30.610  22.074  12.462
 9073W        W77291  33.876  43.483  14.008
 9074W        W77292  10.361   6.311  14.837
 9075W        W77293  44.261  44.017   2.179
 9076W        W77294  40.874   8.263   3.992
 9077W        W77295  29.315  15.300   1.165
 9078W        W77296  31.390  11.792   2.282
 9079W        W77297  19.365   4.428  13.927
 9080W        W77298  12.077  14.188   4.602
 9081W        W77299  28.241  33.178  11.071
 9082W        W77300  27.577  16.875  11.476
 9083W        W77301  21.219  36.512  10.974
 9084W        W77302  40.173  20.762   2.715
 9085W        W77303  21.485  31.475   1.616
 9086W        W77304  10.260   9.031  12.953
 9087W        W77305   9.624  40.910  11.962
 9088W        W77306   9.223  32.665  14.048
 9089W        W77307  36.478   1.285  12.620
 9090W        W77308  28.206   0.210   0.169
 9091W        W77309  30.469  21.015   4.527
 9092W        W77310   1.860  44.233   1.467
 9093W        W77311  32.819  43.917   2.275
 9094W        W77312  14.281  24.113   0.766
 9095W        W77313  16.583  35.337  11.052
 9096W        W77314  43.305   2.728  14.079
 9097W        W77315   4.726  38.139  11.618
 9098W        W77316   4.650   5.648   4.213
 9099W        W77317  34.940   2.754   2.241
 9100W        W77318   9.852   3.919   0.859
 9101W        W77319   3.282   7.409   2.821
 9102W        W77320  26.946  30.587   4.996
 9103W        W77321   9.881   6.007  10.754
 9104W        W77322  20.618  26.718  10.137
 9105W        W77323  34.588  42.742   1.207
 9106W        W77324  22.510  34.523   2.914
 9107W        W77325  29.833  28.420  13.775
 9108W        W77326  10.840   5.631   3.638
 9109W        W77327  12.945   0.688   4.985
 9110W        W77328  18.777  27.510   4.324
 9111W        W77329  33.181   8.103   3.177
 9112W        W77330  25.421  33.723  12.520
 9113W        W77331   8.129  42.027   1.022
 9114W        W77332  14.048   8.238   2.477
 9115W        W77333   1.887   7.608  14.127
 9116W        W77334  10.263  41.518   1.087
 9117W        W77335  25.596   2.362   4.625
 9118W        W77336  10.334  38.754  11.421
 9119W        W77337  24.424  20.167  11.627
 9120W        W77338   5.897  24.739  12.501
 9121W        W77339  20.233  29.008  12.497
 9122W        W77340  10.550  16.679  12.087
 9123W        W77341  43.464  42.701   1.852
 9124W        W77342  12.889   9.154   1.348
 9125W        W77343  19.629  36.091  10.661
 9126W        W77344  11.903  12.280  14.672
 9127W        W77345  39.070  22.517   1.189
 9128W        W77346   9.220  32.129   3.297
 9129W        W77347  38.103  39.253   3.165
 9130W        W77348  14.190   1.941   1.863
 9131W        W77349   0.779  25.264  14.561
 9132W        W77350  18.992  21.080  13.527
 9133W        W77351  25.976   6.189   3.566
 9134W        W77352   2.853  19.082  11.217
 9135W        W77353  23.247  17.199  12.049
 9136W        W77354  32.327   1.467   0.309
 9137W        W77355  17.320  39.809   0.374
 9138W        W77356  42.855  31.609  14.959
 9139W        W77357  36.492  24.760   2.333
 9140W        W77358  10.678  13.500  11.671
 9141W        W77359  26.327  40.330  10.704
 9142W        W77360   1.671  24.630  13.975
 9143W        W77361  29.402  12.897  13.309
 9144W        W77362   5.928  26.718   3.695
 9145W        W77363  44.949  34.026   2.285
 9146W        W77364  36.467   9.450  10.721
 9147W        W77365   3.197  29.732   0.496
 9148W        W77366  44.530  33.088   4.234
 9149W        W77367   6.674  35.615   2.885
 9150W        W77368  37.848  28.150   4.197
 9151W        W77369  42.046  42.822   3.292
 9152W        W77370   9.119  23.014   4.497
 9153W        W77371  32.631  41.451  12.722
 9154W        W77372  20.517  27.538  13.391
 9155W        W77373  38.376  40.895   2.806
 9156W        W77374  18.858   4.304  13.068
 9157W        W77375  33.051   1.859   5.169
 9158W        W77376  22.175   7.651  11.118
 9159W        W77377  18.017   0.238   2.696
 9160W        W77378  17.163  14.538   3.671
 9161W        W77379  10.823  23.016   0.271
 9162W        W77380  22.135   4.872  14.341
 9163W        W77381  25.684  15.534  14.330
 9164W        W77382   3.729   3.951  11.870
 9165W        W77383   9.735   2.713   0.330
 9166W        W77384  35.397   6.991   0.445
 9167W        W77385  14.532  25.466   0.244
 9168W        W77386  14.303  17.717   4.092
 9169W        W77387  30.876  30.149   1.351
 9170W        W77388  25.461   9.739   1.893
 9171W        W77389  25.614  12.310  14.814
 9172W        W77390  11.115  26.636   5.003
 9173W        W77391   0.076  36.107  12.038
 9174W        W77392  31.936  39.355   3.250
 9175W        W77393   8.824  41.050  10.289
 9176W        W77394  26.769   8.651   4.960
 9177W        W77395  20.700  39.954   2.401
 9178W        W77396  17.798  26.161  14.429
 9179W        W77397  25.285  23.055   0.760
 9180W        W77398  22.707  19.144  13.324
 9181W        W77399  38.030  24.785   3.274
 9182W        W77400   9.578   7.703  12.633
 9183W        W77401  37.936   2.716  13.389
 9184W        W77402  13.177  30.634  13.399
 9185W        W77403  12.161  32.848  11.536
 9186W        W77404  20.756   9.658  11.068
 9187W        W77405  32.547  30.661   2.583
 9188W        W77406  26.292  30.460  10.354
 9189W        W77407   3.955  27.675   4.116
 9190W        W77408  25.958  12.231   3.334
 9191W        W77409  16.432  36.560  12.975
 9192W        W77410   5.149   9.418   2.420
 9193W        W77411  21.583   3.485  12.958
 9194W        W77412   9.664  19.114  14.247
 9195W        W77413  33.959  43.195  11.762
 9196W        W77414  31.956  37.637   3.031
 9197W        W77415  42.358  14.549  13.526
 9198W        W77416  27.106  28.241  13.477
 9199W        W77417   1.817   3.609   1.919
 9200W        W77418  19.297  14.650  12.023
 9201W        W77419  27.098  15.071  13.103
 9202W        W77420  41.020  40.131   1.797
 9203W        W77421   3.683  39.947   5.004
 9204W        W77422  21.708  42.513   2.710
 9205W        W77423  26.144  25.440  12.386
 9206W        W77424   9.642  34.356  11.014
 9207W        W77425   5.935  21.108   0.535
 9208W        W77426   5.791  11.654  12.715
 9209W        W77427   5.024   3.523  13.007
 9210W        W77428  30.375  37.328   3.368
 9211W        W77429  16.145  37.956   1.492
 9212W        W77430  10.807  37.133   1.916
 9213W        W77431  27.124  16.330  12.338
 9214W        W77432  42.415  38.402   4.679
 9215W        W77433  14.182  37.115   2.747
 9216W        W77434  28.551  37.605   2.557
 9217W        W77435  17.023  21.955  14.741
 9218W        W77436   3.338  40.176  14.197
 9219W        W77437   2.736  43.129  10.604
 9220W        W77438  38.754  17.815   2.592
 9221W        W77439  34.172  34.005   1.331
 9222W        W77440  34.930  44.874   2.367
 9223W        W77441   6.400   8.922   0.225
 9224W        W77442  12.105  36.116  14.097
 9225W        W77443  24.615  10.643  12.107
 9226W        W77444  40.166  26.941   4.158
 9227W        W77445  22.731  30.978   1.651
 9228W        W77446  44.245  11.779  10.518
 9229W        W77447  40.536  36.064  12.089
 9230W        W77448   1.281  43.523  14.300
 9231W        W77449  14.809  33.246   2.153
 9232W        W77450   8.408  37.141  14.319
 9233W        W77451  31.017   6.353  14.321
 9234W        W77452  30.368  27.567   3.727
 9235W        W77453   5.175  14.161  11.280
 9236W        W77454  34.675   7.810   0.933
 9237W        W77455   1.002  42.893  11.785
 9238W        W77456   6.519  39.687   9.755
 9239W        W77457   2.335  39.551  13.047
 9240W        W77458  14.382  16.408  13.028
 9241W        W77459  18.148  17.842   0.249
 9242W        W77460  31.129  23.981   0.332
 9243W        W77461  15.023  41.437   3.243
 9244W        W77462  39.171  24.159   4.174
 9245W        W77463  33.381  35.615  12.863
 9246W        W77464   5.410  14.076   3.698
 9247W        W77465  18.142   6.662   2.738
 9248W        W77466  12.627   9.879   4.668
 9249W        W77467   2.341  16.574   1.999
 9250W        W77468   2.358  17.890   0.369
 9251W        W77469   5.243  26.525   4.250
 9252W        W77470  41.652   4.636   4.993
 9253W        W77471  15.177  18.068   2.734
 9254W        W77472  40.454  42.827   1.722
 9255W        W77473  34.834  23.464  13.552
 9256W        W77474  29.810  35.987   0.762
 9257W        W77475  23.322  40.019   0.938
 9258W        W77476   7.335  30.183   4.398
 9259W        W77477  16.987  22.159   4.269
 9260W        W77478  10.662  33.491  10.495
 9261W        W77479  30.102  34.156   1.827
 9262W        W77480   8.641  32.523   1.343
 9263W        W77481   2.909  10.548   2.492
 9264W        W77482   4.693   9.445   0.255
 9265W        W77483  42.209   9.186   2.314
 9266W        W77484  33.552  39.940  14.070
 9267W        W77485  42.963  25.509  12.388
 9268W        W77486  13.959   3.804   1.037
 9269W        W77487  11.310  37.590  11.988
 9270W        W77488  17.262  13.857  14.935
 9271W        W77489  28.303   0.268   1.521
 9272W        W77490  17.787  17.017   1.749
 9273W        W77491  13.625   5.468  14.317
 9274W        W77492  11.613   9.760  13.403
 9275W        W77493  24.436  35.382  12.132
 9276W        W77494  40.851   8.624   0.886
 9277W        W77495  32.420  28.642   3.048
 9278W        W77496  23.267   4.185  12.125
 9279W        W77497  30.184  16.932  12.020
 9280W        W77498   0.936  19.509   1.837
 9281W        W77499  18.453  18.673  13.782
 9282W        W77500  19.214  30.068   3.138
 9283W        W77501  26.450  11.867   1.826
 9284W        W77502   2.196  43.033   2.341
 9285W        W77503  29.046   8.833  11.066
 9286W        W77504  22.629   4.697  13.511
 9287W        W77505  23.274  29.479   3.279
 9288W        W77506  33.134  33.015   3.792
 9289W        W77507   5.018  18.736  11.143
 9290W        W77508  12.564  18.211  12.950
 9291W        W77509  18.193  15.821   2.154
 9292W        W77510  41.321  40.935  11.212
 9293W        W77511   7.745  37.010  12.603
 9294W        W77512  21.750  14.074  13.832
 9295W        W77513  29.780   9.183   1.442
 9296W        W77514  44.895   7.453   3.230
 9297W        W77515  32.556  18.573   4.636
 9298W        W77516  28.786  18.381   9.862
 9299W        W77517   0.960  40.334   1.311
 9300W        W77518  24.274  13.661  11.120
 9301W        W77519  14.353   3.338  13.027
 9302W        W77520  11.128   9.893  13.363
 9303W        W77521  33.988  12.312   4.459
 9304W        W77522  21.744   1.954  11.890
 9305W        W77523   0.529  15.853   2.259
 9306W        W77524  34.890  12.456  12.609
 9307W        W77525  24.549   3.825  13.585
 9308W        W77526  25.431  20.181   4.362
 9309W        W77527  27.484  17.617   1.262
 9310W        W77528   8.196  36.268  11.207
 9311W        W77529  32.618  28.708  13.956
 9312W        W77530  15.270  18.818  14.553
 9313W        W77531  25.010  40.462   5.182
 9314W        W77532  18.536  15.105  11.652
 9315W        W77533   5.196  42.220  14.319
 9316W        W77534  41.530  28.487  12.483
 9317W        W77535   0.400   3.828  13.537
 9318W        W77536   1.786  38.284   2.415
 9319W        W77537  35.828  31.605  14.818
 9320W        W77538   6.870  30.338  14.478
 9321W        W77539  41.336   3.413   4.064
 9322W        W77540   8.630  18.677  13.795
 9323W        W77541  20.562  12.568  13.441
 9324W        W77542  36.570  29.589  14.770
 9325W        W77543  23.284  33.162   1.777
 9326W        W77544  11.999  13.845  13.383
 9327W        W77545  32.867  44.389   2.061
 9328W        W77546  31.753  24.709   1.298
 9329W        W77547  43.073   1.052   4.366
 9330W        W77548   3.064  18.800  10.573
 9331W        W77549  14.755  23.791   1.742
 9332W        W77550  21.058  29.366   3.391
 9333W        W77551  17.182  15.846  10.925
 9334W        W77552  23.432   3.175  13.456
 9335W        W77553  20.369  23.018  14.973
 9336W        W77554  30.929  23.657  12.078
 9337W        W77555  26.320   1.121  12.027
 9338W        W77556   5.229  30.422   2.907
 9339W        W77557   8.584  11.996  11.204
 9340W        W77558  37.598  21.750  11.491
 9341W        W77559  20.321  43.527   4.276
 9342W        W77560  42.755  41.238  14.276
 9343W        W77561  28.020  20.280   4.579
 9344W        W77562  22.077  18.883  12.502
 9345W        W77563  36.952  40.329  14.428
 9346W        W77564  30.705  17.075  14.418
 9347W        W77565  35.289   3.405  12.870
 9348W        W77566  36.849  25.959   4.061
 9349W        W77567  33.570  13.399  14.546
 9350W        W77568  41.455  14.626   4.494
 9351W        W77569  13.755  15.651  14.921
 9352W        W77570   7.810  37.496   0.925
 9353W        W77571  43.023  13.863  12.515
 9354W        W77572  41.092   5.302   3.838
 9355W        W77573  40.003  29.931  13.020
 9356W        W77574  11.413  21.530   2.712
 9357W        W77575   1.220  36.470  14.486
 9358W        W77576  36.359  28.609   3.633
 9359W        W77577   8.243  21.344   1.511
 9360W        W77578  34.374   9.988  11.529
 9361W        W77579  27.895  25.516   1.364
 9362W        W77580  24.261  40.702   3.551
 9363W        W77581  17.711  42.736  13.970
 9364W        W77582  28.554  31.134  14.901
 9365W        W77583   7.747  26.542   9.932
 9366W        W77584  29.722  41.130   0.286
 9367W        W77585  15.755  16.070   4.578
 9368W        W77586  36.852  44.893   0.083
 9369W        W77587  33.824  38.019  10.781
 9370W        W77588  40.521  10.991  12.781
 9371W        W77589  19.468  26.859  12.484
 9372W        W77590  10.183  26.845   4.988
 9373W        W77591   8.838  10.739   4.455
 9374W        W77592  15.070  20.988   3.644
 9375W        W77593  15.896  16.702   3.036
 9376W        W77594  11.667  31.241   4.372
 9377W        W77595  24.551  13.482  12.352
 9378W        W77596   3.622   0.055   3.267
 9379W        W77597   4.815  30.830   4.679
 9380W        W77598  24.215  38.847   2.438
 9381W        W77599  34.794  33.888  14.284
 9382W        W77600  27.237   7.667   3.400
 9383W        W77601  18.399  40.966   2.641
 9384W        W77602  22.519   6.314   1.399
 9385W        W77603   1.223   6.221  11.822
 9386W        W77604  13.690  18.595   1.059
 9387W        W77605  40.105   1.697  10.309
 9388W        W77606  21.138  41.623   4.717
 9389W        W77607  19.075  27.038   4.288
 9390W        W77608   8.924  42.138  10.231
 9391W        W77609  37.329  17.930  10.991
 9392W        W77610  27.012   0.356  14.612
 9393W        W77611  43.413  39.264   2.911
 9394W        W77612  39.996  33.669   2.825
 9395W        W77613  24.040  29.000  10.057
 9396W        W77614  29.497  25.286  12.527
 9397W        W77615   6.341   9.012   1.654
 9398W        W77616  29.964  25.402  13.048
 9399W        W77617  10.621  10.670  14.339
 9400W        W77618  20.182  44.736  13.432
 9401W        W77619  25.756  36.381  12.984
 9402W        W77620  12.196  40.872   3.194
 9403W        W77621   3.904  21.033   3.663
 9404W        W77622  39.652  42.727   4.612
 9405W        W77623  28.118  26.054   0.558
 9406W        W77624  30.869  14.358  14.615
 9407W        W77625  23.028   4.362   4.496
 9408W        W77626  18.088  19.408  11.371
 9409W        W77627  28.905   0.875  10.857
 9410W        W77628  22.205  42.237   2.686
 9411W        W77629  38.191  21.670  13.363
 9412W        W77630   3.184  27.601   2.615
 9413W        W77631  15.558  19.474   0.284
 9414W        W77632  37.359  33.677  12.994
 9415W        W77633  15.106  25.346   2.719
 9416W        W77634  14.738  27.574  14.179
 9417W        W77635   8.777  33.676  14.309
 9418W        W77636  10.144  33.581  14.062
 9419W        W77637   8.703  38.519   0.356
 9420W        W77638  15.158   0.765   4.579
 9421W        W77639   4.933  36.943   2.852
 9422W        W77640  23.087  14.723   4.646
 9423W        W77641   7.139  15.224   2.811
 9424W        W77642  26.565  14.258  11.938
 9425W        W77643  14.938  33.433  12.503
 9426W        W77644  12.179  31.929  13.082
 9427W        W77645   5.470  27.169   1.715
 9428W        W77646  25.471  35.258  14.417
 9429W        W77647   9.575   0.830  14.645
 9430W        W77648  27.819  36.471  12.873
 9431W        W77649   2.932  11.298   2.269
 9432W        W77650  42.327  44.786   4.233
 9433W        W77651  41.415  27.388   1.672
 9434W        W77652  11.980   5.342   4.174
 9435W        W77653   4.164  23.896  10.636
 9436W        W77654   3.336  37.173  11.631
 9437W        W77655  28.126  27.005   4.882
 9438W        W77656  12.631  42.681  11.519
 9439W        W77657  17.843  25.649   2.890
 9440W        W77658  15.634   2.197   1.736
 9441W        W77659   1.273  19.478  13.950
 9442W        W77660  18.101  26.690   3.248
 9443W        W77661  36.851   3.810  14.788
 9444W        W77662  18.125  26.794   0.224
 9445W        W77663  43.317  32.373  10.643
 9446W        W77664  36.529  17.902   2.778
 9447W        W77665  13.170   7.094   1.682
 9448W        W77666  25.042  12.854   4.877
 9449W        W77667   2.275  25.891  13.321
 9450W        W77668  37.632   5.498  13.456
 9451W        W77669  43.394   5.461   2.380
 9452W        W77670  31.906   2.862   1.391
 9453W        W77671  17.053   1.242   4.190
 9454W        W77672   4.461   2.238   1.495
 9455W        W77673   2.271   9.664  14.853
 9456W        W77674   8.126  18.219  12.962
 9457W        W77675  10.597  15.276   3.467
 9458W        W77676  23.574  26.524   3.137
 9459W        W77677   1.748  10.182   2.419
 9460W        W77678  11.664  22.055   0.078
 9461W        W77679  12.230  42.061  12.829
 9462W        W77680  20.184  13.337   3.583
 9463W        W77681   2.898  15.387   3.360
 9464W        W77682  23.647  27.044   4.983
 9465W        W77683  25.104  40.203  13.925
 9466W        W77684  39.395  31.970   0.929
 9467W        W77685  22.952  28.831   2.326
 9468W        W77686  39.071   1.814   1.930
 9469W        W77687   1.825  21.335  11.529
 9470W        W77688  35.568   3.189   0.283
 9471W        W77689   4.500  23.691   4.760
 9472W        W77690  14.695  14.336   4.556
 9473W        W77691  14.227  20.066   2.813
 9474W        W77692  16.765  30.010  12.596
 9475W        W77693  18.878  29.095  10.820
 9476W        W77694  31.944   4.181   0.888
 9477W        W77695   2.713  23.064   4.675
 9478W        W77696  15.583  34.729  12.139
 9479W        W77697  16.123  17.712  11.072
 9480W        W77698  27.943  42.835  13.358
 9481W        W77699  42.390  29.513  10.741
 9482W        W77700  28.994   1.363  11.361
 9483W        W77701  40.491  26.663   1.369
 9484W        W77702   5.205   1.616   1.479
 9485W        W77703  15.938  44.058   4.176
 9486W        W77704  11.291   3.831  14.812
 9487W        W77705  27.612  41.569   1.051
 9488W        W77706   1.827  24.944   4.107
 9489W        W77707  38.365  27.650  11.451
 9490W        W77708  15.082  21.713  13.497
 9491W        W77709  17.767  44.427  12.053
 9492W        W77710   0.818  24.740  13.349
 9493W        W77711  25.409  30.675   3.343
 9494W        W77712  17.261  26.474   2.812
 9495W        W77713  29.533  24.430  13.799
 9496W        W77714  14.117  40.995   2.035
 9497W        W77715   6.283   1.484  13.473
 9498W        W77716  21.495  43.203  14.507
 9499W        W77717  30.646  38.923   5.296
 9500W        W77718  30.171  29.078  14.201
 9501W        W77719  29.510  15.274  13.370
 9502W        W77720  41.181   5.533   0.432
 9503W        W77721  44.803  16.824   0.812
 9504W        W77722   7.449  24.611   0.893
 9505W        W77723   5.748   0.075   0.333
 9506W        W77724  22.997  30.574   2.887
 9507W        W77725  37.364   3.713  12.500
 9508W        W77726   3.441  10.104  14.540
 9509W        W77727  37.864  11.208   1.630
 9510W        W77728   5.136  40.374   4.154
 9511W        W77729   3.869   6.947   3.177
 9512W        W77730  12.894  31.518  12.327
 9513W        W77731  26.199   8.735  13.061
 9514W        W77732   1.462  33.653   0.747
 9515W        W77733  35.160  26.509   4.695
 9516W        W77734  17.078  17.628   0.331
 9517W        W77735  26.170  18.143   3.101
 9518W        W77736  21.236  32.482   0.179
 9519W        W77737  16.097  36.886  12.566
 9520W        W77738  44.346   2.694  14.894
 9521W        W77739  11.345  34.951  13.216
 9522W        W77740  17.250  26.964  11.876
 9523W        W77741   0.133  18.144  10.519
 9524W        W77742  14.917   6.226   1.928
 9525W        W77743  22.792  25.573  12.911
 9526W        W77744  23.326  36.885   3.219
 9527W        W77745  11.855  39.476  13.966
 9528W        W77746  34.358  16.947   0.747
 9529W        W77747  18.079  33.309   1.638
 9530W        W77748  23.210  37.581   1.694
 9531W        W77749  38.179  40.470  11.685
 9532W        W77750  31.896  18.697  10.937
 9533W        W77751   0.283   8.705   2.875
 9534W        W77752   4.731  10.712  14.792
 9535W        W77753  37.713  23.997   0.476
 9536W        W77754  20.162   5.813   4.536
 9537W        W77755  40.255  20.443   3.204
 9538W        W77756  30.504  19.503  13.383
 9539W        W77757  23.078   5.445   0.577
 9540W        W77758  41.594  10.104  12.874
 9541W        W77759  12.751   2.433   3.236
 9542W        W77760  42.257   0.712   4.011
 9543W        W77761  31.038   8.979   4.639
 9544W        W77762  41.207  24.787   3.393
 9545W        W77763  41.459   1.488   1.713
 9546W        W77764  23.539  42.691   3.106
 9547W        W77765  41.335  40.513  14.308
 9548W        W77766  10.900   4.329  14.147
 9549W        W77767  16.992  11.266   1.632
 9550W        W77768  20.537  17.789   3.648
 9551W        W77769   3.350  16.030  10.197
 9552W        W77770   7.682   1.860  13.979
 9553W        W77771   3.562   4.746   3.481
 9554W        W77772  26.207  10.063  12.039
 9555W        W77773  33.927  42.648   1.751
 9556W        W77774   0.881  17.099   2.685
 9557W        W77775  24.636   6.698  13.879
 9558W        W77776  14.899  37.369  10.400
 9559W        W77777  40.420  20.098  14.699
 9560W        W77778  14.640   7.430  14.295
 9561W        W77779  15.739  17.843  10.579
 9562W        W77780  36.548   2.744  13.819
 9563W        W77781  25.152  28.670  12.088
 9564W        W77782   2.857  40.146  10.887
 9565W        W77783  18.270  40.101   4.154
 9566W        W77784  40.437  13.120  10.968
 9567W        W77785  37.892  11.084   3.514
 9568W        W77786  21.815  42.550   0.371
 9569W        W77787  20.011  32.632   3.327
 9570W        W77788  33.329  18.608  10.457
 9571W        W77789  28.418  10.651   0.443
 9572W        W77790  25.451  31.968   3.356
 9573W        W77791  27.174  36.826  12.109
 9574W        W77792   1.204   9.334  14.346
 9575W        W77793  11.058  27.338   1.229
 9576W        W77794  42.554  10.622   1.888
 9577W        W77795   0.375  10.574  13.034
 9578W        W77796  25.694  10.756  14.472
 9579W        W77797  16.828  26.293   1.228
 9580W        W77798   9.488  21.347  11.174
 9581W        W77799  34.511  18.095  11.672
 9582W        W77800  38.894  25.515  11.554
 9583W        W77801   4.252  44.438  10.722
 9584W        W77802  29.160   0.466  10.646
 9585W        W77803   1.757   0.509  13.254
 9586W        W77804   2.739  26.149  10.756
 9587W        W77805  38.315   6.212  12.945
 9588W        W77806  35.694   6.573   3.040
 9589W        W77807   9.147   7.767   3.741
 9590W        W77808  11.296  42.879   2.580
 9591W        W77809  41.639  20.281  12.638
 9592W        W77810  19.399  11.214   2.186
 9593W        W77811  42.870  17.068  12.090
 9594W        W77812   1.795   1.920  12.552
 9595W        W77813  28.079   3.255  13.347
 9596W        W77814  40.548   5.194  11.670
 9597W        W77815  34.933  40.901  13.321
 9598W        W77816   9.650  27.718  14.743
 9599W        W77817  22.735   7.774  12.526
 9600W        W77818   5.818  30.344  14.465
 9601W        W77819  33.043  36.177  13.547
 9602W        W77820  22.284  22.499   3.706
 9603W        W77821  30.045  42.892  10.646
 9604W        W77822  43.735   0.685   4.950
 9605W        W77823  43.976   4.450  11.876
 9606W        W77824  39.851  43.284   3.724
 9607W        W77825  19.719  41.882   1.442
 9608W        W77826   8.821  17.392   0.887
 9609W        W77827  30.007  13.773   2.185
 9610W        W77828   6.262  16.908  13.804
 9611W        W77829  32.066   4.270   3.191
 9612W        W77830  17.809  40.801  13.550
 9613W        W77831  25.412  12.276   2.138
 9614W        W77832  31.505  44.259   0.710
 9615W        W77833  24.201   0.873   9.783
 9616W        W77834  40.353  11.899  14.261
 9617W        W77835  14.758  23.724  14.077
 9618W        W77836  35.673  44.014   0.738
 9619W        W77837  24.669  42.028   3.125
 9620W        W77838   2.692  16.902   1.814
 9621W        W77839  31.604   1.544  10.414
 9622W        W77840  17.098  43.006  13.888
 9623W        W77841  13.627   2.195  13.006
 9624W        W77842   4.954  26.121   4.136
 9625W        W77843  24.747  41.557  13.045
 9626W        W77844   3.228  19.742   0.461
 9627W        W77845   5.188  38.481   4.636
 9628W        W77846  21.619  17.815  11.931
 9629W        W77847  42.288  16.727   3.325
 9630W        W77848  11.700  42.868   2.276
 9631W        W77849  38.271  37.959   0.879
 9632W        W77850  27.241  18.520  13.788
 9633W        W77851  26.197  43.862   4.114
 9634W        W77852  40.059  34.522   4.600
 9635W        W77853  21.697  13.776  14.727
 9636W        W77854  44.881  26.076  13.505
 9637W        W77855  33.448  28.290   1.835
 9638W        W77856  38.964  21.264   5.065
 9639W        W77857   1.402  17.608   1.837
 9640W        W77858  39.620  27.705  12.438
 9641W        W77859  24.728   3.258   0.269
 9642W        W77860  25.925  21.142   2.009
 9643W        W77861  15.074  20.343   1.829
 9644W        W77862   2.524  30.746  13.822
 9645W        W77863  43.575  33.608   1.921
 9646W        W77864   6.094   1.412  12.961
 9647W        W77865  20.831  41.488   2.688
 9648W        W77866  43.825  17.395  11.511
 9649W        W77867  15.547  24.023  14.969
 9650W        W77868  30.590  13.183  12.827
 9651W        W77869  26.082   6.651  11.911
 9652W        W77870   2.183   4.627  11.131
 9653W        W77871   6.102  15.225   3.755
 9654W        W77872  27.624   0.546  10.939
 9655W        W77873  40.777  33.425   0.481
 9656W        W77874   7.218   2.518  12.110
 9657W        W77875   9.322  19.918  10.063
 9658W        W77876  15.762   4.121  13.744
 9659W        W77877  10.304  29.443   2.809
 9660W        W77878  22.477  24.695  12.051
 9661W        W77879  18.770  37.909   3.222
 9662W        W77880  25.222  12.731  10.759
 9663W        W77881  10.651  14.983  14.884
 9664W        W77882  32.870  18.992   2.100
 9665W        W77883  24.362  38.128  13.845
 9666W        W77884  33.028  40.074   3.787
 9667W        W77885  41.951  21.001  14.136
 9668W        W77886  30.883  20.176   3.420
 9669W        W77887   4.811   3.203  12.648
 9670W        W77888  27.262  10.788  11.781
 9671W        W77889  23.399  17.663   0.852
 9672W        W77890   0.948   0.250  12.652
 9673W        W77891  14.333   8.439   0.395
 9674W        W77892  25.064  35.932  12.141
 9675W        W77893  38.965  19.499  11.341
 9676W        W77894  16.025   5.874   3.587
 9677W        W77895  11.781   1.809   1.629
 9678W        W77896  10.436   7.909  13.031
 9679W        W77897  28.120  27.649   2.380
 9680W        W77898  12.710  43.244   1.477
 9681W        W77899  11.390   2.370  13.623
 9682W        W77900  15.498  41.775   4.560
 9683W        W77901  35.492  15.848  13.437
 9684W        W77902  12.944  31.543   3.420
 9685W        W77903  19.531  15.783  11.126
 9686W        W77904  31.636  42.829   1.237
 9687W        W77905  20.561  43.894   4.008
 9688W        W77906   9.103  29.927   4.923
 9689W        W77907  35.931  37.023   3.319
 9690W        W77908  23.727  39.006  14.553
 9691W        W77909  31.220  20.046  11.654
 9692W        W77910  13.700  31.615  11.935
 9693W        W77911   3.870  28.852  12.867
 9694W        W77912  21.752   0.846   1.581
 9695W        W77913  16.065  15.561  13.019
 9696W        W77914  30.901   5.763   4.922
 9697W        W77915   5.865  44.669   5.347
 9698W        W77916  20.759  19.535  14.942
 9699W        W77917  34.530  26.695   3.188
 9700W        W77918  11.778  29.123   1.315
 9701W        W77919  41.508  30.182   3.762
 9702W        W77920  12.827   7.884   4.513
 9703W        W77921  37.213  39.655  13.238
 9704W        W77922  14.032  20.147   3.827
 9705W        W77923  34.087   9.910  10.726
 9706W        W77924  28.593  21.970  11.084
 9707W        W77925  43.751  23.503   1.749
 9708W        W77926  12.701   2.951   3.254
 9709W        W77927   8.960  43.356   0.367
 9710W        W77928   5.923  28.702   3.823
 9711W        W77929  15.841  15.866  14.933
 9712W        W77930   4.143  36.650   2.830
 9713W        W77931  27.968  22.271   0.375
 9714W        W77932  12.332  27.322  12.014
 9715W        W77933  13.670   2.390  10.896
 9716W        W77934  25.698  28.843   3.216
 9717W        W77935  21.593  26.932   2.753
 9718W        W77936  34.968  18.459   3.239
 9719W        W77937  35.637   6.368  14.492
 9720W        W77938  21.476   5.714  12.596
 9721W        W77939   1.797  42.842   4.671
 9722W        W77940  20.247  14.362   2.687
 9723W        W77941   9.305  17.741   0.325
 9724W        W77942  44.467  28.427   1.720
 9725W        W77943  11.275   0.231  13.853
 9726W        W77944   1.966  15.750   1.427
 9727W        W77945   6.264  11.704   0.910
 9728W        W77946   0.907  16.878   0.775
 9729W        W77947   2.511  29.545  11.665
 9730W        W77948   9.161  39.355   3.592
 9731W        W77949   5.206   6.485  12.992
 9732W        W77950   2.523   3.817  14.414
 9733W        W77951   5.613   8.088   1.431
 9734W        W77952  17.836  31.344  14.795
 9735W        W77953  13.889  36.001   3.236
 9736W        W77954   5.672  33.942   1.126
 9737W        W77955   2.453  35.715   4.485
 9738W        W77956   2.411   2.450  11.549
 9739W        W77957  37.354  42.831  14.025
 9740W        W77958   9.758  40.952   0.284
 9741W        W77959  32.315  10.362  13.562
 9742W        W77960  18.528  30.017  13.883
 9743W        W77961  12.417   5.606  10.746
 9744W        W77962  44.010  38.136  14.087
 9745W        W77963   8.598  10.804  13.120
 9746W        W77964  19.679  17.255   1.057
 9747W        W77965   6.672  35.380  12.958
 9748W        W77966  15.771  33.146   1.193
 9749W        W77967  36.998  34.959   4.130
 9750W        W77968  33.154  37.034   4.068
 9751W        W77969  42.317  28.527  11.673
 9752W        W77970   9.765   4.776   0.795
 9753W        W77971  43.476  39.282   0.842
 9754W        W77972   3.819  22.543  11.631
 9755W        W77973  26.452  17.254   2.680
 9756W        W77974  34.448  30.118  11.732
 9757W        W77975   7.490  32.482  13.897
 9758W        W77976  12.053  25.346   2.311
 9759W        W77977  44.058  41.843   2.651
 9760W        W77978  30.509  18.303  11.134
 9761W        W77979  37.998  33.521  14.916
 9762W        W77980  14.867  42.339  13.065
 9763W        W77981  39.826  19.037  11.352
 9764W        W77982  30.258  20.614  11.965
 9765W        W77983  32.429   8.467  10.788
 9766W        W77984  27.065  31.056   4.750
 9767W        W77985  30.556   7.285  14.111
 9768W        W77986  25.659  10.852   1.358
 9769W        W77987  40.016  13.127   0.478
 9770W        W77988  14.217  31.278  12.893
 9771W        W77989  28.145  37.105   0.502
 9772W        W77990  35.413  36.451   3.764
 9773W        W77991  13.720  40.875   4.741
 9774W        W77992  42.871   8.394  12.051
 9775W        W77993  12.596  38.393   1.441
 9776W        W77994  21.359  31.339   4.113
 9777W        W77995  30.731  17.724   4.106
 9778W        W77996  38.370  20.822  13.483
 9779W        W77997  19.208  21.269   4.034
 9780W        W77998  39.836  30.928   0.391
 9781W        W77999   8.162  25.961   1.288
 9782W        W78000   4.873  42.626  12.725
 9783W        W78001  28.574   4.388  10.934
 9784W        W78002  44.938  24.631   2.693
 9785W        W78003   1.001  24.191  13.497
 9786W        W78004   6.432  44.514  13.001
 9787W        W78005  16.602   1.349   2.956
 9788W        W78006  40.079  25.176   1.361
 9789W        W78007   1.498  14.194  11.102
 9790W        W78008  13.558  29.377   0.989
 9791W        W78009  37.104   6.676  14.339
 9792W        W78010  14.835  21.527  11.246
 9793W        W78011  13.333  30.318  14.880
 9794W        W78012  27.033  43.342  13.066
 9795W        W78013  25.912  19.623  13.932
 9796W        W78014  34.481  30.439  14.622
 9797W        W78015   6.935  23.710  14.877
 9798W        W78016  42.365  31.357  11.637
 9799W        W78017  20.181  33.082  14.078
 9800W        W78018  10.394  38.367  11.779
 9801W        W78019  31.552  40.561   4.664
 9802W        W78020   9.106   1.892   1.414
 9803W        W78021   7.711  20.383   4.989
 9804W        W78022   1.300  16.829  14.751
 9805W        W78023   1.762   7.860   3.369
 9806W        W78024  15.286  12.270   0.327
 9807W        W78025   3.170  44.803  11.075
 9808W        W78026  31.089   9.872   3.706
 9809W        W78027  26.469   3.754   2.368
 9810W        W78028   8.341  33.613  13.509
 9811W        W78029   8.162  17.556   1.767
 9812W        W78030   0.462   5.729  12.423
 9813W        W78031  10.079  36.557   2.145
 9814W        W78032  25.073  19.585  13.113
 9815W        W78033  18.234   6.681  14.073
 9816W        W78034  10.099  42.744   0.032
 9817W        W78035   9.595  13.842  13.839
 9818W        W78036  15.068  29.550   2.043
 9819W        W78037  44.252  17.119  13.046
 9820W        W78038  26.771  40.501  13.849
 9821W        W78039   4.460   1.502  10.736
 9822W        W78040  29.518  34.540   4.630
 9823W        W78041  14.709  19.051  13.851
 9824W        W78042  20.855  36.271   9.811
 9825W        W78043  42.031  30.369   2.841
 9826W        W78044  36.458  30.980  11.610
 9827W        W78045  20.746  43.505   4.573
 9828W        W78046   5.271  25.450  13.837
 9829W        W78047  29.331  36.978   2.819
 9830W        W78048  32.333   7.259   4.995
 9831W        W78049   1.915  38.172  13.963
 9832W        W78050   5.478  35.367   1.497
 9833W        W78051   9.651   3.844   2.494
 9834W        W78052  20.290  11.194   4.587
 9835W        W78053   2.631  11.825   9.889
 9836W        W78054  38.366  42.292   4.342
 9837W        W78055  10.094  20.536  12.501
 9838W        W78056   2.414  12.369  14.851
 9839W        W78057   7.799  36.035  10.371
 9840W        W78058  10.663  38.328   0.451
 9841W        W78059  15.363   0.336  11.459
 9842W        W78060  18.564  31.522   0.295
 9843W        W78061   5.459  44.710  11.028
 9844W        W78062  22.438  38.531  12.549
 9845W        W78063  14.904  42.021  14.801
 9846W        W78064  16.159  11.242   2.848
 9847W        W78065  22.582   4.538  10.946
 9848W        W78066   3.920  11.124  11.853
 9849W        W78067   2.884  41.413  12.384
 9850W        W78068  15.674  37.981   1.270
 9851W        W78069  40.913  34.592  12.568
 9852W        W78070  42.395  41.823   1.778
 9853W        W78071  40.823   2.039   2.634
 9854W        W78072   5.070   1.058   5.169
 9855W        W78073  27.131   2.726  11.604
 9856W        W78074  44.831  24.145   1.821
 9857W        W78075  38.633   2.279  11.656
 9858W        W78076  34.035   7.713  11.372
 9859W        W78077  33.389  16.281  10.667
 9860W        W78078  38.941   5.327  10.057
 9861W        W78079  29.958  24.097   2.816
 9862W        W78080  23.019  21.594   1.321
 9863W        W78081  13.155   8.233   3.099
 9864W        W78082  14.594   7.851  13.976
 9865W        W78083  13.163  14.885   4.122
 9866W        W78084  25.706  22.345  10.732
 9867W        W78085  13.719   0.788  14.477
 9868W        W78086  33.485  18.670  12.417
 9869W        W78087  40.109  23.693   2.224
 9870W        W78088  12.973  27.235   0.498
 9871W        W78089  44.870   1.296  12.007
 9872W        W78090  24.670   6.881   1.968
 9873W        W78091  28.957  14.798  13.176
 9874W        W78092  39.498  24.584  13.315
 9875W        W78093   8.667  40.797  11.639
 9876W        W78094  22.167  41.066   0.926
 9877W        W78095  19.705   9.092   1.646
 9878W        W78096  25.886   0.181   4.193
 9879W        W78097   9.815  29.448   1.780
 9880W        W78098  44.328  35.293   3.198
 9881W        W78099  29.242  11.628   2.711
 9882W        W78100   8.987   4.348  13.359
 9883W        W78101   9.238  22.119  14.018
 9884W        W78102  18.503  40.563  12.887
 9885W        W78103  33.505  22.331   3.627
 9886W        W78104   1.796  22.182  11.159
 9887W        W78105   5.374  44.112  10.305
 9888W        W78106  40.421   2.236  13.956
 9889W        W78107   3.485   5.112   4.557
 9890W        W78108  28.606  12.190  13.884
 9891W        W78109  18.824  28.684   3.797
 9892W        W78110  26.453  27.039  13.832
 9893W        W78111  13.255  26.427   1.727
 9894W        W78112  38.506  28.543   4.477
 9895W        W78113  21.826  36.913   3.152
 9896W        W78114  36.603  36.754  10.632
 9897W        W78115  26.843   6.326   3.744
 9898W        W78116   6.066   9.583  10.246
 9899W        W78117  42.637  12.676  13.510
 9900W        W78118  36.278  22.736   4.242
 9901W        W78119  21.728   3.904   1.954
 9902W        W78120  13.070  16.635  14.554
 9903W        W78121  18.773  27.484   2.318
 9904W        W78122  19.349  16.658  14.638
 9905W        W78123  28.922  10.424  12.608
 9906W        W78124  29.389  17.244  12.100
 9907W        W78125   8.279  20.624   2.751
 9908W        W78126  11.240  29.949   3.061
 9909W        W78127  42.512  44.703   2.864
 9910W        W78128  34.322  25.621  11.147
 9911W        W78129  26.198   1.553   2.791
 9912W        W78130  12.577   7.748   1.418
 9913W        W78131  43.783  14.638   0.460
 9914W        W78132   8.637  35.247  13.835
 9915W        W78133  43.862  19.799   4.334
 9916W        W78134  20.080  12.255  14.262
 9917W        W78135   7.268   5.699  14.788
 9918W        W78136  17.306  44.070   3.714
 9919W        W78137  13.112  36.006   1.679
 9920W        W78138  44.802  28.795   2.639
 9921W        W78139   2.451  31.248   4.050
 9922W        W78140  24.240  31.921   1.150
 9923W        W78141   6.650  19.242   1.884
 9924W        W78142   4.708   3.793  11.567
 9925W        W78143  15.317   2.349   4.564
 9926W        W78144  40.850  17.677   4.130
 9927W        W78145  20.736  21.230   1.706
 9928W        W78146  43.266   5.720   1.825
 9929W        W78147  43.017  29.615  14.450
 9930W        W78148   5.620  38.351  12.469
 9931W        W78149  38.822  17.305  14.348
 9932W        W78150  13.012  28.987   3.660
 9933W        W78151  17.657  25.862  12.730
 9934W        W78152  15.818  39.899   4.219
 9935W        W78153  33.862  15.360  12.485
 9936W        W78154  41.780  19.525  14.060
 9937W        W78155  17.216  17.226   3.738
 9938W        W78156  22.241   5.216  13.844
 9939W        W78157  40.020  35.955  11.970
 9940W        W78158  43.088  25.598  11.088
 9941W        W78159  21.302  42.393   5.070
 9942W        W78160   5.109  23.224   1.531
 9943W        W78161  10.157  22.760   0.931
 9944W        W78162  16.811  39.771   0.385
 9945W        W78163  35.080  30.363  14.034
 9946W        W78164   7.702  34.074  14.060
 9947W        W78165   2.421   7.758   1.414
 9948W        W78166  30.543  16.233   3.755
 9949W        W78167  27.113   7.241  14.315
 9950W        W78168  43.424  36.875   3.678
 9951W        W78169   7.144   7.304  13.862
 9952W        W78170  36.521   7.381  14.284
 9953W        W78171   5.071  11.588  13.315
 9954W        W78172  13.609  30.483   1.468
 9955W        W78173  25.521  12.652   4.965
 9956W        W78174  11.931  38.257   1.945
 9957W        W78175  41.724   6.422  13.029
 9958W        W78176  23.455  34.377   1.308
 9959W        W78177  39.326  42.455  14.318
 9960W        W78178  38.064  36.474   0.329
 9961W        W78179  26.089   3.528  14.011
 9962W        W78180   6.893  30.903  14.795
 9963W        W78181  38.438  44.065  13.249
 9964W        W78182  20.507  39.373   1.766
 9965W        W78183   5.920  43.092   0.040
 9966W        W78184  27.762  19.165  12.091
 9967W        W78185  10.344  17.508   4.627
 9968W        W78186  10.237   5.438   4.719
 9969W        W78187  35.032   6.852   2.305
 9970W        W78188  30.967  15.403   4.415
 9971W        W78189  23.520  25.237   4.768
 9972W        W78190   8.418  31.310  14.824
 9973W        W78191  42.285   2.195  10.723
 9974W        W78192  31.136   6.229   4.934
 9975W        W78193  28.964  43.739   3.176
 9976W        W78194  10.291   0.998  12.087
 9977W        W78195  21.230  44.622   4.268
 9978W        W78196  17.133  19.008  14.816
 9979W        W78197  22.251  27.634   1.465
 9980W        W78198   4.682  34.345   3.670
 9981W        W78199  38.968  35.929   2.598
 9982W        W78200  39.762  27.978   2.249
 9983W        W78201  30.183  13.883  14.816
 9984W        W78202  19.607  16.289  11.065
 9985W        W78203   5.708  35.418   2.916
 9986W        W78204   9.151   4.163   1.731
 9987W        W78205  23.645  29.626   1.973
 9988W        W78206   9.129  24.308   0.707
 9989W        W78207  39.188  11.634  10.449
 9990W        W78208  22.209  35.473   2.742
 9991W        W78209  14.720  11.170   1.401
 9992W        W78210  13.064   1.481   1.270
 9993W        W78211  17.550  30.735   4.536
 9994W        W78212  35.954   3.889   2.743
 9995W        W78213  43.843  28.062   4.158
 9996W        W78214  23.469  20.794  13.117
 9997W        W78215  21.994  18.266  10.836
 9998W        W78216  32.437   1.868   1.882
 9999W        W78217  30.173  20.466   0.319
10000W        W78218  42.557  23.399   0.356
10001W        W78219  36.289  35.003   4.934
10002W        W78220   7.825   8.324  12.616
10003W        W78221  18.749   3.164  14.275
10004W        W78222  28.090  23.210  11.753
10005W        W78223  17.139  42.610   4.083
10006W        W78224  23.961  39.833  10.888
10007W        W78225   8.790  11.674  11.544
10008W        W78226  35.080   0.383   0.226
10009W        W78227  13.780  15.794  12.345
10010W        W78228  24.315  40.256   2.202
10011W        W78229  30.030  42.601  11.069
10012W        W78230   1.343  39.617  10.651
10013W        W78231  11.121  40.311   0.749
10014W        W78232   7.193  13.039   4.111
10015W        W78233   3.906  22.104  14.509
10016W        W78234   7.273  30.009  10.821
10017W        W78235  20.284  18.712  11.113
10018W        W78236   8.360   8.710  11.460
10019W        W78237  10.206  15.765  14.859
10020W        W78238  18.364  15.711   4.028
10021W        W78239  13.393  30.531   9.697
10022W        W78240  29.066  32.121   4.522
10023W        W78241   6.369  36.494   2.965
10024W        W78242   1.021   3.836   0.681
10025W        W78243  19.284  24.798   4.120
10026W        W78244  21.064   3.744   4.595
10027W        W78245  20.868  34.864  10.354
10028W        W78246  38.887   3.966   0.957
10029W        W78247  11.633  33.711   0.025
10030W        W78248  36.504   5.227   4.090
10031W        W78249  36.607  13.346  14.199
10032W        W78250   7.803  34.565  14.802
10033W        W78251  17.108  13.272   1.240
10034W        W78252  34.842   5.228   0.533
10035W        W78253   8.289   4.108   1.379
10036W        W78254  34.902  24.199   1.338
10037W        W78255  25.819  39.410  13.097
10038W        W78256   9.901  19.836  14.423
10039W        W78257  41.805  24.255   0.921
10040W        W78258  12.575  25.410  12.613
10041W        W78259  36.788  11.463  12.424
10042W        W78260  32.588   8.583  12.527
10043W        W78261  20.953  29.051   4.213
10044W        W78262  38.566  14.216   0.250
10045W        W78263  10.560  41.742  12.533
10046W        W78264  30.837  36.941  14.988
10047W        W78265  21.581  25.956   3.705
10048W        W78266  36.111  15.225  12.912
10049W        W78267  43.013   8.934  10.712
10050W        W78268  26.004   8.608  14.918
10051W        W78269   7.827  31.875  10.808
10052W        W78270  40.954  34.924   1.509
10053W        W78271   7.278  44.140   3.107
10054W        W78272  21.993  36.248  13.018
10055W        W78273  28.275  23.939  14.289
10056W        W78274  25.354  43.490  14.000
10057W        W78275  18.932  29.677   0.189
10058W        W78276  31.541  14.175   1.345
10059W        W78277  32.844  18.655  14.833
10060W        W78278  30.508  17.639   2.853
10061W        W78279  17.292   1.843   2.397
10062W        W78280   1.368  20.266   2.154
10063W        W78281  40.992  10.802  12.621
10064W        W78282  39.203  35.082  12.181
10065W        W78283  43.126  42.445  11.192
10066W        W78284  17.263  30.367  12.927
10067W        W78285  14.130  32.845  11.575
10068W        W78286   3.310   2.964   3.329
10069W        W78287  36.509   8.911   4.166
10070W        W78288  37.317   8.895  11.971
10071W        W78289  37.508   9.327  11.294
10072W        W78290   7.217  29.076   1.469
10073W        W78291  21.021  25.690   1.416
10074W        W78292  44.694  16.271   1.535
10075W        W78293  41.947   4.389   1.512
10076W        W78294  35.749  35.486  11.319
10077W        W78295  42.775  42.750   2.413
10078W        W78296  20.507  11.365  12.993
10079W        W78297  42.293   2.504   4.119
10080W        W78298  33.425  30.892  10.102
10081W        W78299  43.189  31.913   3.751
10082W        W78300  28.040  19.153   4.038
10083W        W78301  22.492  20.318   2.227
10084W        W78302   8.897  30.146  12.157
10085W        W78303  32.973  22.091  14.401
10086W        W78304  29.104  29.391   0.395
10087W        W78305  25.511  40.823  10.970
10088W        W78306   2.460   2.915  14.069
10089W        W78307  27.463  31.681   0.896
10090W        W78308   8.610  29.902   3.257
10091W        W78309   4.337  34.646  11.327
10092W        W78310  42.363   6.469   3.349
10093W        W78311  17.079  20.307   2.197
10094W        W78312  11.727  32.136  13.836
10095W        W78313  26.886  44.217   0.817
10096W        W78314  35.365  17.026   2.775
10097W        W78315  12.351   6.878  14.343
10098W        W78316  25.994  31.221  11.898
10099W        W78317  26.425   7.269  13.075
10100W        W78318  20.746  23.533  12.181
10101W        W78319  25.108  36.460   0.932
10102W        W78320  34.372  31.505   3.751
10103W        W78321  23.456  17.655   4.094
10104W        W78322  35.810  20.818  12.305
10105W        W78323  13.164   1.965  12.915
10106W        W78324  20.493  32.374   3.740
10107W        W78325  44.833  36.620   4.039
10108W        W78326  37.335  21.764  13.024
10109W        W78327  23.036   4.924   1.364
10110W        W78328  29.939  41.905  14.427
10111W        W78329  41.023  32.017  13.841
10112W        W78330   6.341  21.338  12.148
10113W        W78331  15.565   2.412   0.678
10114W        W78332   2.864  38.612  14.498
10115W        W78333   9.943  43.363   2.298
10116W        W78334  42.273   8.112   0.734
10117W        W78335  29.719  36.033  13.032
10118W        W78336  35.186  32.272  14.035
10119W        W78337  25.802  27.016   2.760
10120W        W78338   7.317   9.079   4.761
10121W        W78339  11.608  23.788  12.626
10122W        W78340  33.610  40.156  14.542
10123W        W78341   4.811  12.851  10.732
10124W        W78342  34.453  15.096  13.541
10125W        W78343  21.511  24.719  12.010
10126W        W78344  35.391  28.705  14.133
10127W        W78345  43.955   0.839   1.858
10128W        W78346  22.438  43.344   0.262
10129W        W78347  38.456  36.858   4.798
10130W        W78348  42.383   8.369  14.010
10131W        W78349  30.973  39.970  13.063
10132W        W78350  40.589  13.129   4.826
10133W        W78351   5.310   7.304  13.401
10134W        W78352   6.499   9.828   4.606
10135W        W78353  30.018  14.888   5.755
10136W        W78354  29.644  29.618   2.177
10137W        W78355   6.064   0.498   0.244
10138W        W78356  35.895  43.916   2.827
10139W        W78357   9.726  37.048  13.962
10140W        W78358  28.988  23.126   3.975
10141W        W78359  32.099  24.617   3.938
10142W        W78360  38.023   7.790  13.602
10143W        W78361  44.407  29.388  11.726
10144W        W78362  27.537  12.378   3.729
10145W        W78363  16.058  15.074   2.264
10146W        W78364  10.437  41.361  10.733
10147W        W78365   7.834  25.537   0.410
10148W        W78366  41.553  31.355  11.149
10149W        W78367  14.544  24.988   3.286
10150W        W78368  44.055   3.901   1.147
10151W        W78369  44.120  14.251   0.414
10152W        W78370  35.757  15.339   3.726
10153W        W78371   8.128  26.454  14.509
10154W        W78372  41.080  15.129   1.435
10155W        W78373  25.145   7.958  14.462
10156W        W78374  21.579  10.049  10.194
10157W        W78375  14.340  20.722  10.891
10158W        W78376  44.423  32.381   1.696
10159W        W78377  34.884  23.840  11.208
10160W        W78378  18.093   1.804   0.461
10161W        W78379  25.086  18.541  10.664
10162W        W78380   2.289  15.620  11.862
10163W        W78381  24.433  41.162  11.652
10164W        W78382  43.956  28.302  12.876
10165W        W78383  24.218  24.618  14.312
10166W        W78384  30.501  34.399  12.099
10167W        W78385   4.357  39.996   2.246
10168W        W78386  44.337   7.691   0.325
10169W        W78387  14.575  18.790  10.842
10170W        W78388  17.804  39.984   0.845
10171W        W78389   3.831  22.841   2.344
10172W        W78390  32.603   3.923  13.553
10173W        W78391  17.668  35.126  14.539
10174W        W78392  27.679   7.815  13.279
10175W        W78393  33.425  29.856   2.894
10176W        W78394  21.047  43.857   3.821
10177W        W78395  17.617  29.181  11.977
10178W        W78396  24.506  44.861   3.310
10179W        W78397  13.774  34.606  14.108
10180W        W78398  14.754  38.504   2.773
10181W        W78399  31.158  21.569  10.748
10182W        W78400  23.425   5.295   4.093
10183W        W78401  20.657   7.019   4.079
10184W        W78402  30.963  12.382   2.213
10185W        W78403   2.928  15.653  11.610
10186W        W78404  32.888   8.172  10.860
10187W        W78405  15.298   8.888  12.511
10188W        W78406  22.643  27.399  14.642
10189W        W78407  27.227  20.645   4.115
10190W        W78408   1.240  33.903  12.934
10191W        W78409  26.713   5.473  13.043
10192W        W78410  34.375  21.965   0.957
10193W        W78411  26.637  29.506   4.946
10194W        W78412  15.161  43.197  13.004
10195W        W78413  31.568  24.763   1.864
10196W        W78414  21.042  25.642   0.203
10197W        W78415  34.696  39.478   3.940
10198W        W78416  31.183   9.280   1.718
10199W        W78417  44.189  29.160   4.953
10200W        W78418  16.546  32.385  10.964
10201W        W78419  11.365  21.022   2.779
10202W        W78420  41.231   3.977   3.165
10203W        W78421  14.159  42.478   4.728
10204W        W78422   1.909  10.845  13.779
10205W        W78423  36.515  41.847  11.667
10206W        W78424  23.838  33.725  13.412
10207W        W78425  22.806  22.544  10.752
10208W        W78426  37.605  32.978  14.613
10209W        W78427   2.520   5.349   0.816
10210W        W78428   1.984   5.936  11.161
10211W        W78429  38.809   9.930   3.205
10212W        W78430  28.752  19.975   4.073
10213W        W78431  26.174  26.023  10.969
10214W        W78432   5.617  28.983   1.855
10215W        W78433  21.827  11.420   3.307
10216W        W78434   8.024  14.856   4.975
10217W        W78435   7.470  21.405  11.142
10218W        W78436  34.945  23.660   2.879
10219W        W78437  44.557  42.487  13.309
10220W        W78438  33.331  41.069  11.004
10221W        W78439  21.143   3.370  10.465
10222W        W78440  11.051  34.257   4.107
10223W        W78441  25.039  31.110  14.937
10224W        W78442  44.480  18.055  11.080
10225W        W78443  19.236  14.080   3.241
10226W        W78444  33.792  13.183   3.201
10227W        W78445  36.966  28.295   1.078
10228W        W78446  36.489  22.070  13.008
10229W        W78447  21.092  15.100  11.142
10230W        W78448  25.695  24.379   1.393
10231W        W78449  29.720  24.647  14.986
10232W        W78450   8.699  16.079   0.231
10233W        W78451   5.780  31.130   0.833
10234W        W78452   1.271   6.845  13.361
10235W        W78453  43.738   4.956   3.282
10236W        W78454  19.612  41.483  12.327
10237W        W78455   6.783  23.525   0.389
10238W        W78456   2.215  26.885   2.731
10239W        W78457  44.584  25.513  10.155
10240W        W78458  25.683  41.901  12.682
10241W        W78459   9.918  12.151   2.178
10242W        W78460  36.989  20.086   4.482
10243W        W78461  23.011  21.104  11.097
10244W        W78462  31.126  29.981  11.508
10245W        W78463   0.266  25.073   4.555
10246W        W78464   2.892  22.259   1.159
10247W        W78465   0.481  44.044  11.138
10248W        W78466  37.188  19.636  12.295
10249W        W78467  11.091   6.781  14.726
10250W        W78468  13.269  39.223   1.399
10251W        W78469   9.137   9.315  13.838
10252W        W78470  29.073  17.663   0.895
10253W        W78471  42.333  39.043   4.851
10254W        W78472  42.893  12.695   4.831
10255W        W78473  35.957  24.356   0.460
10256W        W78474  24.668  14.186   1.882
10257W        W78475  22.494   4.180  12.212
10258W        W78476  38.908  38.876  14.458
10259W        W78477   6.065   4.398  13.455
10260W        W78478  24.464  13.736   2.751
10261W        W78479   8.298  20.103   5.105
10262W        W78480   2.197  35.318  11.231
10263W        W78481  39.067  40.991   4.103
10264W        W78482  40.320  20.603  10.795
10265W        W78483  37.169   3.885   3.266
10266W        W78484  15.750  35.314   4.445
10267W        W78485  10.267  24.041  13.519
10268W        W78486  30.180  21.187   4.085
10269W        W78487   1.272  34.418  12.366
10270W        W78488  34.202  22.114   2.822
10271W        W78489  23.663   9.169   0.041
10272W        W78490   4.756  34.899  13.879
10273W        W78491  22.626   5.932   4.097
10274W        W78492   4.085  43.137   5.000
10275W        W78493   8.763   6.191  10.534
10276W        W78494   6.321  44.615  14.461
10277W        W78495  30.978   4.676   1.413
10278W        W78496   0.303  34.075  13.512
10279W        W78497  21.326  21.723   2.918
10280W        W78498  44.450  12.650   1.677
10281W        W78499  28.883  13.272   2.131
10282W        W78500  21.805  18.133   1.326
10283W        W78501  14.115   5.717   3.618
10284W        W78502   5.169   4.802   1.148
10285W        W78503  38.833  14.638   0.468
10286W        W78504  20.868   8.257   2.926
10287W        W78505  15.497   8.127   1.338
10288W        W78506  19.206   7.487  11.243
10289W        W78507  28.059  10.789  14.324
10290W        W78508  27.699  43.037   1.460
10291W        W78509  33.942  32.346  11.223
10292W        W78510  38.831   7.851   2.294
10293W        W78511  17.837  35.030   0.576
10294W        W78512  35.956  36.629   0.657
10295W        W78513   4.660   6.643  13.491
10296W        W78514   7.935  28.366  13.031
10297W        W78515  21.318  43.059  11.305
10298W        W78516  38.054  19.658  10.526
10299W        W78517  29.240  16.589   0.362
10300W        W78518   8.300  22.485   4.334
10301W        W78519   1.768  20.112  12.438
10302W        W78520  39.046   4.820  12.940
10303W        W78521  34.111  27.939  13.022
10304W        W78522  37.896  28.099   0.879
10305W        W78523  24.552  29.554  14.938
10306W        W78524  33.719   6.302  14.001
10307W        W78525   8.155   5.714   0.020
10308W        W78526  30.445  42.274  13.053
10309W        W78527  37.826  24.432  12.433
10310W        W78528   4.211  29.418   3.858
10311W        W78529  36.323  42.016   4.557
10312W        W78530  39.644   6.229   3.642
10313W        W78531  14.103  32.398  12.030
10314W        W78532  18.718  29.372  11.876
10315W        W78533  23.634  22.636   2.864
10316W        W78534   7.352  31.583  13.036
10317W        W78535  26.727   7.430  14.619
10318W        W78536   3.465  26.973  11.572
10319W        W78537  21.542  19.323  13.466
10320W        W78538  27.996  17.245  10.299
10321W        W78539  28.348  34.863  12.080
10322W        W78540  43.456   8.064  10.631
10323W        W78541  28.073  32.305   1.862
10324W        W78542  12.809  17.569  14.457
10325W        W78543  18.297   2.673   3.513
10326W        W78544  20.176  38.831   1.178
10327W        W78545  42.471  27.757  13.021
10328W        W78546  39.556   9.299   1.337
10329W        W78547  38.041  12.599  12.842
10330W        W78548  28.395  28.669   1.558
10331W        W78549  43.498  13.091   0.352
10332W        W78550  38.552  20.905   4.863
10333W        W78551  29.648   6.979   4.200
10334W        W78552  29.620  24.879  11.645
10335W        W78553  37.854  39.103   4.114
10336W        W78554  33.259   8.756  13.040
10337W        W78555   9.733  37.810  10.829
10338W        W78556  40.828  27.572   0.861
10339W        W78557  38.966   0.987   1.444
10340W        W78558  37.794  44.032   4.064
10341W        W78559  26.681  17.610  14.595
10342W        W78560  19.291   5.971  14.406
10343W        W78561  37.893   2.257  14.797
10344W        W78562  31.359  22.683  11.226
10345W        W78563   4.277  17.291   1.478
10346W        W78564  31.060  35.856   1.025
10347W        W78565  13.974  11.583   0.865
10348W        W78566  41.251  33.574   3.556
10349W        W78567   1.174  36.887  13.013
10350W        W78568  34.488  22.588   3.518
10351W        W78569  24.337  38.575   0.853
10352W        W78570  12.241  39.384   4.608
10353W        W78571   2.434   5.464  11.574
10354W        W78572   1.509  37.454  14.381
10355W        W78573  44.082  26.502   4.650
10356W        W78574  15.019  21.246   2.592
10357W        W78575   3.809  40.863  11.799
10358W        W78576  19.722  27.940   1.859
10359W        W78577  38.921  16.296  14.379
10360W        W78578  22.283   1.664   4.167
10361W        W78579  32.552  41.503   0.466
10362W        W78580   2.124   4.134  12.877
10363W        W78581  36.394  19.734  10.762
10364W        W78582   2.296  44.376  10.577
10365W        W78583  39.944  30.969   2.238
10366W        W78584  23.142  21.769  14.384
10367W        W78585  16.082  19.072   2.645
10368W        W78586  33.565  22.261  12.341
10369W        W78587  27.363   8.149  12.937
10370W        W78588  42.749  34.451  12.142
10371W        W78589  28.193  30.963   3.335
10372W        W78590  30.531  23.346  14.569
10373W        W78591  33.693  25.118   2.216
10374W        W78592  19.673   8.700   0.296
10375W        W78593  28.454  18.831   1.282
10376W        W78594  27.477  12.797  14.556
10377W        W78595  23.167  21.680   4.410
10378W        W78596   4.233  36.464  10.876
10379W        W78597   0.347  39.245  14.957
10380W        W78598  27.169   0.870  11.618
10381W        W78599   0.030  14.823   1.273
10382W        W78600  32.818   8.129   4.191
10383W        W78601  44.096  43.235   3.729
10384W        W78602  25.899  19.156   2.569
10385W        W78603  32.403  16.242  10.673
10386W        W78604   5.993  11.128   3.299
10387W        W78605  40.360   0.237   3.327
10388W        W78606  10.702  27.963   0.505
10389W        W78607  44.990  38.359  10.748
10390W        W78608   6.525  33.160   2.004
10391W        W78609  38.968  43.329   4.548
10392W        W78610   8.897  27.179   4.138
10393W        W78611  41.352  33.995   3.211
10394W        W78612  12.863  24.954  11.400
10395W        W78613   3.943  13.828   2.572
10396W        W78614  33.445   8.368  11.639
10397W        W78615  38.355   2.188  13.943
10398W        W78616  16.137   1.766  10.789
10399W        W78617  36.498   5.011   2.678
10400W        W78618  27.521  12.947  10.971
10401W        W78619  35.044  23.251  11.866
10402W        W78620  36.736  28.891  14.862
10403W        W78621  19.721  21.089   2.937
10404W        W78622  12.535  41.996   4.574
10405W        W78623  39.528  14.348  13.252
10406W        W78624  14.625  37.942   4.753
10407W        W78625   7.109  24.146   4.173
10408W        W78626   4.009  22.738   4.929
10409W        W78627  20.732  13.232   0.240
10410W        W78628  31.122  17.799  11.823
10411W        W78629   2.928  15.268  12.012
10412W        W78630  20.995  13.211  11.645
10413W        W78631   8.169  19.926  12.706
10414W        W78632  43.050  36.163   4.673
10415W        W78633  19.618  26.978   4.845
10416W        W78634  44.725  42.251   0.203
10417W        W78635  21.897   8.151   2.832
10418W        W78636  35.861  39.590   1.148
10419W        W78637  21.707  37.835   3.041
10420W        W78638  17.984  32.138   2.811
10421W        W78639  36.232   9.501  11.626
10422W        W78640   2.676  20.162  13.401
10423W        W78641   4.009   8.660   4.410
10424W        W78642  30.911  34.401  12.612
10425W        W78643  12.305  33.894   1.177
10426W        W78644  20.746  38.353  14.286
10427W        W78645  37.501  35.591  12.921
10428W        W78646  20.033  17.918  10.605
10429W        W78647  39.989  12.508   4.135
10430W        W78648  20.973  10.245   0.291
10431W        W78649  31.368  23.098  13.063
10432W        W78650  32.928  17.604  10.683
10433W        W78651  12.633  36.112   4.543
10434W        W78652  26.107   9.211  10.632
10435W        W78653  19.212   2.958  14.440
10436W        W78654   0.762  29.613  13.135
10437W        W78655  29.486  13.603   2.255
10438W        W78656  23.991   5.701   2.785
10439W        W78657  28.500  40.995  14.349
10440W        W78658  35.709  27.441   4.418
10441W        W78659  20.008  11.743  10.391
10442W        W78660  18.782  22.649  12.664
10443W        W78661  13.160   1.456   3.238
10444W        W78662   9.390  38.431  13.025
10445W        W78663  44.491   4.780   3.702
10446W        W78664  43.241  24.473  11.062
10447W        W78665  43.827  28.004   0.620
10448W        W78666  33.822  35.820  12.663
10449W        W78667  35.551  38.308  14.777
10450W        W78668  15.856  32.383   3.210
10451W        W78669  25.986   6.364   2.200
10452W        W78670  26.491  13.801  10.637
10453W        W78671  34.996  31.862   2.229
10454W        W78672  30.504  21.049  13.073
10455W        W78673  42.891   4.709   0.375
10456W        W78674  21.126  44.527   1.382
10457W        W78675  11.014  14.366  11.558
10458W        W78676  11.062  40.598  14.732
10459W        W78677  18.269   1.301  13.163
10460W        W78678  29.420   8.019   4.222
10461W        W78679  18.405  41.219   3.634
10462W        W78680   4.879  26.334   4.610
10463W        W78681  15.577  24.267  11.266
10464W        W78682   0.007  21.032   1.714
10465W        W78683   5.365  10.379  10.613
10466W        W78684  28.902  24.422  14.410
10467W        W78685  33.111  15.754  11.895
10468W        W78686   8.386  39.399  12.715
10469W        W78687  41.600  26.692  13.448
10470W        W78688  30.847  12.775  13.320
10471W        W78689   0.497  17.177   0.811
10472W        W78690  36.527  26.194  13.786
10473W        W78691  17.117  25.042   2.239
10474W        W78692  11.033  15.798   1.844
10475W        W78693   5.350   7.468   4.091
10476W        W78694  18.857  19.610  12.367
10477W        W78695  13.122  10.392  11.070
10478W        W78696  35.298  12.295  14.205
10479W        W78697  27.212  23.105  11.892
10480W        W78698   1.341  35.525  12.076
10481W        W78699  44.023  21.240  10.532
10482W        W78700   5.672  36.551   2.741
10483W        W78701  19.075  34.048   0.019
10484W        W78702  20.745  20.378  13.476
10485W        W78703  40.079  12.298  12.608
10486W        W78704   1.139   6.716  10.098
10487W        W78705  33.740   8.362   4.247
10488W        W78706  35.558   5.728   1.876
10489W        W78707  31.393  27.040   2.634
10490W        W78708  16.859   6.656   0.452
10491W        W78709  19.595  28.121  13.933
10492W        W78710  22.392  20.858   1.473
10493W        W78711  18.668   1.395  13.498
10494W        W78712  30.460  31.301   2.619
10495W        W78713  34.371  34.406   3.275
10496W        W78714   3.459  44.756   2.873
10497W        W78715  26.431   0.549   1.758
10498W        W78716   4.994  44.287   4.625
10499W        W78717   6.324   2.665  10.636
10500W        W78718  10.060  25.272   4.910
10501W        W78719   4.607   9.106  14.308
10502W        W78720  13.360  33.722  13.444
10503W        W78721  39.757  18.754   3.778
10504W        W78722   2.050  16.335   3.642
10505W        W78723   0.456   7.195  10.274
10506W        W78724   8.929   0.387   0.809
10507W        W78725  24.987  22.078  12.997
10508W        W78726  42.463   5.445   3.378
10509W        W78727  10.849  34.049   2.354
10510W        W78728  37.907  29.432   1.692
10511W        W78729  19.196  10.123   2.291
10512W        W78730  24.670  21.521  14.822
10513W        W78731  24.118  26.603  11.636
10514W        W78732  14.067  26.273  13.002
10515W        W78733  44.482  24.128  14.992
10516W        W78734  41.431  41.604   3.683
10517W        W78735  43.757  29.663   2.681
10518W        W78736   5.946  25.152   1.562
10519W        W78737  33.125  44.482  12.955
10520W        W78738   0.385  19.817   1.707
10521W        W78739   5.745   2.651  14.518
10522W        W78740   2.642  11.781  13.926
10523W        W78741  38.992   6.771  13.779
10524W        W78742  44.918  14.275  10.665
10525W        W78743  38.768   8.821  11.960
10526W        W78744   4.397   7.273   3.736
10527W        W78745  30.668   9.166  13.459
10528W        W78746  37.587  16.109  14.789
10529W        W78747  23.868   2.786   1.398
10530W        W78748  38.815  20.974   2.701
10531W        W78749  15.860  11.785   0.457
10532W        W78750  40.527  38.642   0.979
10533W        W78751   9.209  22.715   2.814
10534W        W78752  15.197  28.212   1.209
10535W        W78753  39.428  38.063   4.607
10536W        W78754  33.816   1.859  14.545
10537W        W78755   5.255  22.127   3.712
10538W        W78756   4.234  18.511   1.810
10539W        W78757  37.304  20.122   2.267
10540W        W78758  27.485  15.561  14.225
10541W        W78759  23.234  28.097   3.733
10542W        W78760  21.330   8.878   1.798
10543W        W78761  40.976   1.022  12.881
10544W        W78762   0.477   2.034  11.091
10545W        W78763  14.757  38.760  12.698
10546W        W78764  16.266   6.388  13.302
10547W        W78765   2.026  22.361  11.590
10548W        W78766  30.994  29.210   5.068
10549W        W78767   8.393  26.522  12.399
10550W        W78768  20.479  26.326   3.162
10551W        W78769  11.725  41.843  10.641
10552W        W78770  43.302  28.547  13.165
10553W        W78771  37.590   9.777  11.033
10554W        W78772  25.378  38.833   1.273
10555W        W78773  19.177   3.268  12.511
10556W        W78774  44.529  39.310   1.230
10557W        W78775  23.611  19.545  13.523
10558W        W78776   0.911  32.117   4.124
10559W        W78777  10.403   0.073  11.121
10560W        W78778   1.745  37.668  12.194
10561W        W78779  39.236  12.092   4.567
10562W        W78780  34.517  34.182  12.588
10563W        W78781  32.982  26.170  14.607
10564W        W78782  34.891  25.212  14.442
10565W        W78783  41.362   7.911  12.500
10566W        W78784  32.200  36.027   2.253
10567W        W78785   1.370   8.896  12.125
10568W        W78786  26.107  23.572   1.793
10569W        W78787   6.643  44.957   2.245
10570W        W78788  32.417  33.496  14.443
10571W        W78789   3.634  37.984  13.457
10572W        W78790  13.931  23.707  14.791
10573W        W78791   4.653  38.458  12.509
10574W        W78792  21.420  35.480  13.091
10575W        W78793  26.931  43.842  13.542
10576W        W78794  30.603  19.617   0.710
10577W        W78795   9.875  44.557  12.980
10578W        W78796  35.802  11.087   3.641
10579W        W78797  32.999   1.375   0.422
10580W        W78798  14.294  32.988   1.464
10581W        W78799  40.293   1.585   1.729
10582W        W78800  38.059  26.465   3.789
10583W        W78801  39.270  38.301   1.943
10584W        W78802  19.584   2.004   2.989
10585W        W78803  17.333  44.950   4.479
10586W        W78804   5.808   4.827  13.631
10587W        W78805  34.435  43.495   0.842
10588W        W78806  44.487  15.261   4.889
10589W        W78807  15.532   9.424  13.396
10590W        W78808   3.009  36.391  13.916
10591W        W78809  34.811   7.216  13.280
10592W        W78810  17.632  28.566  11.089
10593W        W78811  20.088  25.143   1.121
10594W        W78812   0.775  11.418   1.053
10595W        W78813  13.206  39.536   3.717
10596W        W78814  25.634  34.054  11.701
10597W        W78815  37.467  32.719   2.786
10598W        W78816  13.593  19.467   2.755
10599W        W78817   8.978   8.237  10.779
10600W        W78818  11.612  19.097  13.977
10601W        W78819  43.036  35.875  10.204
10602W        W78820  33.028  31.070  13.590
10603W        W78821  33.621   4.625   4.237
10604W        W78822  17.201  15.549   1.454
10605W        W78823  22.961  16.479  12.802
10606W        W78824   2.821  29.470  14.755
10607W        W78825  39.469  36.514  12.379
10608W        W78826  31.545   4.505  14.319
10609W        W78827  11.788  34.587  10.360
10610W        W78828  32.453  12.158   1.899
10611W        W78829  33.560  34.104  11.703
10612W        W78830  34.692  42.514   2.127
10613W        W78831  41.470   7.624  13.431
10614W        W78832  12.249  11.099   2.910
10615W        W78833  11.838  11.560   1.779
10616W        W78834  16.286   1.232  13.100
10617W        W78835  44.434  18.584   1.973
10618W        W78836  16.819  37.502   3.353
10619W        W78837   3.725  18.246  13.811
10620W        W78838  37.816  37.525  10.149
10621W        W78839  12.302  36.923   0.878
10622W        W78840  42.498  38.813   0.215
10623W        W78841  31.170   6.763   1.612
10624W        W78842  34.578  33.500  11.479
10625W        W78843  10.001  13.794  11.019
10626W        W78844  13.352  38.381   3.160
10627W        W78845   5.805   2.915  10.688
10628W        W78846  34.890  39.264   2.986
10629W        W78847  13.909   5.714  12.900
10630W        W78848  24.596  21.296  14.347
10631W        W78849   2.345  20.836   2.232
10632W        W78850   9.756  14.695  14.831
10633W        W78851   4.324   3.008   2.339
10634W        W78852  23.265  43.870   2.637
10635W        W78853  13.117  26.211  13.513
10636W        W78854  20.556   4.771  14.348
10637W        W78855  27.265  31.985   4.824
10638W        W78856  15.273  21.660   4.623
10639W        W78857  15.664  10.276  14.913
10640W        W78858  17.830  25.659   3.809
10641W        W78859  28.367  33.768   0.515
10642W        W78860  28.675  37.282   1.342
10643W        W78861  37.572  29.463  11.764
10644W        W78862  11.786   8.329   2.743
10645W        W78863  44.032  19.539   0.506
10646W        W78864   0.021  23.890   3.139
10647W        W78865  15.488   6.688  14.373
10648W        W78866  37.562   1.183   0.825
10649W        W78867  44.012  25.303   3.924
10650W        W78868  19.196  17.397   2.293
10651W        W78869  30.022  39.027   1.150
10652W        W78870  23.243  33.143   0.627
10653W        W78871   9.629  38.077  12.275
10654W        W78872  14.110  13.768  14.607
10655W        W78873  31.094   2.431  12.804
10656W        W78874   3.986  17.669   0.571
10657W        W78875  31.067   0.388   3.542
10658W        W78876  33.900  17.671   2.816
10659W        W78877   6.687   3.157   3.720
10660W        W78878   4.169   2.215  13.127
10661W        W78879   3.699  44.387   9.789
10662W        W78880  41.190   7.951  14.369
10663W        W78881   4.257  24.385  10.723
10664W        W78882  31.542   2.637  13.828
10665W        W78883  38.824  32.894  13.261
10666W        W78884  24.217  20.947  14.381
10667W        W78885  40.081  28.529   3.447
10668W        W78886  43.856  35.124   4.260
10669W        W78887  19.361  15.860  13.339
10670W        W78888  23.686  15.758   1.470
10671W        W78889  15.167  32.985   0.961
10672W        W78890   9.634  15.286  13.914
10673W        W78891  36.929  37.084  14.399
10674W        W78892  16.402  30.655   3.178
10675W        W78893  20.638  33.436   4.046
10676W        W78894  27.490  29.903  13.964
10677W        W78895  29.420  17.555  11.522
10678W        W78896  36.085  22.179   1.391
10679W        W78897  19.033  11.887   0.955
10680W        W78898  43.193  43.419  13.875
10681W        W78899  17.744  36.855  11.196
10682W        W78900   1.421  41.400  12.321
10683W        W78901   9.308  12.593   4.510
10684W        W78902   9.767  38.089  14.916
10685W        W78903  30.539  32.192   1.745
10686W        W78904  35.464  10.168  11.180
10687W        W78905   6.823   5.625  11.193
10688W        W78906  26.064  42.004  13.439
10689W        W78907   8.902  17.671  12.524
10690W        W78908   3.217  24.840   1.164
10691W        W78909   0.894  24.467   2.334
10692W        W78910  15.269  26.596  10.545
10693W        W78911  20.891  37.315  11.112
10694W        W78912  41.643   5.798  11.277
10695W        W78913   8.331  11.410  11.575
10696W        W78914  23.216  11.272   4.198
10697W        W78915  33.433  17.043   2.745
10698W        W78916  36.787   1.964   3.175
10699W        W78917   8.708  30.183  14.419
10700W        W78918   3.933  26.924   2.054
10701W        W78919  14.609  15.250   0.555
10702W        W78920  38.302   7.931  12.011
10703W        W78921  33.440  35.307   3.753
10704W        W78922   3.697  43.032  13.869
10705W        W78923  38.398  33.651   4.230
10706W        W78924  38.265  21.747   4.538
10707W        W78925  29.995  37.493   1.720
10708W        W78926   9.837  11.389  11.470
10709W        W78927  31.093  39.327  11.946
10710W        W78928  13.281  31.821  12.140
10711W        W78929   2.729   5.245   0.347
10712W        W78930  28.475  27.743   4.673
10713W        W78931   0.410  12.553  10.659
10714W        W78932  10.669  38.773   0.952
10715W        W78933  39.513  27.031   1.798
10716W        W78934  11.694  29.516  12.172
10717W        W78935  23.678  40.963  10.626
10718W        W78936  13.561  16.081  10.901
10719W        W78937  14.082  12.071   4.506
10720W        W78938  25.047  25.171  14.501
10721W        W78939  44.408  27.086   2.314
10722W        W78940  12.849   4.643  14.420
10723W        W78941   0.332  16.080  13.506
10724W        W78942   0.006  39.042   2.471
10725W        W78943  42.552   4.976  12.773
10726W        W78944  26.565  39.052  12.934
10727W        W78945  31.062  20.193  12.122
10728W        W78946  34.438  21.338  13.927
10729W        W78947  32.123  21.206   3.675
10730W        W78948  34.576  14.529  14.792
10731W        W78949   9.360   6.306   0.009
10732W        W78950   8.864  38.611  12.084
10733W        W78951  39.072   3.782   0.497
10734W        W78952  15.464  42.435   5.149
10735W        W78953   2.279  25.193   2.413
10736W        W78954   2.763  24.950   2.575
10737W        W78955  18.029  14.044  11.631
10738W        W78956  28.328  20.477   0.014
10739W        W78957  15.152  34.923  11.898
10740W        W78958  16.577  14.860  10.216
10741W        W78959   0.360   1.249   4.746
10742W        W78960  37.166  12.217  12.946
10743W        W78961  34.165   1.397  13.979
10744W        W78962  44.091  21.100  12.513
10745W        W78963  37.966  38.438  12.761
10746W        W78964   6.894  11.700  10.767
10747W        W78965  40.125   1.544  13.888
10748W        W78966  12.696  19.337  12.877
10749W        W78967  16.512   7.562  11.553
10750W        W78968   7.880  14.078   3.561
10751W        W78969  28.393  39.900   0.937
10752W        W78970  44.824  35.475   1.232
10753W        W78971   4.278  39.913   3.107
10754W        W78972  29.690   0.369   4.360
10755W        W78973  11.324  14.135   1.284
10756W        W78974  16.016  44.054  13.082
10757W        W78975  12.846  34.165   3.696
10758W        W78976  12.188  20.072   1.658
10759W        W78977   7.227  11.159  11.161
10760W        W78978  36.497  44.318   2.789
10761W        W78979  38.061  37.892  14.024
10762W        W78980   4.962  38.439  12.095
10763W        W78981  16.562   4.811   3.609
10764W        W78982  14.974  30.530  13.097
10765W        W78983   6.267   1.722   4.086
10766W        W78984  16.311  25.649  10.738
10767W        W78985  41.750  35.162   1.153
10768W        W78986   4.735  24.525   2.790
10769W        W78987   5.307  16.814   5.451
10770W        W78988  16.921   0.678  10.384
10771W        W78989  24.152  19.599   3.209
10772W        W78990  23.574  33.211  13.516
10773W        W78991  28.500  24.760  11.129
10774W        W78992   0.190  30.240  13.012
10775W        W78993  17.969  18.537  13.665
10776W        W78994  42.144   4.203   1.946
10777W        W78995   8.455  20.011   3.476
10778W        W78996  34.352  22.064   0.438
10779W        W78997  35.979  32.121   4.383
10780W        W78998  15.316  15.746  14.933
10781W        W78999  39.926  18.174   2.900
10782W        W79000  23.024  34.469  13.805
10783W        W79001  38.444   5.211   3.118
10784W        W79002  40.251   9.412   3.764
10785W        W79003  32.935  12.809   0.919
10786W        W79004  27.577  24.711  13.022
10787W        W79005  36.564   8.061   1.806
10788W        W79006  43.468  25.429   4.775
10789W        W79007  35.128   3.910   1.689
10790W        W79008  19.305  24.984   0.518
10791W        W79009  22.913  38.146   4.222
10792W        W79010  33.132  18.158   1.310
10793W        W79011  28.208  33.193  14.475
10794W        W79012  23.704  27.654  10.860
10795W        W79013  30.595  24.475   0.520
10796W        W79014  14.815   1.252   3.645
10797W        W79015  35.489   6.442   4.570
10798W        W79016  24.704  19.161   1.840
10799W        W79017  25.669  39.057  10.664
10800W        W79018  44.471  26.262   4.417
10801W        W79019  42.973  38.865   4.181
10802W        W79020  14.214  12.839  12.043
10803W        W79021  27.621  36.445   2.867
10804W        W79022  34.366  17.604  12.363
10805W        W79023  28.164  31.457  13.980
10806W        W79024  42.042  15.283  11.065
10807W        W79025   3.727  17.041   3.718
10808W        W79026  32.941  37.652  13.983
10809W        W79027   0.785  25.532  11.659
10810W        W79028  28.857  37.066  14.847
10811W        W79029  27.568  33.418  13.983
10812W        W79030   2.023  31.550   4.041
10813W        W79031   3.875  12.623  10.757
10814W        W79032  38.290   8.855  12.189
10815W        W79033   8.667  28.592   2.826
10816W        W79034   5.960   3.228   2.375
10817W        W79035  19.987  27.094  12.801
10818W        W79036   9.699  24.690  14.503
10819W        W79037  41.965  30.173  13.674
10820W        W79038  35.177   1.514  12.972
10821W        W79039   5.817  13.303  11.497
10822W        W79040  36.640  44.048   1.241
10823W        W79041  41.621  36.257  12.897
10824W        W79042  11.996  26.453   5.158
10825W        W79043  22.016  14.838   4.614
10826W        W79044  23.791  44.011  13.009
10827W        W79045  34.448  25.057  10.975
10828W        W79046  41.848  34.382   2.790
10829W        W79047  21.781  35.030   1.072
10830W        W79048  14.810   4.707   3.873
10831W        W79049  29.454  20.502  14.832
10832W        W79050  22.944   2.966   3.179
10833W        W79051  44.393  18.200  12.535
10834W        W79052  20.278  15.665   2.701
10835W        W79053  16.137  27.135   4.787
10836W        W79054  28.571  28.498  10.931
10837W        W79055  22.564   9.512  12.170
10838W        W79056  15.865  29.655   3.184
10839W        W79057  34.468  23.575   1.954
10840W        W79058  26.849  43.904  14.969
10841W        W79059  38.577  10.690  12.486
10842W        W79060  38.755  33.889  11.648
10843W        W79061   3.090  40.980   3.770
10844W        W79062  17.540  26.122  10.657
10845W        W79063  39.946  15.757   0.718
10846W        W79064  43.418  28.135   2.414
10847W        W79065  17.694   2.393  13.027
10848W        W79066  43.386  16.627  14.330
10849W        W79067   5.768  10.356   2.811
10850W        W79068  32.441   0.225   3.669
10851W        W79069  32.023  18.174   1.729
10852W        W79070  31.201  36.079  13.902
10853W        W79071  17.274  16.582   3.023
10854W        W79072  19.166  37.498  14.331
10855W        W79073  27.209  35.427  14.503
10856W        W79074  23.052  26.009  12.992
10857W        W79075  40.313   7.243  14.219
10858W        W79076  29.786   1.538  13.624
10859W        W79077   6.233  13.137  12.880
10860W        W79078  29.384  22.406   1.231
10861W        W79079  29.335  36.155   4.252
10862W        W79080  17.106  25.086  10.792
10863W        W79081   9.243  29.257   3.433
10864W        W79082   9.722  37.840   2.736
10865W        W79083  41.397   3.205  14.697
10866W        W79084  35.961   1.260   4.990
10867W        W79085  24.210   7.429  11.143
10868W        W79086  42.411  21.691   3.639
10869W        W79087  43.663  39.387  14.373
10870W        W79088  40.648  14.623   1.870
10871W        W79089  16.239  16.802  13.511
10872W        W79090  30.493  25.277  13.814
10873W        W79091  35.028   2.708  12.345
10874W        W79092  33.696  39.305   4.226
10875W        W79093  39.768  37.515  14.394
10876W        W79094  28.779  37.037  11.415
10877W        W79095   1.454  31.031  13.428
10878W        W79096   8.239  32.820  14.899
10879W        W79097  20.820  14.018   5.053
10880W        W79098  38.075  31.904   1.831
10881W        W79099   0.976  39.518  13.984
10882W        W79100  21.106  18.179  13.007
10883W        W79101  24.202  20.991  11.511
10884W        W79102   0.867  19.626  13.696
10885W        W79103   7.718  42.349   1.791
10886W        W79104  37.901  37.155  13.477
10887W        W79105   9.834  27.660  12.463
10888W        W79106  32.043  22.723   1.212
10889W        W79107  31.277  28.158   1.330
10890W        W79108  39.067   5.134  14.897
10891W        W79109  32.555  38.075  12.171
10892W        W79110  14.072   7.222  11.589
10893W        W79111  41.838  37.575  14.856
10894W        W79112  31.548  11.856  12.893
10895W        W79113   4.314  20.640  12.721
10896W        W79114   0.339  15.748   3.585
10897W        W79115   0.708   2.946  12.129
10898W        W79116  32.929  24.742  14.731
10899W        W79117  20.498  21.237  13.456
10900W        W79118   7.319  16.162   2.423
10901W        W79119  25.998  13.491  12.142
10902W        W79120   8.975  15.646   0.381
10903W        W79121  26.448  32.911  11.452
10904W        W79122   2.304  23.573   0.312
10905W        W79123   9.786   4.452   4.606
10906W        W79124  44.150  32.533  14.041
10907W        W79125  15.724  27.090  13.362
10908W        W79126  16.219  29.356  12.289
10909W        W79127  11.145  15.330  13.788
10910W        W79128  16.926   1.961  10.169
10911W        W79129  12.985  36.171   0.753
10912W        W79130  15.728   1.496  13.898
10913W        W79131  21.967   8.844  10.634
10914W        W79132  26.593  26.586  12.161
10915W        W79133  38.285  41.780   0.826
10916W        W79134   9.385  18.072  11.412
10917W        W79135  43.467  43.960   4.172
10918W        W79136   4.343  15.865  12.980
10919W        W79137   1.263  10.629   2.828
10920W        W79138  18.942  10.228   1.844
10921W        W79139   9.652  28.350   3.594
10922W        W79140  31.274  43.220   1.227
10923W        W79141  38.401  23.101   2.753
10924W        W79142  14.625  32.440  14.914
10925W        W79143  18.501  43.022  10.164
10926W        W79144  13.764  14.042  12.037
10927W        W79145   7.938  44.747   3.345
10928W        W79146   4.832  25.319   1.031
10929W        W79147  21.790  32.003  12.102
10930W        W79148  16.711  19.150   4.633
10931W        W79149  37.225  16.330   2.654
10932W        W79150  28.677  31.633  14.982
10933W        W79151   0.165  14.546  13.436
10934W        W79152  38.955  35.702  13.036
10935W        W79153  15.690  23.718   1.755
10936W        W79154  39.594  31.376   0.255
10937W        W79155  28.104  18.528  10.300
10938W        W79156  14.656  31.138   3.930
10939W        W79157  19.410   1.962  14.376
10940W        W79158  12.864  16.056  10.395
10941W        W79159  13.077   0.140   2.312
10942W        W79160  25.716   8.284  13.792
10943W        W79161  13.293   5.185   1.183
10944W        W79162  37.914  38.013  11.591
10945W        W79163  29.306  38.028  12.013
10946W        W79164  30.409  31.025  13.417
10947W        W79165  26.132  32.115  11.502
10948W        W79166   4.966   3.432   0.728
10949W        W79167  25.995  18.704   3.799
10950W        W79168  44.821  20.562  11.460
10951W        W79169  10.201  37.577  13.472
10952W        W79170  26.997  10.376  11.126
10953W        W79171  35.156  20.412   4.424
10954W        W79172  15.273  34.664  13.919
10955W        W79173  25.742  41.804  14.465
10956W        W79174  28.383  17.405   4.185
10957W        W79175  29.578  27.955   2.151
10958W        W79176  12.124   3.274   3.113
10959W        W79177   7.979   8.289   0.956
10960W        W79178  24.204  43.838  12.014
10961W        W79179  38.441  24.517   4.590
10962W        W79180   8.253  18.749  11.466
10963W        W79181   5.692   4.744   9.824
10964W        W79182  41.875  13.579   3.734
10965W        W79183  31.569  13.933   0.713
10966W        W79184  14.062  23.602   3.386
10967W        W79185  25.663  31.990   1.776
10968W        W79186  17.575  43.812  13.954
10969W        W79187  42.782  20.168   3.334
10970W        W79188  17.689  18.676  11.987
10971W        W79189  35.000   3.383   4.662
10972W        W79190  40.461   1.078   2.634
10973W        W79191  33.070  40.803  11.366
10974W        W79192  16.774   8.278  14.002
10975W        W79193   9.151  43.361   0.848
10976W        W79194  41.666   7.468   0.754
10977W        W79195  22.767  22.725  11.593
10978W        W79196  42.792  20.614  10.370
10979W        W79197  37.064  13.144   3.644
10980W        W79198  38.883   8.656   1.822
10981W        W79199  30.549  37.312   3.890
10982W        W79200  41.276  36.949   4.151
10983W        W79201  25.688  34.881   0.259
10984W        W79202  37.458   1.405   5.068
10985W        W79203   3.271  43.905   2.309
10986W        W79204  19.131   4.901  11.385
10987W        W79205  15.714  42.440   0.365
10988W        W79206   2.675  44.847   4.934
10989W        W79207  18.494   2.712   2.141
10990W        W79208  37.419  20.305  10.657
10991W        W79209  22.666  37.859   2.618
10992W        W79210   1.681  37.074   3.212
10993W        W79211  19.148   5.976  14.949
10994W        W79212  35.243  28.959   5.004
10995W        W79213   0.906   3.273  10.872
10996W        W79214   1.760  13.756   4.305
10997W        W79215  23.881   6.809  10.674
10998W        W79216  24.423  15.240   0.459
10999W        W79217  31.543  36.835   0.426
11000W        W79218  40.190  24.009   4.222
11001W        W79219  37.254  44.404  11.077
11002W        W79220  21.473  21.701   1.477
11003W        W79221  38.881  43.594  11.936
11004W        W79222   3.044   6.673  12.763
11005W        W79223  26.467   0.397  11.416
11006W        W79224  37.057   0.568  13.975
11007W        W79225  19.037  13.813  11.609
11008W        W79226  16.296  44.409  12.687
11009W        W79227   4.642  44.816   1.413
11010W        W79228  33.835  29.609   0.865
11011W        W79229  28.480   5.253  11.536
11012W        W79230  25.994   4.378  11.626
11013W        W79231  21.606  13.890   3.673
11014W        W79232  30.354  36.474   3.226
11015W        W79233  44.770   9.132   2.435
11016W        W79234  33.034   2.827  11.432
11017W        W79235  28.376  38.922   4.581
11018W        W79236  22.759  17.796   1.472
11019W        W79237  43.608  28.426   0.816
11020W        W79238  34.616   1.929  12.129
11021W        W79239   7.798  44.514   3.786
11022W        W79240  20.069  23.763   3.748
11023W        W79241  40.994  41.722   0.297
11024W        W79242   2.297  35.571  14.704
11025W        W79243  22.465   4.715   2.216
11026W        W79244  44.788  38.012  12.052
11027W        W79245   7.598   1.035   3.709
11028W        W79246  21.964  29.342   2.235
11029W        W79247   7.560   9.164   1.840
11030W        W79248   3.840   3.793   4.613
11031W        W79249  22.938  29.881   1.507
11032W        W79250  27.728  10.272   5.079
11033W        W79251  17.662  22.244  13.027
11034W        W79252  40.938  36.489  13.863
11035W        W79253  23.237  36.871  12.917
11036W        W79254  22.354  34.971  13.033
11037W        W79255  39.591  16.086  14.014
11038W        W79256  39.378   0.685   1.245
11039W        W79257  26.311  11.239  11.181
11040W        W79258  30.457  43.071  12.413
11041W        W79259  22.793  38.910  11.956
11042W        W79260   1.442  14.364  12.961
11043W        W79261  17.406  44.420   4.625
11044W        W79262  10.529  19.316  13.870
11045W        W79263  12.711  26.472  13.312
11046W        W79264  28.315  42.738   2.764
11047W        W79265   8.299  18.502   2.760
11048W        W79266  19.168  11.665  13.158
11049W        W79267  22.977  37.824   3.825
11050W        W79268  27.873   4.218  14.052
11051W        W79269  38.182  41.943  13.966
11052W        W79270  16.127  24.532  14.026
11053W        W79271  33.658  27.202  12.817
11054W        W79272  18.708  36.596   3.595
11055W        W79273  32.337  20.501  12.351
11056W        W79274  15.923  23.672   3.172
11057W        W79275  25.170  17.648   1.256
11058W        W79276  32.920   2.298  11.503
11059W        W79277  36.867   4.912   0.889
11060W        W79278   3.054  34.007   4.234
11061W        W79279  28.007  23.954  10.740
11062W        W79280  29.726  36.530   1.941
11063W        W79281  29.019  33.520  11.097
11064W        W79282  14.167   4.826   3.182
11065W        W79283  44.868  33.522  10.646
11066W        W79284   4.898  14.185  13.517
11067W        W79285  21.635  19.360  12.062
11068W        W79286   5.748   7.666  10.470
11069W        W79287  28.947  27.112   0.869
11070W        W79288  30.864  12.310  12.933
11071W        W79289  44.099  28.455  11.631
11072W        W79290  29.628  36.207  14.266
11073W        W79291   1.432  11.798  12.479
11074W        W79292  20.232   6.001  12.951
11075W        W79293  27.525  17.665   2.201
11076W        W79294  22.428  25.446  12.561
11077W        W79295  43.653  37.107   4.838
11078W        W79296   3.929  29.164  13.286
11079W        W79297  15.177  16.603   3.929
11080W        W79298   9.877  17.206   4.351
11081W        W79299   3.545  14.652   4.556
11082W        W79300  27.952  27.096   0.760
11083W        W79301  29.648  39.749  12.986
11084W        W79302   4.206  26.675   4.177
11085W        W79303  30.793  36.378   1.950
11086W        W79304  40.913   3.928  12.411
11087W        W79305   1.869  33.490   2.458
11088W        W79306  24.632  20.496  14.790
11089W        W79307   7.980  44.401  11.704
11090W        W79308  31.670  30.585   2.634
11091W        W79309  18.967  31.010  10.571
11092W        W79310  13.080   6.676   2.134
11093W        W79311   0.857  27.081  14.872
11094W        W79312  41.750  23.528  13.905
11095W        W79313  44.004  11.684  14.940
11096W        W79314  43.895  32.446   3.333
11097W        W79315   3.419  44.316   4.377
11098W        W79316  14.660  37.052   4.638
11099W        W79317  20.753  14.149  12.474
11100W        W79318  32.874  22.630  11.479
11101W        W79319  30.417  33.998   0.859
11102W        W79320  20.721  28.034   1.693
11103W        W79321  43.771  22.029   1.691
11104W        W79322  35.124  14.166   4.683
11105W        W79323  27.193   1.392   1.012
11106W        W79324  27.152  38.649  14.993
11107W        W79325  36.299  41.523  12.017
11108W        W79326  14.778  22.410  11.538
11109W        W79327  20.545  39.064  12.458
11110W        W79328  27.170  27.111  11.595
11111W        W79329   5.696  40.554   0.238
11112W        W79330  38.657   7.287   4.702
11113W        W79331   9.389  26.784   0.260
11114W        W79332  18.997   6.641  12.408
11115W        W79333  31.070   6.636  13.869
11116W        W79334  19.579  30.583   1.246
11117W        W79335   3.857  41.288   0.879
11118W        W79336  22.344  26.009   3.134
11119W        W79337  31.366  19.716   1.173
11120W        W79338   6.321  32.740   1.788
11121W        W79339   9.677  10.307  14.861
11122W        W79340  26.403  20.140   3.258
11123W        W79341  13.727  44.451   2.416
11124W        W79342  16.887  13.250  11.774
11125W        W79343  43.867   5.244   2.477
11126W        W79344  17.722  10.463  11.127
11127W        W79345   1.403  20.957  10.898
11128W        W79346  17.243  24.506  13.505
11129W        W79347  17.340  38.931   0.473
11130W        W79348   1.901  13.115  10.688
11131W        W79349  14.569  36.288  11.917
11132W        W79350   5.429   3.433   0.031
11133W        W79351  30.599  10.888  13.321
11134W        W79352  33.804  33.991   0.943
11135W        W79353  39.552  10.510   1.927
11136W        W79354  32.038  12.554   0.300
11137W        W79355  31.590   5.649   5.475
11138W        W79356  17.866   8.801   2.230
11139W        W79357  26.897  28.780   3.708
11140W        W79358  37.412  18.089  14.462
11141W        W79359  44.520  36.133  11.168
11142W        W79360  13.462  40.420  12.468
11143W        W79361  43.223  25.973  10.715
11144W        W79362  39.954  24.577   4.471
11145W        W79363   9.073  44.239  10.724
11146W        W79364   7.945   4.640   2.205
11147W        W79365  26.457  36.610  14.509
11148W        W79366  19.064  40.134   0.299
11149W        W79367  34.871  20.568  12.456
11150W        W79368  26.243  24.172  13.863
11151W        W79369  42.898  33.041  14.712
11152W        W79370  16.825   0.762  13.703
11153W        W79371  31.951  34.724   2.145
11154W        W79372  26.251  20.005  12.120
11155W        W79373  40.590   0.830  13.682
11156W        W79374   7.886  42.316  10.295
11157W        W79375  30.076   9.465   4.709
11158W        W79376  12.717  43.811  13.455
11159W        W79377  37.816  11.394   0.322
11160W        W79378  26.142  32.394   3.864
11161W        W79379  39.065  27.674  10.285
11162W        W79380  16.288  39.187   3.243
11163W        W79381  36.020  12.729  12.083
11164W        W79382  41.270  30.074  11.011
11165W        W79383  44.838  13.025  11.225
11166W        W79384  29.387  25.959   0.883
11167W        W79385   2.415  32.429  14.891
11168W        W79386  39.883  23.936  14.470
11169W        W79387  13.145  17.619   0.598
11170W        W79388  44.344  18.587  11.178
11171W        W79389  14.651   4.740   4.891
11172W        W79390  42.402  24.603  11.488
11173W        W79391   8.895   1.871  14.583
11174W        W79392  35.910  40.528   2.655
11175W        W79393  10.994  10.838   0.784
11176W        W79394  17.065  26.464  10.103
11177W        W79395  40.760  12.648   2.838
11178W        W79396  11.091   3.679  12.449
11179W        W79397  35.563  11.270  10.927
11180W        W79398  33.552  10.282  12.040
11181W        W79399  42.083  16.377  13.114
11182W        W79400  11.638   7.673   1.512
11183W        W79401   6.784  22.995   1.354
11184W        W79402  19.053   5.477  14.859
11185W        W79403  27.101  33.086  12.922
11186W        W79404  17.927   8.285  12.157
11187W        W79405  15.049  15.611  11.759
11188W        W79406  30.193  12.701   2.643
11189W        W79407  24.738  12.590  11.520
11190W        W79408  43.982  30.615   2.713
11191W        W79409  36.355  18.742   2.257
11192W        W79410  13.031   7.414  11.764
11193W        W79411  28.696  35.669   0.819
11194W        W79412  37.455  10.931   2.731
11195W        W79413  29.893  42.909   0.236
11196W        W79414   1.719  20.131  14.767
11197W        W79415  28.184  35.291   4.885
11198W        W79416  13.254   2.655   3.961
11199W        W79417  35.392  17.344  14.999
11200W        W79418  16.094  44.053  14.078
11201W        W79419  13.767  27.934  13.497
11202W        W79420  21.648  15.114   4.322
11203W        W79421  41.106  13.799  11.663
11204W        W79422   4.372  14.099   2.805
11205W        W79423  42.851  15.137   0.183
11206W        W79424  21.988  29.384  10.726
11207W        W79425   3.991  36.592  13.860
11208W        W79426  41.465  42.235  14.887
11209W        W79427  20.499  35.417  14.372
11210W        W79428  43.259  20.686  11.140
11211W        W79429  41.033   2.872   4.490
11212W        W79430  33.347  17.162   1.769
11213W        W79431  14.666  29.223  13.382
11214W        W79432  23.255  11.246  14.780
11215W        W79433  42.035   1.639  14.374
11216W        W79434   8.494  12.659  11.202
11217W        W79435   3.786  34.545  14.131
11218W        W79436  44.806  26.375   3.500
11219W        W79437  16.700  15.674  10.585
11220W        W79438   5.913  23.752   1.840
11221W        W79439  36.604  37.880   4.419
11222W        W79440  19.449  42.266  12.059
11223W        W79441  28.500   1.393   4.587
11224W        W79442   4.741   1.567   0.780
11225W        W79443  11.244  39.921  13.623
11226W        W79444  20.653  36.139  10.708
11227W        W79445  17.198  18.524  12.071
11228W        W79446  12.259  29.705  14.398
11229W        W79447  15.399  23.522  14.899
11230W        W79448  11.305  17.623  11.301
11231W        W79449  38.256  29.204  11.739
11232W        W79450   1.002  23.984   2.110
11233W        W79451  16.835  44.822   3.414
11234W        W79452   1.492  34.854  12.624
11235W        W79453  10.137  44.788  14.528
11236W        W79454  33.580  36.932  11.548
11237W        W79455  31.455  20.170   0.881
11238W        W79456   8.335   6.363  12.124
11239W        W79457  32.616   2.727  13.348
11240W        W79458  26.309  44.404   4.784
11241W        W79459  32.551  16.754  10.497
11242W        W79460   4.110   5.872   1.065
11243W        W79461  29.065  35.605  12.013
11244W        W79462  24.557   3.915   4.501
11245W        W79463  29.615   2.835   0.632
11246W        W79464  36.794  35.965   4.246
11247W        W79465  44.043  19.982   0.248
11248W        W79466   4.842  39.834  12.943
11249W        W79467  41.068  44.955  13.581
11250W        W79468  21.624  19.153   2.402
11251W        W79469  31.725  29.510  13.398
11252W        W79470  38.744   2.226  12.159
11253W        W79471   7.640  21.730  13.877
11254W        W79472  44.113   0.278  13.029
11255W        W79473  19.976   9.165   0.333
11256W        W79474  43.363   4.298  14.695
11257W        W79475  13.489  14.658   0.801
11258W        W79476  27.983  17.067  14.527
11259W        W79477  39.194   4.439  10.283
11260W        W79478  25.726  21.707  13.245
11261W        W79479  10.201  32.680  10.609
11262W        W79480  35.855   3.877  10.090
11263W        W79481  36.570  18.392  14.257
11264W        W79482  41.496  28.400  14.948
11265W        W79483   1.886  36.631  11.223
11266W        W79484  17.644  16.582   1.287
11267W        W79485  25.216  36.436  12.122
11268W        W79486  37.617  28.162   3.389
11269W        W79487  42.433   7.671   0.943
11270W        W79488  35.735   2.440  10.635
11271W        W79489   0.856   6.432   1.981
11272W        W79490  15.019  15.675  11.247
11273W        W79491  22.311   9.676  14.200
11274W        W79492  36.807  31.611   0.531
11275W        W79493  39.325   7.189   2.763
11276W        W79494  27.013  17.831  13.295
11277W        W79495  37.348  12.839  14.344
11278W        W79496  31.850  22.826   0.337
11279W        W79497   4.802  28.444   3.198
11280W        W79498  20.215  34.496  13.366
11281W        W79499   2.808   2.483  14.862
11282W        W79500   9.118  16.653   3.972
11283W        W79501  39.847  30.994  12.474
11284W        W79502  36.402  32.373   4.737
11285W        W79503  11.143  43.492   1.825
11286W        W79504  26.567  42.400   3.393
11287W        W79505  17.978  36.391  14.840
11288W        W79506  30.647   8.602  11.595
11289W        W79507  10.158   3.807   0.038
11290W        W79508  38.482  37.318  11.414
11291W        W79509  28.957   7.346   4.890
11292W        W79510  19.011  27.088  10.770
11293W        W79511  37.325   1.063  12.789
11294W        W79512  37.657  17.088   3.710
11295W        W79513  11.706  13.184  13.078
11296W        W79514  16.512   5.414   3.571
11297W        W79515   2.878  37.382   1.822
11298W        W79516  28.996  34.934   1.939
11299W        W79517  34.044  44.734   2.938
11300W        W79518  42.929  44.957   2.680
11301W        W79519  21.701  28.833   2.706
11302W        W79520  30.880  18.590   4.026
11303W        W79521   7.432  38.626  11.476
11304W        W79522   6.204  27.210  11.074
11305W        W79523  43.482  12.711  13.405
11306W        W79524   6.198  35.109  14.885
11307W        W79525  13.449  43.383  10.182
11308W        W79526  11.727  19.021  11.709
11309W        W79527  19.988  14.195   3.613
11310W        W79528  23.150  41.301  10.672
11311W        W79529   1.450  27.947  11.081
11312W        W79530  15.833  33.459   4.336
11313W        W79531  25.736  17.665   4.166
11314W        W79532  35.516  43.957   3.631
11315W        W79533   7.406  12.064   4.078
11316W        W79534   3.499  21.758  13.382
11317W        W79535  36.139  10.329  12.164
11318W        W79536  15.679  18.011   1.891
11319W        W79537  39.860   9.968  12.588
11320W        W79538   8.707  37.857   1.943
11321W        W79539  12.763  25.873   4.146
11322W        W79540  26.707  30.338   0.411
11323W        W79541   8.893  31.422  13.932
11324W        W79542  44.149  10.842  12.507
11325W        W79543  21.220  14.230  11.599
11326W        W79544  16.036  34.927   4.657
11327W        W79545  17.839   5.357   4.574
11328W        W79546  27.956   4.579   3.224
11329W        W79547  40.796  14.050  14.310
11330W        W79548  14.544  33.186   0.310
11331W        W79549  24.519   1.586   2.679
11332W        W79550   2.449  40.552   2.890
11333W        W79551  28.704  10.964   0.824
11334W        W79552  38.631   3.757   4.963
11335W        W79553  33.452  30.197  10.688
11336W        W79554   9.177  34.577   1.469
11337W        W79555  30.841  15.719  10.205
11338W        W79556  25.117  14.651   4.336
11339W        W79557  25.963   0.485  11.432
11340W        W79558  32.987  27.633   3.260
11341W        W79559  12.610   4.152   0.787
11342W        W79560  12.893  37.910  14.612
11343W        W79561  18.254  37.066  14.850
11344W        W79562  30.911   3.251  14.401
11345W        W79563  42.307  10.777  12.909
11346W        W79564  28.050  11.391   1.415
11347W        W79565   8.490   6.131  14.546
11348W        W79566  19.998  23.447  14.817
11349W        W79567   2.986   4.715  11.534
11350W        W79568  35.793  28.177   3.124
11351W        W79569  13.828  24.908  11.624
11352W        W79570   0.858  20.798  11.601
11353W        W79571  30.518  20.763   1.616
11354W        W79572  44.720  23.222  12.529
11355W        W79573   3.242  43.277  11.609
11356W        W79574  25.583  42.790  13.418
11357W        W79575   3.196  20.685  12.894
11358W        W79576  42.552  22.211  10.720
11359W        W79577  15.082  32.810  11.064
11360W        W79578  30.094  42.068  11.951
11361W        W79579  28.868  28.436   1.349
11362W        W79580  41.039  28.124   4.158
11363W        W79581  14.362  41.443   0.842
11364W        W79582  24.955  44.759  13.390
11365W        W79583  37.850  12.821  14.075
11366W        W79584  22.561  17.113   0.206
11367W        W79585  16.502  15.377  10.173
11368W        W79586  23.754  39.027  11.866
11369W        W79587  16.150  32.461  14.741
11370W        W79588  20.778   6.791   2.815
11371W        W79589  20.804  42.632   4.275
11372W        W79590   3.136  12.357  14.054
11373W        W79591  21.291  16.536   0.397
11374W        W79592  44.332   7.484   2.715
11375W        W79593  43.003  35.180   0.756
11376W        W79594   8.327  38.113   1.281
11377W        W79595  20.863  20.963   4.981
11378W        W79596  31.915  29.295   1.585
11379W        W79597  30.671  33.498   2.016
11380W        W79598  16.319   8.933  13.419
11381W        W79599  24.813  34.398   3.294
11382W        W79600  10.733  35.395  11.995
11383W        W79601  24.716  30.617  12.313
11384W        W79602  37.341   1.241   4.198
11385W        W79603  41.334  18.818  13.848
11386W        W79604  29.030  30.914  11.909
11387W        W79605  16.244  12.088  11.539
11388W        W79606   0.349   5.168   4.612
11389W        W79607  40.702  38.384   4.170
11390W        W79608  19.229  10.546   1.262
11391W        W79609  40.343  35.809   2.943
11392W        W79610  32.322  30.902   2.177
11393W        W79611   8.260   4.365  11.281
11394W        W79612   1.648  24.530  11.117
11395W        W79613   6.284   2.967  11.922
11396W        W79614  24.529  10.787   3.184
11397W        W79615   5.140  14.230  10.752
11398W        W79616  38.900   2.225   0.098
11399W        W79617   7.443  36.071   0.085
11400W        W79618  11.261   3.271  13.574
11401W        W79619  33.127  21.173   4.516
11402W        W79620  34.651  36.743  14.590
11403W        W79621  41.879   0.266   3.589
11404W        W79622  38.008  18.031   2.115
11405W        W79623  42.767  26.462   2.280
11406W        W79624  34.331   5.254  13.843
11407W        W79625  40.832   1.086  11.518
11408W        W79626  28.133  17.025   4.757
11409W        W79627   4.222  37.380  11.981
11410W        W79628  15.389  22.376  13.965
11411W        W79629  36.405  20.240   4.936
11412W        W79630  42.313  18.093  13.656
11413W        W79631  18.591  37.951   4.118
11414W        W79632  11.647  18.610  10.481
11415W        W79633  10.805  28.467  13.698
11416W        W79634  19.019   8.184   3.423
11417W        W79635  25.105  22.513   3.988
11418W        W79636   0.306  44.529   3.786
11419W        W79637  33.617  42.455   0.915
11420W        W79638  33.044  23.257  13.278
11421W        W79639  21.275  44.172  14.709
11422W        W79640  23.819  41.282  13.537
11423W        W79641  37.336  12.718   3.523
11424W        W79642  21.137  29.981  14.835
11425W        W79643  43.277  42.869   2.301
11426W        W79644   8.218  40.354  12.384
11427W        W79645  34.871   7.965  13.835
11428W        W79646   3.014  35.163  14.236
11429W        W79647  35.512  20.472  13.882
11430W        W79648  38.651  13.023   4.573
11431W        W79649  11.738  15.261   1.207
11432W        W79650  20.352  13.465  11.092
11433W        W79651   0.478  38.927   0.426
11434W        W79652  41.012  30.467  12.647
11435W        W79653   2.283  41.992  13.327
11436W        W79654  43.932  25.456  10.743
11437W        W79655  35.871   3.258  11.258
11438W        W79656  15.072  41.516  12.134
11439W        W79657  41.457   8.230  10.688
11440W        W79658   9.284  27.122   1.452
11441W        W79659   0.258  24.482  14.557
11442W        W79660  20.731  31.968   5.011
11443W        W79661  33.176  21.682   0.220
11444W        W79662  38.116  16.126  13.826
11445W        W79663   3.288  24.593  12.504
11446W        W79664  10.185  31.039   2.239
11447W        W79665  37.835  38.912   0.828
11448W        W79666  37.044  39.470   1.199
11449W        W79667   2.017  10.399  14.008
11450W        W79668   2.920  37.999   4.928
11451W        W79669   1.257  12.635  14.716
11452W        W79670  39.918   0.303  13.985
11453W        W79671  24.463  18.875  12.013
11454W        W79672  38.909  31.568  10.358
11455W        W79673  17.856  26.285   4.539
11456W        W79674  18.219  28.648  10.635
11457W        W79675  29.648  43.470   1.750
11458W        W79676  37.948   2.478  13.830
11459W        W79677  19.907  31.066  14.454
11460W        W79678  22.744  35.738  14.817
11461W        W79679  28.474   2.861   1.377
11462W        W79680  41.441   9.457   1.935
11463W        W79681  32.815  21.309   1.909
11464W        W79682  42.812  24.488  14.783
11465W        W79683   6.916  22.288   3.795
11466W        W79684   7.378  43.836   2.164
11467W        W79685  44.302   0.166  10.679
11468W        W79686  31.201   1.352  10.691
11469W        W79687  33.255   3.961  14.777
11470W        W79688  22.599   3.931   0.792
11471W        W79689  13.229   1.761   1.735
11472W        W79690  22.839  10.446   5.086
11473W        W79691   9.699  17.657  13.551
11474W        W79692   4.680   8.367   3.274
11475W        W79693   2.733  31.592  12.237
11476W        W79694  35.516  11.289  10.413
11477W        W79695  40.501   2.422   4.384
11478W        W79696  42.991  11.166   2.168
11479W        W79697  32.628  43.095  12.915
11480W        W79698  35.390  33.690  11.370
11481W        W79699  27.337  31.168   3.312
11482W        W79700  30.139  38.986  10.406
11483W        W79701  25.025  23.035  11.113
11484W        W79702  18.350  29.982  12.970
11485W        W79703  38.779  25.567   1.669
11486W        W79704  44.441   2.248   4.141
11487W        W79705   5.138  21.226   3.207
11488W        W79706  32.820   5.471  13.932
11489W        W79707  42.478  28.063  12.038
11490W        W79708  11.761  42.716  12.381
11491W        W79709  25.916  40.290  13.486
11492W        W79710  19.725  18.288  12.650
11493W        W79711  32.512   2.255   1.339
11494W        W79712  41.949  23.241  12.512
11495W        W79713  40.753  38.937  14.382
11496W        W79714  43.499  39.349   1.963
11497W        W79715   1.896   7.161   3.181
11498W        W79716  33.035  43.535   4.077
11499W        W79717  42.911   7.206  11.074
11500W        W79718  27.987  24.409  12.926
11501W        W79719  20.967  40.559  12.034
11502W        W79720  32.476  43.243  11.093
11503W        W79721  31.039  22.373   5.042
11504W        W79722  35.458   1.594   3.222
11505W        W79723   8.738  35.586   3.361
11506W        W79724  25.285   0.727  12.974
11507W        W79725  12.653   9.700  11.097
11508W        W79726  18.968  41.404   4.036
11509W        W79727  34.564  26.997  14.064
11510W        W79728   4.886  10.147  10.590
11511W        W79729   9.255  11.580  13.642
11512W        W79730  21.482   8.404  13.028
11513W        W79731  43.040   9.300   0.503
11514W        W79732  38.035  25.223   4.194
11515W        W79733   9.681  18.823   2.312
11516W        W79734  21.419  29.554   3.077
11517W        W79735  22.684  41.364  11.879
11518W        W79736  14.809  29.208   1.518
11519W        W79737   6.352  10.032   4.110
11520W        W79738  40.227  23.031  14.072
11521W        W79739  10.427  16.558   1.430
11522W        W79740   5.582  43.182  13.223
11523W        W79741  22.617  41.078   4.297
11524W        W79742  40.623  32.043   3.083
11525W        W79743  35.333  10.648  12.001
11526W        W79744  29.667  23.081  14.771
11527W        W79745  19.032   8.632  13.991
11528W        W79746   0.375  18.240   1.474
11529W        W79747   6.391  25.540  10.758
11530W        W79748  31.406  26.699   4.108
11531W        W79749  28.691   8.267   3.606
11532W        W79750  33.786  11.887  13.524
11533W        W79751  33.093  22.540   0.484
11534W        W79752  22.672  16.089  12.559
11535W        W79753   0.818  35.053  13.385
11536W        W79754  24.570  11.160  11.083
11537W        W79755  40.547  33.012   0.257
11538W        W79756  30.613  29.223   1.317
11539W        W79757  19.731  40.323   2.879
11540W        W79758  36.737   8.753  12.989
11541W        W79759   6.155  35.883   0.922
11542W        W79760  43.566   0.420  12.069
11543W        W79761  34.869  14.240   4.202
11544W        W79762  34.587  35.729  12.491
11545W        W79763  11.645  27.950  12.442
11546W        W79764  10.179  32.342   2.681
11547W        W79765  12.365  18.137   2.756
11548W        W79766  31.938  36.554   0.023
11549W        W79767  30.650  23.969   0.529
11550W        W79768   1.171  28.023  14.921
11551W        W79769  43.463   1.408  14.050
11552W        W79770  13.306   4.370  12.339
11553W        W79771   9.737  14.295   1.661
11554W        W79772   5.740  28.412  11.237
11555W        W79773   5.927   4.858   4.916
11556W        W79774  16.809  24.586   0.472
11557W        W79775  29.997   6.390  14.251
11558W        W79776   5.363  36.388   1.337
11559W        W79777  15.259   9.849   3.019
11560W        W79778  33.393   2.151   0.886
11561W        W79779   0.376  36.880   2.339
11562W        W79780  13.134   8.080  14.003
11563W        W79781  36.628  19.183   1.388
11564W        W79782  10.811  36.058   0.520
11565W        W79783  40.214  10.425   2.288
11566W        W79784  24.253  42.825   3.840
11567W        W79785  36.324  17.250  14.755
11568W        W79786  34.532  32.104   1.447
11569W        W79787  10.801  11.251   1.121
11570W        W79788  28.548  36.745  13.663
11571W        W79789  38.999  24.992   2.126
11572W        W79790  14.116  29.627   2.299
11573W        W79791  37.174  11.366   2.823
11574W        W79792   2.235  37.610  11.056
11575W        W79793  12.904  38.649   3.799
11576W        W79794  26.971  19.064   2.777
11577W        W79795  35.181   4.496   0.222
11578W        W79796  38.238  26.126   2.909
11579W        W79797  20.884  39.520  11.552
11580W        W79798  29.879  18.806   2.636
11581W        W79799   0.959  37.158  13.408
11582W        W79800  28.967  26.328  14.075
11583W        W79801  10.876  18.594  14.502
11584W        W79802  19.313   4.211   4.691
11585W        W79803  27.567  16.336  13.049
11586W        W79804  41.258   8.665   2.674
11587W        W79805  27.148  42.646   3.416
11588W        W79806  32.780  18.026   1.677
11589W        W79807  29.598   4.911   4.589
11590W        W79808  25.191   5.463   3.797
11591W        W79809  33.626  32.655   4.628
11592W        W79810  33.989  23.568   3.207
11593W        W79811   8.921  18.571  11.996
11594W        W79812  14.582  44.509  14.961
11595W        W79813  10.320  32.030  11.638
11596W        W79814  26.665  42.963   2.142
11597W        W79815   5.816   7.945  13.904
11598W        W79816  33.196  33.065  10.722
11599W        W79817  11.660   4.822   0.358
11600W        W79818  34.143  35.812   4.756
11601W        W79819  24.269  17.326   1.941
11602W        W79820  41.332  27.995  14.238
11603W        W79821   4.197  43.271   2.414
11604W        W79822  18.456  18.000  13.032
11605W        W79823  35.314  23.780   4.283
11606W        W79824   8.183  23.875  12.456
11607W        W79825   2.437  20.563   0.046
11608W        W79826  18.110  23.178  10.676
11609W        W79827  19.627  36.356   3.753
11610W        W79828  41.396  31.457   0.899
11611W        W79829  11.251  24.078  13.827
11612W        W79830  38.515  44.008   0.443
11613W        W79831  36.340  30.534  13.760
11614W        W79832  36.051  27.633  10.489
11615W        W79833   2.483  14.241   2.790
11616W        W79834  24.251  38.808   3.680
11617W        W79835  32.266  12.022  10.949
11618W        W79836  19.205  22.450   4.800
11619W        W79837  37.220  21.200   1.211
11620W        W79838  21.609  15.532   4.033
11621W        W79839   7.699   1.723  10.700
11622W        W79840  20.552  11.055   2.861
11623W        W79841   1.029   7.482  12.523
11624W        W79842  10.703  31.012  14.962
11625W        W79843  10.637  25.914  11.584
11626W        W79844   3.691   8.682  11.992
11627W        W79845  11.687  44.500   2.274
11628W        W79846  15.750  10.897   1.786
11629W        W79847  25.464   3.491   3.768
11630W        W79848  16.834   3.168  13.014
11631W        W79849   1.786  38.285   4.276
11632W        W79850  10.331  21.287   1.846
11633W        W79851  35.521  39.786  12.970
11634W        W79852   9.245   8.966   0.826
11635W        W79853  38.175  42.896  14.919
11636W        W79854  30.637  43.703  10.725
11637W        W79855   2.553   1.392   2.819
11638W        W79856  19.125  23.270  11.493
11639W        W79857   0.480  25.137  11.010
11640W        W79858   7.419  14.789   2.686
11641W        W79859  16.820  26.699  13.883
11642W        W79860  20.666   2.994   4.163
11643W        W79861  28.561  23.007   4.220
11644W        W79862  40.547   4.899   2.863
11645W        W79863  16.622  18.090  14.959
11646W        W79864  36.082  39.135  13.614
11647W        W79865  37.618  37.312  12.490
11648W        W79866  31.574  35.695   0.838
11649W        W79867  41.629  38.541  10.760
11650W        W79868  22.551  10.157  11.574
11651W        W79869   2.661  21.456  14.919
11652W        W79870  25.620  20.646   2.905
11653W        W79871   0.619  30.470  12.818
11654W        W79872  18.847  19.166   2.690
11655W        W79873  16.159  23.645  11.030
11656W        W79874  40.038  29.937  11.553
11657W        W79875  34.836  25.090   5.132
11658W        W79876  10.387  13.801   3.288
11659W        W79877  27.643   5.858   2.821
11660W        W79878   6.899  28.549   0.213
11661W        W79879  13.053  28.555   2.243
11662W        W79880  19.450  34.555   4.262
11663W        W79881  19.354  30.362   3.995
11664W        W79882   2.749   5.263   3.679
11665W        W79883  29.525  26.764  12.300
11666W        W79884  17.072  23.455  10.663
11667W        W79885  29.429   0.114  14.303
11668W        W79886  22.272  28.636   2.571
11669W        W79887  36.693  25.937   1.794
11670W        W79888   7.136  33.553   4.597
11671W        W79889  19.081  20.103  10.707
11672W        W79890   6.250  34.446   4.306
11673W        W79891  34.466  11.091   0.542
11674W        W79892  29.459  13.412   0.447
11675W        W79893  14.895  11.705   0.843
11676W        W79894   6.786  32.904   0.670
11677W        W79895  19.207  38.493  11.546
11678W        W79896  30.869  24.017  12.965
11679W        W79897   4.902  17.197  14.760
11680W        W79898   4.666  42.419   3.145
11681W        W79899   6.484   7.119  11.232
11682W        W79900  19.119   3.789   3.385
11683W        W79901   4.954   0.757  10.761
11684W        W79902   5.393   3.851  13.745
11685W        W79903  42.328  32.521   0.283
11686W        W79904  31.367  27.960   2.139
11687W        W79905  29.361   7.900   2.719
11688W        W79906  29.106  18.569   3.209
11689W        W79907  36.385   8.160   0.554
11690W        W79908   6.309  16.702   3.643
11691W        W79909  23.452   1.454  14.409
11692W        W79910  16.055  13.002  12.825
11693W        W79911   4.175  25.749   4.350
11694W        W79912  25.655  10.167  13.045
11695W        W79913  20.114  11.682   0.913
11696W        W79914  13.332  39.787   0.313
11697W        W79915  23.538  17.103  14.484
11698W        W79916  10.864  10.742  13.062
11699W        W79917   8.820  23.077   2.549
11700W        W79918  20.816   2.759  11.200
11701W        W79919  16.124  33.947  12.468
11702W        W79920  35.444  30.441   4.208
11703W        W79921   9.137  28.828   2.656
11704W        W79922   3.411  14.821   0.862
11705W        W79923  10.451  23.938   0.152
11706W        W79924   8.611  30.147  12.594
11707W        W79925   6.182   2.235   2.696
11708W        W79926  33.971  21.464   2.420
11709W        W79927  44.727  17.202  13.848
11710W        W79928  15.475  21.867  14.459
11711W        W79929  27.054  44.486   1.479
11712W        W79930   3.732  37.526   1.257
11713W        W79931  26.211  30.140  12.345
11714W        W79932   0.882  43.009   4.139
11715W        W79933   8.162  33.085   3.712
11716W        W79934  11.283  36.636   3.891
11717W        W79935  39.789  22.292  10.401
11718W        W79936  19.806  39.969   2.498
11719W        W79937  10.622   9.522   1.366
11720W        W79938  16.018  27.650  11.937
11721W        W79939  38.956  27.729   3.723
11722W        W79940  24.492  25.961   0.196
11723W        W79941  23.059  35.334   2.188
11724W        W79942  34.069  22.935   0.692
11725W        W79943  22.385  42.059  11.260
11726W        W79944  26.437   9.240  13.426
11727W        W79945  44.501  17.517  14.488
11728W        W79946  13.078  42.183   2.118
11729W        W79947  10.890  15.652  10.223
11730W        W79948  44.838  22.074   1.393
11731W        W79949  13.819  43.085  12.026
11732W        W79950  27.634  32.508   2.824
11733W        W79951  31.851  44.384   3.186
11734W        W79952  44.334  42.755   0.963
11735W        W79953  35.667  40.299   0.534
11736W        W79954  43.330  33.664   3.267
11737W        W79955   8.196  36.425  13.064
11738W        W79956  41.835  41.881   4.248
11739W        W79957   5.786  18.723  10.723
11740W        W79958  35.964  20.996  13.303
11741W        W79959  40.586  16.681   0.815
11742W        W79960   1.824  41.738  13.408
11743W        W79961  10.817  16.313   1.760
11744W        W79962   3.553  43.225   4.967
11745W        W79963  43.543   3.302  14.928
11746W        W79964  29.725  40.497   3.191
11747W        W79965  42.821   6.507   0.835
11748W        W79966  20.638  30.079   4.468
11749W        W79967  13.165  16.113  13.273
11750W        W79968  10.401  36.951   2.165
11751W        W79969  39.898  21.237   0.294
11752W        W79970  42.849  25.782   4.628
11753W        W79971  18.736   2.007  13.537
11754W        W79972   4.481   9.727   2.538
11755W        W79973   8.808   4.376   1.352
11756W        W79974   7.219  15.235   1.977
11757W        W79975  15.743  37.239  14.641
11758W        W79976  18.127  31.907  10.298
11759W        W79977   9.635   0.860   1.982
11760W        W79978  16.216  26.076  13.488
11761W        W79979   3.756  30.162   3.642
11762W        W79980   1.919  13.819  12.286
11763W        W79981   2.582  36.395  14.907
11764W        W79982  35.589  25.424   5.019
11765W        W79983  34.519   4.686   2.192
11766W        W79984  31.435  30.562  14.687
11767W        W79985  43.910  31.169   1.905
11768W        W79986  39.113  35.512   2.295
11769W        W79987   1.216  14.204   4.932
11770W        W79988   8.244  26.036  11.530
11771W        W79989  19.867  20.208  11.191
11772W        W79990   3.385   5.851  13.964
11773W        W79991   6.423  15.779   2.580
11774W        W79992  26.093   9.496  11.460
11775W        W79993  16.421   0.815  12.790
11776W        W79994   9.661  29.951   0.829
11777W        W79995  10.366  21.511  14.469
11778W        W79996   2.520  27.538   2.241
11779W        W79997  26.623  29.596  14.831
11780W        W79998   3.723  35.496  11.023
11781W        W79999   8.103  22.929  14.945
11782W        W80000  34.797  25.414  11.104
11783W        W80001   9.823  25.728   1.267
11784W        W80002   3.928   4.767  13.086
11785W        W80003  38.336  10.182   4.117
11786W        W80004  16.651   1.764   2.658
11787W        W80005  38.804   1.161  13.502
11788W        W80006  23.784  20.069   1.089
11789W        W80007  11.844   0.925   2.298
11790W        W80008  13.660  39.496   3.346
11791W        W80009  29.049  19.212   1.271
11792W        W80010  40.964  30.467  11.127
11793W        W80011  14.507  10.134  11.030
11794W        W80012  23.552  23.201  12.730
11795W        W80013  24.698   8.492  13.500
11796W        W80014  29.063  28.947   0.043
11797W        W80015  12.279  44.456   0.869
11798W        W80016  34.891  16.677   4.138
11799W        W80017  38.888  11.709  11.379
11800W        W80018   0.761  30.656  10.314
11801W        W80019  28.210   6.117  11.433
11802W        W80020   7.826  22.705  12.411
11803W        W80021  20.755  19.808   4.236
11804W        W80022  39.488  13.732  14.066
11805W        W80023  25.002  21.079   3.366
11806W        W80024   8.852  37.685  12.099
11807W        W80025  15.857  28.405   3.307
11808W        W80026   8.110  26.449   0.427
11809W        W80027  25.995  31.457   0.661
11810W        W80028  19.029  31.653  14.403
11811W        W80029  21.568  26.162  14.149
11812W        W80030  12.695   5.599  12.311
11813W        W80031  39.101  22.331  12.439
11814W        W80032   8.820   8.155   4.455
11815W        W80033  24.966  13.124  12.843
11816W        W80034   5.328  43.803   0.597
11817W        W80035  40.990  25.721   4.374
11818W        W80036  22.354  29.953   1.243
11819W        W80037  35.968   9.394  10.730
11820W        W80038  20.286  39.869   2.689
11821W        W80039  31.344  23.137   1.875
11822W        W80040  22.290  42.998  12.993
11823W        W80041  44.612  44.127   1.794
11824W        W80042   5.860  33.488  12.967
11825W        W80043  44.248  30.768   1.867
11826W        W80044   9.492  40.451  11.607
11827W        W80045  24.172  36.941   3.550
11828W        W80046  19.445  15.164   5.006
11829W        W80047   6.548  12.125   0.918
11830W        W80048  33.280   0.940   0.634
11831W        W80049  16.259  25.266  14.784
11832W        W80050   3.963  17.154   3.239
11833W        W80051  13.952  41.969  11.617
11834W        W80052  17.612  27.282  12.603
11835W        W80053  16.093  33.901   2.263
11836W        W80054  32.088  16.344  12.703
11837W        W80055   3.473  19.695  13.351
11838W        W80056   3.789  36.617   0.952
11839W        W80057  19.023  28.988   3.405
11840W        W80058  16.006  10.055  14.518
11841W        W80059  23.753  30.200  14.061
11842W        W80060  17.393  23.499  10.273
11843W        W80061  27.544   8.821  13.430
11844W        W80062  17.502  28.662  12.435
11845W        W80063   2.848  40.036  14.580
11846W        W80064  17.520   3.226  13.379
11847W        W80065  18.687  16.858   2.757
11848W        W80066  36.166   3.537   1.714
11849W        W80067  18.895  25.030   0.189
11850W        W80068  10.371  40.043   3.718
11851W        W80069  27.159  41.782  12.946
11852W        W80070   7.423  26.522  12.406
11853W        W80071  37.667  36.146   4.543
11854W        W80072  35.627  38.376  13.916
11855W        W80073  35.598  37.894   2.573
11856W        W80074   0.159  39.020  12.022
11857W        W80075  21.728  40.427   3.142
11858W        W80076  28.260   8.032  12.010
11859W        W80077  35.012   6.402  12.842
11860W        W80078  18.967  30.539  14.827
11861W        W80079  17.671  17.202   3.526
11862W        W80080  15.736  34.828   4.236
11863W        W80081  34.062  26.024   1.348
11864W        W80082  20.726  13.642   2.726
11865W        W80083   0.048  33.637   1.695
11866W        W80084  19.606  25.487  12.475
11867W        W80085   7.904  11.686  12.065
11868W        W80086  25.590  43.551  10.576
11869W        W80087  23.653  32.219   2.330
11870W        W80088   6.769  36.300   3.213
11871W        W80089  21.651  31.174  11.681
11872W        W80090   5.018  41.266   1.318
11873W        W80091  26.519   8.433   2.995
11874W        W80092   1.152   0.664   1.368
11875W        W80093  21.962  31.161   2.413
11876W        W80094   9.628  33.102   0.892
11877W        W80095  26.215  41.809  14.990
11878W        W80096  35.329  18.164  13.866
11879W        W80097  36.947  13.750  13.318
11880W        W80098   1.728  27.620  10.785
11881W        W80099  42.489  36.868   1.347
11882W        W80100  22.710  15.122  13.886
11883W        W80101  27.228  24.548  12.670
11884W        W80102  32.426  30.019   4.417
11885W        W80103   7.473   0.074   4.592
11886W        W80104  14.846  33.340   2.657
11887W        W80105  15.567   3.875   3.023
11888W        W80106  37.948  22.659   0.442
11889W        W80107   2.722  14.175   1.411
11890W        W80108  28.508  26.923   2.700
11891W        W80109  33.243  37.392  13.651
11892W        W80110  11.301  19.861   0.777
11893W        W80111  23.262  14.343   3.730
11894W        W80112  29.060  38.369  13.816
11895W        W80113   8.652   3.954  14.861
11896W        W80114   2.411  22.157   4.321
11897W        W80115   0.849  23.543   1.781
11898W        W80116  34.427   6.347   2.709
11899W        W80117  24.163  30.606  13.887
11900W        W80118   1.293  11.248   1.057
11901W        W80119  43.926  24.854  12.400
11902W        W80120  38.600  13.776   3.163
11903W        W80121   7.997  23.221  13.481
11904W        W80122  35.121  40.423  13.532
11905W        W80123   3.938  10.125   0.823
11906W        W80124  32.560   1.520  11.895
11907W        W80125  34.795  42.349  13.836
11908W        W80126  42.323   3.784  12.053
11909W        W80127  31.152   0.416   4.492
11910W        W80128  14.560  42.895   0.764
11911W        W80129  42.442  18.753   2.206
11912W        W80130  41.508  26.668   0.461
11913W        W80131   4.725  19.157   2.223
11914W        W80132  44.619  16.146  14.462
11915W        W80133   2.470  30.694   1.753
11916W        W80134   2.796  41.992   4.301
11917W        W80135  40.944  40.240   2.350
11918W        W80136  34.781   7.551  12.875
11919W        W80137   3.393  34.488  10.499
11920W        W80138  16.790   9.206  13.937
11921W        W80139   6.826  13.864   4.175
11922W        W80140  15.977  14.498  13.068
11923W        W80141  36.962   1.249  12.416
11924W        W80142   0.431   0.385  12.413
11925W        W80143  20.752   1.501   3.331
11926W        W80144   8.688  36.763   3.586
11927W        W80145  31.917  22.260  12.874
11928W        W80146  13.050   2.334  13.980
11929W        W80147  30.875  44.287  14.444
11930W        W80148  19.120  43.705   4.599
11931W        W80149   9.314   2.388   3.258
11932W        W80150   3.680  25.890  14.443
11933W        W80151  15.553  20.738  12.610
11934W        W80152   1.242   8.327   1.161
11935W        W80153  42.294  37.588   2.581
11936W        W80154   3.439  42.890   0.230
11937W        W80155  30.637  30.524  12.460
11938W        W80156  15.356  37.147  10.260
11939W        W80157  17.676  33.321   1.273
11940W        W80158  40.557  37.505  10.707
11941W        W80159  37.848   5.690   2.187
11942W        W80160  19.897  13.148   0.706
11943W        W80161  16.582  13.431  12.148
11944W        W80162  15.399   2.962  12.110
11945W        W80163  36.110   7.239   1.950
11946W        W80164  30.574  17.319   0.990
11947W        W80165  12.648   4.239   1.700
11948W        W80166  42.457  40.533  12.849
11949W        W80167  13.860  12.275   2.650
11950W        W80168  32.132   9.661   3.258
11951W        W80169  21.246   9.826   2.566
11952W        W80170  13.785   1.164   4.539
11953W        W80171  31.182  22.622   1.760
11954W        W80172  16.110  33.811  13.440
11955W        W80173  22.095  21.313   2.886
11956W        W80174  37.524  25.747   3.676
11957W        W80175   2.826  29.657   4.648
11958W        W80176  21.355  32.680   1.834
11959W        W80177   9.184  33.445  14.549
11960W        W80178  22.577  22.290  13.897
11961W        W80179  20.462   0.436   3.938
11962W        W80180  21.326  14.113   0.837
11963W        W80181  26.791  11.611  11.893
11964W        W80182   9.821  14.233   4.549
11965W        W80183  15.353  25.236   1.258
11966W        W80184  14.307   6.913  11.218
11967W        W80185  41.032  18.048  12.079
11968W        W80186  22.645   4.308   3.168
11969W        W80187  43.584  18.408   3.683
11970W        W80188  23.664  33.322   0.350
11971W        W80189  24.163  34.497  10.189
11972W        W80190  44.728  39.621  13.132
11973W        W80191  41.044  32.425   2.260
11974W        W80192   6.335  15.290  14.542
11975W        W80193  18.130  10.964  12.085
11976W        W80194  35.868  14.894  13.997
11977W        W80195   4.346  27.079  14.034
11978W        W80196  27.748  11.101   0.783
11979W        W80197  35.798  37.444   2.706
11980W        W80198   1.929   1.021   1.806
11981W        W80199  34.688  26.907  11.065
11982W        W80200  18.776  39.670   2.172
11983W        W80201   2.160  18.184  14.122
11984W        W80202  34.294   4.916   3.628
11985W        W80203  37.459  37.165   9.685
11986W        W80204  32.986  43.850  11.200
11987W        W80205  28.607  32.122   5.175
11988W        W80206  24.212  29.009  13.027
11989W        W80207   4.262  28.085   4.312
11990W        W80208  12.682   5.871   4.090
11991W        W80209  30.115  11.681  13.359
11992W        W80210  17.457  11.412   4.127
11993W        W80211  36.369  15.762  14.977
11994W        W80212  32.077   3.951  13.976
11995W        W80213  40.465   8.754  11.300
11996W        W80214   1.401  12.944  10.662
11997W        W80215  16.273  27.274   3.076
11998W        W80216  11.253  31.477   3.804
11999W        W80217  12.423  43.571   4.704
12000W        W80218   0.399  29.766  12.312
12001W        W80219   3.030  25.610  11.651
12002W        W80220   8.338   5.962  12.439
12003W        W80221  37.954  11.143  14.267
12004W        W80222  38.398  16.224  12.590
12005W        W80223   2.328  14.603  13.884
12006W        W80224   7.369  15.324  13.888
12007W        W80225  11.266  11.746   4.709
12008W        W80226   6.312  10.727   2.400
12009W        W80227   9.150  23.314  14.935
12010W        W80228  38.985  40.228   1.088
12011W        W80229  14.453  13.914   2.063
12012W        W80230  39.637  18.516  11.924
12013W        W80231  25.186  14.830   1.016
12014W        W80232  13.232  12.155  12.951
12015W        W80233  38.735  33.440  13.880
12016W        W80234   3.879   8.633  10.735
12017W        W80235   6.860  38.335   3.144
12018W        W80236  33.546  17.383  12.146
12019W        W80237  27.894  41.904   2.296
12020W        W80238  39.126  31.320   2.770
12021W        W80239  34.715  33.987   2.298
12022W        W80240  14.608  33.039  12.635
12023W        W80241  12.644  10.359  12.993
12024W        W80242  34.711   2.218  13.602
12025W        W80243  33.433  33.174   4.492
12026W        W80244  14.545   0.559  14.090
12027W        W80245  31.447  12.298  10.428
12028W        W80246  16.275  14.112  14.451
12029W        W80247  15.241  25.736  13.041
12030W        W80248   3.446  10.842   1.745
12031W        W80249  42.026  40.211   4.667
12032W        W80250  18.606  33.936   0.237
12033W        W80251  18.140   1.289   2.246
12034W        W80252  35.160   4.852  10.622
12035W        W80253  22.218  10.354   4.521
12036W        W80254  13.771   0.422   3.448
12037W        W80255  23.799  36.893   1.255
12038W        W80256   9.885  25.304   0.313
12039W        W80257  36.819  30.997  13.338
12040W        W80258  43.521  29.044  10.446
12041W        W80259  16.099  23.330  11.428
12042W        W80260  19.305  12.694   2.250
12043W        W80261   8.719  26.565  12.013
12044W        W80262  40.559  21.089   4.258
12045W        W80263  13.131   1.420  12.865
12046W        W80264  33.086  25.490   1.369
12047W        W80265   7.420   6.715  12.956
12048W        W80266  26.105  14.503  11.083
12049W        W80267   1.101  27.711  12.423
12050W        W80268  29.621  39.583  14.333
12051W        W80269  26.304  42.872   3.365
12052W        W80270   8.735  25.528   3.568
12053W        W80271  34.809  31.428  14.921
12054W        W80272  21.714  41.495  13.920
12055W        W80273  44.872   8.967  10.795
12056W        W80274  44.834  43.494   0.874
12057W        W80275   8.771  14.087   3.608
12058W        W80276  39.357  36.071   2.275
12059W        W80277  11.724  32.931  13.030
12060W        W80278   6.657  27.002   1.353
12061W        W80279   5.751  11.380  13.782
12062W        W80280  43.927   2.721   3.280
12063W        W80281  15.383  36.980   4.110
12064W        W80282  12.456  37.473   4.262
12065W        W80283   7.286  20.618   2.847
12066W        W80284   1.526  11.442   1.521
12067W        W80285  25.183   6.842  12.931
12068W        W80286  26.970  29.599   1.006
12069W        W80287  26.116  38.946  12.227
12070W        W80288   9.423  35.059   2.205
12071W        W80289   0.286   3.422   4.556
12072W        W80290  26.789  38.993  11.139
12073W        W80291  29.892  17.924   2.332
12074W        W80292  41.766  38.496  14.910
12075W        W80293  32.105  40.949  10.702
12076W        W80294  24.578  39.195   2.300
12077W        W80295  16.145  15.871  12.590
12078W        W80296  44.820  16.655   2.833
12079W        W80297  24.489  31.053  13.858
12080W        W80298  35.806  28.852   4.941
12081W        W80299  33.736  14.523  14.234
12082W        W80300  23.140  36.729   3.690
12083W        W80301  29.001  19.568   3.869
12084W        W80302  35.455   8.318  10.932
12085W        W80303  23.810  20.589  14.447
12086W        W80304  30.580  19.078  10.715
12087W        W80305   3.626  12.096  11.589
12088W        W80306  43.951  27.510   2.962
12089W        W80307  36.814  12.275  12.104
12090W        W80308  35.957  19.527   1.088
12091W        W80309  14.657  42.721  10.957
12092W        W80310  23.011  24.176   2.668
12093W        W80311  29.288  41.876  13.744
12094W        W80312  24.624  29.951   2.444
12095W        W80313  35.163  42.002   4.964
12096W        W80314  30.585  37.535   0.884
12097W        W80315  17.799  19.327   2.706
12098W        W80316  21.626  12.642   2.653
12099W        W80317  41.774   7.323   3.519
12100W        W80318  41.463  33.630  13.351
12101W        W80319  42.260  34.038  13.469
12102W        W80320  34.122  29.816   1.252
12103W        W80321   1.450   7.942   2.484
12104W        W80322  13.616  35.593  12.770
12105W        W80323  21.354   1.910   3.132
12106W        W80324  33.834  33.919  12.112
12107W        W80325  12.254   0.746   3.169
12108W        W80326  30.596   8.619   0.750
12109W        W80327  43.257  21.154   3.020
12110W        W80328  27.126  24.233  13.832
12111W        W80329   8.702  12.207  10.544
12112W        W80330   3.264  26.120  10.738
12113W        W80331  38.806  20.071  12.006
12114W        W80332  10.822   2.401   2.326
12115W        W80333  29.113   6.276   0.308
12116W        W80334  40.981  40.719   0.184
12117W        W80335   0.185  39.949  13.850
12118W        W80336  34.104  30.230   3.991
12119W        W80337  18.733  43.498  14.500
12120W        W80338  32.022   4.513   3.824
12121W        W80339  29.114  33.842   2.877
12122W        W80340  35.007  36.806  12.710
12123W        W80341  29.709   0.759   3.182
12124W        W80342  17.347   0.291  13.441
12125W        W80343  30.825  41.760  12.411
12126W        W80344  38.725  24.513   5.022
12127W        W80345  10.680   1.205   2.792
12128W        W80346  28.167  24.911  10.165
12129W        W80347   2.326  32.699  14.467
12130W        W80348  18.688  20.972  11.669
12131W        W80349  17.714   1.073  13.338
12132W        W80350   4.321  23.132  11.130
12133W        W80351  18.097  41.174  12.433
12134W        W80352  41.468  18.652   1.642
12135W        W80353   9.764   1.356  11.200
12136W        W80354  25.931  42.421   4.707
12137W        W80355  20.618  31.852   9.781
12138W        W80356  12.199  39.920  13.287
12139W        W80357   7.683  24.163  11.473
12140W        W80358  41.983  26.586   0.717
12141W        W80359  24.954  14.392  11.653
12142W        W80360   6.697  30.068   2.298
12143W        W80361  13.398  40.208  11.620
12144W        W80362   4.479  36.476  14.938
12145W        W80363  27.999  12.791   0.466
12146W        W80364  31.008   3.159  12.080
12147W        W80365  44.372   2.854   2.204
12148W        W80366  26.959   5.328   3.892
12149W        W80367  39.328   2.417   3.206
12150W        W80368   9.657  28.418   4.894
12151W        W80369  20.681  13.169  10.244
12152W        W80370  30.557  31.416  12.471
12153W        W80371  10.596  27.524   2.724
12154W        W80372  15.436  13.654   3.656
12155W        W80373  29.706  25.272  10.823
12156W        W80374  12.484  41.825  11.898
12157W        W80375  15.876  22.715  13.115
12158W        W80376  23.025  26.045   1.847
12159W        W80377  10.482  33.389  14.895
12160W        W80378  31.432  39.455  10.687
12161W        W80379  23.051  28.397  10.603
12162W        W80380  23.186  23.716   2.861
12163W        W80381  37.578   7.423  11.918
12164W        W80382  23.984  25.939   3.697
12165W        W80383  35.456  41.783  14.078
12166W        W80384  43.238  16.633   3.559
12167W        W80385   4.062  11.943   3.175
12168W        W80386  43.020   0.988   0.134
12169W        W80387   9.451  29.101  14.481
12170W        W80388  26.964  32.670  14.702
12171W        W80389  43.363  28.583   2.795
12172W        W80390  32.129  30.956  10.936
12173W        W80391  21.222  43.362   4.746
12174W        W80392  36.741  41.887  14.933
12175W        W80393  29.742  18.576  11.695
12176W        W80394  41.721   9.088   0.956
12177W        W80395   8.835  12.373  11.513
12178W        W80396  40.149  33.415   1.450
12179W        W80397  15.198   1.839   5.439
12180W        W80398  26.342   8.203  13.031
12181W        W80399  27.173  14.524  11.906
12182W        W80400   5.837   9.804  11.128
12183W        W80401  29.478  14.116   1.567
12184W        W80402  10.251  18.176   3.883
12185W        W80403   0.440  26.630   4.693
12186W        W80404  44.417   2.480  10.735
12187W        W80405  25.938   5.926  10.416
12188W        W80406  43.425  12.629  12.892
12189W        W80407  41.904   0.974   2.697
12190W        W80408  31.901  21.640  14.398
12191W        W80409  28.204   4.356   2.358
12192W        W80410  30.110  29.896  13.870
12193W        W80411  21.031   9.252  11.269
12194W        W80412   0.824  10.811   3.243
12195W        W80413  10.201  42.407  12.419
12196W        W80414  30.543  44.052   1.303
12197W        W80415  31.995  15.735   2.160
12198W        W80416  41.289  27.914  11.636
12199W        W80417  15.254  44.884   1.264
12200W        W80418  38.399  30.865   0.457
12201W        W80419  25.727   2.179  13.775
12202W        W80420  23.280  21.174  12.433
12203W        W80421  41.991  40.126   0.803
12204W        W80422  10.350  23.586   3.980
12205W        W80423  24.936  20.969  11.986
12206W        W80424  22.219  36.591   2.018
12207W        W80425   4.485  19.810  12.399
12208W        W80426  38.038  27.419   3.733
12209W        W80427  24.037  18.790  10.797
12210W        W80428  35.986   0.391   3.652
12211W        W80429  24.558  25.635   1.540
12212W        W80430  26.469  44.846  14.340
12213W        W80431  24.465   9.264   3.763
12214W        W80432  22.311  29.613   4.059
12215W        W80433  28.249  17.687  10.192
12216W        W80434  41.814  12.175  14.876
12217W        W80435   6.418  26.836   2.556
12218W        W80436  37.496   9.814  11.929
12219W        W80437  37.980  21.124   1.882
12220W        W80438  41.889  43.376   0.358
12221W        W80439  25.611  29.955  13.037
12222W        W80440  40.960   3.713   1.205
12223W        W80441  30.783   6.820  14.290
12224W        W80442  35.912  12.734  14.457
12225W        W80443   0.443  44.967   0.801
12226W        W80444  42.021   0.477   2.709
12227W        W80445  22.406  16.103   0.046
12228W        W80446  10.430  30.976   0.961
12229W        W80447  11.338  22.601   4.241
12230W        W80448  38.512  18.508   4.236
12231W        W80449  37.078  10.876   0.647
12232W        W80450  24.225   8.937  12.902
12233W        W80451   2.178  10.218   0.358
12234W        W80452  42.040  41.816  12.056
12235W        W80453  28.510  23.446   0.568
12236W        W80454   9.941  44.718  13.796
12237W        W80455  10.706   0.598   2.155
12238W        W80456   6.407  34.002  11.995
12239W        W80457  16.263  30.103  13.820
12240W        W80458  11.746   2.890  10.918
12241W        W80459  26.053  23.480  12.619
12242W        W80460  35.902  38.644   0.062
12243W        W80461  39.123  24.792  11.674
12244W        W80462   6.953  24.745   0.864
12245W        W80463  42.051  33.580   3.053
12246W        W80464  10.671  15.329   2.010
12247W        W80465  18.357  44.348   2.759
12248W        W80466  44.872  22.639  13.613
12249W        W80467  34.934  41.685  13.272
12250W        W80468  12.201  32.394  11.949
12251W        W80469  31.209  34.457  14.539
12252W        W80470  35.572   0.008  10.715
12253W        W80471  32.087  16.135  13.184
12254W        W80472  18.505   1.696   3.640
12255W        W80473  39.913  14.641  11.593
12256W        W80474  25.224   6.205   1.665
12257W        W80475  29.455  13.287  10.580
12258W        W80476   6.847  39.238   1.315
12259W        W80477  15.502   9.836   3.898
12260W        W80478  44.983   8.961   1.978
12261W        W80479  39.756  35.947  10.496
12262W        W80480   6.981  10.219  12.619
12263W        W80481  18.319  22.489  13.440
12264W        W80482  12.845  20.018  12.041
12265W        W80483  22.151   7.010  13.397
12266W        W80484  29.650   2.733  11.584
12267W        W80485   7.773  13.272   3.376
12268W        W80486   4.768  29.913  13.879
12269W        W80487  32.233   8.228  11.200
12270W        W80488  19.781   2.904   2.253
12271W        W80489  18.043  10.701  13.416
12272W        W80490  44.659   9.823  14.874
12273W        W80491  16.623   9.318  11.176
12274W        W80492   5.269  36.574  13.527
12275W        W80493  44.572   0.395   4.547
12276W        W80494  26.720  27.481   1.965
12277W        W80495  34.902   7.833   4.111
12278W        W80496  33.010  31.159  14.097
12279W        W80497  14.843   7.440  11.556
12280W        W80498   2.567  42.438   1.361
12281W        W80499   7.452  32.075  11.121
12282W        W80500  22.334  12.406  13.473
12283W        W80501  41.545  33.600   4.492
12284W        W80502   8.285  21.494  14.493
12285W        W80503  33.439  10.360  12.603
12286W        W80504  23.421  21.632  12.607
12287W        W80505   9.885  16.070  12.542
12288W        W80506  36.093  18.109  14.251
12289W        W80507   1.845  39.337  10.949
12290W        W80508  40.326  44.732  12.921
12291W        W80509  19.052  44.050  12.061
12292W        W80510   1.268  25.406  12.871
12293W        W80511  32.621  19.647   2.255
12294W        W80512   4.867  14.109  10.077
12295W        W80513   8.717  22.618  12.588
12296W        W80514   2.402  26.832   0.011
12297W        W80515   9.138   6.356   3.300
12298W        W80516  27.060   4.769  12.558
12299W        W80517  30.286  36.540  11.049
12300W        W80518   2.468   0.816  14.874
12301W        W80519  37.649  39.824   1.820
12302W        W80520  14.968  35.811   0.355
12303W        W80521  10.313  32.206  13.764
12304W        W80522  22.221  19.679   3.791
12305W        W80523  15.339   4.423  13.933
12306W        W80524   2.831  44.798  13.040
12307W        W80525  44.308  34.945   9.989
12308W        W80526  43.992  26.159  12.079
12309W        W80527   0.843  38.148  12.015
12310W        W80528  39.461   0.676  14.661
12311W        W80529  19.073  32.573   4.719
12312W        W80530  21.687   4.916   4.782
12313W        W80531  15.313   4.298   4.356
12314W        W80532  24.799  38.091  12.068
12315W        W80533  31.421  24.679   2.867
12316W        W80534  27.747   2.897  13.161
12317W        W80535  17.042  13.831  12.961
12318W        W80536  14.673  10.096  13.823
12319W        W80537  39.350  41.903  13.380
12320W        W80538  32.662  37.299   0.054
12321W        W80539  36.674  24.997  11.827
12322W        W80540  44.029  41.356  10.418
12323W        W80541  24.948  40.890   2.854
12324W        W80542  25.105  12.233  11.466
12325W        W80543  40.797   1.904   9.991
12326W        W80544  35.016   4.357  11.033
12327W        W80545  31.437   9.205   0.480
12328W        W80546  11.377  14.334  14.750
12329W        W80547  30.699  44.369  12.204
12330W        W80548  35.495   5.223   1.915
12331W        W80549  33.199  15.201   4.613
12332W        W80550  17.935  15.695  13.243
12333W        W80551  41.318  15.624  11.643
12334W        W80552  26.029  34.379  12.330
12335W        W80553  19.926  28.061   5.015
12336W        W80554  31.321  41.808  11.120
12337W        W80555  16.317  10.151  14.102
12338W        W80556  11.146  24.529   2.423
12339W        W80557   4.316  39.622   1.226
12340W        W80558  29.672  28.188   2.594
12341W        W80559  29.650  34.456  13.104
12342W        W80560  24.527  41.564  13.944
12343W        W80561  23.758  16.832  12.387
12344W        W80562   8.723  28.234   2.232
12345W        W80563  17.580   6.904  10.635
12346W        W80564  39.955  23.157  14.983
12347W        W80565   4.844   8.371  14.748
12348W        W80566   3.172  14.913  12.364
12349W        W80567  38.011  22.937   4.389
12350W        W80568  26.452  21.252  13.584
12351W        W80569  43.504   3.806  12.968
12352W        W80570  38.301  36.374  13.513
12353W        W80571  31.859  19.395  13.581
12354W        W80572   2.554  35.129  14.907
12355W        W80573   9.731  36.118  10.624
12356W        W80574   0.922  27.982   2.166
12357W        W80575  29.518  34.033  11.589
12358W        W80576   9.362  20.820   0.928
12359W        W80577  22.647  33.113   2.140
12360W        W80578  42.781  38.433   3.972
12361W        W80579   6.119  22.702  13.068
12362W        W80580   3.827   3.264  12.441
12363W        W80581   3.184  19.232   1.668
12364W        W80582  17.261   6.430  11.997
12365W        W80583  17.867  15.979   2.510
12366W        W80584   6.386   1.686   0.914
12367W        W80585  30.999  11.286   4.134
12368W        W80586  30.166  27.671  11.128
12369W        W80587  34.562  27.717  14.814
12370W        W80588   2.560  26.873  12.421
12371W        W80589  36.356  44.506   1.300
12372W        W80590  37.246  34.882   4.579
12373W        W80591   1.295  35.669   1.886
12374W        W80592  41.553  41.790  13.942
12375W        W80593   3.167  40.638   1.797
12376W        W80594  22.222  37.624   2.509
12377W        W80595  37.441  30.702   4.485
12378W        W80596   5.016  28.156   2.806
12379W        W80597  18.322   3.193  13.972
12380W        W80598  35.294  20.024   0.253
12381W        W80599  15.859  33.906   1.796
12382W        W80600  34.308  11.766  13.925
12383W        W80601   9.200  33.947   3.642
12384W        W80602   1.023  41.400   2.274
12385W        W80603   4.298  33.799   0.469
12386W        W80604  42.980  15.658  14.264
12387W        W80605  36.550   4.265  10.667
12388W        W80606  37.281  40.487  13.991
12389W        W80607  16.502  11.306   3.259
12390W        W80608  25.768   7.263   4.099
12391W        W80609  37.073  25.126   1.633
12392W        W80610  24.087  44.932  11.522
12393W        W80611  18.221  12.193  11.623
12394W        W80612  15.813  34.306  11.984
12395W        W80613  24.231   6.834  12.885
12396W        W80614   0.032  16.014   2.325
12397W        W80615  15.657  19.608   1.920
12398W        W80616  41.320  40.060   3.796
12399W        W80617  18.491  23.711  11.074
12400W        W80618  14.228  14.700   0.002
12401W        W80619   3.835  24.780  11.988
12402W        W80620  29.274  42.271  14.088
12403W        W80621  28.753   5.116  13.801
12404W        W80622  34.028  13.870  13.400
12405W        W80623  22.027  28.019   1.188
12406W        W80624  36.132  32.394  10.658
12407W        W80625  22.513   2.558  11.562
12408W        W80626  35.489   9.208   4.215
12409W        W80627  16.054  39.994  11.147
12410W        W80628   8.162  31.538  11.014
12411W        W80629  18.733  35.434   0.407
12412W        W80630   4.455  34.335   4.194
12413W        W80631  40.023  15.512   4.801
12414W        W80632  34.904  27.108  14.438
12415W        W80633  10.227  43.144  14.697
12416W        W80634  22.325  40.841  12.427
12417W        W80635  33.327   5.448  13.929
12418W        W80636  32.166   3.445   3.546
12419W        W80637  41.121   1.974   0.856
12420W        W80638  18.773   5.732  11.526
12421W        W80639  31.663  41.768  14.001
12422W        W80640   8.864  14.144   2.166
12423W        W80641  32.969  18.502   1.856
12424W        W80642   3.486  35.138  12.420
12425W        W80643  17.782  16.556  14.594
12426W        W80644  30.057  15.153   0.345
12427W        W80645  23.420  19.690   0.930
12428W        W80646  18.671  11.177  11.593
12429W        W80647  11.301  43.403   3.384
12430W        W80648  25.162  44.133   1.664
12431W        W80649  12.453  31.410   0.789
12432W        W80650  19.700  15.771   1.382
12433W        W80651  16.676  28.421   4.437
12434W        W80652  20.047   0.113   4.141
12435W        W80653   3.388   1.300  12.891
12436W        W80654  21.104  34.042   4.497
12437W        W80655  38.553  23.307   2.296
12438W        W80656  34.020  11.708   3.758
12439W        W80657  13.069   0.471  10.749
12440W        W80658  35.505  32.449   4.847
12441W        W80659  25.731  25.637  11.974
12442W        W80660  29.516  26.267  11.041
12443W        W80661  34.708  40.085  11.738
12444W        W80662  28.674  22.950   5.100
12445W        W80663  34.812  21.277   4.995
12446W        W80664  15.248  44.334  12.809
12447W        W80665   1.354  13.676  13.721
12448W        W80666  10.487  13.035  12.916
12449W        W80667   4.609  30.090  12.983
12450W        W80668  24.856  41.464  11.684
12451W        W80669  24.988  10.210   3.589
12452W        W80670   9.357  42.294   9.474
12453W        W80671   8.335  20.221  12.304
12454W        W80672   9.386   4.527  13.115
12455W        W80673   5.435  10.971  13.803
12456W        W80674  37.903   1.062   3.360
12457W        W80675  40.721  22.542   1.807
12458W        W80676  19.714  31.410   1.694
12459W        W80677  10.785  40.775  14.294
12460W        W80678  15.318  43.873  10.932
12461W        W80679  35.164  42.691   2.082
12462W        W80680  12.182  36.483   3.424
12463W        W80681  43.956  20.655   0.799
12464W        W80682  15.181   4.753   1.349
12465W        W80683  24.142  22.501   2.806
12466W        W80684  15.619  18.313   1.198
12467W        W80685  38.305  27.968  13.847
12468W        W80686   0.766  16.591  13.890
12469W        W80687  22.184  10.492  11.431
12470W        W80688  24.591  20.655  11.607
12471W        W80689  21.472  37.329   1.335
12472W        W80690  22.143  29.153  12.543
12473W        W80691  43.106  19.538   2.316
12474W        W80692  17.814   5.693   4.114
12475W        W80693  27.382   9.300  13.513
12476W        W80694  29.602  42.910  10.942
12477W        W80695  30.651   3.697   0.253
12478W        W80696   2.539  13.099  13.957
12479W        W80697  24.279  21.816  11.243
12480W        W80698  28.552   8.582  12.603
12481W        W80699  21.085  15.682  13.004
12482W        W80700  26.139  34.027  14.098
12483W        W80701  10.680  21.190   3.500
12484W        W80702  28.256  41.272  11.093
12485W        W80703  14.023  35.249   3.108
12486W        W80704   9.146   9.750   2.122
12487W        W80705  35.892  36.890  14.545
12488W        W80706  39.043  28.247   3.762
12489W        W80707  20.586  43.434   3.051
12490W        W80708   7.925  32.182   3.773
12491W        W80709  20.875  23.051  12.083
12492W        W80710  42.526   3.259   1.825
12493W        W80711  28.081  27.393   0.372
12494W        W80712  16.052  41.716   4.600
12495W        W80713  36.951  27.692   2.948
12496W        W80714  43.341  29.224  13.419
12497W        W80715   6.487   2.183   0.967
12498W        W80716  13.450  30.704   4.988
12499W        W80717   8.728  24.731   2.302
12500W        W80718  34.386  15.339  11.400
12501W        W80719  13.236  24.814  11.034
12502W        W80720   1.273  22.149   4.970
12503W        W80721   2.843  39.434   2.608
12504W        W80722  38.114   8.296   0.751
12505W        W80723   1.916  30.154   4.528
12506W        W80724  31.590  37.911   0.332
12507W        W80725  44.508  15.780  13.563
12508W        W80726  38.034   4.873  12.918
12509W        W80727  24.281  41.726   1.660
12510W        W80728  30.282  26.676   4.136
12511W        W80729  32.405  36.559  10.516
12512W        W80730  29.504  38.880  12.002
12513W        W80731   7.590  28.340  14.506
12514W        W80732  15.377  32.053  13.862
12515W        W80733  12.044  16.632   3.573
12516W        W80734  33.580  29.726  14.003
12517W        W80735   2.832  16.633  10.734
12518W        W80736  36.863  41.981   4.463
12519W        W80737  37.425  10.393  10.736
12520W        W80738  25.201  44.356   0.287
12521W        W80739  16.322  13.002   3.177
12522W        W80740  31.106  35.884   4.136
12523W        W80741  26.920  24.104   2.738
12524W        W80742   2.523  18.623   0.404
12525W        W80743   3.325   1.531  14.264
12526W        W80744  13.386  11.394  11.020
12527W        W80745  16.895  39.927  10.745
12528W        W80746  41.690   8.688   4.260
12529W        W80747  13.926  18.454  13.097
12530W        W80748   3.237  25.010   3.337
12531W        W80749  17.622  34.681  13.983
12532W        W80750  19.732   6.376  10.482
12533W        W80751  19.835  41.934  12.126
12534W        W80752  35.558  42.307   4.779
12535W        W80753  30.029  31.562   2.747
12536W        W80754  28.538  41.546   0.935
12537W        W80755  23.306   6.702   1.193
12538W        W80756   0.017  17.296   0.780
12539W        W80757  28.683  41.303   1.380
12540W        W80758  35.873  12.800   2.463
12541W        W80759   3.909  25.739  14.896
12542W        W80760   2.717   4.170  13.905
12543W        W80761   2.423  21.627   3.436
12544W        W80762   7.771   1.965   1.859
12545W        W80763  13.387  44.586   3.655
12546W        W80764   4.649  13.742  13.351
12547W        W80765  18.724  17.481  14.542
12548W        W80766  34.576  19.290  10.609
12549W        W80767  42.964   5.745   3.161
12550W        W80768  39.403  35.809   4.059
12551W        W80769  27.571  36.098  10.587
12552W        W80770   9.047   8.361  14.771
12553W        W80771  30.617  23.068   0.567
12554W        W80772   0.648  17.844   1.258
12555W        W80773  42.723  36.649  14.966
12556W        W80774  16.579  31.493   1.781
12557W        W80775  37.977  33.560  12.220
12558W        W80776  32.513  43.376   1.881
12559W        W80777  17.835  17.528   1.628
12560W        W80778  12.347  35.529   0.848
12561W        W80779   2.824  10.611   3.658
12562W        W80780  27.054  40.348  12.428
12563W        W80781  43.872  37.133   1.951
12564W        W80782   8.702   3.369  13.373
12565W        W80783   9.888  42.563   3.845
12566W        W80784  24.603  29.578  11.545
12567W        W80785  36.037  22.472   0.606
12568W        W80786  14.190  32.371   9.931
12569W        W80787  23.079  23.292  14.412
12570W        W80788   3.814  23.857   0.981
12571W        W80789   6.872   3.498  12.884
12572W        W80790  42.343   7.820  14.072
12573W        W80791  29.165  20.535  14.030
12574W        W80792  28.370   4.960   2.688
12575W        W80793   7.964   5.845  14.012
12576W        W80794   6.424  13.532  13.638
12577W        W80795   2.215  24.003   4.651
12578W        W80796   9.000  20.183   2.144
12579W        W80797   7.138  10.742  14.996
12580W        W80798  32.035  12.760   0.783
12581W        W80799   2.376  31.629  11.882
12582W        W80800   7.809  14.745  14.182
12583W        W80801   0.568  38.035   0.413
12584W        W80802  13.039  31.009  13.042
12585W        W80803  39.111  32.356   2.265
12586W        W80804  35.972  36.006  13.949
12587W        W80805  43.679  33.580  12.570
12588W        W80806  40.880   9.434  10.796
12589W        W80807   9.260  11.540  14.551
12590W        W80808  38.005  35.707  14.854
12591W        W80809  35.549  11.276   2.107
12592W        W80810   2.257  42.076   0.462
12593W        W80811  24.921   5.472  11.295
12594W        W80812   0.019  13.635   1.419
12595W        W80813  13.314  18.208   2.378
12596W        W80814  17.338  14.079   0.716
12597W        W80815  14.541  28.688   3.627
12598W        W80816   0.327  13.022  13.339
12599W        W80817  31.911  37.238   3.990
12600W        W80818  31.679  20.946   2.286
12601W        W80819  30.927  39.021  14.616
12602W        W80820  12.255  13.297  12.136
12603W        W80821   2.242  11.873  13.130
12604W        W80822  24.075   2.971  10.656
12605W        W80823  18.709  14.140   1.284
12606W        W80824  18.587   4.933  10.237
12607W        W80825  24.502  34.141  12.726
12608W        W80826  14.632  42.470  14.035
12609W        W80827  24.177  17.629  14.876
12610W        W80828  40.244  15.573  10.964
12611W        W80829   6.686   7.992  12.818
12612W        W80830   5.327  44.949  10.609
12613W        W80831  19.212  33.797  13.147
12614W        W80832  14.149   5.578  10.714
12615W        W80833  25.501  22.039   3.185
12616W        W80834  35.176  12.888   3.501
12617W        W80835  43.109  11.210  13.080
12618W        W80836  27.317  27.060  14.023
12619W        W80837  11.691  40.657  10.236
12620W        W80838  25.996  14.113  11.475
12621W        W80839  43.906   1.371  10.421
12622W        W80840  27.959  42.319  13.418
12623W        W80841  13.717  27.714   4.651
12624W        W80842   8.195   8.852   0.447
12625W        W80843  35.121  23.107  13.927
12626W        W80844  14.089  32.508   2.665
12627W        W80845  27.067  41.562   3.306
12628W        W80846  33.936  43.395   0.740
12629W        W80847   3.174  25.007   3.851
12630W        W80848   5.959  42.854  10.994
12631W        W80849  33.373  43.267  10.877
12632W        W80850   8.808  32.087  14.998
12633W        W80851  31.682  20.776  13.095
12634W        W80852  15.817  40.611  14.341
12635W        W80853  12.107  28.249  13.448
12636W        W80854  17.543  13.692   1.885
12637W        W80855  15.116  24.700  14.894
12638W        W80856  34.340  22.784  11.498
12639W        W80857  43.508  37.966  14.925
12640W        W80858   2.157  20.986  12.548
12641W        W80859  13.933  23.427  14.000
12642W        W80860  37.208  40.490  10.433
12643W        W80861  33.893  12.786  12.420
12644W        W80862  34.454  33.828  10.770
12645W        W80863  34.919  31.032  12.802
12646W        W80864  38.764  13.578  12.918
12647W        W80865  18.667  12.776  13.794
12648W        W80866  25.567  23.714   0.517
12649W        W80867  10.500  23.499   1.452
12650W        W80868  37.485  33.351  14.948
12651W        W80869  28.009  28.026  10.125
12652W        W80870  28.319  18.024  12.654
12653W        W80871  13.604   1.523  10.606
12654W        W80872   7.864   9.140  14.345
12655W        W80873  12.647  23.705   1.751
12656W        W80874   6.418  16.333  10.312
12657W        W80875  13.050  40.849  12.962
12658W        W80876  31.841  15.030   4.198
12659W        W80877   2.075  23.354  10.728
12660W        W80878  23.486  10.847  12.187
12661W        W80879  41.025  27.215  14.410
12662W        W80880  21.255   3.290   9.927
12663W        W80881   4.242  11.304  13.637
12664W        W80882  15.812   0.516   5.605
12665W        W80883  16.113  10.275  13.635
12666W        W80884  29.249  21.734  11.093
12667W        W80885  25.541   3.984  11.632
12668W        W80886  15.204  24.183   3.298
12669W        W80887  22.246   4.779   0.896
12670W        W80888  14.769   3.238   0.034
12671W        W80889  18.883  17.826  13.583
12672W        W80890   2.501  11.055   3.825
12673W        W80891  42.550  43.996  14.330
12674W        W80892  31.030  36.366  12.627
12675W        W80893  14.113   4.867  10.818
12676W        W80894  31.673  27.909   3.147
12677W        W80895  42.540  28.571  11.195
12678W        W80896  37.311  17.213   1.232
12679W        W80897   2.567  13.049  14.602
12680W        W80898  21.176  33.101   5.553
12681W        W80899  15.949  13.780   1.767
12682W        W80900  40.972   5.458   3.381
12683W        W80901  38.978  28.596   4.705
12684W        W80902   6.422  38.800  12.727
12685W        W80903  35.576  29.367   0.560
12686W        W80904  23.586   0.723   0.466
12687W        W80905  25.570  41.012  10.501
12688W        W80906  28.420  33.907   1.318
12689W        W80907  11.905  41.950  14.032
12690W        W80908  12.566  16.157   4.662
12691W        W80909  17.210  18.254  13.299
12692W        W80910  35.483  18.854   0.839
12693W        W80911  40.702  26.983  13.423
12694W        W80912  39.072  12.753  11.951
12695W        W80913  12.191  23.136   4.299
12696W        W80914  18.106  26.084   1.820
12697W        W80915  27.635  32.166   3.880
12698W        W80916   6.151  12.291   1.800
12699W        W80917   3.749  16.700   3.134
12700W        W80918  16.565  18.574  13.395
12701W        W80919  40.857  35.006  11.200
12702W        W80920  14.206  32.076   2.927
12703W        W80921  38.448  35.886   0.115
12704W        W80922  42.329  32.346  13.869
12705W        W80923  13.459   7.629  14.684
12706W        W80924  32.026   4.719  14.451
12707W        W80925   3.316  31.873   4.094
12708W        W80926   1.024  23.106  10.719
12709W        W80927  27.195  36.079   1.861
12710W        W80928  14.301  18.788   4.579
12711W        W80929  22.646   6.655   5.181
12712W        W80930  24.394  20.657  12.983
12713W        W80931  24.801  21.187  10.765
12714W        W80932  25.467  39.767  14.415
12715W        W80933  44.908  38.694   2.107
12716W        W80934  31.721   7.894   0.999
12717W        W80935  29.892  14.669   3.816
12718W        W80936  43.014  19.046  14.527
12719W        W80937  21.031  10.715   4.650
12720W        W80938  40.377  21.753   2.591
12721W        W80939  16.704  42.130   3.872
12722W        W80940  19.321  12.265  10.354
12723W        W80941  21.085  39.413  10.629
12724W        W80942  42.416  41.064  10.430
12725W        W80943  35.134  29.640   3.151
12726W        W80944  18.999  23.787   0.912
12727W        W80945   3.306  30.970  13.134
12728W        W80946  10.065  35.675   3.677
12729W        W80947  19.635  33.545   0.883
12730W        W80948  12.085  36.043  14.997
12731W        W80949  22.551  42.361   0.918
12732W        W80950  37.622  30.998  13.861
12733W        W80951   3.676  23.201   2.709
12734W        W80952  12.412   2.411   1.452
12735W        W80953  20.187  20.055  11.608
12736W        W80954   5.418  12.270  13.345
12737W        W80955  19.872  10.897  13.886
12738W        W80956  23.486  35.803   2.153
12739W        W80957  42.534  42.342   1.724
12740W        W80958  12.678  16.016   1.336
12741W        W80959  24.936  20.320  13.832
12742W        W80960   7.745  18.315  13.786
12743W        W80961   8.439  27.168  14.908
12744W        W80962  20.060   4.684  12.929
12745W        W80963  25.742  26.563  14.880
12746W        W80964  19.879  33.614   0.453
12747W        W80965  43.018   0.924   1.743
12748W        W80966   8.978   9.322   1.841
12749W        W80967  21.024  42.292   2.106
12750W        W80968  11.903  10.299  14.613
12751W        W80969  34.725  18.971  12.514
12752W        W80970  32.089  30.197   3.160
12753W        W80971  41.838  15.338   4.575
12754W        W80972  30.131   0.441   4.069
12755W        W80973  27.244  37.923   4.855
12756W        W80974  29.746  28.683   1.470
12757W        W80975  11.068  36.384  12.509
12758W        W80976  13.966  14.796   0.911
12759W        W80977   9.919  10.758  12.906
12760W        W80978   4.545  27.565  14.141
12761W        W80979  12.057  19.679  11.891
12762W        W80980  39.554  12.828  12.972
12763W        W80981  40.340  13.108  14.781
12764W        W80982  40.110   7.244   1.401
12765W        W80983   4.001  37.807  12.582
12766W        W80984   5.726  41.363   4.204
12767W        W80985  18.573   2.772   2.653
12768W        W80986  15.365   3.828   1.032
12769W        W80987  26.813   0.180  10.590
12770W        W80988  39.876  40.552   1.759
12771W        W80989  16.581  42.589  11.183
12772W        W80990  31.929  11.065   3.228
12773W        W80991  35.078  16.945  11.999
12774W        W80992  22.986  25.473   2.617
12775W        W80993   4.633  19.013  11.330
12776W        W80994  14.574  32.890  11.112
12777W        W80995  15.870  21.003  13.368
12778W        W80996  32.208  21.268  11.565
12779W        W80997  16.741   0.367  14.930
12780W        W80998   6.286  32.211   1.844
12781W        W80999  28.078  14.017   4.055
12782W        W81000   4.107   9.136   4.215
12783W        W81001   0.907  42.802   1.470
12784W        W81002  23.134  15.882  14.299
12785W        W81003  28.951  20.622   2.700
12786W        W81004  44.241  39.727  13.406
12787W        W81005  16.757  16.003   2.780
12788W        W81006  31.507  41.877   4.125
12789W        W81007  32.851  40.374   2.232
12790W        W81008  40.378  31.634  13.540
12791W        W81009  16.507  27.617  11.748
12792W        W81010  22.603   2.394  14.381
12793W        W81011  34.921  42.565   3.855
12794W        W81012  39.655  30.913   1.578
12795W        W81013  22.155   7.388   3.229
12796W        W81014  40.211   6.169  11.611
12797W        W81015  18.626  18.191   4.479
12798W        W81016  10.852  22.034   4.682
12799W        W81017  17.208  38.498  13.523
12800W        W81018  43.524  39.781   0.971
12801W        W81019  22.049  39.936  14.862
12802W        W81020  37.348  14.838  12.388
12803W        W81021  24.380  40.540   1.768
12804W        W81022  10.044  16.269   0.733
12805W        W81023   2.830   4.848   2.355
12806W        W81024  33.983  36.640  10.802
12807W        W81025  27.477  15.716  14.700
12808W        W81026  20.155  11.757  12.875
12809W        W81027  37.791  41.937  14.889
12810W        W81028   7.892  21.940   3.764
12811W        W81029  10.357   5.907  12.828
12812W        W81030  22.978  18.210  14.603
12813W        W81031  20.739   1.355   4.260
12814W        W81032  34.540   5.481  13.405
12815W        W81033  40.132  19.636  14.994
12816W        W81034   6.192  20.550  12.338
12817W        W81035  27.321   0.935   3.312
12818W        W81036   9.621  18.313   2.259
12819W        W81037  36.236  38.478   1.694
12820W        W81038   0.476  42.374  12.399
12821W        W81039  44.671  31.876  12.498
12822W        W81040  36.507  15.850  10.313
12823W        W81041  41.429  21.689  14.388
12824W        W81042  16.104  16.124   4.961
12825W        W81043  35.941  27.605  12.353
12826W        W81044   0.521  43.771   2.693
12827W        W81045  35.369   1.228   0.043
12828W        W81046  18.180   2.339   4.140
12829W        W81047  27.684  10.977  13.979
12830W        W81048  24.611  12.699   2.822
12831W        W81049  44.722  21.808  11.196
12832W        W81050  15.420  16.252  14.914
12833W        W81051  14.977  21.000  13.028
12834W        W81052  37.142  37.088  12.013
12835W        W81053   1.096   9.398   0.253
12836W        W81054   9.255  26.130   3.862
12837W        W81055   2.183  32.162   0.274
12838W        W81056  35.023  38.390   2.177
12839W        W81057  19.291  41.798   0.542
12840W        W81058  23.866  34.687   1.399
12841W        W81059  20.568   3.985   1.403
12842W        W81060   2.018  10.617   3.302
12843W        W81061  37.956   8.225  11.090
12844W        W81062  24.588   9.667  13.310
12845W        W81063  30.654  35.857   1.384
12846W        W81064  32.378  15.733   2.824
12847W        W81065   6.836   5.176  11.552
12848W        W81066  11.101  23.715   3.116
12849W        W81067  22.917   9.159   3.700
12850W        W81068  29.904  36.130   5.078
12851W        W81069  18.980  20.258   1.233
12852W        W81070  21.488  26.946  12.607
12853W        W81071  18.769  24.987   5.064
12854W        W81072  13.177  17.218  14.719
12855W        W81073  14.268  30.692   0.094
12856W        W81074  34.053   6.008   4.132
12857W        W81075  28.723  37.334   4.700
12858W        W81076  28.451  32.474  13.849
12859W        W81077   0.048   5.784  12.134
12860W        W81078   0.968  26.448   1.456
12861W        W81079  18.693  14.507   0.358
12862W        W81080  41.165  13.796   3.096
12863W        W81081   9.578  39.036   1.092
12864W        W81082  43.783   6.581  14.387
12865W        W81083  33.444   8.397   2.767
12866W        W81084  11.353  27.461  13.908
12867W        W81085  30.947  21.007  11.213
12868W        W81086  25.263   6.799  11.587
12869W        W81087   1.380  20.735   2.387
12870W        W81088  36.623  39.533   2.383
12871W        W81089  31.208  31.230  11.097
12872W        W81090  15.675  33.614   0.985
12873W        W81091   7.391  23.050  12.867
12874W        W81092  17.272  15.623   3.365
12875W        W81093  17.767  29.444  11.498
12876W        W81094  25.121  17.994   3.818
12877W        W81095   0.829   9.883   0.411
12878W        W81096  26.670  10.908   3.313
12879W        W81097  25.775  24.094  11.524
12880W        W81098  25.625  25.781   2.239
12881W        W81099  33.489  18.805   4.212
12882W        W81100  28.662  22.393  13.284
12883W        W81101  11.418   4.799  11.449
12884W        W81102   1.504  41.583  13.818
12885W        W81103  15.892  43.645  11.747
12886W        W81104  13.053  30.034   0.249
12887W        W81105  44.862  16.845  10.679
12888W        W81106   0.046  18.844  12.522
12889W        W81107  23.645   1.031   0.049
12890W        W81108  44.607  43.294  13.302
12891W        W81109  24.051  30.586   1.900
12892W        W81110   8.661  32.646   0.375
12893W        W81111   9.134  40.074   4.190
12894W        W81112  10.097  24.276   0.458
12895W        W81113  23.742  19.667   4.999
12896W        W81114  16.197   7.253  11.249
12897W        W81115  26.052  14.866   2.826
12898W        W81116   2.339  11.065   1.230
12899W        W81117  11.655  22.714   3.277
12900W        W81118  44.457  34.459  14.272
12901W        W81119   2.247   2.895   0.881
12902W        W81120   3.940  16.296   1.831
12903W        W81121  42.924  24.790   3.700
12904W        W81122   9.439  42.843   1.337
12905W        W81123  13.100  29.420   1.874
12906W        W81124  37.914  11.749  11.777
12907W        W81125  20.192  13.563  14.422
12908W        W81126  10.295  25.992   2.731
12909W        W81127   5.911  38.608   2.763
12910W        W81128  30.915  11.573   2.305
12911W        W81129  12.156  16.376  11.851
12912W        W81130   9.487  15.645   2.771
12913W        W81131  24.809   5.800  14.394
12914W        W81132  25.031  36.583   3.765
12915W        W81133  16.150  24.056   3.440
12916W        W81134  41.522  28.453   0.845
12917W        W81135  21.028  31.042  13.042
12918W        W81136  26.539  29.567  13.307
12919W        W81137  22.752  21.135  10.640
12920W        W81138  44.462  23.759   2.380
12921W        W81139   1.783  13.789   1.448
12922W        W81140   1.384   6.640   4.430
12923W        W81141  37.079  27.411  11.049
12924W        W81142   4.758  29.030   1.456
12925W        W81143  35.533  27.028   3.802
12926W        W81144  11.253  13.259   0.264
12927W        W81145  25.337   4.901   4.553
12928W        W81146  18.655  16.810  14.101
12929W        W81147   9.748  44.742   1.920
12930W        W81148   7.829  28.210  10.215
12931W        W81149  42.866  25.591  10.628
12932W        W81150  24.159  24.734  13.514
12933W        W81151  44.514  17.285   0.832
12934W        W81152  28.046  40.431  14.419
12935W        W81153   0.814  35.866   3.660
12936W        W81154  25.225  10.195   1.770
12937W        W81155   4.356  17.734   5.012
12938W        W81156  15.625   7.946   2.279
12939W        W81157  24.758   0.830  12.050
12940W        W81158   6.191  24.072  14.261
12941W        W81159   8.907  37.412  14.271
12942W        W81160  11.127  29.758  11.594
12943W        W81161   0.863  28.610   4.032
12944W        W81162  20.449  36.067  12.022
12945W        W81163  42.068  41.389   2.769
12946W        W81164   5.955  12.366  13.333
12947W        W81165  28.189   2.344  10.251
12948W        W81166  40.958  12.047   4.196
12949W        W81167  17.737  26.859   2.208
12950W        W81168  31.158  36.549   1.608
12951W        W81169   6.632   7.303   0.213
12952W        W81170  43.734  43.350  13.984
12953W        W81171  13.078  36.103   5.174
12954W        W81172  30.494  12.412  13.391
12955W        W81173  44.712  24.538  14.620
12956W        W81174  34.401   1.934   0.954
12957W        W81175  12.257   1.602  13.082
12958W        W81176  19.531  26.225  10.967
12959W        W81177   7.181  29.907  11.306
12960W        W81178  20.841  14.537   5.058
12961W        W81179   3.743  36.959  14.945
12962W        W81180  26.650  33.046   0.472
12963W        W81181  23.882   3.640  11.705
12964W        W81182   9.393  24.659   1.705
12965W        W81183  22.048   3.204   3.779
12966W        W81184  17.829  27.571   4.196
12967W        W81185  17.545  12.277  13.016
12968W        W81186  19.235  32.818  13.640
12969W        W81187  28.622  17.652  12.845
12970W        W81188  30.118   9.419  10.852
12971W        W81189   7.059  30.618   0.781
12972W        W81190  11.868   3.751  14.455
12973W        W81191  27.632  33.120  12.885
12974W        W81192  18.230   0.412   4.164
12975W        W81193  44.351  28.029  11.599
12976W        W81194  40.325  37.682  12.057
12977W        W81195  41.870  28.109  10.497
12978W        W81196  19.409  18.781   1.219
12979W        W81197  39.041   0.978  12.612
12980W        W81198   5.404  24.435  12.467
12981W        W81199  43.982  18.181  11.122
12982W        W81200  30.259  22.205   2.229
12983W        W81201  22.756  14.073  12.416
12984W        W81202  28.496  41.333   4.497
12985W        W81203  26.451  15.812  12.797
12986W        W81204  12.406  35.063  13.634
12987W        W81205  15.615  37.112  12.444
12988W        W81206  28.928  30.110  12.493
12989W        W81207   4.730  11.932  11.097
12990W        W81208   3.773  17.725   2.049
12991W        W81209  36.958  44.219  14.350
12992W        W81210  12.105  11.697   1.319
12993W        W81211  21.765  14.364   3.753
12994W        W81212   2.401  40.368   1.303
12995W        W81213  28.232   8.382   1.342
12996W        W81214   8.503  24.049  14.180
12997W        W81215  21.723  30.458   2.838
12998W        W81216   2.686  41.291  11.121
12999W        W81217   7.746  20.804   0.685
13000W        W81218  26.674  43.903  14.005
13001W        W81219   8.257  43.306  11.870
13002W        W81220  28.228   3.332   1.293
13003W        W81221  14.726   2.064  10.344
13004W        W81222  29.103  30.637  11.499
13005W        W81223   3.476  23.549   1.881
13006W        W81224  31.593  23.039   1.416
13007W        W81225  29.203  23.995   3.314
13008W        W81226  35.499  40.399  12.078
13009W        W81227  23.534  21.884   1.398
13010W        W81228  32.864  29.591   3.831
13011W        W81229   4.752  11.318   3.698
13012W        W81230   3.284  32.162  12.494
13013W        W81231  19.465  39.427   0.713
13014W        W81232  14.718  26.520  13.948
13015W        W81233   0.389  35.571   3.717
13016W        W81234   1.461   9.329  10.754
13017W        W81235  36.906  11.697  13.048
13018W        W81236   6.338   1.734   2.681
13019W        W81237  28.182  44.562  13.386
13020W        W81238  41.370   0.798  12.593
13021W        W81239  40.364  17.542   4.239
13022W        W81240  14.602   9.548   2.002
13023W        W81241  42.091   2.919   3.507
13024W        W81242  42.811  16.732   3.263
13025W        W81243  31.398  44.438   4.103
13026W        W81244  10.067  39.232  11.503
13027W        W81245  40.487  28.245  13.264
13028W        W81246  42.875  11.665  12.961
13029W        W81247  13.075   3.997  11.587
13030W        W81248   6.255   8.331   3.144
13031W        W81249  17.349  12.697  14.547
13032W        W81250  30.219  38.574  11.509
13033W        W81251   1.619  41.900  12.098
13034W        W81252  18.658  35.553   3.854
13035W        W81253  41.441   7.990   1.888
13036W        W81254   3.238   5.482  12.119
13037W        W81255  27.642  17.869  14.938
13038W        W81256  10.018  30.468  10.413
13039W        W81257   8.735  15.647  14.883
13040W        W81258  37.571  42.277   4.956
13041W        W81259   6.577  18.725  14.011
13042W        W81260   4.809  32.143   2.342
13043W        W81261   5.485  24.623  13.739
13044W        W81262  16.849  39.427  10.610
13045W        W81263  37.621  12.121   4.125
13046W        W81264  25.068  13.335  11.461
13047W        W81265   3.474  33.875   3.971
13048W        W81266  36.865  29.912  11.177
13049W        W81267  30.838  11.976   0.794
13050W        W81268  15.767  24.071   2.689
13051W        W81269  37.814  40.516  12.033
13052W        W81270  22.885  23.823   1.733
13053W        W81271  31.404  38.462   2.304
13054W        W81272   7.626  10.677  12.763
13055W        W81273  31.386  29.609   2.797
13056W        W81274  10.335  29.474   3.736
13057W        W81275   2.201  44.877  13.925
13058W        W81276  12.081  40.782   4.159
13059W        W81277   3.477  33.378   0.723
13060W        W81278  11.126  22.564   2.656
13061W        W81279   7.426  44.960  14.344
13062W        W81280  10.914  11.538   3.280
13063W        W81281  26.527  32.845  14.977
13064W        W81282  32.551  17.585   4.969
13065W        W81283  21.540  33.385   2.168
13066W        W81284  11.217   4.116  12.764
13067W        W81285  35.382  14.632   2.687
13068W        W81286  21.231  25.251  14.263
13069W        W81287  19.616  33.599  13.428
13070W        W81288  38.571  37.570  12.451
13071W        W81289   8.375  28.480  12.494
13072W        W81290  23.251  15.072   0.892
13073W        W81291  27.883  22.133   1.182
13074W        W81292   6.354  19.736   4.131
13075W        W81293  25.436  28.258   2.397
13076W        W81294  43.887  42.549  11.825
13077W        W81295   2.979   1.386  10.679
13078W        W81296  39.162  20.440   1.877
13079W        W81297  11.198  32.632  12.790
13080W        W81298   6.114  15.724  14.787
13081W        W81299  30.621  33.986  12.447
13082W        W81300  41.782  27.599   4.176
13083W        W81301   3.871  26.453   1.302
13084W        W81302  36.453  31.634  11.079
13085W        W81303  28.768   5.786  10.241
13086W        W81304  29.834  22.047   3.976
13087W        W81305  30.585  37.424   2.878
13088W        W81306  20.106  25.227   2.891
13089W        W81307  35.539  25.503  13.105
13090W        W81308  12.585  16.596  14.358
13091W        W81309  11.203   7.559  12.459
13092W        W81310   2.275   0.197   3.424
13093W        W81311  28.092  29.962   0.415
13094W        W81312  12.610  18.857  12.978
13095W        W81313  42.873  42.878   4.686
13096W        W81314  40.024  18.595  12.694
13097W        W81315  16.234  18.156  12.010
13098W        W81316  14.513  43.126  10.254
13099W        W81317  16.088  27.973  14.039
13100W        W81318   0.210  40.157  11.173
13101W        W81319  37.240   0.253  12.532
13102W        W81320  40.011   2.207   0.247
13103W        W81321  17.119   1.252  12.026
13104W        W81322   7.743  26.750   0.238
13105W        W81323  41.559  33.413   1.712
13106W        W81324   6.067  41.076   4.476
13107W        W81325  20.133  31.949   1.513
13108W        W81326   0.357  43.446  13.964
13109W        W81327  14.449  34.448   4.245
13110W        W81328  29.070  37.656   2.550
13111W        W81329  18.060  22.202  11.581
13112W        W81330  11.251  16.459   1.268
13113W        W81331  35.323  35.304   4.215
13114W        W81332   0.418  11.636  11.172
13115W        W81333   4.327  24.256   1.662
13116W        W81334  37.287  12.810  11.534
13117W        W81335   7.710  26.258   1.296
13118W        W81336  20.911   8.301  13.873
13119W        W81337  19.540  30.566  11.822
13120W        W81338   7.921  11.867   0.786
13121W        W81339  19.312  19.239   2.120
13122W        W81340  13.945  20.785   2.219
13123W        W81341  32.515  16.572  12.981
13124W        W81342  25.666  27.432  13.921
13125W        W81343  39.357  20.054  14.665
13126W        W81344  32.563  27.292   2.235
13127W        W81345   3.691   8.259  12.390
13128W        W81346   3.003  35.087  13.708
13129W        W81347  23.628  39.818  12.357
13130W        W81348  10.091  20.133  12.841
13131W        W81349  37.185  22.187   2.128
13132W        W81350  24.205   3.317   0.238
13133W        W81351  22.960   1.007   1.959
13134W        W81352   3.715   5.064   0.480
13135W        W81353  20.770   6.576  14.572
13136W        W81354  20.708  24.034  10.712
13137W        W81355  29.232  21.154  13.397
13138W        W81356  34.815   4.817   4.795
13139W        W81357  29.411  29.031  11.203
13140W        W81358   6.415  29.464   3.615
13141W        W81359  27.532  16.360   1.869
13142W        W81360   8.182  27.912  11.090
13143W        W81361   7.958  13.237   2.380
13144W        W81362  42.062   7.403  13.705
13145W        W81363  13.372  26.252   0.260
13146W        W81364  21.040   1.731   0.455
13147W        W81365  10.665   8.419  11.790
13148W        W81366   3.326  27.250   3.683
13149W        W81367  25.933  33.411  14.776
13150W        W81368  17.719  18.213  14.891
13151W        W81369  20.659  38.316   4.791
13152W        W81370  14.706  25.692   2.694
13153W        W81371  34.365  22.749  14.880
13154W        W81372   0.701  26.581   9.974
13155W        W81373   7.399  33.891   2.792
13156W        W81374   3.950   8.554   2.438
13157W        W81375  18.530  13.251  10.860
13158W        W81376   1.296  32.670  13.447
13159W        W81377  22.725   3.477  14.822
13160W        W81378  39.662   9.639  12.948
13161W        W81379  10.549  39.194   0.089
13162W        W81380  35.011  34.000  14.765
13163W        W81381   7.150  17.222  12.908
13164W        W81382  14.618  26.623  13.415
13165W        W81383  34.520  44.336   2.733
13166W        W81384  26.712  38.873   1.261
13167W        W81385   1.046  35.398   3.677
13168W        W81386  41.028  14.063  11.211
13169W        W81387   3.972  21.784   4.104
13170W        W81388  12.406   5.859   2.976
13171W        W81389  39.454  32.827  11.121
13172W        W81390  37.432  41.516  13.679
13173W        W81391  30.594  26.416   3.760
13174W        W81392  39.514  36.651   3.064
13175W        W81393  34.642  15.416   5.110
13176W        W81394  29.948  14.257  14.547
13177W        W81395  15.229   9.828  12.086
13178W        W81396  44.310  22.540   4.501
13179W        W81397  36.254  27.795  11.899
13180W        W81398  10.291  13.781  14.480
13181W        W81399   5.244  44.326   4.123
13182W        W81400  34.363  25.211  14.399
13183W        W81401  40.928  17.050  11.982
13184W        W81402  32.936  17.836  11.173
13185W        W81403   2.965   2.944   2.471
13186W        W81404  41.246  21.884  12.436
13187W        W81405  20.640  42.220  14.052
13188W        W81406  10.732   8.496  10.367
13189W        W81407  11.792  27.443  11.738
13190W        W81408  26.439  37.296   3.406
13191W        W81409  18.244   4.031   4.203
13192W        W81410   3.838  43.675  14.802
13193W        W81411  21.542   5.430   1.652
13194W        W81412  36.430  26.243   4.132
13195W        W81413  34.835   1.607   3.698
13196W        W81414  44.659  13.307   1.211
13197W        W81415   6.300  42.977   0.421
13198W        W81416  40.799  21.278  12.279
13199W        W81417   0.552  13.380   2.230
13200W        W81418   1.459   9.083   0.760
13201W        W81419   7.775  44.822   0.768
13202W        W81420  39.476  31.147   4.149
13203W        W81421  24.183  21.709  13.030
13204W        W81422   3.834  40.643   3.987
13205W        W81423   9.317   1.579  11.020
13206W        W81424  43.911   5.668  14.654
13207W        W81425   8.414   8.870   4.606
13208W        W81426  10.296   0.957  13.884
13209W        W81427  40.969  30.601   1.674
13210W        W81428  30.657  17.583  13.089
13211W        W81429  25.523  26.617  12.837
13212W        W81430  23.213  38.780   3.009
13213W        W81431   2.567   5.662   1.493
13214W        W81432  11.654  44.419   4.213
13215W        W81433  10.649   4.438  10.438
13216W        W81434  12.701   2.467   1.875
13217W        W81435  15.289  21.655  10.948
13218W        W81436   3.277  34.914   1.263
13219W        W81437  31.655   2.334  12.044
13220W        W81438  32.382   3.284  11.922
13221W        W81439   8.218  17.060   1.807
13222W        W81440  14.827  38.657   3.691
13223W        W81441  10.241  27.777   2.186
13224W        W81442   4.790  33.877   2.855
13225W        W81443  15.100  27.350  14.538
13226W        W81444  14.201   4.128   2.881
13227W        W81445   4.706  40.310  12.674
13228W        W81446  14.257   6.063   0.927
13229W        W81447  18.218  11.522  10.344
13230W        W81448  26.634  38.592   0.826
13231W        W81449  40.100  10.156  10.780
13232W        W81450  11.814  41.724   0.886
13233W        W81451   6.785  14.265   4.739
13234W        W81452  27.572  16.619   0.426
13235W        W81453   9.116  38.446   2.230
13236W        W81454  28.564  32.626  11.105
13237W        W81455  38.795  15.812  13.094
13238W        W81456  13.825  19.688  13.770
13239W        W81457  35.624  23.772   0.420
13240W        W81458  42.088  39.499   4.918
13241W        W81459  20.127   1.712  11.206
13242W        W81460  15.812  44.960   1.320
13243W        W81461   8.444   2.647   4.806
13244W        W81462  17.305  37.458   3.574
13245W        W81463   5.505  21.021   3.495
13246W        W81464  27.144  32.357   3.962
13247W        W81465  36.204  20.764   2.420
13248W        W81466  21.520  44.549   2.736
13249W        W81467  32.981  14.662   3.224
13250W        W81468   9.757  29.921   3.882
13251W        W81469   3.441  43.179   1.146
13252W        W81470   6.898  24.021   3.687
13253W        W81471   4.998  14.715   2.302
13254W        W81472  43.505  35.344  10.812
13255W        W81473  25.367  40.556  14.202
13256W        W81474   5.081  34.432   1.241
13257W        W81475  18.343   0.499  14.427
13258W        W81476   1.561   1.714  13.022
13259W        W81477  30.738  12.571  10.849
13260W        W81478  26.409  44.419   0.741
13261W        W81479   8.442  20.566  11.948
13262W        W81480  10.426   4.240   3.849
13263W        W81481  18.630  28.416   2.367
13264W        W81482  22.550   9.706   2.316
13265W        W81483   7.283  25.913   4.276
13266W        W81484  37.999   1.734  11.690
13267W        W81485  26.520  27.504   3.344
13268W        W81486   2.052  18.721  13.420
13269W        W81487  23.210  32.039   3.052
13270W        W81488  27.994  39.931   4.086
13271W        W81489  35.812  22.858   2.266
13272W        W81490   2.030  21.045   4.057
13273W        W81491  25.408  38.554  12.714
13274W        W81492  10.599  28.522  12.034
13275W        W81493  25.457  12.246   3.185
13276W        W81494  27.997  35.619   2.563
13277W        W81495  18.298  39.192  13.820
13278W        W81496  27.612  44.395  12.614
13279W        W81497  32.345  34.357   2.150
13280W        W81498  38.145  25.946  10.526
13281W        W81499  22.501  33.392  12.094
13282W        W81500   7.890   4.470   0.056
13283W        W81501  40.326  16.636  13.082
13284W        W81502  11.706   7.188  10.828
13285W        W81503  33.424  28.684   0.270
13286W        W81504  10.248  19.472  11.627
13287W        W81505  32.527  17.187   2.326
13288W        W81506  24.982  24.798   1.735
13289W        W81507  30.604  39.391  11.063
13290W        W81508  33.044  39.029  14.109
13291W        W81509  42.492  11.791   0.166
13292W        W81510   6.829  18.327   1.764
13293W        W81511  40.531   4.992   4.824
13294W        W81512   7.810  18.467  12.356
13295W        W81513  36.432   8.865  13.895
13296W        W81514  25.024  33.387  12.418
13297W        W81515  36.465  41.193   0.941
13298W        W81516  34.814  17.211  11.606
13299W        W81517   8.730   1.711  11.908
13300W        W81518  22.213  29.412   1.342
13301W        W81519  34.675  13.365  12.386
13302W        W81520   7.251  27.210  13.040
13303W        W81521  42.289  30.361   1.440
13304W        W81522   0.273  28.612   2.775
13305W        W81523  42.184  35.653  11.049
13306W        W81524  19.132  18.095  14.416
13307W        W81525  21.106   7.264   2.337
13308W        W81526   9.988  11.837   4.465
13309W        W81527  27.729  14.259  14.018
13310W        W81528  14.425  38.598   1.797
13311W        W81529   6.681  14.778  12.552
13312W        W81530   6.412  42.523   4.401
13313W        W81531  41.680  19.321  14.755
13314W        W81532   1.304  36.876  12.050
13315W        W81533  40.423  30.578  14.032
13316W        W81534   5.843  42.821  12.319
13317W        W81535   1.639  39.139   4.159
13318W        W81536  29.547  44.249   0.477
13319W        W81537   1.765  29.465  13.330
13320W        W81538  22.853  29.044  13.928
13321W        W81539  42.362  31.590   2.083
13322W        W81540  28.384  20.034   3.210
13323W        W81541   0.313  15.126  11.776
13324W        W81542  17.751  22.627  14.260
13325W        W81543   8.660  13.375   1.832
13326W        W81544  12.763  13.356   2.385
13327W        W81545  13.295  39.113   4.782
13328W        W81546  17.753  37.383   4.895
13329W        W81547  17.331  14.827   2.325
13330W        W81548  11.659  43.977   2.238
13331W        W81549   0.784  33.966  13.317
13332W        W81550  20.015   6.497  14.000
13333W        W81551  36.044  17.547  12.458
13334W        W81552  34.514   9.651  10.546
13335W        W81553  25.119  17.116   1.258
13336W        W81554  32.957   2.273   3.295
13337W        W81555  32.120  10.602   3.221
13338W        W81556  14.813   7.289   2.346
13339W        W81557  41.895  44.343   3.101
13340W        W81558  25.091  24.253  10.259
13341W        W81559  14.513  39.099   1.566
13342W        W81560  35.818  21.699  11.568
13343W        W81561  35.972  22.468   2.558
13344W        W81562  31.149  10.602  12.468
13345W        W81563   6.767  42.072  12.992
13346W        W81564  32.125  15.991   1.515
13347W        W81565  41.370  40.756  14.767
13348W        W81566  36.051   0.198  12.110
13349W        W81567   4.361  10.353  10.476
13350W        W81568   6.761   3.394  13.916
13351W        W81569  37.400   6.958   2.319
13352W        W81570  35.556  43.912   4.155
13353W        W81571  24.239  42.839   0.537
13354W        W81572  13.782  38.612   2.441
13355W        W81573   1.577  16.744   0.230
13356W        W81574  24.554  27.018  13.680
13357W        W81575  44.208  44.450   1.685
13358W        W81576  42.559  28.092   1.166
13359W        W81577  24.588  34.464   4.895
13360W        W81578   4.111  27.108   0.769
13361W        W81579   6.285  34.919   1.817
13362W        W81580  22.904  23.050  10.171
13363W        W81581  39.833  43.337   3.207
13364W        W81582  33.351  27.996   2.356
13365W        W81583   7.450  29.546   1.364
13366W        W81584   4.985  36.748   3.807
13367W        W81585  29.644  25.092  10.320
13368W        W81586  23.474  44.669   4.570
13369W        W81587  23.096  27.263   0.396
13370W        W81588  27.454  37.010   0.845
13371W        W81589  29.659  25.642   2.619
13372W        W81590  31.888  17.193   1.732
13373W        W81591   9.495  13.972  11.042
13374W        W81592  28.248  18.455   9.794
13375W        W81593  40.863  11.302   2.937
13376W        W81594  28.371   0.647  14.859
13377W        W81595  10.177  11.468   0.191
13378W        W81596  26.744   3.077  11.614
13379W        W81597  22.332  16.297  14.301
13380W        W81598  31.165  16.293  12.282
13381W        W81599  41.508  38.450   4.797
13382W        W81600  36.807  41.914  12.410
13383W        W81601   0.825  40.155   0.852
13384W        W81602  38.705  31.895   4.452
13385W        W81603  19.558  30.977   0.894
13386W        W81604  36.132  28.392  10.090
13387W        W81605  42.271   5.147   4.754
13388W        W81606  29.978  27.927   2.902
13389W        W81607  41.386  10.838  13.895
13390W        W81608  36.329  42.553   1.475
13391W        W81609  40.977  34.408   1.319
13392W        W81610  39.876  25.980  12.155
13393W        W81611   9.870  22.212   0.342
13394W        W81612  40.290  16.526   1.213
13395W        W81613   2.336  34.442   1.642
13396W        W81614  10.091  43.202  11.053
13397W        W81615  21.522   5.947  14.397
13398W        W81616  40.567  10.661   1.390
13399W        W81617  23.470   4.039   2.364
13400W        W81618  20.153  18.536   1.841
13401W        W81619  27.199  44.410  12.314
13402W        W81620  33.106  17.003  14.379
13403W        W81621  34.229   2.309  14.230
13404W        W81622   6.203  26.458  12.160
13405W        W81623  30.960   2.474   5.010
13406W        W81624  35.233  44.508   0.383
13407W        W81625  43.892  35.067   2.781
13408W        W81626  44.709   5.440  12.371
13409W        W81627  28.469   3.738  10.716
13410W        W81628  20.569   7.463   4.328
13411W        W81629  11.578  40.872  11.123
13412W        W81630  42.283  30.230   2.382
13413W        W81631  32.557  22.575  13.431
13414W        W81632  20.866   8.482   3.774
13415W        W81633  37.428  31.025  10.714
13416W        W81634  23.214  32.435   0.434
13417W        W81635  15.336  23.642  12.354
13418W        W81636  15.113  12.631  14.427
13419W        W81637  40.447  30.512   1.944
13420W        W81638  44.652  34.378   0.906
13421W        W81639  39.930  39.194   2.404
13422W        W81640  44.900   2.916   4.707
13423W        W81641  44.966   4.480  13.871
13424W        W81642  21.808   7.289   0.641
13425W        W81643  36.912  44.451  12.079
13426W        W81644  12.444  31.676   3.610
13427W        W81645  12.720  10.108   2.165
13428W        W81646  28.474  31.485  11.558
13429W        W81647   2.845  35.616   1.471
13430W        W81648  30.978   0.982   1.807
13431W        W81649  18.573   1.298   0.747
13432W        W81650  18.218  43.558  10.316
13433W        W81651   1.535  26.991   3.374
13434W        W81652   9.725  16.663   0.772
13435W        W81653   5.492  26.069   4.103
13436W        W81654  37.576  14.284  11.230
13437W        W81655  20.305  13.357   2.671
13438W        W81656  41.826  30.015   0.662
13439W        W81657  37.333  10.819  12.932
13440W        W81658  18.817  25.702   3.549
13441W        W81659   4.990  15.136  12.133
13442W        W81660   3.150  34.633   2.440
13443W        W81661   4.906  30.540  12.917
13444W        W81662  19.722  26.581  10.305
13445W        W81663   9.155  31.011  14.350
13446W        W81664   2.289  32.935  14.966
13447W        W81665  10.128   8.688   4.035
13448W        W81666  37.121  29.255  11.405
13449W        W81667  27.341  17.255  11.106
13450W        W81668  22.446  29.994   3.380
13451W        W81669  19.648  22.618   5.063
13452W        W81670  25.563   8.379   1.826
13453W        W81671  26.444  19.021  13.408
13454W        W81672  23.590  34.764  14.962
13455W        W81673  27.418  22.595   2.284
13456W        W81674  19.553  35.533   4.139
13457W        W81675   7.728  33.445   1.028
13458W        W81676  12.084  27.569   0.046
13459W        W81677   5.302  21.245   1.189
13460W        W81678  17.005  34.970   5.382
13461W        W81679  39.464  33.166  12.753
13462W        W81680  33.438   8.977   1.718
13463W        W81681  33.071   4.397   1.373
13464W        W81682   6.363  14.123   2.110
13465W        W81683  36.955   3.779   0.883
13466W        W81684  30.479  20.844  14.039
13467W        W81685  33.976  25.428  11.480
13468W        W81686  18.464  43.997  14.937
13469W        W81687  17.208  10.073  11.023
13470W        W81688  32.960  31.970  10.999
13471W        W81689  25.375   8.381  12.861
13472W        W81690   7.742  14.085   1.352
13473W        W81691  11.297  16.224  14.903
13474W        W81692  36.906  40.563   0.760
13475W        W81693  43.118  40.046  12.411
13476W        W81694  38.956  16.802   2.842
13477W        W81695  24.817  30.013  14.914
13478W        W81696  31.618  17.026   3.165
13479W        W81697   9.379  33.926   4.506
13480W        W81698  24.236  25.360   1.241
13481W        W81699  28.605   0.686  12.952
13482W        W81700   0.033   1.235   4.313
13483W        W81701   8.808  10.404   3.611
13484W        W81702  44.727  17.159   0.371
13485W        W81703  26.391  22.653   2.238
13486W        W81704  11.677  34.058  10.682
13487W        W81705   8.677  18.307  11.592
13488W        W81706  42.839  41.681  14.537
13489W        W81707  41.669   0.959  14.040
13490W        W81708   6.118   5.937  11.589
13491W        W81709   5.490   6.242  11.526
13492W        W81710  27.648   9.751  12.196
13493W        W81711  38.242  22.435  12.541
13494W        W81712  30.207   7.977  12.374
13495W        W81713  34.627  18.840   4.821
13496W        W81714  24.792  35.674  13.538
13497W        W81715  15.176   3.164  14.666
13498W        W81716   0.952  25.300   2.651
13499W        W81717  11.451   6.657   0.613
13500W        W81718  28.153   3.205  11.112
13501W        W81719  37.786  41.618   0.725
13502W        W81720  43.143  44.813   3.830
13503W        W81721   9.377   9.110  14.261
13504W        W81722   8.727  14.415   4.023
13505W        W81723  42.047  33.148   0.001
13506W        W81724   7.632   9.258   0.936
13507W        W81725  30.024  40.060   3.844
13508W        W81726  36.125  18.735  11.908
13509W        W81727  30.439  24.253  14.014
13510W        W81728  15.939  37.591   3.968
13511W        W81729  26.910   9.413   2.201
13512W        W81730   1.383   2.057   0.593
13513W        W81731  33.528  39.389  10.646
13514W        W81732  41.418  43.475  12.131
13515W        W81733  24.515  35.027   4.245
13516W        W81734  32.711  43.232  14.744
13517W        W81735  28.921  31.906  13.488
13518W        W81736  28.066   2.090   5.083
13519W        W81737   0.743  15.245   3.412
13520W        W81738  22.647  38.931   5.080
13521W        W81739   6.750  24.275   1.792
13522W        W81740  37.378  31.741   0.852
13523W        W81741  26.847   9.867   4.618
13524W        W81742   4.463   8.182   3.724
13525W        W81743   0.586  15.463  14.809
13526W        W81744  17.186  38.352  14.449
13527W        W81745  42.075   6.235  13.415
13528W        W81746  44.583  27.146  11.644
13529W        W81747  11.217  33.898   0.707
13530W        W81748  11.478  32.994   0.252
13531W        W81749  14.350  41.324  12.845
13532W        W81750  32.112  20.349   2.813
13533W        W81751   8.905  10.034   3.267
13534W        W81752   5.053  42.915   5.077
13535W        W81753  34.400  34.622  14.344
13536W        W81754  44.457  40.989  12.961
13537W        W81755  26.564  17.558   0.920
13538W        W81756  20.281   3.302   4.073
13539W        W81757  18.798   3.412   4.573
13540W        W81758  44.398  40.010   4.519
13541W        W81759   2.263  36.896   2.685
13542W        W81760   8.157  11.214  12.007
13543W        W81761  13.357  10.322  11.889
13544W        W81762  19.804  37.102   0.846
13545W        W81763  19.089  36.663  11.173
13546W        W81764  37.843  34.350   4.035
13547W        W81765  11.046  17.251  12.949
13548W        W81766  10.431  42.369  12.906
13549W        W81767  42.260  33.334  13.957
13550W        W81768  34.018  34.614   3.707
13551W        W81769   0.555  10.799  13.484
13552W        W81770  33.943   7.177  14.321
13553W        W81771  15.345  19.749  13.822
13554W        W81772  33.373  29.920   0.946
13555W        W81773  40.364   0.257  10.292
13556W        W81774  11.932  15.747   0.508
13557W        W81775  17.393  19.613  12.066
13558W        W81776   3.941  28.043  12.567
13559W        W81777  39.217  11.784   2.007
13560W        W81778   4.842   6.153   2.517
13561W        W81779   0.831  24.554   3.259
13562W        W81780  22.441  26.605  14.354
13563W        W81781  30.916  24.632   3.131
13564W        W81782  21.813  11.227  10.746
13565W        W81783  35.438  30.478  11.052
13566W        W81784  39.275  19.698   2.807
13567W        W81785   6.188   0.732  11.530
13568W        W81786   1.510  13.112   2.824
13569W        W81787  28.222   8.760   0.196
13570W        W81788  12.311  37.295   2.791
13571W        W81789  12.021  23.001  14.352
13572W        W81790  19.771  30.100   1.216
13573W        W81791  11.793   1.440  11.886
13574W        W81792  35.847   5.009  13.853
13575W        W81793  35.473  31.893  12.658
13576W        W81794  13.995  33.563  14.076
13577W        W81795  16.304   6.593  11.429
13578W        W81796  22.637   3.141   0.226
13579W        W81797   6.192  41.447   2.200
13580W        W81798  15.161  44.307   4.152
13581W        W81799  10.273   8.737   1.773
13582W        W81800  29.453  25.932   2.182
13583W        W81801   3.122  25.564  12.518
13584W        W81802  10.906  35.695  12.418
13585W        W81803  17.264  34.583  11.621
13586W        W81804  11.485  29.125  12.787
13587W        W81805  15.767  26.979  12.479
13588W        W81806   0.338  25.978  11.076
13589W        W81807  21.094   8.700   4.240
13590W        W81808  20.611  39.070   3.298
13591W        W81809  16.870   1.729  13.275
13592W        W81810   1.489  37.534   3.439
13593W        W81811  25.320  14.593  14.408
13594W        W81812  26.285  15.369   2.774
13595W        W81813   8.353  11.342  13.881
13596W        W81814  44.165  13.336   1.990
13597W        W81815  39.512   0.433   1.871
13598W        W81816  20.295   9.094  13.473
13599W        W81817  31.424  15.240   3.110
13600W        W81818   0.332  28.429  12.844
13601W        W81819   2.001  30.456  14.679
13602W        W81820  18.835   1.367   3.445
13603W        W81821   0.971  22.705   0.340
13604W        W81822  20.117   2.201   1.319
13605W        W81823  19.046  40.472  10.689
13606W        W81824  36.608  23.022  12.530
13607W        W81825  32.560  27.216   1.731
13608W        W81826  26.133  19.837   4.887
13609W        W81827  17.548   6.666   4.656
13610W        W81828   4.904  21.795   3.688
13611W        W81829  26.093  19.971  10.759
13612W        W81830  32.402   8.338   0.740
13613W        W81831  31.058  11.122   0.639
13614W        W81832  44.006   9.219   1.460
13615W        W81833  31.191   4.990   1.803
13616W        W81834  12.172  19.144   2.609
13617W        W81835  18.869  44.222   2.763
13618W        W81836  12.691   6.418   0.886
13619W        W81837  29.472   0.251   2.446
13620W        W81838  36.451  32.259   2.847
13621W        W81839   9.934   2.138   1.188
13622W        W81840  30.966  40.190  12.021
13623W        W81841   9.153  22.929   2.175
13624W        W81842   2.748  32.561   4.290
13625W        W81843  40.502  37.885   4.120
13626W        W81844   3.256  33.301   4.024
13627W        W81845  34.893  33.589   3.751
13628W        W81846  39.537  26.428   4.553
13629W        W81847  25.057  21.636   4.602
13630W        W81848  24.974  33.370  14.528
13631W        W81849   4.440  35.569   1.906
13632W        W81850  20.948   4.502  11.348
13633W        W81851  27.456  23.465  11.337
13634W        W81852   2.203  25.531  14.525
13635W        W81853  27.495  41.747  11.109
13636W        W81854  18.713  27.495  11.449
13637W        W81855  35.982   0.304   1.259
13638W        W81856  20.177  10.185  14.553
13639W        W81857  29.686   6.173   3.159
13640W        W81858  44.811  16.622   3.359
13641W        W81859   0.100  39.033  11.231
13642W        W81860  25.981  41.012  11.100
13643W        W81861  10.131  18.095  12.021
13644W        W81862   7.052  44.517  14.908
13645W        W81863   0.026  15.285   2.651
13646W        W81864   5.666  24.217  14.914
13647W        W81865  36.818  36.096  12.683
13648W        W81866  36.025  44.816   3.218
13649W        W81867  16.544  41.345  11.693
13650W        W81868  17.808  33.397  12.328
13651W        W81869  34.957   8.733  11.682
13652W        W81870  37.965  10.150   1.420
13653W        W81871  16.742  28.465   3.477
13654W        W81872  35.825  34.988  14.362
13655W        W81873   9.710  31.706  11.966
13656W        W81874   3.463   1.228   3.605
13657W        W81875  11.229  42.004   2.235
13658W        W81876  31.153  20.953  10.297
13659W        W81877  21.585  32.961  14.573
13660W        W81878  11.974  16.853   4.054
13661W        W81879  41.834   3.674  10.508
13662W        W81880  41.207  24.744  10.967
13663W        W81881   6.841   7.475  11.123
13664W        W81882  41.797   9.062  10.697
13665W        W81883  43.124  12.163  12.079
13666W        W81884   7.943  18.118   0.509
13667W        W81885   1.771  25.356  13.017
13668W        W81886   7.316  26.920  10.540
13669W        W81887  29.271  11.191  14.943
13670W        W81888  22.268  18.985  11.275
13671W        W81889   9.304  27.363   3.309
13672W        W81890  44.271  16.520   2.724
13673W        W81891  30.205   9.183  11.721
13674W        W81892  16.368  11.673   2.525
13675W        W81893  12.325   6.364  11.985
13676W        W81894  12.633  41.433  10.608
13677W        W81895  25.880  43.495   1.443
13678W        W81896  39.459  12.224  10.899
13679W        W81897  30.010  33.973   0.491
13680W        W81898  12.909  20.009  13.420
13681W        W81899  41.016  26.516   0.483
13682W        W81900  23.528  10.880   3.113
13683W        W81901   9.332  34.173  13.928
13684W        W81902  38.412   6.730   2.878
13685W        W81903  11.857   9.829   4.065
13686W        W81904  36.899  35.932  13.922
13687W        W81905  42.047  21.606  13.447
13688W        W81906  11.789   3.271  11.269
13689W        W81907  21.982  15.793   4.311
13690W        W81908   6.605  12.246  12.027
13691W        W81909   4.262  19.364  12.430
13692W        W81910  43.333  43.330   0.508
13693W        W81911  27.772  12.194  13.797
13694W        W81912  14.826   6.617   2.281
13695W        W81913  20.530  21.378   2.717
13696W        W81914  32.130  21.158  14.520
13697W        W81915  16.055  42.236   2.337
13698W        W81916  23.094  39.417   2.179
13699W        W81917  25.726   6.361  11.633
13700W        W81918  24.195  20.099   3.416
13701W        W81919  25.950  32.898  11.143
13702W        W81920  15.312  39.987   4.272
13703W        W81921  44.514  25.721   2.233
13704W        W81922  13.393  39.496   2.845
13705W        W81923  31.213  36.069   1.456
13706W        W81924  19.282  24.775  11.646
13707W        W81925  16.562  12.859   2.668
13708W        W81926  36.577  33.905  10.748
13709W        W81927  36.938  26.037  14.028
13710W        W81928  24.699  44.505  12.966
13711W        W81929  43.249   6.184  11.208
13712W        W81930  43.363   6.868  13.097
13713W        W81931   0.193  29.120   2.650
13714W        W81932  20.118  16.190   2.773
13715W        W81933  40.452  28.534  11.005
13716W        W81934  33.100  34.002  12.578
13717W        W81935  28.757   9.696   3.851
13718W        W81936  33.505  33.044   0.544
13719W        W81937  11.677   2.766  10.411
13720W        W81938  22.967  17.571  11.479
13721W        W81939   5.410   5.607   4.569
13722W        W81940   8.903   6.761  13.944
13723W        W81941  21.312  36.975   3.105
13724W        W81942  17.653  37.846   4.051
13725W        W81943  33.879  19.973  12.975
13726W        W81944  32.927   2.390  10.998
13727W        W81945   8.682   3.415   3.730
13728W        W81946  18.378  27.520  13.951
13729W        W81947  16.317   5.368  10.661
13730W        W81948  32.498   3.082  13.932
13731W        W81949  38.043   6.787  12.694
13732W        W81950  35.953  33.814   1.896
13733W        W81951  10.136  41.862   0.696
13734W        W81952  34.803  15.592  10.290
13735W        W81953  41.846  17.870  13.471
13736W        W81954   4.795   2.401   3.382
13737W        W81955   9.905  37.809  14.309
13738W        W81956  37.555   7.740   3.493
13739W        W81957   8.807   9.770  13.520
13740W        W81958  13.481  14.700   4.584
13741W        W81959  13.799  44.295  14.333
13742W        W81960  28.083  22.556  13.908
13743W        W81961  14.741   8.803   4.829
13744W        W81962  41.286  18.294   4.603
13745W        W81963  16.588  24.733  14.087
13746W        W81964   8.254  33.641   2.921
13747W        W81965  12.721  17.853   1.805
13748W        W81966   2.825  35.603   3.663
13749W        W81967   0.269  13.306  11.212
13750W        W81968  43.026  27.393   1.345
13751W        W81969  42.073  17.586  14.414
13752W        W81970  10.234  12.583   2.538
13753W        W81971  19.339  41.760  11.992
13754W        W81972  27.937   2.201   3.135
13755W        W81973  40.502  18.751  12.944
13756W        W81974  33.439  26.095  11.655
13757W        W81975   3.908  37.109   0.453
13758W        W81976  12.399  35.997   4.052
13759W        W81977   7.319  12.361   0.483
13760W        W81978  32.434  23.946   2.698
13761W        W81979  25.948  15.133  12.170
13762W        W81980  33.023  28.392   0.394
13763W        W81981  23.105  21.535  11.377
13764W        W81982  42.925  27.334  11.004
13765W        W81983  16.672  42.901   2.642
13766W        W81984   9.650  41.250  11.153
13767W        W81985   8.686  16.738   2.331
13768W        W81986   1.269  27.990  14.411
13769W        W81987  38.534  39.198  11.437
13770W        W81988  12.161  43.286  11.028
13771W        W81989  10.787  30.950  13.476
13772W        W81990  30.040  38.253   4.132
13773W        W81991   3.719   8.203   0.931
13774W        W81992  24.044   0.348  13.955
13775W        W81993  26.291  11.223  14.807
13776W        W81994   2.334  16.682  12.322
13777W        W81995  30.597  26.623  10.152
13778W        W81996  21.969  42.896  11.448
13779W        W81997  25.266  14.051  12.610
13780W        W81998  44.939   8.946   1.331
13781W        W81999  12.143  32.591   1.352
13782W        W82000  20.203  31.834  10.153
13783W        W82001  14.338  21.611   5.117
13784W        W82002   7.946  29.099   0.801
13785W        W82003  28.966  21.909  10.694
13786W        W82004   3.141  22.170   0.720
13787W        W82005  34.086  31.367   0.395
13788W        W82006  44.576  37.452  14.313
13789W        W82007  29.097   8.827   0.211
13790W        W82008  25.064  12.758   0.433
13791W        W82009  29.238  32.901  14.521
13792W        W82010  38.768  27.916  11.645
13793W        W82011  23.528   4.909  13.495
13794W        W82012  30.474   7.975   1.874
13795W        W82013   8.918  34.069  10.338
13796W        W82014  21.204  11.907   3.676
13797W        W82015  19.056  36.549   3.196
13798W        W82016   4.391  30.160  14.907
13799W        W82017  17.723  33.064   1.941
13800W        W82018  14.255  19.605  10.743
13801W        W82019  30.615  15.082   3.679
13802W        W82020   5.577   6.297   0.329
13803W        W82021  26.446  36.457   1.642
13804W        W82022  31.047   0.305   2.626
13805W        W82023  23.941  26.196  13.326
13806W        W82024   2.254  43.553   2.384
13807W        W82025  32.144  21.271   3.125
13808W        W82026  22.389  29.588   2.161
13809W        W82027  41.944   7.798   0.444
13810W        W82028  14.596  18.885   2.333
13811W        W82029  19.591  11.866  12.603
13812W        W82030  15.208  29.952  13.529
13813W        W82031   6.686  15.038   2.183
13814W        W82032  21.166  28.154   4.134
13815W        W82033  25.954  11.871  14.098
13816W        W82034  40.459  16.148   0.897
13817W        W82035  18.150  42.289   3.182
13818W        W82036  34.122  32.270  10.744
13819W        W82037  28.509  43.876  12.408
13820W        W82038  36.122  13.256  14.418
13821W        W82039  19.183  12.604  13.076
13822W        W82040  24.931  13.291  13.331
13823W        W82041  43.468  18.043   3.361
13824W        W82042  38.587  44.871  13.704
13825W        W82043  31.336   8.777   2.427
13826W        W82044  17.097  23.683   0.469
13827W        W82045  18.904  43.305   4.360
13828W        W82046   4.850  40.237  14.804
13829W        W82047  11.119  35.806   2.842
13830W        W82048  17.161  41.827  12.073
13831W        W82049  25.555  41.506  10.682
13832W        W82050   2.442  11.759  11.633
13833W        W82051  32.940  33.799  11.211
13834W        W82052  42.100  44.262  14.279
13835W        W82053  20.097   5.028   0.043
13836W        W82054   1.018   5.683   2.364
13837W        W82055  33.108  35.508   4.557
13838W        W82056  25.486  19.481   1.259
13839W        W82057  30.874  21.115  10.724
13840W        W82058  12.110  22.117  13.754
13841W        W82059  39.333  11.789  11.684
13842W        W82060   4.387   8.683   1.032
13843W        W82061  31.033  19.466  14.864
13844W        W82062  28.512  43.612  11.052
13845W        W82063  20.697  14.129   2.878
13846W        W82064  12.798   5.154   3.279
13847W        W82065  12.499  35.231  14.132
13848W        W82066  30.808  31.984  12.319
13849W        W82067  37.107  10.898   0.142
13850W        W82068   1.837  32.437   3.354
13851W        W82069  43.725   6.873   1.358
13852W        W82070  33.872  18.608  14.824
13853W        W82071  30.417  10.102  14.418
13854W        W82072  36.795  18.714   0.310
13855W        W82073  44.227  14.976  13.235
13856W        W82074   5.781  20.228   3.568
13857W        W82075  38.840  29.465  11.139
13858W        W82076  24.357   5.917  12.652
13859W        W82077  11.609  12.663  13.925
13860W        W82078   5.289  42.979   0.655
13861W        W82079  13.130   3.380   5.047
13862W        W82080  38.058  29.549   0.729
13863W        W82081   4.885  31.889   2.784
13864W        W82082   1.899  18.244  10.618
13865W        W82083  31.273   5.457   4.716
13866W        W82084  23.635  22.378   1.444
13867W        W82085  38.163  17.203   3.670
13868W        W82086  16.905   7.686   0.514
13869W        W82087  12.643  18.616  14.803
13870W        W82088  41.494   7.277  12.691
13871W        W82089  33.081  20.437  14.765
13872W        W82090   8.968   6.685   1.164
13873W        W82091  26.034  20.271   0.247
13874W        W82092   8.293  31.405   1.950
13875W        W82093   6.405   3.391   0.436
13876W        W82094  25.109  28.490   1.291
13877W        W82095  42.811   1.094  12.604
13878W        W82096  39.086   1.767   3.741
13879W        W82097   9.890  19.997   1.027
13880W        W82098  39.844  15.080  14.035
13881W        W82099  18.358   2.508   1.659
13882W        W82100  44.874   2.034   3.822
13883W        W82101  16.442  27.650  14.800
13884W        W82102   3.503   1.871  13.118
13885W        W82103   0.287  34.054  12.582
13886W        W82104  12.137  42.812  11.496
13887W        W82105  24.159  23.613  11.133
13888W        W82106  23.841   1.360   3.613
13889W        W82107  31.710   0.223  14.865
13890W        W82108  36.216  44.815   2.246
13891W        W82109  32.950  25.231  13.469
13892W        W82110  31.246  20.649   2.377
13893W        W82111  15.786  28.630   0.743
13894W        W82112  14.324   2.291  11.642
13895W        W82113  10.229  27.424  12.671
13896W        W82114  34.181  39.514  14.903
13897W        W82115   6.901  43.684  10.575
13898W        W82116  16.545  31.482   3.182
13899W        W82117   0.399   4.518  14.181
13900W        W82118  40.378  33.064  12.854
13901W        W82119  40.922   8.931   4.568
13902W        W82120  23.202  28.140   2.736
13903W        W82121  15.279  11.410   3.324
13904W        W82122   6.297  38.516  13.869
13905W        W82123   8.641  44.624  12.835
13906W        W82124   4.304   1.251   0.532
13907W        W82125  42.270   7.277   3.647
13908W        W82126  34.055   5.630  13.562
13909W        W82127  21.944  37.781  11.257
13910W        W82128   1.330  27.986  13.265
13911W        W82129  36.556  21.071   0.733
13912W        W82130  30.837  41.914  14.219
13913W        W82131  37.148  33.812  14.305
13914W        W82132  21.109   6.253  12.183
13915W        W82133  21.062  32.115   4.590
13916W        W82134  21.275  14.068   2.728
13917W        W82135  35.505   9.826   3.445
13918W        W82136  30.456   9.941   0.011
13919W        W82137   8.251  15.048  10.045
13920W        W82138   4.270   4.842   3.410
13921W        W82139  34.604  35.507   3.721
13922W        W82140   9.973  13.089  13.135
13923W        W82141  29.151  42.320  13.172
13924W        W82142  43.621  36.656   3.110
13925W        W82143  34.904   0.251   0.702
13926W        W82144  33.059  13.605   4.097
13927W        W82145  44.239   7.950  14.900
13928W        W82146   2.142   2.793  11.107
13929W        W82147   4.678  15.319  10.300
13930W        W82148  19.906   1.666  10.728
13931W        W82149  34.993  37.581  14.829
13932W        W82150  34.145  42.844   3.927
13933W        W82151  27.650   7.812   4.406
13934W        W82152   2.450  25.741  14.936
13935W        W82153  37.789  42.332   2.300
13936W        W82154  42.321  20.775  13.799
13937W        W82155  18.686  39.757   4.013
13938W        W82156  30.650  29.323  12.499
13939W        W82157  18.059  21.441  13.704
13940W        W82158  44.256  38.529   0.047
13941W        W82159  30.911  38.023  10.736
13942W        W82160  36.879   2.817   2.879
13943W        W82161   5.172  27.169   1.244
13944W        W82162  19.110  27.559   4.716
13945W        W82163  18.917  12.840   1.271
13946W        W82164  33.055  34.638  10.805
13947W        W82165  20.521  18.889   3.224
13948W        W82166   7.371  26.628   3.936
13949W        W82167  36.186  43.585  14.057
13950W        W82168   6.856  12.851   1.840
13951W        W82169   9.228  33.125   1.800
13952W        W82170  32.530   1.335  13.471
13953W        W82171   9.879  23.476   3.620
13954W        W82172  23.177  20.768   0.901
13955W        W82173  17.236   5.620  12.377
13956W        W82174   2.390  12.235  10.435
13957W        W82175  12.822  32.312  11.229
13958W        W82176  13.317   6.629  11.983
13959W        W82177  26.209  39.413  14.976
13960W        W82178  28.731   4.289  11.427
13961W        W82179   9.655  38.304   0.509
13962W        W82180   7.118  13.109  12.228
13963W        W82181  28.093  11.718  10.797
13964W        W82182  16.648  23.425   0.543
13965W        W82183  43.897  19.862   3.397
13966W        W82184  33.108  33.371   0.686
13967W        W82185  40.656  30.512  11.929
13968W        W82186  12.916  42.087  12.237
13969W        W82187  29.477  18.010   1.808
13970W        W82188  36.578  27.060  14.966
13971W        W82189   1.916  22.848  14.385
13972W        W82190   4.997  31.944   1.877
13973W        W82191   5.820   1.410  14.753
13974W        W82192   4.799  26.514   0.162
13975W        W82193  29.972  31.019   3.834
13976W        W82194   6.240  37.279   3.631
13977W        W82195  38.527  29.409  14.050
13978W        W82196  41.072  19.471  14.792
13979W        W82197  24.532  19.487  14.904
13980W        W82198   5.722   6.595   1.468
13981W        W82199  37.375  20.158   4.119
13982W        W82200  12.938   7.363   1.261
13983W        W82201  13.343  18.968   1.726
13984W        W82202  31.624  24.002  13.487
13985W        W82203  17.781  11.048   0.428
13986W        W82204  43.188  16.439   1.400
13987W        W82205  41.321  14.845   2.804
13988W        W82206   6.182   9.901  12.923
13989W        W82207  28.453  37.641   0.989
13990W        W82208   9.469  21.686  14.329
13991W        W82209  25.558   6.894  14.910
13992W        W82210  16.769   2.511   5.130
13993W        W82211   6.693   1.322   2.630
13994W        W82212  15.795  10.395  11.039
13995W        W82213  22.265  22.674   1.192
13996W        W82214  18.582  18.036  10.707
13997W        W82215  32.137  42.309  11.237
13998W        W82216  10.845   2.320  13.514
13999W        W82217   8.091  14.368   4.899
14000W        W82218  16.059  33.580   2.707
14001W        W82219  12.087   2.968  13.361
14002W        W82220  40.419  38.128   0.906
14003W        W82221  35.913  23.739  12.900
14004W        W82222  16.242  41.805  13.550
14005W        W82223  10.210  21.437  13.984
14006W        W82224  31.003  15.231  14.278
14007W        W82225  36.938   1.545  13.967
14008W        W82226   8.992  15.645  13.528
14009W        W82227  33.467  43.848  14.887
14010W        W82228  13.609  33.580   3.665
14011W        W82229  19.888  29.647  12.014
14012W        W82230   6.588  15.853   3.067
14013W        W82231   6.222   0.362  11.956
14014W        W82232  35.051  35.890  12.177
14015W        W82233  41.799  24.753  12.219
14016W        W82234  12.091  12.535   3.323
14017W        W82235  41.668  25.023  11.002
14018W        W82236  26.145  10.162  12.865
14019W        W82237  23.297   0.586   3.255
14020W        W82238  24.652  43.947   3.305
14021W        W82239   7.375  43.423   2.961
14022W        W82240  23.840  24.575   2.833
14023W        W82241   9.908   8.569  10.605
14024W        W82242  35.088  19.328  14.946
14025W        W82243  31.539  44.985   1.998
14026W        W82244  23.993  32.755  10.816
14027W        W82245   6.163  24.113   0.312
14028W        W82246  26.970  43.042   2.636
14029W        W82247   0.193  25.229   0.938
14030W        W82248  15.678  21.505  10.542
14031W        W82249  15.464   0.003   2.251
14032W        W82250  35.062  16.968   0.312
14033W        W82251  22.211  13.011  10.742
14034W        W82252   4.673  40.825  13.935
14035W        W82253  40.870   9.971   3.341
14036W        W82254  24.719  15.748  10.660
14037W        W82255   2.924  11.951   0.434
14038W        W82256  10.749   6.282   3.219
14039W        W82257  11.874   2.307   1.421
14040W        W82258  20.122  41.009   0.295
14041W        W82259   2.200  18.199  11.183
14042W        W82260   0.365  29.472  11.149
14043W        W82261   8.466   6.043   4.156
14044W        W82262  31.069  42.009  11.977
14045W        W82263  22.740  39.515   1.822
14046W        W82264  11.343  19.325  14.367
14047W        W82265  36.857  40.336   3.818
14048W        W82266  20.235  17.658  11.937
14049W        W82267  14.653   1.443   2.730
14050W        W82268  36.170  39.510  13.253
14051W        W82269  19.614  12.326   3.181
14052W        W82270  42.509  39.571  12.994
14053W        W82271  36.061  11.292  14.170
14054W        W82272  17.540  23.599  13.181
14055W        W82273  25.904  25.661  10.718
14056W        W82274  21.818  22.932  11.928
14057W        W82275  12.274  29.611   1.211
14058W        W82276  38.705  27.610  14.494
14059W        W82277  21.211  12.143   2.720
14060W        W82278  31.045  12.876  11.152
14061W        W82279   6.911  24.686  12.614
14062W        W82280  21.462   1.916   1.357
14063W        W82281   7.158  28.946   0.425
14064W        W82282  41.567   5.828   1.312
14065W        W82283  16.296  33.877  14.838
14066W        W82284  26.553  26.491   3.211
14067W        W82285  27.870  19.643   4.117
14068W        W82286  21.881  29.906  11.987
14069W        W82287  35.310  38.264   3.826
14070W        W82288  29.083  10.583   4.185
14071W        W82289  22.719  39.924   4.921
14072W        W82290  37.411  38.604   2.182
14073W        W82291  39.599  27.705  11.516
14074W        W82292  10.947  43.672   4.150
14075W        W82293   0.383   8.203   3.644
14076W        W82294  23.302  36.268   2.341
14077W        W82295  30.271   6.950  13.391
14078W        W82296   4.139  28.065  10.656
14079W        W82297  28.904   8.074   4.353
14080W        W82298  41.575  34.064  12.425
14081W        W82299  29.018   2.992  14.303
14082W        W82300  26.752   8.214   2.174
14083W        W82301  12.212  20.991   2.437
14084W        W82302  16.691  42.497   0.146
14085W        W82303  16.290  22.179   2.145
14086W        W82304   4.159  19.008  11.134
14087W        W82305  40.489  17.163   3.653
14088W        W82306  23.754  43.457   4.135
14089W        W82307   5.800  30.926   2.212
14090W        W82308  18.643  12.684  14.728
14091W        W82309  43.555  44.036  10.995
14092W        W82310  41.781   5.762   3.313
14093W        W82311  33.595  44.840  12.100
14094W        W82312  21.338   2.089   9.938
14095W        W82313  24.778  30.315  13.888
14096W        W82314   5.450  16.629   3.113
14097W        W82315  15.045  40.811   2.292
14098W        W82316  28.754  42.118  10.992
14099W        W82317  26.504   2.382   2.405
14100W        W82318  24.045  36.509  12.417
14101W        W82319  21.156   5.216  14.391
14102W        W82320   6.564   6.348   3.245
14103W        W82321  41.351  31.207   0.384
14104W        W82322  10.465  31.196   1.812
14105W        W82323   2.203  10.602   1.476
14106W        W82324   0.235  15.269  11.233
14107W        W82325  20.200  31.679   2.600
14108W        W82326   6.412  12.418   1.370
14109W        W82327  37.970  38.161   1.283
14110W        W82328  24.585  38.195  11.593
14111W        W82329  12.024  31.437  11.736
14112W        W82330   1.212  36.814  11.096
14113W        W82331  19.631  21.100   3.430
14114W        W82332   8.813  43.972  10.113
14115W        W82333  34.324  20.319   3.047
14116W        W82334  42.558  40.135   2.516
14117W        W82335  18.269  10.729   4.270
14118W        W82336  33.912  41.010   0.497
14119W        W82337  16.110  29.185   3.323
14120W        W82338  33.958  19.673   3.617
14121W        W82339  28.493  18.094  11.529
14122W        W82340   7.125   5.500   3.089
14123W        W82341  44.396  43.608   4.533
14124W        W82342  30.874  13.882  11.085
14125W        W82343  23.662  36.735  13.177
14126W        W82344  15.794  24.619   2.903
14127W        W82345  44.451  39.604  15.000
14128W        W82346  20.255   5.567  14.223
14129W        W82347  12.133  27.611  10.615
14130W        W82348  32.002  22.073  14.743
14131W        W82349  41.729  23.794   1.799
14132W        W82350  19.065  18.786  11.954
14133W        W82351  11.716  42.395  11.969
14134W        W82352  36.988  27.791   1.202
14135W        W82353   0.359  32.862   2.669
14136W        W82354   0.374   7.224   3.207
14137W        W82355  22.353  43.486  13.898
14138W        W82356   4.716  23.642  11.622
14139W        W82357   1.547  19.449  11.613
14140W        W82358   9.767   5.351   4.557
14141W        W82359   0.367  35.120   2.752
14142W        W82360  43.748   6.668  13.428
14143W        W82361  32.170  14.599   1.218
14144W        W82362   2.790  41.216  13.479
14145W        W82363  34.378  14.243  13.085
14146W        W82364  11.092  19.105  10.985
14147W        W82365  26.482  27.176  10.918
14148W        W82366  17.620  24.662  11.160
14149W        W82367  13.441  43.307  11.456
14150W        W82368  28.957  40.541  12.099
14151W        W82369  27.435  33.892  14.521
14152W        W82370  27.108   0.342  12.973
14153W        W82371  44.990  28.971   3.101
14154W        W82372  13.326  26.762   3.125
14155W        W82373  41.252   6.831  13.820
14156W        W82374   0.991  43.398  13.872
14157W        W82375  12.262  30.209  12.360
14158W        W82376  18.206  17.707   2.375
14159W        W82377  14.945  42.893   3.694
14160W        W82378  37.153   8.441   1.037
14161W        W82379  28.394  15.416   2.829
14162W        W82380  38.200  30.719  11.704
14163W        W82381  22.983  32.470   4.517
14164W        W82382  18.698  41.404  10.757
14165W        W82383  21.644  41.220   3.715
14166W        W82384  12.104  42.514  10.665
14167W        W82385  26.032  13.979   3.310
14168W        W82386  10.322  37.103   2.668
14169W        W82387  37.831  43.731  13.354
14170W        W82388   5.790  14.164   3.350
14171W        W82389  18.827   6.979   2.898
14172W        W82390  27.035   0.691  13.413
14173W        W82391  24.205  33.166   1.483
14174W        W82392  31.057  39.981   4.560
14175W        W82393   8.056  13.545   3.757
14176W        W82394   8.698   6.288   4.609
14177W        W82395  26.493   7.437   4.731
14178W        W82396  28.781  15.779   3.557
14179W        W82397  14.703  16.173  11.556
14180W        W82398  39.505   5.529   1.439
14181W        W82399   3.308  41.250   2.583
14182W        W82400  10.316  18.184  14.055
14183W        W82401   0.359  24.465  13.393
14184W        W82402  38.844  29.459   4.177
14185W        W82403  13.589  38.865   1.232
14186W        W82404  25.203  35.143   0.522
14187W        W82405  28.871   1.035  10.354
14188W        W82406   4.477  32.548   3.579
14189W        W82407  24.543  33.169  12.447
14190W        W82408  42.478  28.722  13.146
14191W        W82409  22.138   4.301  10.789
14192W        W82410  40.393  30.947   2.595
14193W        W82411  11.068  15.041   2.673
14194W        W82412  22.719  42.749   1.741
14195W        W82413   8.459  34.967   0.685
14196W        W82414  29.045  39.050   4.001
14197W        W82415  28.927  23.533   3.144
14198W        W82416   4.424   0.735   1.249
14199W        W82417  35.878  17.277   1.569
14200W        W82418  38.222   6.451   2.457
14201W        W82419  13.300   0.473  14.266
14202W        W82420   3.925  32.858   1.738
14203W        W82421  16.795  15.337  12.012
14204W        W82422  36.804  25.447   4.112
14205W        W82423  26.475  40.919  11.993
14206W        W82424  23.862  14.557  13.674
14207W        W82425  24.237  37.853  13.431
14208W        W82426  29.266  23.040   2.260
14209W        W82427  33.040  41.521   0.200
14210W        W82428  12.688  39.834  11.442
14211W        W82429  38.580  21.381  12.620
14212W        W82430  21.609   9.682   3.432
14213W        W82431  19.001  33.393  11.035
14214W        W82432   9.219   9.199   2.898
14215W        W82433  41.461  33.896  14.865
14216W        W82434   6.622  35.092  11.674
14217W        W82435   7.704   6.962   5.030
14218W        W82436  14.085  41.167   3.602
14219W        W82437   7.755  39.239  13.942
14220W        W82438  36.160  31.163   3.721
14221W        W82439  16.706  28.488   4.951
14222W        W82440  26.281  10.830   3.785
14223W        W82441  36.857   0.971  11.989
14224W        W82442  16.320  43.217   0.306
14225W        W82443   7.742  44.036  10.342
14226W        W82444  29.243  32.318  13.471
14227W        W82445   0.021  10.767  10.481
14228W        W82446   1.276  34.110  11.120
14229W        W82447  40.138  14.732   3.290
14230W        W82448  41.063  14.372  12.477
14231W        W82449  27.263  18.214  12.126
14232W        W82450   8.715  11.275  12.878
14233W        W82451  24.656   7.694  13.008
14234W        W82452  38.425  17.454  10.830
14235W        W82453  44.957  33.513   2.209
14236W        W82454   1.582  44.210   3.186
14237W        W82455  15.629  13.768  10.831
14238W        W82456  15.174  29.706  12.020
14239W        W82457  10.840  34.413  11.996
14240W        W82458  28.383  37.458  12.592
14241W        W82459  37.977   8.355  11.953
14242W        W82460  17.233  43.966  10.258
14243W        W82461  16.047  16.154   2.142
14244W        W82462  14.394  20.948  11.691
14245W        W82463  12.128  34.368   1.380
14246W        W82464  44.859  28.473   3.067
14247W        W82465  44.217   8.399  13.497
14248W        W82466   4.023  18.744   3.646
14249W        W82467   0.785  23.224   2.193
14250W        W82468  36.896  43.366   4.321
14251W        W82469  43.423  11.786   2.160
14252W        W82470  42.361  32.112   2.205
14253W        W82471   7.355  29.639  14.062
14254W        W82472   5.260  10.595  11.933
14255W        W82473  12.650  31.569   0.035
14256W        W82474  28.774  17.206  13.078
14257W        W82475  35.189   9.632  13.401
14258W        W82476  33.276  34.228   3.354
14259W        W82477  20.189   2.379  13.839
14260W        W82478   4.680   9.625   0.775
14261W        W82479   1.831  35.974   0.918
14262W        W82480  17.260  20.542   3.759
14263W        W82481  31.905  42.562   3.852
14264W        W82482  44.319  37.343  11.641
14265W        W82483  15.752   3.697  11.644
14266W        W82484  40.369  25.258   4.674
14267W        W82485  34.552  19.742   2.291
14268W        W82486  22.800  35.934   3.228
14269W        W82487  41.836   1.237  11.606
14270W        W82488  35.908  23.193  12.834
14271W        W82489  34.739  24.775  11.530
14272W        W82490  32.672  33.383  11.604
14273W        W82491  22.305   0.235  12.206
14274W        W82492  19.082   1.329  11.861
14275W        W82493  34.106  16.625  11.664
14276W        W82494  30.087  41.829   1.558
14277W        W82495  43.443   4.788   3.669
14278W        W82496   8.461  20.538  11.045
14279W        W82497   1.746  38.030  14.478
14280W        W82498   7.860  20.506  13.907
14281W        W82499  39.976   1.506  11.135
14282W        W82500  30.497  34.371  11.071
14283W        W82501  31.104  13.700   0.686
14284W        W82502  19.061   6.873   3.659
14285W        W82503  18.161  30.105   0.738
14286W        W82504   3.189  38.076  13.774
14287W        W82505  28.256   7.365   3.393
14288W        W82506  21.083   3.591  12.981
14289W        W82507   3.821  44.448   1.790
14290W        W82508  23.952  21.131   1.389
14291W        W82509  25.716   1.504  10.809
14292W        W82510  11.380   9.567  12.115
14293W        W82511  12.646   9.078  10.397
14294W        W82512  10.338  38.019   3.727
14295W        W82513  42.096  27.052  12.086
14296W        W82514  12.408  11.112  11.364
14297W        W82515  15.935   4.739  12.551
14298W        W82516  34.163  13.295  12.379
14299W        W82517   5.221  29.672   2.406
14300W        W82518  19.994   0.004  12.033
14301W        W82519   6.754   7.804   1.761
14302W        W82520   6.473   9.432  13.034
14303W        W82521   9.769  25.695   2.697
14304W        W82522  40.528  19.466   1.407
14305W        W82523  18.227  13.552  14.746
14306W        W82524   2.645  24.609  13.609
14307W        W82525   4.757  20.288  10.371
14308W        W82526  23.650  31.887  14.951
14309W        W82527  32.621  27.819   1.407
14310W        W82528  38.387  11.058   0.427
14311W        W82529  44.325  20.145  12.972
14312W        W82530  15.112  41.258   1.381
14313W        W82531   4.905   4.223  12.492
14314W        W82532   5.155  29.687   0.007
14315W        W82533  21.404   0.988   1.212
14316W        W82534   1.331  11.179   4.353
14317W        W82535  29.520   9.704   4.644
14318W        W82536  18.246  16.638  10.772
14319W        W82537  38.928  14.312   5.336
14320W        W82538  28.992   1.716  13.844
14321W        W82539  18.371  16.425   5.067
14322W        W82540   2.297  19.773  12.061
14323W        W82541   0.708   5.243  12.378
14324W        W82542   2.437  32.413  14.049
14325W        W82543  20.727  36.817  14.994
14326W        W82544   5.274   0.166  12.378
14327W        W82545  34.394   2.394   3.861
14328W        W82546  30.485  40.101   4.089
14329W        W82547  35.498  19.848   3.283
14330W        W82548  20.728  35.355   3.693
14331W        W82549   7.687  23.017   3.688
14332W        W82550  44.984   0.934  12.949
14333W        W82551  28.100  16.952   4.257
14334W        W82552  12.225  18.201  12.529
14335W        W82553  42.412  24.713   4.789
14336W        W82554  32.388  10.838   2.314
14337W        W82555  33.656   0.547  11.622
14338W        W82556  25.442   0.820   0.177
14339W        W82557  26.432   0.674  14.046
14340W        W82558  34.257  36.980  11.735
14341W        W82559  34.041  42.479   4.302
14342W        W82560  34.641  25.714  13.114
14343W        W82561   7.391  23.243   2.162
14344W        W82562   4.515  33.974  14.754
14345W        W82563  41.092   6.389   3.318
14346W        W82564   6.716  41.767  13.437
14347W        W82565  16.774  29.668  13.093
14348W        W82566  43.026   8.269  14.484
14349W        W82567  41.903   4.239   2.822
14350W        W82568  21.041  41.956   5.068
14351W        W82569  18.780  10.768   4.247
14352W        W82570  37.130  26.249  12.004
14353W        W82571   4.395  36.386   3.228
14354W        W82572  14.336  26.447   4.531
14355W        W82573  23.269  31.084   1.677
14356W        W82574  31.138  30.666   2.737
14357W        W82575  36.906  13.389   4.055
14358W        W82576  10.375  10.371  11.928
14359W        W82577  15.754  18.254   4.437
14360W        W82578  21.030  37.004   1.347
14361W        W82579  19.076  41.887  14.736
14362W        W82580   7.830  27.579  11.154
14363W        W82581  36.516  34.332   0.322
14364W        W82582   4.456  36.487   1.491
14365W        W82583  44.008  35.620   4.074
14366W        W82584  36.461   8.348  13.118
14367W        W82585   0.500  21.182   4.451
14368W        W82586  13.883  30.598   1.911
14369W        W82587  34.085   1.318  11.674
14370W        W82588  34.468  23.523  14.411
14371W        W82589   0.785  14.176  14.341
14372W        W82590  21.586  16.822  13.895
14373W        W82591  29.528  39.097   0.637
14374W        W82592   0.734  38.461  13.296
14375W        W82593  32.616  14.281   3.761
14376W        W82594  24.180  24.216  12.014
14377W        W82595  20.914  40.229   4.551
14378W        W82596   2.423   5.148   2.422
14379W        W82597   4.306   4.385   3.627
14380W        W82598   0.460  40.611  11.074
14381W        W82599  36.108  30.183   1.809
14382W        W82600  16.320  41.450   1.848
14383W        W82601  13.215  36.557   3.825
14384W        W82602   1.923  37.255   4.243
14385W        W82603  20.526  40.788   4.083
14386W        W82604  14.436  13.737   2.849
14387W        W82605   6.296  22.645  11.538
14388W        W82606  40.021  19.779  10.786
14389W        W82607  38.791  35.868  12.582
14390W        W82608  24.565  37.006  10.583
14391W        W82609   6.596  23.881  10.529
14392W        W82610  26.259  20.743  12.453
14393W        W82611  30.066  20.517  11.096
14394W        W82612  25.998  23.706  14.080
14395W        W82613  26.727   0.149   3.822
14396W        W82614  27.674   1.202   2.575
14397W        W82615  10.350  26.772   3.219
14398W        W82616  11.670  30.983  13.352
14399W        W82617  17.253  20.908   4.609
14400W        W82618   6.090  40.300  13.785
14401W        W82619  28.516  35.436  11.552
14402W        W82620  39.923  43.472   4.595
14403W        W82621  28.942  37.519   0.804
14404W        W82622  31.181  15.643  14.953
14405W        W82623   8.954   5.339  14.837
14406W        W82624  22.722   8.506  12.075
14407W        W82625  42.379  34.698  10.672
14408W        W82626  21.216  34.464  12.166
14409W        W82627  28.508  22.589   3.295
14410W        W82628  24.197  16.850   3.591
14411W        W82629  24.113  37.001   1.678
14412W        W82630  35.977  22.292  13.945
14413W        W82631  30.016   9.179  14.371
14414W        W82632  38.279  21.102  10.699
14415W        W82633   9.850  44.296   2.161
14416W        W82634   8.298  11.264   2.309
14417W        W82635  23.748  13.640   3.999
14418W        W82636   4.572  20.157   3.068
14419W        W82637  10.061  27.553  14.398
14420W        W82638  30.442  34.404  13.567
14421W        W82639  18.650  25.843  12.395
14422W        W82640  34.943   2.630   3.838
14423W        W82641   8.357   4.804   0.345
14424W        W82642   5.821  25.053   2.244
14425W        W82643   7.629  39.417   0.305
14426W        W82644   1.651   4.665   4.226
14427W        W82645  11.635  41.488  13.899
14428W        W82646  22.305  20.040  12.017
14429W        W82647  18.535  12.107  10.676
14430W        W82648  27.147  39.805  13.738
14431W        W82649  19.693  39.060  14.840
14432W        W82650   1.338  28.157  12.383
14433W        W82651  43.091  10.325  12.851
14434W        W82652  27.475  11.681  12.934
14435W        W82653  31.400  10.270  14.410
14436W        W82654  28.171   8.574   4.201
14437W        W82655  29.544  30.142   4.863
14438W        W82656  16.160   3.925  10.802
14439W        W82657  20.931   8.837  10.841
14440W        W82658  28.095  28.137   2.720
14441W        W82659  11.465  34.414  13.112
14442W        W82660  23.161  19.900  14.564
14443W        W82661   3.606  15.259   3.727
14444W        W82662  31.076  43.729   3.526
14445W        W82663  42.524  14.652  14.482
14446W        W82664  20.756   0.555   2.950
14447W        W82665  14.365  33.562   4.214
14448W        W82666  31.928  19.624   1.933
14449W        W82667  25.118   8.412  11.005
14450W        W82668  28.127   3.916   1.317
14451W        W82669  37.440   4.995  13.086
14452W        W82670  43.810  33.481  10.641
14453W        W82671   3.779  41.958   3.303
14454W        W82672  11.907  34.577   1.814
14455W        W82673  35.461   1.066   4.115
14456W        W82674  21.224   4.208   4.386
14457W        W82675  15.558  27.179   3.648
14458W        W82676  39.354   2.992  13.552
14459W        W82677  15.168   4.645  13.501
14460W        W82678  42.390  12.741   0.529
14461W        W82679  42.860  18.605   3.356
14462W        W82680  43.802  43.431  11.721
14463W        W82681  23.164  43.731  14.833
14464W        W82682   6.790  39.167  11.971
14465W        W82683  44.465   4.010  14.547
14466W        W82684  34.076  32.437   3.240
14467W        W82685  25.510  21.532   0.055
14468W        W82686  41.801  15.057   3.666
14469W        W82687  21.789  30.651   2.329
14470W        W82688  30.006  31.451   0.030
14471W        W82689   9.819   6.075   2.733
14472W        W82690  21.596   6.172  13.430
14473W        W82691  24.285  25.061  14.033
14474W        W82692   1.587  16.822   4.641
14475W        W82693   2.538  18.360   1.303
14476W        W82694  43.266  16.332  11.958
14477W        W82695  15.885  20.529   4.821
14478W        W82696  26.715  12.838  13.534
14479W        W82697  38.442  40.317  12.113
14480W        W82698  13.078   3.499  13.813
14481W        W82699  38.759  38.599  14.047
14482W        W82700  27.119  25.497   2.335
14483W        W82701  31.331  12.883   0.511
14484W        W82702  33.037  12.410  12.018
14485W        W82703  41.498  12.893  11.934
14486W        W82704   4.501  14.162   0.925
14487W        W82705  25.251  38.917  11.971
14488W        W82706  14.103  37.809   2.139
14489W        W82707   7.670  42.260  13.411
14490W        W82708  39.897  25.879  11.627
14491W        W82709   0.701  19.570   4.226
14492W        W82710   5.202   6.884   2.296
14493W        W82711  21.925   2.462  12.041
14494W        W82712  43.441  27.527   3.659
14495W        W82713  20.915   5.815   2.780
14496W        W82714  23.055  32.684  10.625
14497W        W82715  28.282   1.936   1.973
14498W        W82716  24.423  30.560   3.075
14499W        W82717   5.446  10.656   4.676
14500W        W82718  43.311  13.559  11.684
14501W        W82719  19.085   0.422   2.280
14502W        W82720  27.044  41.019   3.638
14503W        W82721   3.967   0.454   2.644
14504W        W82722  41.555  15.047   4.143
14505W        W82723  38.324  25.209  14.403
14506W        W82724  25.115   7.485  12.907
14507W        W82725  13.650  18.335  13.536
14508W        W82726   0.869   5.801  12.139
14509W        W82727  11.414  42.390  12.625
14510W        W82728   5.743  24.744   1.826
14511W        W82729  39.080  28.029  14.338
14512W        W82730   0.383  14.054  10.530
14513W        W82731   6.189  32.112   4.039
14514W        W82732  33.643  34.535   2.625
14515W        W82733  11.681  30.391   1.333
14516W        W82734  31.037  32.403   0.349
14517W        W82735  16.710  41.946  12.324
14518W        W82736  44.538   0.258   0.861
14519W        W82737   7.936   3.417   2.433
14520W        W82738  41.516  29.034  11.317
14521W        W82739  12.600   8.954  12.939
14522W        W82740   6.345  31.152  13.460
14523W        W82741  30.727  41.104   0.531
14524W        W82742  17.774   0.704   1.010
14525W        W82743  35.920  39.772  11.340
14526W        W82744  19.099  22.702  10.668
14527W        W82745  12.128  41.807  11.508
14528W        W82746  31.769  12.951  11.593
14529W        W82747  38.088  30.125   0.178
14530W        W82748  40.484  40.644  14.576
14531W        W82749   3.104  32.233   1.257
14532W        W82750  24.139   6.419   0.262
14533W        W82751   7.353  29.199  13.138
14534W        W82752  19.897   9.412   0.792
14535W        W82753  44.133  42.299   0.855
14536W        W82754  18.029  38.063  11.856
14537W        W82755  14.254  24.562   3.165
14538W        W82756  12.879  42.011   3.766
14539W        W82757  44.359  12.811  14.030
14540W        W82758  40.393  17.177   5.344
14541W        W82759   7.121  35.771  14.812
14542W        W82760  44.034   3.087   5.013
14543W        W82761  31.503  39.966  10.625
14544W        W82762   9.313  17.972  14.869
14545W        W82763  11.110  36.929   0.034
14546W        W82764  42.267  30.672   3.193
14547W        W82765  32.661   5.071   3.272
14548W        W82766  19.160  44.525   1.359
14549W        W82767  28.534  34.847  14.555
14550W        W82768   3.768  27.644   0.378
14551W        W82769  32.952  13.290   0.745
14552W        W82770  43.972  28.163  14.646
14553W        W82771  14.717   9.227   0.519
14554W        W82772  42.214   9.818  14.469
14555W        W82773  33.867  32.513   3.711
14556W        W82774  30.023  18.698   3.581
14557W        W82775  19.194  28.183  11.494
14558W        W82776  21.087  23.971  12.869
14559W        W82777  18.112  27.503  11.651
14560W        W82778  38.780  19.638   4.654
14561W        W82779   7.264   7.932   1.712
14562W        W82780  40.972  18.501  12.970
14563W        W82781  25.902  38.839   2.652
14564W        W82782  22.694  40.984  12.837
14565W        W82783  23.617  42.563   1.829
14566W        W82784   0.954  22.152  13.424
14567W        W82785   3.195   4.289   2.647
14568W        W82786  28.368  31.472  12.856
14569W        W82787   0.802  15.323  12.126
14570W        W82788  30.402  44.385  14.912
14571W        W82789  32.883  35.437   0.945
14572W        W82790  24.628  25.575   9.673
14573W        W82791   0.322  21.152   3.820
14574W        W82792  43.340  14.108  14.416
14575W        W82793  37.140   1.176   1.690
14576W        W82794   5.174  16.540   4.096
14577W        W82795  33.791  30.863   9.341
14578W        W82796  12.248   1.482   4.626
14579W        W82797  12.332  34.298   3.597
14580W        W82798  16.961   5.715  14.376
14581W        W82799  31.418  26.280  10.992
14582W        W82800  28.460  12.063  11.579
14583W        W82801   7.510  10.528   1.760
14584W        W82802  26.946  19.733  10.605
14585W        W82803   5.479  11.246   2.374
14586W        W82804   1.515  36.389   0.948
14587W        W82805  23.820  29.607  11.156
14588W        W82806  10.672  36.689  14.874
14589W        W82807  12.783  13.768   0.429
14590W        W82808  44.754  24.066  11.548
14591W        W82809  32.394  20.122  13.309
14592W        W82810  29.530  18.842   3.688
14593W        W82811  20.817  42.749   1.241
14594W        W82812  31.200   1.023   2.281
14595W        W82813  29.673  14.783  11.088
14596W        W82814   7.950   2.277   2.827
14597W        W82815  15.098  12.905   0.754
14598W        W82816  13.882  43.307   5.238
14599W        W82817   8.343   1.101  13.839
14600W        W82818   7.263   8.961   3.143
14601W        W82819   8.260  33.999   0.376
14602W        W82820   6.335   4.923  14.388
14603W        W82821  36.978  30.681   0.146
14604W        W82822   1.544  30.782  13.896
14605W        W82823  26.899  27.359  10.653
14606W        W82824  31.814  34.642  12.397
14607W        W82825  29.004  43.993   4.600
14608W        W82826   4.206   1.794  13.942
14609W        W82827  36.471  40.252   4.725
14610W        W82828  35.800  24.654  10.765
14611W        W82829  26.361   0.295  12.439
14612W        W82830   7.872  17.741   0.904
14613W        W82831  31.951  40.139  10.407
14614W        W82832  25.212  26.591  14.765
14615W        W82833   5.840  38.119   2.975
14616W        W82834  25.673  31.256   1.013
14617W        W82835  33.392  18.989   0.934
14618W        W82836   6.643   2.998  11.546
14619W        W82837   2.964  31.993  10.325
14620W        W82838  36.297  24.689  11.560
14621W        W82839  35.268  29.622  11.960
14622W        W82840  43.825  11.378  10.684
14623W        W82841   1.011  21.124   0.355
14624W        W82842  10.315  17.534   1.355
14625W        W82843   1.019  16.619  14.350
14626W        W82844   2.959  36.982   1.460
14627W        W82845  27.145  29.082   0.467
14628W        W82846  40.025  17.523   0.776
14629W        W82847  21.147   6.104  14.079
14630W        W82848  33.407  30.169   2.472
14631W        W82849  10.662  17.094   0.871
14632W        W82850   0.385  40.276  14.987
14633W        W82851  11.332  41.076  10.716
14634W        W82852  34.530  44.304   0.352
14635W        W82853   1.376   7.413   2.461
14636W        W82854   2.970  29.130  11.058
14637W        W82855  27.107  23.578  11.696
14638W        W82856  14.014  30.222   1.254
14639W        W82857   2.224  37.999  14.700
14640W        W82858  20.311  20.047   0.903
14641W        W82859  26.799  10.663  12.603
14642W        W82860  39.513  41.510   0.080
14643W        W82861   0.830  21.572   2.265
14644W        W82862   0.003   3.699  10.769
14645W        W82863  41.508   9.847   0.985
14646W        W82864  23.234   3.734   2.744
14647W        W82865  12.300  40.455   3.602
14648W        W82866  27.537  23.762   0.775
14649W        W82867  35.810  41.820   1.271
14650W        W82868  43.383   1.456   1.365
14651W        W82869  30.411  12.249   2.216
14652W        W82870   9.041  31.065   3.871
14653W        W82871  12.078  21.661   3.043
14654W        W82872  35.314  24.191   2.485
14655W        W82873  28.047  28.846  13.856
14656W        W82874  37.703  22.607  13.339
14657W        W82875  40.890  15.533   1.730
14658W        W82876  33.736   4.439   9.816
14659W        W82877  41.437  28.991  13.754
14660W        W82878   4.140  20.787  11.851
14661W        W82879  24.455  10.943  12.511
14662W        W82880   1.275  18.625  10.409
14663W        W82881  27.676  24.554   3.539
14664W        W82882   6.142  28.407  14.336
14665W        W82883  31.930  26.117  10.244
14666W        W82884   5.495  11.728   1.892
14667W        W82885  17.819   0.892  12.489
14668W        W82886  33.926   7.297  11.992
14669W        W82887   8.193  37.814  10.209
14670W        W82888   5.705  11.202   4.558
14671W        W82889  20.732  42.362   3.837
14672W        W82890  32.999   1.766   4.171
14673W        W82891  30.848  16.610   2.513
14674W        W82892  16.599   8.737  13.847
14675W        W82893   6.318  41.762  14.159
14676W        W82894   2.396  25.943   0.418
14677W        W82895  23.067  10.669  13.271
14678W        W82896  18.980  36.540  12.025
14679W        W82897  32.175  44.684   2.516
14680W        W82898  35.346  35.032  13.497
14681W        W82899  22.467   4.247  13.729
14682W        W82900   3.240  24.115   3.044
14683W        W82901  27.672  17.765   2.753
14684W        W82902  20.138  11.731  14.427
14685W        W82903  15.166  35.383  12.547
14686W        W82904   8.569   8.241  13.883
14687W        W82905   8.249  18.082   3.639
14688W        W82906  42.045   4.868   3.772
14689W        W82907  39.821  18.960  13.549
14690W        W82908  44.318  21.433  11.118
14691W        W82909  34.758  42.840   1.706
14692W        W82910  43.788   5.755   1.788
14693W        W82911  34.313   9.977  12.473
14694W        W82912  28.742  30.084   3.131
14695W        W82913  22.209  10.174  10.909
14696W        W82914  39.312  28.916   2.520
14697W        W82915  35.573  29.370  10.726
14698W        W82916  18.200  21.574  11.003
14699W        W82917  25.077  34.168   0.411
14700W        W82918  34.592   7.576  14.941
14701W        W82919  34.751   6.144  10.968
14702W        W82920  31.518   1.419  14.467
14703W        W82921  14.747  28.390  11.564
14704W        W82922  30.659   9.708  12.420
14705W        W82923  28.696  20.651  13.094
14706W        W82924   0.667  15.762  11.924
14707W        W82925  35.822  13.205   5.211
14708W        W82926  20.043  10.434  11.158
14709W        W82927   0.315  29.059   4.889
14710W        W82928  37.214  27.283   2.779
14711W        W82929  32.982  38.978   4.584
14712W        W82930  29.143  38.790   3.199
14713W        W82931  32.013  12.189  11.694
14714W        W82932   8.569  43.093  10.123
14715W        W82933  29.214  14.531   1.387
14716W        W82934   4.230   6.090  10.928
14717W        W82935   0.730  40.209  11.224
14718W        W82936  31.229  19.646   5.098
14719W        W82937   6.450   7.861   3.088
14720W        W82938  34.450  40.438  12.089
14721W        W82939  43.910  27.588   0.334
14722W        W82940  32.370  44.520  14.491
14723W        W82941  36.444  12.615   4.601
14724W        W82942  23.264  39.431  10.484
14725W        W82943  39.597  38.347   2.916
14726W        W82944  13.163  13.132   3.600
14727W        W82945  24.797  18.780   2.805
14728W        W82946  20.544  30.727  10.724
14729W        W82947  26.457  38.341   2.463
14730W        W82948  24.018  24.721  11.956
14731W        W82949   8.801   6.685   2.059
14732W        W82950  19.669  13.422  14.453
14733W        W82951  11.529  27.859   0.326
14734W        W82952  28.127  18.265   4.590
14735W        W82953  13.809  42.446   4.348
14736W        W82954  39.885  41.548  12.148
14737W        W82955  19.566  27.042  11.976
14738W        W82956   6.148   5.102   2.720
14739W        W82957   2.900   2.720  14.305
14740W        W82958   6.146  43.807   1.718
14741W        W82959   1.284  40.470   4.362
14742W        W82960   6.392  22.484   1.669
14743W        W82961   5.039  40.744   0.033
14744W        W82962  12.953  16.468   4.777
14745W        W82963   9.861  24.585  10.634
14746W        W82964  11.129  43.911   9.739
14747W        W82965  39.089  31.953  11.628
14748W        W82966  12.912   7.755   0.435
14749W        W82967   4.799  15.026   3.288
14750W        W82968  42.307  11.589   1.746
14751W        W82969  11.275  33.913   1.220
14752W        W82970   8.167  16.099  11.192
14753W        W82971  36.221  31.591   1.190
14754W        W82972  42.267   5.934   4.241
14755W        W82973  33.062   9.128  14.976
14756W        W82974  42.061   3.440  11.752
14757W        W82975  40.580   8.343  13.965
14758W        W82976   4.825  10.165  13.610
14759W        W82977  22.740  25.963   0.470
14760W        W82978  41.174  16.339  13.308
14761W        W82979  18.047  24.045   2.385
14762W        W82980  13.205  37.583   3.616
14763W        W82981  28.924  41.445   0.064
14764W        W82982  32.959  16.496  13.501
14765W        W82983  22.593  34.067   1.403
14766W        W82984  13.212  40.066  12.079
14767W        W82985  35.518   4.163   4.756
14768W        W82986   5.785  16.727   1.850
14769W        W82987   2.789  14.786  13.094
14770W        W82988  41.540   0.367  12.855
14771W        W82989  31.914  16.597  14.375
14772W        W82990  30.375  15.732   1.485
14773W        W82991  16.546   2.625   1.900
14774W        W82992  21.021   4.166   3.898
14775W        W82993  16.441  31.114  11.045
14776W        W82994  44.856  44.232   3.428
14777W        W82995  38.933  11.311  11.697
14778W        W82996  28.822  14.046  10.329
14779W        W82997  18.214  11.164   1.217
14780W        W82998   8.904   3.431   9.731
14781W        W82999  29.984  20.262   4.359
14782W        W83000  40.565   1.756   2.146
14783W        W83001  17.713  41.349  14.364
14784W        W83002   6.457  17.569   0.715
14785W        W83003   6.368  24.081  13.753
14786W        W83004  21.039  13.436  13.995
14787W        W83005  32.666  30.538   0.298
14788W        W83006  13.047   0.945  11.645
14789W        W83007  11.053   3.030   0.345
14790W        W83008  42.612  17.295  14.059
14791W        W83009   6.925   6.938  12.938
14792W        W83010  39.434   8.214   3.105
14793W        W83011  24.797  39.911  13.617
14794W        W83012  23.660  15.577  12.351
14795W        W83013  21.038  42.289  14.995
14796W        W83014  42.838  32.902   4.376
14797W        W83015  10.384  17.140   2.263
14798W        W83016  22.177  12.739   4.328
14799W        W83017  12.233  44.341  12.357
14800W        W83018  43.188  30.199   4.365
14801W        W83019   8.438  14.654   0.535
14802W        W83020  29.062  13.309  14.524
14803W        W83021  20.477  36.965  12.525
14804W        W83022   6.172   1.516  12.091
14805W        W83023   7.088   3.281  11.592
14806W        W83024  36.692  28.937  12.586
14807W        W83025   9.804   8.309  14.359
14808W        W83026  10.285  11.191   1.165
14809W        W83027  32.070  28.338   4.186
14810W        W83028  11.106  13.877   2.174
14811W        W83029  42.236  14.713  11.209
14812W        W83030  15.707   6.682  12.185
14813W        W83031   2.428   5.920   1.936
14814W        W83032  17.867  13.247  12.536
14815W        W83033   2.523  36.174   0.387
14816W        W83034  40.767  12.182   3.669
14817W        W83035  44.457  11.915  10.041
14818W        W83036  11.250  22.121   2.950
14819W        W83037  43.542   7.656   1.273
14820W        W83038   2.377  31.896  14.877
14821W        W83039   4.656   9.458  11.061
14822W        W83040  31.045  19.638   2.603
14823W        W83041   6.914  13.104   3.172
14824W        W83042  33.420  29.472  14.873
14825W        W83043  29.383  33.989  12.962
14826W        W83044  14.614   5.750   4.581
14827W        W83045  17.070  43.470  14.881
14828W        W83046  41.434  44.731  11.765
14829W        W83047  31.719  21.131   4.566
14830W        W83048  39.986   2.765  14.361
14831W        W83049  31.441  18.627  10.729
14832W        W83050  32.849  11.925   4.043
14833W        W83051   3.445   1.950  14.585
14834W        W83052  17.198  16.237   2.639
14835W        W83053  22.478  16.066  12.079
14836W        W83054  41.476  26.211  10.579
14837W        W83055  21.778  42.949  13.160
14838W        W83056   3.916  38.797  11.200
14839W        W83057  17.178  39.371  12.990
14840W        W83058  34.865   5.860  13.528
14841W        W83059  40.875  13.080  13.564
14842W        W83060  42.449  37.572   4.060
14843W        W83061  19.737  20.165  12.479
14844W        W83062   0.301  22.713  11.362
14845W        W83063   7.907  14.595   3.433
14846W        W83064  28.083  21.645  10.314
14847W        W83065   9.679  26.653   2.692
14848W        W83066  19.233  19.531  14.386
14849W        W83067  33.247  44.013   4.007
14850W        W83068  10.110  34.449  10.274
14851W        W83069  16.400  41.420   0.826
14852W        W83070  10.681  11.705  12.615
14853W        W83071   9.249  15.357   2.406
14854W        W83072  29.091   3.812  12.389
14855W        W83073  40.351  30.076   4.571
14856W        W83074  32.498  32.105  11.182
14857W        W83075  31.971  16.526  12.183
14858W        W83076  16.197  31.492  12.970
14859W        W83077  40.356  41.950  10.974
14860W        W83078   0.042   5.710   1.538
14861W        W83079   6.071   8.885  12.272
14862W        W83080  24.486   3.904   3.307
14863W        W83081  43.943   3.506  13.866
14864W        W83082  35.801  27.046   5.505
14865W        W83083  21.630   2.528  14.268
14866W        W83084  39.863  20.488  13.462
14867W        W83085   9.589  42.189   4.055
14868W        W83086   1.703   2.442  11.953
14869W        W83087  26.746  32.639  12.470
14870W        W83088  24.518  14.107  11.574
14871W        W83089  18.380  24.913   3.626
14872W        W83090   2.033  13.623  13.231
14873W        W83091   0.339  15.636  10.757
14874W        W83092  24.520  24.856  11.988
14875W        W83093  42.908   0.831  11.572
14876W        W83094  34.527  36.525  13.594
14877W        W83095  30.562  37.082   2.235
14878W        W83096  37.948  39.320  10.644
14879W        W83097  35.445   6.963   3.799
14880W        W83098   7.189  13.236   1.862
14881W        W83099  39.143  20.035  12.393
14882W        W83100  29.526  34.797  11.142
14883W        W83101  29.134  16.814   1.327
14884W        W83102  40.339  40.319  13.611
14885W        W83103  30.197  36.058   1.170
14886W        W83104   6.947  31.576  13.937
14887W        W83105  18.821  18.735  13.440
14888W        W83106  18.800   4.964  12.364
14889W        W83107  10.219  26.999   1.185
14890W        W83108  34.694  19.158   0.371
14891W        W83109  17.618  14.272  14.902
14892W        W83110  34.654   7.867   1.855
14893W        W83111   1.916  17.259   4.555
14894W        W83112  44.997  36.673   1.720
14895W        W83113   0.396  28.912  11.151
14896W        W83114  39.341  19.751   0.524
14897W        W83115  43.385  34.788  10.687
14898W        W83116  32.038  22.622  11.829
14899W        W83117  15.277  22.553   4.328
14900W        W83118  34.888  41.930   1.402
14901W        W83119  36.545   4.306   3.756
14902W        W83120  30.940  13.624  10.641
14903W        W83121  25.513  11.637   1.049
14904W        W83122   0.288  33.132  11.036
14905W        W83123  33.378  15.598  12.854
14906W        W83124  30.702  30.856   2.500
14907W        W83125   5.327   1.970   3.710
14908W        W83126  32.299   5.831   1.834
14909W        W83127  31.161  22.045  12.515
14910W        W83128  10.894  13.746   0.832
14911W        W83129  27.692  18.351   3.350
14912W        W83130  32.940  23.019   0.319
14913W        W83131  22.693   5.760   1.426
14914W        W83132  29.900  14.046   4.544
14915W        W83133  31.863  17.014   1.066
14916W        W83134  40.120  32.875   3.244
14917W        W83135  25.913  40.498   3.527
14918W        W83136  33.160  31.597  10.684
14919W        W83137   9.212  24.868   2.440
14920W        W83138  20.779  37.889  13.028
14921W        W83139  24.053  27.101  11.865
14922W        W83140  12.998  41.883  11.241
14923W        W83141   5.755  40.061   5.313
14924W        W83142  34.818  41.992  11.186
14925W        W83143  26.446  29.961   0.801
14926W        W83144  21.570  13.124   0.897
14927W        W83145  40.640  12.623  12.094
14928W        W83146   1.768   8.629  14.017
14929W        W83147  39.283  25.605  13.522
14930W        W83148  33.338  22.571   2.739
14931W        W83149   2.510  25.679  11.614
14932W        W83150  30.251  22.149   3.144
14933W        W83151  32.349  33.177  13.608
14934W        W83152  41.827  22.080   0.175
14935W        W83153  22.553  13.191   1.790
14936W        W83154  38.277  33.476   3.753
14937W        W83155  19.085  15.051   4.550
14938W        W83156  35.611  13.249  14.345
14939W        W83157  39.781  38.831   0.004
14940W        W83158  25.599   3.007   4.587
14941W        W83159  16.612  21.452  13.949
14942W        W83160  15.179  41.925  13.453
14943W        W83161  11.174  24.900  13.566
14944W        W83162  20.725   5.530   1.276
14945W        W83163  19.621  29.035   3.821
14946W        W83164   9.729  21.194  10.732
14947W        W83165  19.156  38.997   2.677
14948W        W83166  34.577  35.235  11.522
14949W        W83167  31.410  43.518  11.164
14950W        W83168  41.989  37.969  13.890
14951W        W83169  14.868  11.198  10.561
14952W        W83170  23.279  36.869   0.305
14953W        W83171   7.919  17.444   0.003
14954W        W83172  36.150  41.762   3.205
14955W        W83173   4.629  42.387   4.107
14956W        W83174  35.492  12.611  11.239
14957W        W83175   4.708  25.448  12.987
14958W        W83176  26.557  42.212   2.181
14959W        W83177  15.833  37.768  13.950
14960W        W83178  27.935   8.116   4.065
14961W        W83179   8.629   9.187  12.366
14962W        W83180   3.382  43.113   1.665
14963W        W83181   8.215  17.982   2.722
14964W        W83182  42.331   0.042  14.008
14965W        W83183   1.376  27.147  14.886
14966W        W83184  41.701  29.197  12.789
14967W        W83185   3.796  41.266   4.682
14968W        W83186  11.308  42.786  12.934
14969W        W83187  44.720  38.620  11.140
14970W        W83188  39.614   1.200   4.549
14971W        W83189  41.089  23.678  11.676
14972W        W83190  15.699  34.330   4.117
14973W        W83191  10.296  28.589  13.381
14974W        W83192  11.132   5.238   3.853
14975W        W83193  23.854  14.317   2.320
14976W        W83194  28.323   6.787   0.420
14977W        W83195  30.601  30.955   2.990
14978W        W83196   4.817   5.762  11.161
14979W        W83197   3.207   4.346  13.561
14980W        W83198  12.225  24.767  14.491
14981W        W83199  22.164  44.863  14.843
14982W        W83200  43.301  29.694  12.158
14983W        W83201  23.025  27.289  11.908
14984W        W83202  36.406  24.272   4.245
14985W        W83203  38.785   7.180   9.974
14986W        W83204   6.313   6.267  10.786
14987W        W83205  18.303  38.858   1.393
14988W        W83206  33.439  22.232   1.266
14989W        W83207  41.315  35.073  11.418
14990W        W83208  27.558   3.652  12.407
14991W        W83209  27.227   0.886  12.971
14992W        W83210  23.209   7.683  11.131
14993W        W83211   1.272  32.005   2.824
14994W        W83212  27.484  37.845  13.461
14995W        W83213  27.860   7.677  14.149
14996W        W83214  32.889  25.015   5.126
14997W        W83215   8.773  42.336   9.769
14998W        W83216  42.251  37.081  12.099
14999W        W83217   3.437  10.497  14.878
15000W        W83218  40.964   5.946  14.803
15001W        W83219  33.778  38.008  12.262
15002W        W83220  10.303  29.248   1.761
15003W        W83221  17.132  26.054  10.982
15004W        W83222  20.150  41.383   4.600
15005W        W83223   5.783   7.228  12.616
15006W        W83224  42.381   5.880   0.083
15007W        W83225  44.617  13.109   1.911
15008W        W83226  21.995  20.142   1.394
15009W        W83227  12.371  31.895  11.289
15010W        W83228   6.735  41.999  13.905
15011W        W83229  23.112  27.527  14.930
15012W        W83230   7.346  38.343   0.447
15013W        W83231  34.008  10.091  12.892
15014W        W83232   7.629  18.165  11.998
15015W        W83233   3.259  29.963   4.672
15016W        W83234  36.469  25.750  13.512
15017W        W83235  13.695  22.721   3.122
15018W        W83236  35.815  24.638   4.819
15019W        W83237  26.507  18.772   3.439
15020W        W83238  27.544   9.544  10.649
15021W        W83239   8.837  38.386   2.863
15022W        W83240   9.219  13.030   4.761
15023W        W83241  41.543  19.985  13.406
15024W        W83242  32.153  31.428  11.154
15025W        W83243   7.789  31.564   1.949
15026W        W83244  26.016  31.038  13.936
15027W        W83245  30.108  40.412   1.947
15028W        W83246  23.718  31.050  10.690
15029W        W83247  24.017  20.218  13.929
15030W        W83248  10.867   7.874  11.971
15031W        W83249  16.527   9.655   3.809
15032W        W83250   1.399  21.624  11.635
15033W        W83251  22.917   6.402  11.180
15034W        W83252   0.455  30.253  11.532
15035W        W83253  14.177  40.274  11.184
15036W        W83254  44.258  33.076   3.788
15037W        W83255  26.980  29.060   2.733
15038W        W83256  44.954  16.549   2.343
15039W        W83257  14.235  16.644   4.525
15040W        W83258  29.102  21.440  11.492
15041W        W83259   8.481  43.427  14.486
15042W        W83260   0.457  26.924  10.708
15043W        W83261  19.037  41.357  14.649
15044W        W83262  38.891  34.473  13.686
15045W        W83263  11.167   6.826   3.592
15046W        W83264  39.450  24.909   5.070
15047W        W83265  13.625  21.209   2.258
15048W        W83266  20.615  35.973  14.355
15049W        W83267  21.825  22.460   3.960
15050W        W83268  10.815  44.916   3.348
15051W        W83269  24.441  21.585  12.578
15052W        W83270   6.196  30.035  14.294
15053W        W83271  31.668  20.482   3.756
15054W        W83272  27.615   4.692  14.902
15055W        W83273   8.606  33.022   2.825
15056W        W83274  11.131  38.736  10.777
15057W        W83275  22.546  34.103   2.321
15058W        W83276  24.535  30.627   1.693
15059W        W83277  38.935  33.207   1.025
15060W        W83278  44.684  30.265  12.899
15061W        W83279  10.626   4.670  12.806
15062W        W83280  26.507  31.398   1.261
15063W        W83281  21.524  35.058   0.628
15064W        W83282  20.443  44.597  13.956
15065W        W83283   0.518  36.457  11.560
15066W        W83284  39.943  22.925   2.396
15067W        W83285  26.705   3.443  12.890
15068W        W83286  27.965  38.010   3.212
15069W        W83287  20.044   5.182  12.844
15070W        W83288  31.975  31.948   2.597
15071W        W83289   3.747  24.672   1.455
15072W        W83290  19.099   3.801   4.415
15073W        W83291  17.662  34.665  14.903
15074W        W83292  18.599   0.010   3.239
15075W        W83293  27.169  30.579  12.594
15076W        W83294  18.770  10.596  14.715
15077W        W83295   4.239  24.971   3.198
15078W        W83296  27.686  33.115  14.416
15079W        W83297  13.233  12.919  12.457
15080W        W83298  11.433  25.688   0.849
15081W        W83299  16.880  41.479  13.099
15082W        W83300   5.374  44.672  12.358
15083W        W83301  28.707  43.515   3.800
15084W        W83302  41.394  13.989  12.569
15085W        W83303  10.429  43.420  14.262
15086W        W83304  27.085   4.816  10.097
15087W        W83305  31.607   1.718  11.576
15088W        W83306  39.378  26.641  11.203
15089W        W83307  35.966  13.745   2.948
15090W        W83308  35.248  14.588   4.144
15091W        W83309  42.272   6.302  14.786
15092W        W83310  12.777   0.665  10.332
15093W        W83311  36.337  39.469   3.634
15094W        W83312  19.590  21.204  12.937
15095W        W83313  34.968  24.714   4.293
15096W        W83314   3.191   2.019   3.429
15097W        W83315  17.754  44.978   3.815
15098W        W83316  26.563   7.218  10.659
15099W        W83317   8.330  32.650   0.843
15100W        W83318   3.802  36.793  13.025
15101W        W83319  18.207  44.745   0.445
15102W        W83320  20.654  20.308   4.172
15103W        W83321  35.547   3.240  11.876
15104W        W83322  19.526  40.854   4.524
15105W        W83323   2.507  23.349  14.034
15106W        W83324   9.448  18.524   4.197
15107W        W83325   8.769  33.571   2.131
15108W        W83326   3.583  34.829   0.861
15109W        W83327   9.435  38.852   4.466
15110W        W83328  15.663  43.336   4.717
15111W        W83329   1.806  40.666   4.563
15112W        W83330  10.412   0.764   1.407
15113W        W83331  17.699  16.370   2.810
15114W        W83332  24.919  26.667   5.027
15115W        W83333  42.926   4.959   3.627
15116W        W83334  22.076   6.202  12.049
15117W        W83335   9.108  37.782  13.943
15118W        W83336   4.848   1.336   4.471
15119W        W83337  33.915  44.368  10.399
15120W        W83338  30.999  10.681  11.126
15121W        W83339  27.970  33.830  11.782
15122W        W83340   6.742   5.341  12.062
15123W        W83341  11.197   3.816   4.600
15124W        W83342  18.202  11.595   2.139
15125W        W83343  18.957  21.984  11.953
15126W        W83344  15.173  32.112   2.753
15127W        W83345  20.335  29.569  11.095
15128W        W83346  16.581   0.267   4.574
15129W        W83347  16.770  23.185  14.708
15130W        W83348  11.173  34.140   3.635
15131W        W83349  43.937  26.707  12.094
15132W        W83350  38.474  14.256  14.734
15133W        W83351  35.749  31.611  13.997
15134W        W83352  19.056  34.591  12.904
15135W        W83353  35.950  22.852   0.249
15136W        W83354  37.064   0.774  11.575
15137W        W83355  27.036  26.317   5.054
15138W        W83356  13.519  33.235  13.745
15139W        W83357  13.650  11.524   2.213
15140W        W83358  36.590  30.184   2.756
15141W        W83359  26.233  41.497  11.495
15142W        W83360  16.965  21.458   1.843
15143W        W83361  26.604  20.544   0.006
15144W        W83362  32.468   5.595   3.157
15145W        W83363  13.357   9.373   3.833
15146W        W83364  12.297  35.287  10.528
15147W        W83365   4.715   3.700   2.496
15148W        W83366  42.886  15.400  13.023
15149W        W83367  36.603  26.427  12.233
15150W        W83368  31.115  12.052   0.235
15151W        W83369  28.011  26.336   4.098
15152W        W83370  14.802   8.840  13.187
15153W        W83371  43.370  13.215  14.872
15154W        W83372  25.469  24.309   3.653
15155W        W83373  15.806  40.023   2.861
15156W        W83374  22.644  21.444  11.994
15157W        W83375  27.685  39.141  10.791
15158W        W83376   2.875  12.043  10.494
15159W        W83377  27.544   4.334   2.728
15160W        W83378  26.319  14.285   3.588
15161W        W83379   1.316   3.037   3.804
15162W        W83380  23.616  44.723  10.735
15163W        W83381  20.940   4.728  12.425
15164W        W83382  32.309  36.957  14.859
15165W        W83383  12.958  40.054  14.389
15166W        W83384  40.237  36.402  13.453
15167W        W83385  19.552  13.193   5.138
15168W        W83386  26.654  23.796  11.564
15169W        W83387  15.157  33.491   0.871
15170W        W83388   3.172  27.485  13.630
15171W        W83389   8.566  17.338   9.833
15172W        W83390  32.899  25.783   4.508
15173W        W83391  40.915   9.393  14.428
15174W        W83392  27.384  26.549  12.675
15175W        W83393  20.541   9.226  14.419
15176W        W83394  22.160   4.482  13.354
15177W        W83395  23.782  35.972   4.882
15178W        W83396  35.939   5.289   3.405
15179W        W83397  12.915   6.116  12.382
15180W        W83398  23.462  25.733   4.878
15181W        W83399  12.137  26.071   3.087
15182W        W83400  25.769   9.481  11.950
15183W        W83401   8.771   7.960  13.493
15184W        W83402  32.101  30.484   2.364
15185W        W83403   1.276  42.240  11.892
15186W        W83404  30.675  13.203   1.010
15187W        W83405  40.988  13.348   4.567
15188W        W83406  13.154  29.929   1.701
15189W        W83407   4.197  43.268  13.109
15190W        W83408  30.578  24.383  12.475
15191W        W83409  19.838   9.219  13.143
15192W        W83410  35.639  31.125  14.899
15193W        W83411   0.428  11.083  13.088
15194W        W83412  41.772  14.316   0.373
15195W        W83413  28.548  22.741  12.475
15196W        W83414   5.950   9.844   2.075
15197W        W83415  21.544  36.855  12.503
15198W        W83416  17.654   8.233   0.032
15199W        W83417  14.493  12.042  11.003
15200W        W83418  14.110  10.076  14.396
15201W        W83419  14.158  33.375  11.814
15202W        W83420  25.522  34.016   1.472
15203W        W83421  16.532  27.060   2.677
15204W        W83422   2.230  27.679  10.716
15205W        W83423  18.325  33.337  14.773
15206W        W83424  32.708   4.192   4.000
15207W        W83425  37.814  43.924  12.507
15208W        W83426  43.427  30.257   1.580
15209W        W83427  14.585  15.091  12.803
15210W        W83428  17.815   3.487   3.085
15211W        W83429  20.963  30.470  14.743
15212W        W83430  38.578   4.923   4.661
15213W        W83431   0.941  18.800  14.423
15214W        W83432  40.751  32.664   1.869
15215W        W83433  15.379  13.780  12.496
15216W        W83434  17.451   1.930  13.095
15217W        W83435  22.259  27.514   2.447
15218W        W83436  15.947  31.159  12.608
15219W        W83437  24.596  26.518  11.851
15220W        W83438   6.891  25.840  11.877
15221W        W83439   4.246   2.919  12.378
15222W        W83440  41.804  35.264   1.977
15223W        W83441  38.831  16.061   4.240
15224W        W83442  24.208  37.405  10.513
15225W        W83443  11.203  31.953   4.042
15226W        W83444   7.676  15.240   2.869
15227W        W83445  17.228  13.102   4.124
15228W        W83446  41.529  38.024  14.951
15229W        W83447  28.901  25.331   2.818
15230W        W83448  35.120   0.299   2.598
15231W        W83449  29.524  22.673  13.336
15232W        W83450   8.602  25.134   3.209
15233W        W83451   8.908   8.830  12.108
15234W        W83452  38.352  38.776   3.405
15235W        W83453  38.118   1.481  12.114
15236W        W83454   1.687   5.539  12.400
15237W        W83455   9.821   0.321   3.739
15238W        W83456  29.385  36.212   1.032
15239W        W83457   1.996   9.022   4.971
15240W        W83458   1.932   7.875   3.897
15241W        W83459  11.116   4.571  14.579
15242W        W83460  26.736  29.332   3.131
15243W        W83461   6.922   2.258   3.605
15244W        W83462  14.348  20.200   0.361
15245W        W83463  40.769   0.789   4.081
15246W        W83464  43.507  35.887   1.643
15247W        W83465  13.198   0.777  11.165
15248W        W83466  19.210  37.309   3.706
15249W        W83467  14.733   4.387  13.371
15250W        W83468  17.050  22.657  13.062
15251W        W83469  32.061  20.362   0.539
15252W        W83470  28.143  26.095  12.556
15253W        W83471  14.273  33.336   4.682
15254W        W83472  43.000  20.784   1.269
15255W        W83473   2.894  28.903  13.982
15256W        W83474  43.044  15.769  11.530
15257W        W83475  22.292   0.894   1.460
15258W        W83476   3.121   5.982   2.747
15259W        W83477   8.239  38.009  11.808
15260W        W83478   0.377   6.211  13.839
15261W        W83479  28.133   5.673  13.582
15262W        W83480  12.661  28.093   0.974
15263W        W83481  21.998  39.429  14.881
15264W        W83482   7.595   1.571  11.179
15265W        W83483  21.664  28.225   0.821
15266W        W83484  39.289  38.382   2.518
15267W        W83485  12.929  22.557   0.240
15268W        W83486  37.025  23.659  12.106
15269W        W83487   5.856  35.825   2.489
15270W        W83488   8.460  43.251   1.230
15271W        W83489  33.499  10.635  14.874
15272W        W83490  16.313  17.716   4.284
15273W        W83491  20.641  32.037  13.714
15274W        W83492  16.742  33.764   1.445
15275W        W83493  25.156  21.430  12.138
15276W        W83494  39.528   7.909   0.288
15277W        W83495   6.809  20.751   0.704
15278W        W83496   9.846  19.117   4.620
15279W        W83497  42.969  15.025  13.410
15280W        W83498  23.508  22.186   0.969
15281W        W83499  41.712  30.061   1.199
15282W        W83500  26.324  33.670  14.458
15283W        W83501  17.647  29.173  13.283
15284W        W83502   1.536  35.406   2.280
15285W        W83503  11.385  42.319  13.152
15286W        W83504  40.970  28.377  11.005
15287W        W83505   5.678  12.802  13.427
15288W        W83506  20.612  17.841   0.791
15289W        W83507  18.821  32.385   2.110
15290W        W83508  38.880  23.608   2.807
15291W        W83509  33.861  13.715   4.731
15292W        W83510   6.900   2.865  14.879
15293W        W83511  37.337  38.794   0.946
15294W        W83512  36.034  15.898  14.177
15295W        W83513  30.654   9.608   0.939
15296W        W83514  27.546   0.365   0.780
15297W        W83515  10.025  15.083   4.262
15298W        W83516  17.885  14.616   0.829
15299W        W83517  36.121  22.367   0.104
15300W        W83518  17.262  28.201  12.428
15301W        W83519  32.051   1.465  13.585
15302W        W83520  28.637   2.333   1.715
15303W        W83521   0.439  37.084  13.375
15304W        W83522   8.943  30.036  11.291
15305W        W83523   6.169  39.684   0.379
15306W        W83524  44.899  42.577  12.333
15307W        W83525  10.374  42.317   3.325
15308W        W83526  42.558  28.745   3.153
15309W        W83527  31.843  42.786  11.168
15310W        W83528  16.551  44.928  13.183
15311W        W83529  18.702  42.579  13.286
15312W        W83530   1.862  18.257   1.548
15313W        W83531  40.810  40.295  11.410
15314W        W83532  20.209   0.779   0.771
15315W        W83533  25.950  20.032   2.474
15316W        W83534  21.530  31.137   0.297
15317W        W83535   9.744  19.582   1.903
15318W        W83536  43.329  23.956   1.867
15319W        W83537  33.484  39.432  13.932
15320W        W83538   7.882  25.525  13.852
15321W        W83539  37.465  43.910  14.304
15322W        W83540  40.323   0.222   0.885
15323W        W83541   5.816  41.784   2.340
15324W        W83542  11.871  40.903  11.560
15325W        W83543   3.194   9.782  12.854
15326W        W83544  35.301  29.551  11.149
15327W        W83545  19.490  28.618  14.054
15328W        W83546  11.006   2.716   0.744
15329W        W83547  25.237  32.091   1.473
15330W        W83548  38.988  10.176   2.783
15331W        W83549  35.887  35.180   4.671
15332W        W83550   5.772  34.969   1.852
15333W        W83551  40.738  23.086   0.501
15334W        W83552  34.944   2.399   4.324
15335W        W83553   0.094  38.909   4.249
15336W        W83554  41.400   2.989  14.206
15337W        W83555  40.700  26.712   2.369
15338W        W83556  36.591  19.771   2.754
15339W        W83557  37.934  12.307  14.087
15340W        W83558  37.977   6.332  12.407
15341W        W83559  14.082  21.992   1.756
15342W        W83560  16.594   7.276   1.172
15343W        W83561   2.795  31.291  11.403
15344W        W83562  40.004  28.286   2.580
15345W        W83563  18.359  22.736  12.976
15346W        W83564  43.245  34.175  11.534
15347W        W83565   8.176  32.938  12.541
15348W        W83566   8.721  23.253   4.282
15349W        W83567  20.654  23.136   2.650
15350W        W83568  17.628   7.271   1.888
15351W        W83569  43.449  32.315   2.163
15352W        W83570   8.496  16.190  14.771
15353W        W83571  12.136  42.583   2.339
15354W        W83572  44.250  18.263  11.572
15355W        W83573  30.140  16.546  13.376
15356W        W83574  26.652  12.292  12.569
15357W        W83575  10.741  37.430   1.485
15358W        W83576   9.251  33.175   3.140
15359W        W83577   1.434   0.519   3.810
15360W        W83578  22.208   2.378   3.556
15361W        W83579   4.658   5.520   1.888
15362W        W83580   7.461  41.212  13.833
15363W        W83581  37.454  42.275   0.097
15364W        W83582  32.440   6.777   0.571
15365W        W83583  39.946  19.034  11.862
15366W        W83584  21.596  44.213  14.303
15367W        W83585  19.785   7.894   3.251
15368W        W83586  41.417  18.519   0.002
15369W        W83587  37.617  13.686   1.939
15370W        W83588   8.436   3.583   4.949
15371W        W83589   3.669  40.922  13.880
15372W        W83590  18.754  13.160   3.179
15373W        W83591   4.808  34.540   4.565
15374W        W83592   7.243  24.064  11.133
15375W        W83593  35.354  13.543  11.542
15376W        W83594  30.184   0.851  12.032
15377W        W83595  35.234  18.241  11.055
15378W        W83596  29.733   8.721   3.017
15379W        W83597  43.778   6.779  10.749
15380W        W83598  41.484   2.448   1.715
15381W        W83599   1.416  26.620  11.450
15382W        W83600  25.250  26.801  12.403
15383W        W83601  24.729  10.734  12.955
15384W        W83602  39.364  24.698   2.710
15385W        W83603   2.672  18.127  13.961
15386W        W83604  24.469   7.389   3.272
15387W        W83605  19.152  39.503   3.966
15388W        W83606  31.119  38.532  13.558
15389W        W83607  19.031  22.100  14.288
15390W        W83608  31.910  44.300   4.148
15391W        W83609  40.065   0.244   0.410
15392W        W83610  12.879   4.948   4.234
15393W        W83611  31.750   0.916   2.239
15394W        W83612  10.156  31.761  14.484
15395W        W83613  24.036  30.015   0.166
15396W        W83614  21.302  41.526  12.061
15397W        W83615  43.690  44.313   0.812
15398W        W83616  17.627  33.529  10.346
15399W        W83617   0.224  10.420  13.539
15400W        W83618  41.785   4.354   2.317
15401W        W83619  14.686  13.359  13.079
15402W        W83620  16.566   4.766   4.597
15403W        W83621   6.474  15.626  11.051
15404W        W83622   2.712  38.766   1.800
15405W        W83623  12.652  39.028   3.185
15406W        W83624  13.248   9.141  11.790
15407W        W83625  38.956  15.180   3.343
15408W        W83626  19.117  36.632  13.873
15409W        W83627  29.147  29.532  10.868
15410W        W83628  13.910  17.695   1.165
15411W        W83629  17.201   4.710   0.305
15412W        W83630  13.687  25.219  12.049
15413W        W83631  36.089  32.097  14.950
15414W        W83632  29.740   9.706  12.572
15415W        W83633  39.796  15.864   3.936
15416W        W83634  34.904  36.969   1.909
15417W        W83635   7.454  25.660   3.662
15418W        W83636  20.552  16.280  10.732
15419W        W83637  40.272  34.397  14.677
15420W        W83638  31.712   8.130  12.579
15421W        W83639  41.424  22.641  14.444
15422W        W83640   3.950  13.066   4.199
15423W        W83641   9.672   1.708  10.666
15424W        W83642  43.914  24.234   1.484
15425W        W83643  28.018  14.773   3.580
15426W        W83644  19.944   8.596  10.709
15427W        W83645  35.676  30.869  12.721
15428W        W83646  27.432  34.943  12.305
15429W        W83647  18.186  41.116  14.479
15430W        W83648  38.368   1.897  13.477
15431W        W83649  16.547  42.436   2.402
15432W        W83650  40.300   0.843   2.191
15433W        W83651  10.220   3.235   1.853
15434W        W83652  26.576   0.437   9.784
15435W        W83653  44.863  25.315   3.522
15436W        W83654   2.500   0.551  12.914
15437W        W83655  18.805  21.209  14.012
15438W        W83656   6.776   5.167  14.465
15439W        W83657  15.082   9.055  14.884
15440W        W83658  42.256  14.266   2.107
15441W        W83659   0.392  27.895  11.988
15442W        W83660  39.829   6.323   4.631
15443W        W83661  23.100  29.978  14.228
15444W        W83662  24.693   5.441   0.720
15445W        W83663   3.878  27.173  10.659
15446W        W83664   9.122  44.165  14.748
15447W        W83665   8.272  16.631   0.820
15448W        W83666  20.873  44.006   1.178
15449W        W83667   9.393  26.626   4.594
15450W        W83668  14.913  11.804   0.315
15451W        W83669  34.357  19.609  12.372
15452W        W83670  30.102   8.850  11.274
15453W        W83671  26.921   3.546   2.451
15454W        W83672  20.354  15.393  12.366
15455W        W83673  31.128  32.478   1.328
15456W        W83674  36.276  22.574   2.152
15457W        W83675  44.052   3.354  10.732
15458W        W83676  30.621  25.571  11.604
15459W        W83677  26.516  12.046   1.023
15460W        W83678  34.313  28.180   2.305
15461W        W83679  12.717  21.142   1.005
15462W        W83680   2.900  30.576   3.065
15463W        W83681  13.447  26.781  14.344
15464W        W83682  14.297  42.963   4.873
15465W        W83683  29.550  43.950   0.045
15466W        W83684  41.464   3.341  13.818
15467W        W83685  44.607   0.149  12.954
15468W        W83686  43.468   3.150  11.528
15469W        W83687   7.193  23.936   4.668
15470W        W83688  43.398  29.295   1.364
15471W        W83689  35.579  25.860   4.695
15472W        W83690  28.618   3.306  14.807
15473W        W83691  16.883   8.273   3.657
15474W        W83692  22.577   1.824   0.028
15475W        W83693  12.718  27.904   2.755
15476W        W83694   7.728  30.402  12.528
15477W        W83695  35.050  33.461  13.120
15478W        W83696  17.980  11.308  10.738
15479W        W83697  14.718  29.915  12.582
15480W        W83698  20.819   7.295   0.874
15481W        W83699  30.980  43.316  11.441
15482W        W83700  23.711  42.471  11.522
15483W        W83701   2.012  41.045  12.086
15484W        W83702  33.519  18.995   2.887
15485W        W83703  15.002   2.827   1.693
15486W        W83704  12.372   4.452  14.232
15487W        W83705  41.522  44.524  13.067
15488W        W83706  10.051   6.681  13.334
15489W        W83707  18.679  28.222   1.876
15490W        W83708  24.305  34.700   2.444
15491W        W83709   2.928  33.086   1.733
15492W        W83710  19.666  25.289  13.896
15493W        W83711   4.382   0.496   3.411
15494W        W83712  11.823  38.777   1.946
15495W        W83713  22.977  43.527  14.390
15496W        W83714  25.973  32.928  13.330
15497W        W83715  43.051  10.180   0.224
15498W        W83716   9.739  11.657   4.040
15499W        W83717  21.792  15.071  12.380
15500W        W83718  24.743   2.500  13.985
15501W        W83719  13.687  21.555  14.526
15502W        W83720  17.289  13.453  11.449
15503W        W83721  35.623   9.119   5.110
15504W        W83722  17.894  20.264  14.037
15505W        W83723  30.001  41.277   1.724
15506W        W83724  31.943  25.446   3.369
15507W        W83725  20.815  14.088   0.992
15508W        W83726   0.059  22.528   1.205
15509W        W83727  23.195  10.962  12.831
15510W        W83728  26.555  14.828   4.517
15511W        W83729   3.978  27.422  11.087
15512W        W83730   2.225  41.173  12.939
15513W        W83731   7.588  26.553  11.930
15514W        W83732  40.036  33.890  14.105
15515W        W83733  43.343  39.355  11.866
15516W        W83734   5.565  31.565   5.090
15517W        W83735  27.029  17.872   2.157
15518W        W83736   8.115  18.327   4.924
15519W        W83737  25.381   2.230  11.270
15520W        W83738  26.292   5.684  13.282
15521W        W83739   9.166   3.319  13.710
15522W        W83740  43.251  19.232   4.985
15523W        W83741  28.601  23.468  14.106
15524W        W83742   4.617  37.409  14.803
15525W        W83743  41.505  36.372   3.204
15526W        W83744  20.084  37.499   2.832
15527W        W83745   0.468  36.512   3.211
15528W        W83746  36.339  25.923  12.463
15529W        W83747  13.653  13.770   3.723
15530W        W83748  26.708   7.470  11.091
15531W        W83749   1.670  20.274   2.772
15532W        W83750  19.616   8.973   0.735
15533W        W83751  18.088   6.548  11.641
15534W        W83752  43.876  35.579   1.832
15535W        W83753  29.944   2.877  13.908
15536W        W83754  34.168  35.116   2.881
15537W        W83755  33.083  41.235  12.894
15538W        W83756  21.062   4.211  11.812
15539W        W83757  25.999   9.770  10.633
15540W        W83758  33.395  40.056   4.883
15541W        W83759  29.399  20.804   0.941
15542W        W83760  34.921  10.934   1.368
15543W        W83761  39.430  23.514   3.562
15544W        W83762  23.569  43.766  11.246
15545W        W83763  44.935  13.837   4.693
15546W        W83764   1.680   2.356  11.198
15547W        W83765   2.828  24.489  10.443
15548W        W83766  37.873  39.878   0.418
15549W        W83767  15.222  23.484  11.035
15550W        W83768  12.074  19.638   2.770
15551W        W83769   7.428  29.879   1.759
15552W        W83770  44.744  16.695  13.696
15553W        W83771  16.074  43.924   1.755
15554W        W83772  15.989  20.719  13.800
15555W        W83773   9.505  11.294  13.318
15556W        W83774   4.432  31.862   0.881
15557W        W83775  27.480  21.621   2.882
15558W        W83776  16.050  38.959  12.742
15559W        W83777   1.872  26.537   0.999
15560W        W83778   7.294  41.452   3.200
15561W        W83779  39.938  42.374   3.619
15562W        W83780   8.205   8.803  10.547
15563W        W83781   8.749  14.642  10.994
15564W        W83782  21.087  19.838   0.273
15565W        W83783  37.137  34.581  11.885
15566W        W83784   2.659   7.873   3.189
15567W        W83785  31.712  28.073  11.560
15568W        W83786  43.885  43.525  12.221
15569W        W83787  13.123  26.218   3.268
15570W        W83788   2.772  25.127   1.209
15571W        W83789   3.201  33.748  11.055
15572W        W83790   2.367  27.779   0.432
15573W        W83791  15.320  28.689  13.861
15574W        W83792  19.566  42.494  11.615
15575W        W83793  37.080  41.216  10.949
15576W        W83794  14.795  26.986   2.278
15577W        W83795  21.744  15.998   2.311
15578W        W83796  44.605  26.664   9.814
15579W        W83797  37.901  34.529   0.294
15580W        W83798  22.229   8.867   0.707
15581W        W83799  40.289  11.730   1.002
15582W        W83800  23.010  41.396   0.747
15583W        W83801  19.446  12.818   1.360
15584W        W83802  10.246  37.031   1.685
15585W        W83803  19.315  21.077   5.102
15586W        W83804  35.859   5.161  13.062
15587W        W83805  10.390  12.069  10.673
15588W        W83806  20.538  10.232   3.192
15589W        W83807  32.838  28.708   0.753
15590W        W83808  29.250   9.796   3.756
15591W        W83809  18.159  16.967  13.927
15592W        W83810  44.519  41.982  13.008
15593W        W83811   6.157  19.059   1.859
15594W        W83812   0.695  15.225  14.362
15595W        W83813  25.636  40.943   3.632
15596W        W83814  13.621  39.801  11.853
15597W        W83815   1.363   9.266   3.214
15598W        W83816   3.679  34.613   1.354
15599W        W83817  24.335  30.918  12.058
15600W        W83818  34.350   7.907   2.708
15601W        W83819  28.447  38.322   0.071
15602W        W83820  27.684  18.876  12.529
15603W        W83821  18.182  26.026   2.779
15604W        W83822  24.948  21.986   0.383
15605W        W83823  25.174  37.020   0.722
15606W        W83824  25.550  14.782   3.577
15607W        W83825  20.205  36.108   0.329
15608W        W83826  35.377  27.979  11.882
15609W        W83827  34.495  41.836  14.933
15610W        W83828   6.385  13.145  10.591
15611W        W83829  11.123  33.481  11.163
15612W        W83830   0.987  42.872  11.267
15613W        W83831  24.267  13.088   0.311
15614W        W83832  24.608  37.932  14.256
15615W        W83833   0.572  40.020   3.782
15616W        W83834  19.546  14.830   4.612
15617W        W83835  23.562  33.678   4.164
15618W        W83836  19.743  25.649   2.204
15619W        W83837   5.720  40.497   0.763
15620W        W83838  35.276  27.521  12.055
15621W        W83839   2.317   4.935   1.721
15622W        W83840  16.152  27.664  10.981
15623W        W83841  35.440  16.075  10.597
15624W        W83842  25.970  33.538   3.321
15625W        W83843  39.598  21.153  14.482
15626W        W83844  42.529  24.923   1.218
15627W        W83845  25.403  26.066  11.964
15628W        W83846   1.282   1.190   2.146
15629W        W83847  27.619  29.897  13.156
15630W        W83848  10.594  11.035   3.317
15631W        W83849   6.802  38.472  13.739
15632W        W83850  11.777  14.273  13.234
15633W        W83851   7.400  14.106   2.303
15634W        W83852   3.886  34.444  11.217
15635W        W83853   4.234  25.134  11.921
15636W        W83854   9.337  14.053  13.435
15637W        W83855  12.621  33.021  10.659
15638W        W83856   7.639  34.377  11.316
15639W        W83857  26.780  12.739   3.255
15640W        W83858  12.832  11.800  12.418
15641W        W83859   4.581   5.017  12.153
15642W        W83860  12.331  44.385  14.456
15643W        W83861  13.100   5.455  14.356
15644W        W83862  39.827  38.786   0.523
15645W        W83863  12.605   3.883   3.435
15646W        W83864   7.289  25.520  10.700
15647W        W83865  42.841  14.224  11.339
15648W        W83866  41.562  33.988   3.677
15649W        W83867  18.993  18.177   4.840
15650W        W83868  20.646   7.952  10.889
15651W        W83869  33.084  44.859   3.097
15652W        W83870  37.893  25.170  11.040
15653W        W83871  21.955  27.685  14.281
15654W        W83872  36.681  43.059  13.371
15655W        W83873  24.471  23.671   2.077
15656W        W83874  35.214  39.541   3.746
15657W        W83875  10.812   1.768   4.549
15658W        W83876   7.781   3.513   0.804
15659W        W83877  36.015  31.822   2.402
15660W        W83878  26.551  43.894  10.068
15661W        W83879   5.529   1.685   2.344
15662W        W83880   3.176  18.269   2.116
15663W        W83881  44.619  44.945  14.515
15664W        W83882  10.216  34.621  13.009
15665W        W83883  30.377  10.808  12.870
15666W        W83884   8.879   0.015   2.097
15667W        W83885  29.049   0.989   1.945
15668W        W83886   9.743   6.332  12.623
15669W        W83887  41.618   0.504   4.140
15670W        W83888  30.143  34.321  11.425
15671W        W83889  11.217  16.094   3.184
15672W        W83890  23.249   2.414   0.361
15673W        W83891  19.613  27.719  13.437
15674W        W83892  35.903  33.569   3.114
15675W        W83893   8.855   8.639   1.908
15676W        W83894  35.433  28.711   1.245
15677W        W83895  37.327  17.523  13.511
15678W        W83896  36.568  41.963   4.044
15679W        W83897  44.215   0.445   4.988
15680W        W83898  41.818  22.622   3.876
15681W        W83899  43.671   1.734   0.089
15682W        W83900  27.758  13.635  11.902
15683W        W83901  17.533  25.712   4.731
15684W        W83902  14.643  12.490  11.215
15685W        W83903   3.167  17.044  14.780
15686W        W83904  35.959  36.284   0.265
15687W        W83905  30.491  42.583  10.707
15688W        W83906   4.803  16.299  14.443
15689W        W83907  27.629   9.622   4.660
15690W        W83908  15.087   5.963  10.539
15691W        W83909  38.333  40.080   0.290
15692W        W83910  10.445  39.833   0.028
15693W        W83911   6.138  31.584  11.729
15694W        W83912  23.429   2.695   0.764
15695W        W83913   4.232  44.420   9.855
15696W        W83914  16.073  38.506   4.232
15697W        W83915  17.264  26.770   2.394
15698W        W83916  15.972  44.844   1.829
15699W        W83917  16.148  33.211   3.109
15700W        W83918  38.594   3.676   3.197
15701W        W83919  11.114  22.598   3.199
15702W        W83920  12.215  36.420  14.546
15703W        W83921  18.199   2.837  12.080
15704W        W83922  32.101  31.239   0.776
15705W        W83923  31.964  13.066   0.359
15706W        W83924  27.922   2.799  10.639
15707W        W83925  12.701  21.945  13.167
15708W        W83926  33.157  10.194   1.827
15709W        W83927  26.993  14.092  12.151
15710W        W83928  22.030  24.134   1.752
15711W        W83929  26.375  14.128   4.945
15712W        W83930   6.232   1.900  13.075
15713W        W83931  25.270   8.918  11.162
15714W        W83932  33.465   7.662   1.339
15715W        W83933  42.876  15.502  11.938
15716W        W83934  39.083  35.871  13.509
15717W        W83935  19.047  40.849  12.001
15718W        W83936   0.872   8.378  14.920
15719W        W83937   2.411  15.848  10.634
15720W        W83938  22.262  21.929   1.760
15721W        W83939  37.372   5.380  11.074
15722W        W83940  43.282  43.850   2.282
15723W        W83941  37.639  37.552  14.783
15724W        W83942  22.512  16.913   1.118
15725W        W83943  39.555   0.288  14.998
15726W        W83944  22.300  10.515   0.439
15727W        W83945  42.381  38.950   2.111
15728W        W83946   1.505  12.998   0.608
15729W        W83947  33.775  40.252  13.303
15730W        W83948   0.792  28.432   2.816
15731W        W83949   1.207  39.495   0.347
15732W        W83950   5.374  22.214   4.193
15733W        W83951   1.703  21.575  12.913
15734W        W83952  13.665  18.227   1.833
15735W        W83953  13.772  30.160   2.863
15736W        W83954  20.866  28.180   2.698
15737W        W83955  32.472  29.916   0.874
15738W        W83956  13.620   1.329  12.574
15739W        W83957  41.221  28.077   1.261
15740W        W83958  31.458  17.784  10.494
15741W        W83959  24.556   7.335  12.431
15742W        W83960   8.265  34.402   0.043
15743W        W83961  23.198  16.673  11.945
15744W        W83962  35.225  40.161  11.692
15745W        W83963  31.852   1.823   2.300
15746W        W83964  26.088   1.649  10.462
15747W        W83965  14.698   5.205   4.648
15748W        W83966  41.870   4.172   0.792
15749W        W83967  19.560  36.417  11.162
15750W        W83968  25.039   0.108  14.720
15751W        W83969  26.567  31.124  13.889
15752W        W83970   1.185   4.631   5.018
15753W        W83971  43.920  33.209  12.308
15754W        W83972  25.939  19.575   3.281
15755W        W83973  14.203  11.689  13.445
15756W        W83974   0.041   9.632  11.449
15757W        W83975   6.321  35.162  14.363
15758W        W83976  13.554  35.891  11.055
15759W        W83977   4.347  20.771  10.861
15760W        W83978  11.731  16.731   1.178
15761W        W83979   5.800  13.071   2.426
15762W        W83980  19.099  16.052   3.584
15763W        W83981  22.323  44.277   2.318
15764W        W83982  21.306   3.210  10.959
15765W        W83983  14.784  36.019  13.011
15766W        W83984   4.093  40.873   9.694
15767W        W83985  33.406  40.822   1.838
15768W        W83986  31.593  13.295   0.089
15769W        W83987  23.517  28.512  13.162
15770W        W83988  30.336  32.796   4.499
15771W        W83989  27.315  39.847   2.648
15772W        W83990  42.532  37.593  13.080
15773W        W83991  27.892  40.295   2.787
15774W        W83992  34.401  36.378  10.895
15775W        W83993   7.330  20.106   0.699
15776W        W83994   8.386  21.311  12.950
15777W        W83995  17.783  31.987  11.325
15778W        W83996  37.811  15.811  14.085
15779W        W83997   5.470  16.521  14.958
15780W        W83998  28.144  28.645   2.879
15781W        W83999  33.566  11.293  10.725
15782W        W84000   8.236  33.227   1.823
15783W        W84001   4.906  32.325  11.520
15784W        W84002   9.837   5.747   0.293
15785W        W84003  20.128  35.143   3.397
15786W        W84004  40.120  17.851  10.647
15787W        W84005   0.805  22.640  10.707
15788W        W84006   0.826  13.127   0.388
15789W        W84007  18.744  28.760   1.931
15790W        W84008   7.760  39.429  10.508
15791W        W84009   2.439   6.277   2.302
15792W        W84010  28.502   9.406  12.184
15793W        W84011  22.495  40.557  11.584
15794W        W84012  16.271   0.262   1.794
15795W        W84013  44.636   8.849  13.952
15796W        W84014  40.265  38.637   3.594
15797W        W84015   0.285  34.139  14.039
15798W        W84016  26.052  29.382  11.646
15799W        W84017  34.183  28.095  12.533
15800W        W84018  35.094  40.525   3.656
15801W        W84019   3.998  32.534   2.179
15802W        W84020   9.595  23.308  12.914
15803W        W84021   3.722  30.703   3.648
15804W        W84022  41.947  38.525  12.123
15805W        W84023  44.890  27.958   0.525
15806W        W84024  44.286  15.804  12.012
15807W        W84025  31.639  31.979  13.583
15808W        W84026  31.942   1.743  14.926
15809W        W84027   2.718   2.991  14.955
15810W        W84028   8.189   6.429   0.967
15811W        W84029  27.106   0.560   0.568
15812W        W84030  41.990  28.033  14.707
15813W        W84031  35.272  30.981  12.408
15814W        W84032  27.302  17.160   0.613
15815W        W84033  44.357  44.686  11.644
15816W        W84034  18.799  44.562  11.540
15817W        W84035  16.236   2.276  10.849
15818W        W84036  17.305  10.144   9.840
15819W        W84037  39.239   3.151   0.877
15820W        W84038  32.375   4.279  12.043
15821W        W84039  26.559  13.868  12.313
15822W        W84040  44.298  12.553  10.086
15823W        W84041  13.449   6.427   1.162
15824W        W84042   6.697  10.652  12.508
15825W        W84043  44.249  15.749   0.572
15826W        W84044  33.500  41.388   2.739
15827W        W84045  24.579  10.563   2.189
15828W        W84046   6.266  29.288  13.042
15829W        W84047  30.400   5.808  12.971
15830W        W84048  38.819   1.376   1.786
15831W        W84049  41.042  16.633  13.699
15832W        W84050  16.707   7.901   0.036
15833W        W84051   2.524  13.664   3.489
15834W        W84052  25.105  18.131   4.710
15835W        W84053  42.452   6.815   2.372
15836W        W84054  18.810  10.633  11.586
15837W        W84055  10.415  32.992  13.796
15838W        W84056   6.948  27.723   2.211
15839W        W84057   6.330   7.364   3.225
15840W        W84058   6.856  43.547   3.813
15841W        W84059  23.773  21.068  10.756
15842W        W84060  42.365   1.311  10.996
15843W        W84061  37.516  15.958  12.110
15844W        W84062  25.916   3.450   4.653
15845W        W84063   6.746  25.058   4.574
15846W        W84064  10.440  33.760  11.266
15847W        W84065  43.394   6.670   3.481
15848W        W84066  36.946  31.568  11.212
15849W        W84067  40.536  12.902   0.686
15850W        W84068   2.393  29.575   4.957
15851W        W84069  10.907  44.345   0.110
15852W        W84070  34.421  11.320  12.621
15853W        W84071   3.636  25.589  12.472
15854W        W84072  43.270  37.358   2.795
15855W        W84073  22.153  31.121  13.844
15856W        W84074  38.732  35.654   4.012
15857W        W84075  20.963  13.573   3.240
15858W        W84076  27.379  20.997  13.004
15859W        W84077  43.850   1.006  13.526
15860W        W84078  31.934  16.104  11.901
15861W        W84079  11.228   7.890  13.638
15862W        W84080   5.751  12.742   0.930
15863W        W84081  34.582  43.466  11.247
15864W        W84082   2.127  42.524   3.468
15865W        W84083   2.023  40.288  13.613
15866W        W84084  43.626   9.666  12.543
15867W        W84085   9.755  36.821  13.422
15868W        W84086   6.133  27.283   2.721
15869W        W84087  36.103   7.168  13.028
15870W        W84088  20.747  44.026   4.491
15871W        W84089  21.577  27.417   2.638
15872W        W84090  27.615  39.024   0.742
15873W        W84091  12.913  18.525  13.195
15874W        W84092  30.649  20.045   4.733
15875W        W84093  27.026  24.895  14.873
15876W        W84094  44.393  41.969  13.904
15877W        W84095  35.137  43.366  11.335
15878W        W84096  16.535   0.772  11.456
15879W        W84097  14.655  17.621  13.907
15880W        W84098  33.170   2.525   2.869
15881W        W84099  32.950   5.306  12.959
15882W        W84100  40.502  16.362   0.430
15883W        W84101  12.077  26.383  12.065
15884W        W84102   6.413  39.949   2.279
15885W        W84103  15.395   4.441   0.364
15886W        W84104  38.142  38.924  11.102
15887W        W84105   4.845  30.038   0.343
15888W        W84106  39.312  28.715  12.766
15889W        W84107   4.283  44.818   0.544
15890W        W84108  15.469  30.141   0.380
15891W        W84109  15.774   1.849  12.591
15892W        W84110  42.535  38.883   3.846
15893W        W84111  29.408  36.743   0.961
15894W        W84112  14.837  12.274  13.232
15895W        W84113  44.327  36.812  12.477
15896W        W84114  11.003  16.910   2.073
15897W        W84115  12.666  23.276   4.549
15898W        W84116   5.029  33.506   2.177
15899W        W84117  21.743  21.529  13.342
15900W        W84118  32.232   2.974   3.136
15901W        W84119   8.790  41.362  12.496
15902W        W84120  43.936  31.690   2.812
15903W        W84121  30.386  15.778  11.180
15904W        W84122   7.337   3.157   0.020
15905W        W84123  38.560   3.978  13.290
15906W        W84124  13.348  27.014   4.447
15907W        W84125  28.386  37.284  13.079
15908W        W84126   8.732  38.501  11.214
15909W        W84127  12.983  39.406  10.813
15910W        W84128  38.576  38.494  13.411
15911W        W84129  13.363  21.251   2.739
15912W        W84130  24.195  33.978  13.119
15913W        W84131  44.228  25.762  14.534
15914W        W84132   1.132   3.879  12.997
15915W        W84133  43.058   3.896   4.598
15916W        W84134  44.441  16.607   2.210
15917W        W84135  23.134  25.700  14.325
15918W        W84136  19.777   1.010   0.001
15919W        W84137   2.242  39.607   1.786
15920W        W84138  21.143  42.291  11.612
15921W        W84139  32.984  17.405  14.041
15922W        W84140  20.141  21.677   0.051
15923W        W84141  34.976  39.085  14.826
15924W        W84142   3.904   1.923  13.440
15925W        W84143  27.474   1.165  12.602
15926W        W84144  18.042  12.541  10.299
15927W        W84145  32.757  15.055   3.658
15928W        W84146  27.446  21.072   4.584
15929W        W84147   1.223  42.649   2.393
15930W        W84148  16.117  24.620   2.154
15931W        W84149  30.060  25.111  13.543
15932W        W84150  35.857  42.489   2.754
15933W        W84151  35.488   9.863   3.963
15934W        W84152   6.871  43.795   5.542
15935W        W84153  32.501  20.981   3.380
15936W        W84154  33.575  14.122   1.232
15937W        W84155  36.037  33.931  11.665
15938W        W84156  35.454  13.693   2.843
15939W        W84157  27.691  18.347  14.737
15940W        W84158  25.260  26.542  11.068
15941W        W84159  18.251   4.946   4.499
15942W        W84160  36.803   0.415   4.119
15943W        W84161  32.869   1.933  11.975
15944W        W84162  38.696   7.029   1.858
15945W        W84163  17.592  41.454   3.309
15946W        W84164  27.066   2.723   4.872
15947W        W84165  29.135  18.881   0.266
15948W        W84166   6.227  12.064  11.234
15949W        W84167  27.699  24.120   1.398
15950W        W84168  29.148   6.697   4.224
15951W        W84169  34.605  44.956  14.972
15952W        W84170   2.969   2.202  12.488
15953W        W84171  41.096  33.910   4.574
15954W        W84172  26.589  15.745  10.986
15955W        W84173  26.502   3.335   2.695
15956W        W84174  37.103  31.462  14.530
15957W        W84175  20.283  14.302  10.276
15958W        W84176  34.846   6.694  14.450
15959W        W84177  29.585   2.962  10.256
15960W        W84178  15.086  27.207  14.015
15961W        W84179  15.182   1.478   2.766
15962W        W84180  31.859  28.819  12.547
15963W        W84181  27.463  20.198  14.030
15964W        W84182  44.758  27.514  10.802
15965W        W84183  32.463  25.928   2.838
15966W        W84184   8.171  14.315   1.810
15967W        W84185  19.681  27.986  11.529
15968W        W84186  13.634  24.441   3.644
15969W        W84187   3.915   7.035  13.721
15970W        W84188  36.314  42.285  13.993
15971W        W84189  16.800  37.048   3.122
15972W        W84190  43.395  18.033   2.841
15973W        W84191  13.103  13.685  10.796
15974W        W84192   4.495  30.023   4.124
15975W        W84193  27.842  31.924  12.322
15976W        W84194  30.468  44.286   3.192
15977W        W84195  43.554  29.740   2.199
15978W        W84196   8.916  31.740  10.900
15979W        W84197  24.094  11.868   3.188
15980W        W84198   4.576  32.102   0.398
15981W        W84199  43.543   8.693   2.021
15982W        W84200  30.709   3.220   2.720
15983W        W84201  13.538  10.793  11.981
15984W        W84202  37.176  21.757   1.843
15985W        W84203  39.931  23.223  13.481
15986W        W84204  41.467  22.240   3.170
15987W        W84205  23.625  13.117  14.743
15988W        W84206  23.695  18.553  14.468
15989W        W84207  15.777   4.957  11.037
15990W        W84208   0.902  24.885   4.607
15991W        W84209  27.068  31.771  14.286
15992W        W84210  14.803  13.097   4.109
15993W        W84211   0.307  43.447   0.363
15994W        W84212  30.554   0.527   3.769
15995W        W84213  28.166   6.459   2.833
15996W        W84214  17.307  26.627  13.053
15997W        W84215  38.374  44.100   2.364
15998W        W84216  30.215   0.001  11.554
15999W        W84217  27.558  13.736  13.049
16000W        W84218  19.705  10.541   4.154
16001W        W84219  37.323  13.106   4.145
16002W        W84220  17.881  13.211  12.020
16003W        W84221  19.686  23.446   1.865
16004W        W84222  28.346  19.510  10.627
16005W        W84223  42.536   8.057  11.800
16006W        W84224  13.425   8.806  11.433
16007W        W84225   8.708  12.789  10.752
16008W        W84226  25.545  43.320   0.471
16009W        W84227  35.448  44.587   1.353
16010W        W84228  40.765   4.191  10.928
16011W        W84229  39.003   8.836  11.474
16012W        W84230  22.040   5.208   2.910
16013W        W84231  11.756  28.453  10.652
16014W        W84232  29.969  29.084  13.414
16015W        W84233  14.590  12.253  12.790
16016W        W84234  37.918  28.154   1.399
16017W        W84235  27.516  11.175  11.593
16018W        W84236  42.888  34.615   1.429
16019W        W84237  17.631   7.308  12.945
16020W        W84238  21.133  22.774  10.614
16021W        W84239  32.060  15.158  11.179
16022W        W84240  11.646   6.143  13.762
16023W        W84241  18.317  15.192  11.168
16024W        W84242  36.081  41.502  11.533
16025W        W84243  15.312   0.009  11.909
16026W        W84244  33.152  30.675  10.557
16027W        W84245  19.722  38.911  10.695
16028W        W84246   2.985  10.248  14.899
16029W        W84247  44.642  14.187  12.114
16030W        W84248  30.556   7.267  12.630
16031W        W84249   9.509  11.401   0.822
16032W        W84250  21.567  43.291  10.926
16033W        W84251  30.440  35.445  11.960
16034W        W84252  20.871  19.084   1.592
16035W        W84253  27.490   7.747   3.894
16036W        W84254   0.383   2.394  14.723
16037W        W84255  33.939   7.998  12.893
16038W        W84256   3.391   1.355   0.266
16039W        W84257   3.787   8.416  12.897
16040W        W84258   5.227  35.609  11.565
16041W        W84259  39.591  39.080   3.728
16042W        W84260  29.623  12.687  14.877
16043W        W84261  29.764  40.949  13.372
16044W        W84262  14.322  40.553   1.747
16045W        W84263  35.840   8.541  11.162
16046W        W84264  38.499  30.063   3.578
16047W        W84265  35.995  44.936  11.659
16048W        W84266  25.426  39.411   3.253
16049W        W84267  11.656   6.300  10.643
16050W        W84268   9.480  44.116  11.087
16051W        W84269  23.461  37.119  12.437
16052W        W84270  39.637   3.914  12.114
16053W        W84271  33.792  42.970   1.307
16054W        W84272   3.456  27.019  12.893
16055W        W84273  17.495  19.535  11.449
16056W        W84274   3.458   0.300   1.792
16057W        W84275  31.107  31.742   0.865
16058W        W84276   0.478   9.285  13.759
16059W        W84277  12.736  18.619  13.664
16060W        W84278  35.541  36.930  11.860
16061W        W84279  20.825  29.480   0.214
16062W        W84280  35.575   4.985   2.360
16063W        W84281   1.652  40.943   2.672
16064W        W84282   6.478  19.247   0.034
16065W        W84283  44.246  25.192   9.703
16066W        W84284  11.845  18.687  10.933
16067W        W84285  33.718  20.488   3.612
16068W        W84286  28.478   6.445   1.210
16069W        W84287  32.212   4.107   4.092
16070W        W84288  24.422  23.578  14.931
16071W        W84289  42.313  35.812  11.535
16072W        W84290  40.366  24.070   2.952
16073W        W84291  10.112  43.917  11.603
16074W        W84292  28.474  39.512  13.424
16075W        W84293  31.400  35.840  11.250
16076W        W84294  19.999  28.555  12.589
16077W        W84295  24.985  36.923   4.178
16078W        W84296  17.317  39.032  13.429
16079W        W84297   6.333  19.763   3.247
16080W        W84298   2.437   1.192   3.278
16081W        W84299  15.215  30.452   3.966
16082W        W84300  11.682  40.742   1.846
16083W        W84301   0.549   7.617   4.930
16084W        W84302   6.295  17.803  11.081
16085W        W84303  41.392  22.509  11.189
16086W        W84304  21.570  25.594   1.603
16087W        W84305   1.218  39.988  13.973
16088W        W84306   0.913  22.559   3.787
16089W        W84307   4.711  35.064  14.363
16090W        W84308   8.415  15.785  11.682
16091W        W84309  24.457  22.208   1.918
16092W        W84310  11.074  33.579   1.587
16093W        W84311  37.465   8.736   3.551
16094W        W84312  10.311  15.201   0.735
16095W        W84313  10.869  16.570  11.234
16096W        W84314   6.339  29.138  12.550
16097W        W84315  26.463  18.928   3.931
16098W        W84316  15.291  25.684   2.372
16099W        W84317  25.729  18.881  12.377
16100W        W84318  10.226  22.964  14.252
16101W        W84319  39.493  11.157  12.424
16102W        W84320   4.222  17.687   1.813
16103W        W84321  34.159  36.065   1.968
16104W        W84322   5.370  13.417   4.125
16105W        W84323   4.642  42.545   0.938
16106W        W84324   9.968  27.494   4.622
16107W        W84325  33.566  10.724   4.204
16108W        W84326   5.364  32.606   1.247
16109W        W84327  35.403  44.832  14.567
16110W        W84328   7.236  11.627   3.170
16111W        W84329  38.406  11.618  11.643
16112W        W84330  25.874  12.773  14.286
16113W        W84331  37.402   6.787   2.816
16114W        W84332  21.002  15.918   4.584
16115W        W84333  19.076  41.553  12.399
16116W        W84334   1.566  35.420  12.549
16117W        W84335   2.000  32.385  12.068
16118W        W84336  42.354   4.049   2.398
16119W        W84337  37.969  11.017   1.135
16120W        W84338  30.129  44.885   2.828
16121W        W84339  11.134  24.962  14.072
16122W        W84340  18.652  30.913  11.582
16123W        W84341  33.444  37.574  14.115
16124W        W84342  16.616  29.956   4.678
16125W        W84343   2.740  39.859   1.835
16126W        W84344  37.875  17.668   3.933
16127W        W84345  33.082  39.868   3.291
16128W        W84346  34.121   7.789   3.151
16129W        W84347  30.122  39.477  10.969
16130W        W84348  27.802  42.628   2.875
16131W        W84349  19.971  35.660   0.064
16132W        W84350  37.970  30.568   2.729
16133W        W84351  10.604  24.039   2.663
16134W        W84352  33.493  39.569   3.211
16135W        W84353  43.490  38.814   4.219
16136W        W84354  32.837   5.347  12.072
16137W        W84355   1.220  31.960  12.453
16138W        W84356  17.764  24.253  14.238
16139W        W84357  43.656  30.520   0.108
16140W        W84358  20.354  11.218   2.417
16141W        W84359  41.496  42.258   2.846
16142W        W84360   7.830  41.842   2.916
16143W        W84361  32.605  44.554   4.823
16144W        W84362  25.750  30.612   4.766
16145W        W84363  10.169  35.794   0.094
16146W        W84364   7.751   4.674  13.639
16147W        W84365  38.822  14.722   4.105
16148W        W84366  26.942  30.545  14.989
16149W        W84367  19.426  43.535  12.932
16150W        W84368  20.315  42.795   3.134
16151W        W84369  25.969  17.028   3.656
16152W        W84370  22.787  19.592  14.705
16153W        W84371   0.904   1.796   4.631
16154W        W84372  44.878  33.377  13.862
16155W        W84373  12.656  37.601  13.669
16156W        W84374   9.543  24.042  10.711
16157W        W84375  29.945   2.648  10.600
16158W        W84376  14.386  17.695  11.572
16159W        W84377  33.452  24.098   2.652
16160W        W84378  23.415  39.518  13.872
16161W        W84379  17.063  31.953  12.903
16162W        W84380  30.669   9.103  11.572
16163W        W84381   9.308   4.382  11.122
16164W        W84382  18.269  19.489   4.197
16165W        W84383  20.778  39.731  12.974
16166W        W84384  27.391  21.529   4.823
16167W        W84385  24.633   8.208  13.929
16168W        W84386  10.225  22.227   2.478
16169W        W84387  31.701  19.991  12.572
16170W        W84388  29.226  35.913   0.022
16171W        W84389   5.768  15.357   4.624
16172W        W84390  43.458  25.924   4.670
16173W        W84391  25.408   8.780   0.306
16174W        W84392  19.192  29.427   1.181
16175W        W84393  20.361  21.132  12.514
16176W        W84394   6.980  35.004  13.069
16177W        W84395  35.316  18.053   2.420
16178W        W84396  10.337   0.699  12.508
16179W        W84397   4.307  14.699  11.592
16180W        W84398   8.415   0.852  10.976
16181W        W84399  37.574   9.137   3.211
16182W        W84400   4.731  25.960   3.711
16183W        W84401   9.367  30.209  11.035
16184W        W84402  29.218  36.789  12.982
16185W        W84403   0.697  27.227  11.221
16186W        W84404  35.943  19.090   0.811
16187W        W84405   6.788   8.417  12.538
16188W        W84406  34.890  27.672   0.484
16189W        W84407   7.664  44.013  12.370
16190W        W84408  38.288  39.429  14.597
16191W        W84409  27.452   6.127   1.231
16192W        W84410  43.112  25.420  13.256
16193W        W84411   5.910  22.262   1.825
16194W        W84412  39.495  20.512  10.987
16195W        W84413   3.317  27.716   1.251
16196W        W84414  44.776  15.616  12.083
16197W        W84415   6.789  44.356  11.789
16198W        W84416  10.426  26.595  12.477
16199W        W84417  39.802  28.013  10.664
16200W        W84418  20.095  33.614  14.406
16201W        W84419  18.804  28.609  12.973
16202W        W84420  20.291   2.023   2.299
16203W        W84421   2.896  10.094   1.610
16204W        W84422  40.502  20.301  11.973
16205W        W84423   9.474  17.824   1.395
16206W        W84424   8.141  13.388   1.766
16207W        W84425  22.926  24.264   0.696
16208W        W84426  32.959  30.578  10.069
16209W        W84427  14.833   5.469   1.139
16210W        W84428  40.371  22.150   1.874
16211W        W84429  22.740   1.276   3.659
16212W        W84430   4.250  32.967   1.287
16213W        W84431  31.885   4.168   2.357
16214W        W84432  44.186  44.492   4.134
16215W        W84433  28.900  21.308   2.302
16216W        W84434   1.045  22.413  14.910
16217W        W84435  19.272  26.225   4.038
16218W        W84436  17.552  28.249   1.344
16219W        W84437  22.537   1.218   4.117
16220W        W84438  14.607   4.752  12.168
16221W        W84439  40.169  27.015   1.191
16222W        W84440  35.137  22.930   2.928
16223W        W84441  31.009  32.638  10.415
16224W        W84442  32.069  30.020   2.151
16225W        W84443  24.981  43.192   4.149
16226W        W84444  44.002   5.872   3.163
16227W        W84445   9.852  13.731   4.404
16228W        W84446  28.795  22.239   3.070
16229W        W84447  33.589  16.786   2.168
16230W        W84448  13.367   0.957  12.885
16231W        W84449  33.337  29.154   3.220
16232W        W84450  14.436  23.232  12.909
16233W        W84451   6.360  11.718  10.843
16234W        W84452  10.927  31.647  14.020
16235W        W84453  16.495  15.368   2.363
16236W        W84454  21.074  22.431   5.127
16237W        W84455  20.963  26.970  11.088
16238W        W84456  39.968  19.135   2.181
16239W        W84457   1.551  17.827  11.332
16240W        W84458  34.501  44.102   1.848
16241W        W84459  27.698  33.706   1.733
16242W        W84460  33.183  29.636  14.336
16243W        W84461  34.066   0.442  13.161
16244W        W84462  16.338  41.514  13.078
16245W        W84463  28.675  40.382   0.974
16246W        W84464  43.877  37.618  11.612
16247W        W84465  30.082  36.404  13.112
16248W        W84466  18.594  34.026   9.361
16249W        W84467  38.531   5.387   1.138
16250W        W84468   9.668  21.482   0.753
16251W        W84469  16.370  32.228   3.206
16252W        W84470  29.566  20.057   4.146
16253W        W84471   2.286  12.560  14.383
16254W        W84472  20.791  21.799   2.641
16255W        W84473  10.598  39.513   4.799
16256W        W84474  40.100   4.647   0.658
16257W        W84475  12.138  39.414  13.429
16258W        W84476   2.222  25.758   1.716
16259W        W84477   3.518  40.913   0.783
16260W        W84478  16.703   6.793  10.738
16261W        W84479  40.510  15.519   2.365
16262W        W84480  44.086   0.720  11.085
16263W        W84481  30.904  24.078   1.662
16264W        W84482  33.516  20.724  11.218
16265W        W84483   9.628  15.542   4.104
16266W        W84484  31.803  35.875   4.087
16267W        W84485  18.197  35.473   0.250
16268W        W84486  24.880  40.340   1.763
16269W        W84487   6.990  44.983   3.416
16270W        W84488  12.203   6.433   2.178
16271W        W84489  33.998   7.723  14.398
16272W        W84490  13.366   0.539  11.612
16273W        W84491  41.511   0.633   2.736
16274W        W84492   3.579   7.888  14.079
16275W        W84493  18.165  40.918   3.971
16276W        W84494  31.773  13.715   1.447
16277W        W84495  31.699  16.593  11.081
16278W        W84496  39.288   1.859  12.587
16279W        W84497  21.031  23.665   2.442
16280W        W84498  20.084   4.465  11.526
16281W        W84499   9.320   2.931   3.408
16282W        W84500  18.162  37.297   1.995
16283W        W84501  40.598  15.850  12.448
16284W        W84502  15.318  40.379  14.545
16285W        W84503  11.867  33.006   1.256
16286W        W84504  15.446  13.358   5.218
16287W        W84505  40.701  42.666   3.159
16288W        W84506   3.365  33.627  11.693
16289W        W84507  13.780   3.025  12.019
16290W        W84508   2.958  13.130   4.148
16291W        W84509   5.672  43.996   3.973
16292W        W84510  21.588   4.253   3.249
16293W        W84511  39.049  39.783  12.490
16294W        W84512  19.586  14.467  11.561
16295W        W84513   8.599   3.369  12.347
16296W        W84514  20.768  36.656  10.750
16297W        W84515  15.272   3.729   4.902
16298W        W84516   4.686  23.247   4.562
16299W        W84517  12.684   2.179   0.964
16300W        W84518  28.612  41.503   5.024
16301W        W84519  14.907  35.300  12.129
16302W        W84520   2.308  28.903   3.887
16303W        W84521  31.394  28.945   3.249
16304W        W84522  27.512  16.104   1.422
16305W        W84523  44.130  39.107  11.213
16306W        W84524   8.841  11.305  13.738
16307W        W84525   0.269   1.763  11.982
16308W        W84526   9.824  42.390  11.116
16309W        W84527   4.045   3.509   5.031
16310W        W84528  43.241  25.533  11.929
16311W        W84529  41.015  32.450   4.946
16312W        W84530  38.474  33.239  13.423
16313W        W84531  40.089   0.119  10.766
16314W        W84532  28.166  30.882  11.878
16315W        W84533  18.704  26.727   3.664
16316W        W84534   7.666  18.285   0.936
16317W        W84535  27.625  17.141   1.456
16318W        W84536  14.667  22.477  14.541
16319W        W84537   0.601  29.400   2.643
16320W        W84538  16.246   6.206   2.410
16321W        W84539  42.255  26.019  12.571
16322W        W84540  32.101  24.442  10.983
16323W        W84541  42.684  30.423  12.976
16324W        W84542  38.595  41.053  12.425
16325W        W84543  35.609  37.878  11.204
16326W        W84544  15.257  43.306   4.020
16327W        W84545  36.562  18.408  12.829
16328W        W84546   5.758  43.707  12.017
16329W        W84547  32.078  33.900  11.522
16330W        W84548   1.899  43.039   1.898
16331W        W84549   6.858  22.878  12.193
16332W        W84550  40.311  13.254  12.412
16333W        W84551  43.884  28.665  14.721
16334W        W84552   8.310  11.725   4.699
16335W        W84553  24.689  18.238  10.940
16336W        W84554  28.867  41.925  13.315
16337W        W84555   1.302  18.110   0.320
16338W        W84556  26.059  35.602   0.034
16339W        W84557  36.473   5.930  12.318
16340W        W84558  18.164  13.499   3.652
16341W        W84559  34.144   3.227   3.260
16342W        W84560  18.927  15.148   1.337
16343W        W84561  22.615  20.444  11.105
16344W        W84562   4.868  18.359  12.130
16345W        W84563   9.982   1.675  11.584
16346W        W84564  30.723  29.424  11.994
16347W        W84565  17.843   2.024  14.433
16348W        W84566  28.211  26.544  11.983
16349W        W84567  23.726   0.007   2.074
16350W        W84568  18.660  22.985  14.508
16351W        W84569  31.063  36.602  13.900
16352W        W84570  27.242  14.130  13.139
16353W        W84571  28.668  10.183  14.519
16354W        W84572  44.597  31.994   1.379
16355W        W84573  40.107   4.440  14.742
16356W        W84574  10.733  21.198  11.013
16357W        W84575   3.823  28.486   4.635
16358W        W84576   3.814   2.931  12.043
16359W        W84577  36.471   4.030  11.513
16360W        W84578  36.901  37.064  13.874
16361W        W84579  22.925  39.578  13.985
16362W        W84580  16.762  39.279  12.004
16363W        W84581  34.301  19.254   4.619
16364W        W84582  44.212  35.468   2.705
16365W        W84583  30.046  28.000  13.540
16366W        W84584  16.852  28.084  14.681
16367W        W84585   1.878  27.158  13.412
16368W        W84586  39.324  44.331   0.998
16369W        W84587   9.239  12.702  10.721
16370W        W84588  24.588  24.612   4.740
16371W        W84589  43.069  27.149  12.979
16372W        W84590  15.522  29.016  11.519
16373W        W84591   8.747  25.396   1.862
16374W        W84592   6.865  23.057   2.270
16375W        W84593  28.562   9.218  14.478
16376W        W84594  40.087  18.574  12.166
16377W        W84595  36.517  18.794  14.727
16378W        W84596  40.622   7.144  13.386
16379W        W84597   4.661  25.122  10.999
16380W        W84598   2.131  34.929   1.794
16381W        W84599   3.618  29.832  14.404
16382W        W84600  30.000   0.784   4.432
16383W        W84601  35.072   9.666  14.811
16384W        W84602  43.347  30.804  13.494
16385W        W84603  21.624  10.825   0.636
16386W        W84604  11.729  39.834  14.445
16387W        W84605  34.545  19.513  11.089
16388W        W84606  21.516  25.059   2.948
16389W        W84607  22.354   6.293  14.433
16390W        W84608  37.328  36.132  12.814
16391W        W84609   9.548  33.915   0.775
16392W        W84610   4.758  10.644  13.413
16393W        W84611  36.643  32.341  10.792
16394W        W84612  25.459  21.115   4.220
16395W        W84613  12.866   8.896  12.035
16396W        W84614  11.942   8.689  11.909
16397W        W84615  28.962   2.141   4.071
16398W        W84616  16.698  26.523   2.860
16399W        W84617  25.464  36.538  13.462
16400W        W84618  13.580  16.590  14.562
16401W        W84619   4.708  38.292   4.797
16402W        W84620  30.586   2.530  12.908
16403W        W84621  38.007  20.508   2.635
16404W        W84622  32.424   4.741  14.057
16405W        W84623  29.514  27.145   2.649
16406W        W84624  37.328  18.333  13.979
16407W        W84625  39.965   9.314  14.456
16408W        W84626  24.224   6.924  12.366
16409W        W84627  15.050  35.432   2.866
16410W        W84628  27.744  10.265   4.098
16411W        W84629  17.317  39.106   9.894
16412W        W84630  20.822  29.522   4.570
16413W        W84631  35.872  26.454  10.267
16414W        W84632  18.735   8.934   0.054
16415W        W84633  18.324  10.782  11.657
16416W        W84634  21.111  15.256  10.657
16417W        W84635  27.606  14.643   1.993
16418W        W84636  30.565   4.948  12.370
16419W        W84637  16.822   1.188  10.529
16420W        W84638  20.060  34.932   2.422
16421W        W84639  12.134   3.258  14.883
16422W        W84640  29.956   2.012   3.803
16423W        W84641  38.976  39.595  12.966
16424W        W84642  34.948   6.112   0.907
16425W        W84643  22.397  10.749   1.722
16426W        W84644  19.677  42.445  12.479
16427W        W84645   9.950  14.285   5.046
16428W        W84646   3.851   3.820  10.984
16429W        W84647  15.190  43.579  12.148
16430W        W84648   3.685   3.006   2.688
16431W        W84649   5.637  13.527   2.255
16432W        W84650  41.073  21.516   2.884
16433W        W84651  14.070  15.094   2.296
16434W        W84652  10.071  34.406   3.947
16435W        W84653  43.491   0.361   0.757
16436W        W84654   4.789  27.937  14.752
16437W        W84655  41.142  30.549  12.117
16438W        W84656  20.005  25.236   4.739
16439W        W84657  30.980  27.662   4.229
16440W        W84658  38.471  26.209  12.583
16441W        W84659  11.781   8.859  14.888
16442W        W84660  35.457  35.066  11.684
16443W        W84661   1.213  31.493   3.736
16444W        W84662   8.715  37.942  11.648
16445W        W84663   9.194  35.545   3.576
16446W        W84664   4.221   6.278   4.778
16447W        W84665  14.848  27.695   0.484
16448W        W84666  10.922  12.779  14.694
16449W        W84667  25.921  43.013  12.104
16450W        W84668  34.721  32.094   0.238
16451W        W84669  42.714  16.073  14.486
16452W        W84670  38.401   9.168  14.774
16453W        W84671  22.741  10.391  11.986
16454W        W84672  26.262  43.203   3.796
16455W        W84673   0.390  10.901  12.623
16456W        W84674  14.183  24.407  11.149
16457W        W84675   1.811  19.016   2.276
16458W        W84676  41.459  40.550  12.023
16459W        W84677  25.413  19.030   2.441
16460W        W84678  23.785   2.806   4.062
16461W        W84679  44.878  14.824   0.460
16462W        W84680   5.520  22.050  11.267
16463W        W84681  17.492   9.186   0.222
16464W        W84682  22.540  37.494  13.911
16465W        W84683  39.923  33.595   0.154
16466W        W84684   5.743   3.780  12.948
16467W        W84685  16.354  20.900   0.934
16468W        W84686  21.178  16.345  14.226
16469W        W84687  17.080   2.572  14.832
16470W        W84688  27.293  20.781  12.321
16471W        W84689  38.472   3.490  14.357
16472W        W84690   5.735  17.845   9.817
16473W        W84691   6.875  40.181   2.253
16474W        W84692  24.196  20.576  12.437
16475W        W84693  41.761  11.422   3.574
16476W        W84694  30.567   6.717   2.290
16477W        W84695  23.119  18.039  11.503
16478W        W84696  18.590  40.552   3.279
16479W        W84697  29.056   4.415  13.430
16480W        W84698  19.823  23.959  13.551
16481W        W84699  23.312   3.326  11.174
16482W        W84700  41.799  31.612   1.364
16483W        W84701  28.658   6.709  10.394
16484W        W84702  26.476   4.017  11.556
16485W        W84703  20.085  38.940   0.195
16486W        W84704   1.683  37.107   2.147
16487W        W84705  30.620  17.057   4.703
16488W        W84706  37.113  40.319   0.320
16489W        W84707  23.064  30.185   0.219
16490W        W84708  25.396  28.558  11.608
16491W        W84709  24.651  31.249  12.337
16492W        W84710  16.265  29.309  14.322
16493W        W84711  40.492  42.368  11.957
16494W        W84712  21.224  20.748   0.107
16495W        W84713  17.821  37.442   1.639
16496W        W84714  13.211  22.851  14.028
16497W        W84715  20.451  34.474   1.889
16498W        W84716  10.731  13.298   4.050
16499W        W84717  41.383  19.303   4.532
16500W        W84718  38.799  17.212  13.577
16501W        W84719  31.841  14.866  14.805
16502W        W84720  35.027  40.585  14.926
16503W        W84721  15.765  30.256   4.713
16504W        W84722  26.990  35.516   4.578
16505W        W84723  18.307  31.835   3.075
16506W        W84724  34.106   3.897   2.785
16507W        W84725   3.987  25.202   3.622
16508W        W84726  31.604  42.809   4.771
16509W        W84727  27.504  10.855  14.456
16510W        W84728  19.630   6.394   3.211
16511W        W84729  35.838  26.046  12.468
16512W        W84730  41.353  10.387   3.195
16513W        W84731  13.580  20.735   4.121
16514W        W84732   0.966  28.438  14.441
16515W        W84733  30.227  25.654  12.535
16516W        W84734  38.466  34.063  12.839
16517W        W84735   0.397   1.676   2.196
16518W        W84736  25.235  32.591   0.736
16519W        W84737  42.837  41.118   3.236
16520W        W84738  19.696  26.533   4.119
16521W        W84739  30.885  14.565   0.617
16522W        W84740  16.282  17.283   4.551
16523W        W84741  13.283  15.393   0.340
16524W        W84742  39.065   4.083   4.285
16525W        W84743  12.623   5.796  10.311
16526W        W84744  41.898  43.200   0.851
16527W        W84745  14.286  15.838   2.004
16528W        W84746  17.354  42.210  13.540
16529W        W84747  21.283  39.272   0.390
16530W        W84748  34.572  28.610   1.095
16531W        W84749  10.651  40.288  12.564
16532W        W84750   0.158  15.847  11.198
16533W        W84751   1.414  25.616  13.319
16534W        W84752  13.299  21.633   0.484
16535W        W84753   4.195  41.446  11.922
16536W        W84754  36.861  22.401  11.575
16537W        W84755   1.568  23.609   1.014
16538W        W84756   2.260   4.970  12.524
16539W        W84757  41.087  27.533  13.063
16540W        W84758  11.456  43.508  14.230
16541W        W84759  16.023  38.834   1.702
16542W        W84760  17.526  17.927   1.474
16543W        W84761  17.013  39.771   1.235
16544W        W84762   2.875  42.980  11.124
16545W        W84763  22.217   2.872  13.777
16546W        W84764  32.035  33.854  14.343
16547W        W84765   8.099  10.707   2.662
16548W        W84766  36.020   5.704  14.335
16549W        W84767   1.703  29.360  11.815
16550W        W84768  40.176  17.323  13.363
16551W        W84769  38.466   9.065  13.379
16552W        W84770  41.922   5.712  10.810
16553W        W84771   8.987  15.695  12.283
16554W        W84772  22.604  34.445  14.729
16555W        W84773  24.333  39.288  12.975
16556W        W84774  29.404  14.655  11.511
16557W        W84775   1.164   1.542  12.672
16558W        W84776   5.103  12.763  12.545
16559W        W84777  43.973  35.918   1.428
16560W        W84778  12.280  21.632  11.902
16561W        W84779  19.418  33.548   3.703
16562W        W84780  34.869  11.744  14.947
16563W        W84781  20.496  14.646  12.618
16564W        W84782  22.230  44.826  10.990
16565W        W84783  40.784  33.475   2.302
16566W        W84784   1.499  22.357   1.378
16567W        W84785   7.397  29.366  13.624
16568W        W84786  34.281   3.745   5.348
16569W        W84787   2.881   4.734   4.098
16570W        W84788  42.526  27.273   0.714
16571W        W84789   7.810  12.697  10.616
16572W        W84790  44.229  40.863  10.535
16573W        W84791   7.494   4.479   1.024
16574W        W84792  34.908  30.541   1.011
16575W        W84793  24.551   4.220  13.261
16576W        W84794  24.060  32.601   2.433
16577W        W84795  31.028  23.283   0.835
16578W        W84796  38.262   0.063  11.329
16579W        W84797   1.567   6.195  11.151
16580W        W84798   8.179  15.238  10.506
16581W        W84799  22.724  41.842  14.273
16582W        W84800   0.843  40.833   3.083
16583W        W84801   0.432  14.826   3.450
16584W        W84802  39.559  22.873   1.126
16585W        W84803  12.872  39.565  13.946
16586W        W84804   8.078  16.281   1.234
16587W        W84805  22.137  12.654  10.335
16588W        W84806   8.658   8.653  10.710
16589W        W84807  28.662   9.112  13.990
16590W        W84808  42.407  12.875   4.715
16591W        W84809  43.385  25.857  13.386
16592W        W84810  36.836   4.261   2.020
16593W        W84811  34.521   3.624  13.890
16594W        W84812  15.236   1.808   1.368
16595W        W84813  31.074  37.036   0.439
16596W        W84814  37.862  40.992  14.837
16597W        W84815  33.751  11.104  11.179
16598W        W84816  12.850  35.109  12.441
16599W        W84817   9.166  18.657  12.442
16600W        W84818   3.673  38.415   1.614
16601W        W84819  18.166   4.077   1.140
16602W        W84820  24.467   5.410  14.312
16603W        W84821  40.983  13.836   0.849
16604W        W84822  44.272  26.139  10.784
16605W        W84823  32.275  21.696  11.912
16606W        W84824   4.490  15.245  11.191
16607W        W84825  26.940  39.127   2.490
16608W        W84826  39.635  41.704   0.540
16609W        W84827   1.002   8.154   4.165
16610W        W84828  14.525  36.639  11.048
16611W        W84829  43.331  23.491  10.713
16612W        W84830  36.378  14.783  12.830
16613W        W84831   7.115  27.084  11.263
16614W        W84832  18.263  41.926   2.717
16615W        W84833  37.894  31.394   1.856
16616W        W84834   9.881  10.284  12.668
16617W        W84835  34.560   9.262  13.912
16618W        W84836  10.161   9.342   1.194
16619W        W84837  40.086  20.055  12.406
16620W        W84838  38.996   4.459   0.853
16621W        W84839  44.974  23.078   0.507
16622W        W84840  30.097  36.395  12.197
16623W        W84841  18.871   7.751  14.448
16624W        W84842  33.687  31.637  13.127
16625W        W84843  37.487  18.954   0.969
16626W        W84844  23.072   1.137  13.492
16627W        W84845  16.374  13.778   0.402
16628W        W84846  34.158  25.650   0.982
16629W        W84847  21.686   3.246   3.345
16630W        W84848  37.401  26.647   0.529
16631W        W84849   4.952  24.920   3.561
16632W        W84850  31.510  21.675   2.709
16633W        W84851  17.846  24.426  11.556
16634W        W84852  39.265   5.385  12.452
16635W        W84853  42.527  44.028   3.392
16636W        W84854  36.770   1.787   5.495
16637W        W84855   6.511  27.326  11.883
16638W        W84856  18.431   7.992  13.357
16639W        W84857  33.023   0.409   4.837
16640W        W84858  22.013   9.051  12.896
16641W        W84859  33.775   4.035   5.079
16642W        W84860   3.748  43.487   2.940
16643W        W84861   5.159  31.750   2.365
16644W        W84862  14.331   6.250  14.522
16645W        W84863  40.309  29.047  12.614
16646W        W84864  32.361  17.215  14.902
16647W        W84865  37.365   9.775   2.433
16648W        W84866  18.224  26.929   3.788
16649W        W84867  25.328  41.971  14.732
16650W        W84868  24.626  40.386  13.811
16651W        W84869  44.785  26.539   4.004
16652W        W84870  10.931  42.408  13.479
16653W        W84871  25.184   7.891   1.038
16654W        W84872  28.977  17.899  14.451
16655W        W84873  29.341  23.943  12.981
16656W        W84874  13.241  34.386  12.029
16657W        W84875   2.524  29.904   2.846
16658W        W84876  42.855  19.736   4.748
16659W        W84877  28.466  42.306   1.370
16660W        W84878   9.828  25.723   0.047
16661W        W84879  21.126  41.527   3.109
16662W        W84880   1.416  29.132   3.869
16663W        W84881  34.138  27.132  12.577
16664W        W84882  34.493  29.534  14.574
16665W        W84883  22.795  24.653   2.785
16666W        W84884  41.056  37.136  12.898
16667W        W84885  30.654  13.364  13.287
16668W        W84886   7.296   8.596  10.441
16669W        W84887  23.054  39.118  11.561
16670W        W84888   5.665   1.943  11.643
16671W        W84889  26.840  20.189   3.534
16672W        W84890  19.752  34.771  12.023
16673W        W84891  23.976   7.312   4.680
16674W        W84892  43.659   7.299  11.868
16675W        W84893   1.064  21.212   4.371
16676W        W84894  33.553  26.252   4.953
16677W        W84895  34.361  23.827  12.468
16678W        W84896  28.629  43.584   0.292
16679W        W84897   6.958  29.035  11.265
16680W        W84898  11.147  35.305   1.810
16681W        W84899  13.560  32.492   1.699
16682W        W84900  11.919  22.613  13.929
16683W        W84901  24.803  17.576   3.643
16684W        W84902   9.533  26.009  11.730
16685W        W84903  28.961  15.309  12.522
16686W        W84904   5.477  22.996  14.391
16687W        W84905  39.315  10.885  14.417
16688W        W84906  44.936   8.328   2.782
16689W        W84907  24.378  32.429   1.183
16690W        W84908  21.506   4.478  12.004
16691W        W84909  40.122  42.035  12.023
16692W        W84910   3.825   2.242  14.410
16693W        W84911  15.524  21.294   1.789
16694W        W84912  26.499  10.288  11.157
16695W        W84913  14.112  14.125   3.668
16696W        W84914  25.203  38.027  14.795
16697W        W84915  23.122  20.244   2.671
16698W        W84916   9.448  14.264   4.922
16699W        W84917  40.501   6.948  12.927
16700W        W84918  20.482  11.870   4.023
16701W        W84919   9.111  24.062  12.502
16702W        W84920  22.924   1.391  14.434
16703W        W84921  16.173   3.589  11.189
16704W        W84922  15.657  36.755   4.492
16705W        W84923  32.107   3.832   1.270
16706W        W84924  12.699   5.075  12.107
16707W        W84925   7.891  26.134   2.590
16708W        W84926  40.657   0.967   3.608
16709W        W84927   1.221  25.762   4.865
16710W        W84928  16.819  12.106  12.433
16711W        W84929  27.094  19.990   0.981
16712W        W84930  34.092   7.597  10.871
16713W        W84931   5.245   1.551  11.152
16714W        W84932  29.899  11.097   1.368
16715W        W84933  10.368  11.305   2.574
16716W        W84934  22.544  34.724   1.710
16717W        W84935  30.327  44.718  12.392
16718W        W84936  19.505  32.083   2.591
16719W        W84937  33.138  38.483   3.626
16720W        W84938  28.240  20.337  10.972
16721W        W84939  37.994  25.386   1.279
16722W        W84940  23.095  33.891   3.341
16723W        W84941  21.855  32.316   5.053
16724W        W84942  36.392   5.473   1.709
16725W        W84943  11.130  24.073   0.878
16726W        W84944  16.561  37.655   1.293
16727W        W84945  38.864  15.717  11.367
16728W        W84946  42.206   5.415   0.330
16729W        W84947  26.614  26.669   1.766
16730W        W84948  37.006  31.426   1.723
16731W        W84949  40.254  39.125  10.210
16732W        W84950  24.075   4.979  11.354
16733W        W84951   5.200  15.086  14.023
16734W        W84952  33.462  39.119  14.446
16735W        W84953  36.325  40.384  13.779
16736W        W84954  35.513  38.279   2.259
16737W        W84955  27.565  15.610   3.422
16738W        W84956  42.439  29.984  14.814
16739W        W84957  23.853  41.339   2.889
16740W        W84958  37.686   3.301   3.929
16741W        W84959  36.105   8.348  11.545
16742W        W84960  39.126  14.742   3.143
16743W        W84961  33.650  23.415   4.577
16744W        W84962  29.058  38.843  14.044
16745W        W84963  17.621  38.056  11.553
16746W        W84964  11.159  43.502   0.643
16747W        W84965  17.719   6.216  14.360
16748W        W84966   1.789  38.037   3.792
16749W        W84967  38.222  44.266   4.584
16750W        W84968   5.152  37.597  11.139
16751W        W84969  17.580  33.423   3.072
16752W        W84970  41.562   6.701   0.229
16753W        W84971  16.037  36.832   1.726
16754W        W84972  17.073   9.650  13.991
16755W        W84973  23.611  28.060  14.380
16756W        W84974  12.222  22.136  11.779
16757W        W84975  35.620   1.673  12.000
16758W        W84976  44.355  39.046  14.248
16759W        W84977  36.120  24.085   1.826
16760W        W84978  18.517  40.337  13.426
16761W        W84979  19.370  29.487  14.926
16762W        W84980  41.460  15.776  13.001
16763W        W84981   0.416  27.915  13.768
16764W        W84982  40.344  24.677  11.048
16765W        W84983  40.325  21.277   2.826
16766W        W84984  35.763  44.538  12.964
16767W        W84985  36.556   8.784   0.952
16768W        W84986  15.232   7.733  10.698
16769W        W84987   4.376  18.728  13.681
16770W        W84988   5.203   2.226   4.194
16771W        W84989  34.395  11.590   0.680
16772W        W84990  42.329  13.214  13.784
16773W        W84991   6.245  30.248  13.277
16774W        W84992  36.124  38.368   3.129
16775W        W84993  42.303  20.663   4.510
16776W        W84994  26.397  40.497   3.716
16777W        W84995  22.707  44.691   2.337
16778W        W84996  39.382   1.671   0.022
16779W        W84997  37.140  21.577  13.474
16780W        W84998   7.267  26.778   0.054
16781W        W84999  44.553  31.605  12.001
16782W        W85000  22.685  22.979   3.308
16783W        W85001  20.645  43.205  10.538
16784W        W85002  40.405  19.796   1.807
16785W        W85003  16.018  16.254  11.235
16786W        W85004  18.514   8.593   3.572
16787W        W85005  35.024   4.171   1.216
16788W        W85006  33.702   3.509   9.976
16789W        W85007  20.544   1.266  12.430
16790W        W85008   9.577  43.337  11.073
16791W        W85009  17.370  25.466   2.900
16792W        W85010  43.399  34.085  13.005
16793W        W85011   6.268  22.616   4.142
16794W        W85012  14.676  22.758   1.727
16795W        W85013  10.121  25.273   3.281
16796W        W85014   0.826  18.884  10.476
16797W        W85015   2.758  27.855  14.095
16798W        W85016  35.042   4.523  12.047
16799W        W85017   8.853  10.283   4.159
16800W        W85018   3.381  17.967  11.592
16801W        W85019  36.999  38.137  11.034
16802W        W85020  40.402   4.423  11.184
16803W        W85021   8.663   7.422  12.002
16804W        W85022   1.533  21.688  13.965
16805W        W85023  31.308  28.538   4.582
16806W        W85024   7.660  30.089   2.554
16807W        W85025   5.582   6.968   3.183
16808W        W85026  16.392  34.369  12.421
16809W        W85027  11.607  28.557  11.916
16810W        W85028   7.042  21.687   4.178
16811W        W85029   3.595  20.973  13.940
16812W        W85030   3.308  38.777  14.262
16813W        W85031  30.204  11.635   2.842
16814W        W85032  36.871  12.181  14.779
16815W        W85033  15.115  18.703  11.621
16816W        W85034  33.696  36.589  13.953
16817W        W85035   1.187  10.305   4.425
16818W        W85036  15.302  14.177   3.718
16819W        W85037   7.973  15.631  13.395
16820W        W85038  21.403   1.341  10.882
16821W        W85039  27.757  43.047   1.977
16822W        W85040  32.704   6.138   1.085
16823W        W85041  11.330   8.575   2.751
16824W        W85042  37.187  21.540   2.785
16825W        W85043   6.955   1.668  11.853
16826W        W85044  42.707  17.707  14.966
16827W        W85045  26.549  30.590  12.019
16828W        W85046  32.070  20.983  13.457
16829W        W85047   2.644   3.842   3.793
16830W        W85048   1.733  10.622  10.709
16831W        W85049  25.459  15.531  11.925
16832W        W85050  13.794  18.653   4.570
16833W        W85051  34.485  38.788  13.445
16834W        W85052   1.874  22.304  12.422
16835W        W85053  33.039   5.038   5.103
16836W        W85054  36.559  29.167   0.751
16837W        W85055  10.850  16.814   1.584
16838W        W85056  13.121   2.281   4.987
16839W        W85057  29.771  28.125   0.389
16840W        W85058   7.644   6.983  11.685
16841W        W85059   2.909   5.404  13.087
16842W        W85060   2.379  38.364   1.265
16843W        W85061  32.703  12.733  11.635
16844W        W85062  27.645  20.154  11.136
16845W        W85063  36.968   7.235  14.550
16846W        W85064  22.641  34.963   2.165
16847W        W85065  14.162   2.229  10.303
16848W        W85066  30.015   1.231   3.339
16849W        W85067  28.972  19.475   3.366
16850W        W85068  14.333  43.480   4.092
16851W        W85069  17.772  12.399   2.296
16852W        W85070   2.180  44.784  11.167
16853W        W85071  32.467  35.779   3.583
16854W        W85072   5.186  31.433  14.933
16855W        W85073   3.024  40.782  10.248
16856W        W85074   0.418  44.836   3.338
16857W        W85075   3.505  28.698   4.253
16858W        W85076  44.700  39.877  13.599
16859W        W85077  23.966  32.976   0.074
16860W        W85078  10.542  23.116   2.584
16861W        W85079  26.185  25.234   4.635
16862W        W85080  15.070  40.041   1.738
16863W        W85081  34.982  11.195  10.358
16864W        W85082  15.146  14.905   2.608
16865W        W85083  30.907  43.604   1.237
16866W        W85084  13.287  24.460  11.983
16867W        W85085  43.587  34.301  14.329
16868W        W85086   7.655  13.637  11.939
16869W        W85087   8.139  29.454   0.022
16870W        W85088  31.696  34.101  10.607
16871W        W85089   8.618   8.984  11.106
16872W        W85090  18.184  30.111  14.347
16873W        W85091   9.636   2.763  10.713
16874W        W85092  18.182  16.305   9.949
16875W        W85093  34.051  31.898  13.432
16876W        W85094  25.654  32.194  10.732
16877W        W85095  43.393  27.227  10.769
16878W        W85096  22.588  30.150   4.132
16879W        W85097  35.610  30.219  11.574
16880W        W85098  14.692  35.596   4.651
16881W        W85099  22.784  40.900  10.705
16882W        W85100  38.844   2.336   2.232
16883W        W85101   3.778   5.866   4.039
16884W        W85102  16.635  24.198  12.791
16885W        W85103  32.409   9.377  11.038
16886W        W85104  21.744  35.899   1.674
16887W        W85105   0.588   0.792  11.119
16888W        W85106  21.591  20.794  13.985
16889W        W85107  44.182  11.891   0.398
16890W        W85108  32.941   9.701   2.756
16891W        W85109  11.374   3.426   3.684
16892W        W85110  16.883  33.984  10.097
16893W        W85111  22.985   9.784  14.292
16894W        W85112  25.444  28.189  12.001
16895W        W85113  35.241  10.904  11.572
16896W        W85114  37.340   2.497  11.575
16897W        W85115  43.269  31.263  13.778
16898W        W85116  11.107  41.491  13.969
16899W        W85117   6.855  35.538  11.556
16900W        W85118   1.283  17.804   2.298
16901W        W85119  37.244   7.096  12.174
16902W        W85120  20.771   8.911  13.347
16903W        W85121  38.827   0.938   3.851
16904W        W85122  33.824   4.292  14.897
16905W        W85123  37.404  17.360   4.068
16906W        W85124  13.875  27.786  11.481
16907W        W85125  32.454  37.751   3.720
16908W        W85126  13.277  18.808   0.511
16909W        W85127  23.676  30.613   3.574
16910W        W85128   7.237   3.705  12.595
16911W        W85129   0.083  32.104   4.695
16912W        W85130  23.492  44.380   3.732
16913W        W85131  27.420  13.646   4.244
16914W        W85132  39.516   4.957   3.178
16915W        W85133  30.698  36.251  13.983
16916W        W85134  27.997  22.775   0.222
16917W        W85135  26.054  36.437   3.763
16918W        W85136  18.102  14.780  14.304
16919W        W85137  17.989  40.926  14.927
16920W        W85138  28.101  39.889  14.793
16921W        W85139  33.405  29.181   0.296
16922W        W85140   8.288  25.634   1.745
16923W        W85141  44.718  21.169   2.588
16924W        W85142  27.023  32.644   3.521
16925W        W85143  32.952  38.336  14.703
16926W        W85144  18.733  17.735   4.785
16927W        W85145  27.190  29.667  12.155
16928W        W85146  23.102  42.014   4.206
16929W        W85147  20.781  13.791  12.001
16930W        W85148  43.559  18.574  12.203
16931W        W85149   5.371  28.444  14.792
16932W        W85150  13.141  17.164  11.742
16933W        W85151  42.770   6.883  13.805
16934W        W85152  36.142   1.036   1.905
16935W        W85153  36.907  21.579   1.431
16936W        W85154   5.853   7.328   1.830
16937W        W85155  15.657   8.431  12.562
16938W        W85156  37.764   5.395   2.699
16939W        W85157  16.222  37.464   0.765
16940W        W85158  11.566  17.233  13.420
16941W        W85159  15.818   6.363   2.715
16942W        W85160   6.746  25.931  10.809
16943W        W85161   0.278  15.089   4.295
16944W        W85162  15.156  16.296   2.997
16945W        W85163  10.773  14.536   0.082
16946W        W85164  13.880  11.925   1.960
16947W        W85165  41.811   7.129  11.565
16948W        W85166   3.513  26.474  11.629
16949W        W85167  16.220  44.062   2.818
16950W        W85168  26.071  44.432   3.788
16951W        W85169  44.186  16.073  12.892
16952W        W85170  38.551  31.969  10.614
16953W        W85171  20.645  32.330  14.450
16954W        W85172  10.531  42.340  14.829
16955W        W85173  31.975  44.986  13.392
16956W        W85174  25.440  35.549  12.153
16957W        W85175   9.152  38.375   1.357
16958W        W85176  41.124  29.291  14.515
16959W        W85177  29.159  12.811  10.422
16960W        W85178  31.230  43.010  11.795
16961W        W85179   5.438   1.516   0.131
16962W        W85180  30.907  40.078   1.861
16963W        W85181  27.598  35.596   0.457
16964W        W85182  28.261  29.912  14.402
16965W        W85183  22.505  24.227   2.690
16966W        W85184  10.295   7.681  11.621
16967W        W85185  37.987  14.427  14.785
16968W        W85186  30.893   1.620  11.882
16969W        W85187  19.995  43.375  10.722
16970W        W85188  10.916  12.652  11.030
16971W        W85189  17.499  28.095  10.914
16972W        W85190   4.651  21.176  10.729
16973W        W85191  20.994  38.961  10.373
16974W        W85192  32.410  13.182   1.878
16975W        W85193   3.170  17.228  13.083
16976W        W85194  41.531  29.661   3.801
16977W        W85195  11.232  11.563  12.851
16978W        W85196  11.264  28.638   3.229
16979W        W85197  11.282   4.859  11.944
16980W        W85198  11.213   3.290   4.679
16981W        W85199   4.240   5.142   1.221
16982W        W85200  44.558  15.332  14.860
16983W        W85201  20.966  13.847   0.502
16984W        W85202   4.726  43.076  11.564
16985W        W85203   7.507  23.520   3.824
16986W        W85204  13.278  31.708  12.634
16987W        W85205   5.921   9.785   0.392
16988W        W85206   2.239  24.958  13.467
16989W        W85207  17.103  33.328   0.903
16990W        W85208   2.866  14.645  10.841
16991W        W85209  13.604   5.652   1.351
16992W        W85210  16.824  20.542  14.769
16993W        W85211  11.686  15.704  14.464
16994W        W85212   6.012  37.769   4.464
16995W        W85213  18.742  36.430  11.566
16996W        W85214  29.007  10.303  11.649
16997W        W85215   3.339  40.067   0.941
16998W        W85216  30.923   6.962   3.632
16999W        W85217  23.127   7.808   3.217
17000W        W85218  30.974  38.886  11.691
17001W        W85219  22.217   1.388   3.714
17002W        W85220  29.199  34.994  10.762
17003W        W85221  28.159  11.966   3.615
17004W        W85222   1.449  44.641  11.847
17005W        W85223  43.115  42.314  12.480
17006W        W85224   6.646   1.789  12.246
17007W        W85225  14.294  13.149  13.355
17008W        W85226  14.254   3.317  12.524
17009W        W85227  13.077  31.598   4.045
17010W        W85228  40.442  31.109  12.825
17011W        W85229  25.127  22.841  13.861
17012W        W85230  13.579  14.202  11.579
17013W        W85231  10.190   7.208   4.007
17014W        W85232  44.257  41.789  10.729
17015W        W85233  37.853  17.722  13.376
17016W        W85234  10.231  23.519  11.605
17017W        W85235  44.666  38.957   1.639
17018W        W85236  31.495  14.565   2.992
17019W        W85237   6.331  11.029   1.481
17020W        W85238  17.778   8.327  11.151
17021W        W85239  30.211   8.480  12.465
17022W        W85240  34.351   5.265  11.020
17023W        W85241   0.420   9.293  12.496
17024W        W85242   1.555  21.402  10.676
17025W        W85243  24.962  33.372  10.679
17026W        W85244  39.628  29.508  10.775
17027W        W85245  32.626  32.451  12.907
17028W        W85246   5.725  14.264   2.849
17029W        W85247   6.323  43.042   9.689
17030W        W85248  28.623  15.536  13.531
17031W        W85249   8.373  21.165   3.722
17032W        W85250  37.462   3.640   0.838
17033W        W85251  35.897  25.100  14.377
17034W        W85252  38.963  24.178  12.007
17035W        W85253  27.148   9.882  12.805
17036W        W85254  36.922  43.962   4.178
17037W        W85255  43.586   4.795  12.089
17038W        W85256  18.319  18.777   4.884
17039W        W85257  41.802  28.227  14.267
17040W        W85258  11.761   8.757   2.449
17041W        W85259  26.327  16.173  10.291
17042W        W85260  16.383  36.062  10.665
17043W        W85261   3.436  12.812   0.496
17044W        W85262  43.351  27.623   2.187
17045W        W85263  44.376  44.245   3.687
17046W        W85264   4.475  33.800   4.253
17047W        W85265   4.690  11.262   1.881
17048W        W85266  34.912   0.968  10.974
17049W        W85267  34.584  22.432   1.162
17050W        W85268  23.061  42.489  13.504
17051W        W85269  12.867  34.953   1.473
17052W        W85270   6.309   0.192   1.745
17053W        W85271  21.071  24.964   4.366
17054W        W85272  33.740  37.799  14.492
17055W        W85273  18.109  44.391   0.005
17056W        W85274  30.942  18.684  10.589
17057W        W85275  42.231   9.560   2.663
17058W        W85276   1.308  29.656  12.368
17059W        W85277  41.392  10.068   2.780
17060W        W85278  32.107  28.891   9.763
17061W        W85279  34.563  43.318   1.823
17062W        W85280  40.415  37.139  12.156
17063W        W85281  35.110  29.576   0.381
17064W        W85282  39.047   9.129  12.252
17065W        W85283  33.960  37.943  14.938
17066W        W85284  14.687  13.230  11.996
17067W        W85285   7.681   7.141  13.526
17068W        W85286  15.970  40.253   1.854
17069W        W85287  26.834  24.769   5.298
17070W        W85288   1.505  23.446   3.392
17071W        W85289  43.603  12.042  13.024
17072W        W85290   7.691  17.126   0.320
17073W        W85291  40.313   4.802   3.831
17074W        W85292  16.626  14.237   2.778
17075W        W85293  41.787  39.928  11.277
17076W        W85294   2.252  34.365  11.614
17077W        W85295   9.932  10.276   1.181
17078W        W85296  42.495  17.316   4.851
17079W        W85297  28.037   4.007   4.094
17080W        W85298  15.508  16.116   9.749
17081W        W85299  12.185  40.886  12.776
17082W        W85300  30.656  29.978  10.805
17083W        W85301  21.164  31.582  13.585
17084W        W85302  16.742  17.058  12.504
17085W        W85303  22.309  11.610   1.666
17086W        W85304  11.695  25.964   3.797
17087W        W85305  23.277  30.877  12.195
17088W        W85306  29.963   0.807   4.937
17089W        W85307  33.041  44.495   2.699
17090W        W85308   5.675  30.041  13.079
17091W        W85309  27.182  16.677   0.771
17092W        W85310  37.252  25.864   2.687
17093W        W85311  40.072   2.258  14.380
17094W        W85312  38.971  27.269   0.721
17095W        W85313  43.464  17.667   2.170
17096W        W85314   4.919  16.517  11.520
17097W        W85315  37.112  30.933  13.793
17098W        W85316  32.467  12.598   0.995
17099W        W85317  44.009  43.704  14.434
17100W        W85318  42.822  41.685   2.336
17101W        W85319  22.776   2.210   0.359
17102W        W85320  42.803   2.068  11.982
17103W        W85321  12.255  29.936   4.294
17104W        W85322  14.348  34.717   3.057
17105W        W85323  35.014   6.783  10.782
17106W        W85324  36.329  35.395   1.816
17107W        W85325  23.262  21.361   3.994
17108W        W85326  43.523   9.003  10.623
17109W        W85327  26.577  25.034   3.104
17110W        W85328   2.422  11.756  11.116
17111W        W85329  14.945  30.302  10.146
17112W        W85330  44.207  33.488  14.448
17113W        W85331  44.297  29.451  13.016
17114W        W85332  16.241  21.051   3.544
17115W        W85333  43.725   4.930   4.121
17116W        W85334  29.157  24.169   1.471
17117W        W85335  41.552  28.053   4.098
17118W        W85336  29.207   2.486   2.333
17119W        W85337  12.662  38.158   4.792
17120W        W85338  32.683   2.412  11.944
17121W        W85339  24.660  39.440  11.589
17122W        W85340  39.998   9.809  14.656
17123W        W85341  41.931  41.941  14.964
17124W        W85342   1.866   1.311   3.444
17125W        W85343  16.764  32.956   3.661
17126W        W85344  12.064  34.627   0.918
17127W        W85345  42.833   8.301  13.496
17128W        W85346  35.705  22.081  14.966
17129W        W85347  34.072   0.451   1.657
17130W        W85348  44.609  14.396   0.446
17131W        W85349  40.320  34.292   0.160
17132W        W85350  21.905  37.386   2.827
17133W        W85351   3.949  22.186  12.505
17134W        W85352   2.050   2.406   3.454
17135W        W85353  10.114  21.453  13.031
17136W        W85354   9.837  44.967   0.492
17137W        W85355  11.663   4.402   1.741
17138W        W85356   0.287  15.866  14.916
17139W        W85357  12.152   8.138   0.495
17140W        W85358   6.676  35.010  13.982
17141W        W85359   7.687   9.232  12.413
17142W        W85360  29.036  21.951  14.858
17143W        W85361  24.447  27.505  13.501
17144W        W85362  35.746  25.266  14.964
17145W        W85363  14.746  23.632   4.450
17146W        W85364   5.642  44.989  11.719
17147W        W85365   8.838  11.161  10.756
17148W        W85366  35.415   0.417  11.124
17149W        W85367  21.737  39.218   2.380
17150W        W85368  19.676  10.450  13.208
17151W        W85369  36.455  32.038  14.440
17152W        W85370  19.234  15.205  11.975
17153W        W85371  14.113  31.884  12.057
17154W        W85372  44.630  30.515   0.970
17155W        W85373   7.118  23.822  10.670
17156W        W85374   0.188   8.879  11.715
17157W        W85375  17.498  17.739  14.747
17158W        W85376  36.084  39.442  12.380
17159W        W85377   9.216  21.617  11.560
17160W        W85378  20.221  20.783  12.142
17161W        W85379  11.366  38.909  12.605
17162W        W85380  29.052  15.804  12.386
17163W        W85381  14.095  27.860  11.970
17164W        W85382  26.464  40.423   2.666
17165W        W85383  29.042  34.379   4.562
17166W        W85384  16.267   6.155   0.849
17167W        W85385  18.374  15.430   5.059
17168W        W85386   2.914   6.817   4.105
17169W        W85387  38.336   4.426   5.443
17170W        W85388  34.581  20.715   3.247
17171W        W85389  30.941  28.623  12.966
17172W        W85390  35.976   4.460   0.054
17173W        W85391  27.130  43.540   2.628
17174W        W85392  25.674  25.596  13.865
17175W        W85393  24.281  33.501  13.330
17176W        W85394  30.209  11.046   3.694
17177W        W85395  20.221  20.994   2.797
17178W        W85396  14.204  33.760   3.347
17179W        W85397  21.938  20.112   3.688
17180W        W85398   4.558   2.864  14.026
17181W        W85399  35.117  29.217   0.793
17182W        W85400  17.785  21.758  13.353
17183W        W85401  33.116  36.531   3.369
17184W        W85402   6.027   9.851   2.593
17185W        W85403  19.921   7.199   4.930
17186W        W85404  11.794  26.733  14.812
17187W        W85405  28.029  23.097   1.364
17188W        W85406   5.862  35.293  13.627
17189W        W85407  34.068  33.551   2.814
17190W        W85408  31.324  20.835   4.684
17191W        W85409  43.246  12.887  12.480
17192W        W85410   0.304  36.378  10.728
17193W        W85411  39.975  38.704  13.410
17194W        W85412   7.261  24.899  12.964
17195W        W85413  30.397  16.652   5.032
17196W        W85414  11.338  28.001  14.797
17197W        W85415  27.961  44.326   1.780
17198W        W85416  28.790  40.850  13.391
17199W        W85417  14.101  17.323  11.770
17200W        W85418  17.903  14.855  11.012
17201W        W85419  43.396  25.183   1.210
17202W        W85420   5.398   6.172  14.836
17203W        W85421  38.306  28.939  14.832
17204W        W85422  31.426  23.715   0.017
17205W        W85423   0.946  38.473  11.124
17206W        W85424  22.040  37.858  10.259
17207W        W85425  32.513  25.172  12.408
17208W        W85426  34.644  37.084  11.428
17209W        W85427  27.671   1.476  10.437
17210W        W85428  44.087  43.080   4.785
17211W        W85429  44.255  10.953   0.556
17212W        W85430   4.224  13.602   3.772
17213W        W85431  16.826  22.269  14.360
17214W        W85432  34.665  14.568   2.352
17215W        W85433   7.777  35.467  12.929
17216W        W85434  43.328  19.570  13.025
17217W        W85435  13.757   4.963   3.590
17218W        W85436   0.584  37.481   3.346
17219W        W85437  43.804  12.226   1.263
17220W        W85438  34.964  37.221  13.043
17221W        W85439  15.187  19.308   1.887
17222W        W85440  29.372   4.991  14.980
17223W        W85441  18.126  42.608  10.604
17224W        W85442  42.222  13.552   0.078
17225W        W85443   5.894  39.502   3.491
17226W        W85444  43.576  14.486  11.622
17227W        W85445  29.131  42.879   1.747
17228W        W85446  42.750   4.276   4.805
17229W        W85447  32.451  42.261   4.267
17230W        W85448  23.555  40.579  12.878
17231W        W85449  29.080   9.833   1.795
17232W        W85450  22.567  40.256   1.275
17233W        W85451   6.199  37.503   1.829
17234W        W85452  12.101  44.810   2.232
17235W        W85453   4.092  18.466  12.945
17236W        W85454  39.322   2.053   2.301
17237W        W85455  36.755   7.997  14.906
17238W        W85456  43.292   2.608   4.174
17239W        W85457   7.687  21.790   3.321
17240W        W85458  12.196  20.803   3.664
17241W        W85459  13.612  35.513  14.315
17242W        W85460  32.385  14.210  11.063
17243W        W85461   7.300  27.795   0.877
17244W        W85462  43.236  18.786   4.561
17245W        W85463  31.723   3.421   3.854
17246W        W85464  37.574  21.233   2.634
17247W        W85465  21.684  14.910  14.317
17248W        W85466  16.641  26.678   0.039
17249W        W85467   3.159   1.495  11.965
17250W        W85468  14.697  38.581   0.127
17251W        W85469  43.510   7.917  11.479
17252W        W85470  26.918  34.062   3.380
17253W        W85471  20.264   0.457  12.017
17254W        W85472  12.648  30.525  12.520
17255W        W85473  42.766   2.501   0.977
17256W        W85474  28.253  11.856   2.710
17257W        W85475  13.253   2.530  10.644
17258W        W85476  13.771  16.265   3.135
17259W        W85477   3.908  18.149  10.713
17260W        W85478  16.502  17.330  10.962
17261W        W85479  26.054  30.142   4.331
17262W        W85480  22.586  18.036  14.273
17263W        W85481  26.548   8.299  13.521
17264W        W85482  27.231  43.243   4.044
17265W        W85483  41.278  10.517  12.974
17266W        W85484  18.754   1.821   9.960
17267W        W85485  27.590  12.762   4.563
17268W        W85486   1.551  25.724  14.997
17269W        W85487   9.725  32.911  13.319
17270W        W85488  23.458  44.679   3.254
17271W        W85489  25.172   1.939  14.354
17272W        W85490  39.477  27.583   0.334
17273W        W85491   9.662   4.743  11.175
17274W        W85492   7.565  16.115   1.106
17275W        W85493  14.243  22.400   4.133
17276W        W85494  42.836  33.765  14.383
17277W        W85495  18.222   6.331  14.481
17278W        W85496   2.839  19.536  12.114
17279W        W85497   1.654  33.036   3.630
17280W        W85498  40.321   3.461   2.708
17281W        W85499  24.246   5.974  13.472
17282W        W85500  25.234   7.805   2.924
17283W        W85501  38.908  33.653  14.998
17284W        W85502   2.470  12.575  11.095
17285W        W85503  31.141  30.139   3.660
17286W        W85504  31.505   7.226  10.692
17287W        W85505   6.303  40.573   2.593
17288W        W85506  22.604   0.946  11.532
17289W        W85507  33.583   2.948  11.959
17290W        W85508  27.337   5.254   0.820
17291W        W85509  26.145  38.961  13.206
17292W        W85510  16.875  38.492   0.849
17293W        W85511  14.817  27.549   3.182
17294W        W85512   1.631  21.180   3.717
17295W        W85513  15.902  10.345  10.546
17296W        W85514  35.700  10.388   2.260
17297W        W85515   4.547   5.836  10.609
17298W        W85516  37.352  14.906   2.095
17299W        W85517   9.194  23.830  14.806
17300W        W85518   9.111  28.992  13.870
17301W        W85519  32.463  21.171   0.369
17302W        W85520  14.897  43.441   1.773
17303W        W85521   2.924  25.994   4.225
17304W        W85522   7.911  16.619   1.811
17305W        W85523  13.093  41.124  13.410
17306W        W85524  18.461  34.921  12.439
17307W        W85525  43.277  23.940   0.331
17308W        W85526  15.182   8.291   3.174
17309W        W85527  28.609   2.604  10.086
17310W        W85528  15.547  20.991  14.333
17311W        W85529  24.146  30.268   0.582
17312W        W85530  15.529  36.448  11.933
17313W        W85531  40.552  20.678   1.896
17314W        W85532  43.923  16.841  10.681
17315W        W85533  40.292  28.644   2.859
17316W        W85534   7.871   1.331  11.892
17317W        W85535  41.490  16.224  10.893
17318W        W85536  30.177  19.806   2.736
17319W        W85537  25.189  11.908   0.458
17320W        W85538  10.010  17.503   2.183
17321W        W85539   1.716  41.875  11.613
17322W        W85540   6.862   7.434  12.055
17323W        W85541  32.492  40.805  13.912
17324W        W85542  20.717  29.403  11.967
17325W        W85543  30.543  44.052  13.437
17326W        W85544  37.017   0.359   0.232
17327W        W85545   5.366  11.850   4.090
17328W        W85546  17.037  17.156  10.099
17329W        W85547  32.122  30.640   2.883
17330W        W85548  14.431  26.368   1.326
17331W        W85549  43.694  15.217  12.632
17332W        W85550  16.782   1.415   0.435
17333W        W85551  35.133  19.841  14.782
17334W        W85552   0.253  43.922  12.651
17335W        W85553  18.680   5.299  11.975
17336W        W85554  41.454  34.192  11.483
17337W        W85555  39.219  24.238  13.004
17338W        W85556  21.545  43.769   4.623
17339W        W85557  19.569  42.942  13.978
17340W        W85558   9.195  21.586  13.882
17341W        W85559  44.777  35.807  14.571
17342W        W85560  17.625  40.567  13.091
17343W        W85561  12.812   4.295  14.012
17344W        W85562  28.141  32.463   4.377
17345W        W85563  36.868  28.998   2.213
17346W        W85564  42.061  13.701   2.687
17347W        W85565   8.733  34.329   1.286
17348W        W85566  30.660   2.233   1.824
17349W        W85567   2.857  17.553  14.723
17350W        W85568   6.851  30.595   3.282
17351W        W85569  26.257  32.818   1.706
17352W        W85570  31.975  24.179   4.481
17353W        W85571   1.369  23.976  11.935
17354W        W85572  12.549   0.340   2.965
17355W        W85573  13.554   6.832   1.987
17356W        W85574  13.896   4.325   1.265
17357W        W85575  44.472   7.497   4.623
17358W        W85576   6.157  17.290  12.402
17359W        W85577  23.986  35.614   0.315
17360W        W85578  42.968  22.238   3.626
17361W        W85579  14.316  12.244  13.321
17362W        W85580  28.888  40.980   4.367
17363W        W85581  43.996   0.313  13.910
17364W        W85582  18.798  38.362   0.778
17365W        W85583  38.303  42.785   4.174
17366W        W85584   5.667  23.993   4.075
17367W        W85585  29.283  41.657  10.398
17368W        W85586  35.842  41.988  12.831
17369W        W85587  28.252   9.258   0.868
17370W        W85588  19.090  16.329   0.401
17371W        W85589  38.808   8.850  14.011
17372W        W85590  37.044  16.918  12.015
17373W        W85591  30.077  26.923   3.014
17374W        W85592  39.791   1.736   9.877
17375W        W85593  36.139  24.869  11.111
17376W        W85594  11.660  13.191   4.959
17377W        W85595  32.361  43.319   4.172
17378W        W85596  19.849  40.324  14.334
17379W        W85597  10.823   4.317   2.445
17380W        W85598   8.239  28.220   2.041
17381W        W85599  19.977  13.031   4.306
17382W        W85600  39.469  21.953   0.404
17383W        W85601   6.068  40.275  12.714
17384W        W85602   2.634  31.978   0.711
17385W        W85603  37.965  20.221   4.752
17386W        W85604  29.250  22.253  13.095
17387W        W85605  11.841  36.567   1.355
17388W        W85606  11.906  36.298   0.449
17389W        W85607  18.738   0.882  12.571
17390W        W85608  18.608  42.255   1.368
17391W        W85609  35.414  29.012  12.893
17392W        W85610  13.874  29.936  11.263
17393W        W85611  14.769  14.608  13.601
17394W        W85612  37.898  23.291  10.627
17395W        W85613  40.766  33.623  14.467
17396W        W85614  27.016  15.592  12.928
17397W        W85615  11.172  34.147  11.659
17398W        W85616  20.663  15.575   0.899
17399W        W85617   1.312   0.525   4.699
17400W        W85618  39.088  36.651   2.339
17401W        W85619  44.353  19.116   1.985
17402W        W85620  34.324  12.329   1.832
17403W        W85621  25.178   3.100   0.007
17404W        W85622   3.178  41.998   1.014
17405W        W85623  10.371  30.691   0.225
17406W        W85624  20.265   6.474  14.449
17407W        W85625  37.105  28.677  12.425
17408W        W85626  38.971  37.664  12.098
17409W        W85627   7.183  15.211   0.944
17410W        W85628   9.388  30.676   1.178
17411W        W85629  27.742   3.263  11.452
17412W        W85630  24.746   7.447   4.192
17413W        W85631  39.087  37.516  12.567
17414W        W85632  10.427  44.279   0.329
17415W        W85633  24.733  38.637   3.224
17416W        W85634  33.842  14.124   3.082
17417W        W85635  33.051  22.773  11.932
17418W        W85636  33.595  36.491  14.921
17419W        W85637  31.470  27.469   2.925
17420W        W85638   1.993  32.078   4.581
17421W        W85639  10.187  16.146   9.913
17422W        W85640  19.643  30.552   3.142
17423W        W85641  43.605  25.402  13.465
17424W        W85642   9.970  32.409  11.555
17425W        W85643  35.987  34.483  12.572
17426W        W85644   7.800  35.452   3.810
17427W        W85645   9.812  15.228   2.246
17428W        W85646  15.278   7.186  11.562
17429W        W85647  41.021  38.329   3.285
17430W        W85648  33.639  21.965   1.839
17431W        W85649  28.962  33.595   2.430
17432W        W85650  29.507  17.159   4.311
17433W        W85651  31.658  33.647   0.936
17434W        W85652  24.787  35.788  11.392
17435W        W85653  42.443   9.667  12.049
17436W        W85654  17.371   5.893   1.916
17437W        W85655   7.444  11.159  14.997
17438W        W85656   9.308   7.267  10.413
17439W        W85657   7.793   1.011  14.850
17440W        W85658  16.720  34.334  10.960
17441W        W85659  32.335  32.040   5.122
17442W        W85660  39.975  30.411   2.869
17443W        W85661   3.721  30.659  11.036
17444W        W85662  27.093  37.689  11.458
17445W        W85663  32.094   9.237   1.740
17446W        W85664  14.685  29.075   0.501
17447W        W85665  13.645  32.046   4.607
17448W        W85666   3.950  29.755  11.857
17449W        W85667  20.206  40.523   0.087
17450W        W85668  38.108  38.943   1.741
17451W        W85669  34.325  35.727  11.569
17452W        W85670  44.807   3.704  12.463
17453W        W85671  39.553  26.126   1.227
17454W        W85672  37.162  20.729  12.120
17455W        W85673   7.166   4.695  10.940
17456W        W85674  36.427  31.371   0.260
17457W        W85675  11.492  35.471   3.161
17458W        W85676  12.396   5.671  13.720
17459W        W85677   6.856  35.434  10.699
17460W        W85678   1.319  33.965   1.259
17461W        W85679  23.708  12.704  13.483
17462W        W85680   6.825   6.170  11.653
17463W        W85681  10.253  13.083  10.658
17464W        W85682  27.618  29.438   2.673
17465W        W85683  12.230  36.853  13.312
17466W        W85684  31.574  17.361   0.433
17467W        W85685  42.048  24.762   1.887
17468W        W85686  17.981  43.753   5.596
17469W        W85687   6.494   4.871   5.214
17470W        W85688   2.408  10.698  14.207
17471W        W85689   3.929  32.454   0.009
17472W        W85690  29.024  36.004  10.708
17473W        W85691   9.282  21.560   4.800
17474W        W85692  35.608  21.504   0.405
17475W        W85693  30.397   4.942   2.600
17476W        W85694  39.129  14.038   0.029
17477W        W85695  18.514   4.963  14.939
17478W        W85696  12.492  44.011  10.351
17479W        W85697  27.873  29.066  10.908
17480W        W85698  15.053   7.670  12.918
17481W        W85699   5.949  32.264  14.269
17482W        W85700   4.976   2.452  12.959
17483W        W85701  22.676  15.138   1.561
17484W        W85702  40.590  33.968  10.371
17485W        W85703  18.048  23.560  13.092
17486W        W85704  12.214   4.714   0.086
17487W        W85705  32.579  12.125   2.778
17488W        W85706  21.807  12.636   0.933
17489W        W85707  18.856  19.819  14.926
17490W        W85708   3.523  42.568   3.867
17491W        W85709  36.405  33.204   5.212
17492W        W85710   0.235  24.202   2.739
17493W        W85711  26.260  40.357  11.416
17494W        W85712  27.719   6.718   3.683
17495W        W85713  37.632   5.837  13.041
17496W        W85714  10.646  32.021   2.775
17497W        W85715  23.901  29.704  12.527
17498W        W85716  35.129  44.760   1.764
17499W        W85717  32.042   9.361  13.797
17500W        W85718   1.028  16.154  12.995
17501W        W85719  24.498  21.150   3.559
17502W        W85720  35.834  18.152  13.805
17503W        W85721   7.929  37.083   0.009
17504W        W85722   8.080   6.770   0.116
17505W        W85723  10.932  14.929   1.783
17506W        W85724  12.037  43.961   0.854
17507W        W85725  13.358  13.941  11.173
17508W        W85726  31.620  17.273  12.423
17509W        W85727  40.774  30.642  13.651
17510W        W85728  24.066  24.385   4.536
17511W        W85729  13.301  17.822   1.423
17512W        W85730  26.659  20.782   0.490
17513W        W85731  15.086   5.519  10.804
17514W        W85732   1.346   8.047   0.717
17515W        W85733  34.935  31.997   0.722
17516W        W85734  19.351  12.271  10.866
17517W        W85735  33.222  10.194  11.015
17518W        W85736  31.154  13.329   3.928
17519W        W85737  15.562  16.300   1.692
17520W        W85738  23.474   7.406   3.777
17521W        W85739  25.221  32.467   3.976
17522W        W85740  13.831   9.581   3.870
17523W        W85741  31.048   4.958   0.840
17524W        W85742  25.767  30.462  12.367
17525W        W85743  36.803  34.515   2.228
17526W        W85744   1.808  34.342   3.596
17527W        W85745  35.134  40.865  13.871
17528W        W85746  29.959   8.937  12.123
17529W        W85747  19.300  14.804   1.417
17530W        W85748  30.972  38.580   4.499
17531W        W85749  42.734  17.219   1.301
17532W        W85750  20.204   8.674  10.008
17533W        W85751  13.230   2.563  10.101
17534W        W85752  41.379   9.802  12.478
17535W        W85753  27.081  17.063  11.503
17536W        W85754   5.137  40.551  13.971
17537W        W85755   7.642  28.015  12.745
17538W        W85756  14.177  33.016   4.240
17539W        W85757  44.594   4.950   2.171
17540W        W85758   6.863   4.694   4.490
17541W        W85759  23.817  11.710  11.488
17542W        W85760  26.276  17.067   4.865
17543W        W85761  22.567  36.495  12.188
17544W        W85762  27.712  10.960  12.024
17545W        W85763  27.226   0.301   3.715
17546W        W85764  34.336  33.990  12.152
17547W        W85765  15.778  25.222   9.787
17548W        W85766   3.827   3.390  10.163
17549W        W85767  10.321  25.694  13.795
17550W        W85768  15.693   7.745   3.771
17551W        W85769  44.660  21.227   5.012
17552W        W85770  26.517  44.765  11.989
17553W        W85771   8.712  44.033   3.338
17554W        W85772   5.128   4.991  12.046
17555W        W85773  31.268  29.642  10.268
17556W        W85774  21.774  17.363   2.452
17557W        W85775  24.246  15.175  13.118
17558W        W85776  18.275  16.321  11.391
17559W        W85777  28.667   4.324   1.946
17560W        W85778  25.199  40.874  13.384
17561W        W85779  28.227  13.311   2.955
17562W        W85780  22.210   2.564   3.074
17563W        W85781  23.666  14.578  10.942
17564W        W85782  20.181  30.071  11.869
17565W        W85783   8.723   3.548  13.872
17566W        W85784  34.113  29.563   4.575
17567W        W85785  24.119  28.896  11.143
17568W        W85786  17.643  16.696  11.525
17569W        W85787  15.735  26.623  14.014
17570W        W85788  38.547   7.911  10.711
17571W        W85789  33.036   6.741  11.099
17572W        W85790  33.517  25.006   4.562
17573W        W85791  10.172  35.339   0.380
17574W        W85792  11.206  10.252   3.566
17575W        W85793  24.740   1.216   1.372
17576W        W85794  27.295  22.226  10.557
17577W        W85795  15.743   7.150   4.610
17578W        W85796  25.620  17.272   1.259
17579W        W85797  44.028  30.607  14.482
17580W        W85798  12.090   9.081  13.615
17581W        W85799  32.751  32.898  13.301
17582W        W85800  23.586  33.681  12.463
17583W        W85801  17.577  15.244   4.586
17584W        W85802  12.206  20.268  11.164
17585W        W85803  18.246  43.290  12.351
17586W        W85804  36.452  31.444   2.297
17587W        W85805   7.199  20.529   0.430
17588W        W85806  26.424  19.720   1.473
17589W        W85807  16.300   2.990  11.883
17590W        W85808  19.244  18.514   4.455
17591W        W85809   6.999   1.240  10.852
17592W        W85810   2.360  23.198  12.109
17593W        W85811   4.463  12.753  13.488
17594W        W85812  10.271  19.333   1.602
17595W        W85813   7.881  32.324   2.760
17596W        W85814  14.941  31.936   2.312
17597W        W85815  23.748  34.346   2.133
17598W        W85816  32.523  26.686  11.183
17599W        W85817   7.020  41.329   2.770
17600W        W85818  14.561  25.159  13.645
17601W        W85819   6.309  23.730  10.936
17602W        W85820  24.531   6.341   0.841
17603W        W85821   6.953  20.084   1.040
17604W        W85822   2.992   3.560  13.082
17605W        W85823   0.529  31.330   0.735
17606W        W85824   7.283  20.447   1.452
17607W        W85825  31.794  11.594   0.003
17608W        W85826  24.688   6.871  12.592
17609W        W85827  40.424   8.102  13.501
17610W        W85828   2.275   0.703   3.296
17611W        W85829  19.954  26.519   0.445
17612W        W85830  41.086  11.574   1.569
17613W        W85831  22.210  14.559  14.443
17614W        W85832  34.572   0.770  12.137
17615W        W85833  24.013  13.283  13.898
17616W        W85834  42.451  12.236   0.432
17617W        W85835  28.095  14.586   0.777
17618W        W85836   7.733  13.775   3.158
17619W        W85837  39.843  16.319  11.277
17620W        W85838  41.475  44.827  10.790
17621W        W85839  37.070  21.839  14.384
17622W        W85840   6.831  12.163  13.553
17623W        W85841  35.466   8.743   1.870
17624W        W85842  42.329  28.586  12.181
17625W        W85843  34.041  28.110  10.317
17626W        W85844  34.283  15.319  14.524
17627W        W85845  12.243  18.674   4.070
17628W        W85846  44.867  24.067  13.781
17629W        W85847  18.292  26.872  14.721
17630W        W85848   4.324  29.517   4.345
17631W        W85849  12.173  25.935   0.438
17632W        W85850  12.282  44.309  12.893
17633W        W85851  22.658  36.659  10.847
17634W        W85852   7.844  32.063   5.017
17635W        W85853  26.057   4.416  11.114
17636W        W85854  25.975   5.884  12.928
17637W        W85855  38.533   8.206   1.125
17638W        W85856  21.805  26.395  14.885
17639W        W85857  19.584  20.802   1.277
17640W        W85858  32.894  41.286  14.249
17641W        W85859  34.148  40.088   0.297
17642W        W85860  15.617  27.991   0.368
17643W        W85861  10.192   3.533   3.132
17644W        W85862   3.302  10.419   3.714
17645W        W85863  12.866  43.708   4.081
17646W        W85864  14.123  16.701   1.787
17647W        W85865  43.975  13.863  13.253
17648W        W85866  16.608  30.343  10.701
17649W        W85867  14.701  35.404  14.322
17650W        W85868   1.509  23.249  13.965
17651W        W85869  22.664   3.789  13.532
17652W        W85870  32.567  37.490  11.546
17653W        W85871  44.209  21.593  13.137
17654W        W85872   1.782  22.993  12.777
17655W        W85873  44.833  25.353   1.334
17656W        W85874  37.427  20.133  12.331
17657W        W85875  13.132  44.324   4.031
17658W        W85876  19.690  35.106  13.347
17659W        W85877  43.855  43.278   0.704
17660W        W85878  17.563   8.755  10.886
17661W        W85879  39.345  16.036   4.156
17662W        W85880  37.107  12.383  11.704
17663W        W85881   3.631   4.953  10.198
17664W        W85882  31.872  36.411  12.125
17665W        W85883  35.383  16.297  13.241
17666W        W85884  31.599   8.640  12.487
17667W        W85885   4.701  15.762  13.584
17668W        W85886  33.039  21.690  10.733
17669W        W85887  17.194  23.599   4.024
17670W        W85888  44.910  33.030   0.895
17671W        W85889  35.758  27.180   4.995
17672W        W85890  21.879  30.466  12.533
17673W        W85891   7.212  44.066   2.601
17674W        W85892  30.631  14.742   1.547
17675W        W85893  17.099  28.545  13.633
17676W        W85894  29.119  39.949   2.345
17677W        W85895  30.378   6.272  14.883
17678W        W85896  37.569  17.185  11.547
17679W        W85897  33.705  41.576   3.165
17680W        W85898  17.957  10.242  11.602
17681W        W85899  29.396  28.971  12.002
17682W        W85900   2.427  35.476  11.665
17683W        W85901  20.096  18.186   0.824
17684W        W85902  26.737  10.790   0.569
17685W        W85903   0.952  10.152  12.464
17686W        W85904  26.271  23.318   4.264
17687W        W85905  37.467  35.563  10.635
17688W        W85906   6.140  11.211   0.173
17689W        W85907  32.964  40.829   3.092
17690W        W85908  34.417  43.074  11.561
17691W        W85909  22.584  12.307   1.936
17692W        W85910   3.199  34.387   0.935
17693W        W85911  43.359  14.379  13.974
17694W        W85912  29.383  28.342   1.256
17695W        W85913   5.291  29.947  13.874
17696W        W85914  17.675  36.039   0.073
17697W        W85915  19.385  12.680   3.740
17698W        W85916  25.447  24.125   1.777
17699W        W85917  43.304  13.091  13.079
17700W        W85918  22.622  12.143   2.926
17701W        W85919  31.340  11.990   0.852
17702W        W85920   3.968  42.865  11.900
17703W        W85921  44.827   1.317  14.802
17704W        W85922  32.668  15.695  13.881
17705W        W85923   7.457  29.067   0.034
17706W        W85924  23.271  19.227   1.768
17707W        W85925  25.249   0.958   2.587
17708W        W85926  43.533  20.183  11.732
17709W        W85927  23.210  14.426  11.140
17710W        W85928  18.665   2.689   1.283
17711W        W85929  39.586  21.275   3.391
17712W        W85930  23.522  40.340   1.333
17713W        W85931  17.150  41.892  14.717
17714W        W85932   6.158   7.327   4.685
17715W        W85933   8.199   8.541  11.005
17716W        W85934  42.406  10.008  12.464
17717W        W85935   7.641  23.462  11.726
17718W        W85936  36.059  14.112  14.748
17719W        W85937  27.695  31.001  11.686
17720W        W85938   1.796  16.017  14.412
17721W        W85939   8.751   2.795  14.299
17722W        W85940  34.168   3.496  14.505
17723W        W85941  41.978  38.041  13.026
17724W        W85942  23.292  14.562  14.558
17725W        W85943  44.235   7.427   9.864
17726W        W85944  11.585  38.045   1.313
17727W        W85945  16.666  10.282  12.517
17728W        W85946  13.849  40.545  14.835
17729W        W85947  37.864  22.629  10.117
17730W        W85948  21.852  21.118   4.078
17731W        W85949  36.972  23.378   0.984
17732W        W85950  14.709   4.750   4.373
17733W        W85951   3.472  20.189   0.426
17734W        W85952  29.857   0.971  10.665
17735W        W85953  33.186   3.142   4.529
17736W        W85954  36.542  43.283   4.755
17737W        W85955  11.058  35.379   1.295
17738W        W85956  11.544  10.618   3.752
17739W        W85957  19.256  10.812  12.019
17740W        W85958  26.165  16.842  10.655
17741W        W85959  36.899   0.112  13.358
17742W        W85960  29.648  43.372   2.642
17743W        W85961  18.162   3.689  13.895
17744W        W85962  40.514   7.348   3.654
17745W        W85963  25.529  21.040  11.307
17746W        W85964  20.075  42.021   2.752
17747W        W85965   1.032  16.200   2.639
17748W        W85966  11.575  28.368   0.180
17749W        W85967  18.081  42.805   3.209
17750W        W85968   4.677  22.965   1.417
17751W        W85969  10.360  40.063  13.480
17752W        W85970   3.028  25.062  11.134
17753W        W85971   8.123   9.355   4.128
17754W        W85972  24.427  15.879   4.388
17755W        W85973  44.961   3.256   0.020
17756W        W85974   7.448  29.162   1.022
17757W        W85975  10.277   9.933  13.995
17758W        W85976  28.402   0.873  12.184
17759W        W85977  41.352  42.866   1.651
17760W        W85978  16.750  41.050  10.538
17761W        W85979   2.394  20.433   0.897
17762W        W85980   6.435  16.058  12.076
17763W        W85981   1.831   3.641   2.748
17764W        W85982  31.213  37.514  10.667
17765W        W85983  12.161   2.858   3.803
17766W        W85984  37.438  21.653   1.386
17767W        W85985  24.223   4.732   2.833
17768W        W85986  18.309  37.105  12.036
17769W        W85987  42.915  31.014   3.648
17770W        W85988  29.068   3.477   4.795
17771W        W85989  33.642  29.597   3.332
17772W        W85990   3.856  42.706  14.937
17773W        W85991  29.661   6.924  13.597
17774W        W85992  34.607  42.717  10.666
17775W        W85993  31.153  33.398   4.213
17776W        W85994   4.974  26.248  11.635
17777W        W85995   7.647  14.891   3.768
17778W        W85996  20.382  18.017   2.732
17779W        W85997  29.145  40.393  12.933
17780W        W85998   1.230  10.271  14.321
17781W        W85999  14.017  40.728   3.859
17782W        W86000  33.478  12.675  12.106
17783W        W86001   5.730  36.747   1.241
17784W        W86002  29.970   4.138   3.186
17785W        W86003  37.369  14.648  12.851
17786W        W86004  19.395  21.573  13.377
17787W        W86005  23.450  37.602  11.280
17788W        W86006   1.946  38.467  14.801
17789W        W86007   2.487  28.586   1.350
17790W        W86008   6.774  12.835   4.845
17791W        W86009  40.603  38.769   4.994
17792W        W86010  20.467  29.104   3.008
17793W        W86011  14.345  23.451  10.976
17794W        W86012  28.564   4.226  13.518
17795W        W86013  32.043   0.411  11.249
17796W        W86014  22.712  37.439   3.429
17797W        W86015  18.569  36.613  13.347
17798W        W86016  13.174  27.810  10.878
17799W        W86017  40.090   9.224  13.959
17800W        W86018   6.434  15.209  12.661
17801W        W86019  14.300  38.467   3.632
17802W        W86020  24.945  35.494   0.883
17803W        W86021  44.369  33.528   3.552
17804W        W86022  40.605  41.398   0.451
17805W        W86023  31.270   3.039  11.637
17806W        W86024   2.979  40.396   1.116
17807W        W86025  19.654   1.902   4.896
17808W        W86026  34.040  25.552   4.138
17809W        W86027   4.407  11.624   4.880
17810W        W86028  13.470  43.275  12.376
17811W        W86029  18.140  42.112   4.609
17812W        W86030  34.055  40.807   3.622
17813W        W86031   0.420  12.362  14.271
17814W        W86032  42.066   6.898   2.819
17815W        W86033   3.242  27.931  13.354
17816W        W86034  20.996   4.671   1.175
17817W        W86035  39.915   6.736  13.512
17818W        W86036  29.847   9.304  11.277
17819W        W86037   6.446   2.861  13.298
17820W        W86038   8.319  36.100   0.222
17821W        W86039  31.903  15.159   3.260
17822W        W86040  44.765   9.294   4.124
17823W        W86041   8.165  24.127   1.180
17824W        W86042   2.412  11.749  10.603
17825W        W86043   6.561  25.009   2.885
17826W        W86044   0.289  44.096   0.931
17827W        W86045  32.544  25.772  11.302
17828W        W86046  32.301  16.243   4.627
17829W        W86047  15.787  43.943  13.627
17830W        W86048  41.434  12.355  13.985
17831W        W86049  35.671  16.827   3.712
17832W        W86050  39.868  10.484  12.539
17833W        W86051   6.153  43.094  11.537
17834W        W86052  38.530   6.677  14.012
17835W        W86053  27.906  17.803  12.437
17836W        W86054  32.953   3.567   3.619
17837W        W86055  10.225  11.872   3.187
17838W        W86056  11.713  41.960   3.182
17839W        W86057  40.372  34.226  11.968
17840W        W86058  27.153  31.959   2.240
17841W        W86059   9.974  23.647   1.390
17842W        W86060  36.779   9.124  13.617
17843W        W86061   5.152   1.865  11.563
17844W        W86062  31.375  10.622  13.147
17845W        W86063   8.211  16.169   1.757
17846W        W86064  13.161  36.548  11.619
17847W        W86065  42.814  32.459  14.038
17848W        W86066  34.325  28.449   2.855
17849W        W86067   0.527  22.059  13.155
17850W        W86068  35.461  22.097  10.958
17851W        W86069  40.350  11.298  14.289
17852W        W86070   3.755  43.981   4.852
17853W        W86071  42.710  24.661   3.230
17854W        W86072  29.057  17.273  13.528
17855W        W86073  13.588  26.109   1.487
17856W        W86074  11.207  29.504   1.211
17857W        W86075  37.762  31.616   0.443
17858W        W86076  11.514  20.631   4.474
17859W        W86077  30.954  25.286   0.455
17860W        W86078  40.851  21.985   0.044
17861W        W86079  20.943  43.679  13.906
17862W        W86080  23.901  32.894   9.701
17863W        W86081  24.437   5.164   2.629
17864W        W86082  43.718   2.477   1.302
17865W        W86083   3.511  39.514   3.387
17866W        W86084  33.084  40.375  11.672
17867W        W86085  28.875   4.790  11.068
17868W        W86086  41.002  31.316  11.201
17869W        W86087   1.727  19.021  12.853
17870W        W86088  41.935  39.246  14.002
17871W        W86089  23.275  21.070  11.531
17872W        W86090  34.546   3.177   4.527
17873W        W86091  34.444   6.035   4.506
17874W        W86092  23.258  21.411   3.203
17875W        W86093   1.726   9.238  11.200
17876W        W86094  11.333  40.021  10.714
17877W        W86095  43.304   9.126  14.535
17878W        W86096  16.769  35.046   2.357
17879W        W86097  17.597  40.721   2.733
17880W        W86098   0.811  15.137  11.140
17881W        W86099  15.263  39.833  13.313
17882W        W86100  12.254  42.265   2.735
17883W        W86101  32.896  15.781   2.886
17884W        W86102  22.303  36.007  13.876
17885W        W86103  40.563  41.440   0.977
17886W        W86104  20.608  25.046   2.817
17887W        W86105  24.497  29.187   1.727
17888W        W86106  20.595  14.841  11.153
17889W        W86107  19.981  43.501   0.766
17890W        W86108  11.844  30.873   1.248
17891W        W86109   4.293   4.659   1.486
17892W        W86110  44.928  38.132   1.227
17893W        W86111  27.209   7.068   2.884
17894W        W86112  37.924  44.508   3.216
17895W        W86113  15.631  22.541   2.179
17896W        W86114  33.016   2.533   3.762
17897W        W86115  44.996  10.588  12.635
17898W        W86116  34.770  28.552   0.482
17899W        W86117  16.268  33.494  14.345
17900W        W86118  30.131  39.399  14.213
17901W        W86119   6.533  29.958   3.751
17902W        W86120   0.439  25.953  12.064
17903W        W86121  39.771  24.764   1.441
17904W        W86122  44.707  42.630   4.485
17905W        W86123  24.875  23.446   2.276
17906W        W86124  28.144  20.661  12.625
17907W        W86125  18.733  22.460  14.562
17908W        W86126  20.542   8.320   0.548
17909W        W86127  30.509  21.777  11.475
17910W        W86128   9.814   8.394   1.314
17911W        W86129  25.810  13.906  14.737
17912W        W86130   8.481  24.533  13.680
17913W        W86131  17.755  39.551   1.466
17914W        W86132  25.255  30.567  12.360
17915W        W86133  31.661  27.127  10.674
17916W        W86134  19.173  13.191  14.473
17917W        W86135   7.830   4.761   4.574
17918W        W86136  41.856   7.307   0.272
17919W        W86137  25.139  14.260  11.184
17920W        W86138  10.848  12.348   4.247
17921W        W86139  42.911  18.727  11.381
17922W        W86140  40.847   4.970  13.506
17923W        W86141   0.997  38.681  11.996
17924W        W86142  42.785  28.100   0.269
17925W        W86143  41.077  36.000   1.885
17926W        W86144  28.402  40.947   2.293
17927W        W86145  12.236  32.549  12.443
17928W        W86146  36.099  12.218  11.597
17929W        W86147   6.506  41.590  12.986
17930W        W86148  40.015  11.120   2.882
17931W        W86149   5.322   5.200  12.599
17932W        W86150  27.506   9.140  11.549
17933W        W86151   7.297  33.174  10.743
17934W        W86152   6.922  26.438   0.193
17935W        W86153  20.629  31.957  12.881
17936W        W86154  11.235   7.239  10.567
17937W        W86155  15.586  37.473   9.883
17938W        W86156  36.769   3.194  11.200
17939W        W86157  44.977   1.964   2.923
17940W        W86158  35.832  13.548   4.770
17941W        W86159  39.809   2.941   2.776
17942W        W86160  16.204   3.244  13.309
17943W        W86161  19.100  22.272   0.467
17944W        W86162  20.148  10.786   1.659
17945W        W86163  44.563   4.712   4.558
17946W        W86164  17.199  38.866   3.548
17947W        W86165   5.098   9.214  10.963
17948W        W86166  33.103  13.971  10.633
17949W        W86167  11.896   8.331  14.257
17950W        W86168  30.163  22.523   1.554
17951W        W86169  24.644  21.543   4.311
17952W        W86170  21.202  34.412  14.823
17953W        W86171  30.106   0.953   3.942
17954W        W86172  35.153  30.184   3.851
17955W        W86173  34.080   5.387  11.454
17956W        W86174   9.331  36.783  13.752
17957W        W86175  18.256  29.221  13.885
17958W        W86176  38.011  37.046   1.772
17959W        W86177   9.489   1.908   4.119
17960W        W86178   1.481  24.202  10.704
17961W        W86179  22.813   4.226  11.278
17962W        W86180  35.121  34.889  13.062
17963W        W86181  11.522  16.705   4.301
17964W        W86182  19.111  12.628  14.025
17965W        W86183   9.434  20.076   4.345
17966W        W86184  44.831  34.790  11.140
17967W        W86185  15.661  10.904  11.185
17968W        W86186  27.678   6.226   2.273
17969W        W86187  15.798  22.024   1.242
17970W        W86188  35.541   5.217  14.889
17971W        W86189  10.205   3.337  11.198
17972W        W86190  35.589  12.138  11.495
17973W        W86191  41.447  30.178   4.584
17974W        W86192   7.888  11.353  12.456
17975W        W86193  35.967  15.781  13.627
17976W        W86194   1.934  23.929   2.176
17977W        W86195  40.819  24.407  13.552
17978W        W86196   5.331  15.645   2.334
17979W        W86197  17.332   9.631  10.711
17980W        W86198  18.573  34.733  14.829
17981W        W86199  44.275  21.085   2.127
17982W        W86200  28.501   8.688   4.609
17983W        W86201  29.137  22.231  12.016
17984W        W86202   4.385   1.723   3.762
17985W        W86203  20.341  24.227   2.867
17986W        W86204   1.359  38.481   2.204
17987W        W86205  20.495  33.601  11.460
17988W        W86206  12.386  42.299   1.379
17989W        W86207  10.285  19.098  10.489
17990W        W86208  43.524  25.903  11.574
17991W        W86209  12.065  24.589   1.291
17992W        W86210  23.758   3.544  12.575
17993W        W86211  34.031  39.465   4.603
17994W        W86212   4.547  21.556  14.766
17995W        W86213  10.524  18.835  13.644
17996W        W86214  18.350   7.230  14.411
17997W        W86215   6.429  13.859  14.872
17998W        W86216  25.428   1.356   4.532
17999W        W86217  44.821  13.397   4.952
18000W        W86218  36.136  12.302  13.031
18001W        W86219  43.549   4.276  12.397
18002W        W86220  41.906  18.075  14.779
18003W        W86221   6.943   3.981   1.793
18004W        W86222  26.281   7.669  11.260
18005W        W86223  17.729  17.247  13.859
18006W        W86224  41.417   1.910  11.966
18007W        W86225  14.790  36.508   2.323
18008W        W86226   4.327  34.845   0.445
18009W        W86227   5.415  18.723  10.337
18010W        W86228  20.293  37.093  12.054
18011W        W86229  29.163  22.982  14.385
18012W        W86230  14.239   0.551   0.897
18013W        W86231   9.474  23.717   1.261
18014W        W86232  41.032  12.364  13.010
18015W        W86233  42.103  27.451   4.549
18016W        W86234  26.137  27.203   3.106
18017W        W86235   3.873  44.975   1.024
18018W        W86236  28.513  29.717   0.092
18019W        W86237   3.647  41.404   2.218
18020W        W86238  27.056  38.307   0.937
18021W        W86239  25.916   5.846   4.511
18022W        W86240  18.860   6.764  11.935
18023W        W86241  28.564   9.633   4.818
18024W        W86242  38.065  41.832   0.329
18025W        W86243  19.524  32.445   3.259
18026W        W86244  17.748  44.513   0.340
18027W        W86245  18.661  12.150   0.438
18028W        W86246   0.857  29.931   3.375
18029W        W86247   9.004  11.112  13.265
18030W        W86248   2.742  17.667   4.489
18031W        W86249  23.084  36.963  10.779
18032W        W86250  39.284  22.751  11.243
18033W        W86251   7.413  14.076  12.474
18034W        W86252   9.934  29.523  14.932
18035W        W86253  23.501  24.548   4.211
18036W        W86254  11.741   0.549  14.810
18037W        W86255   4.059  36.139   4.884
18038W        W86256   0.041  22.824  12.460
18039W        W86257  19.847  40.672   3.655
18040W        W86258  17.252  33.897   3.384
18041W        W86259   6.303  42.001  13.246
18042W        W86260   2.239   5.722   1.098
18043W        W86261   0.730  36.848  11.292
18044W        W86262  15.497  32.026  13.018
18045W        W86263  35.866   4.392  14.022
18046W        W86264   7.444  41.501   1.283
18047W        W86265  27.715  21.523   3.875
18048W        W86266  33.460  37.590   4.643
18049W        W86267  25.987  19.628  11.896
18050W        W86268  39.571  22.308   0.843
18051W        W86269  12.810  40.205   2.328
18052W        W86270  36.497  28.474  11.763
18053W        W86271  28.439  42.563   3.724
18054W        W86272  14.158  23.155   3.116
18055W        W86273  16.094   0.507   3.870
18056W        W86274  28.114   3.738  14.007
18057W        W86275  29.387   3.542   9.858
18058W        W86276  22.625  31.487  13.510
18059W        W86277  27.486   5.125   4.586
18060W        W86278  30.535  18.162  13.749
18061W        W86279   7.142  35.280  13.933
18062W        W86280   6.757  16.746  14.463
18063W        W86281  22.787  15.557  13.357
18064W        W86282  28.766  21.045  14.754
18065W        W86283  39.177   7.121   4.638
18066W        W86284   5.930  26.710   2.650
18067W        W86285  13.680  20.231  13.652
18068W        W86286  25.702  33.988   4.856
18069W        W86287  26.023  39.458   4.859
18070W        W86288  10.107  24.632   1.306
18071W        W86289   5.307  14.341  12.811
18072W        W86290   5.916  25.932   4.381
18073W        W86291  17.673   2.534  12.063
18074W        W86292  42.536  18.910  11.055
18075W        W86293  18.001   8.834  10.619
18076W        W86294  29.724  29.129   2.271
18077W        W86295   3.313  28.581  10.804
18078W        W86296  40.476   6.738  14.212
18079W        W86297  37.345  24.536   4.135
18080W        W86298   8.998  23.991  13.000
18081W        W86299  13.898   1.094  10.734
18082W        W86300  11.104  15.742   5.164
18083W        W86301  39.866  16.840   3.321
18084W        W86302  18.009  40.328  13.440
18085W        W86303  22.220  38.597  11.524
18086W        W86304   8.843  15.208   1.157
18087W        W86305   0.356  14.709   3.951
18088W        W86306  13.765   8.857   0.905
18089W        W86307   9.736  25.168  14.325
18090W        W86308  19.637  15.180   2.170
18091W        W86309   1.726  13.539   3.783
18092W        W86310  37.072  42.520  11.575
18093W        W86311  37.753  40.103   2.485
18094W        W86312  23.922  43.079  12.604
18095W        W86313  25.370  10.664   3.737
18096W        W86314   6.390  34.916  13.463
18097W        W86315  29.855   4.828  14.849
18098W        W86316  37.334  31.059  13.337
18099W        W86317   8.068  44.021  14.969
18100W        W86318  26.923   9.268   0.401
18101W        W86319   3.288  22.076   1.467
18102W        W86320  22.541   7.351  13.560
18103W        W86321  12.073  17.188  12.885
18104W        W86322  27.639   1.893  11.241
18105W        W86323  33.445  40.896   2.864
18106W        W86324   1.358  19.549   0.871
18107W        W86325  44.687  20.717  10.611
18108W        W86326   3.912  26.480   3.797
18109W        W86327  37.237  37.116   5.240
18110W        W86328  43.058  19.644  10.462
18111W        W86329  16.751  32.131  14.374
18112W        W86330  35.307  22.753  14.992
18113W        W86331  31.356  24.825  12.912
18114W        W86332  27.691  21.869   2.007
18115W        W86333  18.384  30.664   3.741
18116W        W86334  31.816  26.190  11.314
18117W        W86335  19.093  17.644  14.896
18118W        W86336  32.621  18.327  12.154
18119W        W86337  10.316  11.615  14.518
18120W        W86338  16.812  23.536   4.469
18121W        W86339  22.806  35.056   0.338
18122W        W86340  40.991  10.881  11.159
18123W        W86341  36.808  22.908   1.155
18124W        W86342  35.663   9.843  13.346
18125W        W86343  13.298  10.170  10.646
18126W        W86344   3.951  29.613   1.786
18127W        W86345  36.408   0.334   0.905
18128W        W86346  34.414  33.987  11.250
18129W        W86347  11.369   4.221   1.336
18130W        W86348   9.960  21.806  14.341
18131W        W86349   6.323   4.674  14.860
18132W        W86350  10.301  38.882   4.639
18133W        W86351  36.005  34.281   3.760
18134W        W86352  41.425  36.122   3.674
18135W        W86353   3.393  36.336   3.476
18136W        W86354  14.343  23.223  11.565
18137W        W86355  10.430  14.532   2.343
18138W        W86356  35.658  40.814  13.932
18139W        W86357  33.442   4.909   0.234
18140W        W86358  25.624  32.167  12.457
18141W        W86359  26.548  41.433   0.826
18142W        W86360  28.463  27.508   0.719
18143W        W86361  21.132  31.669  10.134
18144W        W86362  41.360  10.836   0.815
18145W        W86363  36.457   6.853  11.636
18146W        W86364  38.350  32.320  14.522
18147W        W86365  13.054  26.198  10.874
18148W        W86366  11.327  15.061  14.234
18149W        W86367  27.909  23.281   2.879
18150W        W86368  17.317  31.937  14.692
18151W        W86369   9.464  28.599   4.020
18152W        W86370  15.379  11.286  10.643
18153W        W86371   4.788  26.913   2.286
18154W        W86372  35.551  31.384  12.628
18155W        W86373  41.581  18.371  11.110
18156W        W86374  40.067  42.620  12.061
18157W        W86375  15.710  13.281   0.834
18158W        W86376   2.156  12.209  10.892
18159W        W86377   9.755   5.037  13.861
18160W        W86378  34.590  24.086  11.547
18161W        W86379   6.344  19.162  13.910
18162W        W86380   9.174  15.214   1.921
18163W        W86381   0.415  23.650   4.798
18164W        W86382   9.366  24.187   3.628
18165W        W86383  12.444   7.541  13.918
18166W        W86384  27.951  12.156   0.966
18167W        W86385  24.952  31.502   1.706
18168W        W86386   9.421  26.079  13.977
18169W        W86387   5.345  13.081   0.435
18170W        W86388  19.032  40.438   3.500
18171W        W86389  22.512  19.309   3.597
18172W        W86390  40.378  34.376   1.950
18173W        W86391  15.220  22.708  11.633
18174W        W86392   9.981  27.822  11.993
18175W        W86393  36.376  22.076  10.951
18176W        W86394  31.985  35.996   3.619
18177W        W86395   3.038   2.079   4.134
18178W        W86396  39.642  23.048   2.829
18179W        W86397   9.447  28.592  13.936
18180W        W86398  11.289  30.443   3.229
18181W        W86399  31.493  28.036  11.087
18182W        W86400  13.095  16.628   0.979
18183W        W86401  27.427   1.686   4.496
18184W        W86402  42.670  10.731   4.140
18185W        W86403  22.721   7.468  12.076
18186W        W86404  15.188  35.446   1.845
18187W        W86405  43.824   2.210   0.253
18188W        W86406  29.449  31.555  12.849
18189W        W86407  30.750  19.286  12.021
18190W        W86408  37.457  42.393   4.445
18191W        W86409  23.000  42.738  14.872
18192W        W86410  18.936  17.348  12.578
18193W        W86411   7.209  41.448   0.835
18194W        W86412   1.823  16.667  11.576
18195W        W86413  44.796  24.595   4.113
18196W        W86414  10.594  20.580  12.597
18197W        W86415  42.263  34.697  14.455
18198W        W86416  44.254  34.968  13.424
18199W        W86417  21.544  42.323   0.859
18200W        W86418  39.391  29.919   3.657
18201W        W86419  13.778   5.794  13.902
18202W        W86420   3.958  37.027   4.350
18203W        W86421   9.851  29.108   4.666
18204W        W86422  12.558  41.814  10.964
18205W        W86423  38.933  44.063   0.782
18206W        W86424  30.948   9.371   0.231
18207W        W86425  34.872  42.070   3.634
18208W        W86426  24.082  42.239  12.820
18209W        W86427  24.578  15.113  14.444
18210W        W86428  22.134  40.895   1.848
18211W        W86429  43.440  27.017   3.731
18212W        W86430  44.679  28.605   2.178
18213W        W86431  17.739  24.782  10.686
18214W        W86432  29.358   8.760   3.841
18215W        W86433   8.617  42.238  13.980
18216W        W86434  25.658  29.123   2.320
18217W        W86435   6.445   9.796   2.188
18218W        W86436  44.751  27.979   1.779
18219W        W86437  11.699  32.600  12.631
18220W        W86438   3.711   5.665  12.020
18221W        W86439  16.649  34.854   1.660
18222W        W86440  10.963   3.890  13.294
18223W        W86441   6.745  25.007  13.001
18224W        W86442  22.035  32.112  13.957
18225W        W86443   3.160   0.989  10.404
18226W        W86444  28.254  31.938  12.645
18227W        W86445  42.852  37.843   1.926
18228W        W86446  19.961  39.485  11.833
18229W        W86447  31.661   3.023  11.267
18230W        W86448  15.689   9.651   2.725
18231W        W86449  29.798  13.479  13.421
18232W        W86450   1.157  21.762  10.772
18233W        W86451   9.880  31.708  11.096
18234W        W86452  37.879   5.377  13.922
18235W        W86453  11.689  27.208   3.322
18236W        W86454  14.799  44.184  11.057
18237W        W86455  36.547  43.370  10.556
18238W        W86456  30.669  35.992   4.404
18239W        W86457  13.021  42.682   2.286
18240W        W86458  12.312  42.715   5.039
18241W        W86459  41.037  12.274  12.494
18242W        W86460  31.302  39.770  12.113
18243W        W86461  36.587  37.502   1.827
18244W        W86462  40.520  26.513  11.559
18245W        W86463   0.897   9.586  10.437
18246W        W86464  27.108  33.791  11.453
18247W        W86465   8.655  41.629  11.107
18248W        W86466  21.158  41.406   0.743
18249W        W86467   5.347  37.661  12.928
18250W        W86468  28.976  20.707  13.580
18251W        W86469  26.199   6.228   2.660
18252W        W86470  38.118   3.544   3.259
18253W        W86471  19.487  21.045  13.425
18254W        W86472  28.287  41.819  14.034
18255W        W86473  19.671  15.804   4.689
18256W        W86474  24.175  13.901   2.291
18257W        W86475  25.115  10.217   2.653
18258W        W86476  23.912  20.761  12.842
18259W        W86477   7.188  22.120   1.259
18260W        W86478  13.172  20.768  13.016
18261W        W86479   1.706  44.309  13.531
18262W        W86480  16.980  28.771  13.182
18263W        W86481  37.148   1.518   0.768
18264W        W86482  31.397  19.767  11.238
18265W        W86483   8.526  44.284  11.856
18266W        W86484  43.539  17.289  14.457
18267W        W86485   0.770  11.731   3.312
18268W        W86486  21.435  18.470  13.274
18269W        W86487  15.577   8.053  14.004
18270W        W86488  24.425  10.747   2.658
18271W        W86489  25.598  30.673   3.842
18272W        W86490  22.749  16.120  14.612
18273W        W86491  12.591   9.050   4.094
18274W        W86492   8.119  42.057   3.351
18275W        W86493  14.895  41.482   1.804
18276W        W86494   9.780  27.873   0.211
18277W        W86495  37.766   7.695  13.160
18278W        W86496  10.187   7.430   2.707
18279W        W86497  21.096  41.618  14.362
18280W        W86498  18.158  12.335   0.504
18281W        W86499  44.028   4.462  11.373
18282W        W86500  35.926  22.140  10.686
18283W        W86501  27.524  34.521   0.384
18284W        W86502  16.797  40.448  10.802
18285W        W86503  21.649  31.483   2.153
18286W        W86504  18.602   7.191  12.033
18287W        W86505   5.897  34.005  11.960
18288W        W86506  13.899  37.075   3.276
18289W        W86507  41.786  34.571   0.282
18290W        W86508  17.390  31.323   0.888
18291W        W86509  42.097   9.366  12.521
18292W        W86510   2.815   1.819   2.664
18293W        W86511   5.405  39.340  14.355
18294W        W86512  15.708  13.200   1.371
18295W        W86513  34.612  25.069  11.981
18296W        W86514   5.204   9.276   0.072
18297W        W86515  41.726   4.829   4.157
18298W        W86516  21.094  30.842  13.927
18299W        W86517   7.355  14.583   4.098
18300W        W86518  26.907  33.291  11.501
18301W        W86519  33.052  40.857  14.028
18302W        W86520  29.697  20.164   2.876
18303W        W86521  32.386  30.875  12.551
18304W        W86522  15.264  30.644  14.957
18305W        W86523  35.096   3.465   0.424
18306W        W86524   7.215  19.047   1.287
18307W        W86525  36.441  36.910  13.734
18308W        W86526  34.165  35.878   3.341
18309W        W86527   7.896  36.398   3.866
18310W        W86528   4.412  36.057  11.163
18311W        W86529  39.336  33.629   4.075
18312W        W86530  42.793  39.741   2.246
18313W        W86531  43.708  32.989   2.199
18314W        W86532  10.063  25.221  12.040
18315W        W86533   4.275  20.643  13.427
18316W        W86534  39.919  39.560  13.806
18317W        W86535  19.323   3.285   0.832
18318W        W86536  24.589  34.822  14.432
18319W        W86537  40.340  44.772  14.920
18320W        W86538   5.705   1.904  14.910
18321W        W86539  38.348   8.920   2.708
18322W        W86540  17.067   3.781   1.867
18323W        W86541  43.542   3.817   4.863
18324W        W86542  26.993  19.450  14.167
18325W        W86543  27.464   8.615  10.866
18326W        W86544  12.250   1.834  10.787
18327W        W86545  14.161  10.539  13.477
18328W        W86546   0.681   2.555   0.953
18329W        W86547  15.651  42.776   1.942
18330W        W86548  23.979   9.153   3.718
18331W        W86549   7.231  12.071  14.711
18332W        W86550  42.016  27.847  12.700
18333W        W86551   1.925  31.849   2.083
18334W        W86552  25.886  37.877   2.820
18335W        W86553  43.951  22.050  12.086
18336W        W86554  19.144  16.421  10.780
18337W        W86555  20.648   2.848  14.326
18338W        W86556  39.775   6.334  14.963
18339W        W86557  18.505  12.589   0.211
18340W        W86558  39.837   8.774  13.805
18341W        W86559  31.941   4.744   3.336
18342W        W86560   6.836  10.218   4.218
18343W        W86561  33.997  25.605  12.508
18344W        W86562  38.263  14.130  12.996
18345W        W86563   2.808   8.231  12.887
18346W        W86564  15.190   8.934   4.076
18347W        W86565  32.092  15.200   3.732
18348W        W86566  40.062  18.481   0.967
18349W        W86567  23.834  11.738  14.469
18350W        W86568  37.384  21.311  10.720
18351W        W86569  31.280   8.996   0.031
18352W        W86570  14.516  29.564  10.824
18353W        W86571   8.932   0.755  13.603
18354W        W86572   5.911  25.678   0.127
18355W        W86573  27.045  22.696   0.998
18356W        W86574  21.524  20.615   3.219
18357W        W86575  14.406  37.413  13.146
18358W        W86576   7.643  11.047   1.812
18359W        W86577  32.510   4.479   0.317
18360W        W86578   7.643  16.587   2.422
18361W        W86579   3.026  21.746   1.840
18362W        W86580   3.964   1.442   3.612
18363W        W86581  41.360  11.246  11.162
18364W        W86582  22.900   3.511   0.817
18365W        W86583  12.187  17.848  11.151
18366W        W86584  34.940   2.788  11.450
18367W        W86585  42.143   2.551   5.074
18368W        W86586  13.070  11.925   3.810
18369W        W86587   0.395   8.428  11.190
18370W        W86588  27.376   0.282  12.413
18371W        W86589  40.016  38.318   2.627
18372W        W86590   4.417  17.231   1.970
18373W        W86591  26.649   6.866  13.701
18374W        W86592  41.431   7.361   2.316
18375W        W86593  30.704  17.452  11.505
18376W        W86594  18.300  28.822  12.017
18377W        W86595  11.035  19.211  13.985
18378W        W86596  14.397  24.544   4.531
18379W        W86597  11.673  12.382  12.051
18380W        W86598   4.384  15.957   1.840
18381W        W86599  11.763   0.437  13.893
18382W        W86600  38.675   4.447  10.268
18383W        W86601  15.009  18.568   2.340
18384W        W86602  25.401  19.711   4.169
18385W        W86603   2.729  39.888   2.352
18386W        W86604  10.057  30.806   0.609
18387W        W86605  21.307  32.519   4.047
18388W        W86606  44.561  18.995   4.942
18389W        W86607  32.544  30.965   0.820
18390W        W86608  25.645  25.187  10.675
18391W        W86609  23.141  36.525  12.321
18392W        W86610  44.785  25.666   1.781
18393W        W86611  44.464  36.008   4.797
18394W        W86612  15.771  14.094  10.462
18395W        W86613  43.750  10.669  14.858
18396W        W86614  44.179   4.653   0.454
18397W        W86615  12.483  20.459   1.463
18398W        W86616  12.404  42.073  12.342
18399W        W86617   1.828   6.865   4.233
18400W        W86618  26.550  36.490   0.806
18401W        W86619   5.478  30.717   0.892
18402W        W86620   9.957  11.125  12.422
18403W        W86621  18.072  29.490  13.116
18404W        W86622  35.844   2.954   3.730
18405W        W86623  34.919  19.768  12.888
18406W        W86624  42.236  35.869   1.434
18407W        W86625  40.409  34.465  10.269
18408W        W86626  10.279  28.755  13.863
18409W        W86627  25.161  43.151   0.805
18410W        W86628  42.403   9.873   3.060
18411W        W86629  37.806   5.351  12.983
18412W        W86630  31.446   9.223   4.128
18413W        W86631  19.646  27.235  13.176
18414W        W86632  16.554  33.350   3.948
18415W        W86633   9.107  32.147   1.770
18416W        W86634  23.654  41.994   0.941
18417W        W86635  25.696   6.215  14.517
18418W        W86636   8.294  23.115   3.329
18419W        W86637  15.598  27.979  14.098
18420W        W86638  30.067   5.245   4.097
18421W        W86639  15.204  22.241  12.549
18422W        W86640  10.256  37.646   4.136
18423W        W86641  34.872  44.273  10.659
18424W        W86642   4.429   3.483   3.526
18425W        W86643   0.503  43.792  10.674
18426W        W86644   9.465  13.640   4.060
18427W        W86645  39.074  40.535   3.837
18428W        W86646  44.444  21.758  14.079
18429W        W86647  17.295  39.335   1.305
18430W        W86648  42.218  44.246   4.278
18431W        W86649  32.586   9.058   1.772
18432W        W86650  11.810   1.331  11.381
18433W        W86651  20.920   0.744  13.690
18434W        W86652   4.612  16.097   0.400
18435W        W86653   5.216  22.911  11.416
18436W        W86654  12.177  31.730  14.895
18437W        W86655  23.269  27.063   4.614
18438W        W86656  42.400   8.296   1.670
18439W        W86657  27.846  11.887   5.127
18440W        W86658  24.479   1.449  13.078
18441W        W86659  17.183   0.258   5.106
18442W        W86660  23.218  12.636   2.820
18443W        W86661  38.125  31.482  14.436
18444W        W86662  25.576   0.775   1.218
18445W        W86663   4.230  36.057  14.747
18446W        W86664  12.108  20.197  13.171
18447W        W86665  19.669  35.107  14.284
18448W        W86666  31.795  28.297   1.266
18449W        W86667   0.211  38.807   0.862
18450W        W86668   1.458   9.894   1.261
18451W        W86669  39.804  40.317   3.124
18452W        W86670   6.470  37.200   9.985
18453W        W86671  35.900  44.435   0.951
18454W        W86672  19.581  27.260  13.722
18455W        W86673  17.107  30.042   3.788
18456W        W86674  28.514   0.405  13.366
18457W        W86675  37.751  12.712  10.625
18458W        W86676  13.663  40.485   0.895
18459W        W86677  18.991  29.026  13.228
18460W        W86678  33.098  11.933  13.004
18461W        W86679   0.808  12.167  11.614
18462W        W86680   5.767  36.408   1.680
18463W        W86681  24.080  31.962  11.012
18464W        W86682  20.022   0.827  13.128
18465W        W86683  20.982  39.056   1.835
18466W        W86684  13.384  25.776   3.291
18467W        W86685   3.348  10.342   2.334
18468W        W86686   7.977  12.079  12.991
18469W        W86687  30.462  36.117   2.842
18470W        W86688  36.597   7.080   4.622
18471W        W86689  13.558  12.250   1.314
18472W        W86690  30.608  29.937  12.130
18473W        W86691  24.434  25.710   3.590
18474W        W86692  26.903  21.364   4.710
18475W        W86693  14.574  23.153  12.029
18476W        W86694   5.631  10.848   4.171
18477W        W86695  41.247  25.133  13.280
18478W        W86696  27.702   4.492  13.182
18479W        W86697   1.460  24.627   3.867
18480W        W86698  39.018   0.447  10.286
18481W        W86699  23.593  44.278  13.482
18482W        W86700   0.656  39.070  12.002
18483W        W86701  17.834   0.731   4.076
18484W        W86702   5.949  23.211  12.140
18485W        W86703  24.513   5.442  12.506
18486W        W86704   7.309  13.765   4.540
18487W        W86705   2.427  27.270   0.282
18488W        W86706  11.609  39.384  11.525
18489W        W86707  39.807  11.367  11.148
18490W        W86708   9.873  22.178   4.242
18491W        W86709   9.851  32.678   3.587
18492W        W86710  14.716  42.836  11.920
18493W        W86711  35.029   2.319  14.786
18494W        W86712  28.178   5.834  12.132
18495W        W86713  37.110  35.001   1.569
18496W        W86714  42.304  38.500   2.650
18497W        W86715   0.420  20.139  12.013
18498W        W86716  15.773  32.832  12.052
18499W        W86717  10.755  18.184   1.707
18500W        W86718  13.649  20.059   3.463
18501W        W86719  39.031  19.643  14.828
18502W        W86720   8.365  12.224   1.345
18503W        W86721  37.359  39.250  12.922
18504W        W86722  34.254  39.568   0.928
18505W        W86723  30.954  38.548  10.726
18506W        W86724  26.183  38.536  14.879
18507W        W86725  38.101  25.446   3.639
18508W        W86726  22.501  31.141   2.392
18509W        W86727   5.862   0.327  10.548
18510W        W86728  39.975  24.720  13.013
18511W        W86729  17.139   3.724   4.153
18512W        W86730  23.497   2.794   3.611
18513W        W86731   9.878  14.825  13.907
18514W        W86732  21.120  37.811   0.695
18515W        W86733  41.814  44.402   4.563
18516W        W86734  24.824  32.562  11.991
18517W        W86735   8.136  10.906  12.412
18518W        W86736  13.333  41.491   1.683
18519W        W86737  14.155   4.329   3.355
18520W        W86738  18.594  17.089   1.316
18521W        W86739  40.380   0.828   0.047
18522W        W86740  20.639  20.141  12.627
18523W        W86741  21.462  40.466   1.850
18524W        W86742  12.223  29.934   2.064
18525W        W86743  36.184  31.706  13.202
18526W        W86744  11.827  34.450   3.638
18527W        W86745  15.805  41.479  12.854
18528W        W86746  24.959   3.548  14.869
18529W        W86747  40.388  40.454  14.119
18530W        W86748  16.384  16.315  13.935
18531W        W86749  21.483  17.503  12.331
18532W        W86750   7.068  44.428  10.747
18533W        W86751   0.722  31.350   3.812
18534W        W86752  11.292   4.895  14.950
18535W        W86753  44.358   3.255   0.750
18536W        W86754   9.356   2.588  13.468
18537W        W86755  28.615  27.316   1.713
18538W        W86756  16.617  28.934   3.664
18539W        W86757  44.896  37.351  12.477
18540W        W86758  17.807  37.189  12.068
18541W        W86759  34.805  24.090   2.611
18542W        W86760  44.342  12.262   2.442
18543W        W86761  24.027   4.017  10.908
18544W        W86762   4.426  31.082  14.801
18545W        W86763  41.925  41.914   0.501
18546W        W86764  25.654  18.132   2.942
18547W        W86765  35.813   7.783   2.759
18548W        W86766  23.669  22.654   3.839
18549W        W86767  37.014   0.467  11.998
18550W        W86768   4.767  18.573  11.602
18551W        W86769  11.056  27.532  14.813
18552W        W86770  14.286   8.625   2.198
18553W        W86771  31.450   7.311   2.922
18554W        W86772   8.833   9.067  11.576
18555W        W86773  17.569  25.697   2.459
18556W        W86774  40.457   4.926  12.090
18557W        W86775  12.849  24.952  13.231
18558W        W86776   6.934  44.151   4.260
18559W        W86777  41.777  20.013   1.039
18560W        W86778  43.271  38.771   2.783
18561W        W86779  22.160  38.762  12.907
18562W        W86780  22.446  29.526  13.434
18563W        W86781   4.416  33.184   4.521
18564W        W86782  17.214  11.220  10.272
18565W        W86783   1.492  35.129  14.792
18566W        W86784  43.305  16.087  13.035
18567W        W86785   7.983  14.457  13.776
18568W        W86786  39.439  22.658  12.623
18569W        W86787  28.206  12.862   3.736
18570W        W86788  32.323  39.731  12.455
18571W        W86789  44.490  38.604  12.024
18572W        W86790  20.615  27.827   3.027
18573W        W86791  22.641  32.642   1.253
18574W        W86792  14.072  30.743   1.448
18575W        W86793  39.958   7.868  11.162
18576W        W86794   1.413  34.160  11.935
18577W        W86795  41.134  26.995  11.021
18578W        W86796  44.412  34.389   1.879
18579W        W86797  42.399   3.786   1.719
18580W        W86798  25.920  42.992   0.248
18581W        W86799   6.113  13.349  12.377
18582W        W86800   8.129  40.273   2.032
18583W        W86801  41.937   9.790   2.159
18584W        W86802  42.997  42.807  12.544
18585W        W86803  28.897  20.228  12.898
18586W        W86804  28.716  15.963   2.197
18587W        W86805  17.816  30.940  12.547
18588W        W86806  19.415  35.936   1.455
18589W        W86807   7.969  43.304  14.488
18590W        W86808   0.115  11.240   2.810
18591W        W86809  43.691  22.449   3.175
18592W        W86810  41.395  12.625  12.381
18593W        W86811  12.319  42.953  12.964
18594W        W86812  22.650   3.411   3.166
18595W        W86813   3.755  42.514   3.258
18596W        W86814   4.703  39.009  11.710
18597W        W86815  38.862  40.000  12.050
18598W        W86816  17.275  11.893   1.821
18599W        W86817  30.614  35.313  14.660
18600W        W86818  32.991  21.232  10.982
18601W        W86819  18.551  10.652  12.489
18602W        W86820  28.543   9.922  12.273
18603W        W86821   1.477  40.295  13.647
18604W        W86822   4.807  41.907   3.305
18605W        W86823  36.836   3.877   4.511
18606W        W86824  35.629  40.667  10.718
18607W        W86825  23.731   2.366   3.760
18608W        W86826   4.168  10.444   2.149
18609W        W86827  21.325  32.504  10.259
18610W        W86828  11.785   2.737   1.929
18611W        W86829  15.652  24.725  14.024
18612W        W86830  44.368  18.532   4.518
18613W        W86831  35.118  33.281   4.603
18614W        W86832  24.475  14.615  12.898
18615W        W86833  17.340   3.252   1.944
18616W        W86834  24.857  14.163  13.526
18617W        W86835  39.854   8.661   4.501
18618W        W86836  32.979  34.873  12.131
18619W        W86837  10.289   2.800  12.896
18620W        W86838  43.526   0.979  11.560
18621W        W86839  36.061   8.619   4.157
18622W        W86840   4.512  34.880   2.355
18623W        W86841  11.389  36.920   3.079
18624W        W86842   7.592  12.272   0.035
18625W        W86843   6.308  44.712  12.500
18626W        W86844   9.699  29.558  11.609
18627W        W86845  34.402  20.691   4.661
18628W        W86846  36.916   2.261  11.385
18629W        W86847  17.330  21.507  12.466
18630W        W86848   4.910  34.053   4.454
18631W        W86849  28.192   3.531   0.537
18632W        W86850  20.613  41.336  11.589
18633W        W86851  20.135  25.066  13.930
18634W        W86852  35.526  32.919   0.912
18635W        W86853   0.816  23.657   2.481
18636W        W86854  19.362  33.376   4.576
18637W        W86855  38.922  26.673  14.020
18638W        W86856  10.244  41.568   2.385
18639W        W86857  43.895  36.447  11.620
18640W        W86858  18.624  17.618   0.447
18641W        W86859   0.976   6.286   5.370
18642W        W86860  16.750  29.473  14.405
18643W        W86861  44.351  36.883   4.079
18644W        W86862  33.906   8.746   1.835
18645W        W86863  21.623  15.195  10.656
18646W        W86864   3.686  26.674   4.236
18647W        W86865  20.897  18.164   2.611
18648W        W86866  40.375  32.147   4.329
18649W        W86867   7.445  25.030   1.734
18650W        W86868  35.502  29.150   3.657
18651W        W86869  40.282  40.550  13.153
18652W        W86870  29.968   0.344  11.994
18653W        W86871  19.271  29.020  12.328
18654W        W86872  17.120  25.194   4.158
18655W        W86873  23.904   8.627  10.783
18656W        W86874  32.608  23.142  14.450
18657W        W86875  26.085   1.831   1.460
18658W        W86876  39.862  15.244  10.861
18659W        W86877  39.753  11.922  12.546
18660W        W86878  22.712  39.513   0.449
18661W        W86879  25.723  28.917   4.157
18662W        W86880  28.350  22.492   2.288
18663W        W86881  22.252  38.954   2.690
18664W        W86882  17.357  36.527   1.803
18665W        W86883  25.976   6.323  11.194
18666W        W86884  12.120  22.433  11.049
18667W        W86885  39.622  12.724  11.087
18668W        W86886  35.992  40.084  12.132
18669W        W86887   5.446  43.253   2.974
18670W        W86888   2.268  21.100  13.574
18671W        W86889   7.845  42.984   3.613
18672W        W86890  10.343  33.000   4.115
18673W        W86891  39.374   5.423  11.270
18674W        W86892  20.976  32.467   3.627
18675W        W86893  15.923  35.611   1.225
18676W        W86894   7.193  22.788   4.520
18677W        W86895   8.201  20.565   4.880
18678W        W86896   9.743  27.927  10.064
18679W        W86897  14.154  44.696  12.980
18680W        W86898  35.512  42.042   2.767
18681W        W86899  10.557   7.736   2.890
18682W        W86900  41.858  44.808   0.859
18683W        W86901  31.012  14.104  13.641
18684W        W86902  29.610   2.221   1.974
18685W        W86903  18.192  22.356   2.830
18686W        W86904   2.690   4.780   3.235
18687W        W86905  28.673  22.074  14.474
18688W        W86906  39.352  40.065   2.350
18689W        W86907  14.521  16.763   2.813
18690W        W86908  27.938  28.987   1.676
18691W        W86909   8.425  29.615   3.679
18692W        W86910  35.087   8.770  14.996
18693W        W86911   6.802  26.954  11.677
18694W        W86912   4.905  32.699  14.933
18695W        W86913  14.852   5.985  11.615
18696W        W86914   6.271  26.336   2.430
18697W        W86915  25.483  14.268   0.353
18698W        W86916  32.946  27.159   3.557
18699W        W86917  29.551  15.381  11.070
18700W        W86918   9.666  32.196  11.104
18701W        W86919  40.947  22.438   2.248
18702W        W86920  32.906  15.946  13.499
18703W        W86921  40.534  18.987   1.204
18704W        W86922   4.213  14.270  11.164
18705W        W86923  23.268  22.312   3.767
18706W        W86924   0.912  26.730  13.044
18707W        W86925   0.447  26.378   1.752
18708W        W86926   2.484   6.793   2.368
18709W        W86927  15.238  28.242   2.122
18710W        W86928   0.109  38.782   3.325
18711W        W86929  23.118  24.060  11.096
18712W        W86930  15.155  11.771  10.569
18713W        W86931   5.140  24.720  12.801
18714W        W86932   3.048  40.593  10.731
18715W        W86933   5.676  40.902   3.570
18716W        W86934   3.800  40.173  12.478
18717W        W86935  12.694   5.890   1.251
18718W        W86936  32.633  38.691  12.541
18719W        W86937  13.416  27.027   0.721
18720W        W86938  35.938  17.812  12.896
18721W        W86939  26.411  27.621  12.999
18722W        W86940  42.836  26.358  11.364
18723W        W86941   7.223  41.448   1.775
18724W        W86942  30.427   3.181   3.154
18725W        W86943  30.351  16.029  14.782
18726W        W86944  30.473  39.248   1.028
18727W        W86945   2.840  37.355  13.568
18728W        W86946   4.145   4.744  12.103
18729W        W86947  20.456  13.491   3.155
18730W        W86948   7.147  13.256   3.643
18731W        W86949  41.628   8.328   2.235
18732W        W86950  43.554  20.976  13.413
18733W        W86951  33.870  36.066   2.825
18734W        W86952  41.362  20.211  11.647
18735W        W86953  40.093  33.040  12.394
18736W        W86954  34.655  31.541   4.218
18737W        W86955  16.580  19.941   0.305
18738W        W86956  29.105  28.257   4.069
18739W        W86957   9.786  11.674  14.475
18740W        W86958  26.098  23.707   0.884
18741W        W86959  34.854  14.335  13.829
18742W        W86960  32.210   6.243  12.158
18743W        W86961  29.098   5.988  13.382
18744W        W86962  12.184  42.580   0.965
18745W        W86963  30.174  28.179  10.681
18746W        W86964  40.228  22.297   3.352
18747W        W86965  23.023   7.370   2.986
18748W        W86966  13.776  40.025  13.798
18749W        W86967  41.898  12.957  11.113
18750W        W86968  28.956  33.538  13.869
18751W        W86969  29.021  10.704  13.910
18752W        W86970  36.813   5.231   1.899
18753W        W86971  13.693  37.305   2.837
18754W        W86972  10.811  24.666   3.409
18755W        W86973  41.668  31.701  13.271
18756W        W86974  39.323  34.864   1.902
18757W        W86975   0.142   6.983   2.780
18758W        W86976  30.434   8.934   2.258
18759W        W86977  41.415  36.744  12.034
18760W        W86978  27.843  30.561  14.738
18761W        W86979  39.917  39.709   0.071
18762W        W86980   2.181  13.744   3.883
18763W        W86981  30.144   7.896   1.198
18764W        W86982  12.619  15.881  10.841
18765W        W86983  20.525  25.664   0.222
18766W        W86984  11.064  19.172   4.491
18767W        W86985   9.124   3.350  11.421
18768W        W86986  44.795   0.240   3.176
18769W        W86987  22.992  31.452  11.521
18770W        W86988  39.394  16.792   3.126
18771W        W86989  27.411  24.738   0.168
18772W        W86990  40.871   0.844   0.220
18773W        W86991  31.931  33.786   3.642
18774W        W86992  20.041  12.429  12.076
18775W        W86993   6.223  31.084  10.662
18776W        W86994  19.637  35.340   3.648
18777W        W86995   9.858  44.713   4.259
18778W        W86996  10.229  30.666  12.483
18779W        W86997  11.800  24.279   4.315
18780W        W86998  34.441  14.557   1.858
18781W        W86999  40.255   5.169  12.485
18782W        W87000  21.653  30.098   4.710
18783W        W87001   6.262  11.555  11.315
18784W        W87002   8.294  36.625   0.265
18785W        W87003   3.195  28.931  13.349
18786W        W87004  21.783  42.955   4.988
18787W        W87005  43.518  37.787   2.652
18788W        W87006   6.460  15.064   4.110
18789W        W87007  37.005   5.761  14.321
18790W        W87008  23.503  10.870   2.599
18791W        W87009   7.103  36.864   0.428
18792W        W87010  41.673  28.168   2.036
18793W        W87011   7.285   5.470  11.401
18794W        W87012  10.803  32.845   1.705
18795W        W87013  25.805  12.326   1.205
18796W        W87014  40.296  41.101  14.740
18797W        W87015   1.081  10.192   1.879
18798W        W87016  40.077  30.384  11.260
18799W        W87017   4.688  17.480   1.237
18800W        W87018  26.233  26.691   4.999
18801W        W87019  38.425  10.319   1.193
18802W        W87020   5.850  40.990  11.520
18803W        W87021  20.623   5.339  13.518
18804W        W87022  37.672  37.797  10.613
18805W        W87023   7.219  14.862   0.313
18806W        W87024  18.388   9.402  12.952
18807W        W87025  37.200  28.725   3.961
18808W        W87026  37.022  20.327   2.627
18809W        W87027  44.507  42.894  11.024
18810W        W87028  37.386  32.765  12.882
18811W        W87029  19.527  36.772   3.200
18812W        W87030   5.196  16.115  13.831
18813W        W87031  31.600  43.152  10.860
18814W        W87032   9.391  22.359   3.265
18815W        W87033  13.344  10.206  13.120
18816W        W87034  32.538  31.841   1.321
18817W        W87035  22.996  40.585   1.399
18818W        W87036  38.589  15.686   5.161
18819W        W87037  11.985   0.320   5.577
18820W        W87038   7.899  19.868  10.600
18821W        W87039   4.288  31.465  11.099
18822W        W87040  14.875  40.988  11.970
18823W        W87041  26.284  38.981  11.262
18824W        W87042  30.575  27.094   4.277
18825W        W87043  10.556  23.142   4.141
18826W        W87044  34.914  37.062  14.907
18827W        W87045  33.512  13.452   3.596
18828W        W87046   2.322  13.723  12.628
18829W        W87047   7.305  27.480   4.127
18830W        W87048  39.308  38.524   4.393
18831W        W87049  27.164  16.580  11.369
18832W        W87050  29.378   6.466  13.377
18833W        W87051  33.382  18.614   1.287
18834W        W87052  41.388  32.399  12.078
18835W        W87053  44.203  16.870  11.121
18836W        W87054   1.846   8.246  14.980
18837W        W87055  42.714  28.130  13.859
18838W        W87056  23.601  11.248  11.467
18839W        W87057  34.971   0.827   4.205
18840W        W87058  41.233  37.761  13.627
18841W        W87059   5.448   0.124   4.520
18842W        W87060   5.184  19.072  12.522
18843W        W87061  12.924  12.271   2.499
18844W        W87062  11.836  17.325  14.365
18845W        W87063  44.910  44.909   0.738
18846W        W87064  15.101  13.005   4.559
18847W        W87065   8.185  20.674   3.838
18848W        W87066  22.257  12.676   0.707
18849W        W87067  33.875  41.049   3.147
18850W        W87068  33.123  24.026  11.259
18851W        W87069  15.128   2.188  13.721
18852W        W87070  32.908  22.142  10.928
18853W        W87071  27.432  37.531   4.143
18854W        W87072  28.958   0.871   4.308
18855W        W87073   0.207  36.419   1.317
18856W        W87074  42.851  19.342  13.038
18857W        W87075  19.084  39.830  14.833
18858W        W87076   1.679  12.820  12.658
18859W        W87077  17.967  15.537   2.751
18860W        W87078   0.060  18.052  11.061
18861W        W87079  43.212  22.137   1.577
18862W        W87080  15.824  13.688   2.675
18863W        W87081   7.107   4.559   2.043
18864W        W87082  40.886  28.171   1.666
18865W        W87083  13.723  26.454  11.663
18866W        W87084   8.978  20.152   4.566
18867W        W87085  17.265   4.129  14.272
18868W        W87086  44.558  22.517   1.264
18869W        W87087  19.454  10.344  11.941
18870W        W87088  13.048  33.450   4.528
18871W        W87089   1.890   2.160   0.504
18872W        W87090  39.842   8.674   1.409
18873W        W87091  17.099  20.671  12.491
18874W        W87092   3.964  21.663  12.514
18875W        W87093  25.151  28.160  13.525
18876W        W87094  40.145  20.795  13.982
18877W        W87095  13.203  13.207  14.411
18878W        W87096  34.288  43.337   0.359
18879W        W87097  31.991   5.992   0.792
18880W        W87098  33.318  37.277  12.428
18881W        W87099  29.739  34.211  11.162
18882W        W87100   9.916   3.415  13.177
18883W        W87101  11.830  41.279   2.235
18884W        W87102  28.805  36.745  11.823
18885W        W87103   7.753  33.868  12.944
18886W        W87104  28.505  13.891   9.945
18887W        W87105  16.666  14.195  12.645
18888W        W87106  14.186  44.894  12.521
18889W        W87107  32.278   0.325  12.560
18890W        W87108  36.846  36.827   1.827
18891W        W87109  38.149  19.212   2.222
18892W        W87110  31.906  20.433  13.417
18893W        W87111   3.427   5.456  13.042
18894W        W87112  35.463  34.692  14.592
18895W        W87113  34.509  39.668  13.663
18896W        W87114  40.301  10.408  11.964
18897W        W87115  38.595  15.143  14.740
18898W        W87116   4.719  15.208   4.590
18899W        W87117  16.518  13.228   4.958
18900W        W87118  41.999  30.171  11.417
18901W        W87119  31.575  17.577   1.851
18902W        W87120  28.325  30.637  11.164
18903W        W87121  23.822   9.549   1.414
18904W        W87122  41.300  30.325   3.298
18905W        W87123  44.245  17.133   2.176
18906W        W87124  28.835  39.764   1.898
18907W        W87125   5.341  35.489  12.925
18908W        W87126   9.123  43.822   2.368
18909W        W87127   6.082  15.403   4.223
18910W        W87128  32.992  25.227  13.992
18911W        W87129   4.306  14.601   2.849
18912W        W87130   6.670  34.990  12.616
18913W        W87131   1.247  30.462  11.521
18914W        W87132  23.880  42.933  11.242
18915W        W87133  30.678  25.655   2.743
18916W        W87134   1.109  25.736  12.475
18917W        W87135  36.006  29.870   3.568
18918W        W87136  25.588  28.400  13.821
18919W        W87137   5.756  26.788   0.410
18920W        W87138  32.121   8.562  13.945
18921W        W87139  27.255   1.238   1.791
18922W        W87140  20.406  38.281  13.897
18923W        W87141   3.374   3.261   0.390
18924W        W87142  33.832  40.873   4.520
18925W        W87143  42.440   3.267  12.172
18926W        W87144  35.343  12.991  11.606
18927W        W87145  26.119  12.159   2.850
18928W        W87146  13.075  33.300  11.683
18929W        W87147  21.863  38.322   5.256
18930W        W87148  25.411  12.734  14.513
18931W        W87149  43.369  35.792  10.596
18932W        W87150  29.379  30.089  13.466
18933W        W87151   0.842   8.930  11.529
18934W        W87152  23.221   2.884  13.817
18935W        W87153  20.624  31.975   1.267
18936W        W87154  18.101  12.522   1.782
18937W        W87155   2.372   7.828   4.720
18938W        W87156   9.205  35.546  11.970
18939W        W87157   8.798  22.040   0.494
18940W        W87158   3.362  44.237   0.492
18941W        W87159  22.869  35.568   5.112
18942W        W87160  37.958  43.010  12.617
18943W        W87161   8.844  33.115  10.915
18944W        W87162  39.813  44.260   3.169
18945W        W87163  40.945  21.924   2.432
18946W        W87164  23.045  44.432  11.720
18947W        W87165   2.283  16.750  12.827
18948W        W87166   7.166  18.143  13.028
18949W        W87167  20.953  19.263   2.074
18950W        W87168  18.581  39.106   0.991
18951W        W87169   7.434  43.430  13.277
18952W        W87170  28.406  26.562  14.742
18953W        W87171  29.908  29.052  12.057
18954W        W87172  36.010   0.551   1.723
18955W        W87173  22.598  41.033   1.738
18956W        W87174  36.065  43.765   0.523
18957W        W87175   5.693  17.016  10.128
18958W        W87176  44.985  19.261   0.882
18959W        W87177  27.481  39.445  11.950
18960W        W87178  35.002  36.148   4.397
18961W        W87179   6.379  34.024   4.598
18962W        W87180  14.471  26.971   1.433
18963W        W87181  18.032  43.902  10.659
18964W        W87182  42.047  13.229  12.439
18965W        W87183  23.586  22.599  11.957
18966W        W87184  15.288  13.545  11.139
18967W        W87185  44.214  33.664   5.022
18968W        W87186  28.931   5.242  12.078
18969W        W87187   0.789  32.848   3.678
18970W        W87188  43.612  31.006   2.346
18971W        W87189  27.383  42.854   0.885
18972W        W87190  19.460  36.226   3.256
18973W        W87191  31.405  21.562   0.256
18974W        W87192  16.773   6.428   3.602
18975W        W87193  40.907  40.922  11.621
18976W        W87194   9.161  20.203  14.333
18977W        W87195  19.322  44.924   2.165
18978W        W87196  21.610  30.115  13.606
18979W        W87197  15.415   2.299   1.224
18980W        W87198  43.867  37.542   3.620
18981W        W87199   7.725  37.928   3.907
18982W        W87200   9.326  38.315   0.074
18983W        W87201  30.668  11.428   2.830
18984W        W87202   8.905  22.691   1.316
18985W        W87203  35.928  40.498  14.439
18986W        W87204  31.841  13.988  11.904
18987W        W87205  29.088  13.708   4.863
18988W        W87206  37.974  11.148   2.166
18989W        W87207  24.741  20.183  10.778
18990W        W87208  35.056  20.119  10.950
18991W        W87209  42.376  17.302  10.910
18992W        W87210  14.342  14.048  12.019
18993W        W87211  36.573  22.999  13.856
18994W        W87212  26.550  16.243  10.754
18995W        W87213  11.570  37.410  11.584
18996W        W87214  24.816   4.649   1.981
18997W        W87215  14.536  19.208   2.791
18998W        W87216  39.555   3.642  12.545
18999W        W87217  15.204  30.944  13.341
19000W        W87218  32.820  44.477  10.492
19001W        W87219  11.103   5.218  14.501
19002W        W87220  42.819  27.565  14.972
19003W        W87221   1.354  27.276  14.377
19004W        W87222  18.629   8.837  13.108
19005W        W87223  38.582  38.292  11.402
19006W        W87224   7.157  12.422   2.828
19007W        W87225  28.119  16.880  12.243
19008W        W87226  38.869  34.396  12.800
19009W        W87227  27.615   3.438   0.366
19010W        W87228  35.670   3.718  12.016
19011W        W87229  39.491  35.143   2.356
19012W        W87230  34.660  33.244  13.412
19013W        W87231  19.767  36.300   2.330
19014W        W87232   1.314   2.045  12.711
19015W        W87233   0.689   3.843  11.496
19016W        W87234  41.256  12.725   2.880
19017W        W87235   6.335   8.914  13.794
19018W        W87236  13.993  23.074  13.473
19019W        W87237  21.052  29.189   1.393
19020W        W87238  42.957  21.720   3.726
19021W        W87239  15.790   2.937  13.913
19022W        W87240  12.760  31.142  11.856
19023W        W87241  10.619  38.972  14.496
19024W        W87242  37.991   7.597   1.724
19025W        W87243   1.269  41.283   1.299
19026W        W87244   3.794  19.007  10.770
19027W        W87245  15.162   7.256   0.922
19028W        W87246  14.652  35.830  14.009
19029W        W87247  35.915  12.177   0.336
19030W        W87248  25.650  36.093  13.926
19031W        W87249  21.016  22.411  10.245
19032W        W87250  40.436  34.606   2.420
19033W        W87251   9.688  11.252  13.821
19034W        W87252  23.554  41.802   2.266
19035W        W87253  43.105  42.464  14.406
19036W        W87254  25.187  39.552  13.633
19037W        W87255  14.114   0.243  14.908
19038W        W87256  37.475  35.943  13.280
19039W        W87257  29.324  31.033  12.614
19040W        W87258  43.719  25.988  14.971
19041W        W87259  36.858  13.660   2.401
19042W        W87260  34.312   8.267   1.759
19043W        W87261   3.668  33.514   4.265
19044W        W87262   9.403   6.893   3.604
19045W        W87263  15.063   6.407  11.295
19046W        W87264  21.199  18.036   3.248
19047W        W87265  41.861  20.427  13.523
19048W        W87266  20.236   0.286  13.394
19049W        W87267  24.688  14.206  10.328
19050W        W87268  36.953   5.886   0.725
19051W        W87269   7.950  38.002  13.325
19052W        W87270   3.392  26.557   4.635
19053W        W87271  35.872  12.538   3.782
19054W        W87272  21.663  42.302  10.553
19055W        W87273  14.689  25.454   4.586
19056W        W87274  36.025  30.476  12.823
19057W        W87275   5.798  11.303  11.426
19058W        W87276   2.218  31.135   4.502
19059W        W87277  41.373   0.147   2.745
19060W        W87278  23.974  36.015  11.165
19061W        W87279  33.060  14.479  12.887
19062W        W87280   0.473  34.462  14.414
19063W        W87281   6.753  44.279  12.355
19064W        W87282   4.933   5.368   4.564
19065W        W87283  22.134  21.393   1.052
19066W        W87284   6.901  12.107  14.074
19067W        W87285  14.214  16.612  13.463
19068W        W87286  35.259  43.859  12.511
19069W        W87287  42.682  22.564   5.006
19070W        W87288   2.947  41.943  12.954
19071W        W87289  28.545  43.273  12.372
19072W        W87290   7.975  15.582   9.946
19073W        W87291   1.804  43.489   0.069
19074W        W87292  43.106  43.528  12.939
19075W        W87293  43.289  23.157   1.320
19076W        W87294  11.602  38.433   2.326
19077W        W87295  25.739  16.625   3.956
19078W        W87296  23.752  14.510  14.301
19079W        W87297  11.832  25.644   3.173
19080W        W87298  11.162  17.748   9.590
19081W        W87299   6.355   7.631  13.492
19082W        W87300  39.957  17.740   3.207
19083W        W87301   7.409  25.831   1.322
19084W        W87302  17.850   4.079  12.158
19085W        W87303  28.624  22.247  14.951
19086W        W87304  27.481  24.186  12.990
19087W        W87305  33.471  30.343  12.609
19088W        W87306  37.579   8.910  14.883
19089W        W87307  22.669  28.240  10.291
19090W        W87308  30.676  30.102   2.386
19091W        W87309  43.347  23.014   3.713
19092W        W87310  23.110  13.130  14.538
19093W        W87311   9.148   7.347   2.898
19094W        W87312  31.315  44.463   4.996
19095W        W87313  19.156  41.572  13.237
19096W        W87314  35.197  43.433  14.563
19097W        W87315  21.085  11.266  14.927
19098W        W87316  25.046   7.336  10.700
19099W        W87317  35.079  14.376   1.355
19100W        W87318  44.979  31.962   0.873
19101W        W87319  36.434  41.480   2.415
19102W        W87320  43.924  19.670  10.990
19103W        W87321   2.270   5.323  10.697
19104W        W87322   5.171  36.341   4.111
19105W        W87323  44.165  39.396   2.331
19106W        W87324  38.501  13.585  13.906
19107W        W87325  17.623   3.402   2.618
19108W        W87326  41.936  27.988  12.146
19109W        W87327  22.974  40.122   2.697
19110W        W87328   9.162  20.783   2.810
19111W        W87329  30.889  19.159   1.851
19112W        W87330   8.077  33.453  12.665
19113W        W87331  24.178  21.554   4.594
19114W        W87332  10.754  17.276   3.224
19115W        W87333  42.254  31.679  14.286
19116W        W87334  13.214   6.411   0.277
19117W        W87335   9.404  22.885   3.260
19118W        W87336  41.268   5.007  10.790
19119W        W87337  18.722   9.131  12.631
19120W        W87338  36.682  40.906   4.607
19121W        W87339  20.612   8.855   3.478
19122W        W87340   2.731  30.254   4.908
19123W        W87341  28.119  11.192   4.885
19124W        W87342  23.297   4.494  11.689
19125W        W87343  36.521  26.130   0.917
19126W        W87344  36.799  39.488  11.235
19127W        W87345  39.277  16.988  11.649
19128W        W87346  37.217  42.387  12.825
19129W        W87347  28.831  39.016  12.850
19130W        W87348  21.718   5.098   0.261
19131W        W87349  21.587  16.482   2.139
19132W        W87350  39.087  22.113   0.806
19133W        W87351  22.670   5.310  12.440
19134W        W87352  42.265   4.256   4.558
19135W        W87353  43.811   3.465   4.060
19136W        W87354  42.599  39.071  13.119
19137W        W87355  13.737  26.570   1.684
19138W        W87356  28.615  30.102  14.722
19139W        W87357  20.037  29.198  11.490
19140W        W87358  30.504  15.421   5.009
19141W        W87359   4.229  43.346   1.466
19142W        W87360  38.196  11.885   1.358
19143W        W87361   7.753  42.026   1.362
19144W        W87362  23.095  30.357   1.414
19145W        W87363   1.926  13.853  14.892
19146W        W87364   6.923  19.333   3.727
19147W        W87365  37.505  24.694   4.600
19148W        W87366  15.497  27.689  11.978
19149W        W87367   4.339  17.107   4.216
19150W        W87368  24.707  24.758   3.818
19151W        W87369  19.338  28.894  14.853
19152W        W87370  34.179   5.206  14.352
19153W        W87371  23.662  29.181   1.230
19154W        W87372  29.873  38.283   0.032
19155W        W87373  13.014  34.026   0.366
19156W        W87374  15.108  28.472   4.489
19157W        W87375   8.272  22.296  11.727
19158W        W87376  26.105   0.319   4.643
19159W        W87377  40.090   2.777   0.835
19160W        W87378  36.358  11.834  11.379
19161W        W87379  44.988  18.195   2.735
19162W        W87380  23.729  10.361  12.144
19163W        W87381  13.639   4.863  11.767
19164W        W87382  14.636  24.246  14.958
19165W        W87383  22.591  23.694  13.797
19166W        W87384  31.934   3.912  14.862
19167W        W87385  40.445  15.402  12.220
19168W        W87386  32.536  25.179   2.063
19169W        W87387  40.373  21.494   3.960
19170W        W87388  34.586  15.122   4.338
19171W        W87389  19.237  22.976  11.087
19172W        W87390   3.849  18.651  14.988
19173W        W87391  17.517   2.221  12.486
19174W        W87392   7.367  43.444  11.444
19175W        W87393  42.053   0.849  13.582
19176W        W87394  21.589  30.171   2.400
19177W        W87395   7.961  44.401   5.062
19178W        W87396  33.392  13.839  14.795
19179W        W87397  39.595  41.007  13.322
19180W        W87398  32.479  37.221  12.377
19181W        W87399  19.200   4.269  11.207
19182W        W87400  23.062   9.782   0.317
19183W        W87401  22.235  24.562   0.946
19184W        W87402  25.585  34.341   1.877
19185W        W87403   5.660  34.977  11.281
19186W        W87404  14.253   1.381  12.924
19187W        W87405  10.145  23.810  11.188
19188W        W87406  28.400   9.555  14.006
19189W        W87407  40.545  22.663   3.167
19190W        W87408  14.312  18.156   0.467
19191W        W87409  26.521   7.733  12.840
19192W        W87410  10.014  22.609   0.046
19193W        W87411   0.815  18.995   3.359
19194W        W87412  32.164  38.032   3.334
19195W        W87413  25.041   4.055  14.964
19196W        W87414  10.112  18.962  11.523
19197W        W87415  12.347  36.660   1.354
19198W        W87416  16.000  28.874  11.579
19199W        W87417  37.102  39.523   0.680
19200W        W87418  28.050  29.617   2.905
19201W        W87419   4.569  30.233  13.475
19202W        W87420  22.303  35.090  13.983
19203W        W87421   6.612  43.288  12.592
19204W        W87422  20.571  44.955   2.699
19205W        W87423  14.253  27.093  12.656
19206W        W87424  22.373  27.193   1.819
19207W        W87425  16.070   4.729   4.807
19208W        W87426  34.494  43.362  14.042
19209W        W87427  11.685   8.898   2.932
19210W        W87428  27.613  35.756   1.770
19211W        W87429  40.035  28.686   0.998
19212W        W87430  41.830  37.362   1.718
19213W        W87431  35.390  36.818  13.218
19214W        W87432   1.136  13.648  10.385
19215W        W87433  39.043  15.851  10.852
19216W        W87434   8.100   4.239  14.598
19217W        W87435   7.581  19.258  11.879
19218W        W87436   1.413   9.136   4.554
19219W        W87437  11.630  22.066   1.380
19220W        W87438   7.913  21.041   1.135
19221W        W87439  16.374  31.946  12.157
19222W        W87440  41.452  24.463  13.984
19223W        W87441  13.663  44.451   1.463
19224W        W87442   6.924  21.265   3.572
19225W        W87443   8.778  23.008   3.050
19226W        W87444  18.591  18.241   2.979
19227W        W87445  30.562  41.778   0.920
19228W        W87446  11.803  35.443   1.764
19229W        W87447  26.127   2.090  13.464
19230W        W87448  18.225  25.765  13.568
19231W        W87449  42.551   6.949   3.322
19232W        W87450  21.779  44.694   4.119
19233W        W87451   1.947  40.330  14.907
19234W        W87452   8.831  26.531  14.015
19235W        W87453  32.612  14.147  12.916
19236W        W87454   3.297   5.695   4.105
19237W        W87455  11.804  20.985  11.704
19238W        W87456   5.173  20.570  11.716
19239W        W87457   3.827  38.239  12.851
19240W        W87458  40.427  25.584   1.289
19241W        W87459  19.506  10.148   0.267
19242W        W87460   7.732  31.369  10.732
19243W        W87461   3.170  18.535   0.604
19244W        W87462  35.957  15.922  11.639
19245W        W87463  35.549  31.498   4.341
19246W        W87464  19.037  10.831   3.018
19247W        W87465  20.413   0.819  11.686
19248W        W87466  25.148   9.198   1.802
19249W        W87467  19.738  26.991   1.791
19250W        W87468  25.754  11.840   3.019
19251W        W87469  34.987  22.916   4.117
19252W        W87470  23.185  36.356  10.427
19253W        W87471   3.910  14.607  14.024
19254W        W87472  26.630  16.558  14.405
19255W        W87473  29.380  23.195   3.640
19256W        W87474   5.108  39.260   0.944
19257W        W87475  35.592  28.061  12.346
19258W        W87476  36.079  31.035   1.467
19259W        W87477  40.454  14.251   0.612
19260W        W87478  34.161  43.397   2.820
19261W        W87479   0.701  26.027  14.873
19262W        W87480  19.108  42.946   2.236
19263W        W87481  19.791   1.228  14.542
19264W        W87482  24.570  35.490   4.945
19265W        W87483  21.100  17.184   3.509
19266W        W87484  22.312  15.797  13.400
19267W        W87485  28.540  35.410   1.650
19268W        W87486  30.961   2.993   1.821
19269W        W87487  26.829  21.476   4.084
19270W        W87488  23.209  13.875  12.581
19271W        W87489  26.641  41.268   3.363
19272W        W87490   0.362  38.919  14.533
19273W        W87491  22.245  37.432   3.635
19274W        W87492  36.922   9.691   4.365
19275W        W87493  17.323   4.459   0.742
19276W        W87494  13.866   8.192   0.364
19277W        W87495  13.516  35.534   1.199
19278W        W87496  27.051  36.519  10.529
19279W        W87497  37.726  12.251   1.788
19280W        W87498  41.510   0.952   4.487
19281W        W87499  38.073   6.288   1.433
19282W        W87500  21.189  31.589   0.227
19283W        W87501  39.599  14.552   0.391
19284W        W87502  22.509  44.460  10.357
19285W        W87503  25.737  26.475   2.752
19286W        W87504   8.452  36.552  11.604
19287W        W87505  41.399  28.950  14.256
19288W        W87506  28.616  11.803  13.526
19289W        W87507  39.422   8.196  13.041
19290W        W87508   6.190  32.192  11.154
19291W        W87509  20.469  11.750   3.215
19292W        W87510  43.228  44.500  13.867
19293W        W87511   8.931  15.308  13.103
19294W        W87512  31.515  14.700   5.026
19295W        W87513  26.073   3.778   0.063
19296W        W87514  35.906  19.991   1.359
19297W        W87515  19.150  42.766  11.641
19298W        W87516  24.562  26.470  13.836
19299W        W87517  30.153  12.906  13.961
19300W        W87518  10.756  22.199   1.652
19301W        W87519  15.185  19.294   1.006
19302W        W87520   2.418   8.720  14.644
19303W        W87521   3.341   5.914   1.766
19304W        W87522  14.978   9.192   4.475
19305W        W87523  19.859  15.213  12.378
19306W        W87524  25.222   0.848   0.667
19307W        W87525  32.955  31.039   1.308
19308W        W87526  16.149  22.631   2.300
19309W        W87527  25.016  37.915  11.092
19310W        W87528  17.830  15.708   0.667
19311W        W87529   1.733   9.737  13.105
19312W        W87530   4.735  38.112  14.298
19313W        W87531  15.301  17.629   4.127
19314W        W87532  23.628  13.818  13.529
19315W        W87533  35.576  35.000  10.649
19316W        W87534  26.641  27.241   1.073
19317W        W87535  23.077   5.957   0.218
19318W        W87536  31.643  29.633  12.516
19319W        W87537  32.628   6.906  12.831
19320W        W87538  22.058  21.723  12.543
19321W        W87539  27.078  17.311   4.139
19322W        W87540   5.210  40.048  13.304
19323W        W87541  41.202   1.664  10.304
19324W        W87542  11.438  22.248   3.427
19325W        W87543  42.494  19.532  14.360
19326W        W87544  15.255  34.113   4.277
19327W        W87545  41.771  26.521   2.445
19328W        W87546  23.570  27.529   1.166
19329W        W87547  33.143  38.654   0.713
19330W        W87548  30.035  12.520  13.120
19331W        W87549  16.875  33.891   3.837
19332W        W87550  41.103  10.674   3.544
19333W        W87551  18.064   3.866  14.390
19334W        W87552  30.414   5.303   0.508
19335W        W87553   3.634   9.420   4.184
19336W        W87554  10.152  43.729  12.581
19337W        W87555  35.698  42.435  11.457
19338W        W87556   6.691  27.365   4.756
19339W        W87557  26.194  32.668  12.646
19340W        W87558  29.816  23.460   4.209
19341W        W87559  13.488  26.270  11.200
19342W        W87560  23.585  42.965  11.673
19343W        W87561   2.532  10.190   4.676
19344W        W87562  17.622  35.575  13.357
19345W        W87563  37.974  33.354   1.325
19346W        W87564  33.362   4.327   0.945
19347W        W87565  29.500   7.379   2.761
19348W        W87566  16.833  42.890  12.131
19349W        W87567   4.020   4.231   3.104
19350W        W87568  12.623  42.337   2.377
19351W        W87569   0.482  29.577   1.829
19352W        W87570  29.055  41.868  11.811
19353W        W87571   2.023  43.301   4.585
19354W        W87572   6.886  30.965  11.138
19355W        W87573  28.336  30.440  13.055
19356W        W87574   5.366  40.806  11.524
19357W        W87575  40.278  23.615  11.288
19358W        W87576  25.470  22.465  14.421
19359W        W87577  41.744   0.268   3.092
19360W        W87578  41.008  13.878   3.606
19361W        W87579  17.598  33.073   0.823
19362W        W87580  33.394   3.292   4.964
19363W        W87581  26.806  43.420  13.849
19364W        W87582  11.678   9.351   2.668
19365W        W87583   9.625  32.692   4.057
19366W        W87584  42.534   8.940   1.170
19367W        W87585  42.958  35.574   3.416
19368W        W87586   1.741  21.283  12.445
19369W        W87587  27.536  14.769  12.975
19370W        W87588  17.846  34.498  13.493
19371W        W87589   4.429  39.502  11.777
19372W        W87590   4.122  44.826  13.967
19373W        W87591  26.013  25.526  14.824
19374W        W87592  16.675  34.317   3.007
19375W        W87593  24.422  19.667  13.817
19376W        W87594  26.701   7.340   0.173
19377W        W87595  11.673  31.767  10.977
19378W        W87596  31.661  30.144  11.592
19379W        W87597  29.917  29.405  13.856
19380W        W87598  23.001  29.472  11.528
19381W        W87599  44.966   8.326   0.496
19382W        W87600  22.181   1.364   2.396
19383W        W87601  39.779  14.754  13.487
19384W        W87602  44.321  44.829  13.695
19385W        W87603   1.858   0.919   3.092
19386W        W87604  18.136   6.681   0.036
19387W        W87605   6.759  40.425  10.705
19388W        W87606  32.399  38.291   2.354
19389W        W87607   2.908  13.857   3.208
19390W        W87608  15.162  29.039   1.863
19391W        W87609  34.786  43.510   3.736
19392W        W87610  26.557   1.954  14.236
19393W        W87611   6.500  43.560  14.548
19394W        W87612  41.816  38.999   4.921
19395W        W87613   3.874  28.286  11.616
19396W        W87614  25.737   0.851   0.628
19397W        W87615  20.656  23.592   1.281
19398W        W87616  35.459  41.292  13.844
19399W        W87617   2.865  23.010   2.333
19400W        W87618  25.525  21.517  14.540
19401W        W87619  15.398  31.958  10.754
19402W        W87620  38.934   0.005  10.531
19403W        W87621   6.907  40.414   3.288
19404W        W87622  14.269  30.581  12.420
19405W        W87623   7.485  12.312   4.523
19406W        W87624  10.210  23.536   1.879
19407W        W87625  34.687   5.842  12.403
19408W        W87626  14.777   9.710  10.883
19409W        W87627   2.192   1.341   2.454
19410W        W87628   6.329  24.465  11.509
19411W        W87629  41.735  41.321   3.247
19412W        W87630  11.123  37.413   0.233
19413W        W87631   7.668  40.633  14.830
19414W        W87632  12.192  15.287   1.461
19415W        W87633   9.493  27.116  13.128
19416W        W87634  39.157   5.528  10.483
19417W        W87635   1.884   8.304   0.507
19418W        W87636  27.634  25.263  14.368
19419W        W87637  22.790  15.231   3.438
19420W        W87638   6.041  40.887   0.044
19421W        W87639  21.519  10.719  14.811
19422W        W87640  31.910  11.679  10.804
19423W        W87641  37.895   1.738  14.817
19424W        W87642  42.795  10.653  11.144
19425W        W87643   3.954  34.936  12.321
19426W        W87644  17.284  44.755   0.385
19427W        W87645  29.366  36.991  14.920
19428W        W87646  10.874  24.517   0.824
19429W        W87647   4.923  44.421  12.078
19430W        W87648   5.016  12.669   0.432
19431W        W87649   2.319  14.163   3.622
19432W        W87650  39.576   7.776  10.795
19433W        W87651  14.879  36.519  12.939
19434W        W87652  33.982  20.564   2.551
19435W        W87653  41.404  30.998  14.303
19436W        W87654  37.125  23.725  13.935
19437W        W87655  36.584  43.892   0.709
19438W        W87656   2.507  20.844  12.109
19439W        W87657   0.080  20.101   0.346
19440W        W87658   9.947   3.205  11.684
19441W        W87659   4.163  24.129   3.401
19442W        W87660  20.150  33.100   1.585
19443W        W87661  30.846  11.921  12.571
19444W        W87662  18.299  16.567   0.852
19445W        W87663  22.250   7.708  11.958
19446W        W87664  19.515  40.493   0.242
19447W        W87665  42.816   9.440  10.803
19448W        W87666  12.997  30.092   2.606
19449W        W87667  20.631  27.722   3.548
19450W        W87668  32.790  10.999   1.645
19451W        W87669  36.551  10.588  11.487
19452W        W87670  11.654  25.699  12.654
19453W        W87671  33.094  21.116   1.201
19454W        W87672   9.432  20.114   0.266
19455W        W87673   1.059  25.043   1.855
19456W        W87674  13.891  22.608   2.639
19457W        W87675  15.114  44.253   0.455
19458W        W87676  15.223  38.806  12.457
19459W        W87677  40.627  20.736  14.760
19460W        W87678  22.575  24.973  11.250
19461W        W87679  28.727  35.917   3.088
19462W        W87680  40.480   9.260   0.444
19463W        W87681  17.192  23.701  11.974
19464W        W87682  11.257  30.964  14.758
19465W        W87683  33.077  26.202   3.737
19466W        W87684  25.413  37.542   3.644
19467W        W87685   6.141  25.262   5.400
19468W        W87686  32.258  27.983   0.418
19469W        W87687  22.977  43.012  14.393
19470W        W87688  12.152  29.198   0.929
19471W        W87689   4.330  38.063  12.885
19472W        W87690   9.358  43.794   4.581
19473W        W87691  30.182  12.291   1.739
19474W        W87692  12.759   8.432   2.780
19475W        W87693  23.942  42.358  13.312
19476W        W87694   7.739  13.572   1.387
19477W        W87695   7.718  43.216  10.722
19478W        W87696  18.806  25.442  12.132
19479W        W87697  29.472  40.988   0.862
19480W        W87698   9.911  17.613  12.093
19481W        W87699  13.890   5.260   0.309
19482W        W87700  14.568  17.619  12.546
19483W        W87701  37.848  15.894   4.178
19484W        W87702  19.130   1.906  11.341
19485W        W87703   6.129  43.297   1.816
19486W        W87704  43.832   4.359   2.672
19487W        W87705  33.942  34.033   4.116
19488W        W87706   6.681   3.533   1.726
19489W        W87707  23.790  44.285   4.449
19490W        W87708  34.984   9.933  13.787
19491W        W87709  23.215   2.210   3.668
19492W        W87710  42.625  29.610   2.477
19493W        W87711  26.902  18.295  10.358
19494W        W87712  22.346  43.596   1.682
19495W        W87713  22.201  23.242   1.862
19496W        W87714   1.973  41.708   0.185
19497W        W87715  36.264  14.798  12.313
19498W        W87716  18.701   4.311   3.297
19499W        W87717  36.477  29.591  13.842
19500W        W87718  41.788  35.562  13.550
19501W        W87719  12.045   3.915   2.640
19502W        W87720  22.584  39.374   0.936
19503W        W87721  37.789  24.439   1.427
19504W        W87722  36.523  28.691  13.599
19505W        W87723   7.412  16.773   1.669
19506W        W87724  20.953  32.560  11.154
19507W        W87725   5.993   7.855  14.475
19508W        W87726  27.972   0.944  10.842
19509W        W87727  41.558  18.285   2.850
19510W        W87728   0.037  44.715  10.945
19511W        W87729  22.984   3.755   2.302
19512W        W87730  28.656  44.382  13.244
19513W        W87731  34.127  37.775  11.982
19514W        W87732  41.030  29.010  13.426
19515W        W87733  10.196  37.028  14.230
19516W        W87734  17.555  37.944   1.236
19517W        W87735  41.714  16.836   0.481
19518W        W87736  26.148   2.824  12.545
19519W        W87737  41.096  10.366   4.225
19520W        W87738  23.968  40.555   0.762
19521W        W87739  14.016  41.378  11.959
19522W        W87740  29.180   3.869  10.214
19523W        W87741  11.092  32.447   1.515
19524W        W87742  14.993  11.927  12.794
19525W        W87743  28.062  22.672   4.476
19526W        W87744   1.910  26.281   3.806
19527W        W87745  13.303   6.613  11.140
19528W        W87746  12.109  42.052  14.524
19529W        W87747  41.891  18.491  11.526
19530W        W87748  23.227   0.380   0.339
19531W        W87749   1.323  17.265   2.292
19532W        W87750  42.099  21.938  13.004
19533W        W87751  13.918  18.250   3.278
19534W        W87752  20.811  33.519   4.702
19535W        W87753   8.881   9.841  10.306
19536W        W87754  29.494  11.715   4.538
19537W        W87755   9.654  41.925  10.990
19538W        W87756  16.324  13.183   4.060
19539W        W87757  16.282  18.299  11.132
19540W        W87758   2.008  39.532  13.877
19541W        W87759   7.505  12.634   2.485
19542W        W87760  10.263   9.634  11.678
19543W        W87761  20.085  25.510   4.314
19544W        W87762  27.049   4.821   0.734
19545W        W87763  11.717  43.007   4.604
19546W        W87764  31.472  16.793  11.541
19547W        W87765  33.169  40.968  13.520
19548W        W87766  35.257  23.613  13.803
19549W        W87767  38.746  29.858   0.383
19550W        W87768  14.038  21.969  11.417
19551W        W87769  15.989  26.150  11.658
19552W        W87770  10.605  27.109  12.522
19553W        W87771  42.917   8.243   4.514
19554W        W87772  36.769  17.625   1.782
19555W        W87773  12.078  29.946  12.980
19556W        W87774  43.815  28.544   4.447
19557W        W87775  39.545  25.658  13.079
19558W        W87776  18.783  40.859  12.498
19559W        W87777   8.485  14.870   4.111
19560W        W87778  44.416  42.011   0.532
19561W        W87779  28.877  20.951   1.235
19562W        W87780   9.872  36.293   0.829
19563W        W87781  22.998  40.417  10.739
19564W        W87782  10.870  23.580   2.665
19565W        W87783  11.148   3.909   0.318
19566W        W87784   4.644  32.196  10.038
19567W        W87785  21.569  19.608  12.566
19568W        W87786  29.411  22.703  11.849
19569W        W87787  17.450   0.306  14.398
19570W        W87788   0.051  39.183  10.334
19571W        W87789  42.932  16.769   1.107
19572W        W87790  41.029   9.150  13.961
19573W        W87791  21.837  30.502   1.836
19574W        W87792   0.583  37.923  11.618
19575W        W87793  40.681   2.937   9.990
19576W        W87794  39.179  11.253  10.025
19577W        W87795  32.157  13.996   5.034
19578W        W87796  19.230  38.710  12.027
19579W        W87797  31.075   1.490   1.885
19580W        W87798  22.482  40.145  13.928
19581W        W87799  26.566   5.442   0.807
19582W        W87800  41.101  32.338  12.882
19583W        W87801  23.100  38.858  11.126
19584W        W87802  11.845  24.087   4.801
19585W        W87803  15.675  27.702   5.076
19586W        W87804  15.802  15.214  11.662
19587W        W87805   4.364  24.524   0.804
19588W        W87806  27.490   7.555  14.538
19589W        W87807  28.657  20.748   3.619
19590W        W87808  12.797  40.848  12.124
19591W        W87809  40.871   9.117   0.751
19592W        W87810  42.814  21.311  14.276
19593W        W87811  27.013   1.164   2.397
19594W        W87812  31.901  16.247  13.964
19595W        W87813  30.027  44.400  12.698
19596W        W87814  13.906  34.006   3.706
19597W        W87815  32.545  18.181  12.649
19598W        W87816  33.653  33.474  14.806
19599W        W87817  16.181  44.303  13.644
19600W        W87818  30.655   1.280   0.379
19601W        W87819  16.009  16.526   3.716
19602W        W87820  22.327   7.055   4.137
19603W        W87821  22.158  11.628  13.868
19604W        W87822  21.149  11.402  11.979
19605W        W87823   4.344  43.921   4.080
19606W        W87824  39.267  22.658   4.203
19607W        W87825   9.896   6.899  13.794
19608W        W87826  31.313  16.688   5.071
19609W        W87827  44.071  24.057  13.294
19610W        W87828  11.332  37.459   0.715
19611W        W87829  13.002  44.063   1.503
19612W        W87830  34.912  17.636   2.835
19613W        W87831  38.789  19.005   1.722
19614W        W87832   2.892  11.739  11.877
19615W        W87833  32.918  42.825  14.507
19616W        W87834  44.389   0.654   3.619
19617W        W87835  31.888  37.169   0.826
19618W        W87836  37.103  15.560  11.945
19619W        W87837  43.362  36.443  12.423
19620W        W87838  17.244  27.888  12.026
19621W        W87839   5.181  38.814   2.634
19622W        W87840   8.637  40.501  14.387
19623W        W87841   3.320  26.056  12.501
19624W        W87842  13.056  26.971  10.610
19625W        W87843  28.545  12.996  11.473
19626W        W87844   0.976   8.678  11.076
19627W        W87845  43.970  22.644  13.884
19628W        W87846   2.439  39.759   2.741
19629W        W87847   4.729   3.756   4.677
19630W        W87848  18.603  22.836   4.049
19631W        W87849   0.447  40.293  13.553
19632W        W87850  29.136  12.119   0.378
19633W        W87851  35.436  32.378  12.277
19634W        W87852  43.753  17.315   0.446
19635W        W87853   7.644   2.777   4.437
19636W        W87854  31.199   1.425   2.683
19637W        W87855  11.655  35.683  11.071
19638W        W87856  41.119  16.236   4.304
19639W        W87857  19.294  22.540   1.354
19640W        W87858  14.135  36.420  14.652
19641W        W87859  20.164   2.974  12.438
19642W        W87860  37.821  30.013   0.601
19643W        W87861  21.487  17.284   1.163
19644W        W87862  21.408  30.550   0.747
19645W        W87863  21.482  12.722  11.115
19646W        W87864  15.254  16.298  12.810
19647W        W87865  32.940  27.507  13.431
19648W        W87866  26.674  17.735   2.713
19649W        W87867  22.713  11.850   0.765
19650W        W87868   8.808   7.595   1.653
19651W        W87869   0.547  11.026  13.954
19652W        W87870   8.578  18.687   3.259
19653W        W87871   3.140  26.603   0.298
19654W        W87872  27.344  39.411   2.337
19655W        W87873  22.741  39.371   4.807
19656W        W87874   9.053  22.045   2.284
19657W        W87875  27.099  11.229   3.218
19658W        W87876  10.744  42.787   4.422
19659W        W87877  33.952   1.385   3.721
19660W        W87878  43.744  13.572  14.920
19661W        W87879   3.332  34.681  12.588
19662W        W87880   1.436  35.132  11.738
19663W        W87881  35.910  29.737  13.952
19664W        W87882  14.062  30.019   3.696
19665W        W87883  23.535  27.401   0.671
19666W        W87884  41.604  13.872   2.843
19667W        W87885  42.449  33.055   0.336
19668W        W87886  16.657   3.224   3.666
19669W        W87887  12.816  11.135  13.810
19670W        W87888  35.323  28.873  14.646
19671W        W87889  20.095   6.468  13.098
19672W        W87890   2.035  11.173   0.799
19673W        W87891  29.016  28.092   2.682
19674W        W87892  25.999  17.858   4.802
19675W        W87893  33.691  33.272  13.327
19676W        W87894  24.676  43.753  10.620
19677W        W87895   8.444  39.987   2.352
19678W        W87896  40.627  33.891  12.277
19679W        W87897   1.203   1.193   1.321
19680W        W87898   5.013  36.489  14.006
19681W        W87899  27.169  40.472   3.315
19682W        W87900  14.358  22.676   4.550
19683W        W87901  15.785  11.379   4.647
19684W        W87902   3.333  44.589  12.037
19685W        W87903   9.419   0.796  13.450
19686W        W87904  20.659  36.469  12.542
19687W        W87905  14.269  25.489   0.889
19688W        W87906  34.725  27.129   4.141
19689W        W87907  35.199  21.049  11.633
19690W        W87908  42.968   9.790   2.190
19691W        W87909   5.696   4.349  12.166
19692W        W87910  20.985  28.021   1.241
19693W        W87911  21.415  15.612   3.196
19694W        W87912  34.032   5.360   1.555
19695W        W87913  32.564  36.079  10.687
19696W        W87914  31.772  12.731  10.731
19697W        W87915  40.778  12.534  13.519
19698W        W87916  10.452  29.572  10.448
19699W        W87917  17.739  30.058  11.036
19700W        W87918  20.714  37.860   4.573
19701W        W87919  25.653  10.820   2.291
19702W        W87920   1.243  19.762  14.385
19703W        W87921  29.943   7.044  12.410
19704W        W87922  13.694  26.219   4.131
19705W        W87923  43.747  40.060   1.354
19706W        W87924  34.590  16.713   0.268
19707W        W87925  19.259  12.235   3.526
19708W        W87926  25.389  41.908   3.698
19709W        W87927  38.491  16.531   2.790
19710W        W87928   2.622  16.867   0.459
19711W        W87929   7.597  13.369  13.044
19712W        W87930  13.644   3.847   0.297
19713W        W87931   3.202   4.170  14.500
19714W        W87932  24.905  29.118  11.965
19715W        W87933  30.619  24.449   1.904
19716W        W87934  16.333  42.024   4.222
19717W        W87935  43.839  33.396  14.048
19718W        W87936  41.845  14.200  13.909
19719W        W87937  29.992  43.760   3.630
19720W        W87938  25.795  44.351   4.651
19721W        W87939  28.378   7.727  14.100
19722W        W87940  18.646   7.147  12.970
19723W        W87941  33.202  16.095  14.463
19724W        W87942  20.757  33.141   3.165
19725W        W87943   5.831  40.541  14.730
19726W        W87944  26.616  22.499  11.564
19727W        W87945  42.725  21.209   1.220
19728W        W87946  26.681   5.095  14.993
19729W        W87947   6.887  33.153  12.137
19730W        W87948  24.596   7.124  14.686
19731W        W87949  23.656  44.987  14.939
19732W        W87950  12.250  17.095   3.647
19733W        W87951  38.425  19.309   0.765
19734W        W87952  16.901  21.290   4.156
19735W        W87953   6.798  38.418  14.722
19736W        W87954  24.970  11.420   2.476
19737W        W87955  35.742   9.865  11.495
19738W        W87956  29.661  11.259  12.940
19739W        W87957  29.246  16.253   0.844
19740W        W87958   1.838  40.466   4.089
19741W        W87959   3.749  22.733   3.021
19742W        W87960  23.253  26.622   0.775
19743W        W87961  43.340  31.442  11.660
19744W        W87962  29.058   9.334   3.606
19745W        W87963  23.902  34.023  11.022
19746W        W87964  31.852  29.152   5.179
19747W        W87965  19.678  14.331   1.674
19748W        W87966   7.723  20.831   3.050
19749W        W87967  40.624  38.249   1.784
19750W        W87968  23.678  36.849  14.878
19751W        W87969  41.366  28.473  14.457
19752W        W87970  42.885  39.207   4.579
19753W        W87971  12.006  36.806   0.313
19754W        W87972  12.147  16.347   4.916
19755W        W87973  22.595   1.524  10.690
19756W        W87974  34.105  37.380  13.310
19757W        W87975  27.142   8.350  12.070
19758W        W87976  35.183  42.957  11.988
19759W        W87977   3.357   5.322  14.081
19760W        W87978  40.787  11.814  12.481
19761W        W87979  38.969  18.552   0.888
19762W        W87980  43.008   6.943   2.725
19763W        W87981   0.038  28.655   4.081
19764W        W87982  24.119  23.209   4.913
19765W        W87983  20.693  33.024  14.000
19766W        W87984  11.061  42.047  14.428
19767W        W87985  38.785  44.653  10.184
19768W        W87986  37.011  29.501   2.079
19769W        W87987  25.598  15.167   5.020
19770W        W87988  39.480  34.082   4.296
19771W        W87989  44.049  13.510  12.867
19772W        W87990  40.273  17.438  14.631
19773W        W87991  27.949  29.970   1.966
19774W        W87992  43.113   1.301  11.381
19775W        W87993  25.133  33.797   2.324
19776W        W87994  26.608  24.807  12.880
19777W        W87995   7.265  41.540  11.768
19778W        W87996   1.956  18.273   4.581
19779W        W87997  17.141   4.197   3.942
19780W        W87998  39.183  26.973  13.351
19781W        W87999   4.295  34.568  10.309
19782W        W88000  16.780  44.273   4.556
19783W        W88001  19.558  11.379   0.361
19784W        W88002  30.065  19.062   1.110
19785W        W88003  31.980   2.137   0.940
19786W        W88004  29.995  44.986   1.349
19787W        W88005  29.650  33.073   2.778
19788W        W88006  19.467   0.271  12.428
19789W        W88007  43.048   5.821  14.423
19790W        W88008  23.505  15.969  11.206
19791W        W88009  19.595   3.292  14.567
19792W        W88010  19.122  30.758  12.092
19793W        W88011   4.941  23.052  12.251
19794W        W88012  26.821  14.832   2.256
19795W        W88013  43.224  17.529   2.609
19796W        W88014  40.362  25.614  13.460
19797W        W88015  23.467  19.144   4.522
19798W        W88016  41.117  33.274   2.633
19799W        W88017  32.976  38.665   1.211
19800W        W88018  44.091  34.269   2.860
19801W        W88019   4.341  12.903   2.419
19802W        W88020  30.580  15.078   2.730
19803W        W88021   9.039  34.013   0.621
19804W        W88022   8.774   1.495   1.270
19805W        W88023  14.972  36.373  11.024
19806W        W88024  14.574  34.630   0.909
19807W        W88025  11.397  44.265   4.639
19808W        W88026   3.332   6.473   0.736
19809W        W88027   3.906  40.310  13.070
19810W        W88028   3.339  29.181   3.079
19811W        W88029   5.059  19.893   2.819
19812W        W88030   2.406  16.119   0.726
19813W        W88031  35.519  24.238  12.467
19814W        W88032  33.625  14.616   1.365
19815W        W88033   0.428  11.370   2.391
19816W        W88034  13.197  40.831   3.549
19817W        W88035  29.853   0.474   2.740
19818W        W88036  26.905   3.480  11.332
19819W        W88037  11.753  33.402  13.548
19820W        W88038  21.636  41.283   0.936
19821W        W88039  18.457  40.950  13.685
19822W        W88040   6.887  38.527  10.391
19823W        W88041  19.273  15.625   2.960
19824W        W88042  31.678  10.257  12.950
19825W        W88043  15.280  40.978   3.917
19826W        W88044  19.752   0.220   0.474
19827W        W88045  37.796  24.664   1.910
19828W        W88046  32.700   0.300  14.715
19829W        W88047  43.798  33.620   4.692
19830W        W88048  15.299  33.750  11.219
19831W        W88049  10.492  11.769  12.122
19832W        W88050   1.973  43.095  12.970
19833W        W88051   8.656   7.135   1.838
19834W        W88052   0.517  22.084  12.629
19835W        W88053   0.015   3.240   0.532
19836W        W88054  25.543  19.272   0.481
19837W        W88055  37.418  14.898   0.225
19838W        W88056  10.627  37.931   1.729
19839W        W88057  29.899  44.282  13.590
19840W        W88058  29.063  14.199   4.607
19841W        W88059   0.007  41.446   1.043
19842W        W88060   5.292  19.537  10.765
19843W        W88061  25.553  17.806  14.021
19844W        W88062  36.755   1.793   4.544
19845W        W88063  14.167  39.127  13.364
19846W        W88064  10.100  19.248   2.874
19847W        W88065  37.856  44.616  13.272
19848W        W88066  13.704  42.657  12.968
19849W        W88067  33.432  37.922   3.881
19850W        W88068  34.134  44.097   9.963
19851W        W88069   2.038  23.725   5.068
19852W        W88070  25.158  44.064   1.162
19853W        W88071  44.794   1.966   1.977
19854W        W88072  14.371  44.901   0.248
19855W        W88073  26.772  27.602  13.374
19856W        W88074   4.341  14.161   4.677
19857W        W88075   0.439   4.463  12.089
19858W        W88076  31.432  36.211   0.978
19859W        W88077   5.425  31.061  14.672
19860W        W88078  41.474  35.559   4.513
19861W        W88079  23.112  10.288   3.176
19862W        W88080  40.300  14.164  13.893
19863W        W88081  31.465  34.968  13.146
19864W        W88082   9.786   2.140   2.225
19865W        W88083  43.524   3.659   2.765
19866W        W88084   7.720  14.351   2.660
19867W        W88085  20.537  40.458  12.388
19868W        W88086   9.120  10.602  13.336
19869W        W88087   1.519   6.478   2.212
19870W        W88088  40.957  38.522  13.402
19871W        W88089  33.754  15.269  10.767
19872W        W88090   5.970  44.024   1.284
19873W        W88091  40.459  44.266  14.922
19874W        W88092  21.397  43.753  10.753
19875W        W88093  20.777  43.170  12.861
19876W        W88094  27.537   4.726   0.918
19877W        W88095   3.309  25.233   4.279
19878W        W88096   1.036  17.222  14.956
19879W        W88097  12.578  40.717   4.001
19880W        W88098  15.063  24.664   0.418
19881W        W88099  10.331  11.148   5.047
19882W        W88100  39.448  34.111  13.482
19883W        W88101  30.835  13.408  12.412
19884W        W88102  28.189  11.855  13.844
19885W        W88103  22.658  31.935  12.828
19886W        W88104  38.360  22.170  13.389
19887W        W88105  29.005  38.504   4.168
19888W        W88106  44.435  33.537   4.577
19889W        W88107  20.733  10.643  12.309
19890W        W88108  43.043  20.653   0.463
19891W        W88109  24.663   1.920  11.612
19892W        W88110  17.256  23.189  11.984
19893W        W88111   5.816   6.327   2.065
19894W        W88112  36.105  39.249   3.229
19895W        W88113  40.832  22.294  11.169
19896W        W88114  10.842   5.202   1.353
19897W        W88115  20.241  23.956   4.197
19898W        W88116  22.169  18.093  13.961
19899W        W88117  32.084   8.777   0.032
19900W        W88118  43.791  31.062  11.986
19901W        W88119  22.493  37.580   1.561
19902W        W88120   7.399   9.275   3.557
19903W        W88121   7.772   2.988   2.150
19904W        W88122  10.245   8.859   0.939
19905W        W88123  24.619  21.555   0.741
19906W        W88124  16.996  26.583  11.022
19907W        W88125   9.879  39.870  12.340
19908W        W88126  12.129  31.008   4.185
19909W        W88127   4.189  40.530   0.278
19910W        W88128  19.523  34.017  12.481
19911W        W88129  33.094  19.215  14.009
19912W        W88130  40.838   6.228  11.922
19913W        W88131   0.304  26.126   3.424
19914W        W88132  38.347  33.120   4.144
19915W        W88133  16.621  30.919   0.849
19916W        W88134  20.807   1.528  14.984
19917W        W88135   6.894  19.973  13.782
19918W        W88136   3.802  16.179   4.233
19919W        W88137   2.980   1.708  12.402
19920W        W88138  13.633  34.244   4.500
19921W        W88139  32.723   8.079  12.487
19922W        W88140   4.786  31.527   1.643
19923W        W88141  32.512  32.991   4.574
19924W        W88142  31.111  27.009  14.017
19925W        W88143  19.385   9.955  11.604
19926W        W88144  33.920  25.442  13.078
19927W        W88145  28.028  23.057  11.263
19928W        W88146  28.782  29.806  14.326
19929W        W88147  21.239  16.761  10.576
19930W        W88148   9.716  32.062  13.670
19931W        W88149  20.483  24.326   1.847
19932W        W88150  35.604   8.726  14.859
19933W        W88151   7.429  23.579   0.903
19934W        W88152  18.069   6.814  14.541
19935W        W88153  31.180   5.867  13.391
19936W        W88154   9.108  13.645   3.632
19937W        W88155  19.100  28.443   2.132
19938W        W88156  35.115  18.106  14.547
19939W        W88157  12.172  15.171  12.606
19940W        W88158  44.385  33.032   0.958
19941W        W88159   8.125  24.606   3.313
19942W        W88160  26.629  11.765   2.361
19943W        W88161  19.307   0.162  14.626
19944W        W88162  24.660   8.579   2.602
19945W        W88163  26.074   6.453   0.357
19946W        W88164  30.988  12.874   1.785
19947W        W88165  27.870   1.869   4.674
19948W        W88166  41.691  13.858   4.731
19949W        W88167  39.422  24.699  14.245
19950W        W88168   4.472  43.301   1.971
19951W        W88169  28.109  40.972   0.578
19952W        W88170  14.293  14.212   5.000
19953W        W88171   2.806   5.079   2.813
19954W        W88172   2.437  25.200  14.848
19955W        W88173  28.691  19.764  12.672
19956W        W88174  13.506  34.105   0.259
19957W        W88175  32.770  12.189  10.993
19958W        W88176  27.679   7.248   0.312
19959W        W88177  28.402  33.616   3.198
19960W        W88178  15.658   0.945   4.686
19961W        W88179   2.973  36.054  11.127
19962W        W88180  18.758   3.249   2.785
19963W        W88181   0.747  14.687  14.388
19964W        W88182  13.913  20.758  10.621
19965W        W88183  11.607   2.010   5.012
19966W        W88184   6.903  36.507  14.161
19967W        W88185   8.409  38.890  11.390
19968W        W88186   9.730   8.691   0.894
19969W        W88187   4.761   8.642  11.523
19970W        W88188  24.723  29.561   4.060
19971W        W88189  20.565  37.339   2.730
19972W        W88190  21.447  37.566  12.238
19973W        W88191  22.251  24.201  13.143
19974W        W88192  27.229  21.709   1.586
19975W        W88193  39.922   3.452   3.680
19976W        W88194  21.118   3.905   0.999
19977W        W88195  15.084  34.556  14.369
19978W        W88196  14.249  30.915   0.561
19979W        W88197  44.971  42.514   2.729
19980W        W88198   8.787  32.005   2.778
19981W        W88199  42.494  16.287  14.918
19982W        W88200  18.794  34.463   3.856
19983W        W88201  38.874  14.284   3.321
19984W        W88202  28.731  41.019  12.064
19985W        W88203  31.970  44.851   2.965
19986W        W88204  11.997  43.877   2.643
19987W        W88205  17.569   7.404  10.762
19988W        W88206  40.744  16.292   1.327
19989W        W88207  44.355  29.051   2.436
19990W        W88208  25.092  28.694   4.782
19991W        W88209   3.472  19.601   3.668
19992W        W88210   1.355  38.943   3.682
19993W        W88211   7.448  41.480  11.280
19994W        W88212  27.060  25.470   4.130
19995W        W88213   0.551   5.797   2.175
19996W        W88214  34.609  24.308  13.368
19997W        W88215  33.722  31.070  11.325
19998W        W88216  17.809  11.366  11.205
19999W        W88217  10.764  32.979  14.675
20000W        W88218  41.261   6.290  14.516
20001W        W88219  11.280  12.789   3.475
20002W        W88220  32.045   5.924   4.251
20003W        W88221   2.316  15.116  13.973
20004W        W88222  19.857  30.361   4.120
20005W        W88223  42.593   9.792  11.147
20006W        W88224   4.713  18.468  13.999
20007W        W88225  29.024   8.598  11.993
20008W        W88226   4.396   4.191  11.029
20009W        W88227  11.489  36.653   0.283
20010W        W88228  31.954  32.334  11.154
20011W        W88229   1.243  34.508   0.639
20012W        W88230  16.320  32.562   4.109
20013W        W88231   9.622  27.112  12.503
20014W        W88232  37.605   4.892  11.050
20015W        W88233  21.576  31.494  11.247
20016W        W88234   8.487  11.344  13.352
20017W        W88235  39.094  32.955  11.461
20018W        W88236  20.815  12.529   2.407
20019W        W88237  19.810  14.227  11.163
20020W        W88238  30.596  18.398  14.252
20021W        W88239  36.378  12.378   0.529
20022W        W88240  13.037  24.199  12.620
20023W        W88241  31.939  44.637  12.361
20024W        W88242  21.004  19.570  14.474
20025W        W88243  20.111  13.075  12.910
20026W        W88244  27.993  13.143   4.602
20027W        W88245   2.323  27.369   4.847
20028W        W88246   4.183  21.174  10.544
20029W        W88247  18.324  24.779   2.602
20030W        W88248  11.765   0.352   3.672
20031W        W88249   1.941  33.102  12.592
20032W        W88250  17.687  41.786  11.928
20033W        W88251  44.206  26.448   0.959
20034W        W88252   8.593   7.403   4.079
20035W        W88253   2.264  26.233  10.576
20036W        W88254  28.161  23.480  10.947
20037W        W88255  14.376  21.524  14.894
20038W        W88256  21.970  34.893   3.838
20039W        W88257  14.439  40.616   2.796
20040W        W88258   5.739  22.459  12.616
20041W        W88259   5.926  34.386   0.957
20042W        W88260  24.029  33.489  14.970
20043W        W88261  31.457  19.187   1.926
20044W        W88262  19.294  15.602   0.802
20045W        W88263   4.244  23.008  10.640
20046W        W88264  10.291  25.932  14.976
20047W        W88265  24.063   0.622  14.835
20048W        W88266   6.141  16.221   4.486
20049W        W88267  12.622  36.560  14.233
20050W        W88268  19.033  20.378   0.456
20051W        W88269  28.175  40.028   1.426
20052W        W88270  21.398  41.480   4.099
20053W        W88271   9.297  24.713   3.653
20054W        W88272  19.296  38.597  10.755
20055W        W88273  21.761  39.977  12.464
20056W        W88274  17.115  27.795   5.003
20057W        W88275  40.168  16.971   9.910
20058W        W88276  36.835   0.608  10.580
20059W        W88277  21.223   2.390   0.669
20060W        W88278   3.740  32.604   4.634
20061W        W88279   8.246  21.821  13.027
20062W        W88280  38.508   6.536  13.435
20063W        W88281  40.818  12.127  12.055
20064W        W88282  26.619  19.988   1.904
20065W        W88283  29.033   3.444  13.562
20066W        W88284  19.029  15.830  12.521
20067W        W88285  24.725  20.103   1.087
20068W        W88286  30.011  14.312  14.044
20069W        W88287  41.914   1.752   4.641
20070W        W88288  20.874  20.057  11.069
20071W        W88289   2.674  16.373   0.362
20072W        W88290  34.862   5.301  12.431
20073W        W88291  32.355  13.080  13.997
20074W        W88292   1.291  35.364  14.370
20075W        W88293  10.975   9.149   1.334
20076W        W88294  27.208  19.569   0.699
20077W        W88295   4.049  17.184  10.734
20078W        W88296  18.710   2.178   1.453
20079W        W88297  41.976   0.371  13.772
20080W        W88298  22.565  35.963   2.223
20081W        W88299  14.219  13.459   1.923
20082W        W88300   5.650   0.321   3.757
20083W        W88301  40.943  37.785   2.259
20084W        W88302  24.535   5.364   0.227
20085W        W88303  42.871  18.662  13.640
20086W        W88304  12.569  33.566   2.429
20087W        W88305  28.946  30.565  14.830
20088W        W88306  27.264   0.494   0.054
20089W        W88307  15.992  40.356  13.284
20090W        W88308   8.238  40.500  14.754
20091W        W88309  32.548  42.482   2.387
20092W        W88310  35.907   6.805  10.998
20093W        W88311  28.932  17.657   3.298
20094W        W88312   1.983  17.644  13.846
20095W        W88313  38.532   6.098   2.224
20096W        W88314   5.197  44.160  14.713
20097W        W88315  36.901  29.668   0.189
20098W        W88316  16.675  19.028  14.090
20099W        W88317   5.949  14.479  14.482
20100W        W88318  14.762  42.203   0.312
20101W        W88319  11.724  27.725   4.710
20102W        W88320   2.258  11.317   4.301
20103W        W88321  26.166  24.233   3.265
20104W        W88322  44.853  37.915   3.372
20105W        W88323  28.700  27.092  12.468
20106W        W88324  43.841  36.059  10.577
20107W        W88325  14.768  30.915   0.480
20108W        W88326  12.233  12.001  11.756
20109W        W88327  24.890  28.563  14.411
20110W        W88328   0.608  26.042   2.324
20111W        W88329  14.254   7.014  14.929
20112W        W88330  36.963   6.408   0.835
20113W        W88331  38.747  33.281  10.242
20114W        W88332   8.285  11.918  11.605
20115W        W88333  26.567  17.598  13.173
20116W        W88334  30.745  43.014  11.972
20117W        W88335  39.961   4.725   0.150
20118W        W88336  37.081   7.669   2.723
20119W        W88337  12.055   1.912   0.320
20120W        W88338  29.581  27.989  13.840
20121W        W88339   6.735   0.686  13.710
20122W        W88340  17.261  37.555  10.969
20123W        W88341  43.472  23.617   2.198
20124W        W88342  29.122  38.387   2.738
20125W        W88343  14.135  12.025   1.152
20126W        W88344   8.074  25.124   3.149
20127W        W88345   4.582  41.494  11.593
20128W        W88346  13.787   5.289   4.202
20129W        W88347  11.382  34.084   3.186
20130W        W88348  27.072  15.561  11.138
20131W        W88349  27.926  14.238   1.866
20132W        W88350  39.343  24.551   1.225
20133W        W88351  32.152  32.189   4.630
20134W        W88352  10.356   4.285   1.347
20135W        W88353  25.746   7.941   4.860
20136W        W88354   0.313   1.213  14.934
20137W        W88355  37.243   0.843   2.112
20138W        W88356  23.591  37.164  11.924
20139W        W88357  25.438  42.616   1.505
20140W        W88358  17.111   8.658  10.643
20141W        W88359   8.833   9.252  14.277
20142W        W88360  21.539  21.067  13.542
20143W        W88361  42.266  40.994   2.427
20144W        W88362  26.657   1.252   1.053
20145W        W88363  16.712  33.908   4.526
20146W        W88364  42.932  36.010   1.411
20147W        W88365  44.829   4.013  11.489
20148W        W88366  11.583  21.571   2.225
20149W        W88367   7.944   1.005   1.572
20150W        W88368  33.384  22.986  14.002
20151W        W88369   3.821   2.212  11.484
20152W        W88370   8.580   2.518  11.432
20153W        W88371  29.934  30.067   2.871
20154W        W88372  43.688  32.778  11.449
20155W        W88373  13.058  10.720   4.872
20156W        W88374  10.662  24.551   2.578
20157W        W88375  18.146  34.421  14.893
20158W        W88376  25.751  25.045  11.528
20159W        W88377   8.339  22.475   3.307
20160W        W88378  10.463  35.385  12.460
20161W        W88379   7.562   5.473   2.402
20162W        W88380   7.886   3.111  11.239
20163W        W88381  38.636  36.530  13.944
20164W        W88382  16.427   2.452   1.408
20165W        W88383  18.069  27.085  10.882
20166W        W88384  10.628  23.220   2.104
20167W        W88385  24.014  23.701  11.996
20168W        W88386  26.312  24.522   2.506
20169W        W88387  12.856  10.245  11.707
20170W        W88388  41.274  36.402  10.837
20171W        W88389  39.072  19.231  12.941
20172W        W88390  43.787  25.548   0.684
20173W        W88391  32.162  32.852  11.574
20174W        W88392  36.355  20.507   1.991
20175W        W88393  35.044  32.220   1.426
20176W        W88394  36.038  14.606  13.603
20177W        W88395  38.633  22.138  12.417
20178W        W88396  42.439   3.781   0.331
20179W        W88397  22.155   4.270   0.172
20180W        W88398  25.688   1.658  13.719
20181W        W88399  28.542  18.471  12.655
20182W        W88400  23.210   3.787  13.845
20183W        W88401  33.133  28.229  13.883
20184W        W88402  18.736  10.450   3.863
20185W        W88403  37.339  30.421  12.562
20186W        W88404  14.778  18.995  11.367
20187W        W88405  13.701   6.458  14.362
20188W        W88406  10.232   0.729  13.421
20189W        W88407   4.630  29.651  11.067
20190W        W88408  34.793  12.515   3.283
20191W        W88409  43.333  26.983   1.448
20192W        W88410  21.852  35.040   0.212
20193W        W88411   3.400  21.054   3.650
20194W        W88412  20.153  36.954   2.643
20195W        W88413  12.077  42.361  14.942
20196W        W88414  29.514  38.898   1.121
20197W        W88415  28.943   2.752  10.768
20198W        W88416  38.004  36.645   2.086
20199W        W88417  28.256  13.500  14.991
20200W        W88418  38.104   3.388   1.512
20201W        W88419  11.839  30.572  11.538
20202W        W88420  43.508  16.727   3.140
20203W        W88421  35.088  26.483  13.705
20204W        W88422  16.851  10.914   1.261
20205W        W88423  20.491  32.825   0.428
20206W        W88424   3.769  16.316  10.376
20207W        W88425  30.276  35.501   0.059
20208W        W88426  20.584  30.502  13.278
20209W        W88427  19.807  11.020   2.436
20210W        W88428  20.430   3.962  11.051
20211W        W88429  15.106  26.683   2.635
20212W        W88430  24.145  11.472  13.621
20213W        W88431  44.976   4.486  11.346
20214W        W88432  17.184  12.533   1.347
20215W        W88433  42.982   5.759   2.268
20216W        W88434  23.360  41.908  12.680
20217W        W88435  26.056  41.298   2.107
20218W        W88436  40.749  40.584   1.937
20219W        W88437  34.588  12.727  12.226
20220W        W88438  38.013  26.830  12.891
20221W        W88439  29.072  27.726   3.958
20222W        W88440  12.238  31.118  12.089
20223W        W88441  26.820  31.604   0.156
20224W        W88442  38.396  31.847   4.882
20225W        W88443   2.197  39.371  14.368
20226W        W88444  39.222  10.779   2.248
20227W        W88445  39.113  33.486  11.593
20228W        W88446  26.623  22.734   1.408
20229W        W88447  43.450  44.368   3.754
20230W        W88448  20.594  26.155  10.746
20231W        W88449  23.054   3.775  11.106
20232W        W88450  22.826  25.310   4.180
20233W        W88451   8.712   4.789   1.024
20234W        W88452  22.001  28.252   0.273
20235W        W88453  42.552  22.102   3.893
20236W        W88454  32.574  26.966  12.881
20237W        W88455  19.458  14.143  11.969
20238W        W88456  20.663   6.119  14.344
20239W        W88457   1.863  43.529  10.704
20240W        W88458   6.956  32.482  13.895
20241W        W88459  20.013  20.694   3.928
20242W        W88460  37.593  37.833   4.378
20243W        W88461  37.080  38.782   2.546
20244W        W88462  25.976  15.820  13.007
20245W        W88463  13.165  15.157  13.065
20246W        W88464  38.872   6.715   4.700
20247W        W88465  42.143   4.937  13.090
20248W        W88466  44.866  13.615   2.446
20249W        W88467  16.317  12.858   1.308
20250W        W88468  15.898  34.642  11.588
20251W        W88469  35.802  12.401   2.786
20252W        W88470   3.896  18.285   3.850
20253W        W88471   1.242  11.205   1.918
20254W        W88472  38.646  39.201   3.203
20255W        W88473  27.684  10.883   3.517
20256W        W88474  26.392  35.370   1.496
20257W        W88475  16.173  10.278  14.967
20258W        W88476   6.445  23.659   0.848
20259W        W88477   9.128  41.890  11.037
20260W        W88478   6.720  32.397  11.561
20261W        W88479   2.366  36.064   0.880
20262W        W88480  21.208  44.355   4.719
20263W        W88481  34.680  31.575   1.347
20264W        W88482  22.054  42.494   2.276
20265W        W88483  15.700  42.543   1.482
20266W        W88484  12.064  31.509  11.188
20267W        W88485  35.605  42.966  13.545
20268W        W88486  35.352  32.413  14.518
20269W        W88487  17.808  17.544  11.753
20270W        W88488  38.874  33.831   4.313
20271W        W88489  11.669  33.551   4.295
20272W        W88490  25.014   1.368   3.099
20273W        W88491   2.905  10.401  13.034
20274W        W88492   1.713  30.011  14.495
20275W        W88493  40.724  32.013   2.172
20276W        W88494  16.610  44.957  11.661
20277W        W88495  26.498  28.014  12.582
20278W        W88496  43.470   9.384   2.886
20279W        W88497  40.360  21.469   0.319
20280W        W88498  10.816  38.132   4.641
20281W        W88499   8.192  43.688   3.845
20282W        W88500   1.334  13.575  14.653
20283W        W88501  15.337  24.578  14.409
20284W        W88502   9.031   0.223  12.611
20285W        W88503  16.097  43.222  10.316
20286W        W88504   2.745  16.194   2.936
20287W        W88505  38.411  27.571   2.458
20288W        W88506  40.310  33.523  12.501
20289W        W88507   1.303  33.385  14.266
20290W        W88508  34.298   4.379   2.698
20291W        W88509  18.894  27.996   4.924
20292W        W88510  36.379  10.722  11.959
20293W        W88511  33.556   8.854  11.430
20294W        W88512   7.139   7.259  14.992
20295W        W88513  42.990  38.985   3.140
20296W        W88514   7.582   6.960   0.007
20297W        W88515  11.846  39.462  11.967
20298W        W88516  17.143  16.725  12.390
20299W        W88517  32.022  27.841   1.254
20300W        W88518  15.769  38.383  13.061
20301W        W88519  14.716   3.184   1.427
20302W        W88520  32.939   4.700  11.657
20303W        W88521  23.529  19.702  11.613
20304W        W88522   6.348  24.119  13.225
20305W        W88523  37.327  24.781  12.904
20306W        W88524  38.822   7.397  12.430
20307W        W88525  28.256   5.164  13.730
20308W        W88526  35.422  11.788  11.146
20309W        W88527  37.298   4.536   1.952
20310W        W88528  37.626  14.242   5.166
20311W        W88529  32.024  30.688  12.210
20312W        W88530  41.590  35.780   3.237
20313W        W88531  33.452  19.618  13.863
20314W        W88532  17.143  40.583  14.321
20315W        W88533  38.575  15.966   0.557
20316W        W88534  16.237  37.525   1.778
20317W        W88535  19.525  42.149  10.762
20318W        W88536   7.942  41.338   1.294
20319W        W88537   9.725  12.878   3.690
20320W        W88538  22.450  15.235   4.884
20321W        W88539  44.870  16.507  12.449
20322W        W88540  16.166  36.204   5.004
20323W        W88541  40.488  12.257   3.195
20324W        W88542  33.979  13.007  14.494
20325W        W88543   4.891   7.675   4.314
20326W        W88544  20.760   6.172  13.308
20327W        W88545  36.545  25.766   2.279
20328W        W88546  38.880  37.062   4.436
20329W        W88547  10.765   5.332   0.444
20330W        W88548  15.906  41.456  13.871
20331W        W88549  32.598  10.444  11.487
20332W        W88550  26.879   8.675   1.747
20333W        W88551  30.665   2.000  12.977
20334W        W88552  20.110  12.122  12.493
20335W        W88553  31.116  10.284   1.316
20336W        W88554  36.336   4.113  10.211
20337W        W88555   1.657  25.619  12.554
20338W        W88556  27.558  23.065   2.041
20339W        W88557  33.079  28.725  12.104
20340W        W88558   8.720  30.899  14.001
20341W        W88559  17.278  43.623  12.164
20342W        W88560  38.286  12.262   2.736
20343W        W88561  22.580  34.394  12.121
20344W        W88562   5.358  36.470   2.302
20345W        W88563  20.630  37.579   0.788
20346W        W88564  24.077  35.063  12.679
20347W        W88565   1.467  39.042   0.450
20348W        W88566  23.631   0.137   4.748
20349W        W88567  36.850  18.335  13.807
20350W        W88568  41.920   9.184  12.983
20351W        W88569  24.358  27.899   1.172
20352W        W88570   8.963  29.170  13.397
20353W        W88571  42.974  17.803  11.942
20354W        W88572  30.383  23.020  13.132
20355W        W88573  40.366  11.801   2.929
20356W        W88574   4.690   2.241   0.302
20357W        W88575  35.345   5.159  12.949
20358W        W88576   4.879  37.172   1.911
20359W        W88577  16.147  43.938  12.570
20360W        W88578  10.756  25.216  14.316
20361W        W88579   6.953  44.976  14.537
20362W        W88580  15.881   9.624   1.289
20363W        W88581  32.167  26.458   1.347
20364W        W88582  30.831   2.827   2.361
20365W        W88583   7.199  28.041  11.007
20366W        W88584  39.354  19.172  11.167
20367W        W88585  44.461  44.749   1.338
20368W        W88586  17.205  41.019   9.955
20369W        W88587  36.068   0.007   0.343
20370W        W88588   9.223  21.835  12.056
20371W        W88589  11.182  39.508  10.609
20372W        W88590  25.562  41.798  13.613
20373W        W88591   1.743   7.264  11.545
20374W        W88592  22.513  40.514   1.755
20375W        W88593  13.809  26.464  10.793
20376W        W88594  30.069  25.378   3.223
20377W        W88595  28.383  16.175   4.429
20378W        W88596   0.829  18.886   0.820
20379W        W88597   4.884  22.060   4.131
20380W        W88598  24.634  27.239   3.945
20381W        W88599  26.066  38.369   2.803
20382W        W88600  29.996  18.974  14.044
20383W        W88601  20.071   9.382   1.921
20384W        W88602   8.619  14.766   1.379
20385W        W88603   7.931  41.159  13.614
20386W        W88604  13.814   2.009  13.482
20387W        W88605  41.407  10.371   1.058
20388W        W88606  27.740  31.017  14.497
20389W        W88607  24.523  28.143  12.460
20390W        W88608  31.516   5.755  10.782
20391W        W88609   0.806  33.838  12.005
20392W        W88610   0.434  14.554   1.426
20393W        W88611  26.247   7.141   2.767
20394W        W88612  44.889  23.577   4.236
20395W        W88613  35.967  18.027  14.744
20396W        W88614  30.162  13.759  13.869
20397W        W88615  21.068  34.987  12.535
20398W        W88616  34.133  21.095   2.763
20399W        W88617  37.369  43.664   0.269
20400W        W88618  13.071  19.548  13.235
20401W        W88619  28.909  41.239   2.763
20402W        W88620   9.192  38.826   3.574
20403W        W88621  23.181  41.486  11.566
20404W        W88622  18.145  20.814  11.658
20405W        W88623  21.149   2.331  10.628
20406W        W88624  32.060  27.442   4.269
20407W        W88625   0.785  43.228   0.278
20408W        W88626  34.813  15.301   0.348
20409W        W88627  26.922  11.273   0.809
20410W        W88628  37.698  12.814   1.142
20411W        W88629  15.695  27.991   2.269
20412W        W88630  18.505  18.957   2.334
20413W        W88631   2.226  23.489   1.967
20414W        W88632   2.873  28.023   2.685
20415W        W88633  19.413  30.543   0.077
20416W        W88634  33.139  16.555   1.898
20417W        W88635   1.515  21.674   0.006
20418W        W88636  19.481  34.581  11.637
20419W        W88637  33.026  11.183  12.707
20420W        W88638  22.509  17.287  11.651
20421W        W88639   1.402   2.428  13.782
20422W        W88640  15.319  15.215  11.547
20423W        W88641  42.245   3.664  13.963
20424W        W88642  43.011  36.519  11.564
20425W        W88643  33.047  25.823  11.449
20426W        W88644  16.217  31.578   4.652
20427W        W88645  21.318  11.435   4.893
20428W        W88646   4.758  15.280   2.432
20429W        W88647  35.893  30.648   3.905
20430W        W88648   5.718  28.948  13.271
20431W        W88649  21.680   1.552  12.245
20432W        W88650  18.198   8.718  12.169
20433W        W88651  42.435  41.963   0.330
20434W        W88652  13.302  34.107  11.093
20435W        W88653  21.102  38.031   4.276
20436W        W88654  37.026  39.005   4.548
20437W        W88655  44.845  11.527   0.987
20438W        W88656  19.462  16.841  13.345
20439W        W88657  14.024  39.125   3.162
20440W        W88658  36.029   9.702   0.851
20441W        W88659  36.379  26.926  11.685
20442W        W88660   6.870  27.738  12.016
20443W        W88661   8.705  14.307   1.687
20444W        W88662  39.486  34.615   2.422
20445W        W88663  25.646   9.714  13.302
20446W        W88664  26.697  41.050   1.421
20447W        W88665  10.255  18.786   4.564
20448W        W88666  40.497  38.106  11.791
20449W        W88667  38.154   4.457  10.234
20450W        W88668  29.600  39.818  14.848
20451W        W88669  42.791  30.552   1.337
20452W        W88670  37.963  42.414  14.995
20453W        W88671  19.235   0.017  10.789
20454W        W88672  38.911   4.221   2.069
20455W        W88673  13.352  10.571  14.144
20456W        W88674   8.931  36.045  11.990
20457W        W88675   8.977  19.990   4.070
20458W        W88676   0.230   3.872  11.223
20459W        W88677  32.769  44.883  10.801
20460W        W88678   6.200  32.100   3.180
20461W        W88679  37.353   1.415  13.569
20462W        W88680  24.089  22.810  14.778
20463W        W88681  20.723  26.709   0.832
20464W        W88682  39.051  40.627  10.553
20465W        W88683  22.764  22.199   2.891
20466W        W88684  24.116  16.366  13.330
20467W        W88685   3.458   5.942  12.436
20468W        W88686  20.157  12.657  12.560
20469W        W88687   6.766  15.667   4.790
20470W        W88688   2.183   5.410   2.784
20471W        W88689   6.713  17.305  14.531
20472W        W88690   6.029  30.551  10.680
20473W        W88691  18.788   1.266  14.902
20474W        W88692   1.914   3.910  13.432
20475W        W88693  42.813  37.528   0.752
20476W        W88694   3.825  28.592  13.983
20477W        W88695  32.423  38.285   4.611
20478W        W88696   6.856  22.928  13.559
20479W        W88697   3.958  37.992   1.363
20480W        W88698   3.782  40.448  14.100
20481W        W88699  28.738  13.260  11.093
20482W        W88700  36.917  11.782  12.040
20483W        W88701  43.887  11.616   2.536
20484W        W88702  26.115  15.953   5.053
20485W        W88703  19.730  11.395  14.504
20486W        W88704  36.771  28.292   3.534
20487W        W88705  42.261   2.421  14.869
20488W        W88706   3.501  27.830  12.475
20489W        W88707  15.152  37.083  14.366
20490W        W88708  42.750   3.802   0.759
20491W        W88709  34.407  42.882  14.486
20492W        W88710  11.861  39.542  14.887
20493W        W88711  14.357   0.437  12.032
20494W        W88712  16.163  24.825  11.293
20495W        W88713   1.972   7.776   5.031
20496W        W88714  19.535  19.110   0.826
20497W        W88715  18.706  19.173  12.085
20498W        W88716  16.083   0.738   1.891
20499W        W88717  41.460   1.349  11.999
20500W        W88718  40.973  29.130   3.996
20501W        W88719  41.860  18.665   4.016
20502W        W88720   9.379  37.651  12.069
20503W        W88721  39.822  44.081  11.753
20504W        W88722  25.268   2.114   1.391
20505W        W88723  11.631  37.060   1.333
20506W        W88724  37.813  27.626   4.690
20507W        W88725  19.161  32.071   0.539
20508W        W88726  14.542  18.660  14.847
20509W        W88727  17.085  38.434  12.109
20510W        W88728  16.170  41.276  14.931
20511W        W88729   1.524  10.652  13.359
20512W        W88730  41.757   3.357  10.921
20513W        W88731  19.638   6.908   2.332
20514W        W88732   2.881  16.815  12.217
20515W        W88733  15.421  24.649   3.277
20516W        W88734  16.148  12.133   4.166
20517W        W88735  23.464   5.346   1.388
20518W        W88736  34.643  21.022  12.415
20519W        W88737  29.975  18.709   4.186
20520W        W88738   8.587  13.589   3.683
20521W        W88739  22.715   4.706  10.027
20522W        W88740  38.619  13.785   4.147
20523W        W88741  27.347  27.387  12.640
20524W        W88742   6.689  32.816   2.858
20525W        W88743   2.633  42.205  12.126
20526W        W88744  29.419  35.529  12.810
20527W        W88745   7.359  17.728  14.376
20528W        W88746  40.986   8.141  13.012
20529W        W88747  31.872  38.886  11.552
20530W        W88748  34.028  19.558   4.151
20531W        W88749  29.116  44.556   2.796
20532W        W88750  40.781  21.730  12.550
20533W        W88751  30.631  33.056  14.438
20534W        W88752  31.826  36.627   4.985
20535W        W88753   2.213  29.547   3.185
20536W        W88754  11.115  41.597   2.731
20537W        W88755   1.118  31.129   4.846
20538W        W88756  26.893  16.081  14.938
20539W        W88757  23.524  14.583  10.451
20540W        W88758  24.588  21.619   3.797
20541W        W88759  41.604  16.672   0.009
20542W        W88760  25.589  13.729  12.334
20543W        W88761  42.686  32.024   3.696
20544W        W88762   5.331  33.030   3.670
20545W        W88763  27.366  35.188   4.437
20546W        W88764   9.464  38.516  11.419
20547W        W88765   0.552   6.399  10.894
20548W        W88766  36.541   1.532  14.389
20549W        W88767  43.935  14.385   0.886
20550W        W88768  14.252  40.478   4.233
20551W        W88769   6.134   6.165   2.944
20552W        W88770   3.415  33.557   3.577
20553W        W88771  41.302  13.334  13.755
20554W        W88772   6.924  21.794   3.677
20555W        W88773  20.808  27.521  12.481
20556W        W88774  23.287  29.654   4.603
20557W        W88775  40.974   9.948  11.267
20558W        W88776  40.819  13.845   4.520
20559W        W88777  32.534  20.209  11.527
20560W        W88778  40.336   8.747  12.313
20561W        W88779   0.906  15.736  12.396
20562W        W88780  19.662   3.942   2.219
20563W        W88781  42.347  33.604  14.471
20564W        W88782  13.029  39.899   2.808
20565W        W88783  31.953  20.861   0.501
20566W        W88784  19.713  27.472   3.667
20567W        W88785  31.030   8.858   1.470
20568W        W88786  13.247  23.956   4.065
20569W        W88787  34.206  30.962  11.169
20570W        W88788  24.044  33.033  12.507
20571W        W88789  22.491   7.954   2.804
20572W        W88790  44.071   1.427   2.287
20573W        W88791  29.445  37.363   3.533
20574W        W88792  29.691   8.855   0.886
20575W        W88793   2.914  43.845   4.790
20576W        W88794  38.381   3.299   2.870
20577W        W88795  43.732  42.226   4.580
20578W        W88796   1.182  13.335   4.602
20579W        W88797  16.231  42.334  14.889
20580W        W88798   7.897   6.174   2.814
20581W        W88799   0.790   2.902  14.556
20582W        W88800  39.148   8.759   3.208
20583W        W88801  32.592   4.900  11.168
20584W        W88802   4.943   7.387  13.012
20585W        W88803   0.973  14.644  12.999
20586W        W88804  31.333  14.786  12.901
20587W        W88805   7.020  39.523  12.276
20588W        W88806   2.903  22.670  14.371
20589W        W88807   3.542   1.729   3.692
20590W        W88808  23.052  27.972   1.240
20591W        W88809   0.757  11.212   0.070
20592W        W88810  15.744   3.268  10.383
20593W        W88811  20.522   6.997   3.206
20594W        W88812  28.418   0.847   2.747
20595W        W88813  41.491  17.840  13.876
20596W        W88814  38.787  38.833   1.140
20597W        W88815   7.235  25.807   2.267
20598W        W88816  41.765  31.597   3.707
20599W        W88817  19.311   7.778   3.389
20600W        W88818  26.300   3.993   3.768
20601W        W88819  29.558  18.989  14.897
20602W        W88820  29.912  33.953  14.032
20603W        W88821  33.929  22.410  13.561
20604W        W88822  35.965  13.228   2.209
20605W        W88823  36.561  41.935   0.443
20606W        W88824  38.338  17.897  13.556
20607W        W88825  28.206  25.234   2.183
20608W        W88826  33.191   8.492  11.195
20609W        W88827  43.360  40.914  14.996
20610W        W88828  25.833  44.625  12.641
20611W        W88829  21.983  25.141   2.692
20612W        W88830   0.240  26.230  13.870
20613W        W88831  18.429  34.193   4.976
20614W        W88832  28.081  33.488   3.571
20615W        W88833   1.205  44.353   2.853
20616W        W88834  28.998   0.848  11.360
20617W        W88835  41.496  11.693  10.902
20618W        W88836   4.647  24.983   1.380
20619W        W88837  28.628   1.844   2.377
20620W        W88838  19.690  44.714   0.496
20621W        W88839  32.523  39.348  10.447
20622W        W88840  16.235  26.131  11.212
20623W        W88841   9.840   9.709   0.911
20624W        W88842  32.524  13.922  13.416
20625W        W88843  11.232  33.363  12.053
20626W        W88844  44.111   7.479  14.580
20627W        W88845  35.943  18.179   0.738
20628W        W88846  12.252  37.895  13.410
20629W        W88847   8.719  12.106   4.639
20630W        W88848  30.297   5.407   4.949
20631W        W88849  12.949   0.698  13.028
20632W        W88850  20.544  31.443   3.773
20633W        W88851  17.161  12.058  12.053
20634W        W88852  44.936   2.374  14.175
20635W        W88853  18.679   7.054   0.407
20636W        W88854  13.749  13.219   1.773
20637W        W88855  15.309  10.483  11.103
20638W        W88856  18.675  23.065   4.504
20639W        W88857  37.679  34.288  13.844
20640W        W88858  18.783  37.379  12.856
20641W        W88859   6.275   7.694  14.932
20642W        W88860  24.131  13.860  12.489
20643W        W88861  33.375  31.031   2.312
20644W        W88862  24.276  19.688   2.247
20645W        W88863  17.026  21.260  14.300
20646W        W88864  31.516  23.153  11.032
20647W        W88865  19.606  14.379   2.185
20648W        W88866  39.417   7.038  11.209
20649W        W88867  34.133  21.441   0.673
20650W        W88868  44.773  14.146  14.371
20651W        W88869   7.898  28.120  14.891
20652W        W88870  13.591  21.444   1.236
20653W        W88871   1.784   1.878   4.701
20654W        W88872  32.451  37.631   3.172
20655W        W88873  29.656  27.133   3.335
20656W        W88874  24.333  24.639   0.173
20657W        W88875   6.863  30.251  10.587
20658W        W88876  22.327  37.373  14.402
20659W        W88877  23.205  11.634  11.496
20660W        W88878  31.966  25.054   3.698
20661W        W88879  36.081  37.627   0.214
20662W        W88880  39.814  29.097   0.705
20663W        W88881  37.514  18.705   4.182
20664W        W88882  30.396  41.060   1.442
20665W        W88883   0.851  27.231  12.920
20666W        W88884  42.987  19.551   4.073
20667W        W88885   9.953   0.909   1.021
20668W        W88886  19.222   0.474  12.844
20669W        W88887  44.997  13.537   0.884
20670W        W88888   2.549  42.204   2.188
20671W        W88889  25.206  31.028   1.757
20672W        W88890  44.254  20.591   1.940
20673W        W88891  33.515  25.561  11.703
20674W        W88892  34.040  34.949  12.362
20675W        W88893  37.300  11.652   4.366
20676W        W88894   0.997  29.981   4.353
20677W        W88895  26.752  42.585   2.496
20678W        W88896  12.187  43.016  10.606
20679W        W88897   3.926  43.495  13.784
20680W        W88898  25.640  12.299  14.245
20681W        W88899  34.512   4.147  10.341
20682W        W88900  10.418  17.638   2.473
20683W        W88901  38.127  35.056   4.158
20684W        W88902  28.687  30.327  10.843
20685W        W88903  34.522  14.793  13.096
20686W        W88904  29.307  18.364   5.450
20687W        W88905   2.910  15.151  14.911
20688W        W88906  21.995  28.627   4.034
20689W        W88907  18.770  19.436   0.407
20690W        W88908  29.558  20.104   1.137
20691W        W88909  13.067  41.385  10.333
20692W        W88910  33.058  31.250   0.768
20693W        W88911  17.790  27.181   1.327
20694W        W88912  42.496   3.755  13.517
20695W        W88913  36.533  43.582  11.967
20696W        W88914   4.642  28.660   2.238
20697W        W88915  44.868  10.379   3.911
20698W        W88916   2.839  35.093   2.758
20699W        W88917   2.401  43.268   2.805
20700W        W88918  31.107  13.295  11.972
20701W        W88919   6.460  22.717   2.687
20702W        W88920   3.771  29.410   2.234
20703W        W88921   5.014  42.963  11.982
20704W        W88922   6.111  42.881  13.119
20705W        W88923   1.518  43.467  13.818
20706W        W88924  44.835  11.822  13.890
20707W        W88925  23.007  44.046  14.374
20708W        W88926  22.155  31.017   3.969
20709W        W88927  28.852   7.294   1.321
20710W        W88928   9.200   5.796   0.892
20711W        W88929   6.498  19.236   4.029
20712W        W88930  44.402   7.621  12.916
20713W        W88931  34.041  27.867  11.647
20714W        W88932  41.040   4.830   2.686
20715W        W88933  31.045   7.209   4.083
20716W        W88934  14.390   2.340  10.743
20717W        W88935   6.525  22.541   5.119
20718W        W88936  35.759  15.580   1.252
20719W        W88937  44.003  12.590  14.795
20720W        W88938  17.105   6.917  11.976
20721W        W88939  33.938   4.956  11.080
20722W        W88940  31.034   2.947   5.199
20723W        W88941  42.095  26.480  13.370
20724W        W88942  12.976  20.647  12.052
20725W        W88943  25.710  35.792   2.652
20726W        W88944  18.373  10.374   1.718
20727W        W88945  31.589  11.728   4.517
20728W        W88946  26.489   6.878   1.999
20729W        W88947   3.122  37.213   0.972
20730W        W88948  40.815   6.925   1.401
20731W        W88949   0.916  40.482  10.784
20732W        W88950   2.763  11.448   0.447
20733W        W88951   1.398  41.354  13.358
20734W        W88952  16.176  29.706   2.757
20735W        W88953  43.854  22.574  10.515
20736W        W88954   1.005   3.188   0.522
20737W        W88955   3.433   4.722   0.747
20738W        W88956   2.284  40.292  12.337
20739W        W88957  18.152  37.569  14.789
20740W        W88958  14.201  15.277   4.348
20741W        W88959  42.651  41.570   4.184
20742W        W88960  25.512   7.778  13.887
20743W        W88961  28.169   7.619  14.889
20744W        W88962  40.461  26.144  14.721
20745W        W88963   0.378  31.256   4.197
20746W        W88964  28.245  27.032   1.397
20747W        W88965  37.969  15.809  14.576
20748W        W88966  18.525  39.341  13.330
20749W        W88967   2.786   9.773   0.025
20750W        W88968  41.849   5.087  11.624
20751W        W88969  32.354  28.722   3.988
20752W        W88970   7.296  27.529  13.940
20753W        W88971   7.308  38.293  13.865
20754W        W88972  29.805  43.501   4.640
20755W        W88973  43.838  18.319   4.114
20756W        W88974   3.914  10.291  13.114
20757W        W88975  33.329  21.173   1.673
20758W        W88976  42.389  42.851  13.040
20759W        W88977  32.168  25.343  12.049
20760W        W88978   5.636  27.987   2.116
20761W        W88979   6.701  44.175  10.472
20762W        W88980  32.463  12.833   0.489
20763W        W88981  22.375  35.435  11.006
20764W        W88982   6.843  40.767  13.445
20765W        W88983  10.605  15.706   3.798
20766W        W88984  38.287  25.505   1.705
20767W        W88985  11.890  21.435  13.385
20768W        W88986  25.734  23.200   1.699
20769W        W88987  38.914  15.998  14.824
20770W        W88988  20.993  27.578  14.715
20771W        W88989  42.046  44.874  13.569
20772W        W88990  24.951  41.909   0.098
20773W        W88991  29.588  18.787  10.828
20774W        W88992   9.444  17.884   3.683
20775W        W88993  37.279  32.835  14.991
20776W        W88994  13.313  39.556  12.179
20777W        W88995  41.529  24.110   0.041
20778W        W88996   3.553  37.250   3.150
20779W        W88997  41.951  13.608   1.201
20780W        W88998  12.599  41.814   1.275
20781W        W88999  41.454   7.835  13.895
20782W        W89000   1.105  29.046   1.383
20783W        W89001  24.163   8.866   1.733
20784W        W89002   1.341  39.698   1.657
20785W        W89003  37.315  43.354   0.777
20786W        W89004   5.157  33.500   0.189
20787W        W89005   3.041   3.735  10.693
20788W        W89006  19.075  39.054   4.186
20789W        W89007  23.012   1.363   2.762
20790W        W89008  35.248  31.487  14.027
20791W        W89009  27.978   9.246  11.398
20792W        W89010  17.751  24.480  13.373
20793W        W89011  11.301  19.078   3.259
20794W        W89012  15.241  20.716  10.641
20795W        W89013  12.896   3.480  10.687
20796W        W89014  41.370  44.233  14.932
20797W        W89015  14.733  31.152   4.982
20798W        W89016  40.214  22.632   1.820
20799W        W89017  37.433  39.764  11.649
20800W        W89018   4.808  17.103   1.655
20801W        W89019   3.524  20.379  10.386
20802W        W89020   3.496  16.357   0.782
20803W        W89021  24.591  30.673  14.214
20804W        W89022   7.440   3.535  13.078
20805W        W89023  27.527  17.110  14.295
20806W        W89024  44.683  17.740  14.959
20807W        W89025  32.475  38.094  13.452
20808W        W89026  25.501  35.881  12.887
20809W        W89027  37.041  17.553  11.147
20810W        W89028  14.845  17.455  10.152
20811W        W89029   1.786  15.820  11.923
20812W        W89030  29.725  13.297   3.225
20813W        W89031  38.794   3.835  11.426
20814W        W89032  13.435  18.855  11.710
20815W        W89033  44.525  34.954   0.050
20816W        W89034  43.451  36.314  11.351
20817W        W89035   9.847  10.812  14.809
20818W        W89036   1.195  14.050  13.357
20819W        W89037  22.994  20.033   1.424
20820W        W89038   4.704   3.891   0.873
20821W        W89039  36.638  20.703  12.065
20822W        W89040  16.112   6.488  13.829
20823W        W89041  44.023  16.586   3.355
20824W        W89042   1.376   9.930   4.082
20825W        W89043   1.369  23.825  14.821
20826W        W89044  37.165  29.199  12.536
20827W        W89045  18.427  12.184   3.136
20828W        W89046   6.861  15.029   3.190
20829W        W89047  31.900  15.638  13.296
20830W        W89048  29.970  38.307   1.965
20831W        W89049  26.904  37.004   1.720
20832W        W89050  12.573   1.741   1.217
20833W        W89051  35.532  10.865  12.428
20834W        W89052  35.021  40.315   1.897
20835W        W89053  40.838  16.814   2.329
20836W        W89054   4.228  37.606  14.520
20837W        W89055  11.380  19.203  13.536
20838W        W89056  18.666  11.274  13.743
20839W        W89057  41.714  19.963   3.427
20840W        W89058  27.015  25.258  13.493
20841W        W89059  16.350  12.696  10.691
20842W        W89060  27.502  38.145   3.482
20843W        W89061  24.468  16.973  14.450
20844W        W89062  10.551  14.723   1.398
20845W        W89063  11.592   6.874  14.553
20846W        W89064  43.912  13.721  11.920
20847W        W89065  30.239  30.345   2.563
20848W        W89066  22.081   2.243  10.674
20849W        W89067   0.203   3.362  13.434
20850W        W89068  16.731  33.916   3.324
20851W        W89069  42.154  43.461   4.011
20852W        W89070  25.158  41.308   4.138
20853W        W89071  27.101   0.975   0.211
20854W        W89072  39.283  41.032   0.959
20855W        W89073  26.003  23.385   0.488
20856W        W89074   5.036   3.570   5.074
20857W        W89075  28.992   4.434  10.632
20858W        W89076  31.960  42.588   4.404
20859W        W89077   5.428  27.961   2.590
20860W        W89078  10.395   7.457   3.597
20861W        W89079  27.799  35.992   3.377
20862W        W89080  41.497  24.556   3.809
20863W        W89081   8.328   7.009  12.112
20864W        W89082  32.377  19.491  11.293
20865W        W89083   9.422   7.138   0.312
20866W        W89084  12.262  13.714   1.290
20867W        W89085   5.493   3.006  13.446
20868W        W89086  25.006  28.916   3.660
20869W        W89087   7.867  41.019  13.074
20870W        W89088  13.768  37.932   1.072
20871W        W89089  16.121  36.315   1.807
20872W        W89090  32.018  38.122   1.486
20873W        W89091  29.145  19.001   4.677
20874W        W89092  41.077  44.871   3.718
20875W        W89093  36.579  13.347  12.441
20876W        W89094  34.839  22.022   0.236
20877W        W89095  18.656  26.373   1.530
20878W        W89096  40.531  44.933  10.940
20879W        W89097  22.724  10.135  10.192
20880W        W89098  25.643   1.835   4.642
20881W        W89099  24.199  21.747   4.128
20882W        W89100  22.973  36.643  14.900
20883W        W89101  44.833  17.894  14.475
20884W        W89102  40.823  39.900   4.708
20885W        W89103  16.211  18.057  10.673
20886W        W89104  24.641  24.137   1.214
20887W        W89105  39.083  17.025   0.698
20888W        W89106   6.223   4.370  12.953
20889W        W89107  18.185  17.095   4.623
20890W        W89108  13.264   9.119   1.717
20891W        W89109  39.770  34.133  11.432
20892W        W89110  33.511   6.938  14.518
20893W        W89111  36.437  13.424   2.179
20894W        W89112  25.277  30.069   3.729
20895W        W89113  20.968  17.188   3.009
20896W        W89114  32.604  39.930  11.093
20897W        W89115  38.414  20.000  10.684
20898W        W89116  15.394  11.780  11.017
20899W        W89117   8.353  40.600  10.088
20900W        W89118  18.259  16.915   5.098
20901W        W89119  29.164  38.654  10.744
20902W        W89120  34.633  15.754  12.076
20903W        W89121  23.901  44.095   2.457
20904W        W89122  28.327   3.952  11.168
20905W        W89123  27.662   1.414  11.461
20906W        W89124  31.940  24.069  14.981
20907W        W89125   0.041  21.605   1.217
20908W        W89126  44.779  27.941   2.973
20909W        W89127   8.483  36.461  12.626
20910W        W89128  30.040  42.180  14.859
20911W        W89129  36.511   4.534   2.870
20912W        W89130  29.099  18.720   0.934
20913W        W89131  25.332  12.074   1.280
20914W        W89132   0.890  35.718   4.995
20915W        W89133  29.545  42.501   1.038
20916W        W89134   3.646  32.466   2.807
20917W        W89135   2.773  37.444   3.762
20918W        W89136  15.588  15.680  14.493
20919W        W89137  31.395   3.759   1.466
20920W        W89138  31.554  42.281   1.923
20921W        W89139  30.489  28.248  13.295
20922W        W89140  44.312  39.874   2.191
20923W        W89141   0.759  25.008   2.280
20924W        W89142  41.128   3.870   4.619
20925W        W89143  18.851   8.938   3.778
20926W        W89144  21.122   6.462  10.677
20927W        W89145   2.009  28.742   1.358
20928W        W89146  10.457   6.931  13.837
20929W        W89147  43.792  42.453   3.348
20930W        W89148   4.038   6.632  14.832
20931W        W89149   8.837   1.465  11.463
20932W        W89150  21.772  42.706  12.697
20933W        W89151  17.731  27.647   0.298
20934W        W89152  16.083  14.682  11.621
20935W        W89153   0.262  41.138   1.891
20936W        W89154  33.592  20.441  14.840
20937W        W89155  35.223  20.454  11.618
20938W        W89156  36.499  20.256   2.504
20939W        W89157  37.398  22.269  12.094
20940W        W89158  34.291  40.732   1.469
20941W        W89159  37.600  20.074   3.287
20942W        W89160  14.696  16.282   2.759
20943W        W89161  25.989   2.900   0.600
20944W        W89162  41.276  16.175   2.721
20945W        W89163  19.933   6.014  13.402
20946W        W89164   7.704  32.933   2.766
20947W        W89165  44.061  14.587  12.717
20948W        W89166  13.724  10.998   2.179
20949W        W89167   5.925  38.430   3.667
20950W        W89168  13.528  13.370   0.366
20951W        W89169  10.618  32.111  14.943
20952W        W89170   3.746  13.708  14.799
20953W        W89171   4.187  44.759  12.050
20954W        W89172  19.028  24.009  13.109
20955W        W89173  19.262  40.582  13.435
20956W        W89174   2.893  35.595  10.873
20957W        W89175  18.308   9.491  12.167
20958W        W89176  23.664  21.614   4.555
20959W        W89177  35.162  15.844   4.636
20960W        W89178  25.131  42.631   0.884
20961W        W89179  40.314  28.943   0.047
20962W        W89180  19.617  22.661   4.559
20963W        W89181  25.575   1.766   3.671
20964W        W89182   0.734  43.261  11.517
20965W        W89183  30.221  16.588  11.202
20966W        W89184   0.827   7.244   2.419
20967W        W89185   5.984  25.869  13.410
20968W        W89186  37.983  39.988  13.007
20969W        W89187   9.373  19.215  13.848
20970W        W89188  21.712  36.110  11.589
20971W        W89189  22.305  30.605   1.663
20972W        W89190   7.466   4.899  12.828
20973W        W89191   1.567  23.246  11.593
20974W        W89192  44.869  10.553   2.093
20975W        W89193  13.902  33.623  12.188
20976W        W89194  23.648   0.700  10.571
20977W        W89195  11.056   2.794  14.884
20978W        W89196  42.654  25.698   3.738
20979W        W89197  37.329   4.241   1.171
20980W        W89198  20.017  39.167  14.121
20981W        W89199  11.553  44.553   1.411
20982W        W89200  14.570   1.058   3.233
20983W        W89201  29.922   6.575  13.267
20984W        W89202  42.522  18.076   4.467
20985W        W89203  41.826  11.144  13.825
20986W        W89204  42.998   3.268   5.385
20987W        W89205   3.314   1.225  13.857
20988W        W89206  17.530  27.597  11.711
20989W        W89207  35.447  26.970   3.289
20990W        W89208  31.476  42.944   0.227
20991W        W89209  24.544  38.523   2.190
20992W        W89210   7.501   2.824   3.709
20993W        W89211  17.075  21.655   3.182
20994W        W89212  35.979  26.086   4.960
20995W        W89213   3.230  28.116  10.598
20996W        W89214  24.119   1.254  11.738
20997W        W89215  20.387  43.179   4.821
20998W        W89216  27.851  29.608   0.764
20999W        W89217   1.479  16.050   3.438
21000W        W89218  29.450  41.499   3.601
21001W        W89219  41.543  20.377   3.661
21002W        W89220   4.650   1.182   0.163
21003W        W89221  12.314  42.551  12.628
21004W        W89222  33.526  44.287   1.796
21005W        W89223   0.368  39.773  14.299
21006W        W89224  23.498  27.017   1.026
21007W        W89225   6.307   4.174  10.604
21008W        W89226   9.341  38.977  13.051
21009W        W89227  12.285   6.665  12.915
21010W        W89228  24.996  27.099   1.367
21011W        W89229  31.467  25.290  14.811
21012W        W89230   8.929   2.462   2.513
21013W        W89231   7.797  26.764  14.187
21014W        W89232   2.223  36.398  14.323
21015W        W89233  11.640  15.882   2.988
21016W        W89234  30.880  36.237  13.498
21017W        W89235  19.441   4.316   0.503
21018W        W89236  23.205  22.003  14.856
21019W        W89237  25.932  39.478   0.968
21020W        W89238  29.109  34.330  11.758
21021W        W89239  27.409  28.339  12.399
21022W        W89240   2.170  12.131  11.388
21023W        W89241  17.978  28.605  13.324
21024W        W89242  24.275  10.292   0.473
21025W        W89243   7.868   0.032   3.777
21026W        W89244  35.977  22.966   0.754
21027W        W89245  21.640   9.399  13.058
21028W        W89246  15.310   1.467  11.524
21029W        W89247  33.042  12.983  10.431
21030W        W89248  20.756  26.175  14.481
21031W        W89249  16.300   6.040  12.450
21032W        W89250   8.262  33.481  11.153
21033W        W89251  37.807  22.387   5.102
21034W        W89252  25.374   7.855   5.282
21035W        W89253  36.070  26.563  14.304
21036W        W89254   0.726  38.057  13.583
21037W        W89255  33.527   7.865  12.556
21038W        W89256  31.530  11.338   4.134
21039W        W89257  35.729   8.865   3.836
21040W        W89258  23.494  34.917  12.094
21041W        W89259  18.810   8.184   2.261
21042W        W89260  20.674   5.446   3.167
21043W        W89261   2.712  10.147   0.395
21044W        W89262   4.737  17.988   1.284
21045W        W89263   9.563  18.124  10.411
21046W        W89264  30.837  36.903   1.808
21047W        W89265   1.381   4.298   0.750
21048W        W89266  24.266   6.282  12.170
21049W        W89267   5.482  40.725  14.402
21050W        W89268  43.565   4.367  11.559
21051W        W89269  12.434  19.124  14.392
21052W        W89270  20.015  42.017  14.871
21053W        W89271   5.624  10.353   0.356
21054W        W89272  11.226  17.267  12.467
21055W        W89273   7.736   4.454  12.691
21056W        W89274   5.565   7.738  13.329
21057W        W89275  23.483  17.265  12.501
21058W        W89276  16.196  15.565  10.554
21059W        W89277  28.712  32.962  14.539
21060W        W89278   4.370  12.093   4.616
21061W        W89279  35.376  29.408  12.417
21062W        W89280  22.256  20.998  10.624
21063W        W89281  26.875  27.899   3.338
21064W        W89282  34.916  43.827  14.349
21065W        W89283  42.455  29.093   4.523
21066W        W89284  42.261  11.778   1.221
21067W        W89285  42.290  42.541  11.576
21068W        W89286   3.437  35.340  14.477
21069W        W89287  11.901  23.539  12.280
21070W        W89288  30.579  23.398   3.847
21071W        W89289  42.019  43.901   3.340
21072W        W89290  41.329   0.520  10.606
21073W        W89291  29.738  32.175  13.413
21074W        W89292   2.715  16.523  12.647
21075W        W89293   0.334   5.658  11.496
21076W        W89294  42.454  25.635  13.107
21077W        W89295  44.632  20.075   3.682
21078W        W89296  40.912   1.474  11.176
21079W        W89297  30.620  20.298   3.839
21080W        W89298  32.045  44.898  14.670
21081W        W89299  44.545  21.633   1.343
21082W        W89300  44.149  16.141  14.254
21083W        W89301   5.911  25.136   0.247
21084W        W89302   6.730  42.593   3.383
21085W        W89303  22.632   7.162   3.267
21086W        W89304  15.540  37.914  13.033
21087W        W89305   9.225  25.703   2.712
21088W        W89306   0.007  22.299  11.075
21089W        W89307  29.227  14.329  13.369
21090W        W89308  16.249  21.864  11.766
21091W        W89309   2.489   6.054   0.121
21092W        W89310  38.961   2.667   3.957
21093W        W89311  30.247  17.367  11.738
21094W        W89312   9.276   5.384   3.032
21095W        W89313  23.567  31.694  14.410
21096W        W89314  15.185  24.044   4.648
21097W        W89315  23.647  22.380  11.514
21098W        W89316  40.280  35.431   3.780
21099W        W89317  11.325  12.206   2.233
21100W        W89318  42.344  33.357  11.908
21101W        W89319  37.465  11.089  12.486
21102W        W89320  34.057  40.271   2.730
21103W        W89321  31.807  17.725   3.131
21104W        W89322  14.761  29.003  12.908
21105W        W89323  35.604   1.827  12.974
21106W        W89324   0.989  21.249   1.880
21107W        W89325  25.781  21.995  11.109
21108W        W89326  13.275  38.065   0.889
21109W        W89327  35.467   1.969  13.521
21110W        W89328  23.085  35.342   1.214
21111W        W89329   4.160   9.670   4.136
21112W        W89330  17.237  36.607   3.587
21113W        W89331  27.041  26.344   3.151
21114W        W89332  29.099   7.467  10.716
21115W        W89333  14.905   6.802   0.513
21116W        W89334  31.855  10.226  10.774
21117W        W89335  43.862   9.604  12.989
21118W        W89336   6.880  29.890   1.784
21119W        W89337  17.806  36.082  10.730
21120W        W89338  44.162  33.577   2.611
21121W        W89339  13.929  41.893   3.706
21122W        W89340  38.624  20.220  11.167
21123W        W89341  20.997  26.141   0.027
21124W        W89342  17.533  42.922  10.385
21125W        W89343  27.864  43.259  12.830
21126W        W89344  20.648  18.286  11.122
21127W        W89345  13.597  11.830  13.884
21128W        W89346  24.971  41.816   2.728
21129W        W89347   1.257  22.280   4.310
21130W        W89348  42.279  12.295  13.335
21131W        W89349  10.644   5.024  14.277
21132W        W89350   9.347  44.300   2.320
21133W        W89351  38.983   8.901   2.270
21134W        W89352   5.414   0.084   1.805
21135W        W89353  21.744  44.999   1.326
21136W        W89354  24.118  24.141  14.422
21137W        W89355  31.463  17.178   1.456
21138W        W89356  31.004  34.962   3.267
21139W        W89357  25.882   0.665  10.590
21140W        W89358  16.947  41.525   2.599
21141W        W89359   8.378  40.860  12.419
21142W        W89360   0.531   7.122  13.785
21143W        W89361  21.505  10.409   1.916
21144W        W89362   6.751  28.543   4.913
21145W        W89363  39.838   7.756   2.103
21146W        W89364  32.984  12.664  14.533
21147W        W89365  37.667  41.574  13.089
21148W        W89366   0.207  13.783  11.449
21149W        W89367  12.710  33.587   1.929
21150W        W89368  19.135  13.176  10.408
21151W        W89369   0.099  15.123  13.501
21152W        W89370  15.076  36.097   4.701
21153W        W89371  19.246  38.375   1.474
21154W        W89372  22.297  34.172   0.265
21155W        W89373  28.556  26.383   2.640
21156W        W89374  24.195   7.455   2.814
21157W        W89375  23.870  34.531  11.079
21158W        W89376  40.787  39.915  14.963
21159W        W89377  19.687  20.159  14.485
21160W        W89378  23.987   4.326   1.754
21161W        W89379  33.402  22.456  13.911
21162W        W89380  33.173   4.992   3.335
21163W        W89381  15.104  26.985  13.508
21164W        W89382  30.394  40.863   1.961
21165W        W89383   5.325  39.147   0.404
21166W        W89384  34.917   1.479   1.920
21167W        W89385  16.038   7.816  13.864
21168W        W89386  39.863   9.168  12.891
21169W        W89387  36.823   1.875   0.553
21170W        W89388  38.488  13.101  11.629
21171W        W89389  12.729  20.942   2.313
21172W        W89390  35.986   1.510  13.912
21173W        W89391  20.223  35.882  11.594
21174W        W89392  41.679  17.093   4.156
21175W        W89393  15.267   7.365   4.691
21176W        W89394  19.384  44.037   2.699
21177W        W89395  42.236  35.014  14.046
21178W        W89396  23.505   8.164  11.404
21179W        W89397  24.939  17.643  12.478
21180W        W89398  42.831  23.851  12.565
21181W        W89399  26.590  34.610   1.263
21182W        W89400  22.088  29.686   3.614
21183W        W89401  18.097  44.401   0.874
21184W        W89402   4.289  28.515   3.205
21185W        W89403   0.427  39.553   3.600
21186W        W89404  23.446  22.090   4.654
21187W        W89405  31.787  16.339   4.540
21188W        W89406  26.127  37.097  14.687
21189W        W89407  39.584  44.859   0.329
21190W        W89408   1.903   9.442   2.659
21191W        W89409  39.331  38.846   0.265
21192W        W89410  43.998  40.966  10.059
21193W        W89411  22.150   5.403  14.325
21194W        W89412  25.535   0.408   0.845
21195W        W89413  11.878   0.929  10.500
21196W        W89414   2.071   4.462   1.780
21197W        W89415   2.152   0.867   2.254
21198W        W89416  42.841  38.598  14.876
21199W        W89417   0.409  16.157   4.265
21200W        W89418   7.164  23.511  12.993
21201W        W89419   6.401  22.345   1.161
21202W        W89420  40.140  18.764   1.839
21203W        W89421  20.476  28.591  13.824
21204W        W89422  22.560   1.770   3.669
21205W        W89423  34.582   3.951  11.623
21206W        W89424  11.636  37.121  12.089
21207W        W89425  29.026  22.953   4.449
21208W        W89426  18.771  24.521  10.822
21209W        W89427  23.691   9.203   0.911
21210W        W89428   6.731  24.678   0.396
21211W        W89429  38.418   4.792  12.011
21212W        W89430   1.843  10.376  11.443
21213W        W89431  21.663  40.260   4.086
21214W        W89432  14.325  35.436  13.940
21215W        W89433  14.241  38.415   2.613
21216W        W89434   0.458  30.579   3.368
21217W        W89435  19.854  31.919  10.528
21218W        W89436  31.166  24.149  14.307
21219W        W89437  30.908  23.023   2.686
21220W        W89438   5.904  15.354  10.455
21221W        W89439  14.499  24.041   1.294
21222W        W89440  13.000  18.856   3.721
21223W        W89441  11.183  18.825   2.311
21224W        W89442  13.672  36.759   3.676
21225W        W89443  11.690  42.346  10.963
21226W        W89444  44.541  37.841   0.269
21227W        W89445  11.323  40.176  14.592
21228W        W89446  15.699  24.153   3.184
21229W        W89447  19.128  18.590  13.044
21230W        W89448  30.269  21.099  12.602
21231W        W89449  31.223  10.123   3.271
21232W        W89450  44.922  29.422  14.267
21233W        W89451  25.805  30.090  12.008
21234W        W89452  36.644  28.478  12.259
21235W        W89453   2.394  24.260   3.269
21236W        W89454   2.115  11.735   2.302
21237W        W89455   3.961  33.922   4.181
21238W        W89456  38.592  18.590   1.248
21239W        W89457  23.455  38.027   3.127
21240W        W89458  13.798  11.300  11.316
21241W        W89459  24.996  11.130  11.357
21242W        W89460  26.408  26.122  12.064
21243W        W89461  38.155  25.936   1.952
21244W        W89462  36.827  44.748   1.412
21245W        W89463  30.303  14.700   3.548
21246W        W89464  41.212  14.216   1.222
21247W        W89465  34.084  40.253   1.705
21248W        W89466   3.706  30.538   0.796
21249W        W89467  15.315  39.788  12.811
21250W        W89468  10.277   2.522   1.058
21251W        W89469  20.771   9.675  14.300
21252W        W89470  20.077  32.212   1.969
21253W        W89471  44.499  36.952   0.266
21254W        W89472  29.505  29.412  10.506
21255W        W89473  26.408  19.392   4.967
21256W        W89474  13.241  42.340   3.543
21257W        W89475   3.674   0.767   3.414
21258W        W89476  28.165   3.029  14.673
21259W        W89477  10.674  39.711  12.188
21260W        W89478  25.235   9.254  11.596
21261W        W89479   0.780   0.098   2.675
21262W        W89480   1.765   3.279  14.084
21263W        W89481   7.842  21.300  14.324
21264W        W89482  32.703  22.345   1.770
21265W        W89483   5.236  20.829   0.883
21266W        W89484  20.719  14.455   3.272
21267W        W89485  16.417   8.922   4.527
21268W        W89486  11.419  20.108  13.291
21269W        W89487   9.771  39.913   0.739
21270W        W89488   1.624   6.051  12.124
21271W        W89489  40.085  29.154   4.188
21272W        W89490  38.050   5.942  11.704
21273W        W89491  43.793  43.006  12.972
21274W        W89492   6.943   3.749   1.322
21275W        W89493  12.308  25.612  10.785
21276W        W89494  15.621  39.455  12.060
21277W        W89495   1.716  32.007  11.765
21278W        W89496  40.244  15.313   0.584
21279W        W89497  30.054  37.597  11.629
21280W        W89498  10.806  34.650   0.354
21281W        W89499  44.979  28.009  10.904
21282W        W89500  12.635  10.686  11.605
21283W        W89501   0.354  20.739   4.702
21284W        W89502   0.944  43.868  10.936
21285W        W89503   3.218  35.471  13.450
21286W        W89504  10.489  44.646   0.700
21287W        W89505  34.363  13.252   4.985
21288W        W89506   8.304  19.601   5.204
21289W        W89507  33.588  29.572   4.577
21290W        W89508  18.785   6.303  13.408
21291W        W89509   7.186  36.950  11.949
21292W        W89510  23.987   8.133  11.578
21293W        W89511  43.196   7.829   0.896
21294W        W89512  36.218  20.741  10.661
21295W        W89513  22.608  26.980   0.304
21296W        W89514   7.829  19.549  12.886
21297W        W89515   3.932  29.071   4.238
21298W        W89516  31.622  16.133  14.383
21299W        W89517   9.922   7.886   0.434
21300W        W89518  31.880   6.372  14.838
21301W        W89519  14.610  24.406   0.470
21302W        W89520  15.675  43.584   0.031
21303W        W89521  37.970  19.759   0.023
21304W        W89522   4.225  38.114   4.589
21305W        W89523   0.927  44.323  14.049
21306W        W89524   6.660  25.055  10.816
21307W        W89525  34.999  13.126   0.815
21308W        W89526  39.020  11.999   4.117
21309W        W89527  37.655  19.712  10.213
21310W        W89528  16.823   5.935  11.169
21311W        W89529   9.425  14.273  14.815
21312W        W89530  36.422   5.850   0.890
21313W        W89531  38.269   3.259  11.596
21314W        W89532  18.098   2.318  14.102
21315W        W89533   7.688  24.282   3.162
21316W        W89534  18.200  27.205   4.868
21317W        W89535  41.297  18.647  13.350
21318W        W89536  42.064  25.909   1.309
21319W        W89537  13.386  16.212  10.429
21320W        W89538   5.128  34.969   3.284
21321W        W89539  23.078  43.835   2.142
21322W        W89540  42.354   7.218   0.185
21323W        W89541   9.350  20.875  12.148
21324W        W89542  25.610  22.562   3.181
21325W        W89543   1.790  36.816   0.423
21326W        W89544  20.527  34.625  10.692
21327W        W89545  30.170  16.726   1.419
21328W        W89546  27.221  14.247   1.273
21329W        W89547   5.740  42.612  14.925
21330W        W89548   1.393  33.898   3.243
21331W        W89549  31.154   2.948   2.751
21332W        W89550  23.023  34.932   1.738
21333W        W89551   1.887  26.042   1.198
21334W        W89552  16.092  24.445  13.053
21335W        W89553  43.030  20.018   1.625
21336W        W89554  37.982  26.084  11.549
21337W        W89555  25.216  11.114   2.817
21338W        W89556  11.540  36.533   2.203
21339W        W89557  16.056  17.061   1.652
21340W        W89558  31.774  27.618  12.039
21341W        W89559  20.243   7.717   4.025
21342W        W89560   1.256  18.197   3.435
21343W        W89561  43.664  31.538   3.221
21344W        W89562  33.657   1.476  13.839
21345W        W89563  17.972   4.636   3.238
21346W        W89564  25.434  22.666   0.454
21347W        W89565  28.391  28.716   0.434
21348W        W89566  17.862   6.717  12.117
21349W        W89567  29.478  42.893  13.498
21350W        W89568  32.141  22.630  10.470
21351W        W89569  36.620  38.580   2.668
21352W        W89570  38.544  34.059   1.179
21353W        W89571  40.405  27.032  12.353
21354W        W89572  42.702  37.965   4.954
21355W        W89573   6.457  40.382  11.868
21356W        W89574  37.385  40.662  13.051
21357W        W89575  32.407  36.069  11.194
21358W        W89576  36.562  14.348  14.924
21359W        W89577  41.417  17.598   1.100
21360W        W89578  18.985  37.090  14.063
21361W        W89579  26.555  32.048   0.412
21362W        W89580  40.000  30.376  14.240
21363W        W89581  25.645  14.710  10.261
21364W        W89582  30.155  13.305  13.082
21365W        W89583  29.220  44.581   1.431
21366W        W89584  40.913   9.707  14.861
21367W        W89585  42.568  30.747  12.471
21368W        W89586  31.414  43.750   1.246
21369W        W89587  35.918  20.501   3.768
21370W        W89588   1.874  17.183   1.033
21371W        W89589  33.996  30.349  11.578
21372W        W89590  37.407  10.527   2.219
21373W        W89591   2.413  19.734   5.135
21374W        W89592  29.615  32.467  13.829
21375W        W89593  36.935  24.215  14.837
21376W        W89594  15.827  35.455  12.887
21377W        W89595  29.376  25.206   2.627
21378W        W89596  11.703   3.437  13.068
21379W        W89597  43.281  22.835   0.921
21380W        W89598  12.128  43.437  12.860
21381W        W89599  44.646  22.131   3.147
21382W        W89600  37.075  16.654   2.251
21383W        W89601  21.800  40.836  12.427
21384W        W89602  15.658   7.182  14.281
21385W        W89603   3.909  10.287  14.434
21386W        W89604  32.354  38.075  14.083
21387W        W89605  37.494   9.431  14.971
21388W        W89606   2.281  15.866  14.290
21389W        W89607  12.899   1.010  13.461
21390W        W89608   2.274  28.319  14.537
21391W        W89609  37.403  29.383   1.775
21392W        W89610  29.449  30.046   4.371
21393W        W89611   7.053   1.075   3.756
21394W        W89612  31.737  42.092   3.696
21395W        W89613  12.688  43.953   1.910
21396W        W89614  44.479   2.310   1.459
21397W        W89615  22.811  20.154   4.823
21398W        W89616  27.399  14.654   0.189
21399W        W89617   0.875  29.114   0.009
21400W        W89618  40.364  34.598  13.851
21401W        W89619  36.945  12.404   4.603
21402W        W89620  17.554   6.403   2.181
21403W        W89621  39.843  32.813   2.817
21404W        W89622   8.135  12.144  12.055
21405W        W89623   1.280  30.624  12.043
21406W        W89624  30.352  17.142   2.969
21407W        W89625  38.345   4.917  12.492
21408W        W89626  37.082   7.213  10.850
21409W        W89627  25.483  30.416  12.819
21410W        W89628  15.640  11.588   1.347
21411W        W89629  37.096   0.980  10.802
21412W        W89630  13.705   2.755  14.306
21413W        W89631   9.200  44.754  11.630
21414W        W89632   9.444  28.049  10.590
21415W        W89633  31.915   7.297  11.007
21416W        W89634  16.699  35.130  14.594
21417W        W89635  35.195  44.370   3.579
21418W        W89636   7.807  10.749  13.735
21419W        W89637   9.595  38.525  13.892
21420W        W89638  31.852  40.402   3.679
21421W        W89639  42.603  28.563   4.551
21422W        W89640  15.682   8.080   3.207
21423W        W89641  33.977  12.720   3.377
21424W        W89642  10.184  42.998   3.736
21425W        W89643  44.812   4.656   4.097
21426W        W89644  33.104  44.638   0.943
21427W        W89645  26.079  34.071   2.788
21428W        W89646  36.705  43.820   1.747
21429W        W89647   4.230  13.089   3.745
21430W        W89648   2.824   4.217  10.728
21431W        W89649  40.588  33.604   3.368
21432W        W89650  36.607  27.645  11.013
21433W        W89651   3.255  40.013   3.243
21434W        W89652  17.292  41.028   4.370
21435W        W89653  16.450   9.884  11.589
21436W        W89654  33.622  11.843   1.319
21437W        W89655  36.786  12.093   0.296
21438W        W89656  23.984  24.050   3.681
21439W        W89657  28.882  33.662  10.609
21440W        W89658  21.032  23.777  14.386
21441W        W89659  29.582  44.591  10.756
21442W        W89660   5.875   9.852   4.052
21443W        W89661  16.693  25.431  11.488
21444W        W89662  16.195  12.422  10.292
21445W        W89663   7.291   8.276  11.245
21446W        W89664  22.605  32.929   1.672
21447W        W89665  32.547  12.273  11.877
21448W        W89666   0.807  41.955   4.906
21449W        W89667  21.472   2.172   2.247
21450W        W89668  24.732  41.352   2.668
21451W        W89669  44.080  10.312  12.486
21452W        W89670   9.444  31.462   4.673
21453W        W89671  41.300   4.046   0.907
21454W        W89672  14.335  17.187   4.058
21455W        W89673  40.434  30.654   4.550
21456W        W89674  27.543   9.776   1.013
21457W        W89675  32.563  38.970   0.502
21458W        W89676  41.934  17.290  12.926
21459W        W89677  19.544  36.127  14.223
21460W        W89678  39.920  37.376   2.209
21461W        W89679   2.741  15.815   0.975
21462W        W89680  27.040   2.403   1.247
21463W        W89681  12.123  16.740  12.226
21464W        W89682  43.504  11.343   4.562
21465W        W89683  26.483  34.570   4.462
21466W        W89684   3.375   8.879  12.360
21467W        W89685   3.629  24.636   2.797
21468W        W89686  27.505  16.076  14.328
21469W        W89687  41.351  10.482  10.007
21470W        W89688  17.965  37.197  14.417
21471W        W89689  26.530   5.269   4.216
21472W        W89690  44.724  10.386  14.019
21473W        W89691  27.518  20.434   0.461
21474W        W89692  21.771  18.738  14.861
21475W        W89693  40.706  30.359   3.300
21476W        W89694  40.956  13.036   1.935
21477W        W89695  34.503  25.962   2.427
21478W        W89696  25.574  31.558  13.374
21479W        W89697  17.295  26.062  14.393
21480W        W89698  23.548  40.299  12.003
21481W        W89699  18.780  23.855   4.086
21482W        W89700  40.268  10.708   3.183
21483W        W89701  37.753  15.404   4.295
21484W        W89702  41.808  22.461  10.326
21485W        W89703  35.495  42.921   2.800
21486W        W89704   9.265  33.829  13.526
21487W        W89705  10.212  14.523   2.846
21488W        W89706  31.450  14.659   4.141
21489W        W89707  44.880  17.012  12.488
21490W        W89708  38.004   1.959   3.165
21491W        W89709  10.408   3.225  13.166
21492W        W89710  29.496  27.400   4.134
21493W        W89711  21.765  29.433   4.047
21494W        W89712  26.912   7.855  12.019
21495W        W89713  24.371   7.877   1.738
21496W        W89714  25.701  37.443  10.738
21497W        W89715  32.402  19.818  12.884
21498W        W89716   4.414  26.095   1.730
21499W        W89717   7.169  16.634   2.598
21500W        W89718  18.312  35.191   4.783
21501W        W89719   3.423   8.318  10.631
21502W        W89720  18.170  39.812  11.911
21503W        W89721  31.069  42.310  12.387
21504W        W89722  12.361  10.228   1.298
21505W        W89723   0.000  40.419   3.248
21506W        W89724   9.171  42.728  13.561
21507W        W89725  10.139  14.087  13.026
21508W        W89726  35.160   6.267  14.368
21509W        W89727  27.131   3.218  13.162
21510W        W89728  31.105  32.427   2.346
21511W        W89729   8.175   2.619  12.097
21512W        W89730   2.693   4.326   3.530
21513W        W89731  23.755  17.293  14.036
21514W        W89732   7.876   3.111   3.290
21515W        W89733  31.939  23.046  14.839
21516W        W89734  14.832  17.590  12.102
21517W        W89735  30.952  36.517   0.267
21518W        W89736  44.986   6.508  13.954
21519W        W89737  10.436  26.511   2.742
21520W        W89738  42.260  10.370   1.471
21521W        W89739  21.346  44.014  12.103
21522W        W89740  26.914  24.707   1.811
21523W        W89741  35.640   2.206   1.871
21524W        W89742  20.652   6.439  12.358
21525W        W89743  43.497  21.100   4.434
21526W        W89744  18.718  39.322  12.411
21527W        W89745   2.802  38.746  14.998
21528W        W89746  28.668  31.432  13.250
21529W        W89747  28.916  43.500   1.199
21530W        W89748  33.438   8.234  12.906
21531W        W89749   6.677  31.049   2.203
21532W        W89750  32.584  28.876  12.186
21533W        W89751   6.261  39.250  12.488
21534W        W89752  20.167   2.161  12.868
21535W        W89753  26.876  10.440   0.923
21536W        W89754  39.323   9.741  13.854
21537W        W89755  27.805  13.514  10.421
21538W        W89756   6.378   5.688  14.902
21539W        W89757  35.829  41.960   4.520
21540W        W89758  40.085  16.543  14.825
21541W        W89759  37.041   7.330   4.489
21542W        W89760  26.732  38.418   3.967
21543W        W89761  41.339  44.416   4.375
21544W        W89762  39.423  33.372  11.988
21545W        W89763  20.334  19.139   1.416
21546W        W89764   4.153  20.989   2.286
21547W        W89765  19.127   5.361  11.146
21548W        W89766  22.188  42.013   0.738
21549W        W89767  37.952  13.192  10.907
21550W        W89768  33.797  26.629   0.767
21551W        W89769  34.079   4.227   5.463
21552W        W89770   5.488  27.394   4.135
21553W        W89771   9.959  18.029   1.350
21554W        W89772   5.474  30.691  14.332
21555W        W89773  10.327  40.112  11.186
21556W        W89774  27.127   6.074   0.247
21557W        W89775  20.587  36.315   4.543
21558W        W89776  19.805  20.395   3.526
21559W        W89777  12.080   9.649   2.852
21560W        W89778  36.959  37.055   2.848
21561W        W89779  38.493   8.369   4.600
21562W        W89780  11.105   0.279   2.033
21563W        W89781  41.463  13.400   1.283
21564W        W89782  16.665  18.959   0.617
21565W        W89783  42.257   3.436   4.538
21566W        W89784  32.335   8.450  13.486
21567W        W89785  25.236  39.551   2.790
21568W        W89786   2.992  30.418   0.399
21569W        W89787   6.715   1.512   1.774
21570W        W89788  41.843  28.106   0.494
21571W        W89789  41.830  35.035  14.364
21572W        W89790  44.902  15.443   4.132
21573W        W89791  35.384  36.315  13.101
21574W        W89792   8.332  13.570   2.671
21575W        W89793  13.768  37.224   1.083
21576W        W89794  41.418  18.625   3.767
21577W        W89795  33.977  10.515  11.886
21578W        W89796  18.504  27.684   1.280
21579W        W89797  44.873  22.069  12.012
21580W        W89798  16.285  12.665  14.480
21581W        W89799  35.894  26.161   3.364
21582W        W89800  30.101   2.231  10.352
21583W        W89801   2.209   2.348  12.865
21584W        W89802  44.756  10.084   0.363
21585W        W89803  26.576  43.406  14.399
21586W        W89804  28.971  11.875  10.729
21587W        W89805  14.375  38.018  12.527
21588W        W89806  43.414  31.537   4.069
21589W        W89807  38.984  30.847   2.971
21590W        W89808  17.183  31.863  13.400
21591W        W89809  25.236  21.389   2.429
21592W        W89810  31.619  10.653   2.976
21593W        W89811  16.233  27.333   0.165
21594W        W89812  36.376  17.092  11.608
21595W        W89813   1.836   8.631   2.228
21596W        W89814  27.052  25.777   5.033
21597W        W89815  20.589  43.924  11.150
21598W        W89816   7.455  18.551  14.375
21599W        W89817  17.198  31.165  10.648
21600W        W89818   2.272  13.881  10.807
21601W        W89819  31.108   8.924   3.866
21602W        W89820  11.582  34.625  10.848
21603W        W89821  33.378  41.278   3.932
21604W        W89822   1.555  10.804  11.546
21605W        W89823  41.502  41.025   1.899
21606W        W89824   1.199  40.611   0.726
21607W        W89825  38.408  16.312   3.876
21608W        W89826  17.242  44.274  13.306
21609W        W89827  32.338  33.984  13.018
21610W        W89828  39.428   5.521   1.967
21611W        W89829  28.080  18.629   4.963
21612W        W89830  15.271  23.021   4.537
21613W        W89831  43.764  31.013   0.829
21614W        W89832  27.129  26.533   4.066
21615W        W89833  11.359  37.923   2.350
21616W        W89834  41.084  24.013   3.700
21617W        W89835   5.912  33.660  11.588
21618W        W89836  22.769  14.262  13.952
21619W        W89837  25.031  43.391   2.809
21620W        W89838  11.424  40.500  12.844
21621W        W89839  16.066   9.439  12.629
21622W        W89840  11.336   0.056   0.162
21623W        W89841  23.381  14.322  13.595
21624W        W89842  14.290   5.235  12.904
21625W        W89843  26.211  39.073   3.539
21626W        W89844   0.749  44.766  10.472
21627W        W89845   7.951  22.738   0.401
21628W        W89846  38.595  26.735  12.504
21629W        W89847   6.893  37.328  11.741
21630W        W89848  38.419  23.715  13.522
21631W        W89849  36.333  23.586   1.835
21632W        W89850  14.367  13.782  14.164
21633W        W89851  33.898  39.870   4.912
21634W        W89852  44.394  16.747   4.337
21635W        W89853   2.804   2.948   3.488
21636W        W89854  32.785   3.165   9.951
21637W        W89855  30.535  13.328   4.979
21638W        W89856   9.233  31.974  11.261
21639W        W89857  40.369  24.356  10.196
21640W        W89858  43.857  29.684  14.822
21641W        W89859  32.097  10.487  11.620
21642W        W89860   0.797  32.852  13.759
21643W        W89861  29.709  23.200  13.388
21644W        W89862  32.491   5.734   4.094
21645W        W89863  29.621  40.108  14.356
21646W        W89864  14.732  28.544  14.845
21647W        W89865  33.615  18.355   3.224
21648W        W89866   8.816  29.620   4.626
21649W        W89867  26.694   5.681   1.291
21650W        W89868  11.373  14.265   0.261
21651W        W89869  19.338  37.724   0.022
21652W        W89870  15.867   9.283  11.739
21653W        W89871  39.180  37.899   0.368
21654W        W89872  32.579  10.171  12.422
21655W        W89873  28.022   3.847   2.482
21656W        W89874  11.150  37.429   2.331
21657W        W89875   6.628  34.132   1.342
21658W        W89876  32.453  21.079   1.370
21659W        W89877  23.489  43.151  14.414
21660W        W89878  38.001   9.785  12.782
21661W        W89879  36.108  20.462  12.898
21662W        W89880  30.115  39.960  11.119
21663W        W89881  29.536   6.661   3.283
21664W        W89882   9.322  22.968  14.605
21665W        W89883  16.160   4.642   1.252
21666W        W89884  33.571   8.839  12.555
21667W        W89885  27.518  14.013  13.559
21668W        W89886  17.488  35.983   1.341
21669W        W89887  31.105  32.480  14.014
21670W        W89888  11.816  26.731   2.418
21671W        W89889  18.317  40.198  12.522
21672W        W89890  41.123  20.347  12.584
21673W        W89891  44.813   3.977   2.777
21674W        W89892  14.117  43.820  14.755
21675W        W89893   2.138  23.188   2.875
21676W        W89894  19.144  39.055   3.670
21677W        W89895  40.607  42.172   3.265
21678W        W89896   9.424  39.090   0.220
21679W        W89897  22.673  32.051  10.885
21680W        W89898  44.747  33.362  13.073
21681W        W89899   4.640  15.873   3.126
21682W        W89900  21.049  44.404  11.641
21683W        W89901  19.213  13.158   3.399
21684W        W89902  41.898  33.109   3.214
21685W        W89903  25.239  37.563  13.420
21686W        W89904  15.222  26.990   1.996
21687W        W89905   0.778   9.333  12.860
21688W        W89906   1.367  21.078  13.238
21689W        W89907  16.712   8.207   0.476
21690W        W89908   0.543  17.096   4.383
21691W        W89909   6.137  41.937  11.464
21692W        W89910  32.854   0.581  11.964
21693W        W89911   6.866  43.877   3.321
21694W        W89912   4.655  13.285  10.957
21695W        W89913   2.390  25.692   2.419
21696W        W89914   4.774   6.552   2.203
21697W        W89915  22.731  17.202  11.180
21698W        W89916  22.160  24.727  11.503
21699W        W89917  41.118   0.450   1.921
21700W        W89918  37.819  44.919  11.130
21701W        W89919  29.299  27.517   3.553
21702W        W89920  39.045   7.723  10.729
21703W        W89921  38.595  19.517  14.480
21704W        W89922   7.912  21.001   3.538
21705W        W89923  24.862  31.464   2.759
21706W        W89924  17.064  31.488  14.555
21707W        W89925   5.206  41.514  13.471
21708W        W89926   0.807   2.180   1.417
21709W        W89927   1.313  13.093  14.935
21710W        W89928  11.022  32.395   0.263
21711W        W89929  15.051  39.039   0.859
21712W        W89930  33.893  35.795  11.224
21713W        W89931   2.038  41.303  10.372
21714W        W89932   2.913  23.213  11.104
21715W        W89933  34.035  31.952   1.190
21716W        W89934  22.221  24.582   4.740
21717W        W89935  30.537  35.970  11.899
21718W        W89936  23.357  35.014  10.179
21719W        W89937  38.112  21.803  11.624
21720W        W89938  42.050   7.888  14.520
21721W        W89939   4.391  42.134  14.185
21722W        W89940  42.235  32.375   4.787
21723W        W89941   3.822  33.803   2.686
21724W        W89942  12.175  11.874  10.761
21725W        W89943  41.269  29.368   4.358
21726W        W89944  43.755  41.733  10.677
21727W        W89945  31.521  40.014   1.424
21728W        W89946  40.965  17.410   3.712
21729W        W89947  30.445  17.527  14.490
21730W        W89948  10.751  17.828   2.130
21731W        W89949   1.729  18.410  12.024
21732W        W89950  34.328  36.918  13.353
21733W        W89951  18.650   7.438   1.299
21734W        W89952  23.560  22.181   1.913
21735W        W89953  24.264   3.671  11.220
21736W        W89954  10.626  29.242   3.362
21737W        W89955  33.634  30.483   4.758
21738W        W89956  33.877  44.289   3.202
21739W        W89957  12.874  13.734  11.249
21740W        W89958  10.696  24.987   3.807
21741W        W89959  20.821  30.927   1.176
21742W        W89960  19.422   5.777   2.776
21743W        W89961   6.823   5.877  13.765
21744W        W89962  30.386   6.811  12.444
21745W        W89963  36.117  28.087  12.358
21746W        W89964  26.636  31.620  10.495
21747W        W89965   0.890   6.520   0.554
21748W        W89966   0.173  31.342  13.810
21749W        W89967  32.029  42.415   3.382
21750W        W89968  10.679  44.456  10.596
21751W        W89969  40.457   3.521   1.270
21752W        W89970  41.460   6.265  11.698
21753W        W89971  18.644  36.148  14.267
21754W        W89972   0.246   1.323  10.493
21755W        W89973  38.640  31.100   2.716
21756W        W89974  20.093  10.881   4.203
21757W        W89975   7.663  38.540   4.675
21758W        W89976  23.492   4.926   2.308
21759W        W89977  34.481   7.653   1.404
21760W        W89978   3.436  17.990  10.759
21761W        W89979  30.097  19.156  13.463
21762W        W89980  31.658  40.497   2.938
21763W        W89981   0.742  26.649   3.580
21764W        W89982  22.573  40.847  11.977
21765W        W89983  30.182  23.283   0.810
21766W        W89984  30.079   7.519  12.561
21767W        W89985  31.096   6.747  10.259
21768W        W89986  14.037   4.352  12.828
21769W        W89987  24.260  26.774   0.881
21770W        W89988  19.109   3.824   3.908
21771W        W89989  16.094  20.047   1.078
21772W        W89990   9.871  40.277  13.344
21773W        W89991  33.255  31.041   4.668
21774W        W89992  12.272  21.479   0.326
21775W        W89993  42.405   2.754   2.685
21776W        W89994  32.775  21.271   3.046
21777W        W89995   8.111  21.055  14.705
21778W        W89996  24.175  27.982  12.090
21779W        W89997  26.738  43.218   0.358
21780W        W89998  44.723  15.735   2.735
21781W        W89999   6.811  37.471  14.107
21782W        W90000  30.690  32.955   4.902
21783W        W90001  41.014   3.761  10.988
21784W        W90002  21.587  26.428   2.789
21785W        W90003   1.387  29.145   4.385
21786W        W90004  16.838  30.280   2.340
21787W        W90005  32.507  25.533   2.446
21788W        W90006   1.328  10.940   1.475
21789W        W90007  25.538  10.044   0.910
21790W        W90008  20.556   8.468   1.573
21791W        W90009  41.510   6.694  14.731
21792W        W90010   1.692   3.859  14.816
21793W        W90011  20.182  23.038   3.165
21794W        W90012  22.668  29.153   1.507
21795W        W90013   6.336  35.359  13.820
21796W        W90014  17.677  29.432   3.273
21797W        W90015  15.159  24.807  13.841
21798W        W90016   1.802   4.432   2.235
21799W        W90017   8.571  27.228  14.383
21800W        W90018  30.185  26.205   1.159
21801W        W90019  16.302  39.741   4.127
21802W        W90020  34.384  20.867  14.693
21803W        W90021  29.805  29.576   1.691
21804W        W90022  39.353  21.756  13.033
21805W        W90023  12.893  39.240   2.379
21806W        W90024   8.950  35.099  12.002
21807W        W90025  37.298  18.740   3.703
21808W        W90026  22.093  12.813   2.472
21809W        W90027  10.495  23.527  12.051
21810W        W90028  15.889  15.509   4.495
21811W        W90029  30.616  32.468  12.492
21812W        W90030   1.869  24.718   0.773
21813W        W90031  10.337  24.368  14.911
21814W        W90032   6.645  30.970  13.863
21815W        W90033  32.050  12.894  11.137
21816W        W90034  36.301  30.931  13.328
21817W        W90035  20.565  43.077   4.348
21818W        W90036  33.021  27.575   4.297
21819W        W90037  26.872   2.364  14.155
21820W        W90038   4.276  12.026  10.859
21821W        W90039   8.382   7.174   3.670
21822W        W90040  26.552  16.481  14.926
21823W        W90041  29.390  20.233  14.395
21824W        W90042  15.922   8.421  14.879
21825W        W90043   3.615  31.037  11.539
21826W        W90044  11.399  28.454   2.716
21827W        W90045  21.224  24.148   2.411
21828W        W90046   2.767   4.319   2.290
21829W        W90047   4.412  12.326   3.220
21830W        W90048  33.139  11.572  10.902
21831W        W90049  17.235  39.512   0.800
21832W        W90050   1.829   0.522   1.761
21833W        W90051  20.665  25.958   2.812
21834W        W90052  40.456   6.458   1.610
21835W        W90053  18.740  10.440  10.304
21836W        W90054  11.582   0.029   2.257
21837W        W90055  17.674  10.334   1.133
21838W        W90056  43.558  27.554   1.190
21839W        W90057  42.373  17.984   1.885
21840W        W90058   0.407  14.968  14.762
21841W        W90059  23.949  19.360   3.630
21842W        W90060   3.861  29.630   3.533
21843W        W90061  20.701  11.687  12.040
21844W        W90062  41.535  38.808  12.070
21845W        W90063  18.615  27.791   2.729
21846W        W90064   0.034  34.514  13.444
21847W        W90065  30.602  25.250   3.216
21848W        W90066  38.343  10.182   3.223
21849W        W90067  29.154  17.923   9.864
21850W        W90068  43.688   2.449   2.254
21851W        W90069  34.949  30.888   2.371
21852W        W90070  13.871  29.644  14.556
21853W        W90071  25.655   9.933  11.080
21854W        W90072  24.172  24.146  11.161
21855W        W90073  17.199  30.444   1.294
21856W        W90074  40.677  42.394   0.620
21857W        W90075  20.190  21.968  11.495
21858W        W90076   5.249  35.870  13.901
21859W        W90077  30.373  39.509  12.432
21860W        W90078  10.356  42.620   2.381
21861W        W90079  44.357  13.771  11.078
21862W        W90080  24.159  29.573   4.332
21863W        W90081  13.708  35.826  14.886
21864W        W90082   4.532  38.577  14.370
21865W        W90083  31.396   2.221  11.585
21866W        W90084  33.421  32.556   0.377
21867W        W90085  44.786  40.474   0.897
21868W        W90086  33.221   8.017  11.960
21869W        W90087  22.200  22.112  12.216
21870W        W90088  38.918  10.777  11.523
21871W        W90089   8.993  12.542   2.324
21872W        W90090  11.957   5.803  13.465
21873W        W90091  14.534  22.043  14.235
21874W        W90092  13.365  19.255  13.548
21875W        W90093   1.065  15.717   2.248
21876W        W90094  31.002  33.142  10.243
21877W        W90095   0.808  24.860   3.683
21878W        W90096  38.446  22.540   0.351
21879W        W90097  31.339  42.549  13.533
21880W        W90098  41.799   8.211  11.171
21881W        W90099   2.744   2.502   4.217
21882W        W90100  24.825  44.918  11.709
21883W        W90101  40.364   7.709  12.488
21884W        W90102  25.410   3.123   2.155
21885W        W90103  17.843   1.306  12.857
21886W        W90104  10.857   6.153   3.697
21887W        W90105  20.325  44.201   2.260
21888W        W90106  16.841  22.940   0.689
21889W        W90107  42.487  43.285  12.080
21890W        W90108  38.859  23.197  11.897
21891W        W90109  36.842  23.289  12.923
21892W        W90110  21.256   5.798   2.369
21893W        W90111  35.953  18.492   4.632
21894W        W90112  20.608  43.591   0.997
21895W        W90113  20.788   1.720  12.485
21896W        W90114  37.582  20.704  14.916
21897W        W90115  34.442  22.010  14.455
21898W        W90116  36.346  17.103  12.558
21899W        W90117  27.954  38.894  13.019
21900W        W90118  34.287  23.950   2.647
21901W        W90119   8.639  39.824   1.813
21902W        W90120  11.839  27.960  13.097
21903W        W90121  30.868  33.421   0.342
21904W        W90122   6.859  10.613  13.340
21905W        W90123  37.916   5.442  11.058
21906W        W90124  24.424  36.827  12.671
21907W        W90125  13.847  38.959  11.831
21908W        W90126  26.873   8.658  11.660
21909W        W90127  25.222   7.974  11.232
21910W        W90128  29.112  37.261  11.112
21911W        W90129  10.314  28.720   1.641
21912W        W90130   3.249  21.208  14.303
21913W        W90131  39.817  40.289  12.990
21914W        W90132  29.303  27.800   1.237
21915W        W90133   5.885  37.589  13.760
21916W        W90134  12.585  14.935  11.117
21917W        W90135  18.523  13.597  11.469
21918W        W90136   7.875  22.783   3.272
21919W        W90137  23.607  38.517   3.208
21920W        W90138  21.173   6.853  13.532
21921W        W90139  38.500  14.151  10.761
21922W        W90140   7.743  42.104  13.907
21923W        W90141  21.978  16.130   1.324
21924W        W90142  24.929  38.221   4.541
21925W        W90143  14.100  34.282  11.452
21926W        W90144  29.195  17.800  11.154
21927W        W90145  38.547  20.679  11.436
21928W        W90146  39.661  38.226   4.145
21929W        W90147  39.325  14.323   0.850
21930W        W90148   6.142  13.300   0.993
21931W        W90149  28.887  23.031   2.603
21932W        W90150   1.865  21.111   1.680
21933W        W90151  27.449   6.303  11.999
21934W        W90152  32.163   4.744  12.044
21935W        W90153  25.407  43.283  12.377
21936W        W90154  33.906   2.212  11.133
21937W        W90155   0.945  23.273  12.966
21938W        W90156  11.914   5.803  10.746
21939W        W90157  18.828  11.754  12.072
21940W        W90158  38.437  44.711   3.259
21941W        W90159   3.557   0.749  10.662
21942W        W90160  41.543  36.819  13.437
21943W        W90161  27.078  16.554   2.701
21944W        W90162  24.090  11.288  11.255
21945W        W90163  17.776  11.368   1.415
21946W        W90164  14.653  24.588  11.953
21947W        W90165  25.018  25.954   2.724
21948W        W90166   8.708  13.910   4.117
21949W        W90167   7.867   3.805  13.322
21950W        W90168  12.202  16.304  13.716
21951W        W90169  21.636  33.629   3.144
21952W        W90170  42.495  33.822  10.614
21953W        W90171  30.008  41.371  12.447
21954W        W90172  24.775  17.865  14.549
21955W        W90173   7.951  31.524  14.812
21956W        W90174  36.910  30.764  11.572
21957W        W90175   6.530  30.967   3.837
21958W        W90176  43.730  39.154   4.536
21959W        W90177   9.210  31.353   2.394
21960W        W90178  11.694  14.000   9.952
21961W        W90179   2.719   2.426  11.974
21962W        W90180  11.413  31.162   1.273
21963W        W90181  23.166  23.274  13.054
21964W        W90182  12.747  36.681   3.624
21965W        W90183   3.927  20.041   0.899
21966W        W90184   2.180   0.507   0.191
21967W        W90185  34.161  36.806   4.182
21968W        W90186   3.846  11.462  13.321
21969W        W90187  37.944  41.459  13.974
21970W        W90188  15.613   2.730   0.276
21971W        W90189  23.260   0.837  13.868
21972W        W90190   8.131  27.334  13.032
21973W        W90191  34.836  37.779  13.063
21974W        W90192  10.154  12.426  14.068
21975W        W90193   3.005  18.644   3.827
21976W        W90194  18.716  23.753   4.988
21977W        W90195  37.443  12.829   2.640
21978W        W90196  38.902   9.104  14.479
21979W        W90197  37.815   9.688  11.489
21980W        W90198  23.461  33.542  14.345
21981W        W90199  22.101  32.672   4.679
21982W        W90200  24.682  11.165   2.811
21983W        W90201  31.835  43.478   3.278
21984W        W90202  22.235  16.281   3.214
21985W        W90203  18.882  21.133   4.811
21986W        W90204  40.744   5.259   2.530
21987W        W90205   5.585  44.976   1.313
21988W        W90206  17.568  44.811  14.950
21989W        W90207  17.517  43.748  14.891
21990W        W90208  20.073  10.782   3.170
21991W        W90209  12.317   8.300  12.079
21992W        W90210  25.565  21.520   4.521
21993W        W90211  33.681  36.035   1.216
21994W        W90212  10.150  22.402  14.110
21995W        W90213   6.626  27.293  11.335
21996W        W90214  11.234  25.677   3.864
21997W        W90215  18.038  38.488   0.481
21998W        W90216  10.781  30.589  13.975
21999W        W90217  19.511   6.391   2.330
22000W        W90218  44.308  12.558  11.611
22001W        W90219  11.166  13.393   5.056
22002W        W90220   9.087  16.629  14.356
22003W        W90221   2.468  37.168  11.591
22004W        W90222  17.648  20.209   2.705
22005W        W90223  17.171  17.556   4.643
22006W        W90224  20.677   5.833  11.185
22007W        W90225  17.693  44.821   2.799
22008W        W90226   0.918  41.570  10.657
22009W        W90227  22.260   0.526   3.228
22010W        W90228  31.174  23.021  12.545
22011W        W90229  39.052  12.423   3.291
22012W        W90230   8.768  28.482   3.860
22013W        W90231   3.353  35.493  10.661
22014W        W90232  33.826  12.776  10.660
22015W        W90233   3.304   2.590  13.338
22016W        W90234  21.755  24.923  12.447
22017W        W90235  13.412  10.352   4.669
22018W        W90236  25.958  41.502  12.435
22019W        W90237  27.077  16.403  10.865
22020W        W90238  30.990  41.515   1.760
22021W        W90239  34.479  38.894   3.763
22022W        W90240   3.188   3.095  13.222
22023W        W90241   9.342   5.786   2.674
22024W        W90242  33.884  27.557  14.332
22025W        W90243  33.847  18.819  12.023
22026W        W90244  38.902  43.336   3.195
22027W        W90245  13.070  41.629  13.595
22028W        W90246   0.449  11.103  11.132
22029W        W90247  29.211  14.266   0.512
22030W        W90248  32.548  20.133  10.985
22031W        W90249  16.776   2.952   3.212
22032W        W90250  26.159   0.592  11.920
22033W        W90251  31.499   5.878   4.987
22034W        W90252  16.544  25.101   2.865
22035W        W90253  20.726  10.881   2.380
22036W        W90254   1.418  26.179  11.686
22037W        W90255  37.813   0.115  13.406
22038W        W90256  39.990  32.450  13.435
22039W        W90257  31.243  34.890   1.264
22040W        W90258   5.846  39.059   4.481
22041W        W90259  19.270  21.587  12.053
22042W        W90260  10.296  20.571   3.150
22043W        W90261  23.158  41.543   3.167
22044W        W90262   0.701  13.121   3.254
22045W        W90263  30.576  12.256   1.343
22046W        W90264  18.566  35.376   4.335
22047W        W90265   1.357  19.648   2.812
22048W        W90266  32.808  29.149  10.312
22049W        W90267  13.137  38.314  11.367
22050W        W90268  37.272  31.443   0.428
22051W        W90269   2.359   5.417   1.949
22052W        W90270  40.084  44.970   1.353
22053W        W90271  28.524  30.427  12.581
22054W        W90272  33.533  36.390  13.510
22055W        W90273  25.005  13.206  14.380
22056W        W90274  27.655   0.321  12.846
22057W        W90275  23.137  44.023  13.465
22058W        W90276  38.965  35.785   4.464
22059W        W90277   8.725  30.933   3.500
22060W        W90278   6.192  23.648   2.268
22061W        W90279   2.698  38.099  14.471
22062W        W90280  11.863   5.700  11.604
22063W        W90281  19.217  19.587  13.332
22064W        W90282  14.710  29.601   1.182
22065W        W90283  10.769  20.777  11.355
22066W        W90284  38.318  40.657   3.255
22067W        W90285  40.780  31.920   5.121
22068W        W90286  44.060  41.754  14.274
22069W        W90287   1.516  14.084   3.972
22070W        W90288   9.228  26.175   1.747
22071W        W90289  24.100  44.428   2.796
22072W        W90290   3.809  35.586   4.052
22073W        W90291  40.399  39.079  11.686
22074W        W90292  39.928  11.600  14.247
22075W        W90293   3.847   3.050   3.584
22076W        W90294  40.569  27.413   0.425
22077W        W90295  21.816  42.716  12.196
22078W        W90296  15.173  17.028  11.509
22079W        W90297  11.229  42.414  12.152
22080W        W90298  32.174  23.985  13.425
22081W        W90299  44.286  44.694   2.688
22082W        W90300  43.920  18.999   2.336
22083W        W90301   5.367  26.552  12.566
22084W        W90302  39.074  26.949  12.543
22085W        W90303  44.474  15.122   4.368
22086W        W90304  19.743   0.008   1.833
22087W        W90305  16.118   0.087   0.890
22088W        W90306  25.014   4.368   2.733
22089W        W90307  43.456   6.869   0.526
22090W        W90308   7.365  43.418   3.879
22091W        W90309   7.063  34.101   2.343
22092W        W90310  36.862   0.230   1.224
22093W        W90311  29.171  33.153   3.749
22094W        W90312   4.867  12.194  14.498
22095W        W90313  37.266  17.526   2.338
22096W        W90314  21.225  21.217   2.216
22097W        W90315  13.632  40.977   2.804
22098W        W90316  26.509  29.578   3.531
22099W        W90317  13.765   4.729  13.905
22100W        W90318  38.257   9.990  13.178
22101W        W90319  12.297  23.082   1.972
22102W        W90320   5.021  40.988   9.699
22103W        W90321  17.988  36.114   1.418
22104W        W90322  41.947  41.806  10.594
22105W        W90323  32.068  34.866  10.459
22106W        W90324  42.972   0.391   0.843
22107W        W90325  31.050  10.765  14.390
22108W        W90326   2.367   5.953  13.914
22109W        W90327  30.916  33.402   1.210
22110W        W90328   6.725  13.922  12.928
22111W        W90329  33.653  25.035  12.363
22112W        W90330  24.724  33.062   4.312
22113W        W90331  22.742  37.416   0.830
22114W        W90332  21.425  21.201   5.001
22115W        W90333  16.869  10.772  11.531
22116W        W90334  15.662  30.725   3.740
22117W        W90335  30.192  26.694   2.350
22118W        W90336  16.069   5.469  11.081
22119W        W90337   0.850  17.027  11.847
22120W        W90338  15.495   9.228   1.956
22121W        W90339  18.721  30.969  10.050
22122W        W90340  35.019  38.818   2.715
22123W        W90341  20.287  39.540   2.224
22124W        W90342  30.971  15.297   0.285
22125W        W90343  43.566  39.577  10.360
22126W        W90344  29.664  42.507  14.984
22127W        W90345  20.790  12.575   1.848
22128W        W90346   6.933  15.275  14.487
22129W        W90347  19.054   1.450   2.455
22130W        W90348  39.425  13.476  13.623
22131W        W90349  44.442  22.005   4.551
22132W        W90350  22.755  21.797   2.467
22133W        W90351   3.843   8.895   5.062
22134W        W90352  39.819  14.240   0.732
22135W        W90353  28.858   3.268   2.200
22136W        W90354  21.972   0.195   4.147
22137W        W90355  16.622  32.621  14.561
22138W        W90356  11.759   0.778  14.319
22139W        W90357  10.265   7.167  12.420
22140W        W90358  12.004  38.335   4.337
22141W        W90359  31.025  42.024  12.827
22142W        W90360  25.731  34.998   2.645
22143W        W90361  31.666  20.061  10.893
22144W        W90362  16.100  44.051  10.760
22145W        W90363  44.831  26.106   2.098
22146W        W90364  17.764  17.859  12.171
22147W        W90365   7.203  41.791  12.710
22148W        W90366  21.123  43.911   0.692
22149W        W90367  31.624  43.741  13.876
22150W        W90368  23.474  15.292   1.383
22151W        W90369  34.177  31.389   2.033
22152W        W90370  30.972  20.820  13.322
22153W        W90371  36.971   0.687   1.699
22154W        W90372   2.210  33.980  11.043
22155W        W90373  23.050  41.784   4.692
22156W        W90374  28.435   0.988  10.633
22157W        W90375   4.799   4.351   3.817
22158W        W90376  21.242   3.435  12.440
22159W        W90377  21.914  42.753   4.528
22160W        W90378  17.285   3.209  14.331
22161W        W90379  14.864   1.773   3.691
22162W        W90380  38.606  31.133   0.071
22163W        W90381   6.331  11.239  13.129
22164W        W90382  39.778  36.449  11.689
22165W        W90383   8.389  10.502   4.334
22166W        W90384  21.608  43.806   4.118
22167W        W90385  34.397  38.558   3.357
22168W        W90386   5.335  18.456   0.244
22169W        W90387  27.660  17.220  10.704
22170W        W90388  35.172  32.231   4.019
22171W        W90389  27.738  33.419   4.072
22172W        W90390  17.675  35.618   4.934
22173W        W90391  32.832  14.266   1.936
22174W        W90392  20.260  22.535  14.138
22175W        W90393  37.958  19.975  12.465
22176W        W90394  39.126  27.536  11.616
22177W        W90395  24.016  16.652   4.552
22178W        W90396   0.791  36.535   4.490
22179W        W90397  30.116  39.470  12.870
22180W        W90398  43.318  34.508   4.789
22181W        W90399  28.138  22.091  14.452
22182W        W90400   6.361   0.406  10.473
22183W        W90401  14.095  37.210  13.546
22184W        W90402  31.190  13.243   0.999
22185W        W90403  21.612   9.800  10.657
22186W        W90404  22.102  43.824   0.981
22187W        W90405  12.779   8.862   1.778
22188W        W90406  40.327   6.928  12.098
22189W        W90407  11.792  42.250   0.863
22190W        W90408  14.273   8.876   3.093
22191W        W90409  35.033   8.960   3.247
22192W        W90410  43.652  41.856   4.932
22193W        W90411  40.140  33.466  11.962
22194W        W90412   5.662  18.163   1.020
22195W        W90413   9.138   2.256  13.109
22196W        W90414  27.678  13.296   2.842
22197W        W90415  36.862  26.159  14.522
22198W        W90416  12.901  27.068   2.979
22199W        W90417  21.465  27.840  11.197
22200W        W90418  35.086  37.061  11.157
22201W        W90419  17.504  12.630   4.889
22202W        W90420  10.067   2.567   4.669
22203W        W90421  38.381   2.085   2.338
22204W        W90422   8.614  37.291  13.851
22205W        W90423   4.591  14.666   4.576
22206W        W90424  27.206   8.879  11.230
22207W        W90425   3.234  15.654   3.710
22208W        W90426  28.863   8.397   3.163
22209W        W90427  23.568   4.442   4.459
22210W        W90428  37.478  26.170   2.307
22211W        W90429  25.223  17.494   3.322
22212W        W90430  13.095  22.712   5.013
22213W        W90431  32.605  14.131  10.618
22214W        W90432   4.681   2.391  14.333
22215W        W90433  14.609  16.673   0.897
22216W        W90434   8.879   8.894   0.021
22217W        W90435  44.287  33.102  11.005
22218W        W90436  27.579  22.182   0.759
22219W        W90437  36.408  15.552  11.652
22220W        W90438   1.491   8.477   2.613
22221W        W90439  26.158  16.877  11.509
22222W        W90440  19.748  37.502  13.748
22223W        W90441  13.217  32.743   2.339
22224W        W90442  11.171   6.594  12.354
22225W        W90443  36.960   4.298   2.861
22226W        W90444  30.684  19.596   4.300
22227W        W90445  24.849  34.781  12.023
22228W        W90446  21.019  22.912  13.466
22229W        W90447  42.848  27.619   2.861
22230W        W90448  42.905  30.888   5.077
22231W        W90449   0.925  12.707  10.721
22232W        W90450  41.009  39.732  12.670
22233W        W90451  25.962  41.954  13.970
22234W        W90452  39.076  42.479   2.575
22235W        W90453  34.733   4.969   0.960
22236W        W90454  25.422  18.724  11.963
22237W        W90455  37.465   9.319  10.779
22238W        W90456  26.418   7.300   0.639
22239W        W90457  23.582  24.250   1.845
22240W        W90458  28.321   9.089   4.365
22241W        W90459   8.884  24.272   4.202
22242W        W90460  40.939  15.789   2.212
22243W        W90461  24.809  23.918  14.863
22244W        W90462  27.375  16.120   3.217
22245W        W90463  44.519  12.793   1.166
22246W        W90464  11.706  20.209   1.769
22247W        W90465  36.373   6.866  10.765
22248W        W90466  11.180  27.649   3.382
22249W        W90467   9.758  34.522   3.322
22250W        W90468   9.291  17.976   5.430
22251W        W90469  11.396   0.316  13.054
22252W        W90470  41.036  35.514   4.192
22253W        W90471  27.264   2.361   4.126
22254W        W90472  14.973  21.653  11.732
22255W        W90473  19.543  10.530  11.020
22256W        W90474  33.907  17.800  10.522
22257W        W90475  15.640  31.874   2.884
22258W        W90476  33.049  44.085   1.657
22259W        W90477  16.196  32.971  14.506
22260W        W90478  19.131  21.696  10.656
22261W        W90479   4.210  12.356   0.297
22262W        W90480   9.836   8.587   4.462
22263W        W90481  13.887  34.469  14.979
22264W        W90482  40.693   6.452   0.511
22265W        W90483  11.574  29.574   3.322
22266W        W90484  14.081  19.594   2.661
22267W        W90485  43.879  37.557   4.139
22268W        W90486  14.023  16.290  12.294
22269W        W90487  28.354  35.977   2.739
22270W        W90488  22.608  28.557  14.046
22271W        W90489   4.820  12.145   1.429
22272W        W90490  19.394  12.870  12.381
22273W        W90491  11.627  41.242   0.965
22274W        W90492  23.238  32.229  13.465
22275W        W90493  23.982   7.774  13.808
22276W        W90494  42.731  36.055   0.538
22277W        W90495  24.074   2.827   4.964
22278W        W90496  14.455  15.529   0.154
22279W        W90497   0.566  16.892  13.482
22280W        W90498  10.135  21.752  14.856
22281W        W90499  17.059  39.167  14.726
22282W        W90500  16.924   4.717   0.978
22283W        W90501   3.197  31.446  12.072
22284W        W90502   4.046  10.059  11.720
22285W        W90503  16.596  39.951   4.491
22286W        W90504  27.626  26.334   5.032
22287W        W90505  30.310   7.915   3.646
22288W        W90506  20.596   8.441   1.054
22289W        W90507   2.777  33.844   4.642
22290W        W90508  37.788   3.757   1.750
22291W        W90509   2.616  31.731   2.421
22292W        W90510  13.972  17.745   4.747
22293W        W90511  20.650   9.963   1.382
22294W        W90512  15.311  11.095  12.656
22295W        W90513  16.585  42.207  11.528
22296W        W90514  11.858  41.116  10.039
22297W        W90515  26.592  26.424   0.511
22298W        W90516   1.277  29.008  11.100
22299W        W90517  12.136  14.776   4.046
22300W        W90518   3.072  25.762   2.853
22301W        W90519  15.184  22.404   3.296
22302W        W90520  39.739  13.854  10.719
22303W        W90521  36.083  37.862   2.764
22304W        W90522  17.835   2.790   0.963
22305W        W90523  21.370   0.875  13.913
22306W        W90524   6.801  43.869  11.979
22307W        W90525  41.980  24.733   3.974
22308W        W90526   8.706  12.804  12.492
22309W        W90527   2.309   5.117  11.175
22310W        W90528   5.875   2.418  10.546
22311W        W90529  43.061  27.430   4.127
22312W        W90530  10.659  18.192  12.013
22313W        W90531  23.034  34.087  10.753
22314W        W90532  31.891  41.795  14.916
22315W        W90533  10.715  38.302  13.426
22316W        W90534  27.080  19.954  14.243
22317W        W90535  35.278  18.810   0.002
22318W        W90536  24.372  39.547  10.706
22319W        W90537   2.241  21.909  11.240
22320W        W90538  16.141  43.540  13.893
22321W        W90539   0.925  39.426   3.306
22322W        W90540  31.376   7.189  12.209
22323W        W90541  13.730  30.093  12.149
22324W        W90542  30.004   8.820  13.378
22325W        W90543  25.352  11.858  11.690
22326W        W90544  20.544   4.329  13.533
22327W        W90545   9.161   9.244  14.712
22328W        W90546  13.392  23.357  10.120
22329W        W90547  42.903  24.048  14.473
22330W        W90548   7.802  25.495  11.894
22331W        W90549  37.731  11.605  14.374
22332W        W90550  15.655  38.060   2.213
22333W        W90551  40.736   9.510   2.589
22334W        W90552  23.238   7.755  12.499
22335W        W90553  28.660   0.534  10.525
22336W        W90554  13.762  11.883  14.390
22337W        W90555  41.993  31.150  12.083
22338W        W90556  20.330  33.286   4.668
22339W        W90557  19.970  24.426  13.378
22340W        W90558  25.146   1.754   3.398
22341W        W90559  24.620   9.294  10.725
22342W        W90560  27.002  25.735   1.854
22343W        W90561   6.379  14.602  12.074
22344W        W90562   7.098  32.673   3.323
22345W        W90563  19.223  20.949   4.450
22346W        W90564  10.939  35.598  13.381
22347W        W90565  40.216   3.938   2.866
22348W        W90566  33.414   4.296  12.126
22349W        W90567  22.652   9.365  10.750
22350W        W90568   2.505  20.676  14.506
22351W        W90569  41.747  21.286  14.511
22352W        W90570  34.536  38.248   1.575
22353W        W90571  13.444  10.111   1.936
22354W        W90572   3.303  22.439  11.557
22355W        W90573  25.141  43.770  13.030
22356W        W90574  12.738  42.904  13.918
22357W        W90575  12.599  14.310  13.004
22358W        W90576  37.519   4.934   4.073
22359W        W90577  11.069  44.841  11.849
22360W        W90578   8.660   4.678   4.889
22361W        W90579  32.272  13.770   4.486
22362W        W90580  12.365  22.833   1.517
22363W        W90581  36.675  43.033   2.308
22364W        W90582  41.967  29.669  11.261
22365W        W90583   6.408  38.967   1.405
22366W        W90584  25.193  26.227   3.629
22367W        W90585  18.592  30.703  13.582
22368W        W90586   3.729  31.584  13.828
22369W        W90587  38.711  38.519   3.975
22370W        W90588  30.020  37.044  14.462
22371W        W90589  15.249  11.194   1.776
22372W        W90590  39.164  26.521  11.669
22373W        W90591  11.082   3.205   0.844
22374W        W90592  13.257   2.656  11.149
22375W        W90593  41.454  14.743  13.933
22376W        W90594  29.227  30.915   3.304
22377W        W90595   7.816  35.425  14.333
22378W        W90596  39.876  42.713   0.410
22379W        W90597   0.520  34.416   0.285
22380W        W90598  39.294   6.477  14.865
22381W        W90599  31.098  31.615  14.563
22382W        W90600  35.791   6.407   2.351
22383W        W90601  19.343  31.832  10.615
22384W        W90602   2.387  36.826   3.929
22385W        W90603   2.021  25.055  11.240
22386W        W90604  10.920  18.463   3.989
22387W        W90605  15.935  13.655   3.543
22388W        W90606  39.628  14.784   3.245
22389W        W90607  40.597  41.326  12.138
22390W        W90608   8.788  17.944  14.785
22391W        W90609  38.366  32.806   1.625
22392W        W90610  13.494   1.397  14.102
22393W        W90611  20.273   6.784  12.386
22394W        W90612  25.703  21.081  10.080
22395W        W90613  29.021  36.320  13.719
22396W        W90614  40.499  27.853  13.655
22397W        W90615  38.655   6.347   0.289
22398W        W90616  37.585  43.031   3.263
22399W        W90617  43.563  21.201   3.465
22400W        W90618  22.025  23.006  14.325
22401W        W90619  21.991   9.172  13.982
22402W        W90620  44.019  24.243   4.624
22403W        W90621   7.122  20.667   3.828
22404W        W90622  33.346  22.334  10.256
22405W        W90623   7.627  15.784  12.382
22406W        W90624  24.980  43.948   4.740
22407W        W90625   7.114  14.361   1.979
22408W        W90626  24.271  18.445  13.663
22409W        W90627  24.517  43.013   4.246
22410W        W90628   8.207  28.897  11.183
22411W        W90629   0.084  27.326  11.627
22412W        W90630  15.175  40.309   2.261
22413W        W90631  44.500  36.025   0.397
22414W        W90632  13.805  22.040   2.458
22415W        W90633  33.782  35.823  13.950
22416W        W90634  27.416  37.070   1.726
22417W        W90635  41.937   7.402   4.581
22418W        W90636   4.188   5.890  11.388
22419W        W90637   7.738  12.182  14.028
22420W        W90638  15.334  25.026  11.161
22421W        W90639  31.300  18.223  14.459
22422W        W90640   6.850  26.704  14.250
22423W        W90641  11.222   0.830  13.027
22424W        W90642   1.200  26.180  10.671
22425W        W90643  35.378  10.725   3.627
22426W        W90644  13.094   4.712   1.418
22427W        W90645   6.877  40.809   4.207
22428W        W90646  23.975   5.259   1.366
22429W        W90647  28.211  38.058  12.287
22430W        W90648  41.238  33.604   0.257
22431W        W90649  43.827   6.752  11.619
22432W        W90650  32.159  18.714   3.687
22433W        W90651  19.535   3.826  14.583
22434W        W90652  13.262   9.758  14.413
22435W        W90653  35.506  24.730   4.230
22436W        W90654  44.479  34.537   1.377
22437W        W90655  41.713  40.566   0.790
22438W        W90656  15.737  13.797   5.172
22439W        W90657  22.106  44.038   1.892
22440W        W90658  25.519  11.251  10.744
22441W        W90659  26.688  30.127  11.573
22442W        W90660  16.837  37.902  12.982
22443W        W90661  26.046  27.986   4.778
22444W        W90662  32.365  10.329  14.518
22445W        W90663  14.335  12.756  10.920
22446W        W90664   5.062  37.672   5.100
22447W        W90665  28.479  42.423  11.603
22448W        W90666  12.641  14.199   3.655
22449W        W90667  35.496  26.044  10.404
22450W        W90668   6.228   7.219   1.403
22451W        W90669   5.329  34.903  12.080
22452W        W90670   5.918  40.425   3.456
22453W        W90671  26.968  33.581  12.472
22454W        W90672  10.264   2.961   4.382
22455W        W90673  17.789  35.834  12.932
22456W        W90674  11.640  11.893  14.942
22457W        W90675  28.606   7.810  13.418
22458W        W90676  23.564   4.851   1.396
22459W        W90677   2.415  37.784   2.611
22460W        W90678  29.384  16.211  13.671
22461W        W90679  42.831  22.753   3.655
22462W        W90680  25.205   1.585   1.444
22463W        W90681  19.463  24.076  11.196
22464W        W90682   4.379  28.491  13.837
22465W        W90683   4.377  15.372  12.860
22466W        W90684  14.676  34.836  14.447
22467W        W90685  17.536   2.817  14.980
22468W        W90686  42.475  39.788  12.019
22469W        W90687  25.675  22.227   2.721
22470W        W90688  37.776   8.439  14.398
22471W        W90689   6.926  29.090  13.506
22472W        W90690  16.652  25.585   0.246
22473W        W90691  39.611   5.203   3.800
22474W        W90692  29.661   4.202   0.807
22475W        W90693  35.443  33.037   1.806
22476W        W90694   0.317  22.682  10.864
22477W        W90695  17.965  36.015   4.711
22478W        W90696  37.347  20.785   2.849
22479W        W90697   4.144  24.745   1.818
22480W        W90698  14.295  10.314  10.598
22481W        W90699  24.048  18.659   4.077
22482W        W90700   8.837  20.945  12.856
22483W        W90701  26.665  19.741  14.494
22484W        W90702  43.108   4.539   1.821
22485W        W90703  10.593  18.166   4.274
22486W        W90704  16.340  44.944   1.369
22487W        W90705  43.171   1.722  14.999
22488W        W90706   3.491  16.790  12.981
22489W        W90707  21.278  15.117   1.439
22490W        W90708  16.727   8.283  14.525
22491W        W90709  10.255  44.836   1.711
22492W        W90710  34.401  17.659  10.399
22493W        W90711  25.900  27.694  13.181
22494W        W90712  13.437  20.679   2.247
22495W        W90713  31.010   8.544  14.958
22496W        W90714  33.903  31.812   0.214
22497W        W90715   8.904  42.868   4.922
22498W        W90716  40.355  27.129   2.391
22499W        W90717  10.318   5.010   4.993
22500W        W90718  43.044  10.807   1.749
22501W        W90719   7.656  37.483  11.253
22502W        W90720  26.047  30.308   1.701
22503W        W90721   3.286  25.509  11.212
22504W        W90722  31.476  32.801  10.677
22505W        W90723   7.294  32.634  10.826
22506W        W90724  28.064   4.875   1.368
22507W        W90725   6.271  12.694   4.694
22508W        W90726  14.017   0.072   0.946
22509W        W90727  36.838   5.424  13.872
22510W        W90728  19.889  12.924  12.217
22511W        W90729   7.828  24.125   1.611
22512W        W90730  34.317  38.803   1.973
22513W        W90731  43.066  11.779  13.431
22514W        W90732  13.243  37.571   2.709
22515W        W90733  11.775  30.497   0.435
22516W        W90734  42.892  14.935  14.715
22517W        W90735  43.094  24.292   3.662
22518W        W90736  22.483  14.997   2.047
22519W        W90737  11.218   8.063  14.924
22520W        W90738  40.297   1.300  14.826
22521W        W90739   5.440  13.341  11.142
22522W        W90740   2.756   7.974  12.412
22523W        W90741  27.276  30.413   0.893
22524W        W90742  11.114  23.062   4.138
22525W        W90743  36.335  27.017   1.426
22526W        W90744   8.118  41.131  12.018
22527W        W90745   4.185   5.767  11.872
22528W        W90746   7.423  28.463  13.918
22529W        W90747   9.695  15.737   2.276
22530W        W90748   4.958  12.983   1.852
22531W        W90749  19.194  11.470  10.783
22532W        W90750  32.889  13.011   2.335
22533W        W90751  40.866  26.647  14.480
22534W        W90752  17.488  38.120  12.209
22535W        W90753  38.900  43.917  10.597
22536W        W90754  18.641  33.419  11.646
22537W        W90755  31.181   6.474   5.393
22538W        W90756  13.971  26.645  14.449
22539W        W90757  10.628  37.967  12.053
22540W        W90758  15.137  19.526   3.686
22541W        W90759  10.816  23.668   0.782
22542W        W90760  22.310  44.773   4.124
22543W        W90761  38.887   8.874   4.052
22544W        W90762  44.039  14.256  11.585
22545W        W90763  11.814   0.663   0.721
22546W        W90764  37.869   3.239  13.378
22547W        W90765  42.936  31.149  11.549
22548W        W90766  35.937  24.477  12.144
22549W        W90767  19.584  36.419  13.751
22550W        W90768  12.948  21.944  11.571
22551W        W90769  33.908  28.120  12.105
22552W        W90770  27.800  39.771   2.777
22553W        W90771  13.114  41.482   4.598
22554W        W90772  24.930  35.887  12.987
22555W        W90773   7.677  25.027   1.195
22556W        W90774  44.382  23.078  13.548
22557W        W90775  24.137   9.108  10.742
22558W        W90776  35.272  39.421  11.241
22559W        W90777  16.302  14.634   2.248
22560W        W90778   1.962  20.361   0.174
22561W        W90779  40.530   2.663  14.251
22562W        W90780   1.443  15.693   1.361
22563W        W90781  30.996  15.093   3.336
22564W        W90782  10.287  36.489   3.695
22565W        W90783   3.754  14.776  10.847
22566W        W90784   3.410  30.360  13.904
22567W        W90785  32.895  35.414  12.980
22568W        W90786  40.892  11.708  10.725
22569W        W90787  26.686  39.688  12.499
22570W        W90788   0.286   6.005   2.765
22571W        W90789   7.615  37.605  10.767
22572W        W90790  30.055  21.075   2.637
22573W        W90791  25.593   9.427  12.457
22574W        W90792  35.414  29.917   4.255
22575W        W90793  18.740   9.132   3.314
22576W        W90794  43.819  28.443   2.524
22577W        W90795  10.662  37.646   4.459
22578W        W90796  13.922   6.353  13.900
22579W        W90797   2.346  16.369  10.724
22580W        W90798   5.299  30.005   1.924
22581W        W90799   3.806  40.526  10.051
22582W        W90800  44.197  14.085  10.682
22583W        W90801  39.627  26.438  12.053
22584W        W90802  38.181  12.844   3.243
22585W        W90803  21.610   6.321  10.826
22586W        W90804  13.164  24.317   0.398
22587W        W90805   3.935  18.665  13.399
22588W        W90806  33.432   4.886   2.878
22589W        W90807  35.942   7.837  10.648
22590W        W90808  40.575  28.548   3.319
22591W        W90809  27.013  14.739   4.269
22592W        W90810  40.105  29.035  11.786
22593W        W90811  38.381  30.417   4.449
22594W        W90812  31.641  34.508   0.914
22595W        W90813   0.535  33.727   3.521
22596W        W90814  34.760  24.162   0.820
22597W        W90815  20.121   4.250   2.163
22598W        W90816   1.972  40.821   2.132
22599W        W90817  34.054  20.649   4.255
22600W        W90818  22.160  23.859   2.673
22601W        W90819   0.489  13.073  12.485
22602W        W90820  23.068  43.338  10.729
22603W        W90821  18.033  11.713  12.533
22604W        W90822  15.685   8.203   0.323
22605W        W90823  25.525  41.323   0.889
22606W        W90824  40.979  12.553   4.218
22607W        W90825  21.957  35.934  11.146
22608W        W90826  43.124  26.114  13.018
22609W        W90827  35.946   8.347  13.051
22610W        W90828   4.304  36.332  12.495
22611W        W90829  27.892  33.604  14.379
22612W        W90830  35.604   5.991   0.244
22613W        W90831  26.474  15.372  13.091
22614W        W90832  12.550  34.474  14.659
22615W        W90833  28.603   7.131  12.581
22616W        W90834  32.351  14.739   3.656
22617W        W90835   9.943  14.222  14.915
22618W        W90836  22.189  25.607  11.713
22619W        W90837  22.258   9.803   2.748
22620W        W90838  20.729  20.803  12.089
22621W        W90839   0.057  22.039  11.516
22622W        W90840   5.511  43.393   0.870
22623W        W90841  23.013  43.925   4.457
22624W        W90842  28.165   7.766   4.358
22625W        W90843  18.772  26.467   1.009
22626W        W90844  31.365  16.264  11.475
22627W        W90845  24.069  21.216  13.048
22628W        W90846   0.345   7.052  12.860
22629W        W90847   6.128  38.716  14.662
22630W        W90848   8.690  40.760  13.937
22631W        W90849   3.238  33.951   1.315
22632W        W90850  23.011   7.253  14.826
22633W        W90851  16.964  12.333   0.817
22634W        W90852   6.248  34.350  13.882
22635W        W90853   1.475   5.905   0.243
22636W        W90854  11.239  21.680  11.449
22637W        W90855  16.679  33.691  13.141
22638W        W90856   5.814   6.947   4.843
22639W        W90857   5.724   1.449   4.488
22640W        W90858  16.019  11.692  12.383
22641W        W90859  31.951  30.704  13.025
22642W        W90860  25.517   4.510   2.699
22643W        W90861  42.794  28.088   4.653
22644W        W90862  31.877  30.110   1.299
22645W        W90863  29.952  40.968   3.205
22646W        W90864  11.785  22.779  13.455
22647W        W90865  10.918   1.723  12.917
22648W        W90866  17.715  40.789   4.140
22649W        W90867   7.516  10.238   3.435
22650W        W90868  39.049  32.695   1.004
22651W        W90869  43.725  37.552   5.109
22652W        W90870  40.087  12.246   2.867
22653W        W90871  17.226  29.454   9.942
22654W        W90872   7.923   2.193  10.517
22655W        W90873  19.740   8.273   1.280
22656W        W90874   9.379  27.194  10.978
22657W        W90875  27.523   0.760   2.842
22658W        W90876  38.512  43.788  11.514
22659W        W90877   5.759  38.196   2.447
22660W        W90878  44.403  30.189   4.133
22661W        W90879  10.820  36.604   2.801
22662W        W90880   6.955  29.137   0.861
22663W        W90881   4.671  33.342   4.068
22664W        W90882  21.490   4.183  13.541
22665W        W90883  32.118   5.901  14.818
22666W        W90884  36.510  40.322   1.473
22667W        W90885  13.425  20.329   3.837
22668W        W90886  33.430  40.826   4.189
22669W        W90887  42.101  23.033   4.631
22670W        W90888  21.745  28.136  12.940
22671W        W90889  34.184  38.280  13.929
22672W        W90890  29.097   7.615   4.282
22673W        W90891  20.246  40.058  11.045
22674W        W90892  41.319   8.116  13.433
22675W        W90893  39.612  14.326  12.346
22676W        W90894  23.302  22.700  10.731
22677W        W90895  33.432  13.963  11.187
22678W        W90896  25.997   0.194   2.719
22679W        W90897  41.385  21.757  10.674
22680W        W90898  19.253  31.519  13.328
22681W        W90899  17.277  40.348  13.895
22682W        W90900  13.600  22.617   0.848
22683W        W90901   0.871  14.417  11.726
22684W        W90902  10.744  16.648   3.884
22685W        W90903   9.915  20.321  11.599
22686W        W90904  31.925  43.980   1.300
22687W        W90905  31.449   3.402  11.980
22688W        W90906  39.285  25.613  12.625
22689W        W90907  37.437  40.026  10.357
22690W        W90908  41.937  23.479  12.059
22691W        W90909   9.150  19.612   5.095
22692W        W90910   4.754  10.654  10.640
22693W        W90911   8.847   3.411  10.557
22694W        W90912  26.793  18.081  11.232
22695W        W90913  40.575  19.255   4.514
22696W        W90914  36.593   9.604   4.753
22697W        W90915   5.301  40.512  13.490
22698W        W90916  29.982  11.665  13.901
22699W        W90917  28.569  44.171  11.861
22700W        W90918   4.333  35.082  13.096
22701W        W90919  19.763  21.601   3.240
22702W        W90920  19.482  11.781  10.478
22703W        W90921   7.439  10.681   3.654
22704W        W90922  35.380   5.404   1.426
22705W        W90923  18.003  37.811   2.013
22706W        W90924   9.285  38.450   3.181
22707W        W90925  14.633  17.764   3.672
22708W        W90926  32.439  31.950  14.311
22709W        W90927  42.931  16.016   4.063
22710W        W90928   4.205  30.424   3.851
22711W        W90929  13.493  42.819   4.606
22712W        W90930  44.452   6.852  13.990
22713W        W90931   0.803  26.406   4.322
22714W        W90932  35.896  16.217  13.338
22715W        W90933  42.434   8.378   4.390
22716W        W90934  22.461  23.949  12.412
22717W        W90935  10.975  17.288  13.994
22718W        W90936  11.546   4.409  10.951
22719W        W90937   5.211   1.884   1.942
22720W        W90938  28.080  33.959   1.951
22721W        W90939  26.706  28.102  14.464
22722W        W90940  19.603  28.497  10.777
22723W        W90941  30.651   6.759   4.750
22724W        W90942  17.143  14.274   0.269
22725W        W90943   2.997   8.410   1.635
22726W        W90944   7.333  40.026   4.526
22727W        W90945   5.772  22.029   0.518
22728W        W90946  14.305  19.214   4.924
22729W        W90947   8.831  11.340  14.801
22730W        W90948  19.076  17.371  10.490
22731W        W90949  23.894  13.172  10.594
22732W        W90950  36.060  39.949  10.870
22733W        W90951  18.503  36.608   0.706
22734W        W90952  20.045   4.711  10.915
22735W        W90953  43.428   0.760   2.628
22736W        W90954  15.235  31.628   3.659
22737W        W90955   5.334   5.164   4.316
22738W        W90956  13.791  10.070  13.407
22739W        W90957  34.836  37.565   5.097
22740W        W90958   0.322   4.810  12.484
22741W        W90959  11.269   2.790  11.672
22742W        W90960  28.600   9.454  13.085
22743W        W90961  37.776  33.081  11.018
22744W        W90962  19.748  34.371  14.896
22745W        W90963  14.835  19.251  11.840
22746W        W90964   4.203   1.390  11.175
22747W        W90965  14.225   8.307  13.978
22748W        W90966  33.975  15.790  11.322
22749W        W90967  24.535   6.858   3.318
22750W        W90968  19.237  17.617  12.901
22751W        W90969  38.542  10.129  11.689
22752W        W90970  23.346  34.847  13.994
22753W        W90971   3.000  25.456  10.754
22754W        W90972  44.815  10.072   2.320
22755W        W90973  22.500  33.137   4.048
22756W        W90974  36.994  16.040  12.030
22757W        W90975  13.140   9.082   4.231
22758W        W90976  31.015  11.274  14.583
22759W        W90977   0.424  30.919  14.361
22760W        W90978   0.128  10.826  11.488
22761W        W90979  26.105  43.366  11.636
22762W        W90980  22.771   2.872  12.835
22763W        W90981  14.721  26.271   4.854
22764W        W90982  32.016   7.366   3.560
22765W        W90983   3.478  11.879  12.608
22766W        W90984  23.302   4.186   4.071
22767W        W90985  37.330  22.007  12.561
22768W        W90986  44.412  32.683  10.738
22769W        W90987  15.077  39.106  11.443
22770W        W90988  34.403  20.282   4.127
22771W        W90989  41.600  10.582   3.626
22772W        W90990  32.398  16.255  14.872
22773W        W90991  28.671   1.934  14.897
22774W        W90992  28.491  13.186  12.477
22775W        W90993  12.959  20.979  14.930
22776W        W90994  11.225   7.972  14.179
22777W        W90995  44.027  13.036  10.839
22778W        W90996  29.805  37.379   3.158
22779W        W90997   3.870   5.988  13.799
22780W        W90998  34.524   8.186   2.248
22781W        W90999  34.116  18.216  10.770
22782W        W91000  20.636   1.936  12.942
22783W        W91001  12.360   8.236  14.554
22784W        W91002   4.943  35.389   3.629
22785W        W91003  24.555  28.817  14.058
22786W        W91004  14.093  17.977   3.694
22787W        W91005  14.620  36.824  12.477
22788W        W91006  14.041   6.154   2.394
22789W        W91007   4.441  28.105  12.579
22790W        W91008   5.994  36.456  14.870
22791W        W91009  33.858  16.171   4.613
22792W        W91010   1.902  12.162   0.734
22793W        W91011  12.400  44.548   3.789
22794W        W91012  34.929  30.866  11.589
22795W        W91013  38.721  12.246  13.131
22796W        W91014  32.516  29.307  14.372
22797W        W91015  30.911  42.440   3.700
22798W        W91016  35.868  30.677   4.412
22799W        W91017  33.165  26.443   0.342
22800W        W91018  15.278  32.619   1.320
22801W        W91019   2.381  37.336  10.237
22802W        W91020   4.352  11.828  12.578
22803W        W91021  31.553  40.904   0.553
22804W        W91022  35.987  16.782  12.933
22805W        W91023  11.650  20.034  14.075
22806W        W91024  14.719   4.869   2.894
22807W        W91025  27.911  36.879   2.613
22808W        W91026  11.338  36.626  12.084
22809W        W91027  15.471   9.146   3.321
22810W        W91028  32.945  22.267  13.588
22811W        W91029  16.580  23.741  14.041
22812W        W91030   5.446   9.704   2.099
22813W        W91031  24.240   1.942   1.355
22814W        W91032  13.651  32.125   2.756
22815W        W91033  36.016  22.154   4.935
22816W        W91034  11.779   6.938   0.927
22817W        W91035  39.785  23.514   1.792
22818W        W91036  31.281   3.641   3.172
22819W        W91037  40.206  25.039   4.229
22820W        W91038  35.920  30.404  11.194
22821W        W91039  21.570  27.536  10.674
22822W        W91040  20.169  29.259   1.977
22823W        W91041  10.881  38.550  10.336
22824W        W91042   6.995  39.862  12.961
22825W        W91043   1.128  33.595  13.354
22826W        W91044  40.348  14.120   4.603
22827W        W91045  21.075  23.590   0.416
22828W        W91046   9.418  36.296  12.499
22829W        W91047   4.155   2.348   0.389
22830W        W91048   1.961  29.434  11.170
22831W        W91049  16.715  29.111  12.268
22832W        W91050  18.640  19.067  11.585
22833W        W91051  28.291  19.810   2.266
22834W        W91052  39.849  14.885  12.523
22835W        W91053  20.690  11.737   0.828
22836W        W91054  31.390  38.824   1.891
22837W        W91055  11.713  30.199  12.160
22838W        W91056  35.399  13.781  12.336
22839W        W91057  40.542  16.285  11.656
22840W        W91058  43.586  19.213   4.585
22841W        W91059   4.758  20.155   1.324
22842W        W91060  29.970  12.599  11.872
22843W        W91061  44.295  29.438   3.090
22844W        W91062  28.897  18.616  13.797
22845W        W91063  36.059   4.906  14.799
22846W        W91064  15.620  41.631  14.260
22847W        W91065   1.931  20.747  13.758
22848W        W91066  28.426  32.090   0.864
22849W        W91067  14.546  16.736  11.816
22850W        W91068  34.946  39.468   0.438
22851W        W91069  20.207  15.330  13.746
22852W        W91070   9.670   6.878  14.411
22853W        W91071   7.880   7.862  12.030
22854W        W91072   1.933  23.146  13.653
22855W        W91073  13.590  32.908  10.891
22856W        W91074  44.954  27.098   2.171
22857W        W91075  23.657  12.252   0.787
22858W        W91076  43.706  20.293   1.215
22859W        W91077  38.050  27.393  13.871
22860W        W91078  24.105  36.332   0.504
22861W        W91079  21.665  22.769  10.542
22862W        W91080   2.756  18.229   0.776
22863W        W91081   8.532   9.052   1.905
22864W        W91082   7.314  41.934   2.978
22865W        W91083  12.790  41.018   0.336
22866W        W91084  37.484  34.113   2.801
22867W        W91085  29.159  26.107   4.666
22868W        W91086  13.350  38.074   3.624
22869W        W91087  28.644  35.057  12.488
22870W        W91088  11.656  39.738   0.869
22871W        W91089  31.943  35.626  12.855
22872W        W91090   6.264   9.348  12.172
22873W        W91091  40.862  42.315   1.087
22874W        W91092  23.886  41.943  11.977
22875W        W91093   9.943  40.494  11.912
22876W        W91094  33.875  19.161  14.503
22877W        W91095  30.151  27.124   3.522
22878W        W91096   6.434  16.504  13.509
22879W        W91097  21.710  26.442   1.332
22880W        W91098  23.530  35.392   2.957
22881W        W91099  20.660  28.156  14.015
22882W        W91100   3.206   5.546   4.607
22883W        W91101   5.044  11.133  14.852
22884W        W91102  18.857   5.679  14.268
22885W        W91103   6.236   2.275   4.740
22886W        W91104   8.892  16.188   3.605
22887W        W91105   7.579   3.296  12.514
22888W        W91106  11.590  42.060  14.462
22889W        W91107   1.197  17.695  10.578
22890W        W91108  18.781  35.171   0.852
22891W        W91109  25.427  21.045   0.255
22892W        W91110  12.142  43.857  11.654
22893W        W91111  30.077   2.370   0.739
22894W        W91112  32.191  22.677  13.033
22895W        W91113   8.906  28.608  11.818
22896W        W91114  25.716   0.436   2.264
22897W        W91115  25.342  39.703  12.207
22898W        W91116  42.567  23.921   2.307
22899W        W91117   1.265  14.341   4.372
22900W        W91118  28.668  14.803  14.850
22901W        W91119  17.240   0.077   3.640
22902W        W91120   4.343  16.771   3.792
22903W        W91121  30.367  25.248  11.249
22904W        W91122  22.648  24.889   3.254
22905W        W91123  38.236  28.901   3.736
22906W        W91124  24.296  30.007   3.708
22907W        W91125   5.696  23.497   2.231
22908W        W91126   1.417  17.575  12.373
22909W        W91127  26.566  14.071  14.370
22910W        W91128  26.587  20.263  12.595
22911W        W91129  25.014  10.427  14.323
22912W        W91130   7.428  26.613  13.785
22913W        W91131   7.458  34.541   1.248
22914W        W91132  27.426  24.225   0.393
22915W        W91133  24.062  31.687  13.545
22916W        W91134  22.222  16.300  13.432
22917W        W91135  23.039  38.304  11.120
22918W        W91136  38.935  31.659   3.536
22919W        W91137  15.068  21.588  14.343
22920W        W91138  26.316  25.971   1.585
22921W        W91139  35.506  39.499  12.455
22922W        W91140  40.309  12.636   2.614
22923W        W91141  39.077  30.762   4.906
22924W        W91142  22.193  16.197   4.617
22925W        W91143  33.209  35.896  14.810
22926W        W91144  21.825  10.306  10.588
22927W        W91145   0.260  29.182  11.554
22928W        W91146  11.267  20.486  14.031
22929W        W91147  42.891  21.520  11.388
22930W        W91148   7.210   0.651  12.451
22931W        W91149   4.518   3.516  12.981
22932W        W91150  14.498  35.507   3.224
22933W        W91151  28.637  27.173  10.740
22934W        W91152  37.994   4.806   9.866
22935W        W91153  19.720  28.753   3.212
22936W        W91154  41.808   4.980  14.364
22937W        W91155  39.412  12.632   3.588
22938W        W91156   5.315  34.041  13.139
22939W        W91157   6.299  37.483  12.406
22940W        W91158  16.402  16.491  14.933
22941W        W91159  13.075  17.737   2.390
22942W        W91160  36.602  10.300  10.489
22943W        W91161  24.193   2.431   4.646
22944W        W91162  16.996  13.281  12.909
22945W        W91163  19.130  11.103   0.408
22946W        W91164  22.175  41.991   4.174
22947W        W91165  41.518  26.731  10.475
22948W        W91166  22.686  28.380   2.364
22949W        W91167  16.066  16.740   0.274
22950W        W91168  22.577  42.842   0.729
22951W        W91169   0.483  21.993  14.163
22952W        W91170  26.268  11.208   3.424
22953W        W91171  12.152  30.592  14.031
22954W        W91172  36.358   0.297   2.175
22955W        W91173  13.142  22.099  10.609
22956W        W91174  18.556   7.742  10.752
22957W        W91175   2.588   5.312  14.832
22958W        W91176  22.505  15.198  11.193
22959W        W91177  31.660  40.542  12.626
22960W        W91178  33.997  37.081   0.391
22961W        W91179  40.913  37.888   0.878
22962W        W91180  12.166  16.175  14.216
22963W        W91181  42.778  29.842  11.130
22964W        W91182   9.930  40.966  14.295
22965W        W91183  36.881  44.310   1.890
22966W        W91184   2.562  27.119   3.052
22967W        W91185  28.179  20.593  13.132
22968W        W91186  36.106  13.557  11.711
22969W        W91187   2.390  42.775  12.929
22970W        W91188  43.759  32.531  14.411
22971W        W91189  16.628  22.143  10.881
22972W        W91190  15.746  14.031   9.948
22973W        W91191  10.898   5.732   2.628
22974W        W91192  42.887  34.800   4.127
22975W        W91193  36.976  25.872   4.546
22976W        W91194  30.499  32.602  11.653
22977W        W91195  41.524  30.688   3.658
22978W        W91196  33.837  31.053  10.830
22979W        W91197  34.751  40.761  12.406
22980W        W91198  33.883  15.634   0.285
22981W        W91199  18.134  22.635   0.753
22982W        W91200   8.399  11.132   2.807
22983W        W91201   3.181  14.870  14.389
22984W        W91202   6.930  10.846  13.778
22985W        W91203  33.508  23.433   3.067
22986W        W91204   8.572  44.016  14.867
22987W        W91205   6.798  39.159   2.177
22988W        W91206  11.923  29.974   1.154
22989W        W91207  34.397  41.002  13.320
22990W        W91208   2.812   8.838  13.474
22991W        W91209  39.098   1.446   1.254
22992W        W91210  21.839   0.041  12.212
22993W        W91211  32.979  16.637  11.595
22994W        W91212  34.534   1.546   0.612
22995W        W91213  17.575   2.933   3.763
22996W        W91214  28.360  13.602  12.954
22997W        W91215   4.343  21.325  14.286
22998W        W91216  33.893  31.096  13.122
22999W        W91217  42.521   3.536   3.112
23000W        W91218  39.373  40.049  12.817
23001W        W91219  43.582   5.980  10.363
23002W        W91220  38.953   7.587   1.855
23003W        W91221   7.433  30.912   3.361
23004W        W91222  42.199  38.568   0.826
23005W        W91223  15.164  30.094  10.586
23006W        W91224  38.580  29.655   2.133
23007W        W91225  15.719  40.097  12.541
23008W        W91226   5.658  39.067   2.608
23009W        W91227   8.748  11.896   4.168
23010W        W91228  24.216   9.381   1.732
23011W        W91229   3.570   0.968   4.410
23012W        W91230  26.573   8.077  11.147
23013W        W91231  17.876  43.680   4.198
23014W        W91232  32.143   7.152   3.061
23015W        W91233  25.036  44.347   2.744
23016W        W91234  44.521   6.638  13.132
23017W        W91235  27.221   5.877   4.104
23018W        W91236  38.248   3.936  10.263
23019W        W91237  15.972   7.425  13.349
23020W        W91238  12.086  20.798   0.212
23021W        W91239   6.448  17.084   1.363
23022W        W91240  41.838  14.605  13.601
23023W        W91241  44.502   3.665  12.949
23024W        W91242  26.044  25.529  13.500
23025W        W91243   5.200  13.906   4.173
23026W        W91244  29.076  32.907   4.195
23027W        W91245  21.849   1.805   3.122
23028W        W91246   1.483   7.043  11.953
23029W        W91247  36.186  10.473   2.441
23030W        W91248  30.589  39.101   4.147
23031W        W91249  27.096  32.383  10.516
23032W        W91250  20.027  25.202   1.923
23033W        W91251  17.081  31.038  13.500
23034W        W91252  32.193   4.185  11.487
23035W        W91253  37.327  20.569  12.614
23036W        W91254  28.609  39.329   2.784
23037W        W91255  24.042  24.647   4.990
23038W        W91256  21.739  16.524  14.325
23039W        W91257  26.007   2.975   0.097
23040W        W91258  35.893  24.175   1.375
23041W        W91259  36.947  34.609  13.549
23042W        W91260  25.753  32.423  11.203
23043W        W91261  34.003   1.230   0.499
23044W        W91262  34.639  23.628   2.439
23045W        W91263   5.398   6.682   0.000
23046W        W91264  12.321  14.761  14.982
23047W        W91265   0.450  32.220  13.395
23048W        W91266  44.101  38.027  14.916
23049W        W91267  15.122  18.283   0.987
23050W        W91268  23.008  27.416  14.274
23051W        W91269  44.343  28.099  14.294
23052W        W91270  25.150   7.961  13.124
23053W        W91271  16.149  27.866   1.048
23054W        W91272   6.425  30.467  11.424
23055W        W91273  12.203  39.537  12.924
23056W        W91274  16.281  32.979   1.804
23057W        W91275  22.643  18.572   0.377
23058W        W91276  25.127  14.601  13.525
23059W        W91277   9.445  14.828  11.200
23060W        W91278  12.244   9.887   2.210
23061W        W91279  35.889  38.110  11.589
23062W        W91280  10.086  42.807   3.269
23063W        W91281  26.837  31.303  14.310
23064W        W91282   1.911  26.570  12.378
23065W        W91283   2.065   2.384   2.372
23066W        W91284  12.205  29.270   0.368
23067W        W91285  18.147  40.814   3.452
23068W        W91286  40.912  29.625   4.672
23069W        W91287  40.034  34.819  12.503
23070W        W91288  22.191  15.845  12.535
23071W        W91289  25.813  34.877  14.387
23072W        W91290   2.324  35.507   2.919
23073W        W91291  27.228  31.208   1.787
23074W        W91292  28.322  23.213  13.290
23075W        W91293  35.135  19.965   1.287
23076W        W91294  32.164  24.300   0.403
23077W        W91295  36.990   8.782   4.819
23078W        W91296  20.071  37.124   3.579
23079W        W91297  13.858  21.257   4.785
23080W        W91298  22.438  19.254  11.687
23081W        W91299  41.734  11.827   0.753
23082W        W91300  10.488  19.243   0.727
23083W        W91301  44.310  34.907   1.775
23084W        W91302   0.502  26.912   1.678
23085W        W91303   2.722  19.681   0.452
23086W        W91304  39.529  15.092  10.471
23087W        W91305  39.542  17.020   3.848
23088W        W91306  20.808   4.731   1.893
23089W        W91307   6.702   3.220   2.764
23090W        W91308  44.401  24.947   4.840
23091W        W91309  29.876   0.552   0.480
23092W        W91310  18.350  38.623   0.914
23093W        W91311  37.844  23.279   0.858
23094W        W91312  14.809   8.949  12.677
23095W        W91313   3.181   8.260  11.078
23096W        W91314   0.401  22.458  14.365
23097W        W91315   7.116  10.853   2.719
23098W        W91316  27.290  40.859   4.753
23099W        W91317   2.526   1.739   1.150
23100W        W91318  39.952   6.802  14.097
23101W        W91319   2.740  22.162  12.164
23102W        W91320  35.412  13.538  10.486
23103W        W91321  20.991  40.905  13.832
23104W        W91322  24.776  11.310   4.077
23105W        W91323   9.028  37.031   2.703
23106W        W91324   1.367  30.680   4.737
23107W        W91325   7.776  30.671  11.238
23108W        W91326  12.232  14.007  13.833
23109W        W91327   8.870  28.129  14.856
23110W        W91328  39.285  30.512   0.835
23111W        W91329  23.685  31.408  13.299
23112W        W91330  29.173  34.401   1.158
23113W        W91331  43.873  10.249  14.576
23114W        W91332   0.541  42.523   2.252
23115W        W91333  20.034  16.368  12.471
23116W        W91334  36.035   0.912  10.724
23117W        W91335  26.055   3.441  11.127
23118W        W91336  18.602   5.264   0.981
23119W        W91337  41.870   5.355  11.193
23120W        W91338   3.943  30.848   5.053
23121W        W91339   4.713  41.410   3.147
23122W        W91340   5.853   1.094  11.655
23123W        W91341   2.878  25.443  14.009
23124W        W91342  25.455  16.658   4.825
23125W        W91343  43.563   5.699  12.072
23126W        W91344  19.446   8.908   3.907
23127W        W91345  23.775  18.651   2.770
23128W        W91346  41.780  30.204  12.643
23129W        W91347   3.535  15.562   1.174
23130W        W91348  32.550  32.336  10.725
23131W        W91349   8.352  42.807   2.155
23132W        W91350  27.116   5.367  14.749
23133W        W91351  11.890  20.529   2.325
23134W        W91352  26.116  16.731   0.148
23135W        W91353  20.650  27.650   4.659
23136W        W91354  40.544  32.069  10.798
23137W        W91355  44.415  10.183  13.270
23138W        W91356  23.980   7.097  11.521
23139W        W91357  44.301  18.024   2.203
23140W        W91358   8.582  20.038  11.100
23141W        W91359  41.454   3.839   1.339
23142W        W91360  23.156   5.940   0.722
23143W        W91361  21.592  13.841   4.541
23144W        W91362   5.975  11.615   0.465
23145W        W91363   2.434  31.693  11.384
23146W        W91364  36.542  19.718   0.358
23147W        W91365   0.486  27.453   1.519
23148W        W91366  30.071   0.480  10.690
23149W        W91367   8.889  24.809  11.714
23150W        W91368  20.290  21.569   4.157
23151W        W91369  31.697  35.155  10.713
23152W        W91370   2.205  40.866   1.265
23153W        W91371  19.082  10.352  12.300
23154W        W91372  39.596   1.644   3.633
23155W        W91373  23.771  18.174   3.148
23156W        W91374  12.631   8.110   3.210
23157W        W91375   4.033  21.578  10.236
23158W        W91376  12.968  15.568  10.617
23159W        W91377  35.865  15.839   3.763
23160W        W91378  42.605  35.750  11.948
23161W        W91379  18.695   9.447   1.531
23162W        W91380  41.511  34.846  14.863
23163W        W91381  21.046  44.764   2.860
23164W        W91382  31.896  32.379   1.641
23165W        W91383  16.128  15.135   0.346
23166W        W91384  31.084  40.254  12.544
23167W        W91385   1.810   7.429  13.252
23168W        W91386  33.482  20.784   3.272
23169W        W91387  13.275  44.409   1.798
23170W        W91388  11.227  35.008   2.275
23171W        W91389   7.754  23.106  12.089
23172W        W91390  31.989  35.172   2.376
23173W        W91391  32.625  32.477   4.588
23174W        W91392  12.854  22.780   2.737
23175W        W91393   5.150  38.232   5.082
23176W        W91394  40.536  13.675   1.184
23177W        W91395  15.944  16.033   0.760
23178W        W91396  13.755  16.047   3.611
23179W        W91397  27.776   3.273  14.326
23180W        W91398  16.818  19.157   4.116
23181W        W91399  40.506  43.416  13.493
23182W        W91400   2.788  20.825   5.146
23183W        W91401  42.613  31.809   1.687
23184W        W91402   8.662  20.091  11.892
23185W        W91403   8.652  39.102   1.326
23186W        W91404  27.392  17.885  11.597
23187W        W91405  29.352  42.037  12.428
23188W        W91406  35.685  18.746  11.591
23189W        W91407  12.300  14.891  11.534
23190W        W91408  35.691  13.154  12.430
23191W        W91409   4.395   1.504  12.471
23192W        W91410  25.976  43.808  12.533
23193W        W91411  44.192  33.499  12.630
23194W        W91412  38.414  27.025  11.094
23195W        W91413  30.435  29.006  12.125
23196W        W91414  42.918   7.416   2.409
23197W        W91415  29.625   6.297   2.244
23198W        W91416   4.821  40.379   0.801
23199W        W91417  28.894   8.334  11.322
23200W        W91418   4.690  13.374   3.749
23201W        W91419  22.802  30.422  12.991
23202W        W91420  43.446  43.399   1.031
23203W        W91421  41.291  23.273  13.402
23204W        W91422   4.004  31.409  11.555
23205W        W91423  19.277  10.845   4.176
23206W        W91424  22.305  42.390   1.793
23207W        W91425  33.859  34.348   3.262
23208W        W91426  15.538  39.453  13.523
23209W        W91427   8.846  14.471  12.381
23210W        W91428  16.173  30.600   1.810
23211W        W91429  15.343  10.145   1.787
23212W        W91430   1.451  15.711  11.489
23213W        W91431  27.048  39.037  14.547
23214W        W91432  18.403  21.016  12.078
23215W        W91433  43.855  39.911  14.446
23216W        W91434  42.826  17.106   4.173
23217W        W91435  42.384   6.881  12.940
23218W        W91436  26.974  42.590  13.443
23219W        W91437  38.475   1.195   1.458
23220W        W91438  34.612  38.681  13.939
23221W        W91439  31.629  30.997   0.797
23222W        W91440  30.719  41.916   3.792
23223W        W91441   4.912  42.767  13.245
23224W        W91442  15.571  24.716   3.778
23225W        W91443  22.476  41.787   3.043
23226W        W91444   5.680  37.788   2.133
23227W        W91445  32.642  10.143   1.854
23228W        W91446  25.308   1.664   2.266
23229W        W91447  30.132  43.544  10.827
23230W        W91448  20.567  34.065   0.985
23231W        W91449  33.933   7.494  13.922
23232W        W91450  35.118  43.417  10.823
23233W        W91451  30.447  30.922  14.357
23234W        W91452  24.903  20.213  14.456
23235W        W91453  31.843  11.387   1.457
23236W        W91454  11.514  38.109  14.698
23237W        W91455  32.277  38.516  11.691
23238W        W91456  19.231  18.000   1.273
23239W        W91457  15.955  40.435  13.804
23240W        W91458  29.455  28.551   4.376
23241W        W91459  40.753   7.701   3.308
23242W        W91460  19.973   9.620  14.737
23243W        W91461  11.897  41.007  10.574
23244W        W91462  14.671  42.043   2.681
23245W        W91463  17.585  13.834   3.288
23246W        W91464  31.084  11.366  11.931
23247W        W91465  31.542  28.431   3.254
23248W        W91466  27.148  38.771   2.174
23249W        W91467   7.447  13.901  11.554
23250W        W91468  16.854  37.373  12.984
23251W        W91469  16.709  33.858  11.170
23252W        W91470  33.123  17.702  11.691
23253W        W91471  34.502  25.704   1.402
23254W        W91472  26.150  11.846   2.246
23255W        W91473   0.089  10.269   1.740
23256W        W91474  26.689  25.322  14.276
23257W        W91475  31.613  10.179   0.303
23258W        W91476  15.603   6.534   3.187
23259W        W91477  34.426   9.478  11.386
23260W        W91478  27.552   1.428   1.408
23261W        W91479  15.759  38.980   2.143
23262W        W91480  34.110  24.764  14.298
23263W        W91481   2.713  16.211  13.887
23264W        W91482  30.928  20.507  11.063
23265W        W91483  34.867  12.650   3.822
23266W        W91484   2.935  10.392   4.100
23267W        W91485  32.396   2.172  14.094
23268W        W91486  38.908  33.868   5.118
23269W        W91487  36.697  33.569  11.104
23270W        W91488  35.699  42.243   0.958
23271W        W91489  34.373  38.427  13.076
23272W        W91490  40.223  26.984   0.483
23273W        W91491  12.029  12.245  13.766
23274W        W91492  29.075  15.840  11.175
23275W        W91493  30.385  17.075   4.238
23276W        W91494  42.425  27.751   3.167
23277W        W91495  22.973  10.278  14.029
23278W        W91496  31.909  16.992  11.316
23279W        W91497  20.566   4.416   2.408
23280W        W91498  16.244  15.556   4.855
23281W        W91499  14.589  39.075   0.080
23282W        W91500   9.606  18.028   5.014
23283W        W91501  12.571  11.334   0.896
23284W        W91502  13.905   5.059  12.598
23285W        W91503  23.248   5.116  11.136
23286W        W91504   6.825   7.767  13.265
23287W        W91505  37.596  18.687   3.285
23288W        W91506  17.060   9.738   3.811
23289W        W91507  38.469  41.894   1.320
23290W        W91508   1.732  39.429   1.929
23291W        W91509  22.011   0.464   1.303
23292W        W91510  28.649  16.290   4.861
23293W        W91511  22.289  25.510  14.940
23294W        W91512  40.420  25.905   1.714
23295W        W91513  16.311  22.824  13.974
23296W        W91514  34.107  21.086   1.258
23297W        W91515   5.242  33.972   1.492
23298W        W91516  29.969  30.483   3.639
23299W        W91517   4.162  17.707  10.617
23300W        W91518  42.336  40.791  13.277
23301W        W91519   6.461  30.712  13.159
23302W        W91520  43.805  12.380   3.151
23303W        W91521  41.569   0.057  13.578
23304W        W91522  24.570  10.388  11.652
23305W        W91523   5.890  25.228  11.644
23306W        W91524  12.160  26.423   4.382
23307W        W91525  22.788  41.113  12.348
23308W        W91526  43.276  25.960   3.170
23309W        W91527  12.316  26.668  10.683
23310W        W91528  41.964  22.508  12.262
23311W        W91529   6.272  43.666  14.108
23312W        W91530   5.443  33.066   0.991
23313W        W91531   7.250  17.075  13.396
23314W        W91532   7.906   8.723  12.159
23315W        W91533  35.629  12.396   4.221
23316W        W91534  13.344  30.530   0.345
23317W        W91535  24.270   7.583   5.009
23318W        W91536  16.901  20.703  12.961
23319W        W91537  35.014  28.712   1.817
23320W        W91538   0.408  38.624   4.640
23321W        W91539  11.126  16.035   0.362
23322W        W91540  23.408  44.936   2.808
23323W        W91541   9.128  41.161  12.147
23324W        W91542  44.617  17.677  14.009
23325W        W91543  18.767  21.553   2.190
23326W        W91544  38.008  30.935   1.005
23327W        W91545  42.969  19.569   1.339
23328W        W91546   3.731  31.468   4.183
23329W        W91547  23.471  39.370  12.174
23330W        W91548  12.891  22.506   1.542
23331W        W91549   0.730   4.740  14.800
23332W        W91550  27.872   1.654   2.333
23333W        W91551   0.840  38.436   0.650
23334W        W91552   4.342  27.983   0.919
23335W        W91553  34.489  13.831  14.310
23336W        W91554  10.797  19.305   2.357
23337W        W91555   0.798  30.336   3.020
23338W        W91556  19.765   3.453   1.717
23339W        W91557  33.714  15.789   5.259
23340W        W91558  22.864   6.914  12.890
23341W        W91559  23.069  10.200  11.596
23342W        W91560  38.907   6.677  10.056
23343W        W91561  31.694  15.072  12.468
23344W        W91562  43.247  25.024  13.555
23345W        W91563   5.321  14.467  13.901
23346W        W91564  20.210  41.229   0.998
23347W        W91565  42.354   1.553   4.403
23348W        W91566  37.040  26.467   0.961
23349W        W91567  33.852  29.945   3.653
23350W        W91568  38.888   8.298  11.351
23351W        W91569  34.544   1.053   0.734
23352W        W91570  14.586  19.009   0.778
23353W        W91571  20.182  23.021   4.011
23354W        W91572   7.199   5.307  12.935
23355W        W91573  27.698  10.679   2.515
23356W        W91574  35.369  26.663  12.149
23357W        W91575  14.906   3.180  13.019
23358W        W91576  29.500  44.590  13.542
23359W        W91577  34.591  43.974   3.669
23360W        W91578  16.688  16.176   0.289
23361W        W91579  17.769  18.268   4.321
23362W        W91580  31.997   2.356   1.394
23363W        W91581  37.917  43.795  14.565
23364W        W91582  41.908   7.130  12.410
23365W        W91583  17.060  43.165  10.492
23366W        W91584  17.063  19.227  14.363
23367W        W91585   6.793  32.482   1.406
23368W        W91586  19.581  39.343   3.634
23369W        W91587  10.504   7.000   4.806
23370W        W91588   2.791  31.059  14.828
23371W        W91589  39.781  12.718  12.509
23372W        W91590  37.844  10.683   1.970
23373W        W91591  30.485  15.194  14.438
23374W        W91592   6.191  26.107  14.370
23375W        W91593  44.463   7.682   2.225
23376W        W91594  38.344  22.620   4.187
23377W        W91595  10.887  39.968   1.310
23378W        W91596   9.649  15.183   4.622
23379W        W91597  35.085  36.373  12.414
23380W        W91598  42.560   8.841   2.181
23381W        W91599   5.724  24.135   4.558
23382W        W91600  20.649  38.326  12.108
23383W        W91601   4.879  17.360   0.743
23384W        W91602  22.763  25.528   0.162
23385W        W91603  13.050  22.254  12.925
23386W        W91604  32.208  40.614   5.048
23387W        W91605  41.532   7.561  14.504
23388W        W91606  38.919   5.369   0.335
23389W        W91607  31.674   4.308   3.517
23390W        W91608  19.837  30.745  11.450
23391W        W91609  29.899  34.459  12.391
23392W        W91610   3.681  16.063   1.418
23393W        W91611  16.802  17.668  11.198
23394W        W91612  30.716  15.898   5.054
23395W        W91613   9.078  21.115   1.876
23396W        W91614   0.733  27.931   2.648
23397W        W91615  19.421  32.514  14.964
23398W        W91616   9.690  44.832   3.789
23399W        W91617  11.621  25.001   1.804
23400W        W91618  15.766  11.231  12.469
23401W        W91619  38.668  27.319  12.443
23402W        W91620  33.148  32.115  11.977
23403W        W91621  33.456   0.851   1.675
23404W        W91622  18.840  24.278   0.823
23405W        W91623   7.312  24.168  12.206
23406W        W91624  33.137   9.279   2.038
23407W        W91625  40.051   3.313  13.357
23408W        W91626   0.244  42.522   4.559
23409W        W91627  37.040  43.768  12.859
23410W        W91628  35.629  35.452   3.379
23411W        W91629  27.067  16.138   1.719
23412W        W91630  13.352  42.246  11.149
23413W        W91631  14.205  37.316   4.594
23414W        W91632  33.090  40.726  13.052
23415W        W91633  38.516  13.626  12.138
23416W        W91634  13.205   5.705   2.313
23417W        W91635   5.923  11.727  11.703
23418W        W91636  41.760  22.402   1.935
23419W        W91637  37.090   4.731  14.342
23420W        W91638  30.598   9.336  13.945
23421W        W91639  12.255  41.362   1.400
23422W        W91640  27.550  30.431  11.024
23423W        W91641  28.008  44.447  13.886
23424W        W91642   6.719  24.849  13.898
23425W        W91643  36.567  35.874   0.790
23426W        W91644  14.101  11.558  12.962
23427W        W91645   6.428  31.235  11.933
23428W        W91646   0.117  39.799  10.799
23429W        W91647  29.828   9.878   3.184
23430W        W91648  24.542   5.850  12.180
23431W        W91649   6.452  18.294  11.107
23432W        W91650   9.349  12.569  14.543
23433W        W91651  15.105  22.750   0.791
23434W        W91652  20.768  44.498   2.188
23435W        W91653  26.342  30.874  14.288
23436W        W91654   4.310  26.038   4.779
23437W        W91655  32.146  39.517   3.729
23438W        W91656  29.091  14.842   3.747
23439W        W91657  11.767   7.929   3.129
23440W        W91658  35.981  13.995   1.115
23441W        W91659  33.995  29.414  13.880
23442W        W91660  40.774  39.984  13.051
23443W        W91661  33.610  41.732   4.073
23444W        W91662  28.934  13.163  13.485
23445W        W91663  38.477  19.197   4.570
23446W        W91664  44.981  43.342   1.993
23447W        W91665  42.950   6.751   2.241
23448W        W91666  32.615   8.722   3.703
23449W        W91667  10.066  11.328  14.179
23450W        W91668  41.566  44.012   0.965
23451W        W91669  19.534  19.689   2.307
23452W        W91670  40.029   4.157  11.913
23453W        W91671   9.920  24.501   2.038
23454W        W91672  10.293   0.491  12.033
23455W        W91673  24.718  10.306   1.725
23456W        W91674  15.239  33.641   2.828
23457W        W91675  26.156  24.964  12.603
23458W        W91676  10.399  14.817   3.235
23459W        W91677  17.053  12.236  10.841
23460W        W91678   1.558  22.894   2.092
23461W        W91679  17.403   6.382  10.723
23462W        W91680  15.570  42.536   4.187
23463W        W91681  36.636  34.568   4.078
23464W        W91682  32.640  20.702   2.191
23465W        W91683   8.828  19.709   1.390
23466W        W91684   9.951  35.893  12.132
23467W        W91685  17.779   3.011   2.911
23468W        W91686  17.801   8.321  11.662
23469W        W91687  36.073  14.836   0.328
23470W        W91688   1.813  39.877  10.633
23471W        W91689   8.737  35.296   0.393
23472W        W91690  21.319  11.222  10.615
23473W        W91691  12.560  42.140  11.390
23474W        W91692  34.129  38.251  12.550
23475W        W91693  11.855  30.537  13.150
23476W        W91694  24.657  28.004  13.430
23477W        W91695  34.043   6.184  10.266
23478W        W91696  13.304  43.513   2.245
23479W        W91697  31.747  15.361  13.715
23480W        W91698  26.424  37.340   4.027
23481W        W91699  13.149  43.094   0.513
23482W        W91700  12.844  34.463  13.978
23483W        W91701  29.999   7.432   0.307
23484W        W91702  19.191   6.165   0.440
23485W        W91703  43.224  43.792  10.669
23486W        W91704   9.905  32.840  14.456
23487W        W91705  28.933  24.264  12.945
23488W        W91706  28.322  30.699   2.273
23489W        W91707  35.563  26.089   3.767
23490W        W91708  44.196  16.717  13.347
23491W        W91709  32.113  16.729   4.610
23492W        W91710  37.030  16.330  11.611
23493W        W91711  28.493   3.242  14.303
23494W        W91712  16.021  20.786  14.307
23495W        W91713  20.538   2.505   4.090
23496W        W91714   7.822   7.157  12.116
23497W        W91715   5.919  14.813  11.059
23498W        W91716  29.881  21.690  11.899
23499W        W91717  41.698   0.838   0.889
23500W        W91718  19.632  19.372  10.521
23501W        W91719  20.743   1.505   1.222
23502W        W91720  14.122  43.020   3.992
23503W        W91721  25.238  43.575   1.355
23504W        W91722  33.000  10.646  10.802
23505W        W91723  43.932   4.417  13.916
23506W        W91724  25.500  15.134   3.137
23507W        W91725  16.135  39.319  12.374
23508W        W91726  35.523  37.522  12.478
23509W        W91727  27.228  33.122   3.608
23510W        W91728  26.604   9.023  11.944
23511W        W91729  43.334  34.876   1.478
23512W        W91730   9.946  27.041  12.887
23513W        W91731  44.265  12.286   2.943
23514W        W91732  21.222   7.572  14.861
23515W        W91733  16.271  40.771   0.019
23516W        W91734  38.953  27.449   0.247
23517W        W91735   8.842   0.312  12.143
23518W        W91736  11.721  29.916   0.312
23519W        W91737  39.273   8.350   3.571
23520W        W91738  23.222   5.810   1.371
23521W        W91739  16.740  10.357  11.169
23522W        W91740   0.869  16.306   4.090
23523W        W91741  36.576   0.196   0.436
23524W        W91742  43.779  37.799  11.148
23525W        W91743  31.490   4.775  11.191
23526W        W91744   3.379   5.919  10.969
23527W        W91745  19.095  23.824   2.787
23528W        W91746  17.021  20.976   3.159
23529W        W91747   0.470  31.786   0.963
23530W        W91748  11.529  30.472  14.956
23531W        W91749  28.006  33.158  13.992
23532W        W91750  29.888  44.347   0.027
23533W        W91751  33.795  13.165   1.833
23534W        W91752  11.363  26.563  10.958
23535W        W91753   3.628  20.029   4.536
23536W        W91754  40.433  23.083  13.565
23537W        W91755  42.076  42.719   0.953
23538W        W91756  11.747  25.686   1.353
23539W        W91757  10.089   3.247  10.140
23540W        W91758   1.348   1.743   2.957
23541W        W91759  40.759  40.417  13.306
23542W        W91760  15.695  19.018   3.519
23543W        W91761   8.228   3.164   3.700
23544W        W91762  12.224  24.008   4.418
23545W        W91763  25.986   5.826   2.420
23546W        W91764  21.955  40.484  11.606
23547W        W91765  32.286  40.419  13.082
23548W        W91766  44.155  18.720   4.112
23549W        W91767  19.156  32.357   2.878
23550W        W91768  10.581   6.297  11.635
23551W        W91769  40.520   2.076   0.396
23552W        W91770  33.699  19.679   1.225
23553W        W91771  42.104  35.833   3.123
23554W        W91772  33.242  39.862  12.741
23555W        W91773  17.109   3.076  14.817
23556W        W91774  26.722  28.619   2.665
23557W        W91775   1.776  28.992   1.997
23558W        W91776   2.642  33.695  13.087
23559W        W91777  22.934  22.034   4.702
23560W        W91778   8.630  33.489   2.624
23561W        W91779  18.387  20.156   4.733
23562W        W91780   0.875  37.944   3.868
23563W        W91781  38.980  28.595   1.816
23564W        W91782   1.911  36.760   4.133
23565W        W91783  41.798  31.751  11.494
23566W        W91784  37.132  23.554   1.444
23567W        W91785  22.171   4.684  11.221
23568W        W91786  16.900  35.450   0.416
23569W        W91787  37.299  36.839  14.121
23570W        W91788  11.648  20.741  12.590
23571W        W91789  34.142  11.166   0.926
23572W        W91790   1.573  33.967  13.807
23573W        W91791  19.524  20.485  13.857
23574W        W91792  22.242  42.073  14.252
23575W        W91793  42.428  44.906   2.391
23576W        W91794   9.334  39.124  14.495
23577W        W91795  23.170  36.541   0.967
23578W        W91796   1.724  26.242   4.898
23579W        W91797  42.616  11.470  11.483
23580W        W91798  33.480  29.662   5.373
23581W        W91799   0.772  13.419  11.193
23582W        W91800  36.908  24.562   2.607
23583W        W91801  43.497   5.766   3.214
23584W        W91802  27.785  41.521   1.959
23585W        W91803   2.323  38.333   4.150
23586W        W91804  16.799  11.407   0.581
23587W        W91805  38.500  15.517   1.369
23588W        W91806   7.646  40.291   0.662
23589W        W91807  21.365  34.025   0.288
23590W        W91808  38.497  39.394  10.510
23591W        W91809  26.814   3.902   3.813
23592W        W91810   7.848   8.876   5.393
23593W        W91811  36.827  13.232   3.186
23594W        W91812   3.935   8.118  10.625
23595W        W91813  25.226   2.819  11.558
23596W        W91814  10.328   7.185  14.681
23597W        W91815  14.317  26.247  10.767
23598W        W91816  32.414  37.541   1.789
23599W        W91817  12.181  44.616   1.659
23600W        W91818  38.975  10.731  11.004
23601W        W91819  27.042  38.868   4.141
23602W        W91820  38.297  26.602   4.227
23603W        W91821  36.427  38.237   0.904
23604W        W91822   0.060  44.901  13.019
23605W        W91823  41.409  32.920  12.073
23606W        W91824  33.098  31.063  12.070
23607W        W91825  11.147   1.020  13.500
23608W        W91826  44.385   8.295   5.137
23609W        W91827  11.386  42.833  11.177
23610W        W91828  40.967  38.017  12.017
23611W        W91829  33.443  35.386   1.825
23612W        W91830   4.071  44.875   4.560
23613W        W91831   3.775  38.114   3.333
23614W        W91832  29.629   6.947  11.146
23615W        W91833  39.533  25.702  10.865
23616W        W91834  20.651  36.287   2.920
23617W        W91835  28.013  42.569   1.351
23618W        W91836   2.911  36.470  12.570
23619W        W91837   4.225  31.524  14.963
23620W        W91838  20.122  11.830  13.913
23621W        W91839   4.123  23.648  11.595
23622W        W91840  10.421   1.104  14.743
23623W        W91841   6.128  17.515   3.829
23624W        W91842  22.623   1.825  14.500
23625W        W91843  17.498   5.895  14.824
23626W        W91844  25.660  27.191   3.814
23627W        W91845  40.763  26.563  13.100
23628W        W91846   3.409  19.758   2.439
23629W        W91847  42.852  12.341  10.997
23630W        W91848  17.917  33.135   3.836
23631W        W91849  27.509  20.745  14.490
23632W        W91850   4.861   0.349  12.103
23633W        W91851  40.092  29.367  10.452
23634W        W91852   8.747  15.171  13.606
23635W        W91853  34.517  35.443   2.519
23636W        W91854   2.782  28.358   2.268
23637W        W91855   0.402  17.034  11.551
23638W        W91856   1.281  43.338   4.019
23639W        W91857   2.770  17.140  11.584
23640W        W91858  29.400  30.176   1.515
23641W        W91859   1.808  10.349   0.767
23642W        W91860  40.010  34.586  12.018
23643W        W91861  30.185   9.400   0.910
23644W        W91862  22.313  16.993  14.759
23645W        W91863  25.658  32.790  14.457
23646W        W91864   3.092  18.581   2.786
23647W        W91865   3.872  41.595  12.513
23648W        W91866  42.640  11.412  10.725
23649W        W91867  26.489  39.343  10.417
23650W        W91868  35.892  29.449  13.075
23651W        W91869  43.422  21.067   1.813
23652W        W91870  28.364  30.109  13.434
23653W        W91871   1.511  36.284  11.119
23654W        W91872  26.489  20.635   3.461
23655W        W91873   8.690  43.056  11.036
23656W        W91874  37.091  15.106   3.206
23657W        W91875   4.111  43.351   0.575
23658W        W91876  38.093  41.499  11.648
23659W        W91877  16.214  25.070   4.566
23660W        W91878  41.756  10.202   2.443
23661W        W91879  27.111  38.960   3.524
23662W        W91880  15.579  24.954  13.552
23663W        W91881  20.778  37.121  11.679
23664W        W91882  35.655  22.563  10.791
23665W        W91883  34.577   1.464  11.847
23666W        W91884  16.754  12.173  13.450
23667W        W91885   4.655   2.618   2.899
23668W        W91886  38.933  21.778  10.653
23669W        W91887  23.578  20.467   4.097
23670W        W91888   2.418  26.554  14.575
23671W        W91889  44.881   0.675   1.835
23672W        W91890  43.870   3.695   0.232
23673W        W91891  17.290  32.970   1.227
23674W        W91892  11.045  23.068   2.455
23675W        W91893  31.893   9.822  12.000
23676W        W91894  44.115   6.328  13.153
23677W        W91895  39.495  15.180  13.661
23678W        W91896   1.279  25.450   4.281
23679W        W91897   9.742   6.916   4.013
23680W        W91898  39.545  27.085  14.259
23681W        W91899  25.779  11.223  14.748
23682W        W91900  10.281  10.523  10.136
23683W        W91901  27.535  28.086   4.732
23684W        W91902   6.417  31.772   2.684
23685W        W91903  36.851  33.283   1.092
23686W        W91904   2.001  39.182   0.453
23687W        W91905  26.672  33.323   3.985
23688W        W91906  31.687   5.984  14.509
23689W        W91907  27.752   4.159  11.158
23690W        W91908   4.967   4.772  12.488
23691W        W91909  14.055   3.781   3.256
23692W        W91910  12.729  23.015  10.904
23693W        W91911  21.218  40.044  12.801
23694W        W91912   7.433   5.693  12.095
23695W        W91913  31.709  43.996  14.343
23696W        W91914  24.160  31.289  11.124
23697W        W91915   3.932  38.433  10.345
23698W        W91916   4.297  41.447   4.041
23699W        W91917  42.846  41.859  10.629
23700W        W91918  16.291   7.850   2.851
23701W        W91919  10.175  20.196  14.688
23702W        W91920   9.923  25.468  11.572
23703W        W91921  39.470  11.759   2.984
23704W        W91922   8.792  15.080  14.157
23705W        W91923   5.425  17.295   1.386
23706W        W91924  37.777  21.551  14.772
23707W        W91925   4.125  30.141  12.773
23708W        W91926  15.059  36.803   2.623
23709W        W91927  40.258  42.614  11.552
23710W        W91928  28.382  26.020   4.214
23711W        W91929  18.549   9.612   0.653
23712W        W91930  30.741  29.209   0.369
23713W        W91931  29.592  23.946   9.824
23714W        W91932  13.885   9.697  13.044
23715W        W91933  13.408  40.766  10.799
23716W        W91934  16.225   5.466  13.997
23717W        W91935  35.413  23.301   1.373
23718W        W91936   7.423   6.259   4.137
23719W        W91937  24.459  23.636   1.300
23720W        W91938   4.540  41.697  13.859
23721W        W91939  26.204  41.859  11.902
23722W        W91940  13.274   2.802  12.514
23723W        W91941  41.064   2.211   0.389
23724W        W91942   6.955  34.937   1.192
23725W        W91943   5.026  19.358  12.046
23726W        W91944  22.213   6.540   3.634
23727W        W91945  20.551  20.265  12.086
23728W        W91946  32.044  28.273   3.147
23729W        W91947  24.973  22.900  14.778
23730W        W91948   6.094  20.679   3.707
23731W        W91949  40.821  13.545  12.050
23732W        W91950  29.168   0.578  14.422
23733W        W91951   2.927  19.790  10.656
23734W        W91952  32.648  13.292  14.382
23735W        W91953   5.651   3.543   1.730
23736W        W91954  14.807  33.024   4.890
23737W        W91955   3.014   3.438   3.742
23738W        W91956  35.097   5.691  12.147
23739W        W91957  27.947   4.409   0.402
23740W        W91958   4.963  39.607  11.032
23741W        W91959   0.689  10.816   4.897
23742W        W91960  43.385  14.240  11.181
23743W        W91961  24.947  26.142  13.972
23744W        W91962  27.932   4.455  12.080
23745W        W91963  19.135   8.194  12.692
23746W        W91964  17.973  28.983  12.938
23747W        W91965   1.952   4.370   4.761
23748W        W91966   0.307   6.797   0.030
23749W        W91967  38.470  26.947   2.619
23750W        W91968  22.967   4.893   2.261
23751W        W91969  41.422  24.605  11.404
23752W        W91970   6.095   5.785   4.226
23753W        W91971  36.546  41.903   2.152
23754W        W91972  13.864  42.588   1.281
23755W        W91973  42.309   5.940   3.361
23756W        W91974  30.705   0.914  12.080
23757W        W91975  20.138  23.562   3.193
23758W        W91976  14.141  37.594   4.120
23759W        W91977   5.434  39.436  10.962
23760W        W91978  39.833   9.671  13.754
23761W        W91979  40.303  20.513  12.594
23762W        W91980  34.456  26.797  10.618
23763W        W91981   7.780  43.741   1.686
23764W        W91982  42.826  41.581   0.884
23765W        W91983   1.766  12.677   1.341
23766W        W91984  12.822  33.705  14.554
23767W        W91985   5.631  33.594  11.173
23768W        W91986  10.700   2.668  13.874
23769W        W91987  22.696  36.353   0.828
23770W        W91988  21.932   3.201   2.519
23771W        W91989  15.293   7.362   3.346
23772W        W91990  40.035  12.643  12.980
23773W        W91991  21.972  36.962  14.318
23774W        W91992  42.051  44.186  10.331
23775W        W91993  16.202  31.114   4.340
23776W        W91994  40.772   5.385  14.090
23777W        W91995  35.656  15.825  11.187
23778W        W91996  37.103  20.519  11.110
23779W        W91997   5.134  30.492   3.848
23780W        W91998   8.709  36.912  11.021
23781W        W91999  20.686  25.485   2.536
23782W        W92000   0.102  23.787   0.940
23783W        W92001  14.235  42.080  12.460
23784W        W92002  27.622  10.665   1.064
23785W        W92003  35.334  21.635   2.309
23786W        W92004  40.923  29.484  11.756
23787W        W92005   5.801  19.073  10.355
23788W        W92006  26.014   4.358   4.009
23789W        W92007  12.838  12.664   4.498
23790W        W92008  27.268  35.087  14.105
23791W        W92009  44.492  43.262  12.803
23792W        W92010  12.671  19.031   2.411
23793W        W92011   5.213  39.617   0.214
23794W        W92012   8.163  26.110   4.187
23795W        W92013  27.542  32.099  10.494
23796W        W92014  14.729  35.113  11.660
23797W        W92015  14.217  12.142  14.378
23798W        W92016  38.129  25.319  12.993
23799W        W92017  28.496  16.304  12.929
23800W        W92018  37.382  29.114   2.238
23801W        W92019   8.410  14.356   3.348
23802W        W92020  36.576  40.984   2.388
23803W        W92021  19.074  26.215   1.842
23804W        W92022  35.635  43.222  12.085
23805W        W92023   6.471  34.878   4.531
23806W        W92024   2.389  14.088  14.954
23807W        W92025   2.459  29.306   4.518
23808W        W92026  18.110  36.149   2.328
23809W        W92027  40.578  19.252  12.907
23810W        W92028  26.935  16.811  14.749
23811W        W92029  40.757   6.311  14.018
23812W        W92030  14.404  25.524   4.142
23813W        W92031  36.380   9.732   0.284
23814W        W92032  11.414  41.467  12.391
23815W        W92033  42.856  39.745   4.445
23816W        W92034   1.848   0.579   4.150
23817W        W92035  33.151  38.677  11.136
23818W        W92036  25.608  31.409  11.465
23819W        W92037  15.858   9.909  13.365
23820W        W92038  12.986  41.809  11.793
23821W        W92039  40.520   7.880   3.748
23822W        W92040  23.022  31.157   0.836
23823W        W92041   8.726  44.097  14.386
23824W        W92042  38.408  13.327  12.606
23825W        W92043  32.597  16.732   1.339
23826W        W92044  26.998  24.964  11.933
23827W        W92045  20.777  38.140  10.340
23828W        W92046  14.128   7.579   4.529
23829W        W92047  15.265  32.003  11.275
23830W        W92048  33.152  18.202  14.857
23831W        W92049  32.532   7.706  13.890
23832W        W92050  34.883  17.737  12.337
23833W        W92051  16.581  26.269  13.770
23834W        W92052  44.474  16.265  13.847
23835W        W92053   3.448  25.262   1.773
23836W        W92054  32.539  37.192   3.413
23837W        W92055  24.194  27.017   1.716
23838W        W92056  32.442  24.736   0.368
23839W        W92057  21.706  23.657  10.232
23840W        W92058   4.356  25.401  10.714
23841W        W92059  41.293   4.523   2.288
23842W        W92060   7.777  43.306  14.968
23843W        W92061   8.727   4.021  14.041
23844W        W92062  37.437   7.278  13.173
23845W        W92063  44.499  19.145   3.406
23846W        W92064  11.020   9.205   4.569
23847W        W92065  22.723  16.372   2.348
23848W        W92066  29.572  37.519   2.635
23849W        W92067  19.852   0.207  14.768
23850W        W92068  11.137  29.098   3.543
23851W        W92069   2.993  32.964  10.654
23852W        W92070  31.050  23.218  14.374
23853W        W92071  41.222  14.344   0.034
23854W        W92072  17.218  14.075  14.301
23855W        W92073  12.859   7.250   0.335
23856W        W92074  17.225   7.757  10.626
23857W        W92075   5.237  10.707   3.315
23858W        W92076   8.699   6.208   3.637
23859W        W92077  25.999  18.201   3.601
23860W        W92078   7.732  37.341   2.783
23861W        W92079  19.014  35.520  14.683
23862W        W92080   9.563   3.711  11.590
23863W        W92081   5.885   4.941  10.734
23864W        W92082  40.896  10.762  14.039
23865W        W92083  36.908  40.395   4.470
23866W        W92084  26.792   9.449  14.507
23867W        W92085   6.245   5.339   4.024
23868W        W92086  26.808  29.607  11.821
23869W        W92087  39.353  39.278   2.062
23870W        W92088  32.475  43.336  10.580
23871W        W92089  30.777  14.763  12.573
23872W        W92090  16.614  15.862   4.100
23873W        W92091  15.744  22.585   4.546
23874W        W92092  36.972  21.989   2.906
23875W        W92093   0.893   4.372   3.335
23876W        W92094   1.407  15.866  10.783
23877W        W92095  40.617  29.204  14.421
23878W        W92096  41.511  25.038   1.378
23879W        W92097   8.373  43.100   4.285
23880W        W92098   7.754   8.745   0.706
23881W        W92099  37.839  27.666  14.575
23882W        W92100  24.498  21.739   0.271
23883W        W92101  25.784  41.280  13.542
23884W        W92102  29.016  17.397  14.400
23885W        W92103   5.374  29.112  12.908
23886W        W92104  22.409  37.834  12.068
23887W        W92105   7.721   4.420  12.142
23888W        W92106  21.129  17.036   0.382
23889W        W92107   2.490   9.891   1.891
23890W        W92108  21.113  22.465  13.208
23891W        W92109  27.109  16.381   0.338
23892W        W92110  29.755  25.599   0.839
23893W        W92111  19.760  40.977  12.422
23894W        W92112  33.935  36.575  11.727
23895W        W92113  36.958  29.448   4.621
23896W        W92114  24.667  37.638  12.593
23897W        W92115   4.765  28.204   1.929
23898W        W92116  16.571  32.534  13.591
23899W        W92117  16.649  41.825  12.813
23900W        W92118  32.868  29.226   3.449
23901W        W92119  19.520  12.568  11.965
23902W        W92120  11.316  37.117  12.891
23903W        W92121  20.396   5.876   2.738
23904W        W92122  11.469  12.154  13.025
23905W        W92123  21.260  29.752   2.590
23906W        W92124  44.460   0.676  11.531
23907W        W92125  10.075   3.787  10.198
23908W        W92126  10.460  17.179   3.671
23909W        W92127  38.626  12.635   3.097
23910W        W92128  25.679   8.663   0.795
23911W        W92129  19.075   3.245   3.176
23912W        W92130  38.455  11.101  11.612
23913W        W92131  36.033   3.784  11.399
23914W        W92132  11.831   9.557  13.836
23915W        W92133  24.836  44.296  14.208
23916W        W92134  27.612  22.114  14.414
23917W        W92135   4.450  37.533  13.850
23918W        W92136  24.661  21.741   1.235
23919W        W92137  14.676  24.214  10.992
23920W        W92138   8.459   5.204  11.263
23921W        W92139  34.803   7.122  12.497
23922W        W92140   3.477  36.426  14.961
23923W        W92141   9.615  23.999  12.420
23924W        W92142  25.525   8.115   4.193
23925W        W92143  24.175  42.240   2.518
23926W        W92144  39.257  23.017  13.804
23927W        W92145   5.626  43.695   2.744
23928W        W92146  28.115  30.158  14.860
23929W        W92147  22.640   0.914   1.002
23930W        W92148  24.212  38.800  10.244
23931W        W92149  19.571   9.592   4.663
23932W        W92150  36.930  44.423  14.838
23933W        W92151  16.438  18.606   3.880
23934W        W92152  21.228  11.398   1.299
23935W        W92153  22.558  30.995   4.311
23936W        W92154  15.779  16.883   2.448
23937W        W92155  23.590   8.255   4.262
23938W        W92156  31.609  38.375  13.395
23939W        W92157  33.663  43.409  14.503
23940W        W92158   7.500  11.049   3.301
23941W        W92159  32.056  16.077   3.145
23942W        W92160  21.679   9.261  14.424
23943W        W92161   7.106  34.951   3.388
23944W        W92162  28.545  16.314  13.887
23945W        W92163  22.816  26.982   5.028
23946W        W92164  29.003  31.643  11.510
23947W        W92165   6.571  41.032   4.543
23948W        W92166  26.948  32.436   2.176
23949W        W92167  11.262  28.983   1.241
23950W        W92168   0.081  10.965   2.342
23951W        W92169   0.036  23.983  11.961
23952W        W92170  37.928  42.535  11.690
23953W        W92171  17.068  19.383  11.736
23954W        W92172  14.942  15.780  10.740
23955W        W92173  10.385  29.104   4.670
23956W        W92174   2.188  27.640   1.861
23957W        W92175  27.742  13.962   4.555
23958W        W92176   4.677   5.121   4.177
23959W        W92177  19.056  18.428   0.272
23960W        W92178  21.001  28.579  13.838
23961W        W92179   9.862  10.591   3.009
23962W        W92180  10.139   2.697   1.829
23963W        W92181   1.926  42.576  14.955
23964W        W92182  37.502  15.314   2.391
23965W        W92183  41.476  25.947   4.518
23966W        W92184  24.677  10.878  11.640
23967W        W92185  35.627  10.148   0.895
23968W        W92186  14.376  11.207  10.710
23969W        W92187  39.126  13.837   4.093
23970W        W92188  22.751   8.754   4.023
23971W        W92189  11.115  39.303   3.670
23972W        W92190  10.889  42.734  11.195
23973W        W92191  39.535   6.780  13.094
23974W        W92192  31.842  17.613  14.857
23975W        W92193  10.349  25.769   4.150
23976W        W92194   8.236  36.229   4.729
23977W        W92195   1.156   2.961   1.503
23978W        W92196  28.118  14.582   2.683
23979W        W92197  12.155  15.785   1.324
23980W        W92198  42.303  18.182  11.503
23981W        W92199   9.000  34.271  13.546
23982W        W92200  25.957  33.451  13.499
23983W        W92201  28.482  37.610  14.343
23984W        W92202  13.562  34.764   4.787
23985W        W92203   3.201  18.849   3.236
23986W        W92204  36.915  31.252  10.751
23987W        W92205  26.269  23.993  11.847
23988W        W92206  30.107  38.063   2.392
23989W        W92207  37.457   9.808  14.585
23990W        W92208  28.456   3.691   0.974
23991W        W92209  22.411  18.147   2.732
23992W        W92210  44.797  31.136   1.281
23993W        W92211  23.258  21.291   0.913
23994W        W92212  37.307  35.975   4.092
23995W        W92213  39.034  20.576  13.079
23996W        W92214  38.546  33.414  11.607
23997W        W92215   6.357  17.682   2.859
23998W        W92216  40.891  18.322  14.325
23999W        W92217  44.612  22.779   0.257
24000W        W92218   9.599  10.673   3.762
24001W        W92219  24.650  11.968  12.413
24002W        W92220  15.314  39.232  11.012
24003W        W92221  26.240  32.397   0.020
24004W        W92222  25.877  24.784   4.476
24005W        W92223  28.004  38.326  11.046
24006W        W92224   6.250  27.218   2.246
24007W        W92225  14.115   3.164   3.621
24008W        W92226  17.500  17.724  12.641
24009W        W92227  27.176  31.964   1.274
24010W        W92228  44.119  25.409  13.376
24011W        W92229  27.099  19.707   0.219
24012W        W92230   5.994  28.597   1.937
24013W        W92231  20.321   2.876  13.909
24014W        W92232  32.403  21.055  10.056
24015W        W92233  17.722   5.483   1.446
24016W        W92234   5.214  13.792   2.405
24017W        W92235  24.646  16.489   0.732
24018W        W92236   3.064   1.591   3.778
24019W        W92237  26.203  30.558  13.775
24020W        W92238   3.588  19.847  11.905
24021W        W92239  29.095  15.722   0.916
24022W        W92240  44.990  19.718   2.057
24023W        W92241  28.894  39.897   0.957
24024W        W92242   9.880  28.024  12.863
24025W        W92243  23.118  36.998  12.094
24026W        W92244  23.064  18.549  11.574
24027W        W92245  39.340  19.751   1.048
24028W        W92246   7.650  32.031   1.765
24029W        W92247   3.388   2.438   2.438
24030W        W92248  27.647  27.611  11.920
24031W        W92249  23.158  20.296  12.668
24032W        W92250   8.327  17.720  14.832
24033W        W92251   2.321  21.710   1.227
24034W        W92252  31.687  26.681  14.519
24035W        W92253  31.804  34.195  12.108
24036W        W92254  29.917   3.317  11.495
24037W        W92255  17.135  35.316  14.331
24038W        W92256  42.581   6.975   4.202
24039W        W92257  12.931  13.128   1.317
24040W        W92258   6.847  10.284  12.109
24041W        W92259  10.251  13.684  11.451
24042W        W92260   8.903  16.148  12.566
24043W        W92261   6.410  35.867  13.642
24044W        W92262   5.301   8.908  12.529
24045W        W92263  31.552  43.904   3.400
24046W        W92264  20.924  40.723   4.402
24047W        W92265  36.083  17.148   4.088
24048W        W92266  16.119  32.683   4.564
24049W        W92267  37.009  10.468   0.975
24050W        W92268  18.470  25.541   1.235
24051W        W92269   0.334  32.147  12.026
24052W        W92270  39.061  27.788   0.662
24053W        W92271  25.456  29.956   2.657
24054W        W92272  35.532  33.454  14.041
24055W        W92273  32.864  18.546   3.369
24056W        W92274  12.205  30.182   3.821
24057W        W92275  34.858  43.527  12.600
24058W        W92276   0.301  19.792  14.409
24059W        W92277  31.730  11.294   1.940
24060W        W92278   7.829   9.963  14.875
24061W        W92279   3.737  38.113   0.306
24062W        W92280   2.813   6.780  12.322
24063W        W92281   8.436  33.463   4.100
24064W        W92282  39.401  11.719   1.284
24065W        W92283   4.011  40.787   0.927
24066W        W92284  17.458  21.789   1.856
24067W        W92285  17.057   5.692  11.543
24068W        W92286  15.918  28.655   1.652
24069W        W92287  12.497  38.537   3.371
24070W        W92288  11.557  20.727   0.310
24071W        W92289  16.403  18.714   2.420
24072W        W92290  15.370  28.584   4.058
24073W        W92291  12.414  16.300   3.519
24074W        W92292  16.581   7.279   0.670
24075W        W92293   5.877  29.465   0.283
24076W        W92294  22.458  15.792  14.294
24077W        W92295  34.124  12.787   2.015
24078W        W92296   3.492   2.779  10.868
24079W        W92297  41.423  20.647  10.695
24080W        W92298  19.792  34.508   3.676
24081W        W92299   8.468  20.287   1.251
24082W        W92300  11.295  35.415  14.592
24083W        W92301  38.843  33.323   4.220
24084W        W92302   7.219  37.279  12.434
24085W        W92303  25.874  40.558   0.864
24086W        W92304  29.400   8.926   1.718
24087W        W92305  35.996  33.053   3.028
24088W        W92306  33.390  18.132  10.243
24089W        W92307   0.415  13.334   4.055
24090W        W92308  24.482  44.111   0.487
24091W        W92309  27.109  24.940  13.026
24092W        W92310   5.841  29.890   1.949
24093W        W92311  36.285   4.012  11.025
24094W        W92312  13.289   4.213  11.075
24095W        W92313  21.477  40.794  11.988
24096W        W92314  17.751  39.339  12.049
24097W        W92315  35.440  32.693   1.404
24098W        W92316   5.544  30.405  11.504
24099W        W92317  22.741  29.948  12.269
24100W        W92318  38.770  23.539   5.004
24101W        W92319   7.159  28.188  11.900
24102W        W92320   7.282  31.422   3.550
24103W        W92321  31.863  39.600  12.989
24104W        W92322   3.162  20.163   1.385
24105W        W92323  19.093  26.528   2.323
24106W        W92324   4.481  12.255  14.875
24107W        W92325  41.896  30.872   0.869
24108W        W92326   4.892   9.287  13.296
24109W        W92327   7.472   9.920  13.882
24110W        W92328   0.805  14.651   0.142
24111W        W92329  37.384   3.567   2.883
24112W        W92330  29.438  22.153  12.623
24113W        W92331  19.452  39.605   4.411
24114W        W92332  12.377   0.939  10.624
24115W        W92333   7.871  21.774   1.746
24116W        W92334   4.270  20.489   4.432
24117W        W92335  27.924  24.038   2.829
24118W        W92336   8.394  42.943  13.261
24119W        W92337  34.124   5.047   5.074
24120W        W92338  13.244  19.986   1.906
24121W        W92339  38.630  43.720   2.126
24122W        W92340   7.734  44.933  12.393
24123W        W92341  42.088  15.483   3.717
24124W        W92342  17.797  18.149   3.809
24125W        W92343  33.349  33.399  10.344
24126W        W92344  19.333   3.288   4.523
24127W        W92345  33.231  31.460  12.383
24128W        W92346  42.021   6.833   0.446
24129W        W92347  30.289   8.678  10.766
24130W        W92348   6.984  19.824   2.632
24131W        W92349   1.404  32.335  14.365
24132W        W92350  40.060  10.621   1.799
24133W        W92351  14.979  44.958   1.856
24134W        W92352   0.905  10.870  11.072
24135W        W92353   1.702  36.063  13.022
24136W        W92354  22.146  22.620  12.319
24137W        W92355  28.646  39.336  12.469
24138W        W92356  42.353  19.566   4.609
24139W        W92357  41.461  13.812  11.004
24140W        W92358  30.462  21.297   0.365
24141W        W92359  43.813  39.012  12.509
24142W        W92360  21.285  40.253  12.300
24143W        W92361  18.491  22.246  12.826
24144W        W92362  21.425  11.840  12.592
24145W        W92363  44.433  28.341  11.188
24146W        W92364  35.002  21.940  13.723
24147W        W92365   0.912  21.998  12.300
24148W        W92366  18.658  20.231  14.524
24149W        W92367  38.997  23.060   4.718
24150W        W92368  26.246  25.667  11.919
24151W        W92369  36.322  42.788  12.984
24152W        W92370  30.601  43.947  14.737
24153W        W92371  39.489  34.606   4.477
24154W        W92372   2.397  38.142  13.801
24155W        W92373  40.656   0.310  11.597
24156W        W92374  41.081  20.967  10.888
24157W        W92375  28.047  19.001  10.039
24158W        W92376  27.049   1.895  14.457
24159W        W92377  15.072  31.065  11.531
24160W        W92378  36.352   5.075  12.344
24161W        W92379   4.815  38.739   3.332
24162W        W92380  37.315   7.358   0.018
24163W        W92381   2.041   1.751   1.341
24164W        W92382  39.600  20.090   3.675
24165W        W92383   9.153  36.081  14.311
24166W        W92384   3.828  20.495  13.242
24167W        W92385   4.385  31.612   0.443
24168W        W92386  33.152   5.833   1.389
24169W        W92387  21.173   3.361   0.331
24170W        W92388  34.350  14.080  14.740
24171W        W92389  19.477   1.574   0.271
24172W        W92390   7.660  25.645  10.377
24173W        W92391   8.182  33.308  12.130
24174W        W92392  17.827  44.313   2.696
24175W        W92393  28.285  19.297  13.310
24176W        W92394   9.032   9.289  11.115
24177W        W92395  19.146   1.000  14.322
24178W        W92396  22.093  23.582  12.545
24179W        W92397   5.327   2.262   0.957
24180W        W92398  21.987  12.358  12.463
24181W        W92399  42.799  21.394   3.164
24182W        W92400  33.419  20.618  14.382
24183W        W92401  33.590   7.612   0.070
24184W        W92402  15.837  10.678   3.740
24185W        W92403   8.538  17.370   1.462
24186W        W92404  13.250  17.117  10.243
24187W        W92405  28.514  18.894  13.572
24188W        W92406  16.333  24.505   1.182
24189W        W92407  33.723   0.158  13.464
24190W        W92408  30.547   8.897   2.778
24191W        W92409  31.960  32.550  12.881
24192W        W92410  37.912   3.856  11.227
24193W        W92411   9.848  36.548  10.342
24194W        W92412  10.921  32.910  11.115
24195W        W92413  14.644  39.850  14.588
24196W        W92414   7.124   9.227  13.546
24197W        W92415  41.039  25.163  11.874
24198W        W92416  36.801  30.990   2.368
24199W        W92417  14.228   9.823  14.848
24200W        W92418  12.143  28.434  14.743
24201W        W92419   3.912   7.649   0.237
24202W        W92420  11.707  19.252   2.903
24203W        W92421   4.267  41.505  12.843
24204W        W92422  24.162  35.548  10.377
24205W        W92423  39.310  23.687   1.747
24206W        W92424  44.986   8.111   0.990
24207W        W92425  21.527  32.394   2.237
24208W        W92426  27.692   7.159  14.296
24209W        W92427   0.282  26.914  11.192
24210W        W92428  14.403  18.797   3.698
24211W        W92429  36.256  17.612   1.839
24212W        W92430  43.817  30.232  12.856
24213W        W92431  25.039  27.691   3.142
24214W        W92432  30.163  33.694   2.818
24215W        W92433  21.031  29.013  10.324
24216W        W92434  19.273  32.002   0.026
24217W        W92435  21.167   3.229   4.051
24218W        W92436  38.354  22.616   3.686
24219W        W92437  22.233   7.977   1.130
24220W        W92438  24.769  35.904   4.684
24221W        W92439  20.326  27.112  13.182
24222W        W92440   7.339   7.352  10.990
24223W        W92441   8.660  22.674   2.187
24224W        W92442   3.619   6.624  10.649
24225W        W92443  36.089  36.930  10.568
24226W        W92444  15.169  11.591   2.823
24227W        W92445  28.458  42.175   4.554
24228W        W92446  41.863  24.375   2.764
24229W        W92447   6.769   7.395   4.112
24230W        W92448  41.303  32.072   1.378
24231W        W92449  22.015  19.219  13.277
24232W        W92450  11.360  36.582  13.802
24233W        W92451  20.741  28.855  12.618
24234W        W92452  11.341  41.635  11.582
24235W        W92453  30.964   3.841   3.544
24236W        W92454  32.923   4.746   2.961
24237W        W92455  42.417   4.022  12.794
24238W        W92456  30.728  10.540  11.979
24239W        W92457  28.322  21.937  13.095
24240W        W92458   4.178   8.319   0.739
24241W        W92459  34.494  10.332   2.771
24242W        W92460  13.134  11.692   2.353
24243W        W92461  36.149   8.609   0.685
24244W        W92462   8.229  33.747   1.775
24245W        W92463  18.495  21.186  13.535
24246W        W92464  33.602   5.622   1.480
24247W        W92465  37.041  42.294  14.759
24248W        W92466  26.057   6.845   4.225
24249W        W92467   5.506  19.085  14.544
24250W        W92468  21.840  27.317  12.515
24251W        W92469  32.839  37.033  13.707
24252W        W92470   6.444  26.541  11.679
24253W        W92471  34.291  24.401   1.937
24254W        W92472   1.438  31.064   2.879
24255W        W92473  28.880  38.856   2.773
24256W        W92474   4.718  33.069  13.879
24257W        W92475   7.336  42.526   0.124
24258W        W92476   7.965  36.482  10.592
24259W        W92477  44.668  20.570  11.958
24260W        W92478  17.228  25.589  10.751
24261W        W92479  27.409  24.771   1.096
24262W        W92480  21.281  26.673  10.814
24263W        W92481  18.684   3.205   1.219
24264W        W92482  14.122  15.897  11.519
24265W        W92483  12.130  43.005   1.946
24266W        W92484  37.340  21.275   0.263
24267W        W92485  13.716  15.574  10.949
24268W        W92486  20.583  18.269  13.038
24269W        W92487  10.857  15.638  11.080
24270W        W92488   4.910  12.664  11.555
24271W        W92489  24.636  22.704  11.025
24272W        W92490  33.909  43.350   3.892
24273W        W92491  10.918  20.206  12.415
24274W        W92492  16.283  15.446  13.852
24275W        W92493   3.416  38.131  12.000
24276W        W92494  17.804  18.742  14.921
24277W        W92495   8.738  13.868  10.578
24278W        W92496  29.005  39.087   0.518
24279W        W92497   4.997  25.928  11.171
24280W        W92498   6.639   8.485  12.037
24281W        W92499  29.964   9.734  13.052
24282W        W92500  13.807  13.115   2.954
24283W        W92501  10.158  33.116   3.246
24284W        W92502   6.454  42.402   3.831
24285W        W92503  12.588   4.553  12.091
24286W        W92504  38.097  43.003  10.023
24287W        W92505  25.903  13.258  13.902
24288W        W92506  44.210  27.034   4.706
24289W        W92507  22.003  41.898  13.834
24290W        W92508  21.470  11.866   1.386
24291W        W92509  30.571  17.110   1.480
24292W        W92510  44.968  17.390  14.353
24293W        W92511   4.464  37.826   3.144
24294W        W92512  18.974  26.024  14.855
24295W        W92513  15.616  32.224   1.111
24296W        W92514  17.130  20.167   2.694
24297W        W92515  44.805  35.508   4.538
24298W        W92516  39.989  12.255   2.375
24299W        W92517  37.573  12.625   0.048
24300W        W92518  38.800  41.579   2.910
24301W        W92519  38.934   3.835  14.106
24302W        W92520  25.732  31.654  12.440
24303W        W92521  23.072  40.586  14.300
24304W        W92522  39.043  34.672  14.207
24305W        W92523  11.880  44.701   2.917
24306W        W92524  31.722  43.814   0.830
24307W        W92525  27.519  25.119  11.073
24308W        W92526  14.391  44.380  12.136
24309W        W92527  19.283  26.142  14.338
24310W        W92528   9.668  18.472  11.198
24311W        W92529  23.034  30.073   4.390
24312W        W92530  40.266  30.370   4.132
24313W        W92531  24.499  10.430  12.568
24314W        W92532  10.184   9.276   5.071
24315W        W92533  43.281  37.909  14.372
24316W        W92534  29.184   8.244  14.014
24317W        W92535   1.040  33.601   3.578
24318W        W92536  37.656   7.399   3.847
24319W        W92537   3.188  14.035  12.025
24320W        W92538  44.269  22.110   1.832
24321W        W92539  23.026  35.807   3.772
24322W        W92540   7.106  35.366  11.135
24323W        W92541  23.061  29.690  14.909
24324W        W92542  38.106  39.868  11.124
24325W        W92543  21.949  34.438  11.078
24326W        W92544  13.155  31.471   0.026
24327W        W92545   5.488  34.462  14.816
24328W        W92546   3.561  20.304  14.647
24329W        W92547  20.311  41.278   1.512
24330W        W92548  19.702  24.892   2.848
24331W        W92549  14.193   5.254   3.875
24332W        W92550  44.552  14.676   3.228
24333W        W92551   8.266   1.618  12.136
24334W        W92552  21.129  38.442  14.757
24335W        W92553  22.097  12.361   2.213
24336W        W92554  36.609   9.168  11.578
24337W        W92555   3.620  44.815  13.795
24338W        W92556   7.675   8.683   4.658
24339W        W92557  20.083   0.655  14.822
24340W        W92558   8.420   7.371   4.558
24341W        W92559  30.018  26.227  11.674
24342W        W92560  30.116   7.615   1.661
24343W        W92561  15.816  29.054   1.955
24344W        W92562  29.977  37.085  11.757
24345W        W92563  33.453  15.247  14.995
24346W        W92564  17.338   4.001  12.073
24347W        W92565  33.270  40.658  10.320
24348W        W92566  34.419   7.889  13.592
24349W        W92567  24.709  17.490  11.976
24350W        W92568  13.255   1.955  12.010
24351W        W92569  24.483  15.331   2.299
24352W        W92570  20.571  27.582   0.956
24353W        W92571  14.722  22.429  12.460
24354W        W92572  24.059   5.813  11.376
24355W        W92573  13.821  11.354   0.425
24356W        W92574  38.306  19.113   4.079
24357W        W92575  20.465  15.965   3.104
24358W        W92576  15.508  16.390  13.617
24359W        W92577  31.662   9.076   1.501
24360W        W92578  28.622  17.155   4.567
24361W        W92579  22.201  28.364   2.138
24362W        W92580  15.798   9.192   3.684
24363W        W92581   6.248  40.409  10.506
24364W        W92582   4.862  44.306  13.558
24365W        W92583  28.492  24.302  11.503
24366W        W92584  20.055  26.534  12.563
24367W        W92585  20.285   9.792   3.065
24368W        W92586  39.353  36.767   4.157
24369W        W92587  16.269  17.375   3.586
24370W        W92588  12.357  17.375   1.315
24371W        W92589  38.076   5.640   4.126
24372W        W92590  10.268  13.170  11.598
24373W        W92591   6.001  27.840  13.409
24374W        W92592  38.040  33.501   2.750
24375W        W92593  32.545  19.021   0.334
24376W        W92594  38.900  26.068  13.508
24377W        W92595  37.947   4.009  10.738
24378W        W92596  10.180  36.769  14.688
24379W        W92597   5.209  42.844   4.239
24380W        W92598  37.212  32.408   0.887
24381W        W92599  23.556  10.707   0.843
24382W        W92600  19.943  13.044   4.831
24383W        W92601  14.862  18.239  12.910
24384W        W92602   9.837  30.155  10.780
24385W        W92603   1.468  42.757   2.845
24386W        W92604  17.727  35.355   4.161
24387W        W92605  16.094  25.031  12.456
24388W        W92606  35.431   9.977   2.491
24389W        W92607   5.191  42.269  12.505
24390W        W92608  42.728  42.372   0.701
24391W        W92609  27.206   6.355  11.552
24392W        W92610  19.044  41.025   1.870
24393W        W92611   3.735  35.650   0.813
24394W        W92612  38.399   1.684   3.314
24395W        W92613  27.297  22.649  12.143
24396W        W92614  41.784  30.206  13.184
24397W        W92615   4.317   7.196   3.238
24398W        W92616   3.500  34.312  14.516
24399W        W92617  28.314  29.675   1.605
24400W        W92618  17.018  26.561  12.083
24401W        W92619  37.613  39.127  10.288
24402W        W92620  34.856  29.367  14.940
24403W        W92621  37.143  33.215  12.872
24404W        W92622  27.032   8.335   4.662
24405W        W92623  34.082  23.676  10.816
24406W        W92624   7.856  42.401  12.936
24407W        W92625  20.945  31.002   2.338
24408W        W92626  42.758  42.934  10.627
24409W        W92627  43.373  28.199   3.422
24410W        W92628   2.362   9.337  14.334
24411W        W92629  16.869  22.133   0.446
24412W        W92630   4.900  19.218   4.542
24413W        W92631  42.913   6.767   4.772
24414W        W92632  24.518   0.842   0.045
24415W        W92633  13.659  25.078  14.234
24416W        W92634  13.084   6.769   3.154
24417W        W92635  21.752   8.985  11.096
24418W        W92636  30.719  21.016  11.678
24419W        W92637  13.729  38.042   3.286
24420W        W92638   4.720  38.307   1.379
24421W        W92639  39.906  42.543   2.305
24422W        W92640  42.457  35.487  12.755
24423W        W92641  17.905   4.659   4.129
24424W        W92642  24.748  31.463   0.840
24425W        W92643  32.164   6.734  12.027
24426W        W92644   0.610   8.962  13.373
24427W        W92645  33.954   8.526   3.817
24428W        W92646  38.842   8.646  13.544
24429W        W92647  32.173  43.551   4.638
24430W        W92648  38.873  38.062  13.022
24431W        W92649   7.734   4.331   1.461
24432W        W92650  15.746  23.234  14.461
24433W        W92651  25.021  10.163  11.720
24434W        W92652  26.145  39.976  11.104
24435W        W92653   7.011  15.583  11.175
24436W        W92654   9.388  35.463  13.329
24437W        W92655  36.843  14.735  13.059
24438W        W92656  15.570  36.258   4.598
24439W        W92657  16.252  33.003  12.436
24440W        W92658   0.837  23.761  14.400
24441W        W92659   7.086  41.428  13.566
24442W        W92660   2.185  35.081   3.184
24443W        W92661  15.669  16.010  12.698
24444W        W92662   0.294   9.140   2.378
24445W        W92663   8.856  38.401  14.764
24446W        W92664  31.441  13.485  10.658
24447W        W92665  41.224  43.635   3.767
24448W        W92666  29.621  11.375  12.050
24449W        W92667  34.415  10.395  12.132
24450W        W92668  34.546   2.690   1.390
24451W        W92669  24.230   3.315  12.478
24452W        W92670  19.896   1.396  11.786
24453W        W92671  37.631   5.767  11.355
24454W        W92672  13.305  25.592  14.891
24455W        W92673  30.953   2.250  13.380
24456W        W92674  25.501   3.916  11.083
24457W        W92675  16.093  14.270  14.912
24458W        W92676   0.407  28.503   1.295
24459W        W92677  16.365  22.726   1.418
24460W        W92678  11.594  19.623  12.113
24461W        W92679   3.490  38.968   4.106
24462W        W92680  27.229  34.032  12.452
24463W        W92681  18.293  42.261  13.387
24464W        W92682  38.002  35.425   4.603
24465W        W92683   3.637  17.237  12.056
24466W        W92684   4.353  42.388  10.274
24467W        W92685   9.364  10.687   4.598
24468W        W92686  42.942  18.571   1.341
24469W        W92687  27.450  19.140  12.929
24470W        W92688   1.014  24.085   3.165
24471W        W92689  44.269  33.179  13.035
24472W        W92690  38.522   6.074  11.039
24473W        W92691  32.221  13.162  11.543
24474W        W92692  31.645   8.863   2.865
24475W        W92693  22.508  26.912   0.826
24476W        W92694  21.605   1.924   4.999
24477W        W92695   7.127  26.017   0.433
24478W        W92696  20.722  37.758   9.993
24479W        W92697   9.139  41.811  14.863
24480W        W92698   4.469  41.599   3.572
24481W        W92699  20.259  30.098  11.128
24482W        W92700  11.695  28.918   5.004
24483W        W92701  38.508  26.082   2.480
24484W        W92702  40.914  42.894   1.945
24485W        W92703  33.993   3.396  14.012
24486W        W92704  43.771  43.497   3.420
24487W        W92705  10.416   0.439   3.816
24488W        W92706  11.324   4.242  13.284
24489W        W92707  36.100  35.819  13.045
24490W        W92708  39.594   2.768   0.948
24491W        W92709  11.874   1.190  12.339
24492W        W92710   9.447   3.750  14.413
24493W        W92711   5.741   0.802  14.550
24494W        W92712  24.041  32.432  12.269
24495W        W92713  27.633  36.319  11.045
24496W        W92714   4.672  25.967   1.287
24497W        W92715  37.224   8.640  12.987
24498W        W92716  16.487  36.584   4.140
24499W        W92717  31.526   6.376  14.208
24500W        W92718  24.790  24.144  13.737
24501W        W92719  37.557  28.327  12.498
24502W        W92720  33.903  24.273   2.423
24503W        W92721  34.951  39.118   0.848
24504W        W92722   0.258  15.851  13.024
24505W        W92723  39.679   1.911  14.272
24506W        W92724  34.353  36.599   0.317
24507W        W92725   7.167   6.837  11.623
24508W        W92726  38.924  25.004   3.722
24509W        W92727   4.732   9.645  14.286
24510W        W92728  39.226  39.438   4.672
24511W        W92729  11.639  34.462   0.633
24512W        W92730  28.608  38.607   1.044
24513W        W92731  20.225   5.863   0.065
24514W        W92732  27.020  38.057   0.421
24515W        W92733  18.088  27.040  13.795
24516W        W92734  38.832   4.783   5.088
24517W        W92735  26.987   7.603   3.845
24518W        W92736   1.114  31.955  11.940
24519W        W92737  12.744   4.698   0.118
24520W        W92738  25.558  42.863   1.075
24521W        W92739   9.240  37.314  14.730
24522W        W92740  20.290  22.856   1.395
24523W        W92741  27.922   4.467   4.325
24524W        W92742  36.623  10.133   1.207
24525W        W92743  24.706  42.060  13.036
24526W        W92744  12.709  19.877  12.963
24527W        W92745   7.022  26.224  11.115
24528W        W92746   4.709  38.844  13.777
24529W        W92747  16.331  32.716  10.605
24530W        W92748  10.210  27.731   3.245
24531W        W92749  19.117  33.036   0.274
24532W        W92750  19.690  21.725   0.998
24533W        W92751  16.134   4.238   0.927
24534W        W92752   8.346  32.814  13.034
24535W        W92753  36.140   3.910  11.882
24536W        W92754   0.526  25.538  14.981
24537W        W92755  24.926  22.199   1.170
24538W        W92756  24.171  12.021  13.569
24539W        W92757  37.413  32.778  11.677
24540W        W92758  19.212  29.878   0.881
24541W        W92759  11.655   1.807  11.485
24542W        W92760  17.718  34.339  12.931
24543W        W92761  13.899  10.255   3.716
24544W        W92762   1.985   6.314   1.390
24545W        W92763   2.450  23.281   3.335
24546W        W92764  15.676  17.863   0.900
24547W        W92765   2.035  25.998   2.162
24548W        W92766   5.598  12.072  11.966
24549W        W92767  29.152   9.691   2.384
24550W        W92768  16.587   1.269  13.521
24551W        W92769   1.194  39.724  11.957
24552W        W92770  35.035  18.999   4.114
24553W        W92771  42.736  29.940   4.192
24554W        W92772   8.363  15.408   1.342
24555W        W92773   9.861  40.032   4.648
24556W        W92774   1.457  38.835  12.833
24557W        W92775  38.894  25.071  13.543
24558W        W92776   8.953  10.680   4.934
24559W        W92777  12.331  32.654  13.390
24560W        W92778  23.516   4.855  14.502
24561W        W92779  16.237  21.934   4.801
24562W        W92780  28.980  38.396   1.814
24563W        W92781  15.538  27.074  13.830
24564W        W92782   3.861   4.515   3.879
24565W        W92783  32.574   3.382   3.171
24566W        W92784   4.183  22.540  13.348
24567W        W92785  36.069  34.362  13.988
24568W        W92786  23.519  15.549  10.774
24569W        W92787  11.128  13.771   4.721
24570W        W92788  38.336  22.947   1.377
24571W        W92789  36.094   7.347   0.041
24572W        W92790  28.623  17.320  11.031
24573W        W92791  13.863  27.923  14.872
24574W        W92792  12.320   0.077  13.436
24575W        W92793  22.062  19.639   1.240
24576W        W92794  17.084  41.918   4.748
24577W        W92795  33.846  12.358  13.352
24578W        W92796  21.304  11.223   4.413
24579W        W92797  20.361   4.113  13.970
24580W        W92798  31.437  30.950  13.400
24581W        W92799   6.144  43.334  12.881
24582W        W92800  10.299  18.517   1.293
24583W        W92801   4.515  35.955  13.574
24584W        W92802  38.669  34.070  10.448
24585W        W92803  28.607  38.423   2.814
24586W        W92804  24.219   9.368  14.615
24587W        W92805   4.659  36.507   2.802
24588W        W92806   0.067  41.067  12.101
24589W        W92807  23.691  13.862   2.800
24590W        W92808  25.036  40.630  11.109
24591W        W92809  31.977   7.465   0.894
24592W        W92810   8.647   3.275   1.970
24593W        W92811   8.267  29.563  14.034
24594W        W92812  36.290  30.947   2.350
24595W        W92813   5.926  28.551   0.544
24596W        W92814  15.162  18.155   1.863
24597W        W92815  21.762  38.500  13.104
24598W        W92816  25.655  37.811  14.933
24599W        W92817  23.071  36.060   1.907
24600W        W92818  29.183  42.290   2.381
24601W        W92819  32.355  34.034  13.913
24602W        W92820  31.147  14.786  11.906
24603W        W92821  17.223  41.839   3.427
24604W        W92822  38.840  19.165  13.468
24605W        W92823   4.186  42.374  11.126
24606W        W92824  33.526  43.689  11.130
24607W        W92825   3.889  29.694   2.636
24608W        W92826  20.128  29.846  10.691
24609W        W92827  21.488   8.056   1.191
24610W        W92828   7.626  37.903   4.439
24611W        W92829  24.503   0.553   0.802
24612W        W92830  21.858  27.818   2.770
24613W        W92831   3.777  24.967  12.898
24614W        W92832  44.960  43.297   4.907
24615W        W92833  42.550  44.942  13.545
24616W        W92834  30.591  35.830  14.745
24617W        W92835   5.467  41.780  14.353
24618W        W92836  34.381  24.594  12.970
24619W        W92837  31.098  40.305   3.062
24620W        W92838  21.149  27.224  14.349
24621W        W92839   5.317  12.629   4.537
24622W        W92840  21.586  14.400  11.921
24623W        W92841  19.733  40.840  13.381
24624W        W92842  42.578  22.129  13.045
24625W        W92843  26.883  44.878   2.834
24626W        W92844  16.808   0.351  11.393
24627W        W92845  44.981  24.256   0.805
24628W        W92846  24.112   6.973   3.055
24629W        W92847  13.181  25.449   1.652
24630W        W92848  16.274  18.810  14.855
24631W        W92849   5.665  39.987   2.757
24632W        W92850   5.410  25.634   3.819
24633W        W92851   9.120  39.560   0.274
24634W        W92852  12.161  25.094   1.807
24635W        W92853  36.462   3.334  13.518
24636W        W92854   0.462  28.967  13.734
24637W        W92855  11.029  14.546   1.428
24638W        W92856  17.686  14.777   3.672
24639W        W92857  19.435  24.985   2.343
24640W        W92858   2.222  34.201  13.059
24641W        W92859  25.198  12.683  13.053
24642W        W92860  37.495   4.769   4.566
24643W        W92861   4.080  41.394   9.736
24644W        W92862  19.506  24.560   1.442
24645W        W92863  42.822   1.607  12.251
24646W        W92864  13.881  44.063  12.049
24647W        W92865  10.969  30.229   1.390
24648W        W92866  32.373  36.452  13.509
24649W        W92867  40.130  20.046   3.623
24650W        W92868  33.593  41.739  13.496
24651W        W92869  37.485  33.021   2.335
24652W        W92870  19.800  19.263   2.226
24653W        W92871  16.159  14.172  12.149
24654W        W92872  17.973  38.518  11.617
24655W        W92873  20.109  14.254   2.165
24656W        W92874  35.789  28.791   4.300
24657W        W92875   5.709  23.714   1.368
24658W        W92876   6.679  42.092   3.244
24659W        W92877   0.790  40.347   4.121
24660W        W92878  30.480  14.921   5.111
24661W        W92879  42.756  44.601  10.736
24662W        W92880  28.852  35.335  11.178
24663W        W92881  16.385   0.637   4.279
24664W        W92882   3.472  10.347   0.946
24665W        W92883  14.561  13.742  10.637
24666W        W92884   2.328   2.372   0.319
24667W        W92885  25.153  40.028  11.248
24668W        W92886  18.271  32.597   1.375
24669W        W92887   5.872  39.947   2.271
24670W        W92888  17.028  44.468   4.968
24671W        W92889  14.053  33.027   2.380
24672W        W92890   5.104  29.050   0.485
24673W        W92891  16.836  29.073   4.131
24674W        W92892  12.567  12.391  11.828
24675W        W92893  29.998  14.649   0.423
24676W        W92894  32.109   9.177  14.710
24677W        W92895   6.126  43.509   4.510
24678W        W92896  16.849   9.538  11.610
24679W        W92897   9.338  10.370   5.008
24680W        W92898   0.863  20.471   3.141
24681W        W92899  12.265  19.600  12.944
24682W        W92900  24.556  13.797   1.320
24683W        W92901   3.436  18.999   2.791
24684W        W92902   6.116  29.963   1.489
24685W        W92903  22.934   1.939   5.264
24686W        W92904  35.042  29.442   3.630
24687W        W92905  23.148  12.874   1.265
24688W        W92906  20.217  18.660   0.032
24689W        W92907  36.458  29.990   0.490
24690W        W92908  12.816   2.179   0.459
24691W        W92909  31.110  37.933  12.250
24692W        W92910  30.105  17.513   2.095
24693W        W92911  36.977  20.645  13.949
24694W        W92912   9.253  36.304  14.948
24695W        W92913  28.626  15.808   0.035
24696W        W92914   5.632  13.610  10.585
24697W        W92915  28.836  35.320   1.225
24698W        W92916  28.132   7.651   3.848
24699W        W92917  16.044  37.862  12.128
24700W        W92918  10.149  26.218   0.385
24701W        W92919  39.245  23.993   3.658
24702W        W92920  27.678  12.748   3.156
24703W        W92921   0.347   1.606   4.096
24704W        W92922  24.404   7.200  13.859
24705W        W92923  26.764  18.800  11.557
24706W        W92924  28.847   6.294  10.103
24707W        W92925  30.007  36.917  12.236
24708W        W92926  30.100  30.841   1.930
24709W        W92927   5.012  43.575  11.097
24710W        W92928  36.293  28.773   9.631
24711W        W92929  36.134   6.357   3.254
24712W        W92930  37.019  34.972  10.582
24713W        W92931  15.690  39.346  14.860
24714W        W92932  33.835  11.559  11.631
24715W        W92933  17.333  40.090  10.512
24716W        W92934   4.205  12.610  13.923
24717W        W92935  12.615  22.744  12.827
24718W        W92936  41.542  14.315   0.850
24719W        W92937  11.344  11.748   1.804
24720W        W92938  33.613   2.431  13.430
24721W        W92939  37.432   0.214  11.307
24722W        W92940  36.613  44.785  13.931
24723W        W92941  23.153  16.389  14.284
24724W        W92942  39.739  22.932  13.959
24725W        W92943  21.123  27.227   2.835
24726W        W92944   1.231  29.492  13.375
24727W        W92945  29.631   4.961   1.357
24728W        W92946  34.450  40.533   1.935
24729W        W92947  12.983  23.562  14.503
24730W        W92948  28.703  31.378   0.445
24731W        W92949   4.174  15.955   0.171
24732W        W92950   1.710  18.249  11.084
24733W        W92951  32.157  24.282  12.886
24734W        W92952   5.002  30.440  10.591
24735W        W92953  44.197   3.260  13.055
24736W        W92954  37.256  37.754   0.959
24737W        W92955  29.094  24.194  13.958
24738W        W92956  27.124   9.360  14.910
24739W        W92957   1.265  18.758   4.722
24740W        W92958  19.690  31.309   4.329
24741W        W92959  33.543   3.272  12.877
24742W        W92960  10.584  33.422   5.393
24743W        W92961  39.744   1.684  10.699
24744W        W92962  33.305   2.000  11.671
24745W        W92963  17.841  12.894  14.620
24746W        W92964   2.302  40.120   1.750
24747W        W92965  23.134  39.577  14.465
24748W        W92966   8.154  44.483   2.892
24749W        W92967  43.439  36.553   4.613
24750W        W92968  23.708  31.923   1.857
24751W        W92969   9.893  21.723  13.459
24752W        W92970  35.045  26.689   2.149
24753W        W92971  18.540  39.442   4.800
24754W        W92972  14.656  34.747   2.241
24755W        W92973   2.338  34.369   4.347
24756W        W92974  32.487  37.712  12.530
24757W        W92975  11.271   8.704   4.675
24758W        W92976  26.179  44.913   0.009
24759W        W92977   3.766   8.613   3.718
24760W        W92978  43.415  29.957  12.613
24761W        W92979  10.640  33.345  11.023
24762W        W92980  22.775  21.553  10.998
24763W        W92981   9.668  12.380  10.663
24764W        W92982  25.701  38.303  13.492
24765W        W92983  38.938  14.868   2.686
24766W        W92984  38.109  36.124   3.425
24767W        W92985  11.993  23.516   1.218
24768W        W92986  42.858  35.862  14.664
24769W        W92987  40.855  27.625   2.889
24770W        W92988   4.585  25.651  14.266
24771W        W92989  26.467   7.245  11.511
24772W        W92990   6.423  33.428  13.879
24773W        W92991   4.265   9.592  11.618
24774W        W92992  16.060  18.665  13.358
24775W        W92993  10.056  20.850   1.888
24776W        W92994  27.873  17.348   4.480
24777W        W92995  32.726   0.848   1.673
24778W        W92996   4.892  25.564  10.760
24779W        W92997  20.104  26.231  10.466
24780W        W92998   9.885  30.055   3.384
24781W        W92999  44.707  35.371   5.096
24782W        W93000  31.977  44.926   1.193
24783W        W93001  28.400  39.057   1.928
24784W        W93002  43.619  24.788  13.846
24785W        W93003  30.389  17.751   1.257
24786W        W93004  40.996   3.385  13.577
24787W        W93005  39.600   4.153  12.589
24788W        W93006   5.479  35.802   0.302
24789W        W93007  29.126   0.338  12.971
24790W        W93008  24.338  30.010  14.731
24791W        W93009   2.005  21.939  10.751
24792W        W93010  23.568  39.699   4.877
24793W        W93011  26.560   0.257   2.637
24794W        W93012  29.611  21.726  12.870
24795W        W93013   8.804  27.645   0.921
24796W        W93014  33.036   8.439  13.824
24797W        W93015  29.707  14.730  13.970
24798W        W93016   9.814  10.244   2.612
24799W        W93017  22.679  20.100  10.692
24800W        W93018  17.169  11.795  14.602
24801W        W93019  15.826  39.729   0.201
24802W        W93020  38.022   9.912  11.919
24803W        W93021  15.846  31.817  10.978
24804W        W93022  39.306  42.222  10.570
24805W        W93023  28.139   7.135   0.772
24806W        W93024  38.661  32.931  12.367
24807W        W93025  26.099  17.704  13.372
24808W        W93026  13.658  25.123  11.187
24809W        W93027  39.795  42.199  13.448
24810W        W93028   9.283  11.111   4.875
24811W        W93029  32.554   0.553   4.678
24812W        W93030  39.086   2.753  13.913
24813W        W93031   2.931   0.534  11.026
24814W        W93032  10.060   9.857   3.933
24815W        W93033  15.133  28.000   3.582
24816W        W93034  33.097  19.099  14.956
24817W        W93035  34.121   1.871  14.965
24818W        W93036  33.971  39.328  14.464
24819W        W93037  29.385  28.408   0.603
24820W        W93038  37.871  28.857  13.026
24821W        W93039  28.264  38.037  13.344
24822W        W93040  32.494  27.986  11.970
24823W        W93041  25.099   7.452  12.394
24824W        W93042  12.569  17.736   2.407
24825W        W93043  37.556  15.254   3.396
24826W        W93044  28.449  30.500   5.066
24827W        W93045  33.426  31.573   4.553
24828W        W93046  11.836  25.237  12.480
24829W        W93047  18.159   3.812   2.879
24830W        W93048  20.901   3.998  11.381
24831W        W93049  25.452  40.814  12.922
24832W        W93050  11.304  11.909   3.223
24833W        W93051  42.901   1.013  13.110
24834W        W93052   1.857   8.361  11.261
24835W        W93053   5.566  18.919   1.103
24836W        W93054  36.260   2.145   3.210
24837W        W93055  37.182  43.890   1.957
24838W        W93056  37.453   2.269  14.034
24839W        W93057  20.326  42.699   5.006
24840W        W93058  12.006   5.283  10.732
24841W        W93059   1.723  33.188  14.994
24842W        W93060  27.345  15.708  12.510
24843W        W93061  17.110   8.391   0.789
24844W        W93062  42.832  11.941   4.173
24845W        W93063  39.374  23.465  12.363
24846W        W93064   5.176  24.309   0.067
24847W        W93065  34.080  36.330   4.778
24848W        W93066  23.380  31.300  11.939
24849W        W93067  28.029  40.777  13.195
24850W        W93068  28.143  20.700  10.270
24851W        W93069   1.847  14.228   1.763
24852W        W93070  16.829  15.863   0.734
24853W        W93071   6.113  26.567  10.658
24854W        W93072   3.360  33.190   3.077
24855W        W93073  32.596  27.589  11.632
24856W        W93074   1.483  40.038   4.152
24857W        W93075  40.494  23.560   0.400
24858W        W93076  12.180   2.333   1.013
24859W        W93077  21.968  23.560   3.627
24860W        W93078  44.411  40.401   2.320
24861W        W93079  11.698   8.794   0.847
24862W        W93080  11.150   4.790   0.439
24863W        W93081  32.128  31.896  11.440
24864W        W93082  30.375  31.602   4.125
24865W        W93083  23.986   0.440   1.685
24866W        W93084  24.013   4.296  14.820
24867W        W93085  17.180   3.942  11.587
24868W        W93086  10.593  12.922   3.653
24869W        W93087  25.517  38.057  12.542
24870W        W93088  21.596   0.526   3.947
24871W        W93089  31.489   6.722  10.593
24872W        W93090  36.050  16.126   4.157
24873W        W93091  40.985  40.807  12.123
24874W        W93092   6.315  31.987   0.395
24875W        W93093  33.115   1.414  14.911
24876W        W93094  42.774  43.725   2.288
24877W        W93095  10.236  26.267   2.280
24878W        W93096   8.845  36.985  14.558
24879W        W93097  28.500  18.681  12.164
24880W        W93098   0.485  17.631   0.321
24881W        W93099  26.153  39.765  11.636
24882W        W93100  42.459  10.123   1.867
24883W        W93101  16.380   9.852  12.458
24884W        W93102  34.092  40.935  12.099
24885W        W93103  10.701   1.093  12.405
24886W        W93104  41.536   0.225   0.426
24887W        W93105  17.970   5.732  11.859
24888W        W93106   8.201  15.922   3.217
24889W        W93107  35.048  34.538   3.834
24890W        W93108  21.546  24.679   1.194
24891W        W93109  34.347  41.477  14.590
24892W        W93110   8.184  40.025  14.954
24893W        W93111  26.513  13.268  10.642
24894W        W93112  23.692  31.902   1.121
24895W        W93113   9.371  28.173   0.001
24896W        W93114  16.030  18.683  11.494
24897W        W93115  23.703  10.642   3.569
24898W        W93116   8.647  37.546   3.288
24899W        W93117  11.121  41.081  14.529
24900W        W93118  35.787  33.980  11.227
24901W        W93119  26.536   1.097   0.009
24902W        W93120  25.674  10.346  13.946
24903W        W93121   9.651  26.566  10.751
24904W        W93122  31.036  25.169   0.992
24905W        W93123  37.342  43.040  11.167
24906W        W93124  19.015  22.242   3.285
24907W        W93125   2.728   0.339   4.676
24908W        W93126   8.770   6.787  12.865
24909W        W93127  20.274  22.560   4.254
24910W        W93128  28.099   4.374  14.894
24911W        W93129  25.642  11.161   1.893
24912W        W93130  44.938   3.858   1.760
24913W        W93131  41.018  41.265  13.426
24914W        W93132  11.808  30.099   1.763
24915W        W93133   1.009  44.248   1.641
24916W        W93134  22.488  43.081  11.476
24917W        W93135  32.930  23.755  14.968
24918W        W93136   6.420   4.851  12.876
24919W        W93137  27.086  33.096   1.645
24920W        W93138  35.944  29.867  13.427
24921W        W93139  11.616  27.498  14.371
24922W        W93140  29.855  16.737   1.864
24923W        W93141  23.692  36.277  12.931
24924W        W93142  18.244  10.289  13.898
24925W        W93143  41.333  38.592  11.651
24926W        W93144  28.242  37.454  10.953
24927W        W93145   5.137  37.187  11.589
24928W        W93146  22.927  41.945  12.369
24929W        W93147   6.858  27.575  13.587
24930W        W93148  41.369  27.137  12.055
24931W        W93149  38.212  35.465  11.889
24932W        W93150  14.299   9.575  14.389
24933W        W93151  35.091  36.084   0.854
24934W        W93152   8.807  22.511  11.097
24935W        W93153   7.376  14.086  10.313
24936W        W93154  16.061   1.451   2.301
24937W        W93155   6.754  37.543  10.743
24938W        W93156   5.870  24.378  11.331
24939W        W93157  13.854  23.451   3.827
24940W        W93158  28.641   4.048   5.430
24941W        W93159  40.918   9.516   3.597
24942W        W93160  28.154  12.260   0.504
24943W        W93161  33.892  33.566   1.405
24944W        W93162  27.561  12.127  10.858
24945W        W93163  41.925  18.081  11.852
24946W        W93164  44.390  37.103   0.788
24947W        W93165  16.361  18.711  11.973
24948W        W93166  39.903   7.465   0.282
24949W        W93167  12.317  41.296   2.813
24950W        W93168  38.336  19.098  14.792
24951W        W93169   2.893  14.260   0.914
24952W        W93170   1.733  17.243  10.705
24953W        W93171  36.061  39.433   1.616
24954W        W93172  24.114  12.646   4.558
24955W        W93173  44.059   0.536  12.080
24956W        W93174  37.602  38.371   3.109
24957W        W93175  13.397  19.184   3.790
24958W        W93176   5.007  32.335   1.526
24959W        W93177  31.959  27.973   0.010
24960W        W93178  27.329   4.316   1.401
24961W        W93179  30.700  16.177   1.497
24962W        W93180   1.866  14.856  13.533
24963W        W93181  27.600  18.535  10.430
24964W        W93182  40.280  11.657  13.333
24965W        W93183  13.144  31.719   1.477
24966W        W93184  21.773   8.450  11.059
24967W        W93185  27.985  16.092   1.748
24968W        W93186  16.195  28.318   0.793
24969W        W93187  34.390  11.809   1.830
24970W        W93188   2.667  19.581   4.726
24971W        W93189  16.322  14.697  12.701
24972W        W93190  20.459  34.581   0.961
24973W        W93191  18.624  44.251  13.759
24974W        W93192  36.436  24.797   4.140
24975W        W93193  21.215  28.670   3.970
24976W        W93194  36.865  33.153   1.582
24977W        W93195   2.849  27.032  10.588
24978W        W93196   7.448  15.272   2.422
24979W        W93197  22.284  28.461   1.237
24980W        W93198  41.427  15.658   4.593
24981W        W93199  37.497   8.015  14.431
24982W        W93200   4.596  10.148   2.260
24983W        W93201  27.159  30.552   4.542
24984W        W93202  14.662  40.459  11.384
24985W        W93203  13.675  43.254  14.345
24986W        W93204  13.852  30.957  11.121
24987W        W93205   2.792  29.175   4.906
24988W        W93206  15.508  37.991   2.755
24989W        W93207  22.078  36.437   2.920
24990W        W93208   8.297   6.934  12.634
24991W        W93209  10.203   6.412   2.668
24992W        W93210  39.928  27.064  10.741
24993W        W93211  43.417  19.323   1.271
24994W        W93212  36.628  12.041  13.785
24995W        W93213  23.641  15.080  12.119
24996W        W93214  23.113  28.582  13.905
24997W        W93215  41.789  28.693  11.567
24998W        W93216   8.796  32.768  13.775
24999W        W93217  37.791   5.392   4.621
25000W        W93218  42.998  13.348  12.447
25001W        W93219  29.154   1.617  14.362
25002W        W93220   0.422  32.607   1.444
25003W        W93221  20.159  43.506   2.750
25004W        W93222  10.858  13.602   0.317
25005W        W93223  23.709  31.401  14.818
25006W        W93224  13.344  35.756   2.378
25007W        W93225  29.254  16.337  11.096
25008W        W93226  26.954  10.178   3.611
25009W        W93227  27.868  17.683  11.496
25010W        W93228  27.191  19.002  11.116
25011W        W93229  10.338  40.449   2.951
25012W        W93230  37.419   4.277  14.891
25013W        W93231  16.695  20.614   2.369
25014W        W93232   4.513  41.953   1.553
25015W        W93233  16.015   3.379  12.136
25016W        W93234  25.512  29.075  13.026
25017W        W93235  43.793  16.068  11.130
25018W        W93236  37.836  14.129   2.184
25019W        W93237  28.114  39.012   2.355
25020W        W93238   3.800  41.094  10.053
25021W        W93239  31.195  38.608   0.005
25022W        W93240   8.628   9.597   3.430
25023W        W93241   5.903  14.327   3.824
25024W        W93242  13.376   6.199  14.825
25025W        W93243  12.685  17.109   4.244
25026W        W93244   6.703  39.997   1.783
25027W        W93245  15.591   7.687   0.295
25028W        W93246  14.341  27.159   0.085
25029W        W93247   9.160  39.015  10.542
25030W        W93248  40.273  21.447   4.492
25031W        W93249   6.587  30.525   2.602
25032W        W93250  35.874  13.905  12.535
25033W        W93251  33.092  28.344   3.175
25034W        W93252  10.373  40.346   0.201
25035W        W93253  33.502  25.568  12.231
25036W        W93254  36.195  33.665  11.080
25037W        W93255  25.484   2.559   2.351
25038W        W93256   7.275  33.341   1.909
25039W        W93257   4.349   5.161  10.716
25040W        W93258  11.131  39.936  13.107
25041W        W93259  30.202  35.822   4.206
25042W        W93260  42.940  27.209   3.670
25043W        W93261  28.625  25.176  10.250
25044W        W93262  22.725  23.319   1.756
25045W        W93263  16.635  32.865  11.122
25046W        W93264  40.420  28.037   4.984
25047W        W93265  14.630  38.001   2.760
25048W        W93266  32.945  32.712  14.478
25049W        W93267  23.109  43.979  12.514
25050W        W93268  29.415  20.232  12.974
25051W        W93269  18.255   0.854   3.272
25052W        W93270  17.233  15.604  11.796
25053W        W93271  43.208  12.663   0.166
25054W        W93272  18.028  27.535   2.959
25055W        W93273  37.234  19.504  11.806
25056W        W93274  18.783   9.332  13.863
25057W        W93275   4.238  39.926  13.598
25058W        W93276  32.080  14.122   1.408
25059W        W93277  34.051  23.802   1.201
25060W        W93278  30.873  22.101  13.802
25061W        W93279  16.631   0.462  11.867
25062W        W93280  24.182   4.706  12.148
25063W        W93281  40.329  36.991   2.275
25064W        W93282  12.075   6.113   4.048
25065W        W93283  30.924  20.524   4.689
25066W        W93284   1.055  35.840  11.206
25067W        W93285  19.729  26.877   0.891
25068W        W93286  29.921  37.021   4.749
25069W        W93287  42.975  36.774  12.023
25070W        W93288  10.385  18.750   1.740
25071W        W93289   0.560   9.699  11.176
25072W        W93290   0.172   7.494  13.820
25073W        W93291  16.179  20.230   2.919
25074W        W93292  28.609   4.678   2.327
25075W        W93293  26.931  11.622   2.743
25076W        W93294  27.606  26.786   4.114
25077W        W93295  31.097  40.975  12.083
25078W        W93296  31.310  27.151   1.989
25079W        W93297  44.562  36.086  12.023
25080W        W93298  38.802   2.790  11.642
25081W        W93299  34.523  33.831  14.826
25082W        W93300  32.149  38.772   0.211
25083W        W93301  28.439   3.243  12.388
25084W        W93302   7.896  28.641  12.042
25085W        W93303   9.226  38.351  12.529
25086W        W93304   8.063   9.613   0.844
25087W        W93305  34.810  43.335   4.970
25088W        W93306  38.314  31.522  11.158
25089W        W93307  20.564   5.604  12.242
25090W        W93308   7.101  18.269   4.544
25091W        W93309   6.767  23.707  11.673
25092W        W93310   0.844  26.388  11.627
25093W        W93311  27.836   1.362  13.094
25094W        W93312  38.717  28.918   3.152
25095W        W93313   9.956  13.194  14.395
25096W        W93314   3.121  44.025  13.503
25097W        W93315  25.028   4.395   4.606
25098W        W93316   3.882   0.282  13.896
25099W        W93317   0.239  22.514   2.630
25100W        W93318  42.918  15.487  11.129
25101W        W93319  35.928   2.393   0.181
25102W        W93320  28.141   9.773  12.008
25103W        W93321  30.683  21.052   0.771
25104W        W93322  20.572  24.232  12.045
25105W        W93323  26.187  21.042   0.717
25106W        W93324  29.565  16.255   2.139
25107W        W93325  23.253  18.634   2.823
25108W        W93326  38.870  33.138  11.898
25109W        W93327  18.154   5.270   2.858
25110W        W93328  17.093  41.671  12.580
25111W        W93329  37.672  16.448  10.578
25112W        W93330  32.542  27.781   3.947
25113W        W93331  33.558   1.780   1.624
25114W        W93332  10.334  24.892   1.970
25115W        W93333   2.306  36.928  12.019
25116W        W93334  14.907  34.935   0.205
25117W        W93335   2.738  26.522   4.639
25118W        W93336   3.750  41.385  10.996
25119W        W93337  27.708  33.972  12.200
25120W        W93338  24.186   0.770   2.375
25121W        W93339  13.081   8.159   0.742
25122W        W93340  11.454   3.279   5.247
25123W        W93341  34.546   6.856   4.118
25124W        W93342  22.135  20.510  13.700
25125W        W93343   3.831  12.279   3.711
25126W        W93344  12.379   8.644   0.493
25127W        W93345  19.942   2.999  10.660
25128W        W93346  40.334  42.952   9.735
25129W        W93347   5.402   4.772  13.321
25130W        W93348  16.972   5.464  13.552
25131W        W93349  27.223  18.503  14.326
25132W        W93350  18.278  15.497   1.762
25133W        W93351  31.991  14.650   3.229
25134W        W93352  28.586  32.343   2.036
25135W        W93353  40.192  19.315  11.033
25136W        W93354   8.594  17.638   2.597
25137W        W93355   3.972   9.765   2.677
25138W        W93356  32.446  13.686  12.773
25139W        W93357  33.907   4.898   1.338
25140W        W93358  40.471  12.655  10.745
25141W        W93359  25.564  30.439   0.044
25142W        W93360   8.637  43.941   3.868
25143W        W93361  11.145   7.676  14.598
25144W        W93362  33.847  35.927  12.169
25145W        W93363  39.602   7.415   4.665
25146W        W93364   3.398  24.516  13.816
25147W        W93365  35.536  36.119  12.460
25148W        W93366   7.289  18.061   1.806
25149W        W93367   3.651  17.523  10.685
25150W        W93368  10.463  32.290   0.427
25151W        W93369  23.494  35.500   0.433
25152W        W93370  44.960  10.988   0.231
25153W        W93371  14.638  42.941   4.121
25154W        W93372  16.575  41.982   4.664
25155W        W93373  31.974  25.685  14.868
25156W        W93374   1.339  23.299  14.964
25157W        W93375  29.101   9.440   2.881
25158W        W93376  31.822  30.537   3.826
25159W        W93377  36.188   5.792  13.859
25160W        W93378   6.185   0.509   1.338
25161W        W93379  32.473  43.260   0.747
25162W        W93380   0.451  11.228   3.248
25163W        W93381  15.413  34.880   0.130
25164W        W93382  30.377  13.526  14.515
25165W        W93383   4.341  38.114   1.032
25166W        W93384  20.318  29.435   3.690
25167W        W93385  11.644  21.478  10.543
25168W        W93386  28.764  34.885   9.932
25169W        W93387   5.082   0.496   3.660
25170W        W93388  34.337  44.540  10.764
25171W        W93389  15.280  10.338  12.034
25172W        W93390  42.679   6.264   4.237
25173W        W93391  15.578  39.402   4.224
25174W        W93392  35.939   2.223  12.743
25175W        W93393  25.480  38.190  11.254
25176W        W93394  43.437  31.049   1.749
25177W        W93395  32.034  32.038   1.218
25178W        W93396  33.616  33.629  10.742
25179W        W93397  28.342  36.938  11.698
25180W        W93398  16.583   7.310  12.032
25181W        W93399  20.442  33.455   1.287
25182W        W93400  41.147   1.395  14.702
25183W        W93401  27.691  30.126   2.397
25184W        W93402   8.810   8.102   1.812
25185W        W93403  35.668  24.974   3.631
25186W        W93404   2.986   1.976  14.800
25187W        W93405  26.612  38.929   3.221
25188W        W93406   9.739   5.193  14.436
25189W        W93407  35.769  13.219   1.737
25190W        W93408   0.289  10.644  12.203
25191W        W93409   3.856  11.194   1.350
25192W        W93410   6.879  13.815   2.810
25193W        W93411   2.409  33.229  13.547
25194W        W93412  35.008  38.237   4.259
25195W        W93413  33.284  20.685   4.422
25196W        W93414  35.577  29.975  11.143
25197W        W93415   3.918   1.714  12.367
25198W        W93416  21.129  15.541  13.911
25199W        W93417  30.156   8.908   3.570
25200W        W93418  30.367  17.662   5.361
25201W        W93419   5.471  10.760  14.295
25202W        W93420  43.529  31.938   1.825
25203W        W93421  40.085  44.734   0.375
25204W        W93422  18.150  38.400  13.558
25205W        W93423  23.860  31.436  12.811
25206W        W93424  44.566  30.704   3.747
25207W        W93425   5.898   5.737   3.725
25208W        W93426  12.185  13.145  13.303
25209W        W93427  21.755  24.566  13.253
25210W        W93428  34.909  41.546   3.680
25211W        W93429  13.587  29.567  10.994
25212W        W93430   3.205   7.418  13.092
25213W        W93431  11.217  15.492   4.345
25214W        W93432   5.136  36.144   3.644
25215W        W93433  39.750   0.814  13.797
25216W        W93434  26.098  39.488  12.139
25217W        W93435  25.695   1.211   2.748
25218W        W93436  17.087  41.694   1.356
25219W        W93437  37.074   2.875   3.348
25220W        W93438  19.753  38.015   0.915
25221W        W93439  23.673  32.022   3.817
25222W        W93440  28.144  39.546   1.254
25223W        W93441  21.783  26.943   0.509
25224W        W93442  11.054  20.607   4.730
25225W        W93443  42.787  25.670   1.804
25226W        W93444  20.324  16.575   3.301
25227W        W93445   7.590   1.796   1.268
25228W        W93446  14.205   0.392  13.161
25229W        W93447  21.746  38.236  10.712
25230W        W93448   0.867  23.424  13.991
25231W        W93449   5.933   5.454  14.988
25232W        W93450  14.497  26.557  14.437
25233W        W93451  34.831  23.522  14.825
25234W        W93452  38.904   3.148   1.254
25235W        W93453  39.488  36.515  14.397
25236W        W93454   8.678  14.237   4.525
25237W        W93455  37.776   2.772  14.767
25238W        W93456  15.756  42.060   1.340
25239W        W93457  39.402  11.487  13.382
25240W        W93458   1.965   2.884   3.211
25241W        W93459  32.374  26.044  10.549
25242W        W93460  23.903  38.368  13.858
25243W        W93461  13.870   9.853   4.305
25244W        W93462  14.376   6.491  12.587
25245W        W93463  11.914  13.532   0.380
25246W        W93464   7.508  19.090  13.515
25247W        W93465  18.629  32.515  11.531
25248W        W93466  14.534  11.550  12.646
25249W        W93467   1.057  35.567   2.393
25250W        W93468  28.909  19.982   3.286
25251W        W93469  17.811   3.229   0.199
25252W        W93470  26.276  42.685   3.839
25253W        W93471  31.940  17.204   4.554
25254W        W93472  36.812  30.038   3.265
25255W        W93473  14.412  17.172   0.838
25256W        W93474   1.240  14.841   4.176
25257W        W93475  13.784   3.260   0.511
25258W        W93476  24.241  31.511   0.374
25259W        W93477   7.171  34.770   2.888
25260W        W93478  23.999  40.568  12.031
25261W        W93479  16.346  15.778   0.538
25262W        W93480  24.562  17.832  13.970
25263W        W93481  11.734  26.462   1.958
25264W        W93482   4.715  32.594   0.521
25265W        W93483  20.475   2.015   4.282
25266W        W93484  36.145  32.347   0.895
25267W        W93485  20.968  41.760  12.438
25268W        W93486   2.937  35.681   0.961
25269W        W93487  28.045   4.057  11.593
25270W        W93488  20.302  42.508   2.697
25271W        W93489   0.096  30.944  12.384
25272W        W93490   9.845  37.448  12.117
25273W        W93491  27.345   4.848   5.008
25274W        W93492  15.841  25.627  13.810
25275W        W93493  35.595  11.151  12.927
25276W        W93494  14.670  19.598   3.978
25277W        W93495  18.752  12.783  10.912
25278W        W93496  32.634   6.168  12.449
25279W        W93497  39.588  17.567   3.798
25280W        W93498   5.747  12.722   2.837
25281W        W93499  31.759   2.515   3.713
25282W        W93500  16.552  31.581  14.447
25283W        W93501  34.268  33.106  13.749
25284W        W93502  26.184  29.123   4.105
25285W        W93503   0.383  23.513   1.544
25286W        W93504  41.208   7.961   3.331
25287W        W93505  22.249   9.035  11.470
25288W        W93506  19.950  28.256  12.017
25289W        W93507  31.938   8.259  10.783
25290W        W93508  42.747   6.288   2.328
25291W        W93509  31.428  33.459   4.654
25292W        W93510  33.155  29.910  14.844
25293W        W93511  19.816   3.427   0.894
25294W        W93512   1.301  29.674   2.333
25295W        W93513  36.212   4.931  10.756
25296W        W93514  29.706  26.561  14.713
25297W        W93515  31.752  34.920   1.217
25298W        W93516  43.266  18.798  14.976
25299W        W93517  13.792  12.159  12.499
25300W        W93518  30.881  17.881  12.354
25301W        W93519  38.821  20.104  14.881
25302W        W93520  44.478  44.370  13.550
25303W        W93521  29.307  26.915   1.334
25304W        W93522  17.281  40.641   0.664
25305W        W93523  23.299  15.921  12.551
25306W        W93524  18.797  14.245  10.297
25307W        W93525  39.363  41.738   2.268
25308W        W93526  32.947   2.875   1.146
25309W        W93527  23.208   2.527   3.241
25310W        W93528  34.539  28.147   1.313
25311W        W93529  11.878  15.154  10.670
25312W        W93530  20.344  17.950  13.374
25313W        W93531  10.438  11.840   1.816
25314W        W93532  16.595  27.570   4.367
25315W        W93533  42.259  33.013   1.910
25316W        W93534  12.844  10.636  13.665
25317W        W93535  12.598  20.208   1.952
25318W        W93536  31.564  16.164  10.041
25319W        W93537  37.773  18.699  11.112
25320W        W93538  26.259  24.422   4.111
25321W        W93539  13.273  28.655  10.579
25322W        W93540  18.777  35.014   4.634
25323W        W93541  32.442  43.972   1.320
25324W        W93542  43.439   6.875  12.592
25325W        W93543  16.171  17.533  10.590
25326W        W93544  13.849  32.569  12.462
25327W        W93545   8.235   7.278   0.936
25328W        W93546  25.710   1.871  14.772
25329W        W93547  17.063  26.430  14.877
25330W        W93548  32.162   6.629   3.121
25331W        W93549  39.224  29.872  14.037
25332W        W93550  33.609  24.274  12.337
25333W        W93551  34.527   0.453   1.901
25334W        W93552  33.047  32.093   0.039
25335W        W93553  42.486  38.145   0.796
25336W        W93554  26.645  26.485   4.750
25337W        W93555   1.238  36.383   1.399
25338W        W93556  11.732  23.761   1.593
25339W        W93557  33.840   4.771  10.221
25340W        W93558  15.961  29.662  12.626
25341W        W93559  38.967  38.071  14.850
25342W        W93560  26.567  29.627  10.623
25343W        W93561  24.391   0.469   4.143
25344W        W93562  19.623  37.614  14.613
25345W        W93563  31.900  12.360   2.713
25346W        W93564  19.005  42.521  12.069
25347W        W93565  25.777  13.181   2.195
25348W        W93566  11.633  31.210  12.358
25349W        W93567  18.599  32.281  14.862
25350W        W93568  37.579  32.024  12.457
25351W        W93569  43.645   0.463  11.174
25352W        W93570   9.166  31.599   1.487
25353W        W93571   9.080  12.646   5.075
25354W        W93572  33.807  30.554   3.619
25355W        W93573  32.465   7.624   0.193
25356W        W93574  21.391  35.382  14.515
25357W        W93575  34.376  24.190   1.155
25358W        W93576  37.717   4.678   0.571
25359W        W93577  12.172  28.771  13.444
25360W        W93578  38.349  42.932  13.899
25361W        W93579  24.925   0.013   2.710
25362W        W93580  38.466  30.093  12.003
25363W        W93581   4.755  42.863   3.381
25364W        W93582  39.573  41.529  11.398
25365W        W93583  41.605  17.068  13.387
25366W        W93584  23.209  25.711   0.313
25367W        W93585  26.382  28.563   2.250
25368W        W93586  17.093  25.473   3.731
25369W        W93587  39.577   1.945  12.078
25370W        W93588   6.423   5.296   2.229
25371W        W93589   8.697  12.940   0.197
25372W        W93590  44.437  32.023   5.068
25373W        W93591  38.605  26.016  11.226
25374W        W93592  10.631  44.831  11.538
25375W        W93593  42.710  16.937   2.222
25376W        W93594  12.656   9.380   4.875
25377W        W93595  27.446  26.969   1.807
25378W        W93596  11.901  44.457   3.750
25379W        W93597   7.454  15.243  14.964
25380W        W93598  16.075  19.387  10.833
25381W        W93599  20.583  24.642   3.175
25382W        W93600  38.811  44.762   3.896
25383W        W93601  25.165  24.553  12.857
25384W        W93602  25.908   6.632  10.421
25385W        W93603  33.792  23.647  12.960
25386W        W93604   0.865   4.127  10.715
25387W        W93605  44.211  36.039   3.823
25388W        W93606  30.332   7.216   4.689
25389W        W93607  44.459  40.807   4.234
25390W        W93608   4.738  12.857   4.557
25391W        W93609   1.557  14.555   2.731
25392W        W93610  30.047  10.283  11.013
25393W        W93611  26.461  29.979  13.642
25394W        W93612  20.290  10.595  13.802
25395W        W93613   2.822  15.627  12.896
25396W        W93614  43.220  44.035   0.753
25397W        W93615  31.707  11.042   3.734
25398W        W93616  19.036  16.325   4.536
25399W        W93617  26.623  29.074  10.649
25400W        W93618  14.352  23.562   1.493
25401W        W93619   7.328  26.144   3.786
25402W        W93620  20.542   0.401  12.422
25403W        W93621  37.023  33.685   1.344
25404W        W93622   0.765   2.431  12.101
25405W        W93623  29.688  19.832   3.697
25406W        W93624  31.726  16.627   2.721
25407W        W93625  44.810  28.910  10.716
25408W        W93626   2.471   5.319  13.358
25409W        W93627   9.213   6.586  14.348
25410W        W93628  17.603   5.788  10.718
25411W        W93629  26.576  42.137  11.693
25412W        W93630  34.395  18.794  12.919
25413W        W93631  33.496   2.925   2.720
25414W        W93632  10.975  40.792   2.439
25415W        W93633   9.292  26.372  13.027
25416W        W93634  24.739  41.741   1.399
25417W        W93635  35.020  34.368   1.320
25418W        W93636  18.780  22.017   3.686
25419W        W93637  31.831  31.022  10.523
25420W        W93638   7.466   3.055   1.399
25421W        W93639  44.738  28.478  12.512
25422W        W93640  32.894  22.038   4.535
25423W        W93641  13.347   1.325   0.429
25424W        W93642  30.861  10.961   4.542
25425W        W93643  17.754  11.295   4.545
25426W        W93644  18.170  21.951  13.668
25427W        W93645  23.616  28.127   2.012
25428W        W93646  31.854  28.091   2.131
25429W        W93647  30.692  25.858   3.927
25430W        W93648  29.178  33.715  13.433
25431W        W93649   0.450  40.963  12.958
25432W        W93650  36.531  37.236   0.888
25433W        W93651   1.490  37.522  11.432
25434W        W93652  15.892   3.812   1.104
25435W        W93653  20.155  16.557  12.990
25436W        W93654  13.279  15.616   3.263
25437W        W93655  42.318  27.053   1.714
25438W        W93656  38.340   6.808   4.636
25439W        W93657  37.007  36.105  13.460
25440W        W93658   9.464  36.496  10.839
25441W        W93659  30.684   1.284   0.912
25442W        W93660  36.526  18.483  11.248
25443W        W93661  12.820  19.544  11.219
25444W        W93662  42.971  21.037   0.806
25445W        W93663   9.171   1.446  11.945
25446W        W93664   5.380   4.298  14.879
25447W        W93665  27.281  19.741   2.066
25448W        W93666  38.097  16.646  12.559
25449W        W93667  34.541  17.030   2.333
25450W        W93668   0.806  21.544   3.148
25451W        W93669  38.289   5.942   0.345
25452W        W93670  44.848  37.562   4.459
25453W        W93671   3.702  30.663   4.600
25454W        W93672   5.744   4.916   0.967
25455W        W93673   8.603  16.111  10.907
25456W        W93674  21.034  36.535   4.712
25457W        W93675  37.531  29.504  14.791
25458W        W93676  42.914  25.453  14.531
25459W        W93677  11.470  31.174   2.127
25460W        W93678  29.586  40.226   1.421
25461W        W93679   3.949  37.634   3.148
25462W        W93680  24.694   1.300  14.886
25463W        W93681  23.703  29.254  11.866
25464W        W93682  17.582  10.898   1.749
25465W        W93683   2.528  18.127   3.306
25466W        W93684  14.135  21.804  14.472
25467W        W93685  38.440  26.538  12.985
25468W        W93686  30.417  14.481  12.841
25469W        W93687   8.683  18.610  11.175
25470W        W93688  21.211  36.449   5.194
25471W        W93689   7.921  30.863   4.104
25472W        W93690  24.651  32.056   2.012
25473W        W93691  43.057  26.427   3.219
25474W        W93692  25.183  13.802  14.043
25475W        W93693  37.381  23.045  13.466
25476W        W93694  15.583  29.217   3.146
25477W        W93695  14.692  24.696   4.108
25478W        W93696  10.237  14.732   0.980
25479W        W93697  17.491  26.821  13.487
25480W        W93698  38.764   3.791   0.093
25481W        W93699  33.255  31.446  10.161
25482W        W93700  32.540  38.009  11.666
25483W        W93701  25.421  42.747   3.171
25484W        W93702  25.067  28.918  10.608
25485W        W93703  27.939   3.362   2.333
25486W        W93704  27.183  27.437   2.274
25487W        W93705  40.580  33.886   0.332
25488W        W93706  18.701  30.045  10.752
25489W        W93707  25.406   9.230   0.541
25490W        W93708  39.635  44.903  11.134
25491W        W93709   2.422  40.316   2.403
25492W        W93710  25.216  22.074   2.539
25493W        W93711  19.773  10.878  12.918
25494W        W93712   8.666  36.899   1.843
25495W        W93713  37.883  29.879  13.825
25496W        W93714  35.826  17.699  10.700
25497W        W93715   2.413  16.597   1.491
25498W        W93716  35.116   4.036  14.515
25499W        W93717  33.869  42.370  12.034
25500W        W93718  39.336   6.677  12.098
25501W        W93719   7.824  19.875   5.036
25502W        W93720   9.889  44.503   3.451
25503W        W93721  21.048  14.947   2.835
25504W        W93722   8.007  14.358  10.824
25505W        W93723  39.773  13.373   0.898
25506W        W93724  15.686  14.181  12.361
25507W        W93725  26.939  17.207   0.968
25508W        W93726  15.166  43.558  14.005
25509W        W93727  12.591   4.852   2.277
25510W        W93728  39.807  44.812   3.272
25511W        W93729   6.667  11.852   4.796
25512W        W93730  41.926  14.199   2.549
25513W        W93731  29.190  25.897  11.205
25514W        W93732  41.083  40.224   0.304
25515W        W93733  21.567  24.990   2.404
25516W        W93734  23.800  13.100   3.321
25517W        W93735  35.414  19.142   4.438
25518W        W93736  10.288  25.400   0.003
25519W        W93737  30.099   4.856   4.429
25520W        W93738  42.239  29.697   4.197
25521W        W93739  34.427  43.984  12.885
25522W        W93740   7.405  21.615   3.703
25523W        W93741  10.246  25.092  14.449
25524W        W93742  44.929   1.738  13.384
25525W        W93743  41.474  33.668  11.466
25526W        W93744   4.229  23.727   1.447
25527W        W93745  26.958  10.642   1.885
25528W        W93746  12.207  25.179   2.863
25529W        W93747  39.311   7.283  12.662
25530W        W93748  22.447  26.290   1.764
25531W        W93749  28.490  35.832   0.370
25532W        W93750  42.857  19.995   2.135
25533W        W93751  22.267  29.232   0.326
25534W        W93752  22.588  30.456   2.561
25535W        W93753  15.779  16.530   0.898
25536W        W93754  40.884  41.024  13.851
25537W        W93755   1.868  30.352   3.236
25538W        W93756   1.344  41.849   2.218
25539W        W93757  42.271  36.095   3.951
25540W        W93758  24.485   0.390  12.073
25541W        W93759   1.263  28.439  13.825
25542W        W93760  29.585  36.883   0.435
25543W        W93761  44.586  22.207  12.887
25544W        W93762   7.781   3.470  10.899
25545W        W93763  37.314  12.147  12.108
25546W        W93764  16.550  32.474   1.825
25547W        W93765  33.558  34.764   0.854
25548W        W93766  34.684  17.508   2.383
25549W        W93767  29.607  37.831   3.328
25550W        W93768  41.988  17.134  14.856
25551W        W93769  33.002  20.101  14.072
25552W        W93770  42.957  33.913   2.749
25553W        W93771   4.326  18.067  11.000
25554W        W93772  27.975  16.791  10.950
25555W        W93773   9.115  29.445  14.729
25556W        W93774  19.586  42.225   2.157
25557W        W93775  20.005  24.996   4.218
25558W        W93776  30.110   5.422  11.179
25559W        W93777  37.947  29.893  14.752
25560W        W93778  22.242  34.871   0.873
25561W        W93779   9.294  14.419  12.137
25562W        W93780   0.283  27.046  14.310
25563W        W93781  20.178  15.313  11.534
25564W        W93782  20.078  41.857  13.879
25565W        W93783  10.185  23.580  10.716
25566W        W93784  33.482  16.540  11.333
25567W        W93785   6.628  34.140  14.302
25568W        W93786  35.893  34.969  12.604
25569W        W93787  22.854  32.412   0.843
25570W        W93788  22.389  30.780   4.735
25571W        W93789  43.024  23.963  11.254
25572W        W93790  27.441  44.167   1.660
25573W        W93791  25.950  35.889   3.842
25574W        W93792  31.356  43.317   3.308
25575W        W93793  11.782  22.803  11.028
25576W        W93794  11.852   1.822  12.847
25577W        W93795  17.512   5.698   0.747
25578W        W93796  26.154  26.165  14.237
25579W        W93797   6.424  25.314  14.381
25580W        W93798   8.273  24.029   4.824
25581W        W93799  13.287  39.032   0.834
25582W        W93800  27.364  32.109  12.178
25583W        W93801  43.475  17.906  11.090
25584W        W93802  21.455  29.576   1.624
25585W        W93803   5.970  16.046   2.675
25586W        W93804  26.604  38.067   0.780
25587W        W93805  37.623  17.485  11.108
25588W        W93806  42.375  13.248   1.141
25589W        W93807  38.481  30.945  10.472
25590W        W93808   9.745  38.821  14.627
25591W        W93809  16.789  30.182  13.088
25592W        W93810  37.799   8.783   1.182
25593W        W93811  27.706   2.672   3.823
25594W        W93812  40.388  42.043  11.569
25595W        W93813  40.294  14.287   3.056
25596W        W93814  24.531  13.073  14.543
25597W        W93815  44.905  14.944  14.945
25598W        W93816   4.465  40.940   4.103
25599W        W93817  15.327  43.247   2.636
25600W        W93818  29.373  44.983   4.103
25601W        W93819  23.874  33.420   2.803
25602W        W93820   4.330   3.892   3.843
25603W        W93821   6.239  44.907  10.233
25604W        W93822   1.082  43.490   3.550
25605W        W93823  18.310   4.203  11.126
25606W        W93824  42.726  17.295   0.378
25607W        W93825  25.509   9.259   4.708
25608W        W93826  25.091  12.362  13.440
25609W        W93827  37.965  15.142   2.579
25610W        W93828  25.158  21.145  10.363
25611W        W93829   5.694  12.183   3.621
25612W        W93830  14.049  39.085   1.781
25613W        W93831  28.416  13.789   3.130
25614W        W93832  11.925  22.940   2.765
25615W        W93833  28.732  18.226  14.099
25616W        W93834  12.141  23.290   2.408
25617W        W93835  19.772  25.099  13.022
25618W        W93836  31.677  19.784  11.682
25619W        W93837   9.521   0.327   3.149
25620W        W93838   8.725   3.461   2.877
25621W        W93839   5.826  15.333  11.015
25622W        W93840  44.282  42.414  12.891
25623W        W93841   5.319  27.057   4.499
25624W        W93842   7.814  34.138  12.508
25625W        W93843  22.748  17.026  12.031
25626W        W93844  12.170  11.232  13.042
25627W        W93845   5.215  12.448  10.683
25628W        W93846  15.986   8.265   2.811
25629W        W93847  41.522  43.908   3.198
25630W        W93848  11.292   6.315  11.022
25631W        W93849  33.923  37.534  10.560
25632W        W93850  15.233  25.398   4.913
25633W        W93851   4.658  21.022   1.461
25634W        W93852  20.566  41.903   2.896
25635W        W93853  27.961  34.640  13.695
25636W        W93854  40.826   3.299   4.238
25637W        W93855  41.427  37.749  12.111
25638W        W93856  29.133  18.500   3.744
25639W        W93857  26.605   4.415   4.747
25640W        W93858   2.230   1.984   3.714
25641W        W93859  35.171  15.506  12.024
25642W        W93860   0.502  27.718  13.310
25643W        W93861  28.260  37.912  12.811
25644W        W93862   3.876  19.075   1.398
25645W        W93863  18.576  40.515   4.175
25646W        W93864  31.994   7.666   4.923
25647W        W93865  17.602   8.760  13.041
25648W        W93866   1.514  40.470   2.349
25649W        W93867  35.938  31.691  11.261
25650W        W93868  41.548   6.946   2.624
25651W        W93869  43.737  34.137   1.244
25652W        W93870  42.497  28.915   1.311
25653W        W93871  32.642   7.253  11.619
25654W        W93872  14.194  36.413  14.121
25655W        W93873  35.654  31.046   3.689
25656W        W93874  39.834  40.018   2.030
25657W        W93875  14.316  15.383  11.925
25658W        W93876  17.081   8.722  12.978
25659W        W93877  38.835  11.293   0.330
25660W        W93878  40.074  25.516  12.355
25661W        W93879  40.608  37.086   2.672
25662W        W93880  31.240   5.908   9.800
25663W        W93881  36.018  35.022   0.807
25664W        W93882   4.722   7.066   2.314
25665W        W93883  40.907  33.189   3.540
25666W        W93884  29.115   5.424  13.552
25667W        W93885  10.233  37.479   1.413
25668W        W93886  29.461  42.426   3.680
25669W        W93887  34.426  10.914   3.653
25670W        W93888  11.003  11.791  12.215
25671W        W93889  30.785  40.978   2.931
25672W        W93890  37.648   1.507   4.585
25673W        W93891  30.462  28.522   2.418
25674W        W93892  29.501  39.289   4.111
25675W        W93893  27.678  31.371  13.834
25676W        W93894  18.797  14.554  12.031
25677W        W93895   5.427   3.388   4.090
25678W        W93896  15.189  11.076   4.334
25679W        W93897  44.032  25.825   2.141
25680W        W93898   8.646   9.523   4.096
25681W        W93899  44.996  35.562   0.534
25682W        W93900  35.627   2.048   2.369
25683W        W93901  25.967  16.514  12.434
25684W        W93902   9.328  27.514  12.558
25685W        W93903  15.292   0.531   3.975
25686W        W93904  41.720  33.688   2.181
25687W        W93905  41.745  19.216  10.833
25688W        W93906   0.149  19.701  11.970
25689W        W93907   2.521  10.237  10.184
25690W        W93908  40.924  44.014  13.997
25691W        W93909   8.720   5.381  11.845
25692W        W93910  30.224   4.543   9.822
25693W        W93911  30.522  17.843   3.668
25694W        W93912  24.405  19.634   4.323
25695W        W93913  17.535   1.824   4.568
25696W        W93914  30.386   1.163  11.149
25697W        W93915  40.989  23.795  12.692
25698W        W93916  13.719  28.633  12.019
25699W        W93917  14.369  32.168  14.540
25700W        W93918   6.614  30.431  14.917
25701W        W93919   4.738   2.913   3.339
25702W        W93920  12.443  38.349   0.920
25703W        W93921  42.054  29.405   3.327
25704W        W93922  17.639   1.383  13.788
25705W        W93923  26.014  27.290  12.874
25706W        W93924  39.581  15.659  13.424
25707W        W93925  12.679  22.185   1.920
25708W        W93926  34.692  18.994  14.860
25709W        W93927  33.397  15.167  12.504
25710W        W93928  26.936  36.369   4.833
25711W        W93929  19.635  18.496   1.711
25712W        W93930  42.313  14.466   1.299
25713W        W93931  24.051  11.872  14.923
25714W        W93932  39.461  18.757   3.359
25715W        W93933  34.720  22.769  11.068
25716W        W93934  31.383  37.956   3.963
25717W        W93935   2.395   6.481  13.922
25718W        W93936  32.018   9.300   4.136
25719W        W93937  21.042  38.052  13.444
25720W        W93938  13.637  10.654  11.068
25721W        W93939  32.427  16.411   3.313
25722W        W93940  15.338  12.884   5.018
25723W        W93941  39.788  21.633   4.235
25724W        W93942   9.273   2.155   2.766
25725W        W93943  17.812   8.797   0.424
25726W        W93944  17.691  23.049   4.187
25727W        W93945   7.894  21.013   4.122
25728W        W93946  13.637  34.616  10.577
25729W        W93947  35.610   2.698  13.979
25730W        W93948  35.635  44.896   1.751
25731W        W93949   0.212  13.253   2.569
25732W        W93950   1.451  30.943  11.271
25733W        W93951   8.403  26.473   3.136
25734W        W93952  18.522  42.253  10.495
25735W        W93953  43.485  35.996   0.668
25736W        W93954   0.500   9.386   0.864
25737W        W93955  27.147   4.896  14.900
25738W        W93956   0.371  18.562   2.722
25739W        W93957   3.859  33.360  11.654
25740W        W93958  39.977   8.137  10.731
25741W        W93959  42.462  25.015   1.708
25742W        W93960  11.121   1.434  10.708
25743W        W93961  21.581  43.705  12.459
25744W        W93962  25.485  31.756  14.410
25745W        W93963  19.157   1.169  13.404
25746W        W93964  34.061   1.381  14.505
25747W        W93965  34.047   0.275   0.627
25748W        W93966   0.297  22.521  13.273
25749W        W93967  16.113  27.445  11.446
25750W        W93968  15.222  26.356   4.712
25751W        W93969   9.418   8.408  10.584
25752W        W93970  26.236  39.743   1.959
25753W        W93971  11.346  23.101   2.012
25754W        W93972  24.674  20.573   1.852
25755W        W93973  27.012  35.108   2.747
25756W        W93974  17.140  13.538  13.405
25757W        W93975   4.649  28.199   3.618
25758W        W93976  28.715  41.373   4.036
25759W        W93977  43.855   9.786   0.353
25760W        W93978   8.674  33.482   1.597
25761W        W93979  37.488   7.701   1.805
25762W        W93980   2.956  42.480   0.956
25763W        W93981  42.099  12.358   4.675
25764W        W93982  10.757  20.774   3.215
25765W        W93983  37.898  32.615   1.871
25766W        W93984   2.239   1.150  11.102
25767W        W93985  10.990  35.448   3.197
25768W        W93986   8.963   9.336   3.747
25769W        W93987  33.615  18.187  12.580
25770W        W93988  39.041  38.051  11.296
25771W        W93989  18.493  43.887   2.596
25772W        W93990  35.564   9.819  14.885
25773W        W93991  34.073   6.425   2.210
25774W        W93992  33.419  35.910  11.460
25775W        W93993   6.751  32.037   1.661
25776W        W93994  15.026  16.562  11.696
25777W        W93995  34.954  34.559  10.644
25778W        W93996  37.162  18.669  11.972
25779W        W93997   5.267  28.096   0.928
25780W        W93998  24.316  28.204   4.995
25781W        W93999  31.873  38.004   0.763
25782W        W94000  22.226  32.298  11.312
25783W        W94001  39.647  33.551   1.375
25784W        W94002   5.285  18.147   4.722
25785W        W94003  22.456  24.165   4.571
25786W        W94004   6.382  44.463  11.474
25787W        W94005  20.785  32.510   1.312
25788W        W94006  35.834   7.376   2.383
25789W        W94007  13.317  14.185   0.946
25790W        W94008  25.632  43.179  13.018
25791W        W94009  30.676  10.397   2.707
25792W        W94010  27.884   4.639   1.830
25793W        W94011  13.093  28.860  11.230
25794W        W94012   7.851  40.404   2.973
25795W        W94013  39.525  25.900   3.153
25796W        W94014  24.492  17.911  11.641
25797W        W94015  29.416  35.203  11.965
25798W        W94016   9.310  23.342   0.922
25799W        W94017  36.436  43.799   4.092
25800W        W94018  23.312  41.844  13.923
25801W        W94019  42.772   6.953   1.774
25802W        W94020  31.681   2.148   5.424
25803W        W94021  24.115  39.122   4.124
25804W        W94022   6.373  43.028  12.048
25805W        W94023  32.404  23.648  14.299
25806W        W94024  39.029   8.942  12.710
25807W        W94025  19.560  31.065  12.010
25808W        W94026  35.169  30.078  12.464
25809W        W94027   4.386  22.427  11.864
25810W        W94028  25.777  42.356   1.801
25811W        W94029  13.405  20.323   2.862
25812W        W94030  31.034  20.198   2.105
25813W        W94031  39.055  42.845  13.388
25814W        W94032  21.920  10.627   1.672
25815W        W94033  26.628  40.701  12.491
25816W        W94034  26.688  22.157  12.236
25817W        W94035   7.473  39.937  13.138
25818W        W94036  32.606  23.120  11.175
25819W        W94037  16.230  25.269   4.109
25820W        W94038  30.863  20.521  14.845
25821W        W94039  28.174  44.263   0.290
25822W        W94040  19.969  34.583   4.158
25823W        W94041  28.034   6.858   4.621
25824W        W94042  22.121  36.107   2.426
25825W        W94043  18.781  36.589   2.760
25826W        W94044  18.725   9.576  10.596
25827W        W94045  17.607  31.233   4.597
25828W        W94046  36.206  23.991  12.068
25829W        W94047  37.911  12.445  13.381
25830W        W94048  35.056  13.290   2.233
25831W        W94049   4.849  42.201  13.949
25832W        W94050  22.233   8.103   1.792
25833W        W94051  16.536   3.711   1.824
25834W        W94052   5.768   3.512   4.578
25835W        W94053  43.317  20.771   3.641
25836W        W94054  43.229  17.761  14.925
25837W        W94055   5.310  12.068  14.729
25838W        W94056  39.777   1.866   2.438
25839W        W94057   6.189  25.122   0.733
25840W        W94058  17.547  12.659  10.336
25841W        W94059  11.836  10.191   1.269
25842W        W94060  29.018   8.670  13.342
25843W        W94061  12.699  14.528   3.257
25844W        W94062  25.011   2.694   2.222
25845W        W94063  36.877  20.168   3.993
25846W        W94064  42.519  22.687  14.900
25847W        W94065  43.042  43.029   0.139
25848W        W94066  10.641   8.361   1.684
25849W        W94067  27.206  41.938  10.719
25850W        W94068  39.036   7.277   1.439
25851W        W94069  11.188  34.036  14.269
25852W        W94070  18.218  38.007   4.493
25853W        W94071  20.619   8.389   4.233
25854W        W94072  26.643   7.376   1.925
25855W        W94073  42.837  23.671  12.080
25856W        W94074  20.869   8.328  12.099
25857W        W94075  34.610  30.332   0.644
25858W        W94076  42.564  18.186   3.959
25859W        W94077  31.677  41.113   2.342
25860W        W94078  34.031  35.931  14.389
25861W        W94079  28.979  43.087  12.578
25862W        W94080  20.522  13.663  14.017
25863W        W94081  16.080  36.470  12.011
25864W        W94082  11.276  30.899   3.674
25865W        W94083  44.949   9.372   1.677
25866W        W94084  27.525  23.185  12.828
25867W        W94085  30.465   2.691   0.124
25868W        W94086  15.282  37.894   0.519
25869W        W94087  17.582  27.098  13.905
25870W        W94088   4.779   4.315   0.493
25871W        W94089  15.899  23.169  13.957
25872W        W94090   4.536  19.501  11.999
25873W        W94091  36.596  25.766   3.271
25874W        W94092  35.928  13.021  13.539
25875W        W94093  15.762  29.821   3.670
25876W        W94094  16.572   6.683   4.343
25877W        W94095  20.707   8.743   4.588
25878W        W94096  24.970  27.028  14.006
25879W        W94097  32.939  12.314   1.750
25880W        W94098  40.913  30.116   0.513
25881W        W94099  13.769  13.520  12.005
25882W        W94100   1.669  42.723  10.655
25883W        W94101  26.866  20.590   5.490
25884W        W94102   4.720  43.948   2.735
25885W        W94103  14.836  17.587   2.013
25886W        W94104  25.189  27.163   4.659
25887W        W94105  13.149  40.737   3.004
25888W        W94106  19.672  30.084   2.889
25889W        W94107  36.267  44.394  13.058
25890W        W94108  26.559   6.901  11.892
25891W        W94109  10.821   3.504   0.438
25892W        W94110  22.917  32.407  14.323
25893W        W94111  39.807  12.667   2.693
25894W        W94112  34.542  40.401  10.734
25895W        W94113  33.007  25.758   1.846
25896W        W94114  25.529  15.788  13.298
25897W        W94115  22.771  24.486  12.414
25898W        W94116  26.815  15.314   3.466
25899W        W94117  20.511  13.031  11.589
25900W        W94118  12.121  44.294  11.388
25901W        W94119  31.200  44.296   2.698
25902W        W94120  35.474  21.653  14.311
25903W        W94121   5.958  33.037  13.597
25904W        W94122   9.821  30.026  14.901
25905W        W94123  43.816   5.942   3.664
25906W        W94124  15.666  29.698  13.611
25907W        W94125   0.379  36.433  12.513
25908W        W94126  28.744  23.504   4.174
25909W        W94127  24.557  41.814   4.593
25910W        W94128   4.433  35.059   1.868
25911W        W94129  17.555  12.923  12.274
25912W        W94130  15.393  16.670  10.731
25913W        W94131  41.867   8.769  10.268
25914W        W94132  36.985  19.659   0.084
25915W        W94133  12.770   2.755  13.687
25916W        W94134  19.772  14.332  12.338
25917W        W94135   9.639   1.311  14.450
25918W        W94136  36.076   6.348   1.483
25919W        W94137  35.887  20.902  12.792
25920W        W94138  41.524  11.120   4.857
25921W        W94139  33.845  31.217  14.435
25922W        W94140   9.297   8.807  13.852
25923W        W94141  31.125   9.553   2.568
25924W        W94142  39.371  34.329   2.865
25925W        W94143  44.356  27.263   4.252
25926W        W94144  26.680  40.614  11.548
25927W        W94145  36.666   5.918  13.736
25928W        W94146  16.909  14.838  12.020
25929W        W94147  33.758  17.518   4.159
25930W        W94148   2.029  43.018   3.667
25931W        W94149   4.308  19.997   2.154
25932W        W94150  11.943  17.614  13.948
25933W        W94151  35.023  37.949   3.490
25934W        W94152   0.429   1.721   3.166
25935W        W94153  29.528  25.195   1.720
25936W        W94154  26.889  22.528  11.119
25937W        W94155  32.470   6.366   1.904
25938W        W94156   1.280  13.369  11.172
25939W        W94157  35.607  20.619   4.174
25940W        W94158  25.389   6.073   0.758
25941W        W94159   5.585   2.517  10.963
25942W        W94160  16.693   2.271  10.539
25943W        W94161  25.938  15.743   2.615
25944W        W94162  40.888  36.835   0.830
25945W        W94163  24.788   9.618  14.151
25946W        W94164   7.621  31.512   3.160
25947W        W94165  19.469  29.074  14.313
25948W        W94166  39.089  28.427  11.107
25949W        W94167   3.956  38.330  10.895
25950W        W94168  25.844   5.760  14.320
25951W        W94169  44.579  33.990  11.445
25952W        W94170  11.273  24.415  13.457
25953W        W94171  29.960  29.599   2.608
25954W        W94172  28.713  22.921  13.517
25955W        W94173  42.423   0.793   2.709
25956W        W94174  25.893  23.179  14.889
25957W        W94175   9.758  33.007  10.440
25958W        W94176  30.630   0.366   4.271
25959W        W94177   8.714  36.846  10.506
25960W        W94178  42.636  12.899   3.861
25961W        W94179  34.937  22.922   0.389
25962W        W94180   9.860  16.087  14.403
25963W        W94181  22.799  28.146  12.261
25964W        W94182  26.880   1.503   4.610
25965W        W94183   0.410  32.523   4.722
25966W        W94184  31.166   7.480   4.508
25967W        W94185  38.030   0.968  11.609
25968W        W94186   9.867  25.648   4.411
25969W        W94187  28.496   9.182  11.365
25970W        W94188   3.360  26.120  13.037
25971W        W94189  23.130  37.656   2.818
25972W        W94190  10.697   7.321  11.637
25973W        W94191  37.856  27.992   2.437
25974W        W94192  29.492   1.236  12.616
25975W        W94193  21.306  42.038  14.616
25976W        W94194   5.118  28.573   0.755
25977W        W94195  24.000   7.349   3.771
25978W        W94196   8.711  33.994   1.698
25979W        W94197  21.670   4.822   9.798
25980W        W94198  30.964  21.146   5.010
25981W        W94199  29.909  27.481  10.718
25982W        W94200  24.529  36.800  12.146
25983W        W94201  29.463  40.894  13.783
25984W        W94202  19.940  17.098   4.699
25985W        W94203  18.324  13.809   1.340
25986W        W94204   8.201  39.370  11.240
25987W        W94205   5.436  40.495   1.273
25988W        W94206  22.236   3.999   2.000
25989W        W94207  38.341   7.718   2.510
25990W        W94208  40.961  43.723   0.405
25991W        W94209  20.318   4.714  13.820
25992W        W94210  26.917  29.279   3.629
25993W        W94211  21.230   7.168   1.285
25994W        W94212  33.644  30.859  14.822
25995W        W94213  34.634  41.775   0.419
25996W        W94214  26.707  19.530   2.780
25997W        W94215   0.008  10.378  10.818
25998W        W94216  27.987  36.822   0.887
25999W        W94217  37.916  35.977   0.296
26000W        W94218  40.453  10.895  11.080
26001W        W94219  25.768  11.716  10.788
26002W        W94220  38.022  43.524   2.819
26003W        W94221  10.951   3.960   1.836
26004W        W94222  42.981   7.292   4.799
26005W        W94223  34.164   4.422   9.503
26006W        W94224  21.257  44.986   1.159
26007W        W94225  30.177  19.636   2.225
26008W        W94226  24.106   5.879   3.655
26009W        W94227  33.386  34.907   4.097
26010W        W94228  11.091   1.892  11.568
26011W        W94229   3.848  23.846  14.362
26012W        W94230   6.510  27.484   1.491
26013W        W94231  11.699  15.298   2.217
26014W        W94232  36.514   4.739  12.730
26015W        W94233  28.634  10.970  14.170
26016W        W94234   6.389  23.524   1.783
26017W        W94235  10.899  18.637   1.914
26018W        W94236  24.528  33.505  12.049
26019W        W94237  26.182  38.638   3.257
26020W        W94238   5.432   7.525  12.884
26021W        W94239  43.896   5.182  14.817
26022W        W94240  17.308  12.058  12.566
26023W        W94241  24.092  18.124  14.033
26024W        W94242  28.890  19.767  11.134
26025W        W94243  38.870  25.992  10.290
26026W        W94244  35.612   5.603  12.858
26027W        W94245   8.640  28.862  13.697
26028W        W94246   5.744   5.942   0.673
26029W        W94247  25.818  25.116  13.914
26030W        W94248  38.458  33.746  14.709
26031W        W94249  25.878  25.019  14.825
26032W        W94250   8.597  13.843  14.851
26033W        W94251  40.734  26.132  12.808
26034W        W94252  12.777   7.203   2.046
26035W        W94253  28.055   0.483  12.180
26036W        W94254   4.100  26.871  14.471
26037W        W94255   2.968  24.261  11.307
26038W        W94256  14.815  11.677   3.231
26039W        W94257  17.023  22.510   3.692
26040W        W94258  14.047  39.888   2.474
26041W        W94259   0.448  12.603  14.731
26042W        W94260  33.910  20.538   1.972
26043W        W94261  18.527  13.595   3.265
26044W        W94262  27.912  39.265   1.910
26045W        W94263  38.014   4.673  13.394
26046W        W94264  17.606  42.523   0.203
26047W        W94265  25.516  14.821   2.698
26048W        W94266  37.603  21.661  10.410
26049W        W94267  24.675  35.548   3.348
26050W        W94268  20.311  42.344   4.127
26051W        W94269  25.532  39.871  13.913
26052W        W94270  40.344  38.878  10.677
26053W        W94271  32.519   6.384  12.884
26054W        W94272  14.782  17.495   4.106
26055W        W94273  39.825  34.134   1.697
26056W        W94274  24.729   1.188  12.483
26057W        W94275   6.180  29.153   1.383
26058W        W94276  23.445  28.572   3.805
26059W        W94277  10.280  42.744   4.160
26060W        W94278  33.125  13.235   1.232
26061W        W94279  29.279  13.556  13.377
26062W        W94280  19.195   7.765  13.967
26063W        W94281  17.477  39.095  14.999
26064W        W94282   5.680  10.503  13.604
26065W        W94283  14.673  28.535  12.029
26066W        W94284   3.705  33.994  12.399
26067W        W94285   6.301  27.509  12.823
26068W        W94286  41.665  19.269  11.339
26069W        W94287   8.746  30.696  14.461
26070W        W94288   3.272  27.031  13.382
26071W        W94289  15.079   2.344   0.826
26072W        W94290  32.953  37.656   0.357
26073W        W94291  19.345   8.802  13.496
26074W        W94292  13.183  39.848   2.323
26075W        W94293   9.364  19.618  11.582
26076W        W94294  24.128  26.879   5.055
26077W        W94295  12.190  35.741  12.191
26078W        W94296  35.003   1.869   2.249
26079W        W94297   4.556  20.059   4.363
26080W        W94298  25.568  18.632   1.827
26081W        W94299  25.555  15.320  13.515
26082W        W94300  34.027  20.756  12.010
26083W        W94301   6.687  33.446  11.174
26084W        W94302  27.403   9.845  14.884
26085W        W94303  28.812  31.456   0.948
26086W        W94304   8.332  13.433   4.647
26087W        W94305  40.566  23.130   3.729
26088W        W94306  44.484   0.129   3.591
26089W        W94307  40.820  34.283  12.998
26090W        W94308  12.664  18.088  13.447
26091W        W94309  12.178  38.806   0.704
26092W        W94310  21.779   6.230   0.727
26093W        W94311  26.129  21.483  13.925
26094W        W94312  26.990  15.180  11.703
26095W        W94313   3.998  38.930   4.152
26096W        W94314   4.955  30.970   4.185
26097W        W94315  43.513   9.400  11.423
26098W        W94316   8.662  25.936   0.287
26099W        W94317  25.106  30.623   0.247
26100W        W94318  23.110   3.863   1.465
26101W        W94319   0.765   5.650   3.788
26102W        W94320  34.985  27.603  14.555
26103W        W94321  33.423  38.923   1.822
26104W        W94322  15.589  19.549  12.916
26105W        W94323  42.423  30.056   2.874
26106W        W94324  30.173  26.972   5.283
26107W        W94325  38.571   8.370  13.882
26108W        W94326  28.435   8.685   1.865
26109W        W94327   4.071  22.133   1.878
26110W        W94328  39.447  24.171   1.808
26111W        W94329  36.511  33.759   4.266
26112W        W94330  26.593  12.554   0.988
26113W        W94331  43.995  36.761   0.992
26114W        W94332   9.390  29.956  10.584
26115W        W94333   8.255  26.417   2.212
26116W        W94334  39.753  35.368   4.087
26117W        W94335  38.962   9.656   3.603
26118W        W94336  29.159  44.116   1.164
26119W        W94337   1.389   6.922  14.429
26120W        W94338  27.209   3.285   0.020
26121W        W94339  19.144  11.580   1.922
26122W        W94340  18.361  21.839  12.507
26123W        W94341  41.880  40.951  11.962
26124W        W94342  41.361  18.645  10.409
26125W        W94343  27.127  18.407   3.387
26126W        W94344  13.804  34.949  14.478
26127W        W94345  26.967  44.312  13.852
26128W        W94346  15.577  17.611  11.051
26129W        W94347  39.884  10.742   4.661
26130W        W94348  37.031  27.635   2.437
26131W        W94349  28.207  44.574   4.544
26132W        W94350  14.729  31.550   4.629
26133W        W94351  32.905  33.709  14.380
26134W        W94352  37.718  34.473  14.326
26135W        W94353   7.102  15.916   3.169
26136W        W94354  15.546  14.795  14.524
26137W        W94355  17.691  23.053  14.534
26138W        W94356  17.797  39.862  10.655
26139W        W94357  17.090  31.352  14.014
26140W        W94358  33.432   6.090  11.378
26141W        W94359  17.329  43.264  13.512
26142W        W94360  28.390   8.669  14.013
26143W        W94361   5.176  42.275   3.178
26144W        W94362  37.916  43.598  10.714
26145W        W94363  23.115  39.837   0.486
26146W        W94364   8.094  19.092  12.885
26147W        W94365  16.841  32.139  12.210
26148W        W94366  44.837  24.471  13.161
26149W        W94367   9.878  11.879  10.658
26150W        W94368  42.152  15.018  12.166
26151W        W94369  14.685  21.465   0.498
26152W        W94370  11.805  12.741  14.409
26153W        W94371  36.415  18.939   1.791
26154W        W94372  29.520   3.479  10.376
26155W        W94373  31.356  27.375   5.122
26156W        W94374  11.648  36.793  14.486
26157W        W94375  31.671  31.577  13.268
26158W        W94376  39.616   7.355   1.340
26159W        W94377   1.774  13.859  10.635
26160W        W94378  15.704  12.547  10.208
26161W        W94379   2.208  32.697   1.938
26162W        W94380  30.527  11.087   0.570
26163W        W94381  17.690  34.880   1.067
26164W        W94382  40.500   4.318   3.682
26165W        W94383  43.979  28.966   0.200
26166W        W94384   7.446   6.384   2.693
26167W        W94385  39.265  22.598  13.390
26168W        W94386  30.866   5.460   2.719
26169W        W94387  12.760  42.389   0.503
26170W        W94388  38.712  31.770   2.699
26171W        W94389  14.112  41.826  13.497
26172W        W94390  17.039  24.412   4.597
26173W        W94391  43.137  16.482   4.053
26174W        W94392  36.337  26.098  11.505
26175W        W94393  39.556   6.820  14.474
26176W        W94394  27.740   6.240   1.757
26177W        W94395   2.948   8.854   2.466
26178W        W94396  42.738  26.039   3.131
26179W        W94397  36.287  19.672   4.582
26180W        W94398  24.475  13.399  14.145
26181W        W94399  19.812  20.968   1.708
26182W        W94400  17.300  20.360  11.535
26183W        W94401  34.029  27.644   3.178
26184W        W94402   7.853  10.111   1.833
26185W        W94403  26.920   3.417   1.062
26186W        W94404   4.178  44.159   2.071
26187W        W94405   1.352  22.706  10.713
26188W        W94406  27.711   3.241  14.849
26189W        W94407  33.147  26.879  12.107
26190W        W94408  20.874  36.900   5.056
26191W        W94409  18.940  33.969  10.124
26192W        W94410  10.616  28.183  13.302
26193W        W94411   7.498  17.156   1.313
26194W        W94412   6.223  44.032  10.200
26195W        W94413  24.430   3.470  10.352
26196W        W94414  19.902  12.227  13.428
26197W        W94415  44.297   1.852   1.265
26198W        W94416  33.514  25.725   4.097
26199W        W94417   7.288  11.452   0.394
26200W        W94418  36.370  20.196   3.891
26201W        W94419  43.691  32.923   4.302
26202W        W94420   2.104   0.677   9.889
26203W        W94421  35.743  17.459  11.651
26204W        W94422  38.379  21.083  11.704
26205W        W94423  22.282  21.597   4.269
26206W        W94424  23.264  26.087   3.195
26207W        W94425  10.382  29.659  13.412
26208W        W94426  16.532  19.318   1.463
26209W        W94427  22.698  44.943  11.188
26210W        W94428  15.401  17.334   0.698
26211W        W94429  39.136  12.803   0.453
26212W        W94430  34.380   4.218   0.050
26213W        W94431  18.383   6.172   2.672
26214W        W94432  10.194  43.081   0.904
26215W        W94433   5.821  24.924   3.552
26216W        W94434   2.771  17.227   4.144
26217W        W94435  26.248  29.222   3.230
26218W        W94436  40.432  39.536  13.884
26219W        W94437  10.896   7.736   2.350
26220W        W94438  36.319  35.087   4.387
26221W        W94439  36.483  43.669   0.242
26222W        W94440  31.853  35.677   0.351
26223W        W94441  33.170  44.986   2.600
26224W        W94442  41.768  18.535   4.514
26225W        W94443  44.802   2.873  14.191
26226W        W94444  10.330  21.938  13.985
26227W        W94445   3.729  15.693   3.978
26228W        W94446  23.487   2.787  11.458
26229W        W94447   7.672  17.651   0.417
26230W        W94448   1.919  11.737   0.368
26231W        W94449   9.369  16.799   0.442
26232W        W94450  11.829  24.072   1.991
26233W        W94451   9.855  16.623  11.469
26234W        W94452  43.957   6.656   2.737
26235W        W94453  21.634  42.366  14.015
26236W        W94454  38.512  22.988  13.769
26237W        W94455   6.516  10.208   3.306
26238W        W94456  32.935  14.753  13.893
26239W        W94457  23.543  10.358  11.153
26240W        W94458  12.165  41.795  13.282
26241W        W94459  18.278  30.529   4.639
26242W        W94460  20.022  24.158  12.924
26243W        W94461  33.090   5.014   4.217
26244W        W94462  10.876  17.369   2.365
26245W        W94463  20.201  25.232  13.388
26246W        W94464  38.998   0.837  14.881
26247W        W94465  34.563   7.326   3.678
26248W        W94466  32.073  43.973  11.058
26249W        W94467  24.239  27.955   0.355
26250W        W94468   6.875  14.784   1.753
26251W        W94469  40.330  42.779  11.016
26252W        W94470  42.024   8.079  11.629
26253W        W94471  12.324   4.079  12.112
26254W        W94472  14.741  18.062   4.069
26255W        W94473  24.099  24.576  12.855
26256W        W94474  21.264  41.455   1.741
26257W        W94475  38.089  28.987   1.445
26258W        W94476  35.268  24.695  11.548
26259W        W94477  30.423  35.008   1.735
26260W        W94478   8.264  22.741   0.831
26261W        W94479  17.062  37.043  11.678
26262W        W94480  17.129   4.428  11.781
26263W        W94481  26.665  27.506   0.235
26264W        W94482   7.668  40.328  10.941
26265W        W94483  43.326  33.120  12.665
26266W        W94484  30.466  14.634   9.732
26267W        W94485   2.153   2.482  14.287
26268W        W94486  14.816   7.402  10.645
26269W        W94487  17.740  23.545  10.705
26270W        W94488  14.284  26.947   2.342
26271W        W94489  35.568   1.951   1.006
26272W        W94490  21.825   7.101   4.232
26273W        W94491  12.661   5.934   3.559
26274W        W94492  42.197  18.102   1.398
26275W        W94493  26.565  36.866  11.574
26276W        W94494   8.880  24.487  12.837
26277W        W94495   3.820  20.450   0.155
26278W        W94496  44.862  26.355  11.620
26279W        W94497  31.105   1.014   0.981
26280W        W94498  22.186  25.869  12.383
26281W        W94499  15.266  29.207   2.742
26282W        W94500  26.022  36.287  11.100
26283W        W94501  22.665  25.059   0.360
26284W        W94502  20.698  39.755  11.108
26285W        W94503   3.680  42.140   4.159
26286W        W94504  38.480  27.651   4.394
26287W        W94505  28.068  22.562  10.699
26288W        W94506  25.273  32.606  11.211
26289W        W94507  11.149  22.468   0.872
26290W        W94508   1.440   6.728   3.915
26291W        W94509   3.945  21.893   1.425
26292W        W94510  33.282   4.070  11.158
26293W        W94511   8.348   7.886   4.435
26294W        W94512  37.390   3.487  13.336
26295W        W94513  37.823  20.913   2.939
26296W        W94514  36.316  32.193  13.884
26297W        W94515  39.816   5.846  11.883
26298W        W94516  34.250  13.093   4.077
26299W        W94517  18.754  42.547   4.704
26300W        W94518  32.936   7.398   2.261
26301W        W94519   5.003  28.587  12.911
26302W        W94520   4.517  33.894  13.843
26303W        W94521   3.209  35.748  14.696
26304W        W94522  28.242   5.843  14.886
26305W        W94523  20.773   7.915   4.178
26306W        W94524  35.456  18.248   3.290
26307W        W94525  31.064  38.554  14.502
26308W        W94526  27.283  30.199   4.909
26309W        W94527  28.995  34.522   4.079
26310W        W94528  33.066  25.320  11.540
26311W        W94529   3.397  32.329  14.963
26312W        W94530  34.138   1.748  11.978
26313W        W94531  15.340  44.476  11.925
26314W        W94532  29.021  31.699   2.775
26315W        W94533  36.444  38.748   0.862
26316W        W94534  27.914   1.811  14.338
26317W        W94535  20.718  12.152  10.339
26318W        W94536  15.633  43.592   4.258
26319W        W94537   7.254   6.457  14.281
26320W        W94538  35.903  28.982  11.988
26321W        W94539  21.224   7.520   3.669
26322W        W94540  28.116   7.315  12.546
26323W        W94541   6.927   1.188  11.680
26324W        W94542  18.813  25.966  10.998
26325W        W94543  11.809  15.598  14.997
26326W        W94544  23.236  19.231  13.909
26327W        W94545  12.647  26.511  11.062
26328W        W94546  15.419  33.288   4.091
26329W        W94547  18.863  30.203   2.649
26330W        W94548  31.591   2.248  12.881
26331W        W94549  39.092  42.000   2.775
26332W        W94550  33.347  19.181   4.959
26333W        W94551   7.770   0.335   2.798
26334W        W94552  21.999  24.060  14.511
26335W        W94553   0.736  39.337   0.286
26336W        W94554  22.767  24.270  10.706
26337W        W94555  15.257  15.918   1.889
26338W        W94556  37.828  41.622   2.846
26339W        W94557   4.427   7.482   4.184
26340W        W94558  28.582  17.872  13.745
26341W        W94559   2.937   5.755   3.729
26342W        W94560  12.259  35.866   0.449
26343W        W94561  35.390  27.601  12.547
26344W        W94562  25.065  40.069   1.298
26345W        W94563  41.306  24.977   2.274
26346W        W94564  28.622  12.601  11.928
26347W        W94565   1.445  17.217   4.334
26348W        W94566  10.254  39.746   0.807
26349W        W94567  25.491  14.029   4.467
26350W        W94568  41.504  41.089  13.430
26351W        W94569   4.759  10.079   2.806
26352W        W94570  29.135  28.910   2.222
26353W        W94571  28.014  37.579  13.388
26354W        W94572  28.225  33.476   2.729
26355W        W94573  33.553  37.078  13.912
26356W        W94574  18.687  29.531  13.844
26357W        W94575  16.615   1.723  10.532
26358W        W94576  43.791  24.941  14.307
26359W        W94577  20.971  17.236  14.518
26360W        W94578  34.139  28.668   2.394
26361W        W94579   5.946  29.178   4.127
26362W        W94580   6.762  37.038   4.631
26363W        W94581  19.604  38.813   0.379
26364W        W94582  11.860  34.340  11.181
26365W        W94583  14.315   8.820  13.861
26366W        W94584  32.794  19.555  10.542
26367W        W94585  41.779  21.707  11.699
26368W        W94586   5.429   7.151  13.911
26369W        W94587  19.025  32.154  14.570
26370W        W94588  16.001   9.887   1.740
26371W        W94589  15.125  28.152  12.976
26372W        W94590  34.180   4.310  11.583
26373W        W94591  13.341  17.632   3.218
26374W        W94592  42.295  43.073   0.480
26375W        W94593  17.602  19.206  13.106
26376W        W94594   4.891  22.115   0.413
26377W        W94595  33.854   3.710  12.155
26378W        W94596  35.140   2.015  12.868
26379W        W94597   1.891  37.532   1.918
26380W        W94598  22.724   6.024   0.980
26381W        W94599  42.041  23.120  13.824
26382W        W94600  27.793  13.669  10.941
26383W        W94601  24.170  39.871  13.562
26384W        W94602  34.818  42.623  14.792
26385W        W94603   5.353   8.610  13.349
26386W        W94604  18.112  35.606  11.136
26387W        W94605   2.843  20.902  10.664
26388W        W94606  33.237  12.730   1.311
26389W        W94607  16.575  16.568   3.673
26390W        W94608  17.740  30.853  14.576
26391W        W94609  14.714   9.221  13.966
26392W        W94610  21.740  11.851   0.508
26393W        W94611  23.631  42.985  13.052
26394W        W94612  13.904   9.171   4.764
26395W        W94613   9.153  25.189   4.764
26396W        W94614  23.088  44.716   3.632
26397W        W94615  43.793  38.398   4.129
26398W        W94616  25.040  40.266   3.678
26399W        W94617  13.776  26.701  12.137
26400W        W94618  36.370  43.874   3.089
26401W        W94619   9.396  20.013   4.868
26402W        W94620  22.603  19.704  11.460
26403W        W94621  10.754  24.029   4.064
26404W        W94622  24.007  17.713   3.173
26405W        W94623  36.919  29.082   3.192
26406W        W94624  40.580  39.864  14.475
26407W        W94625  33.903   7.542   4.141
26408W        W94626  34.338  24.598  11.244
26409W        W94627   6.430  35.614   1.347
26410W        W94628  23.186  38.989   4.453
26411W        W94629  12.822   1.540   4.603
26412W        W94630  15.105  40.145  11.381
26413W        W94631  22.785   6.794   4.159
26414W        W94632  18.485   3.854  13.514
26415W        W94633  31.008  41.045  13.050
26416W        W94634   1.168  16.383   3.692
26417W        W94635  21.037  37.432   3.623
26418W        W94636  12.659  30.653   1.528
26419W        W94637  39.818  21.198  13.950
26420W        W94638  30.159   3.632   3.144
26421W        W94639   8.789  18.663  14.305
26422W        W94640  12.090  36.842   1.774
26423W        W94641  24.458  40.038   0.130
26424W        W94642   7.786  40.677  13.474
26425W        W94643  20.970  25.034   2.185
26426W        W94644  41.877  28.909   3.741
26427W        W94645   3.322  35.936   0.160
26428W        W94646  22.553   5.800  12.553
26429W        W94647  10.710  20.193   3.517
26430W        W94648  25.964  38.439   2.292
26431W        W94649   1.136  38.924  11.107
26432W        W94650  14.631  16.173  12.612
26433W        W94651  15.077  11.842  14.818
26434W        W94652  13.240  36.880  14.006
26435W        W94653   8.055  44.845   4.737
26436W        W94654  10.263  35.686  11.186
26437W        W94655  14.155  31.816   5.130
26438W        W94656  36.888  30.170  12.483
26439W        W94657   2.397  20.045  12.551
26440W        W94658   7.528  10.723   4.440
26441W        W94659   6.752  34.400  13.863
26442W        W94660   3.129  17.589  10.666
26443W        W94661  39.999  36.426   1.247
26444W        W94662  25.899  30.722  12.792
26445W        W94663   9.561  44.923   4.647
26446W        W94664  41.062  42.688  13.359
26447W        W94665  19.274  36.367   2.772
26448W        W94666  10.229  39.580  11.152
26449W        W94667  29.202  29.873   2.279
26450W        W94668  44.232   2.303  13.766
26451W        W94669  43.387   7.619   2.263
26452W        W94670  31.100  38.053   2.420
26453W        W94671   8.363  41.874  14.500
26454W        W94672  40.669  16.088  13.164
26455W        W94673  31.462   4.401  13.420
26456W        W94674   6.797  41.436  12.128
26457W        W94675  15.678  23.580  10.800
26458W        W94676  20.848  24.072   2.821
26459W        W94677  35.444  28.566  13.643
26460W        W94678   0.101  30.971   3.088
26461W        W94679   8.440  13.845   1.778
26462W        W94680  34.990  10.622  14.799
26463W        W94681  16.209  28.130  10.681
26464W        W94682   1.488  25.292   1.215
26465W        W94683   7.239  26.458   4.426
26466W        W94684  44.779  21.879  12.526
26467W        W94685   8.376  42.277   0.346
26468W        W94686  11.781  15.838  13.125
26469W        W94687   1.979  14.270  10.991
26470W        W94688  13.675   8.801   1.901
26471W        W94689   9.401   0.867   0.132
26472W        W94690  36.834   4.169   0.538
26473W        W94691  19.952  26.970  12.306
26474W        W94692   3.275   0.004   2.188
26475W        W94693   2.337  42.578   4.001
26476W        W94694  25.986  25.179   0.903
26477W        W94695  30.519  40.850   4.217
26478W        W94696  15.871  30.984   2.882
26479W        W94697  11.686  11.744   5.014
26480W        W94698  25.920  18.219  12.613
26481W        W94699  10.664  42.725   3.823
26482W        W94700  14.182  29.488  13.479
26483W        W94701  33.477  31.151   1.453
26484W        W94702  36.339  44.472  13.569
26485W        W94703  34.340  37.859   1.876
26486W        W94704  40.713  44.291   0.805
26487W        W94705  44.276  18.077   1.352
26488W        W94706  31.864  15.335  10.735
26489W        W94707  14.998   2.647  12.465
26490W        W94708  21.049   2.775   3.809
26491W        W94709  28.941  24.611  11.319
26492W        W94710  32.700  42.935  11.936
26493W        W94711  15.818  19.560   0.730
26494W        W94712   3.885   0.233  12.387
26495W        W94713  12.919  34.624   1.921
26496W        W94714  28.868   8.443  14.985
26497W        W94715  29.865  12.640  14.408
26498W        W94716  42.970  25.386   2.443
26499W        W94717   1.267  33.188   0.811
26500W        W94718  13.158  15.826   0.026
26501W        W94719  35.047  18.726  10.948
26502W        W94720  33.928   1.451  13.079
26503W        W94721  24.368  11.605   0.231
26504W        W94722  33.040  27.406  14.258
26505W        W94723  14.764  16.717   4.642
26506W        W94724  32.219  16.474   2.746
26507W        W94725  14.101  23.961  13.409
26508W        W94726   8.639  41.674  14.916
26509W        W94727   5.463  40.032   0.357
26510W        W94728  41.825  28.506  12.059
26511W        W94729  14.268  10.107  12.977
26512W        W94730  35.343  30.421   1.346
26513W        W94731  16.174  32.432  13.222
26514W        W94732  37.644  13.190  13.773
26515W        W94733  25.996   0.688   4.257
26516W        W94734   2.570   3.442   1.757
26517W        W94735  27.957  17.190  11.696
26518W        W94736  32.566   5.994  14.300
26519W        W94737  15.053  35.410  14.992
26520W        W94738  37.392  21.165  14.761
26521W        W94739   9.855  33.103   0.428
26522W        W94740   8.883  40.118   1.187
26523W        W94741  24.886  39.530   0.875
26524W        W94742  13.012  16.699  14.043
26525W        W94743  27.547  19.927   0.536
26526W        W94744  14.886  32.195  14.546
26527W        W94745  20.535  18.197   1.748
26528W        W94746  38.097  16.175   0.655
26529W        W94747   8.072   4.391   4.276
26530W        W94748  44.258  27.724  12.393
26531W        W94749  25.857  33.562   4.125
26532W        W94750  14.247  13.683  13.398
26533W        W94751  32.988   8.744   1.767
26534W        W94752  27.176  27.726   4.146
26535W        W94753  38.064  14.753  14.073
26536W        W94754  40.909  13.137   0.406
26537W        W94755  29.501   3.323   0.436
26538W        W94756  41.365  36.384  12.432
26539W        W94757  13.820  14.691   0.341
26540W        W94758   3.340   1.339   0.798
26541W        W94759   8.863  42.959   4.413
26542W        W94760  10.686  39.558   1.568
26543W        W94761  42.360   5.216   1.659
26544W        W94762  11.286  17.527   0.338
26545W        W94763   7.780  36.568  11.056
26546W        W94764  26.596   2.824   2.665
26547W        W94765   1.838  17.730  13.351
26548W        W94766  19.645  25.596   4.101
26549W        W94767  28.156  12.293  14.114
26550W        W94768  34.051  14.222   0.153
26551W        W94769  22.172   4.741  14.879
26552W        W94770  26.560   2.421   0.022
26553W        W94771  31.553  26.537   3.580
26554W        W94772   5.668  36.988   0.780
26555W        W94773  11.146   7.772   4.686
26556W        W94774  10.788  42.600   0.807
26557W        W94775  21.019   6.687   0.442
26558W        W94776  11.180  29.614  12.111
26559W        W94777  44.662  39.085  12.099
26560W        W94778  30.583  40.547  13.831
26561W        W94779  44.354  24.958  13.380
26562W        W94780   0.691   4.837  13.366
26563W        W94781  10.859  39.114   1.877
26564W        W94782  36.529  26.033  10.201
26565W        W94783  41.345  30.097  12.353
26566W        W94784  10.608   8.560  13.849
26567W        W94785   7.278  44.064  11.186
26568W        W94786  24.646  42.991  13.019
26569W        W94787   9.639  37.992  11.293
26570W        W94788   5.141  17.924   1.662
26571W        W94789  42.102  10.203  12.905
26572W        W94790  31.472  29.027   1.797
26573W        W94791  28.473  36.020  11.485
26574W        W94792  32.474  29.676  11.535
26575W        W94793   3.357  11.047  14.361
26576W        W94794  29.471  20.605   3.044
26577W        W94795  34.851  20.235   0.032
26578W        W94796  41.797  32.174   1.425
26579W        W94797  16.167  42.499  10.312
26580W        W94798  25.695  25.269   2.244
26581W        W94799  20.142  27.225   0.918
26582W        W94800  32.884  29.167   0.492
26583W        W94801  35.402  16.590   3.143
26584W        W94802  19.104  30.662  11.568
26585W        W94803   9.321  29.056   0.626
26586W        W94804  44.054  10.941   3.184
26587W        W94805  33.545  41.872  10.684
26588W        W94806  43.565  40.527   3.757
26589W        W94807  19.235  34.759   3.030
26590W        W94808  31.299  16.225   4.473
26591W        W94809  36.910  26.375   4.363
26592W        W94810  33.016  35.628  11.622
26593W        W94811  40.374  10.847  14.030
26594W        W94812  41.296  33.570  14.303
26595W        W94813  35.760  37.338   4.034
26596W        W94814  41.862  22.412   2.842
26597W        W94815   1.526  20.184  14.283
26598W        W94816  37.007  19.100   2.845
26599W        W94817   0.849  18.365  10.529
26600W        W94818  34.053   4.090  13.250
26601W        W94819  34.801  38.291   1.150
26602W        W94820  31.567  10.477  14.873
26603W        W94821  19.356  11.674  12.044
26604W        W94822  26.063  28.432  14.026
26605W        W94823  27.017  25.320  11.531
26606W        W94824  37.503   9.657  12.803
26607W        W94825  23.624  29.199  10.362
26608W        W94826  23.071  13.545   0.765
26609W        W94827  21.720  34.051   4.027
26610W        W94828  25.911  37.335   2.791
26611W        W94829  16.196   4.449   2.700
26612W        W94830  15.681  10.378   4.508
26613W        W94831   8.767   9.574  11.540
26614W        W94832  13.245  11.803  13.476
26615W        W94833  13.151  23.787   0.364
26616W        W94834  29.968  21.502   0.389
26617W        W94835  36.037  16.246  12.037
26618W        W94836  14.811  30.139   3.955
26619W        W94837  33.404  33.137   2.023
26620W        W94838  14.061  29.408  11.052
26621W        W94839  23.383  14.105   2.380
26622W        W94840   6.781  16.029  11.066
26623W        W94841   5.394  23.955   1.976
26624W        W94842  33.877  33.051   2.928
26625W        W94843  10.196   1.823  10.775
26626W        W94844  28.529  25.238  12.536
26627W        W94845  42.839  32.979   4.940
26628W        W94846   6.457  17.774  11.566
26629W        W94847  33.437   7.294  14.097
26630W        W94848  32.021  29.001   3.720
26631W        W94849  35.443   6.749  14.838
26632W        W94850  42.290  31.075   4.447
26633W        W94851  15.017   5.019  10.639
26634W        W94852  21.542   2.676   0.222
26635W        W94853  44.475  32.511   0.772
26636W        W94854  33.004  20.238   2.856
26637W        W94855   1.971  32.986  11.549
26638W        W94856  31.507   2.641   0.089
26639W        W94857  12.403   9.910  12.891
26640W        W94858  11.257  15.320   1.846
26641W        W94859  36.387  10.088   2.715
26642W        W94860  38.858  43.494   1.675
26643W        W94861   6.226  38.100   1.322
26644W        W94862  44.514  40.456  11.090
26645W        W94863  36.446  33.374  13.745
26646W        W94864  42.595  29.108   2.696
26647W        W94865  33.994   3.930   0.257
26648W        W94866  43.523  23.997   3.636
26649W        W94867  22.192  30.186  13.759
26650W        W94868  40.417   4.687  13.452
26651W        W94869   6.667  35.899   0.966
26652W        W94870   0.661   6.987   2.848
26653W        W94871  33.515  37.867   0.351
26654W        W94872  39.963   6.732   1.559
26655W        W94873  38.089   0.686  10.685
26656W        W94874   6.373  24.973  11.605
26657W        W94875  28.345  17.792   4.595
26658W        W94876  44.150  27.662  13.897
26659W        W94877   6.701  20.739  13.347
26660W        W94878  35.922  25.547  12.375
26661W        W94879  19.283  19.346   0.435
26662W        W94880   4.435   9.885   4.540
26663W        W94881  38.947  16.043   0.913
26664W        W94882  10.952  31.601   2.617
26665W        W94883  24.937  20.076  12.378
26666W        W94884  43.967  28.182   1.682
26667W        W94885  33.906  33.856  14.382
26668W        W94886  13.282   3.661   3.683
26669W        W94887  35.015   0.348   4.037
26670W        W94888  25.192  20.651  13.490
26671W        W94889   3.459  41.913   5.020
26672W        W94890  19.210  25.992   0.327
26673W        W94891  30.057  19.743   4.068
26674W        W94892   9.483   2.811  12.040
26675W        W94893  36.158  21.045  13.799
26676W        W94894  43.190  36.948  12.472
26677W        W94895   8.820  41.689   2.815
26678W        W94896  28.729  24.655   1.628
26679W        W94897   1.912  42.565  12.966
26680W        W94898   9.883  42.418  14.322
26681W        W94899  32.881  43.537   0.513
26682W        W94900  44.323  21.277  12.008
26683W        W94901  17.239  18.256  11.037
26684W        W94902  11.836  26.997   1.945
26685W        W94903  12.954  36.547   2.756
26686W        W94904   3.290  29.173   1.141
26687W        W94905   0.349   0.357   2.513
26688W        W94906  41.975  41.719  11.565
26689W        W94907  14.420  35.770   2.234
26690W        W94908   2.702  28.848  12.366
26691W        W94909  36.857  16.674   2.723
26692W        W94910   6.037  19.119   0.940
26693W        W94911  23.007  34.078  12.047
26694W        W94912  40.319  41.727  12.375
26695W        W94913  34.429  26.181  13.411
26696W        W94914  30.042   6.977   3.683
26697W        W94915  30.995  20.772  14.353
26698W        W94916  33.545   0.365   3.367
26699W        W94917  27.472  32.365   1.471
26700W        W94918   5.665  38.290   1.448
26701W        W94919  33.107  10.986  12.144
26702W        W94920   8.768   1.686   2.780
26703W        W94921  29.623   2.158  14.852
26704W        W94922   2.793  21.354   0.811
26705W        W94923  22.122  11.700  11.630
26706W        W94924  34.593   2.971  12.359
26707W        W94925  17.598  42.424  12.616
26708W        W94926  30.840   5.819  10.143
26709W        W94927  18.876   0.186   1.873
26710W        W94928  22.976  21.042  13.923
26711W        W94929  13.039   8.918  13.958
26712W        W94930   5.415  39.942   1.284
26713W        W94931  37.440  44.232   2.405
26714W        W94932  19.536  20.900   3.904
26715W        W94933   2.803  16.641   2.281
26716W        W94934  33.988   2.058   1.801
26717W        W94935  43.303  21.671   2.757
26718W        W94936  40.422  18.011   3.129
26719W        W94937  28.658   7.552   3.095
26720W        W94938  33.527  32.134  11.616
26721W        W94939  14.829  33.069   3.469
26722W        W94940  30.963  18.680   3.116
26723W        W94941  44.845  14.736   4.467
26724W        W94942  34.577  37.254   2.293
26725W        W94943  33.541   6.793  14.006
26726W        W94944   9.749  23.770  14.576
26727W        W94945  33.059   7.279   3.636
26728W        W94946  29.068  31.057   1.135
26729W        W94947   2.019  35.871   3.755
26730W        W94948  42.271  13.070   1.873
26731W        W94949  42.013  44.520  12.901
26732W        W94950   0.328  13.787   3.713
26733W        W94951  10.177  35.505  12.869
26734W        W94952  12.096  27.700  14.535
26735W        W94953  20.644   7.015  11.196
26736W        W94954  36.347  32.475   2.379
26737W        W94955  30.484  13.578   2.073
26738W        W94956  36.071   6.430  10.678
26739W        W94957  44.267  15.821  11.148
26740W        W94958   1.736  41.062   1.715
26741W        W94959  31.379   6.360  14.702
26742W        W94960  14.192   5.150  10.386
26743W        W94961  44.407  18.488   5.009
26744W        W94962  30.668   7.468   4.400
26745W        W94963   3.297  33.267  10.963
26746W        W94964  28.953  24.467   4.835
26747W        W94965  38.836  44.260   3.258
26748W        W94966  11.080  26.729  10.557
26749W        W94967   8.961  18.135   0.229
26750W        W94968  23.230  33.562  12.839
26751W        W94969   2.693  32.086  13.546
26752W        W94970  17.145  38.045  10.730
26753W        W94971  25.358  38.492  13.856
26754W        W94972   5.913   4.805  11.639
26755W        W94973   9.598  20.627   0.405
26756W        W94974  14.472  32.716   3.589
26757W        W94975  38.556  38.140  10.594
26758W        W94976  31.375  22.964  13.921
26759W        W94977  33.641  44.932  11.132
26760W        W94978  36.424  14.090  12.979
26761W        W94979   1.371  41.438   1.882
26762W        W94980   8.719  33.126  11.935
26763W        W94981   5.219   2.128   1.444
26764W        W94982  33.505  11.542  14.382
26765W        W94983  38.597   3.865   4.079
26766W        W94984  10.404  15.087  12.945
26767W        W94985  32.497  25.372  13.830
26768W        W94986  35.881  31.353   2.177
26769W        W94987   8.863  36.435  13.459
26770W        W94988  33.327  25.176  11.972
26771W        W94989  14.619  31.377  11.504
26772W        W94990  26.130  42.855  11.655
26773W        W94991  29.071  27.372   1.417
26774W        W94992  31.709  17.848   0.289
26775W        W94993  28.660   7.820   2.347
26776W        W94994  27.428   7.894  12.047
26777W        W94995  43.014  21.971  10.659
26778W        W94996  38.577  10.814  13.861
26779W        W94997  39.484   7.140   0.448
26780W        W94998  32.410   0.629   2.831
26781W        W94999  41.050   7.489  12.482
26782W        W95000  37.840  35.074  11.979
26783W        W95001  15.721  26.885   1.257
26784W        W95002   7.711  38.635  12.667
26785W        W95003  34.015  23.532  13.398
26786W        W95004  42.451  37.602   1.712
26787W        W95005   3.149  43.380   2.353
26788W        W95006   3.816  29.633  13.105
26789W        W95007  24.632  41.120   2.218
26790W        W95008  38.545  43.647   4.002
26791W        W95009  42.360  33.357  10.404
26792W        W95010  36.262   7.644   1.678
26793W        W95011  41.348  17.057   3.152
26794W        W95012  13.162   4.265   1.739
26795W        W95013  23.989   4.700  14.347
26796W        W95014  37.863   1.673  13.355
26797W        W95015  39.293  17.075  14.420
26798W        W95016   1.861  36.421   1.843
26799W        W95017  22.767  42.403   4.245
26800W        W95018  37.581  37.434   3.187
26801W        W95019  23.115   4.762   3.607
26802W        W95020  19.076  17.840   2.602
26803W        W95021  26.190  44.253  11.144
26804W        W95022  33.412  39.785  11.864
26805W        W95023  24.632  41.850  13.518
26806W        W95024   2.477  41.097   4.151
26807W        W95025   1.701  27.037  12.129
26808W        W95026  21.844   6.382  14.347
26809W        W95027  29.169   1.803  11.580
26810W        W95028  31.039  44.253  13.443
26811W        W95029   7.392  20.614   3.383
26812W        W95030  24.561  39.190   4.480
26813W        W95031   1.930  31.378  13.392
26814W        W95032  17.126   7.160   2.304
26815W        W95033  22.268   2.274   0.388
26816W        W95034  36.661   4.742  10.917
26817W        W95035  19.755   6.266  14.375
26818W        W95036   6.447  38.839  12.198
26819W        W95037  12.679  31.412   1.617
26820W        W95038  32.165  44.207   2.788
26821W        W95039  21.081  16.827   4.278
26822W        W95040  20.976  40.473   1.984
26823W        W95041  41.425  12.732  11.077
26824W        W95042   9.320   5.228  11.606
26825W        W95043  30.988   0.322  12.566
26826W        W95044  22.812   7.301   4.046
26827W        W95045   5.764  25.975   4.875
26828W        W95046  26.713   3.974  12.892
26829W        W95047   9.045  24.116  10.706
26830W        W95048  23.462  11.136   4.635
26831W        W95049  17.370  19.313   4.093
26832W        W95050  42.970  27.905  10.731
26833W        W95051  11.253  37.046   4.599
26834W        W95052  21.800   3.372  11.036
26835W        W95053  29.215  20.031  13.915
26836W        W95054   2.325  35.564   3.429
26837W        W95055  25.865   4.865   4.639
26838W        W95056  44.710  30.862  13.830
26839W        W95057  34.559   5.251   4.809
26840W        W95058  17.132  30.887   0.997
26841W        W95059  18.481  34.525  10.138
26842W        W95060  13.366  34.241   0.760
26843W        W95061  43.190  14.539  10.773
26844W        W95062  11.172  42.589  11.654
26845W        W95063  14.113  42.490  10.699
26846W        W95064  28.191  40.963  10.662
26847W        W95065  25.613   6.412  12.133
26848W        W95066  41.877  44.645  10.500
26849W        W95067  15.211  26.603  11.721
26850W        W95068  38.348   6.955   2.407
26851W        W95069  44.437  41.702  12.570
26852W        W95070  20.191  43.864   4.630
26853W        W95071  43.857  23.511  14.026
26854W        W95072  16.639  28.586  12.006
26855W        W95073   4.745   9.832  12.817
26856W        W95074  36.559   8.442   3.779
26857W        W95075  38.882  32.837  14.669
26858W        W95076  10.969  22.273   2.138
26859W        W95077  31.338   7.767   2.688
26860W        W95078  34.447  12.681  14.456
26861W        W95079  10.768   1.817  14.207
26862W        W95080   1.821  22.039   2.264
26863W        W95081  40.350  36.031   5.383
26864W        W95082  14.118  25.494  12.019
26865W        W95083   1.874  21.703  13.574
26866W        W95084  28.403  10.435  14.152
26867W        W95085  36.655  18.928  12.743
26868W        W95086  43.892  16.874  11.540
26869W        W95087  30.039  34.373  11.905
26870W        W95088  27.495  41.102   1.936
26871W        W95089  21.040  28.877   0.975
26872W        W95090  39.820   2.845  11.665
26873W        W95091  37.440  17.858   4.196
26874W        W95092   3.152  12.273  11.361
26875W        W95093  10.255  41.889  12.964
26876W        W95094  37.894  32.369   2.772
26877W        W95095  18.447  30.466   2.486
26878W        W95096  31.965  42.206  13.939
26879W        W95097   7.527  29.694  11.975
26880W        W95098  12.601  21.351  12.211
26881W        W95099  24.667  18.309   2.572
26882W        W95100   3.034   6.837   2.659
26883W        W95101  13.652  33.577  10.672
26884W        W95102  12.235  32.415  14.342
26885W        W95103  36.796  34.156  13.790
26886W        W95104  30.506  20.791  11.003
26887W        W95105  33.186  27.161   4.022
26888W        W95106  14.404  16.232  14.828
26889W        W95107  18.669   8.262  12.436
26890W        W95108  25.003  32.655   0.263
26891W        W95109   6.253   1.754  11.086
26892W        W95110  17.336  39.949   4.104
26893W        W95111  16.576  15.518  14.250
26894W        W95112  13.877   5.211  12.082
26895W        W95113  25.522  12.116   0.812
26896W        W95114  44.262   7.720   3.576
26897W        W95115  37.567   5.584  11.838
26898W        W95116   2.363   2.956  11.569
26899W        W95117  15.150  12.555  11.230
26900W        W95118   2.271  21.366  11.256
26901W        W95119  18.640   8.947   1.502
26902W        W95120  19.732  25.937   2.661
26903W        W95121  19.352  15.365   4.229
26904W        W95122   5.667  37.003  12.472
26905W        W95123   5.255  27.004  14.815
26906W        W95124  34.374  25.089  13.878
26907W        W95125   1.872  12.951  11.655
26908W        W95126  17.462   2.918  13.923
26909W        W95127   8.629  17.883   1.600
26910W        W95128   6.840  39.670   2.197
26911W        W95129   5.229  28.941  14.542
26912W        W95130  38.882  18.667  13.534
26913W        W95131  42.908   8.852  12.949
26914W        W95132  13.304   0.586   2.167
26915W        W95133  22.904  15.206   4.576
26916W        W95134  36.106  26.225  12.935
26917W        W95135  12.863  18.867   0.230
26918W        W95136  30.223  44.394  11.311
26919W        W95137  26.016  21.249  14.385
26920W        W95138  19.977  44.920   2.783
26921W        W95139  38.417  25.641   2.776
26922W        W95140  44.726  13.112  14.403
26923W        W95141   5.097   0.283  11.049
26924W        W95142   4.868  17.871  13.487
26925W        W95143  12.808  16.623   3.381
26926W        W95144  29.519  38.575  14.349
26927W        W95145  20.475  14.777   4.102
26928W        W95146  41.902  10.378  11.117
26929W        W95147   9.287  24.866  12.955
26930W        W95148  18.307  25.621   1.964
26931W        W95149  20.203  27.811  10.658
26932W        W95150   9.131  18.885  14.965
26933W        W95151   0.785  41.324   1.767
26934W        W95152  14.695  41.951   1.698
26935W        W95153   5.964  22.724   3.722
26936W        W95154  20.526  39.781  12.024
26937W        W95155  22.697  18.752  12.927
26938W        W95156  42.499  37.467  11.856
26939W        W95157  11.209  12.534  12.564
26940W        W95158  35.553  19.732  11.126
26941W        W95159  37.105  18.305   2.212
26942W        W95160  22.232   9.397  10.460
26943W        W95161  11.229  43.026   2.062
26944W        W95162  25.190  42.318   1.851
26945W        W95163  12.181  16.545  11.363
26946W        W95164  26.785  27.116   2.398
26947W        W95165   9.729  31.898  13.156
26948W        W95166  13.737  37.932  14.027
26949W        W95167  37.408  40.036   3.883
26950W        W95168  25.024  15.688   0.777
26951W        W95169   9.195  30.641  14.710
26952W        W95170  34.601  31.213   1.707
26953W        W95171  41.886  37.719   4.556
26954W        W95172  13.130  38.113  10.874
26955W        W95173  15.357   7.079  14.719
26956W        W95174  38.383  34.495  13.566
26957W        W95175  33.882  16.325  10.640
26958W        W95176  35.432  35.973   4.651
26959W        W95177  34.726  26.485   3.636
26960W        W95178   4.205  32.471  11.669
26961W        W95179  14.233   4.533   4.634
26962W        W95180  41.504  43.254  12.970
26963W        W95181  44.846  24.270   3.682
26964W        W95182  24.734  32.621   4.044
26965W        W95183  29.443  14.162  11.630
26966W        W95184   5.983  41.337  12.099
26967W        W95185   7.752  19.665   4.548
26968W        W95186  27.622  30.156   1.230
26969W        W95187  32.444  44.243  10.764
26970W        W95188   0.974  27.635   0.763
26971W        W95189  17.527  34.374   3.297
26972W        W95190  27.475   5.415   4.145
26973W        W95191  22.238  16.428   1.824
26974W        W95192  10.805  35.377  13.834
26975W        W95193  16.074   7.184   0.940
26976W        W95194  13.055  25.724   4.580
26977W        W95195  28.231   6.969   2.827
26978W        W95196   8.273  28.492   4.688
26979W        W95197  37.493  13.152  12.861
26980W        W95198  35.347  29.103   2.063
26981W        W95199  15.731  30.375  11.532
26982W        W95200  40.340  23.224  14.556
26983W        W95201  15.346  31.926  11.787
26984W        W95202  38.383  25.236  13.472
26985W        W95203   3.877  32.104   2.433
26986W        W95204  36.433  33.359  13.229
26987W        W95205  12.855  16.119   3.657
26988W        W95206  35.315   8.248   2.648
26989W        W95207  28.782  31.912   1.224
26990W        W95208  25.903  42.041   0.385
26991W        W95209  44.410  40.732   3.683
26992W        W95210  10.274  27.279  10.434
26993W        W95211  35.938  29.652   4.559
26994W        W95212  42.425  27.965   3.701
26995W        W95213   3.194  43.325   0.326
26996W        W95214  40.067   5.230   4.030
26997W        W95215  44.189  19.582  12.275
26998W        W95216  20.508  38.521   0.254
26999W        W95217  24.181  39.291   1.874
27000W        W95218  30.620  34.617   3.154
27001W        W95219  28.362  16.391  10.301
27002W        W95220  12.867  42.598   3.786
27003W        W95221  16.380  41.845   3.251
27004W        W95222  33.430  36.685  11.984
27005W        W95223  17.949  10.616   0.783
27006W        W95224   2.878  28.931   1.377
27007W        W95225  36.315  13.406  13.531
27008W        W95226   1.405  22.919  11.955
27009W        W95227  39.049  29.435  14.776
27010W        W95228  22.980  14.606   0.954
27011W        W95229  20.182  26.205   3.587
27012W        W95230  30.667  11.223   1.950
27013W        W95231  14.121  15.955   0.203
27014W        W95232  35.887  27.101   2.339
27015W        W95233  14.042  21.194   0.766
27016W        W95234  24.625  12.796  14.979
27017W        W95235  13.668  40.481  11.140
27018W        W95236  20.220  38.490   3.267
27019W        W95237   2.774  13.816  13.955
27020W        W95238  16.228  33.046   3.630
27021W        W95239  19.323   7.908   4.831
27022W        W95240  20.716  40.291   4.041
27023W        W95241  27.716  33.399   2.720
27024W        W95242  13.295  10.787   0.117
27025W        W95243   0.611   4.676  12.888
27026W        W95244  44.497  25.492   4.820
27027W        W95245  26.383  10.859  12.321
27028W        W95246  33.532  11.056  10.028
27029W        W95247  16.951  40.878  14.731
27030W        W95248  44.752   5.987   2.767
27031W        W95249  18.543   0.362   2.295
27032W        W95250   5.821   9.249  11.920
27033W        W95251  44.119  34.116   4.769
27034W        W95252  10.296  26.851  13.809
27035W        W95253  27.995  37.915   4.409
27036W        W95254  33.057  28.850  11.610
27037W        W95255  44.114  42.208  14.545
27038W        W95256  19.033  34.440   0.412
27039W        W95257  12.210  44.822  12.975
27040W        W95258  11.210   4.016  13.777
27041W        W95259  44.843  32.676   2.672
27042W        W95260   0.319   4.275   4.589
27043W        W95261  39.455  24.590   4.242
27044W        W95262   9.681  20.631   2.198
27045W        W95263  36.595  38.876   0.387
27046W        W95264  34.585  33.377   2.796
27047W        W95265  41.428  17.266  11.998
27048W        W95266   6.173  12.320   0.012
27049W        W95267   1.585  24.262   4.821
27050W        W95268  19.029   5.218  14.099
27051W        W95269   0.964   5.214  13.081
27052W        W95270  28.862  22.622   2.311
27053W        W95271  33.289  32.591  13.603
27054W        W95272  33.511  16.725  10.372
27055W        W95273  35.277   7.466   4.459
27056W        W95274  25.694   5.896  12.230
27057W        W95275  33.519  36.667   4.156
27058W        W95276  29.713   9.615  14.347
27059W        W95277  37.072  37.441   3.289
27060W        W95278   6.513   8.613  14.771
27061W        W95279  15.551  29.238  10.146
27062W        W95280  26.147  22.701   1.194
27063W        W95281  43.160  14.215  12.155
27064W        W95282  33.404  18.242   2.291
27065W        W95283  18.863  15.636  10.550
27066W        W95284  29.116  16.171  11.568
27067W        W95285  24.970   1.913   0.274
27068W        W95286   3.199  34.443   1.447
27069W        W95287  28.185  23.654   2.623
27070W        W95288  22.515  30.416   3.071
27071W        W95289  23.470   1.482  11.931
27072W        W95290  25.140  34.079   1.834
27073W        W95291  32.553   8.867   9.862
27074W        W95292  42.770  34.883   2.769
27075W        W95293   2.971   8.628   9.916
27076W        W95294  15.841  12.223  12.461
27077W        W95295  44.448  24.349   4.955
27078W        W95296  10.932  22.772   9.837
27079W        W95297  42.852  14.248   3.737
27080W        W95298  20.159  43.724   3.236
27081W        W95299  18.245  21.472  14.709
27082W        W95300  19.695  12.876   3.368
27083W        W95301   5.941  38.842   1.750
27084W        W95302  27.281  31.683  11.001
27085W        W95303  10.275  16.242   1.801
27086W        W95304   9.823  20.991   0.775
27087W        W95305  34.408   1.446   3.388
27088W        W95306  33.038  30.059  12.621
27089W        W95307  43.012  24.628   0.684
27090W        W95308  17.226   3.221   1.423
27091W        W95309  42.978  14.575   0.069
27092W        W95310   6.351  16.192   3.616
27093W        W95311  39.387  12.728  11.554
27094W        W95312  22.241  19.478  11.131
27095W        W95313  14.102  42.401   3.813
27096W        W95314  20.081  40.394   1.557
27097W        W95315   3.915  35.514  14.297
27098W        W95316  25.573   4.381  11.278
27099W        W95317  19.647   4.018   4.071
27100W        W95318  39.800  43.464  12.931
27101W        W95319  25.500  31.670   3.792
27102W        W95320  29.948  41.871   3.173
27103W        W95321   8.064  42.270   2.733
27104W        W95322  12.942   3.447  11.560
27105W        W95323  23.003  11.861   1.261
27106W        W95324  12.286   3.912   1.840
27107W        W95325  30.905  43.380  10.391
27108W        W95326   8.601  38.308  13.811
27109W        W95327  15.080  17.297   4.481
27110W        W95328  26.775   9.544  12.826
27111W        W95329  38.765  38.049   3.719
27112W        W95330   8.934  17.287   3.169
27113W        W95331  16.391  41.610  10.743
27114W        W95332  15.616  10.358  13.588
27115W        W95333  12.990  43.891  10.282
27116W        W95334  24.959  43.616  11.046
27117W        W95335  35.974  29.664  10.541
27118W        W95336  37.087  34.654  14.859
27119W        W95337  23.756  18.606   1.761
27120W        W95338   8.176  33.490   0.360
27121W        W95339  33.650  34.202   3.703
27122W        W95340  29.681  41.291  12.057
27123W        W95341  11.666  10.839   4.211
27124W        W95342  21.196   8.210   4.167
27125W        W95343  36.254  16.255   0.124
27126W        W95344  20.754  33.025   4.934
27127W        W95345   7.290  16.858   3.568
27128W        W95346  31.904  42.436   2.872
27129W        W95347  28.524  34.503  10.924
27130W        W95348  10.622  21.107  10.507
27131W        W95349  12.055  11.253   4.174
27132W        W95350  38.400  18.032   1.752
27133W        W95351  16.591  31.153   0.390
27134W        W95352  11.701  19.040   0.957
27135W        W95353  32.447  21.628  13.307
27136W        W95354  13.186   8.814   2.119
27137W        W95355  21.044  31.854  14.018
27138W        W95356  39.459  36.894  12.028
27139W        W95357  16.151  10.514   9.882
27140W        W95358  24.608  38.866  12.887
27141W        W95359  15.976   3.246  10.858
27142W        W95360  40.783  44.864   2.385
27143W        W95361  41.857  32.110   2.296
27144W        W95362   7.805  36.331  13.423
27145W        W95363  42.979   7.535   0.446
27146W        W95364   3.547  39.462  11.014
27147W        W95365  42.086  21.941   2.067
27148W        W95366  15.158  20.325  11.139
27149W        W95367  37.816  30.100   2.239
27150W        W95368   7.354   0.032  13.848
27151W        W95369   6.790  15.753   4.265
27152W        W95370  42.967  28.685   1.935
27153W        W95371  19.481  43.833   2.243
27154W        W95372  38.781  35.951  10.624
27155W        W95373  29.103   2.460  13.925
27156W        W95374  16.579  44.851  12.670
27157W        W95375   2.912  13.041  10.708
27158W        W95376   8.396  12.367  12.426
27159W        W95377  12.682   6.391  14.397
27160W        W95378   1.912   3.189   4.551
27161W        W95379  15.232  12.587  12.020
27162W        W95380   7.451   7.265   3.544
27163W        W95381  22.608  34.931  11.153
27164W        W95382  11.874   3.299   3.678
27165W        W95383   7.443  23.601  14.937
27166W        W95384  21.640  18.250  13.728
27167W        W95385  25.672  43.135  11.472
27168W        W95386  34.393  24.439   3.663
27169W        W95387  32.058  39.546   2.793
27170W        W95388  33.744   9.316   0.792
27171W        W95389  18.136  19.115  12.344
27172W        W95390   2.308   7.232  13.461
27173W        W95391  30.519  43.161  10.689
27174W        W95392  13.840  37.596   1.469
27175W        W95393   1.753  25.528  11.198
27176W        W95394   8.682  27.864   3.181
27177W        W95395  42.373  14.557   3.306
27178W        W95396  33.155   3.510   2.272
27179W        W95397  42.144  35.004   2.378
27180W        W95398  32.518  29.279  12.533
27181W        W95399  20.491  13.787   1.341
27182W        W95400   4.849   6.646   2.724
27183W        W95401  44.296  37.880  14.444
27184W        W95402  36.131  38.808  14.607
27185W        W95403  22.649  18.288   2.317
27186W        W95404  16.636   6.637   4.865
27187W        W95405  27.995  12.715  13.867
27188W        W95406  23.492  38.508  11.198
27189W        W95407   3.772  15.789  10.415
27190W        W95408  38.559  10.095   1.974
27191W        W95409  15.787  21.600  11.068
27192W        W95410   7.972  29.033   4.215
27193W        W95411   2.246  22.371  12.074
27194W        W95412   8.486   2.147   4.144
27195W        W95413  10.666  14.084  12.983
27196W        W95414  22.050   7.228  14.875
27197W        W95415  29.378  11.972   4.101
27198W        W95416  16.826  18.144  13.597
27199W        W95417   1.365   4.676   1.792
27200W        W95418  29.100  18.176   0.921
27201W        W95419  12.087   6.873   2.417
27202W        W95420   9.779  35.145  10.642
27203W        W95421   2.802  23.607  12.620
27204W        W95422  34.587   4.456  11.330
27205W        W95423  35.709  34.007   2.873
27206W        W95424   7.150  13.633   2.272
27207W        W95425  35.470  24.263  13.355
27208W        W95426   9.759  30.447   1.470
27209W        W95427  29.171  12.935  14.904
27210W        W95428   2.921  39.798   4.177
27211W        W95429  32.714  24.857   2.439
27212W        W95430  30.394  28.422   4.832
27213W        W95431  16.676  10.653   2.180
27214W        W95432  34.990  36.104   3.876
27215W        W95433  30.555  16.861   0.194
27216W        W95434   8.165  31.621   0.769
27217W        W95435  12.288  34.993  11.519
27218W        W95436  38.494  25.423   4.733
27219W        W95437  43.428  25.585   1.532
27220W        W95438  29.100  13.431   2.595
27221W        W95439  36.391  32.891  13.910
27222W        W95440  14.307  44.374  11.197
27223W        W95441  21.535  12.811  13.574
27224W        W95442  33.365  10.331   1.347
27225W        W95443  17.098  22.846   4.665
27226W        W95444   9.821  40.409   0.999
27227W        W95445  40.000  26.777   1.667
27228W        W95446   1.434  44.343  10.464
27229W        W95447  34.601  41.786  13.939
27230W        W95448  22.723  25.146  10.438
27231W        W95449   9.847  40.025   3.750
27232W        W95450   2.549  17.635   0.771
27233W        W95451  36.632  29.392  11.549
27234W        W95452   4.795  26.500  12.063
27235W        W95453  36.904  30.928   1.848
27236W        W95454   6.220  12.240   3.802
27237W        W95455  38.859  24.912  12.633
27238W        W95456  24.531  33.029  10.444
27239W        W95457  17.488   2.340   2.280
27240W        W95458  13.642  13.757  14.337
27241W        W95459  23.534  13.572  14.955
27242W        W95460  13.865  23.548  10.779
27243W        W95461  34.462  19.623   0.521
27244W        W95462  17.057   8.638  10.107
27245W        W95463  13.413  10.435   3.826
27246W        W95464  26.179  35.522  13.343
27247W        W95465  20.344  17.422  13.326
27248W        W95466  40.856  38.059  13.808
27249W        W95467  21.046   1.347   3.829
27250W        W95468   3.842  39.754   3.920
27251W        W95469  25.185  27.929   3.577
27252W        W95470   8.771   8.164  14.371
27253W        W95471  13.323  37.634  10.719
27254W        W95472  30.445  17.075  10.909
27255W        W95473  42.778  39.692   1.348
27256W        W95474  43.456  38.600  10.729
27257W        W95475  19.281  18.414  11.141
27258W        W95476  25.822  40.987   1.161
27259W        W95477   7.182  40.593  14.619
27260W        W95478  28.342  39.652  12.008
27261W        W95479  40.818  14.894   3.686
27262W        W95480  41.891  11.620  14.893
27263W        W95481  43.142  25.506   2.954
27264W        W95482  31.625  42.694  13.997
27265W        W95483  21.744  16.079   0.857
27266W        W95484   2.417  37.170   4.326
27267W        W95485  32.033  34.653   3.134
27268W        W95486  19.795  18.518   4.507
27269W        W95487  34.571   2.444  14.603
27270W        W95488   9.359   7.400   4.613
27271W        W95489  43.300  35.045  13.041
27272W        W95490  28.626  25.060   2.445
27273W        W95491   4.468  11.147   3.168
27274W        W95492  21.729  41.221   1.926
27275W        W95493   4.908   2.846  14.949
27276W        W95494  27.496  27.828  12.390
27277W        W95495  27.858  33.475  10.301
27278W        W95496  23.853  43.525  14.037
27279W        W95497   9.140  32.437   0.449
27280W        W95498  16.137  14.331   3.563
27281W        W95499   5.306   4.343   2.266
27282W        W95500  36.840  40.622  14.883
27283W        W95501  23.268  40.442  11.190
27284W        W95502  20.244  22.551   0.142
27285W        W95503  15.859   2.239   0.270
27286W        W95504  39.255  10.313  11.087
27287W        W95505  31.144  24.258   9.929
27288W        W95506   8.253   8.692  12.993
27289W        W95507  29.479  32.857   2.297
27290W        W95508  40.430   8.717   1.357
27291W        W95509  24.158  20.471  13.461
27292W        W95510  43.817  13.712   2.854
27293W        W95511  43.843   7.802   4.159
27294W        W95512   8.891  14.684   4.437
27295W        W95513  31.644   9.895  11.103
27296W        W95514  13.684  12.283   0.807
27297W        W95515  15.142   3.291   2.384
27298W        W95516  12.823  17.595   1.351
27299W        W95517   6.141  11.798  10.368
27300W        W95518  36.977  24.840   4.699
27301W        W95519  34.612  35.812   4.196
27302W        W95520   2.919  16.389   3.396
27303W        W95521   3.243  16.269   1.235
27304W        W95522  11.563  11.266  11.640
27305W        W95523  19.437  16.571   0.753
27306W        W95524   0.206   3.461   0.954
27307W        W95525  23.476  24.723  13.969
27308W        W95526  12.258  20.040  12.686
27309W        W95527  17.023  21.617   2.668
27310W        W95528  16.226  35.399  14.579
27311W        W95529  21.201  13.319  10.434
27312W        W95530  11.116   5.860  11.199
27313W        W95531  12.366  33.035  14.063
27314W        W95532  22.593  40.111  14.806
27315W        W95533  37.265  25.957  10.812
27316W        W95534   3.747  17.677  14.699
27317W        W95535  30.421  32.332  12.952
27318W        W95536  30.252  32.091  10.197
27319W        W95537  43.102  41.576  10.985
27320W        W95538   8.296  28.267   1.078
27321W        W95539   1.680  10.780   4.591
27322W        W95540   8.977  29.017  11.528
27323W        W95541  17.051   4.672   3.793
27324W        W95542  42.086  16.607  14.878
27325W        W95543  17.529   0.516  12.049
27326W        W95544  43.787  34.908  13.190
27327W        W95545  11.079  31.335   3.298
27328W        W95546  33.937  31.864  11.407
27329W        W95547  24.850  30.291  10.650
27330W        W95548  43.573  14.079   2.579
27331W        W95549   5.006   1.214   2.956
27332W        W95550  16.715  24.174  14.247
27333W        W95551   1.992  15.786   3.263
27334W        W95552   1.001  25.455   1.336
27335W        W95553  37.439  29.994  14.034
27336W        W95554  34.174  19.019  14.889
27337W        W95555  16.216   8.482   4.728
27338W        W95556  36.481   2.881   4.179
27339W        W95557  34.604  27.639  11.429
27340W        W95558  18.311  19.294   4.927
27341W        W95559  25.093  36.396   5.133
27342W        W95560  43.912  44.784  11.875
27343W        W95561  43.884  41.815   0.250
27344W        W95562  41.939  20.534   3.380
27345W        W95563  40.633  41.355   4.067
27346W        W95564  12.166   2.716   2.306
27347W        W95565   7.182  14.095  13.439
27348W        W95566  21.171  16.690   3.355
27349W        W95567   2.162  18.169  12.078
27350W        W95568  11.263  30.860  13.710
27351W        W95569   6.764  33.350   2.844
27352W        W95570   1.296  22.557   0.948
27353W        W95571   4.304  18.216   2.683
27354W        W95572  41.869  40.930  11.087
27355W        W95573  18.221  11.040   0.701
27356W        W95574  35.212  33.818   2.362
27357W        W95575  44.706  34.478  14.973
27358W        W95576   6.255   4.152  14.828
27359W        W95577  10.187  40.949  10.525
27360W        W95578  31.533  17.127   3.937
27361W        W95579  14.495  14.612  13.127
27362W        W95580  11.055  20.178   1.223
27363W        W95581  28.462   3.604   2.334
27364W        W95582  22.073  32.988  14.403
27365W        W95583  30.139  19.336  11.201
27366W        W95584  28.107   6.584  11.581
27367W        W95585  22.761  27.740  11.964
27368W        W95586  33.156  40.588   3.817
27369W        W95587   1.801  34.182  13.383
27370W        W95588   6.711  20.483  10.646
27371W        W95589   1.241  44.960  12.322
27372W        W95590  24.998   8.239   1.699
27373W        W95591  12.741  39.181   4.694
27374W        W95592   8.821  23.591  11.248
27375W        W95593   2.912   9.666  11.562
27376W        W95594  14.794  21.853  14.697
27377W        W95595   9.459  29.061   2.303
27378W        W95596  18.372  34.521   2.974
27379W        W95597  37.051  43.368  14.998
27380W        W95598  19.267  37.727   2.301
27381W        W95599  37.559  14.606   1.726
27382W        W95600  42.843   9.041  14.803
27383W        W95601  38.881  30.406   4.616
27384W        W95602  14.457  33.370  12.256
27385W        W95603  13.461  24.603  10.619
27386W        W95604  31.004  19.313  13.385
27387W        W95605   9.086  38.847   1.163
27388W        W95606  23.486  33.853  11.975
27389W        W95607  24.236  44.271  12.968
27390W        W95608  19.522  35.426  14.718
27391W        W95609  25.159   2.157   2.315
27392W        W95610  27.958  29.718   3.395
27393W        W95611  40.281   5.839   0.822
27394W        W95612  16.374  15.189   3.231
27395W        W95613  42.585  14.186   4.180
27396W        W95614   8.749   0.688   4.132
27397W        W95615  23.409   1.460   0.273
27398W        W95616  19.260  10.250   4.138
27399W        W95617  15.057  24.462   3.721
27400W        W95618  15.887  16.170   2.635
27401W        W95619  30.402  36.511   0.980
27402W        W95620  19.757   7.004   4.474
27403W        W95621  17.845  16.812  11.051
27404W        W95622  31.082  35.845  12.545
27405W        W95623  28.501  27.444   2.720
27406W        W95624   6.427  40.659   3.127
27407W        W95625  29.488   2.897   2.841
27408W        W95626  19.971   3.693  11.145
27409W        W95627   7.983  22.255  12.623
27410W        W95628   3.768  20.416  12.743
27411W        W95629  39.888  36.033   2.952
27412W        W95630  26.015  12.684  11.589
27413W        W95631  17.268  43.187   0.293
27414W        W95632  43.453  30.557  10.411
27415W        W95633  18.285  13.316   2.767
27416W        W95634  24.396  22.741  12.482
27417W        W95635  37.616  34.579  12.083
27418W        W95636  25.522  24.205   0.730
27419W        W95637  41.111  24.690   0.769
27420W        W95638  43.422   2.848  12.645
27421W        W95639  11.573   3.972  10.654
27422W        W95640  14.571  11.274   4.108
27423W        W95641  35.140   2.456   0.720
27424W        W95642   0.646  10.384   0.491
27425W        W95643  29.601   9.726  11.632
27426W        W95644  27.285  36.645   2.021
27427W        W95645  21.728   9.746   0.547
27428W        W95646  43.335  39.980  14.707
27429W        W95647  12.180  37.601   3.212
27430W        W95648   7.696  17.277  14.267
27431W        W95649   3.664  16.797  10.665
27432W        W95650  30.925  10.506  13.390
27433W        W95651  15.564  22.981   0.857
27434W        W95652  35.431  22.772   1.328
27435W        W95653  33.964  43.780  14.698
27436W        W95654  15.029  35.103   4.614
27437W        W95655  40.251   1.360   2.225
27438W        W95656  28.638  38.962  13.727
27439W        W95657  21.040   1.896  11.540
27440W        W95658  20.685   1.302   1.705
27441W        W95659  44.725  11.752   4.161
27442W        W95660   8.150  24.237   2.940
27443W        W95661   2.186  19.254  12.777
27444W        W95662  41.573  44.329   2.463
27445W        W95663  38.877  35.285   3.704
27446W        W95664   1.415   8.167  12.793
27447W        W95665  13.829  39.488  14.839
27448W        W95666   6.611  15.909   1.391
27449W        W95667  16.685  11.148   2.031
27450W        W95668  16.755   1.493  10.966
27451W        W95669   2.388   7.929  10.657
27452W        W95670  17.218  22.036   3.807
27453W        W95671  36.907  14.177  13.613
27454W        W95672  37.584   5.478   4.163
27455W        W95673  33.057  43.816  13.532
27456W        W95674  22.761  19.321  12.547
27457W        W95675  33.998  41.616   4.517
27458W        W95676   0.601  28.708  10.304
27459W        W95677  38.370  21.764   2.737
27460W        W95678  16.113  26.826  13.154
27461W        W95679  28.726  20.987   4.073
27462W        W95680  31.603  16.809   4.649
27463W        W95681  43.599  40.223  11.388
27464W        W95682   0.598  44.329   3.411
27465W        W95683  10.245  35.163   3.661
27466W        W95684   9.796  42.816   4.770
27467W        W95685  42.522  32.730  12.664
27468W        W95686   5.652  29.065  10.713
27469W        W95687   4.845  32.038   3.270
27470W        W95688  40.347  38.533   1.444
27471W        W95689  39.433  37.419   2.080
27472W        W95690  26.012  42.463   2.607
27473W        W95691   1.914  37.688  10.252
27474W        W95692   7.345   4.045   1.213
27475W        W95693  39.404  41.595  12.385
27476W        W95694  25.594   8.165  14.276
27477W        W95695   2.313   9.142   1.089
27478W        W95696  44.220  17.092   0.435
27479W        W95697   9.569  35.781   3.823
27480W        W95698  43.273  14.565  13.003
27481W        W95699  37.598   1.527   2.873
27482W        W95700  11.125  22.148   1.285
27483W        W95701  43.779  14.206   3.572
27484W        W95702  33.066  10.921   0.076
27485W        W95703   7.198  37.789  13.934
27486W        W95704  27.127  20.622   0.774
27487W        W95705  42.730   9.810  14.480
27488W        W95706  14.167  32.295   3.526
27489W        W95707  25.575  19.342  12.604
27490W        W95708   4.703  14.536   3.175
27491W        W95709  40.348  34.107  13.761
27492W        W95710  20.122  39.245  10.638
27493W        W95711  17.649  14.533  13.074
27494W        W95712  42.345  16.078  12.075
27495W        W95713  11.198  27.509   4.482
27496W        W95714   8.820  40.518  10.275
27497W        W95715  10.351  43.745  12.064
27498W        W95716   5.725   6.413   4.792
27499W        W95717  17.788  30.020   4.077
27500W        W95718  43.973  11.229   1.367
27501W        W95719  16.742  17.855   2.113
27502W        W95720  42.374   5.143  14.590
27503W        W95721  12.156  19.102  13.063
27504W        W95722   0.777  10.272  14.588
27505W        W95723  13.362  18.526  11.306
27506W        W95724  30.191   2.481   3.711
27507W        W95725  31.567   8.189  11.707
27508W        W95726  18.039  21.912  14.907
27509W        W95727  17.548   7.475   0.278
27510W        W95728  14.163   9.612  11.710
27511W        W95729  15.332  36.174   0.236
27512W        W95730  32.611   1.395   0.777
27513W        W95731   7.844  37.736  12.016
27514W        W95732  33.416  41.009  12.291
27515W        W95733  22.567  39.462  12.186
27516W        W95734   3.298  34.229  13.255
27517W        W95735  39.154  16.905  14.878
27518W        W95736  11.999  16.531   4.458
27519W        W95737  21.305  16.866   0.835
27520W        W95738  40.892  32.221  12.102
27521W        W95739  36.325  15.123  13.872
27522W        W95740  12.018  20.092  14.490
27523W        W95741  23.079   3.267  12.035
27524W        W95742   1.256   7.074  14.945
27525W        W95743   0.772   8.114   3.303
27526W        W95744  14.228  33.479   2.912
27527W        W95745   2.748  20.613   4.639
27528W        W95746   6.780  15.858   0.893
27529W        W95747  39.990  39.862  10.896
27530W        W95748  38.493  12.111   4.559
27531W        W95749  17.241   9.656  14.477
27532W        W95750   8.314   7.878   2.891
27533W        W95751  26.764  38.362  10.702
27534W        W95752  31.069  34.772   2.275
27535W        W95753  15.170  35.576   4.426
27536W        W95754   2.743  11.392   4.149
27537W        W95755  14.013  10.170  12.431
27538W        W95756  41.269  21.160   0.436
27539W        W95757  43.093  31.314   0.305
27540W        W95758   5.846  21.986  14.891
27541W        W95759  21.004  20.851   1.237
27542W        W95760  32.895  37.589   3.440
27543W        W95761   1.416  32.025   4.252
27544W        W95762  10.196  11.035  10.108
27545W        W95763  28.504  33.121   3.239
27546W        W95764   5.321  28.993  14.027
27547W        W95765   3.412  38.119   4.243
27548W        W95766  29.954  15.532   3.719
27549W        W95767  40.167  22.954  11.056
27550W        W95768  17.458   0.930   3.054
27551W        W95769  37.032  44.496   3.960
27552W        W95770  17.934  26.664  14.354
27553W        W95771  22.454  28.538  11.633
27554W        W95772  32.676  39.898  14.209
27555W        W95773   6.860  20.600   2.130
27556W        W95774  23.000  11.332   3.738
27557W        W95775  19.092  26.947  12.125
27558W        W95776   4.999  22.751   1.781
27559W        W95777  43.750  32.011   0.324
27560W        W95778  34.820  38.289  12.850
27561W        W95779  31.966   6.103   4.764
27562W        W95780  33.319  23.837   0.808
27563W        W95781  32.460   3.463   0.905
27564W        W95782   2.878  26.137   0.186
27565W        W95783  12.447  26.945  13.969
27566W        W95784  26.222  41.764   1.257
27567W        W95785  40.265  21.981  10.957
27568W        W95786  23.251  37.394   3.258
27569W        W95787   7.776  38.234  11.862
27570W        W95788  12.430  26.773  12.615
27571W        W95789  41.251  35.275  13.848
27572W        W95790  37.380   3.258  13.815
27573W        W95791  30.260  11.846  11.410
27574W        W95792  28.712   7.101   3.389
27575W        W95793  31.009  40.531  14.898
27576W        W95794  39.336   9.709   3.998
27577W        W95795   0.509  44.367  12.478
27578W        W95796   7.691  10.279   4.746
27579W        W95797   4.900   3.037  12.164
27580W        W95798   2.315  34.857  11.444
27581W        W95799   2.769   0.757   2.071
27582W        W95800   5.401  27.541   2.068
27583W        W95801   5.250  32.627  13.167
27584W        W95802  26.419  21.130   9.967
27585W        W95803  17.817  26.165   1.408
27586W        W95804   4.842  11.858   4.589
27587W        W95805  16.585  10.211   4.651
27588W        W95806   5.777  42.854   0.494
27589W        W95807  27.719   2.904  11.083
27590W        W95808   0.972  17.910   3.089
27591W        W95809  25.514  44.928   0.639
27592W        W95810  33.989   9.782   0.700
27593W        W95811  36.800  27.959   0.721
27594W        W95812  39.373  17.587   0.291
27595W        W95813  41.931  16.752   1.313
27596W        W95814  36.302  27.604  12.809
27597W        W95815   1.994  39.482   0.933
27598W        W95816  13.690  17.262  10.547
27599W        W95817   9.224  32.719   0.021
27600W        W95818  10.168  32.454   1.273
27601W        W95819  19.641   5.946   4.535
27602W        W95820  20.578  15.539  10.018
27603W        W95821  37.423  42.022   0.733
27604W        W95822  13.205   6.031   3.291
27605W        W95823  34.026   4.517   5.023
27606W        W95824  21.832  37.993  12.021
27607W        W95825   1.097  18.759   1.265
27608W        W95826  27.314   6.321   3.188
27609W        W95827   4.843  35.889  11.917
27610W        W95828  26.590  29.605   2.717
27611W        W95829  27.764  27.598  13.486
27612W        W95830  35.095   1.560  14.326
27613W        W95831  30.126  23.467  13.062
27614W        W95832   7.768   2.293   1.337
27615W        W95833  40.385  14.652  11.741
27616W        W95834  34.954  22.770  12.033
27617W        W95835   3.581   7.177  11.294
27618W        W95836   5.721  13.127  12.640
27619W        W95837  40.871  24.554  10.617
27620W        W95838  30.730  18.222  11.875
27621W        W95839   9.349   3.167   1.485
27622W        W95840  35.883  32.139  12.464
27623W        W95841   7.938   3.614  12.849
27624W        W95842   8.689   5.651  12.630
27625W        W95843   6.043  18.092   1.387
27626W        W95844   2.855  41.547  14.477
27627W        W95845  12.916   2.329  13.422
27628W        W95846   3.280  31.442  11.053
27629W        W95847   0.912  36.838  14.748
27630W        W95848  32.518  37.061  11.893
27631W        W95849  18.927   1.462   2.946
27632W        W95850  34.535   9.663  14.800
27633W        W95851  17.186   7.868  11.135
27634W        W95852   8.088  34.641   3.600
27635W        W95853  10.314  36.561   0.741
27636W        W95854   2.699  25.384   2.878
27637W        W95855  43.914  42.225  10.730
27638W        W95856  14.866  27.465  13.625
27639W        W95857   3.502  30.510   0.312
27640W        W95858  18.225   4.491  10.700
27641W        W95859   3.016  19.150   4.607
27642W        W95860  34.744  38.717  12.080
27643W        W95861  10.215  24.538  12.683
27644W        W95862  16.107  13.662   4.045
27645W        W95863   3.981   1.445   2.689
27646W        W95864  28.588   3.228   0.340
27647W        W95865  41.047  10.311  10.437
27648W        W95866   3.942  21.553   3.610
27649W        W95867  21.515   7.848  14.396
27650W        W95868  20.169  10.830   0.688
27651W        W95869  29.590  33.545  13.171
27652W        W95870  15.197   0.822  13.571
27653W        W95871   7.731  25.145  13.009
27654W        W95872  12.230   5.752   4.377
27655W        W95873  20.737  39.389   1.290
27656W        W95874  33.173  16.721   0.087
27657W        W95875  20.869  41.591   4.176
27658W        W95876   2.193  16.254  12.582
27659W        W95877  19.155   6.332   1.844
27660W        W95878  32.487  15.299  12.106
27661W        W95879   6.012  44.607   0.468
27662W        W95880  42.157  30.572  13.346
27663W        W95881   2.288  37.047  12.912
27664W        W95882  44.954  39.978   4.494
27665W        W95883   8.834  17.107   4.014
27666W        W95884  29.785  23.517   1.024
27667W        W95885  12.742   9.112   2.230
27668W        W95886  40.955   3.250  13.072
27669W        W95887  40.983  10.898  11.677
27670W        W95888   0.847   8.000   1.988
27671W        W95889   9.135  41.414  13.580
27672W        W95890   8.131  40.846   9.671
27673W        W95891  13.740  41.484  14.888
27674W        W95892  42.573  14.598  11.584
27675W        W95893  31.573  24.081   2.339
27676W        W95894  39.615  17.558  13.859
27677W        W95895   0.074  44.678   2.286
27678W        W95896  37.522  34.830  11.641
27679W        W95897  27.140  34.044   2.375
27680W        W95898  16.788  32.349  12.667
27681W        W95899  27.715  29.663  11.991
27682W        W95900  44.101  23.856  12.155
27683W        W95901   2.687  31.757   3.368
27684W        W95902  15.031  25.414  11.057
27685W        W95903   1.011  13.199  11.621
27686W        W95904   8.467  31.928  11.103
27687W        W95905  28.905  11.211   2.806
27688W        W95906   2.209  10.847   2.426
27689W        W95907  34.426  21.291  14.968
27690W        W95908   4.032  31.512   0.921
27691W        W95909   3.838   8.168   4.508
27692W        W95910  15.126  28.029  11.044
27693W        W95911   8.266  35.215   1.665
27694W        W95912  32.975   9.043  14.294
27695W        W95913  23.918  19.657   0.806
27696W        W95914  22.848   8.767  12.501
27697W        W95915  14.728   3.663   1.635
27698W        W95916  34.235  11.301   1.800
27699W        W95917  26.961  38.526  11.160
27700W        W95918  32.048  20.577  14.719
27701W        W95919  18.603  42.781  11.913
27702W        W95920  10.275  12.190   3.587
27703W        W95921  26.163  41.336  11.976
27704W        W95922  23.634  13.592   3.316
27705W        W95923  22.287  27.836  10.955
27706W        W95924   0.466  25.342  10.236
27707W        W95925   7.839  37.938   1.373
27708W        W95926  19.160  19.545   2.894
27709W        W95927   6.876   2.720  12.486
27710W        W95928  35.365  38.242   0.260
27711W        W95929   4.766  31.202  10.263
27712W        W95930  18.620  34.213  14.801
27713W        W95931  18.245  26.485   0.861
27714W        W95932  20.634   2.183  11.595
27715W        W95933  27.958   0.694   2.457
27716W        W95934   5.712  17.099  12.548
27717W        W95935  44.714  30.679  11.151
27718W        W95936  25.574   0.644  11.705
27719W        W95937  21.572   0.909   2.113
27720W        W95938  42.326  38.323  12.499
27721W        W95939   2.411  40.476   3.418
27722W        W95940   0.154   9.733  12.379
27723W        W95941  38.984  25.021   2.629
27724W        W95942  36.732  21.774   0.043
27725W        W95943  36.368  40.873  10.795
27726W        W95944   6.199  29.488   4.471
27727W        W95945  11.303   3.478   2.751
27728W        W95946  13.354  36.373   0.424
27729W        W95947  14.880  12.319  11.622
27730W        W95948  11.822  36.494  14.926
27731W        W95949  11.691  29.594  13.017
27732W        W95950  24.527   5.781  11.144
27733W        W95951  37.905  43.017   5.097
27734W        W95952  17.501  37.029  10.777
27735W        W95953  24.434   4.801   3.338
27736W        W95954  43.295  23.540  12.673
27737W        W95955  43.054   0.338  12.154
27738W        W95956  25.311  18.748   1.042
27739W        W95957   7.242  19.212  12.244
27740W        W95958  29.068  29.036  11.596
27741W        W95959  28.080  27.833  12.696
27742W        W95960  18.289  18.145  11.127
27743W        W95961  43.401   4.056   0.366
27744W        W95962  19.246  39.553  11.134
27745W        W95963   1.909   5.745   2.053
27746W        W95964   5.878  16.500   2.351
27747W        W95965   2.494  27.644  11.149
27748W        W95966  19.289   2.441  12.910
27749W        W95967  44.582  10.312   1.670
27750W        W95968  43.020  44.951  10.298
27751W        W95969  32.849  11.447   1.406
27752W        W95970  34.031  13.364   1.390
27753W        W95971   1.756  18.699   4.859
27754W        W95972   9.356  40.919   4.585
27755W        W95973  29.726  28.864   3.588
27756W        W95974  18.004  44.875  11.963
27757W        W95975  25.850   9.102   2.941
27758W        W95976  35.346  20.258  14.314
27759W        W95977  12.248  14.083   0.924
27760W        W95978   6.567  38.917  11.564
27761W        W95979  34.625  36.748   2.356
27762W        W95980  32.552  33.541  13.933
27763W        W95981  30.255   5.935  14.475
27764W        W95982  29.352   1.171  14.935
27765W        W95983  31.615  25.736  12.537
27766W        W95984  36.638  43.164   0.225
27767W        W95985  41.407  24.226   1.772
27768W        W95986   1.957  20.182  13.879
27769W        W95987   2.127  19.481   4.797
27770W        W95988  16.126  36.899   0.940
27771W        W95989   8.152   2.342  11.652
27772W        W95990  39.028  40.721   4.526
27773W        W95991  43.807  28.476   0.331
27774W        W95992   5.346  24.186   3.730
27775W        W95993  24.594   9.894  11.569
27776W        W95994   2.713  27.029  11.882
27777W        W95995  30.212  15.377   9.929
27778W        W95996  22.078  30.168  14.296
27779W        W95997   7.150  31.050  13.871
27780W        W95998  41.291  37.451   3.405
27781W        W95999  23.649  28.082  12.293
27782W        W96000  22.198   5.693   1.628
27783W        W96001  29.022  13.690   0.463
27784W        W96002  26.967  26.668  11.433
27785W        W96003  38.720  17.763   2.080
27786W        W96004  42.883  13.749  11.483
27787W        W96005  30.909  14.832  11.471
27788W        W96006   2.079   7.322   0.457
27789W        W96007  40.587  11.730   3.924
27790W        W96008  42.316  29.724  12.160
27791W        W96009   7.862  37.869  11.511
27792W        W96010  30.967  34.086  14.074
27793W        W96011  44.959  40.392  10.800
27794W        W96012  26.822  18.566  14.708
27795W        W96013  29.769  24.711   0.966
27796W        W96014  13.649  43.718   3.149
27797W        W96015   8.445  35.989  12.136
27798W        W96016   5.455  10.357   1.468
27799W        W96017  24.559  31.856   4.057
27800W        W96018  21.546  26.685   0.898
27801W        W96019  29.448  13.877   0.224
27802W        W96020  17.071  24.668  13.960
27803W        W96021  41.974   5.329   3.090
27804W        W96022  21.248  24.544   0.586
27805W        W96023  27.126  37.336  12.309
27806W        W96024  14.650  12.891  14.511
27807W        W96025  32.573   8.232  13.905
27808W        W96026  37.865  25.050   0.292
27809W        W96027  39.427  13.169  11.305
27810W        W96028  23.866  10.639   1.740
27811W        W96029   8.431  18.995   0.275
27812W        W96030  14.719  10.739   2.792
27813W        W96031   8.838  23.289  10.446
27814W        W96032  27.659  21.609  13.814
27815W        W96033  39.877  16.772   2.280
27816W        W96034  13.816   5.938  11.585
27817W        W96035   2.427  22.715   2.204
27818W        W96036  25.795  44.166   4.168
27819W        W96037  36.589  42.693   1.910
27820W        W96038  10.615  42.428  13.907
27821W        W96039   4.351  36.017  10.641
27822W        W96040  33.995  41.060   2.260
27823W        W96041  36.872  13.138   2.256
27824W        W96042   2.901   7.947   1.283
27825W        W96043   6.287   8.348  14.340
27826W        W96044  33.488   3.981   9.955
27827W        W96045   7.952  28.962   3.216
27828W        W96046  40.797  15.102   1.989
27829W        W96047  20.201  28.566   3.289
27830W        W96048  15.742  23.500  12.664
27831W        W96049  20.626  27.549  10.754
27832W        W96050  26.967  27.930   1.844
27833W        W96051  33.458  17.743   1.352
27834W        W96052   0.229  25.218   3.154
27835W        W96053  18.230  43.680   1.667
27836W        W96054  32.255  34.950   0.417
27837W        W96055  20.245  42.915  10.708
27838W        W96056   0.436   5.901   0.274
27839W        W96057  33.718  28.948  13.775
27840W        W96058   1.843  12.206  10.481
27841W        W96059  14.621   3.251   3.698
27842W        W96060   8.351  13.066   2.764
27843W        W96061  37.325   4.281  11.773
27844W        W96062  33.352  37.976  10.554
27845W        W96063  10.810  41.759  11.642
27846W        W96064  24.267   5.802   4.639
27847W        W96065  30.551   2.507  11.551
27848W        W96066  38.885  37.589  11.593
27849W        W96067  13.113  24.168  14.907
27850W        W96068  37.800  38.512  11.005
27851W        W96069   3.338  25.460  13.796
27852W        W96070   0.155  24.132  12.459
27853W        W96071  34.022   8.272   0.319
27854W        W96072  16.611  11.817   3.397
27855W        W96073   9.343  22.137   4.195
27856W        W96074  13.362  30.837  12.230
27857W        W96075  12.277   5.683   3.830
27858W        W96076   9.230   6.364  13.837
27859W        W96077  12.243  23.845   0.330
27860W        W96078   5.236   8.271   0.576
27861W        W96079  38.580  13.615   1.239
27862W        W96080  26.544  39.323   2.167
27863W        W96081  17.958  36.680  12.038
27864W        W96082   9.893  40.835   2.793
27865W        W96083  14.798  28.513  13.822
27866W        W96084  12.109  41.153  14.508
27867W        W96085  17.667   7.983  13.801
27868W        W96086  12.881  40.026  10.482
27869W        W96087  40.765   8.030  14.700
27870W        W96088  25.957  21.014  10.807
27871W        W96089  22.681  38.382  11.935
27872W        W96090  13.379  33.327   1.106
27873W        W96091  20.691  43.234   1.380
27874W        W96092  34.403   6.020  10.599
27875W        W96093  43.816  24.573   1.090
27876W        W96094  37.855  19.591   4.616
27877W        W96095  40.255  27.888  10.358
27878W        W96096  15.135  29.445  13.553
27879W        W96097  23.778  37.540  12.265
27880W        W96098   8.974   3.257   2.463
27881W        W96099   4.231  19.705   4.176
27882W        W96100  21.976   1.823   4.592
27883W        W96101  24.067  11.199  11.750
27884W        W96102  35.044  18.624  12.745
27885W        W96103  28.149  38.088   0.460
27886W        W96104   4.855  39.989  11.360
27887W        W96105  23.694  14.344  14.802
27888W        W96106   8.294  21.002  11.164
27889W        W96107  13.205  15.816   1.331
27890W        W96108  43.248   9.745   1.761
27891W        W96109   8.528  24.056  13.151
27892W        W96110   0.678  13.131   1.804
27893W        W96111   8.764  24.089   0.019
27894W        W96112   8.818  31.632  12.177
27895W        W96113  43.726  10.196   0.067
27896W        W96114  30.965  38.587  11.277
27897W        W96115  30.551  38.202  12.902
27898W        W96116   3.325  13.834   3.560
27899W        W96117  42.329  41.727   0.779
27900W        W96118  36.120  42.285   4.087
27901W        W96119  25.532  27.038  14.802
27902W        W96120   5.944  31.497  10.468
27903W        W96121  24.655  32.973  14.440
27904W        W96122   7.661  29.972  13.667
27905W        W96123  16.249  33.369  13.245
27906W        W96124  29.387  28.679  13.576
27907W        W96125  30.072   8.829   1.686
27908W        W96126   6.423  36.496  12.421
27909W        W96127   6.963   7.684   0.282
27910W        W96128  21.192  13.106   2.565
27911W        W96129  28.457  18.368  11.048
27912W        W96130   0.122  39.365  14.508
27913W        W96131   4.806  14.320   1.326
27914W        W96132  13.280   8.057  10.722
27915W        W96133  13.180  32.664   4.074
27916W        W96134  15.892  25.897   2.758
27917W        W96135  34.674  27.412   3.551
27918W        W96136   3.730  28.429   2.498
27919W        W96137  11.610  38.606  12.966
27920W        W96138  29.034  25.730  13.930
27921W        W96139   7.890   8.239  14.493
27922W        W96140   4.551  24.152   3.722
27923W        W96141  23.253  25.184  14.069
27924W        W96142  22.134  39.263  13.001
27925W        W96143  31.114  15.203   2.257
27926W        W96144  11.036  31.837   3.084
27927W        W96145  20.969  27.040  12.554
27928W        W96146  35.360  21.110   3.325
27929W        W96147  14.719   8.111   2.992
27930W        W96148   7.908  30.346   4.130
27931W        W96149  44.773   5.407  10.928
27932W        W96150  13.333  20.176   2.379
27933W        W96151  43.135  20.645  13.523
27934W        W96152  13.062   6.693  13.980
27935W        W96153  43.427  43.866   0.291
27936W        W96154  29.075  10.188  13.987
27937W        W96155   3.899  10.925   0.360
27938W        W96156  18.368  38.733   3.203
27939W        W96157   8.900   9.348  12.786
27940W        W96158  18.616  29.136   3.733
27941W        W96159  11.560  22.122  11.529
27942W        W96160   6.720  21.901  13.745
27943W        W96161  23.783  34.021   4.481
27944W        W96162  36.974   3.292   2.722
27945W        W96163  40.254  42.457  13.094
27946W        W96164  24.518  17.191   1.459
27947W        W96165   0.008  23.619  14.609
27948W        W96166  36.968   7.978   2.333
27949W        W96167  40.338  23.349  13.094
27950W        W96168   6.339  44.437  12.045
27951W        W96169  29.359   5.361  11.773
27952W        W96170  43.998   0.321   0.916
27953W        W96171  32.078  43.940   3.325
27954W        W96172  12.264   0.303  12.833
27955W        W96173   6.581   0.380  14.473
27956W        W96174  25.226  31.337  12.995
27957W        W96175  38.419  24.520  13.975
27958W        W96176  28.361   3.282  13.804
27959W        W96177   0.472  18.044   2.784
27960W        W96178   8.062   3.400  14.560
27961W        W96179  11.394  44.916  10.438
27962W        W96180   5.792  13.130  14.005
27963W        W96181  20.579  27.084   1.187
27964W        W96182  20.156  28.648   0.816
27965W        W96183  26.674  14.215  14.930
27966W        W96184  36.324  29.100  13.866
27967W        W96185  26.496  37.125  11.124
27968W        W96186   6.854  34.971  10.953
27969W        W96187  35.106  32.998  12.840
27970W        W96188  21.590  26.137   2.326
27971W        W96189  31.977   4.668  11.380
27972W        W96190   5.672  42.764   2.430
27973W        W96191  29.667  17.309   1.396
27974W        W96192   9.595   1.299   0.973
27975W        W96193  12.087  36.557   2.213
27976W        W96194  10.719  19.307   3.236
27977W        W96195  18.047  42.882   0.688
27978W        W96196  36.415   0.486  13.308
27979W        W96197   3.740  25.482   4.411
27980W        W96198   8.382  32.458  11.047
27981W        W96199  11.336   2.242  11.095
27982W        W96200  14.841   2.538  12.968
27983W        W96201  24.014  11.816   1.213
27984W        W96202   6.278  24.414   3.148
27985W        W96203  11.585  16.316  13.031
27986W        W96204  29.121  23.021  10.763
27987W        W96205  19.325   3.976  13.014
27988W        W96206  22.255  22.552   0.670
27989W        W96207  20.247   1.285   3.330
27990W        W96208  17.844   9.235   3.665
27991W        W96209  44.733  24.102  10.725
27992W        W96210   7.271   3.012  12.027
27993W        W96211  21.142  31.133   1.848
27994W        W96212  14.845  10.833   1.775
27995W        W96213   6.603   9.468   0.866
27996W        W96214  25.667   8.194  11.068
27997W        W96215  43.995  39.327   1.258
27998W        W96216  23.447  38.076  13.940
27999W        W96217  44.187  36.553  12.032
28000W        W96218   6.737   9.695   4.177
28001W        W96219  14.362   7.022   3.362
28002W        W96220  11.573  14.006   4.576
28003W        W96221  11.613  23.269  13.447
28004W        W96222   3.502  29.541  11.745
28005W        W96223  23.534  26.136  14.972
28006W        W96224   2.914  10.465   0.797
28007W        W96225   7.220   7.850  11.524
28008W        W96226  30.090  28.431   2.772
28009W        W96227  19.038   2.767  10.989
28010W        W96228  16.726  12.869   4.222
28011W        W96229  23.727  17.872  14.980
28012W        W96230  17.135  40.483   2.654
28013W        W96231  12.711  36.993   2.688
28014W        W96232  34.822  27.569   2.624
28015W        W96233   9.252  30.125  12.542
28016W        W96234   7.641   0.932  12.503
28017W        W96235   2.312  40.924   4.606
28018W        W96236  30.924  41.827   1.327
28019W        W96237  44.443  40.311   1.371
28020W        W96238  32.703  38.369  11.018
28021W        W96239  21.564   2.556   2.604
28022W        W96240  28.403   2.308   2.916
28023W        W96241  15.545  13.766   0.661
28024W        W96242  10.897  25.956   0.904
28025W        W96243  38.221  13.393  13.530
28026W        W96244  16.255  25.520   1.873
28027W        W96245  22.769  36.642  12.656
28028W        W96246   1.884  27.916   0.380
28029W        W96247   4.475  23.269   3.249
28030W        W96248  13.171  21.242  10.713
28031W        W96249   2.502  32.945  10.477
28032W        W96250  27.159  18.195  10.806
28033W        W96251  16.179  11.591  10.298
28034W        W96252  34.494  34.545  13.452
28035W        W96253   7.922   4.276  10.577
28036W        W96254  41.108  13.203  14.505
28037W        W96255   4.424  23.630   2.887
28038W        W96256  38.652  16.576  13.852
28039W        W96257  25.717  24.526   3.248
28040W        W96258  11.768  12.349   0.670
28041W        W96259  35.571  21.742  13.238
28042W        W96260   7.965  36.849  14.290
28043W        W96261  17.303  20.524  11.036
28044W        W96262   1.301  15.042   3.693
28045W        W96263  39.299  15.874  13.040
28046W        W96264  20.522  23.609  13.647
28047W        W96265  32.892  39.321   2.247
28048W        W96266  15.186  23.428   3.745
28049W        W96267  32.648  26.875   2.521
28050W        W96268  38.827  40.045   3.730
28051W        W96269  14.242  36.484  10.647
28052W        W96270  25.728  43.957   2.209
28053W        W96271   5.829  18.702   1.671
28054W        W96272   4.637  32.079  13.872
28055W        W96273  26.922  11.776  14.343
28056W        W96274   3.414  26.552  12.394
28057W        W96275  10.928   6.095   1.486
28058W        W96276  35.743  23.042  14.276
28059W        W96277   4.518  37.084  12.941
28060W        W96278  25.642   2.744  12.502
28061W        W96279  22.453  19.869   5.091
28062W        W96280  29.470   2.779  14.132
28063W        W96281  20.349  15.210  14.729
28064W        W96282  10.111  25.463  10.463
28065W        W96283  18.197   3.241  12.426
28066W        W96284  25.790   9.818   1.308
28067W        W96285  16.374  42.835  14.243
28068W        W96286  23.581  37.118   2.270
28069W        W96287  11.251  36.416  14.278
28070W        W96288  30.504   3.738  14.331
28071W        W96289  31.931  21.662   1.473
28072W        W96290  18.154  36.195  14.402
28073W        W96291  24.620  39.553  12.619
28074W        W96292   7.708   0.876   4.205
28075W        W96293  27.492  32.397  13.629
28076W        W96294  14.125  32.824  10.173
28077W        W96295  18.893  11.174  13.281
28078W        W96296  26.048   4.471   2.727
28079W        W96297  13.812   8.610  11.172
28080W        W96298  23.362  26.619  14.789
28081W        W96299  27.392   5.080   3.768
28082W        W96300  41.829  17.700   3.402
28083W        W96301  40.743  24.976  10.914
28084W        W96302  25.258   2.350  13.877
28085W        W96303  18.318  23.125  11.918
28086W        W96304  32.358  23.445   0.710
28087W        W96305  25.730   0.450  13.008
28088W        W96306  25.131   3.085  11.130
28089W        W96307  41.858  43.889  11.571
28090W        W96308  14.397   8.320  12.001
28091W        W96309  19.316  31.485  12.782
28092W        W96310   8.129  16.260  14.411
28093W        W96311  20.131  33.492  11.813
28094W        W96312  19.812   9.928  11.950
28095W        W96313  44.318   4.305  14.964
28096W        W96314  42.286   8.459  13.504
28097W        W96315   3.216   4.841   3.088
28098W        W96316  36.997  15.338   0.858
28099W        W96317  22.100  29.898   4.896
28100W        W96318  11.825  26.723   3.410
28101W        W96319  35.920  23.556  14.308
28102W        W96320  17.491  22.695   3.622
28103W        W96321  40.792  13.049  10.591
28104W        W96322  43.346  13.726  11.194
28105W        W96323  32.897  35.161   1.929
28106W        W96324  35.586  29.572   2.853
28107W        W96325  12.174  25.791  12.520
28108W        W96326  19.597  25.943  12.195
28109W        W96327   8.615  19.267  14.455
28110W        W96328  28.673   2.182  13.773
28111W        W96329  36.361   1.262   2.311
28112W        W96330  34.499  14.679  10.692
28113W        W96331  18.368   5.809   1.691
28114W        W96332  41.012  19.414  10.777
28115W        W96333   6.029   6.671  12.570
28116W        W96334   7.078  41.418  13.063
28117W        W96335   2.680  27.000  14.422
28118W        W96336   4.926   1.407   1.855
28119W        W96337  31.988   2.888  14.936
28120W        W96338  20.732  40.018   2.898
28121W        W96339  34.108  27.144  14.872
28122W        W96340  35.178  20.922   4.224
28123W        W96341  22.754  16.621   3.713
28124W        W96342  16.675  35.830  11.178
28125W        W96343  37.590  41.062  13.966
28126W        W96344   0.433  34.160   2.085
28127W        W96345  14.220  18.721  11.776
28128W        W96346  42.257   1.549  11.531
28129W        W96347  22.501  24.637   0.024
28130W        W96348  40.542  13.118  11.979
28131W        W96349  13.687  21.569  13.159
28132W        W96350  28.128   5.412   2.192
28133W        W96351   6.399  43.121  11.070
28134W        W96352   2.147  38.888  13.433
28135W        W96353  43.895   2.485   0.723
28136W        W96354   6.594  44.798  14.861
28137W        W96355  28.639  42.727  13.830
28138W        W96356  32.818  28.500  12.580
28139W        W96357  27.862  20.682   0.769
28140W        W96358  14.907   7.715   0.919
28141W        W96359  44.786   1.046   2.812
28142W        W96360   3.206  28.685  12.210
28143W        W96361  40.118  33.973  12.362
28144W        W96362  42.119  33.561   2.552
28145W        W96363   2.351  13.665   4.363
28146W        W96364  33.104  11.774   4.474
28147W        W96365  26.733  42.808   3.671
28148W        W96366  39.081  28.973   4.278
28149W        W96367  33.554  32.871   3.371
28150W        W96368  14.166  23.671   1.019
28151W        W96369  11.723   0.774   4.034
28152W        W96370   7.852   0.342  13.665
28153W        W96371  35.399  40.276   0.097
28154W        W96372  44.867  43.950   4.281
28155W        W96373  31.078  44.522  12.841
28156W        W96374  38.902   3.711  14.609
28157W        W96375  42.915  29.492   1.362
28158W        W96376  13.920  38.637  13.383
28159W        W96377  15.799   8.708  10.724
28160W        W96378   2.372  22.231  12.553
28161W        W96379   0.394  44.639   0.010
28162W        W96380  11.231  21.525  12.294
28163W        W96381  17.647  31.983   4.535
28164W        W96382  15.566  42.265  12.325
28165W        W96383  34.335  16.277   3.757
28166W        W96384   6.085   1.277  14.310
28167W        W96385  39.955   1.210   1.777
28168W        W96386   7.217  31.916   0.272
28169W        W96387  22.470   0.286   4.168
28170W        W96388  29.179  13.344  12.024
28171W        W96389  16.802  26.119   0.256
28172W        W96390   3.599  19.077   4.536
28173W        W96391  17.209  30.895   1.527
28174W        W96392   0.927  32.596   3.191
28175W        W96393  33.913  21.221  13.844
28176W        W96394  37.698   7.707  11.217
28177W        W96395  21.070   5.168  13.874
28178W        W96396  38.382  36.917  13.338
28179W        W96397  44.791  14.944  13.908
28180W        W96398  15.252  11.160   0.483
28181W        W96399   7.689  23.090   1.182
28182W        W96400  44.549  38.977   3.340
28183W        W96401  26.971   1.255   4.166
28184W        W96402  30.128  21.088  14.401
28185W        W96403  13.919  26.003  11.009
28186W        W96404  40.413  38.133   4.565
28187W        W96405  28.429  38.675  12.877
28188W        W96406  14.752  31.573  12.803
28189W        W96407  20.000  35.030   3.885
28190W        W96408  22.305  40.538  14.715
28191W        W96409   9.345  39.949   4.633
28192W        W96410  39.549  14.654  13.959
28193W        W96411  44.345  24.001   1.910
28194W        W96412  35.427  26.145   1.241
28195W        W96413  25.708  25.488   3.170
28196W        W96414  39.304   1.960  13.457
28197W        W96415  35.113  33.000  13.352
28198W        W96416  30.031  41.449   1.211
28199W        W96417   1.960   4.636  12.800
28200W        W96418  43.481  23.474   4.463
28201W        W96419   2.398   3.459  11.589
28202W        W96420  34.847   5.316  11.892
28203W        W96421  22.851  14.704  10.530
28204W        W96422  17.751  30.380  14.302
28205W        W96423  17.024  25.231  10.292
28206W        W96424  21.189  39.579  11.104
28207W        W96425  13.244  18.733  13.546
28208W        W96426  41.125  41.230   0.246
28209W        W96427  25.247  42.885  14.578
28210W        W96428  29.186  13.426   0.886
28211W        W96429  41.354   0.763   0.453
28212W        W96430  39.504  22.606  10.751
28213W        W96431  11.948  14.855   2.355
28214W        W96432  36.468  15.834  14.467
28215W        W96433  21.590  17.675   1.491
28216W        W96434  13.359  18.351  10.818
28217W        W96435  34.367  16.523   3.318
28218W        W96436  43.986  18.196   0.930
28219W        W96437  39.549  39.912  13.759
28220W        W96438   8.579  42.924  14.406
28221W        W96439  16.861  31.482  13.566
28222W        W96440  38.025  26.503  11.227
28223W        W96441   9.195  10.150  10.023
28224W        W96442  15.637   3.415   0.867
28225W        W96443  12.106  23.549  11.408
28226W        W96444  36.138  28.814   5.364
28227W        W96445  44.704  41.472  13.981
28228W        W96446  35.526  41.420   1.892
28229W        W96447  29.130  33.532   1.170
28230W        W96448   5.629  12.693  14.236
28231W        W96449  42.219  17.392   0.337
28232W        W96450  19.971  23.499   0.708
28233W        W96451  22.646   6.281  10.740
28234W        W96452   2.417  33.523   2.683
28235W        W96453  19.646   4.009   3.213
28236W        W96454   1.516  32.466  13.869
28237W        W96455  13.874  10.220  14.831
28238W        W96456  16.099   5.173   3.374
28239W        W96457  20.148  16.889   2.332
28240W        W96458  26.034   0.971   1.056
28241W        W96459  12.143  44.283   4.179
28242W        W96460  10.855  14.981  14.022
28243W        W96461  40.438   4.175  12.563
28244W        W96462  32.368  41.567  10.236
28245W        W96463  43.309  30.775  14.014
28246W        W96464   1.292   1.357  11.428
28247W        W96465  32.550   6.864   2.885
28248W        W96466   5.437  25.784  11.956
28249W        W96467  29.470  41.508   0.912
28250W        W96468  20.757  12.110  13.615
28251W        W96469  35.734  38.538   4.765
28252W        W96470   8.527  34.236  12.191
28253W        W96471  22.033  33.912   3.378
28254W        W96472  16.425   4.656   0.784
28255W        W96473  23.625  18.322  13.989
28256W        W96474  41.037   3.156  10.301
28257W        W96475  43.046  10.178   5.416
28258W        W96476  19.438  29.446   2.231
28259W        W96477   0.760  26.541   2.451
28260W        W96478  35.841   8.375   1.423
28261W        W96479  43.292  39.821  13.717
28262W        W96480  39.118  28.747   3.813
28263W        W96481  41.507   7.964   0.705
28264W        W96482   5.097   4.292  14.456
28265W        W96483  31.910   4.435  14.889
28266W        W96484  44.275  19.091   0.360
28267W        W96485   5.401  44.302   2.281
28268W        W96486  32.815   7.277  14.950
28269W        W96487   2.501   1.817  14.747
28270W        W96488   3.992  33.428  14.495
28271W        W96489  36.110  35.305   2.293
28272W        W96490   2.014  41.910  14.305
28273W        W96491  12.344   8.416   3.567
28274W        W96492  17.408   3.710   3.295
28275W        W96493   3.872   8.047  14.903
28276W        W96494  40.641   5.428   3.004
28277W        W96495   6.169  25.454   3.289
28278W        W96496  31.580   7.628   0.569
28279W        W96497  22.298  35.608  12.322
28280W        W96498  29.550  24.733   2.744
28281W        W96499   8.271   3.916  11.537
28282W        W96500   8.276  39.080  13.316
28283W        W96501  18.534  34.246   2.562
28284W        W96502  44.107  42.213  13.317
28285W        W96503  37.929  33.991   2.543
28286W        W96504  32.834   4.342  14.770
28287W        W96505  26.096   4.731  13.379
28288W        W96506  23.761  41.264   1.414
28289W        W96507  40.060   7.232  13.349
28290W        W96508  25.522  22.137  10.235
28291W        W96509   8.730  35.350  11.115
28292W        W96510  32.070   1.779  13.992
28293W        W96511  10.371  26.000   0.849
28294W        W96512  32.172  38.283   4.165
28295W        W96513  34.797  41.372  11.898
28296W        W96514   4.921   5.302   0.817
28297W        W96515  18.080   8.179  14.724
28298W        W96516  31.080  36.599  13.143
28299W        W96517   7.659  43.563  13.711
28300W        W96518  40.033  18.260   1.888
28301W        W96519  12.411  14.418  11.246
28302W        W96520   7.637  20.572  11.640
28303W        W96521  11.264  16.843   4.757
28304W        W96522   2.410   3.362  10.250
28305W        W96523  44.563  34.680   0.485
28306W        W96524  37.030   5.142   4.128
28307W        W96525  29.850  39.399  10.528
28308W        W96526  11.337  21.236   0.342
28309W        W96527   9.753  19.298  11.647
28310W        W96528  28.700  24.768  13.438
28311W        W96529   6.820  27.419   1.084
28312W        W96530  34.522  10.660   3.192
28313W        W96531  18.333  21.977   4.545
28314W        W96532  44.823  30.505   4.153
28315W        W96533  41.064  19.777  11.600
28316W        W96534  14.698  32.083  12.635
28317W        W96535  25.352  30.898   4.941
28318W        W96536  35.358   0.945  10.167
28319W        W96537  42.367   1.360   1.392
28320W        W96538  16.641  17.683  14.335
28321W        W96539  33.128  29.367  11.547
28322W        W96540  12.609  41.623  11.454
28323W        W96541   1.298  36.883   2.412
28324W        W96542  12.478  37.425   0.896
28325W        W96543  43.933  38.531  12.021
28326W        W96544  40.136   0.188   2.864
28327W        W96545  36.298  19.133  13.537
28328W        W96546  30.991  23.328   1.371
28329W        W96547  39.405  27.543   3.882
28330W        W96548  37.532  40.516   3.646
28331W        W96549   0.949  27.841   1.293
28332W        W96550  18.776  32.928  10.814
28333W        W96551  16.129  30.159   2.490
28334W        W96552  11.130   6.192   4.294
28335W        W96553  25.683  42.366   4.259
28336W        W96554  26.069   0.764   2.069
28337W        W96555  16.361  10.614   3.725
28338W        W96556  21.941  28.115  12.195
28339W        W96557  14.188   5.695   1.319
28340W        W96558  31.343  15.742   0.460
28341W        W96559   9.374  34.531  12.729
28342W        W96560  12.166  22.678   3.919
28343W        W96561  42.847  12.699  12.220
28344W        W96562  41.298  32.819  10.693
28345W        W96563  37.624  36.073  14.781
28346W        W96564   7.290  23.084   0.829
28347W        W96565  21.198   4.390   0.780
28348W        W96566   2.827  21.023   4.292
28349W        W96567  24.206  43.808   2.772
28350W        W96568  18.224   6.973  13.597
28351W        W96569  36.497  19.272   2.909
28352W        W96570   3.877  41.958   2.766
28353W        W96571  36.356  33.151  11.065
28354W        W96572  27.145  44.534   3.352
28355W        W96573  38.097  21.306  14.422
28356W        W96574  22.771  31.842   3.248
28357W        W96575   6.662   4.807  11.116
28358W        W96576  36.652   0.080   4.839
28359W        W96577  43.013  43.588   5.028
28360W        W96578  28.950  40.921  14.960
28361W        W96579  44.292  15.292  11.165
28362W        W96580  37.393  40.742  11.731
28363W        W96581  39.419  35.717   0.885
28364W        W96582  35.575  15.853  13.950
28365W        W96583   1.224  10.882  12.502
28366W        W96584  38.052   9.238   2.025
28367W        W96585  40.038  40.767  12.457
28368W        W96586  33.208  19.860   1.158
28369W        W96587  42.603  43.501  12.580
28370W        W96588  10.422   8.105   3.246
28371W        W96589  12.591  18.483   0.436
28372W        W96590   9.787  27.975   1.712
28373W        W96591  11.197   5.319   1.766
28374W        W96592  24.094  12.900   2.143
28375W        W96593  31.586  37.977  13.049
28376W        W96594   1.369   7.799   1.971
28377W        W96595   4.473  31.230   3.397
28378W        W96596  22.705  20.553   2.647
28379W        W96597   9.208  19.069   5.197
28380W        W96598   2.835  10.070   3.687
28381W        W96599  32.655   1.166   2.698
28382W        W96600  23.969  22.455  12.467
28383W        W96601  30.074  39.494   0.835
28384W        W96602  44.337  41.007  13.862
28385W        W96603  13.125  19.809  14.406
28386W        W96604  25.053  27.961  11.339
28387W        W96605  10.782  31.354  13.077
28388W        W96606  14.194  32.442   0.234
28389W        W96607  22.318  38.534   1.990
28390W        W96608  44.777  43.272   2.474
28391W        W96609  31.096  31.242   0.858
28392W        W96610  18.232  37.615   0.709
28393W        W96611  39.917  27.106   2.098
28394W        W96612  10.170   8.362  12.105
28395W        W96613  14.705   0.049  11.655
28396W        W96614   4.249  28.048   1.902
28397W        W96615  29.951  21.737   3.326
28398W        W96616  18.864  38.394  13.894
28399W        W96617  11.076   5.317  11.780
28400W        W96618  33.173  31.944  12.489
28401W        W96619  31.579  28.556  10.644
28402W        W96620  28.254  39.319  13.869
28403W        W96621  34.707  12.570  10.645
28404W        W96622   1.779  40.231   0.370
28405W        W96623  13.534  38.960  13.327
28406W        W96624  33.077   1.393   2.282
28407W        W96625   2.687  13.077  11.157
28408W        W96626  37.327  23.090   1.245
28409W        W96627  43.597  30.605   1.998
28410W        W96628   7.081  42.333  14.698
28411W        W96629  17.921   6.486  10.661
28412W        W96630  10.511  34.618  13.415
28413W        W96631   4.323  37.418   3.867
28414W        W96632  28.115   5.780   3.791
28415W        W96633  33.606  19.111  14.016
28416W        W96634  39.457  35.857   2.747
28417W        W96635   8.853   1.495   3.655
28418W        W96636  41.075   4.973   2.201
28419W        W96637  35.752  29.270   4.131
28420W        W96638  30.728  41.746   4.630
28421W        W96639   7.662  13.377   2.799
28422W        W96640  16.366  10.245   1.780
28423W        W96641  43.943  40.512  10.304
28424W        W96642  33.042   2.856  13.908
28425W        W96643  10.134  25.722  13.319
28426W        W96644   5.023  19.149  14.330
28427W        W96645  11.484  14.687  12.374
28428W        W96646  12.513  30.245   2.453
28429W        W96647  10.774  20.736  14.850
28430W        W96648  29.655  12.151  13.076
28431W        W96649  27.738  22.348  14.884
28432W        W96650   7.814  44.811  10.926
28433W        W96651  39.281  18.717   4.686
28434W        W96652   3.842   8.330   1.416
28435W        W96653  21.173  22.703   1.457
28436W        W96654  25.084   4.887  10.615
28437W        W96655   1.778   8.815   0.408
28438W        W96656  33.671  42.643   3.941
28439W        W96657  10.909   9.614  13.007
28440W        W96658  37.856   7.673  10.730
28441W        W96659  12.357  20.556   4.556
28442W        W96660  41.687  18.784  10.009
28443W        W96661  24.616  35.484  13.107
28444W        W96662  26.726   9.987  12.001
28445W        W96663  27.044   0.700  10.689
28446W        W96664  29.330  31.496   4.079
28447W        W96665   0.441  32.866   3.214
28448W        W96666   1.710  39.807   2.304
28449W        W96667  10.305  14.585  10.709
28450W        W96668  44.209   0.926   2.343
28451W        W96669  16.563  20.269  10.983
28452W        W96670  31.450   8.175   3.567
28453W        W96671  32.511  19.351  11.981
28454W        W96672  34.793   5.710   4.792
28455W        W96673   7.155  30.475  14.930
28456W        W96674  39.233  25.440   4.639
28457W        W96675  18.219  39.898  14.959
28458W        W96676  15.471  10.137   2.637
28459W        W96677  20.908  31.361   3.269
28460W        W96678  20.226  24.272  14.423
28461W        W96679  33.562  40.266  11.060
28462W        W96680  10.767  17.805  11.576
28463W        W96681  10.706  36.224  11.606
28464W        W96682  30.106   7.950  14.766
28465W        W96683  29.493   9.857  13.925
28466W        W96684  30.359   8.389  11.219
28467W        W96685  27.009  14.104  11.612
28468W        W96686  14.174  18.186  11.586
28469W        W96687  36.899  33.102  13.910
28470W        W96688  34.763  41.980  12.903
28471W        W96689  38.456  14.687   0.054
28472W        W96690   2.033  17.557  11.195
28473W        W96691  42.401  36.142  14.546
28474W        W96692  20.742   0.974   2.599
28475W        W96693   8.406   3.434   3.291
28476W        W96694  25.644  14.227  11.115
28477W        W96695  18.583  23.681   3.636
28478W        W96696  35.156  30.688   4.570
28479W        W96697  43.314  14.413   0.399
28480W        W96698   3.636  15.054  14.062
28481W        W96699   4.347  25.985   2.245
28482W        W96700   2.871  12.456   4.473
28483W        W96701  23.884   1.977   0.956
28484W        W96702  30.065   2.865   5.012
28485W        W96703   3.727  37.925  10.649
28486W        W96704  11.396   0.817  10.264
28487W        W96705   4.081  17.146  14.526
28488W        W96706  20.438  11.727   2.268
28489W        W96707   6.143  44.926   2.216
28490W        W96708  16.034  18.387   2.218
28491W        W96709  20.074   6.798   3.732
28492W        W96710  17.466  11.884   4.377
28493W        W96711  25.908  26.173   4.336
28494W        W96712  18.452  35.851   4.531
28495W        W96713  34.369   4.855  10.219
28496W        W96714  32.390  26.366  13.869
28497W        W96715  16.282  38.191   3.374
28498W        W96716  42.354  20.306  13.360
28499W        W96717  22.560   6.519   0.924
28500W        W96718  17.542  37.024   1.767
28501W        W96719  13.767  29.062  10.777
28502W        W96720  16.516  17.705  13.589
28503W        W96721  19.973  28.271  14.292
28504W        W96722  16.150  33.727   1.232
28505W        W96723  33.582  38.913  12.924
28506W        W96724  37.983   1.571   4.987
28507W        W96725   7.437  20.521  12.111
28508W        W96726  40.380  18.574  13.989
28509W        W96727  40.795  30.015   1.011
28510W        W96728   3.404  13.014  12.915
28511W        W96729   1.524  30.055  11.634
28512W        W96730  20.371  41.791   2.394
28513W        W96731  31.459  10.252  13.887
28514W        W96732  28.975   8.324  14.486
28515W        W96733  21.112  40.584  11.074
28516W        W96734   5.475  41.263  11.931
28517W        W96735  12.158   6.287  10.733
28518W        W96736  39.823  44.385  11.174
28519W        W96737  33.680   9.758   4.537
28520W        W96738   6.720  26.455   4.562
28521W        W96739  25.217   8.463  14.453
28522W        W96740  43.057  11.727   3.709
28523W        W96741  40.689   1.544  11.685
28524W        W96742  36.125  35.039   3.167
28525W        W96743  38.475  16.745  11.783
28526W        W96744  36.065  33.505  14.549
28527W        W96745   2.410  25.861  12.484
28528W        W96746  10.346  20.229   0.851
28529W        W96747  41.586  30.436  11.188
28530W        W96748  30.005  41.597  12.927
28531W        W96749   0.215  38.041  13.488
28532W        W96750  36.796  40.744   4.111
28533W        W96751  32.102  27.186  12.917
28534W        W96752  38.227  34.505   3.754
28535W        W96753  21.763  37.962   2.510
28536W        W96754  38.952   9.964  14.861
28537W        W96755  13.393   9.404   0.281
28538W        W96756  10.940  43.942  13.828
28539W        W96757  35.834  15.611   3.291
28540W        W96758  23.954  39.390   1.254
28541W        W96759  35.084  37.567  13.450
28542W        W96760  36.666  22.205   2.197
28543W        W96761  16.774  17.327  10.512
28544W        W96762  19.820  12.418   3.641
28545W        W96763  31.995  10.222   1.885
28546W        W96764   1.467   7.100   2.865
28547W        W96765  14.668  30.936   2.585
28548W        W96766   6.942  32.835  13.420
28549W        W96767   1.719   0.279   0.257
28550W        W96768  41.610  21.961  13.965
28551W        W96769  13.723   4.156   3.133
28552W        W96770  23.794  26.687   1.739
28553W        W96771  36.913  21.026   9.669
28554W        W96772  16.437  20.467  12.173
28555W        W96773  17.121  17.290   4.215
28556W        W96774  12.188  19.532   0.796
28557W        W96775  17.964  15.253  14.480
28558W        W96776   0.372  28.938  12.836
28559W        W96777  10.821  12.355   0.953
28560W        W96778  32.262  15.213   2.876
28561W        W96779  22.832  44.632   4.142
28562W        W96780  43.002  43.022   3.653
28563W        W96781  42.889  37.118  13.881
28564W        W96782   3.244   1.794  11.579
28565W        W96783  33.370  20.602  11.714
28566W        W96784  31.519  17.798   0.760
28567W        W96785  31.507  13.148   4.243
28568W        W96786  37.071  40.821  14.330
28569W        W96787  40.799   9.497   3.099
28570W        W96788  36.849  31.778  10.753
28571W        W96789  44.453   5.174  11.292
28572W        W96790   9.032  13.186  10.836
28573W        W96791  33.653  43.331   2.829
28574W        W96792  43.743  10.863  10.779
28575W        W96793  29.634  17.077   4.803
28576W        W96794  21.585  31.643   9.860
28577W        W96795   2.787   8.981  14.370
28578W        W96796  25.419   8.643  14.002
28579W        W96797  26.703  16.507   1.717
28580W        W96798  19.109  27.035   4.817
28581W        W96799  40.185   3.942  14.831
28582W        W96800  40.470  27.552   4.764
28583W        W96801  42.402  16.073  11.278
28584W        W96802  11.338   6.714  13.715
28585W        W96803   2.814  11.809   0.927
28586W        W96804  13.591  23.013   3.817
28587W        W96805  11.835  13.615   3.666
28588W        W96806  13.179  19.016  13.078
28589W        W96807   2.497  16.560  13.268
28590W        W96808  32.532  11.245   4.344
28591W        W96809  18.794  39.794  12.601
28592W        W96810  15.357  31.376   0.938
28593W        W96811  43.661   0.480  14.385
28594W        W96812  27.573  23.595   3.156
28595W        W96813  31.007  43.141   4.253
28596W        W96814  35.387  21.539  11.791
28597W        W96815  43.951  36.690  13.050
28598W        W96816   6.437  26.626  12.603
28599W        W96817  42.408  19.828  14.790
28600W        W96818  36.216   4.729   3.821
28601W        W96819  39.047  41.627  14.352
28602W        W96820   2.216  27.024  12.077
28603W        W96821  24.630  28.115  14.309
28604W        W96822  19.638   8.735  13.062
28605W        W96823  31.171   3.300   1.394
28606W        W96824  31.428  41.651  12.850
28607W        W96825  30.942  27.464  13.342
28608W        W96826   2.638  16.761   4.724
28609W        W96827  12.291  34.231  13.911
28610W        W96828  27.969  44.866   1.434
28611W        W96829   5.872   7.815  12.909
28612W        W96830  34.582  16.840  13.054
28613W        W96831   1.346  12.603  11.029
28614W        W96832  26.991  18.648  12.021
28615W        W96833  12.129  37.166  10.390
28616W        W96834  31.529  10.218  12.429
28617W        W96835  38.434  14.870   3.719
28618W        W96836  18.409  33.570   1.292
28619W        W96837   1.104   7.723   1.496
28620W        W96838  32.541  14.577   0.539
28621W        W96839  44.061  30.507   4.608
28622W        W96840  15.244  11.633  12.034
28623W        W96841  16.706  41.225   4.245
28624W        W96842  14.771  19.309  14.292
28625W        W96843  30.114  35.865   2.535
28626W        W96844   1.953  23.110   4.232
28627W        W96845  32.618   1.829  13.776
28628W        W96846  21.110  10.256   2.276
28629W        W96847  35.256  37.349  12.064
28630W        W96848  31.300  21.460  11.986
28631W        W96849  15.547  20.584  13.535
28632W        W96850  17.622  27.064  10.581
28633W        W96851  31.373   6.303   1.230
28634W        W96852  23.096  41.001   2.485
28635W        W96853   2.012   6.450  11.190
28636W        W96854  29.156   9.307   1.013
28637W        W96855   3.949  34.423   4.080
28638W        W96856  10.136  38.612  10.010
28639W        W96857  11.717  20.686   1.243
28640W        W96858   1.551  13.448   3.270
28641W        W96859  35.996  23.087   2.735
28642W        W96860  28.950  27.050   4.715
28643W        W96861  27.386  19.935   1.402
28644W        W96862   2.003  26.673  10.694
28645W        W96863   2.515   8.298   4.929
28646W        W96864  36.015  40.018   0.888
28647W        W96865  11.821  35.458   0.817
28648W        W96866   3.309   8.739   0.833
28649W        W96867   1.451  33.475  13.786
28650W        W96868   5.634  36.172  13.761
28651W        W96869   1.742  16.963  12.932
28652W        W96870  11.684  10.300   2.326
28653W        W96871  16.701  21.024  11.640
28654W        W96872  25.376  25.388  11.533
28655W        W96873   1.862   8.842   1.762
28656W        W96874  10.869  25.676   4.383
28657W        W96875  27.507   9.713  11.560
28658W        W96876  29.584  13.516   2.766
28659W        W96877  42.980  17.731  13.981
28660W        W96878   8.076  22.104   4.644
28661W        W96879  21.342  27.595   4.798
28662W        W96880  32.637  12.664  13.582
28663W        W96881   8.285   3.722   2.722
28664W        W96882  20.646  43.481  11.398
28665W        W96883  22.155  24.686   3.321
28666W        W96884   7.779  34.137  10.716
28667W        W96885   6.848  24.056   2.260
28668W        W96886  11.394  18.704  13.367
28669W        W96887  16.323  22.242   0.363
28670W        W96888  33.018  10.439  14.905
28671W        W96889   0.343   2.948  14.848
28672W        W96890  44.302  36.595  11.088
28673W        W96891  25.317  32.203  10.287
28674W        W96892  20.810  26.531   2.168
28675W        W96893  17.217  42.196   1.318
28676W        W96894  25.508  23.087  13.596
28677W        W96895   8.904   7.164   2.304
28678W        W96896  28.090  20.213  11.920
28679W        W96897  26.291   8.807  12.548
28680W        W96898  38.854  37.457  11.037
28681W        W96899  15.626   1.430   4.550
28682W        W96900  41.889  25.524  13.804
28683W        W96901  21.331  20.218   5.193
28684W        W96902  40.433  12.568   9.876
28685W        W96903  30.595  23.550   0.821
28686W        W96904  32.456  22.143  11.716
28687W        W96905  36.937  40.080  13.066
28688W        W96906  22.773  43.716  12.134
28689W        W96907   5.269  19.453   4.221
28690W        W96908  32.032   5.685   2.452
28691W        W96909  25.444   7.271  11.537
28692W        W96910  18.658  40.225  10.911
28693W        W96911  14.217  37.408  14.446
28694W        W96912  12.254  11.100  12.376
28695W        W96913  15.031  31.686  13.852
28696W        W96914   5.944  44.320   1.711
28697W        W96915  34.672  15.317   2.888
28698W        W96916  41.396  14.321   1.691
28699W        W96917  19.620   4.374  12.418
28700W        W96918  11.397  10.703  13.103
28701W        W96919  34.913  31.678  12.016
28702W        W96920  32.762  32.128   1.951
28703W        W96921  25.563  32.643  10.485
28704W        W96922  26.300  39.919  13.406
28705W        W96923  42.816  36.027  12.413
28706W        W96924  32.423  42.586   4.672
28707W        W96925   7.836  39.382   1.702
28708W        W96926  29.241  26.636  11.894
28709W        W96927   8.182  35.763  11.203
28710W        W96928   9.841  21.524   2.669
28711W        W96929  42.723  38.461  13.972
28712W        W96930  42.180  39.155   1.685
28713W        W96931   2.303  39.039   0.867
28714W        W96932  14.665  18.045  11.864
28715W        W96933  20.404  16.544  14.958
28716W        W96934  30.022  11.932   3.219
28717W        W96935  23.426  34.635   0.858
28718W        W96936   5.870  36.463  14.331
28719W        W96937  14.156  10.615   0.503
28720W        W96938   5.022  20.283   4.452
28721W        W96939  23.244  29.707   0.386
28722W        W96940   3.978  16.220  14.384
28723W        W96941   9.903  42.070   3.652
28724W        W96942  25.517  37.412   4.571
28725W        W96943  24.866  10.332  13.511
28726W        W96944   4.534  31.517   2.689
28727W        W96945  20.962  37.736   2.778
28728W        W96946  29.660  20.610   0.303
28729W        W96947  36.006  37.189   1.991
28730W        W96948  41.802  26.048   2.657
28731W        W96949  38.562  34.106  13.887
28732W        W96950  17.574  33.495  10.857
28733W        W96951  33.683  17.105   1.306
28734W        W96952  29.849  31.893   1.355
28735W        W96953   1.178   8.218   1.666
28736W        W96954  41.669  31.858  11.004
28737W        W96955  30.959   4.189  13.327
28738W        W96956  19.238   4.487  11.663
28739W        W96957  10.211  34.203  13.594
28740W        W96958  23.715  28.072   2.536
28741W        W96959  38.534  24.784   0.950
28742W        W96960  16.760  14.898   2.279
28743W        W96961   9.910  39.295   3.176
28744W        W96962  38.335  14.180   1.737
28745W        W96963  44.958  28.256  13.966
28746W        W96964  32.070  28.797  11.545
28747W        W96965  34.552  26.218   1.499
28748W        W96966  30.662  26.722  12.981
28749W        W96967  11.744  40.813   0.698
28750W        W96968  25.633   8.909   1.781
28751W        W96969  20.769  32.999  14.985
28752W        W96970  26.167  27.038   3.752
28753W        W96971   7.120  10.638  12.875
28754W        W96972   6.496  17.755   4.101
28755W        W96973  14.531  31.106   2.110
28756W        W96974  15.041  19.676  12.829
28757W        W96975  24.074  32.028   2.928
28758W        W96976   5.733  34.458  12.547
28759W        W96977  44.643  35.264   0.788
28760W        W96978  28.028   0.926  14.022
28761W        W96979  15.110  32.465   0.842
28762W        W96980  40.539  27.410  13.123
28763W        W96981   1.920  22.995  11.883
28764W        W96982  15.741  32.186   1.622
28765W        W96983  24.127  30.997   2.715
28766W        W96984  42.690  10.207   2.316
28767W        W96985  38.508  15.198  10.747
28768W        W96986   3.115  21.987  13.927
28769W        W96987  12.671  39.727   4.904
28770W        W96988  25.240   9.683   4.579
28771W        W96989  19.843  42.773   3.802
28772W        W96990  22.216  36.169   4.527
28773W        W96991  15.983  35.081  12.098
28774W        W96992  15.608  28.384  12.850
28775W        W96993  11.566  32.308  11.122
28776W        W96994  20.841  42.485  14.546
28777W        W96995  34.544   4.201  14.028
28778W        W96996  29.431  24.340   5.041
28779W        W96997  40.886   3.518   3.793
28780W        W96998  39.530  12.158   2.196
28781W        W96999  22.702  15.786   2.780
28782W        W97000  37.227   5.875   2.983
28783W        W97001  42.188  28.042  11.543
28784W        W97002  26.915  22.502   3.181
28785W        W97003  18.721  16.641  10.543
28786W        W97004   1.238  24.869   3.369
28787W        W97005  13.059  44.887   1.851
28788W        W97006  18.774  33.437   4.794
28789W        W97007  34.540   9.049   4.041
28790W        W97008  19.883  39.840   3.003
28791W        W97009  19.199  20.581  13.449
28792W        W97010  13.539  15.870   4.083
28793W        W97011  16.205  26.739   4.449
28794W        W97012  17.466  20.135  12.034
28795W        W97013  11.279  15.707  14.840
28796W        W97014  40.690   7.102  14.550
28797W        W97015  44.528  20.429  13.936
28798W        W97016  40.548  12.288  12.470
28799W        W97017  28.258  25.615   4.518
28800W        W97018  30.999   8.742  13.570
28801W        W97019  16.236  18.101   2.689
28802W        W97020  10.043  33.928   2.738
28803W        W97021   1.324   9.379   1.200
28804W        W97022  36.303   7.959   3.617
28805W        W97023  13.659  23.127  11.048
28806W        W97024  12.333   7.265   4.704
28807W        W97025  26.717   6.227  13.599
28808W        W97026  10.417  30.567   3.241
28809W        W97027  43.249  32.921  11.203
28810W        W97028  44.008  18.563  12.470
28811W        W97029  31.403  10.217  10.502
28812W        W97030  16.980   1.758  11.925
28813W        W97031  16.168  21.499   3.283
28814W        W97032  43.840   4.917  10.703
28815W        W97033  40.526  36.592  12.083
28816W        W97034   6.626  43.502   4.599
28817W        W97035  40.515  30.603  12.820
28818W        W97036  13.817  44.287   3.682
28819W        W97037  27.579  37.637  10.691
28820W        W97038   3.982   6.069   2.816
28821W        W97039  12.989  13.715   1.663
28822W        W97040  40.091  12.114  13.088
28823W        W97041  31.679  31.917   4.525
28824W        W97042  17.779  21.220  14.080
28825W        W97043  13.431  27.696  12.460
28826W        W97044   6.335  20.282  13.141
28827W        W97045  44.405   1.450  12.189
28828W        W97046   3.533  28.405  12.496
28829W        W97047   9.801  28.666   2.337
28830W        W97048  17.143  32.315   2.986
28831W        W97049  21.581  36.151   3.667
28832W        W97050  23.077  32.134   4.057
28833W        W97051   6.768   2.933  10.697
28834W        W97052  31.189  38.533   1.016
28835W        W97053  28.713  21.360  12.484
28836W        W97054  41.682   4.806  12.899
28837W        W97055  14.077  16.786   0.949
28838W        W97056  41.613  36.074   0.707
28839W        W97057  44.370   6.044  11.642
28840W        W97058  22.699  35.372  12.138
28841W        W97059   9.677   8.105   1.822
28842W        W97060  38.924  40.898   2.272
28843W        W97061  44.623  42.110  10.536
28844W        W97062  17.262  42.569   2.751
28845W        W97063  28.962   8.401   0.801
28846W        W97064  24.519  16.548   4.612
28847W        W97065  17.027  43.939  12.972
28848W        W97066  44.907  33.889  13.798
28849W        W97067   1.657   6.231   4.090
28850W        W97068   6.287   1.115   2.873
28851W        W97069  26.129   7.066   3.736
28852W        W97070  39.595  44.259  13.889
28853W        W97071  13.647  33.521   2.059
28854W        W97072  14.798  33.905   0.952
28855W        W97073  27.426  14.218   4.926
28856W        W97074  31.212   7.754   0.903
28857W        W97075  19.547  21.320   0.529
28858W        W97076  40.426   3.462   0.420
28859W        W97077  30.008   6.637  12.752
28860W        W97078  15.841   5.900   4.068
28861W        W97079   9.499   6.909   4.462
28862W        W97080   9.624  43.898  14.299
28863W        W97081  10.319  27.985   2.799
28864W        W97082  14.660  41.900   1.174
28865W        W97083  23.251  28.607   0.931
28866W        W97084   4.204  31.932   4.605
28867W        W97085  27.519  30.113  12.163
28868W        W97086  22.663  12.778   1.003
28869W        W97087  36.435  31.371   0.777
28870W        W97088  24.145  42.750   1.827
28871W        W97089   1.640  31.138   4.792
28872W        W97090  41.126  37.308   5.134
28873W        W97091  13.215  43.091  13.822
28874W        W97092   6.345  31.764   0.924
28875W        W97093  17.731  10.262  14.258
28876W        W97094  34.812   8.363   1.765
28877W        W97095  13.414  20.518   3.335
28878W        W97096  26.484  34.334  13.018
28879W        W97097  36.531   5.175  14.708
28880W        W97098  27.880  33.827   4.392
28881W        W97099  25.623  35.526  11.609
28882W        W97100   6.073  11.733  13.977
28883W        W97101  23.762  29.088   0.281
28884W        W97102  21.019   0.311  14.954
28885W        W97103   2.271  41.827   1.946
28886W        W97104   9.359  26.918  10.502
28887W        W97105  39.952  29.492   1.127
28888W        W97106  17.725  11.106  13.986
28889W        W97107  37.240  28.921   0.005
28890W        W97108  42.568  25.171   3.810
28891W        W97109  34.098  42.979   3.428
28892W        W97110  33.668  40.082  11.544
28893W        W97111  33.014   1.392   4.929
28894W        W97112   4.809  19.399   9.926
28895W        W97113  21.784  14.237   2.627
28896W        W97114   1.149  15.328  12.616
28897W        W97115  23.672  11.809   3.962
28898W        W97116  40.065  20.039  11.897
28899W        W97117  31.792  28.688  10.129
28900W        W97118  13.354   1.527   4.620
28901W        W97119  27.064  32.301  14.365
28902W        W97120  21.297  33.642   1.031
28903W        W97121  19.246  40.057  13.419
28904W        W97122  25.669  23.511  14.545
28905W        W97123  41.580  44.336   1.939
28906W        W97124  43.684  11.905   1.694
28907W        W97125  33.078  29.658  13.796
28908W        W97126  10.552  11.398  10.220
28909W        W97127   5.283  21.158   3.960
28910W        W97128  30.153   1.377   2.850
28911W        W97129   1.006  19.318   0.578
28912W        W97130  27.533   5.284   1.362
28913W        W97131   1.163  12.706   1.568
28914W        W97132  23.032  39.135  12.419
28915W        W97133  37.550  26.726  14.070
28916W        W97134   3.676  10.129  13.556
28917W        W97135   3.986  13.659  12.406
28918W        W97136  19.464  39.290   1.849
28919W        W97137  26.213   4.176  14.732
28920W        W97138   4.370  30.476   1.955
28921W        W97139  21.684   2.974  11.750
28922W        W97140   7.181  19.671   0.467
28923W        W97141  32.977   7.784   0.213
28924W        W97142  43.296   8.223  13.816
28925W        W97143  16.580  36.357   4.620
28926W        W97144  33.790   8.402  14.780
28927W        W97145  30.960  27.719  10.702
28928W        W97146  10.375  28.642  12.468
28929W        W97147  14.524  26.742   5.046
28930W        W97148  29.604  15.766  13.222
28931W        W97149  40.105  15.821  12.310
28932W        W97150  35.973  17.038   0.078
28933W        W97151  13.955  32.349  11.524
28934W        W97152  42.438  24.573  13.914
28935W        W97153  35.830  20.937   0.311
28936W        W97154  41.049  44.021   4.588
28937W        W97155  22.969   8.662   3.001
28938W        W97156  43.845  43.572   0.274
28939W        W97157  28.157  21.534   3.604
28940W        W97158  44.334  16.997   4.916
28941W        W97159  25.464  12.638   0.981
28942W        W97160   5.867  36.927  11.078
28943W        W97161  38.859  21.159  11.965
28944W        W97162  21.439  39.499  14.068
28945W        W97163   0.215  42.211  11.512
28946W        W97164  12.713  37.110  13.567
28947W        W97165  19.571  28.448   4.930
28948W        W97166   0.781  17.149  13.869
28949W        W97167  35.386  41.059  11.028
28950W        W97168  36.334  33.036   0.308
28951W        W97169  36.165  22.057   2.292
28952W        W97170  35.044   9.462  13.945
28953W        W97171  33.414  34.024   1.931
28954W        W97172  35.463   1.635  10.708
28955W        W97173   0.796  12.797   2.386
28956W        W97174   0.244   7.600  11.559
28957W        W97175  28.694  18.156  13.067
28958W        W97176  42.565  11.225  12.996
28959W        W97177   2.166  42.014   3.236
28960W        W97178  18.196  34.230  12.595
28961W        W97179  17.878  20.222   4.584
28962W        W97180  39.616  42.836   1.547
28963W        W97181  28.469  21.689  10.669
28964W        W97182  30.560  42.927   1.877
28965W        W97183   4.732   3.771  11.039
28966W        W97184  37.631  26.037  11.979
28967W        W97185   4.637  30.226  14.285
28968W        W97186  30.188   4.484  11.137
28969W        W97187   1.841   6.302  13.103
28970W        W97188   7.080   7.042   1.358
28971W        W97189  31.703  43.432   1.508
28972W        W97190  43.750  14.721   3.726
28973W        W97191  14.199   0.208  13.916
28974W        W97192  36.481   7.267   5.218
28975W        W97193  10.771  11.510  14.763
28976W        W97194   9.751  34.094  11.921
28977W        W97195  25.794  18.547   1.135
28978W        W97196  36.883   3.756  13.404
28979W        W97197  40.524  28.906   4.133
28980W        W97198  43.808  25.959  14.320
28981W        W97199  27.143  44.757  10.535
28982W        W97200  44.794  27.681   4.358
28983W        W97201  44.277  21.684  10.667
28984W        W97202  41.488   9.398  13.936
28985W        W97203   6.024  20.107  14.912
28986W        W97204  38.964  40.440   0.292
28987W        W97205   9.604  34.406   2.828
28988W        W97206   5.235  26.320  13.061
28989W        W97207  28.307  35.457   1.183
28990W        W97208  32.242  20.360   2.308
28991W        W97209  22.533  12.087  13.885
28992W        W97210  29.103  12.872   3.757
28993W        W97211  19.542  38.598   2.475
28994W        W97212  15.849  41.363  11.069
28995W        W97213  11.396   6.287   4.741
28996W        W97214  11.246  20.828  11.638
28997W        W97215  31.111  29.162  10.399
28998W        W97216  23.627  13.655   2.332
28999W        W97217   8.829  29.089  12.005
29000W        W97218  13.083  24.110  13.542
29001W        W97219  18.369  25.542   2.813
29002W        W97220  37.117  39.069  11.060
29003W        W97221  31.042  30.454  13.838
29004W        W97222  22.197  38.839  14.403
29005W        W97223  43.566   4.815  10.274
29006W        W97224  14.734  15.494  13.164
29007W        W97225  34.337  25.478  10.672
29008W        W97226  20.651  25.167   0.272
29009W        W97227   3.620  33.319  14.884
29010W        W97228  43.074  41.469   1.335
29011W        W97229  29.722  14.474  13.351
29012W        W97230  10.562  37.269  13.266
29013W        W97231   6.854  24.662   4.257
29014W        W97232  35.354  30.070   2.904
29015W        W97233  31.594  14.862  13.764
29016W        W97234  31.042  43.114   1.998
29017W        W97235   6.266  19.585   0.990
29018W        W97236   0.721  40.869  12.524
29019W        W97237  42.444  26.759   0.875
29020W        W97238  35.901  28.396   3.584
29021W        W97239  15.670  20.087   2.813
29022W        W97240  15.681  20.248  11.045
29023W        W97241  37.366  13.640  13.010
29024W        W97242  14.164   6.608  12.155
29025W        W97243  34.897  29.969  11.980
29026W        W97244  28.756  30.565   2.034
29027W        W97245  10.670  21.480   3.062
29028W        W97246   3.127  39.863  13.254
29029W        W97247  23.571  23.088   0.449
29030W        W97248   4.390  20.403  13.902
29031W        W97249  24.438  40.485   4.415
29032W        W97250   9.206  43.823   3.255
29033W        W97251  14.747   1.239  12.997
29034W        W97252  20.164  29.044   0.377
29035W        W97253  29.155  26.190  12.162
29036W        W97254  40.351  22.239  13.660
29037W        W97255  40.721   3.461  14.394
29038W        W97256   6.581   1.599  11.454
29039W        W97257  15.235  16.917  12.848
29040W        W97258  19.154  40.403  12.235
29041W        W97259  36.885  10.589   1.486
29042W        W97260   8.125  12.230  11.194
29043W        W97261  34.963  22.856   2.161
29044W        W97262   9.826  15.748  11.206
29045W        W97263  15.351  20.959  12.165
29046W        W97264   3.810  34.636   3.622
29047W        W97265  22.966   9.452   1.846
29048W        W97266   3.803  10.774  14.289
29049W        W97267  32.999  28.941  13.521
29050W        W97268  26.470  23.702   0.506
29051W        W97269  35.371  23.677   3.721
29052W        W97270   3.418  32.863   4.262
29053W        W97271  35.088  17.711   2.117
29054W        W97272   7.697  12.661  13.758
29055W        W97273  44.537  21.302  13.410
29056W        W97274  18.274  42.924  10.969
29057W        W97275  17.559  15.867   2.917
29058W        W97276  39.148  27.508  12.523
29059W        W97277  31.159   1.777   4.497
29060W        W97278  34.859   3.762   3.254
29061W        W97279   8.784  23.493   1.647
29062W        W97280  31.137  10.617   3.292
29063W        W97281   1.956  26.002  14.753
29064W        W97282  37.959  24.151  14.431
29065W        W97283  13.608  29.792   3.793
29066W        W97284  41.618   1.923   1.445
29067W        W97285  16.610  40.910   0.942
29068W        W97286   9.103  30.052  13.504
29069W        W97287   3.004  12.838   3.247
29070W        W97288  14.869   2.396  11.600
29071W        W97289  28.581   1.803  13.435
29072W        W97290   6.993  44.261   1.695
29073W        W97291  17.132   0.736  11.234
29074W        W97292  39.353  29.073   0.929
29075W        W97293  38.922   8.740  10.084
29076W        W97294  16.040  24.066  13.423
29077W        W97295  24.875   8.402  13.017
29078W        W97296   7.648  19.572  13.643
29079W        W97297  42.893  23.066  14.980
29080W        W97298  19.602  42.736   2.249
29081W        W97299   8.228  34.634  12.068
29082W        W97300  21.541  19.208  14.822
29083W        W97301  10.641   4.697  13.869
29084W        W97302  10.671  43.915  14.338
29085W        W97303  17.128  37.364  13.412
29086W        W97304  23.995  25.802  10.146
29087W        W97305  40.800  13.871  14.851
29088W        W97306  42.134  27.934   1.469
29089W        W97307  42.383  44.520  13.276
29090W        W97308   9.152  16.539   0.858
29091W        W97309  36.753  35.118  14.652
29092W        W97310  39.478  25.047  11.416
29093W        W97311  40.871  11.158   0.014
29094W        W97312   4.685   7.265   1.188
29095W        W97313  41.992  43.703   0.886
29096W        W97314   5.159  21.784   1.017
29097W        W97315  40.277  41.048   0.684
29098W        W97316  13.791  16.653   1.369
29099W        W97317  26.558  28.474  13.849
29100W        W97318  38.111  39.558   0.088
29101W        W97319   9.111  13.882  12.990
29102W        W97320  37.024  40.056   0.845
29103W        W97321  38.436  16.969  10.606
29104W        W97322  38.945  43.921  14.309
29105W        W97323  42.983   1.317  14.752
29106W        W97324   2.202   6.399  14.835
29107W        W97325  39.428   9.760  14.757
29108W        W97326  40.101  35.510   1.167
29109W        W97327   7.723   0.571   1.856
29110W        W97328   3.176  19.101  14.843
29111W        W97329  10.862  11.546   1.910
29112W        W97330  16.164  34.547   4.335
29113W        W97331  38.806   7.963  12.010
29114W        W97332  11.745  28.478   0.656
29115W        W97333   7.723  35.784   1.102
29116W        W97334  24.686  39.734   1.385
29117W        W97335  34.694   4.644   0.042
29118W        W97336  32.145  20.769   1.041
29119W        W97337  33.627  11.749   4.977
29120W        W97338  41.252  14.171   4.658
29121W        W97339  25.403  43.807   0.198
29122W        W97340  14.180   8.758   4.494
29123W        W97341  17.628  17.296   4.020
29124W        W97342  17.208  37.848  13.539
29125W        W97343   1.671  26.615   0.516
29126W        W97344  20.971  28.961  11.745
29127W        W97345  25.270  41.040  12.493
29128W        W97346   8.787  15.245  11.667
29129W        W97347  23.481  24.185   3.698
29130W        W97348  37.763  23.611   0.113
29131W        W97349  10.170  43.339  13.835
29132W        W97350  42.374  30.954   4.980
29133W        W97351  14.815  13.361   2.834
29134W        W97352  16.801  32.923   1.795
29135W        W97353  14.257  30.300   1.701
29136W        W97354  17.122   6.743  10.448
29137W        W97355  32.799  38.815   3.397
29138W        W97356  30.782  27.984   5.430
29139W        W97357  14.674  13.620   4.136
29140W        W97358  43.682  12.285  12.096
29141W        W97359  42.600   7.334   1.388
29142W        W97360  26.836   1.438  14.343
29143W        W97361  10.401   6.435   3.603
29144W        W97362  11.949  42.851   3.284
29145W        W97363  16.049  37.957  13.032
29146W        W97364  16.062  36.424   4.537
29147W        W97365  44.357  21.584  12.611
29148W        W97366   0.449  39.390  13.274
29149W        W97367  20.796  44.953   1.381
29150W        W97368  17.221  41.191  13.342
29151W        W97369   0.985  34.479  11.948
29152W        W97370  30.430  15.106  12.106
29153W        W97371   6.118  43.267  10.660
29154W        W97372   4.006  39.876  11.880
29155W        W97373  32.509  22.683  12.411
29156W        W97374  32.752  42.409  13.488
29157W        W97375   9.072  25.124   1.036
29158W        W97376  38.897  28.658  10.681
29159W        W97377  21.861   6.938   1.046
29160W        W97378  39.435  32.180   4.019
29161W        W97379   2.842  38.463   4.682
29162W        W97380  14.871  44.186  11.977
29163W        W97381  30.833  38.088  11.265
29164W        W97382   4.377  32.865  11.097
29165W        W97383  42.624  37.972   3.799
29166W        W97384  41.598  41.373  11.087
29167W        W97385  20.632   8.148   1.987
29168W        W97386  12.063  30.527  11.986
29169W        W97387  42.851  37.928   2.435
29170W        W97388  14.417   6.957   2.204
29171W        W97389   6.401  41.382  10.834
29172W        W97390  23.533  16.097  13.009
29173W        W97391  27.510  26.102   0.308
29174W        W97392   3.694  34.906   1.782
29175W        W97393  20.067  41.810  11.493
29176W        W97394  38.541  31.050  11.495
29177W        W97395  18.720  20.025  11.524
29178W        W97396   9.296   4.909   9.895
29179W        W97397  33.400  32.059  12.986
29180W        W97398  38.645  35.184   4.175
29181W        W97399  37.568  29.852   2.708
29182W        W97400  35.126  14.806   2.252
29183W        W97401  16.212  42.477   0.893
29184W        W97402   5.095  26.520  10.630
29185W        W97403   5.624  15.173   0.800
29186W        W97404  32.343   7.126   0.165
29187W        W97405  44.125  26.140   2.823
29188W        W97406  25.152  22.019   3.792
29189W        W97407   9.227  25.695   3.578
29190W        W97408   4.194  41.480   5.417
29191W        W97409  43.881  27.222  13.933
29192W        W97410  35.004  17.385   5.160
29193W        W97411   0.937  24.570   0.815
29194W        W97412  20.203  26.684  14.985
29195W        W97413  23.024  13.508  14.887
29196W        W97414  32.889  23.265  14.869
29197W        W97415  25.689  20.687   1.877
29198W        W97416  40.928  31.172   1.880
29199W        W97417  17.125   2.715   1.291
29200W        W97418  20.217  10.413  13.087
29201W        W97419  19.563  18.629   2.637
29202W        W97420  19.704  39.440  10.883
29203W        W97421  28.723  22.447  11.773
29204W        W97422   6.456  16.567   0.128
29205W        W97423  22.916  19.760   0.984
29206W        W97424  26.317   6.338  11.572
29207W        W97425  24.162  16.091  10.977
29208W        W97426  41.569  33.135   0.214
29209W        W97427  27.628  32.310  12.601
29210W        W97428  27.027   9.705   1.809
29211W        W97429  39.925   0.735   0.420
29212W        W97430   1.891  30.692   4.532
29213W        W97431  26.637   6.784  12.875
29214W        W97432  34.004  13.545   0.915
29215W        W97433   2.855  32.424  12.375
29216W        W97434  29.675  34.533  11.565
29217W        W97435  41.230  41.525   1.855
29218W        W97436  10.909  37.038   3.766
29219W        W97437  28.860  43.659  14.027
29220W        W97438  15.589  15.040   3.635
29221W        W97439  13.366   6.857  13.607
29222W        W97440  14.521  44.234   1.227
29223W        W97441  11.838  21.131  14.406
29224W        W97442  24.982  38.025   0.255
29225W        W97443  34.767  35.967  11.753
29226W        W97444   8.321   9.825  11.536
29227W        W97445  11.035  14.438   2.330
29228W        W97446  16.878  17.572   1.680
29229W        W97447   4.558  17.252  10.652
29230W        W97448  18.518  17.250   3.049
29231W        W97449  18.071   0.411   1.361
29232W        W97450  29.670  27.633   4.637
29233W        W97451  28.119   8.349  12.410
29234W        W97452  34.824   2.707  13.473
29235W        W97453  15.814  43.151  11.598
29236W        W97454  12.202  35.090  12.823
29237W        W97455  30.185  35.925   0.394
29238W        W97456  18.272  20.717  13.029
29239W        W97457  21.498  30.699  10.771
29240W        W97458  44.591  28.022   4.760
29241W        W97459  24.643  26.738   3.818
29242W        W97460  41.735  29.482   2.936
29243W        W97461  17.858  38.041   3.132
29244W        W97462  12.664  23.657   5.134
29245W        W97463  44.524   7.191  12.060
29246W        W97464  21.182  14.111  12.114
29247W        W97465  10.368  24.979   2.865
29248W        W97466  34.684  16.269  14.316
29249W        W97467  13.379  42.628   0.352
29250W        W97468  27.880  20.202   3.204
29251W        W97469  24.871   3.377   5.117
29252W        W97470  44.938  28.178   1.357
29253W        W97471  44.466  34.912  14.531
29254W        W97472  40.768   1.279   2.272
29255W        W97473  13.202  33.744   1.944
29256W        W97474   3.023  14.411  14.566
29257W        W97475  14.882  44.814   2.353
29258W        W97476  32.653   3.220  10.903
29259W        W97477  18.511  24.762  11.189
29260W        W97478  28.419   6.977   1.175
29261W        W97479  21.607  19.706  11.633
29262W        W97480  19.022   4.347   0.194
29263W        W97481  25.091  22.894   2.861
29264W        W97482   2.672  29.203   1.888
29265W        W97483  16.829  34.032  13.940
29266W        W97484  12.646  15.087   4.624
29267W        W97485  35.298  14.709  12.621
29268W        W97486   5.704  18.142   0.490
29269W        W97487   3.328  22.273   2.470
29270W        W97488   9.625  23.038   2.387
29271W        W97489  37.333  13.571   3.838
29272W        W97490  19.719  34.095  13.384
29273W        W97491   8.220   6.317  13.605
29274W        W97492  25.886   5.870  10.932
29275W        W97493  37.800  37.786   2.217
29276W        W97494  32.023  10.915   1.381
29277W        W97495  10.787  15.809  14.451
29278W        W97496  31.468  23.291  11.511
29279W        W97497  18.268  29.213  11.660
29280W        W97498  28.947  24.937  14.347
29281W        W97499  44.332  21.514   1.812
29282W        W97500   9.372  41.422   4.423
29283W        W97501   0.586  38.490  14.670
29284W        W97502  25.150  22.681  13.371
29285W        W97503  14.860  37.471  10.903
29286W        W97504  28.879  15.225   0.870
29287W        W97505   0.221  28.642   4.569
29288W        W97506   8.211  20.598  13.423
29289W        W97507  14.308  24.171   5.023
29290W        W97508   2.018   5.171  11.612
29291W        W97509   8.229  40.018  13.823
29292W        W97510  40.459  20.748   0.693
29293W        W97511  33.650   1.307   1.399
29294W        W97512  38.029  33.966  10.976
29295W        W97513  17.285  35.574  12.971
29296W        W97514   9.576   9.706   0.376
29297W        W97515  27.490   8.145  10.646
29298W        W97516  33.090  30.595  12.329
29299W        W97517  22.969  42.357  12.046
29300W        W97518  42.879  13.916   2.727
29301W        W97519   7.881  10.186   0.944
29302W        W97520  18.636  34.155  10.957
29303W        W97521   3.282  16.396  10.564
29304W        W97522  10.976  42.864   1.211
29305W        W97523  43.407  39.819  11.632
29306W        W97524  43.472   1.269   3.380
29307W        W97525  39.325  42.114  12.384
29308W        W97526   0.960  27.677  11.168
29309W        W97527  26.000  40.881  12.896
29310W        W97528  11.286  39.025  11.195
29311W        W97529  31.431   1.160   3.067
29312W        W97530  12.210  35.597  12.744
29313W        W97531  23.235  30.149   0.704
29314W        W97532  42.181   7.323   0.667
29315W        W97533  33.125  21.008   4.022
29316W        W97534  12.085  35.893  11.278
29317W        W97535  24.779  28.834   0.474
29318W        W97536  41.371  26.654  13.962
29319W        W97537   8.390  35.508   0.818
29320W        W97538  18.099  35.845  13.375
29321W        W97539   3.182  30.092  14.331
29322W        W97540  10.194  41.432  10.275
29323W        W97541  29.944  43.005   0.755
29324W        W97542   2.486  25.772   3.353
29325W        W97543  17.756   7.755  14.851
29326W        W97544  14.167  20.617  11.375
29327W        W97545  27.733  33.089  13.462
29328W        W97546   4.347   2.994   3.703
29329W        W97547   2.227  37.466  11.957
29330W        W97548  34.777  34.733   0.220
29331W        W97549   0.767  26.185  13.385
29332W        W97550  13.913  37.412  13.022
29333W        W97551  25.529  11.288   0.202
29334W        W97552  40.187  23.120  12.616
29335W        W97553   8.890   6.702  10.564
29336W        W97554  15.347  24.253   4.159
29337W        W97555  31.884   5.587  13.061
29338W        W97556  33.542  32.310   4.079
29339W        W97557  23.514  39.920  14.684
29340W        W97558  43.796  25.525   4.385
29341W        W97559  21.513  11.752  10.720
29342W        W97560  40.933  24.037   4.751
29343W        W97561  22.707  10.440   3.830
29344W        W97562  41.024  44.404   2.418
29345W        W97563   3.907  43.676  10.528
29346W        W97564  18.576  34.011   3.017
29347W        W97565  33.189   2.860   4.115
29348W        W97566  27.213  27.864  12.836
29349W        W97567   9.219  29.157  10.338
29350W        W97568  31.085  41.419   5.090
29351W        W97569  18.072  29.125   0.415
29352W        W97570  18.783  26.623  10.917
29353W        W97571   6.315   1.170   3.418
29354W        W97572  24.329  37.318  13.437
29355W        W97573   8.763   0.269  13.479
29356W        W97574   1.007  25.039   0.559
29357W        W97575  24.500  27.165  14.943
29358W        W97576  30.787  21.543  11.093
29359W        W97577  39.440   9.239  11.589
29360W        W97578   4.848  12.838   9.972
29361W        W97579  35.054  10.619   1.805
29362W        W97580  24.623  41.830  12.588
29363W        W97581  42.371   3.393   4.050
29364W        W97582  39.067   5.841  12.974
29365W        W97583  14.530  25.513   1.329
29366W        W97584  38.331   7.750   4.696
29367W        W97585   4.717  36.320  11.583
29368W        W97586  28.581  10.028  13.885
29369W        W97587   9.690   9.933   1.463
29370W        W97588   2.538  24.063  12.626
29371W        W97589  16.255  16.003  10.844
29372W        W97590   7.762  29.447   1.777
29373W        W97591   8.788   0.974  11.320
29374W        W97592  40.547   8.079   1.447
29375W        W97593  42.929  21.302   2.112
29376W        W97594   5.587  23.431  12.670
29377W        W97595  32.890  37.348   2.987
29378W        W97596  29.514   6.817  12.584
29379W        W97597   2.038  43.527  13.888
29380W        W97598  29.009  10.820   2.457
29381W        W97599  14.147  14.863   1.846
29382W        W97600   8.702   4.921   4.086
29383W        W97601  38.788  15.327  11.755
29384W        W97602   5.991   2.730   0.939
29385W        W97603   6.288  26.688  11.147
29386W        W97604  28.176  19.744  12.706
29387W        W97605  30.547  19.781   3.823
29388W        W97606   6.451  20.001  14.101
29389W        W97607  37.587  43.844  13.799
29390W        W97608   7.682   8.171  11.576
29391W        W97609  25.455  30.960  11.661
29392W        W97610  13.057   4.675   0.510
29393W        W97611  34.069  41.329   0.040
29394W        W97612  44.194  38.583  11.107
29395W        W97613  22.273  38.828  11.968
29396W        W97614   6.054  39.416   2.568
29397W        W97615  34.550   1.424   1.098
29398W        W97616  24.152  25.326  10.380
29399W        W97617  20.045   5.221   2.409
29400W        W97618  36.265   6.202  14.826
29401W        W97619  29.519  34.703   4.113
29402W        W97620  40.377  27.612  11.159
29403W        W97621  36.208   5.409   4.447
29404W        W97622  16.307  35.999  12.048
29405W        W97623  22.171  41.194   4.571
29406W        W97624  19.620  13.085   2.364
29407W        W97625   0.327  39.588   4.545
29408W        W97626   4.212  11.377  10.577
29409W        W97627  25.657  13.741  12.832
29410W        W97628  27.256  39.463  14.815
29411W        W97629   5.312  23.258   0.133
29412W        W97630  15.915  20.675  11.668
29413W        W97631  10.098  32.440  11.049
29414W        W97632  23.759  39.940   3.350
29415W        W97633  10.731  42.244  12.491
29416W        W97634  28.035   8.697  13.277
29417W        W97635  31.258  36.752  11.218
29418W        W97636   2.562  42.931  14.279
29419W        W97637  34.267   0.932   1.771
29420W        W97638  23.493  38.369   2.711
29421W        W97639  25.467  40.418  11.255
29422W        W97640  21.114  17.102  11.594
29423W        W97641   2.444  12.238   4.291
29424W        W97642  26.205  41.352  13.846
29425W        W97643  19.133  25.687  12.554
29426W        W97644  31.426  11.021   3.284
29427W        W97645  39.826   9.514   4.034
29428W        W97646  42.149  36.006   2.366
29429W        W97647  25.942  44.103  13.414
29430W        W97648  29.953   6.265  10.709
29431W        W97649  24.511   3.302  14.791
29432W        W97650  37.369  27.478  11.520
29433W        W97651  23.343   2.042   3.187
29434W        W97652  26.176  41.904   1.753
29435W        W97653  41.812  32.447  13.747
29436W        W97654  21.023  26.577  13.655
29437W        W97655  23.080   9.326  14.860
29438W        W97656  24.676  39.462   1.849
29439W        W97657  31.220  11.256   3.679
29440W        W97658  38.918   8.360  14.943
29441W        W97659  14.694  38.872   4.924
29442W        W97660  41.681  37.306   1.191
29443W        W97661  23.292   3.259  12.538
29444W        W97662  23.088  41.914   0.383
29445W        W97663   2.389   2.848   2.774
29446W        W97664  22.546  26.375   0.755
29447W        W97665  14.234   4.881   4.239
29448W        W97666   8.251  24.907   2.406
29449W        W97667  18.959  22.946  12.265
29450W        W97668   4.747  42.740  10.286
29451W        W97669  44.369   5.842  14.827
29452W        W97670  31.073  34.676   4.581
29453W        W97671   9.371  38.129  13.459
29454W        W97672  21.657  37.212   5.369
29455W        W97673  13.743  18.808  11.038
29456W        W97674   1.583   4.056   4.514
29457W        W97675  26.018  14.404   1.987
29458W        W97676   9.636   4.976   1.266
29459W        W97677  14.325  33.204   3.359
29460W        W97678   1.386  44.415   1.341
29461W        W97679  25.143  27.179  11.663
29462W        W97680  16.248  32.001   1.704
29463W        W97681   0.064  12.576  11.037
29464W        W97682   6.939  29.101   2.409
29465W        W97683  38.906  42.268  13.556
29466W        W97684  28.957   0.262  11.996
29467W        W97685   2.486  12.690   0.758
29468W        W97686  16.169  25.627   2.376
29469W        W97687  21.193   1.454   1.483
29470W        W97688   2.670   8.775   1.406
29471W        W97689  37.365  31.641  14.947
29472W        W97690  42.408  29.868  11.519
29473W        W97691  35.118  12.691  13.013
29474W        W97692  35.605  12.581   3.280
29475W        W97693  15.675  30.584  14.306
29476W        W97694   0.987  27.827   3.642
29477W        W97695  10.013  11.810  11.951
29478W        W97696  17.059  12.675   5.417
29479W        W97697  27.247   5.567   0.206
29480W        W97698  23.897  24.233  11.584
29481W        W97699  20.634  22.275   2.623
29482W        W97700   8.204   1.431   1.709
29483W        W97701  35.132   0.227  13.807
29484W        W97702  10.841  12.253  10.440
29485W        W97703   3.523  41.685   1.795
29486W        W97704  17.291   0.909   4.530
29487W        W97705   8.979  34.393  12.407
29488W        W97706  30.444  44.559  10.471
29489W        W97707   8.385  37.389   0.779
29490W        W97708  21.631   8.889  13.227
29491W        W97709   9.472  28.921   1.098
29492W        W97710  20.064  19.103   4.188
29493W        W97711  38.351  34.283   3.301
29494W        W97712   4.760  19.743   2.121
29495W        W97713  17.311  17.290   0.006
29496W        W97714  29.110   1.999   2.265
29497W        W97715  13.268  43.244  10.988
29498W        W97716  41.923   2.933   1.970
29499W        W97717  31.406  19.366  11.586
29500W        W97718  23.335  26.857   1.907
29501W        W97719  30.897  35.794  11.138
29502W        W97720  10.902  39.956   4.607
29503W        W97721  42.343  41.932   1.250
29504W        W97722  43.764  22.458   4.149
29505W        W97723  10.496  34.190   2.705
29506W        W97724   3.822  17.231   4.192
29507W        W97725  38.012  19.616  12.901
29508W        W97726  32.523  38.067   1.799
29509W        W97727  34.034  44.360  12.911
29510W        W97728   0.673  30.134   1.444
29511W        W97729  31.164   6.192   2.317
29512W        W97730  27.793  26.037   3.668
29513W        W97731  12.463  14.772  12.305
29514W        W97732  43.598  26.389   4.514
29515W        W97733  33.564  30.624  11.504
29516W        W97734   6.356  24.720   4.105
29517W        W97735  28.106  42.524  12.470
29518W        W97736  22.658  23.246  12.921
29519W        W97737  29.771   3.174   4.127
29520W        W97738  23.250  42.369  12.483
29521W        W97739  15.172  37.620  14.544
29522W        W97740  28.873  34.039  10.968
29523W        W97741  20.548  29.690  14.260
29524W        W97742  13.702  37.443  14.351
29525W        W97743  11.500  27.585   1.322
29526W        W97744   3.392  38.193   0.702
29527W        W97745  42.034  17.186   3.369
29528W        W97746  40.504  16.796  12.623
29529W        W97747  13.172  17.831   3.652
29530W        W97748  39.410  37.917   2.277
29531W        W97749   2.230  17.196  13.932
29532W        W97750   0.169  10.700  14.861
29533W        W97751  33.314  17.840  12.328
29534W        W97752  21.488  27.031   2.242
29535W        W97753  31.865  25.638  13.947
29536W        W97754  36.977  35.894   1.673
29537W        W97755  13.480  39.269  11.624
29538W        W97756  41.763  12.864   2.981
29539W        W97757  15.558   0.825   1.835
29540W        W97758  11.362  27.089  14.813
29541W        W97759  20.157  28.212  11.535
29542W        W97760   8.646  16.670  12.534
29543W        W97761  42.564  29.505  12.559
29544W        W97762  27.410  17.972   0.391
29545W        W97763  41.164  40.704   2.222
29546W        W97764  38.058   9.336   2.517
29547W        W97765  15.992  23.413   4.104
29548W        W97766  24.694  44.329   1.895
29549W        W97767  24.064  16.113   2.463
29550W        W97768  19.544  25.804  11.696
29551W        W97769  33.053  26.649  11.191
29552W        W97770  12.093  12.878   4.072
29553W        W97771  23.453   6.870  14.956
29554W        W97772  22.632  40.370  14.355
29555W        W97773   6.851  26.039   1.077
29556W        W97774  31.314  11.170  14.169
29557W        W97775  43.966   8.416  12.355
29558W        W97776  40.746  34.441   3.902
29559W        W97777  28.927   1.412   3.095
29560W        W97778  18.808  24.834   4.281
29561W        W97779   1.732  19.165  13.340
29562W        W97780  43.766  28.383  10.533
29563W        W97781  26.772  13.951  13.896
29564W        W97782  38.586   5.581   2.327
29565W        W97783  43.916  37.678  13.156
29566W        W97784  36.090   7.691  12.972
29567W        W97785  38.357  35.020   1.670
29568W        W97786  37.555  20.788  11.206
29569W        W97787   1.763  28.183   3.871
29570W        W97788  18.640  34.173   0.681
29571W        W97789  32.430  36.664   3.325
29572W        W97790   5.776  24.999  12.082
29573W        W97791  20.632  21.506  14.967
29574W        W97792  28.659  34.359   1.292
29575W        W97793  34.669  24.791  14.248
29576W        W97794  19.660  44.238  14.608
29577W        W97795  42.015  16.168  10.951
29578W        W97796  28.707  23.182   5.569
29579W        W97797  17.662   3.808  13.940
29580W        W97798  20.238  26.092   0.348
29581W        W97799  37.513  27.648   2.245
29582W        W97800  11.922  33.817  11.066
29583W        W97801  36.782  34.313   3.398
29584W        W97802   4.567  11.435  12.880
29585W        W97803  29.424  33.129   3.299
29586W        W97804  10.596   3.832   1.489
29587W        W97805  18.501  29.292   4.210
29588W        W97806  18.871  32.028   1.713
29589W        W97807  23.651  38.090  12.030
29590W        W97808  16.235   0.299   0.412
29591W        W97809  37.417  22.275   2.838
29592W        W97810  30.550  16.228  13.463
29593W        W97811  43.432  17.582   3.115
29594W        W97812  29.564  34.325  13.946
29595W        W97813  20.162  43.879   0.444
29596W        W97814  26.227  18.214  11.126
29597W        W97815  23.127  29.651   1.925
29598W        W97816   6.884   3.152   0.339
29599W        W97817   3.015  11.639   3.803
29600W        W97818  14.627  39.509  12.197
29601W        W97819  16.277  33.153  10.942
29602W        W97820  16.813   1.304  13.004
29603W        W97821  12.739  29.713  11.984
29604W        W97822   8.647  18.231  13.067
29605W        W97823  36.881  33.139  10.908
29606W        W97824   9.931  28.408  14.031
29607W        W97825  33.061  17.032   4.278
29608W        W97826  36.136  11.551   3.769
29609W        W97827  24.593  44.248  12.510
29610W        W97828  21.716  27.693   0.952
29611W        W97829   3.868  19.587   2.256
29612W        W97830  17.538  23.798  14.434
29613W        W97831  18.229  21.185   3.875
29614W        W97832  33.059  11.620  10.384
29615W        W97833  39.464  19.658  14.060
29616W        W97834  18.072   6.413   2.300
29617W        W97835  17.740  37.392  13.886
29618W        W97836  24.047  13.176  14.406
29619W        W97837   2.191  34.566   0.660
29620W        W97838  41.154  26.745   4.232
29621W        W97839  39.967   0.850  10.383
29622W        W97840  27.037  16.376   4.948
29623W        W97841  10.222  24.806  13.588
29624W        W97842  13.631  41.763  12.593
29625W        W97843  15.629  40.173   3.799
29626W        W97844  36.407  14.926  13.395
29627W        W97845  26.657   0.606  14.864
29628W        W97846  23.507  16.825  14.013
29629W        W97847  38.538   1.022   2.722
29630W        W97848  27.720   4.202   2.257
29631W        W97849   3.317  17.762  12.577
29632W        W97850  18.225  10.476  11.254
29633W        W97851  22.608  43.972   1.983
29634W        W97852  38.583  26.494   2.820
29635W        W97853  10.475  42.317   4.374
29636W        W97854  36.024   0.340  10.323
29637W        W97855  31.048  21.335   1.025
29638W        W97856  28.635   7.811  12.885
29639W        W97857  37.820  21.508   3.814
29640W        W97858  40.299  22.961   4.128
29641W        W97859  12.731  15.622  11.899
29642W        W97860   3.320  32.404  14.045
29643W        W97861  43.467  17.773  12.416
29644W        W97862  26.392  10.367   5.058
29645W        W97863   7.774  18.770   1.797
29646W        W97864  43.530   2.140  11.434
29647W        W97865  33.186  19.650  11.449
29648W        W97866  17.667  18.654   3.976
29649W        W97867   3.729   7.456   1.570
29650W        W97868  28.964  35.866   2.073
29651W        W97869  32.353   0.704  14.144
29652W        W97870  16.183   2.921   4.404
29653W        W97871  41.250   2.416   5.400
29654W        W97872  11.759  32.542  14.555
29655W        W97873  28.061  34.441   4.536
29656W        W97874  30.009  42.359  13.390
29657W        W97875  42.325  33.015   2.471
29658W        W97876  24.135  13.783  14.000
29659W        W97877  44.527  18.617   0.336
29660W        W97878  16.817  20.520  11.709
29661W        W97879  17.469   4.157   0.268
29662W        W97880  11.523   1.935   1.177
29663W        W97881  17.325   9.294   1.856
29664W        W97882  35.340  12.787   0.601
29665W        W97883  27.414  36.007  13.528
29666W        W97884   6.291   6.948   0.371
29667W        W97885   6.108  22.286   0.222
29668W        W97886   0.734  28.448  11.569
29669W        W97887  10.098  34.945   3.189
29670W        W97888  26.071  26.790  13.422
29671W        W97889   9.889  15.164  14.338
29672W        W97890   9.835  21.687   4.957
29673W        W97891  16.266  19.141  12.278
29674W        W97892  26.988  21.807   4.480
29675W        W97893  25.240   0.664   2.161
29676W        W97894  41.853  13.244   3.333
29677W        W97895  24.017  10.025  12.484
29678W        W97896   3.592  17.685  13.016
29679W        W97897   3.887   4.229   0.728
29680W        W97898  21.210  10.556  13.087
29681W        W97899  26.699  19.146  13.869
29682W        W97900   0.025  14.821   3.142
29683W        W97901   5.783  44.509  13.290
29684W        W97902  25.309  44.785  11.602
29685W        W97903  20.146  28.964   3.847
29686W        W97904  39.417   0.235  10.039
29687W        W97905  35.725  12.744  10.805
29688W        W97906   2.801  15.721  14.080
29689W        W97907  11.273  25.614  11.938
29690W        W97908  17.248  23.944  11.537
29691W        W97909  29.043   4.984  14.405
29692W        W97910  36.960   1.053  13.794
29693W        W97911  19.051  33.920   0.509
29694W        W97912  41.526  27.905  12.492
29695W        W97913  33.117   5.345  13.461
29696W        W97914   0.003  17.365  11.559
29697W        W97915  18.131  27.154  14.290
29698W        W97916  17.128  43.054   2.818
29699W        W97917  32.704  39.934   1.513
29700W        W97918   2.231  32.017   3.262
29701W        W97919  25.526   0.349   4.521
29702W        W97920  28.436  31.564   2.274
29703W        W97921  27.914  34.946   1.956
29704W        W97922  27.686  35.399  14.295
29705W        W97923  18.655   5.123  12.826
29706W        W97924  34.436  35.141  14.363
29707W        W97925  24.510  27.521   0.330
29708W        W97926  11.117   9.639   1.511
29709W        W97927   8.298  33.185  11.632
29710W        W97928   7.478  22.374   0.362
29711W        W97929  35.294  19.784   3.736
29712W        W97930  25.195   1.796   2.876
29713W        W97931  38.009  17.176  14.019
29714W        W97932  35.057  43.972  12.040
29715W        W97933   2.798   0.238   2.191
29716W        W97934  22.276  12.443   1.206
29717W        W97935  14.695  22.979  14.340
29718W        W97936  41.842  32.604   0.493
29719W        W97937  18.598  42.856  13.716
29720W        W97938   7.849   0.568   3.742
29721W        W97939  10.053  24.082  10.711
29722W        W97940  21.041  43.618  12.081
29723W        W97941  44.428   8.541  13.020
29724W        W97942  28.502  18.780  10.085
29725W        W97943  19.801  28.537   3.898
29726W        W97944  36.118  19.276   1.520
29727W        W97945   6.040  28.528  13.091
29728W        W97946  21.748  21.219  11.447
29729W        W97947  36.785  39.008  11.447
29730W        W97948  40.341   5.160  10.779
29731W        W97949  31.473   4.216   0.677
29732W        W97950  13.154  29.457  13.055
29733W        W97951  30.970  30.689  14.484
29734W        W97952  18.925  34.464  11.585
29735W        W97953   0.442  43.035   3.685
29736W        W97954  26.591  19.147   3.124
29737W        W97955  28.433  14.244   0.954
29738W        W97956  22.573  25.887   0.955
29739W        W97957  32.377   5.770  13.882
29740W        W97958  30.106   6.450   0.685
29741W        W97959  19.282  30.310   4.515
29742W        W97960  14.318  38.398   1.318
29743W        W97961  26.614  16.708   0.390
29744W        W97962   4.034  35.913  13.359
29745W        W97963  11.701  17.347   3.205
29746W        W97964  11.117  43.958  13.324
29747W        W97965  20.273  23.933  13.312
29748W        W97966  43.271  16.423   0.099
29749W        W97967   9.184  31.529  14.361
29750W        W97968  30.023  14.075  10.729
29751W        W97969  21.252   9.621   0.726
29752W        W97970   4.567  37.767  11.926
29753W        W97971  37.483   5.891   4.463
29754W        W97972  26.923  25.703  10.709
29755W        W97973  35.292  28.620   0.393
29756W        W97974   1.130  16.583   4.824
29757W        W97975  19.785  44.459   4.629
29758W        W97976  31.088  24.323   0.702
29759W        W97977  20.003  37.909   0.438
29760W        W97978   0.540  20.613  13.812
29761W        W97979  11.679  23.218   4.203
29762W        W97980   8.126  20.707  11.579
29763W        W97981  13.152  36.629   0.901
29764W        W97982  27.356  41.424   3.721
29765W        W97983   2.301   5.728   2.397
29766W        W97984   8.336  37.540  11.981
29767W        W97985  24.725  28.649  12.421
29768W        W97986  28.053  10.057  13.812
29769W        W97987   3.977   8.912   3.341
29770W        W97988  22.213   2.352  12.483
29771W        W97989   7.094   4.283   3.217
29772W        W97990  11.219  20.646   1.062
29773W        W97991  36.801   2.845  12.018
29774W        W97992  32.561  33.672   1.676
29775W        W97993   2.394  30.561   3.218
29776W        W97994  10.735  11.974   3.494
29777W        W97995  18.105   2.528   4.612
29778W        W97996  38.968  36.650  12.676
29779W        W97997   6.414  35.503   3.348
29780W        W97998  24.745  14.320  14.837
29781W        W97999  22.217  18.602   2.553
29782W        W98000  36.609  14.593   4.590
29783W        W98001  38.737  26.754   1.193
29784W        W98002   5.795  39.562   0.019
29785W        W98003  32.262  17.133   1.358
29786W        W98004   2.389  11.799   3.992
29787W        W98005  36.440  15.057  10.654
29788W        W98006  28.475  24.817   0.798
29789W        W98007   5.649  16.274   4.157
29790W        W98008  16.627  21.145  12.959
29791W        W98009  32.568  31.430   0.544
29792W        W98010  11.243  21.567  13.967
29793W        W98011  32.295  23.319  13.874
29794W        W98012  27.141  33.343  13.433
29795W        W98013   8.653  40.227   0.729
29796W        W98014  18.031  42.975   4.585
29797W        W98015   8.391  34.045   4.601
29798W        W98016  22.823  36.413   2.258
29799W        W98017  16.816  32.857  12.626
29800W        W98018   8.323  10.686   3.612
29801W        W98019  13.536   6.850  12.398
29802W        W98020   6.106  28.117   0.305
29803W        W98021  34.916  40.070   0.241
29804W        W98022   5.226  11.904  10.577
29805W        W98023  19.619  21.653   0.094
29806W        W98024  17.231  37.500   3.037
29807W        W98025   3.913   4.489   2.683
29808W        W98026  36.281  15.590   1.272
29809W        W98027  21.391   8.496   3.796
29810W        W98028  30.799   0.190  11.145
29811W        W98029  20.169  25.612   3.336
29812W        W98030  38.598   0.741  10.245
29813W        W98031  41.980  20.545   1.888
29814W        W98032  40.951  25.996   0.486
29815W        W98033  13.230  24.932  12.204
29816W        W98034  14.902   7.450  13.825
29817W        W98035  11.624  30.717  11.102
29818W        W98036  18.652  19.844   4.026
29819W        W98037  29.179  12.722   1.469
29820W        W98038   3.175  29.319  13.861
29821W        W98039  44.883  27.479   4.819
29822W        W98040  43.008  13.342   3.595
29823W        W98041  23.316   4.836  12.959
29824W        W98042  41.835   8.789   2.349
29825W        W98043  27.173  24.382   3.301
29826W        W98044  31.301  16.292   3.791
29827W        W98045   7.570  44.060   5.072
29828W        W98046  15.555  19.353   1.496
29829W        W98047  32.899  17.242   1.980
29830W        W98048  21.790  25.934   0.461
29831W        W98049   3.320   8.830  13.316
29832W        W98050   9.258  22.082  14.567
29833W        W98051  39.825  36.965   4.311
29834W        W98052  42.553   4.897   0.004
29835W        W98053  17.570  25.200  14.515
29836W        W98054  13.909  33.963   2.167
29837W        W98055  42.008  25.080   4.625
29838W        W98056  13.900  19.159  14.368
29839W        W98057  37.427  14.237   1.381
29840W        W98058  19.336  44.189   4.604
29841W        W98059  38.199  12.141  13.005
29842W        W98060  34.536   6.539   4.579
29843W        W98061  21.987   2.354  13.126
29844W        W98062  39.744  44.458   0.679
29845W        W98063  29.094  39.072  10.415
29846W        W98064  36.877  44.151  13.505
29847W        W98065  15.815  25.716   0.685
29848W        W98066  30.196  41.573   4.755
29849W        W98067  20.093   2.440  12.431
29850W        W98068   7.790  22.282  14.597
29851W        W98069  11.722  28.344  12.762
29852W        W98070  26.292   4.002  13.459
29853W        W98071   1.566  29.533   1.866
29854W        W98072   8.127  25.911   2.171
29855W        W98073  30.436   9.375   5.149
29856W        W98074  29.886  38.542  13.020
29857W        W98075   1.759  12.660  14.477
29858W        W98076  18.247   6.818  13.101
29859W        W98077  43.762  21.469  13.411
29860W        W98078   6.715  33.218  11.647
29861W        W98079  40.789  18.595   3.693
29862W        W98080   5.534  38.674   0.376
29863W        W98081  32.914  42.863   2.383
29864W        W98082  21.521   8.593   1.207
29865W        W98083  29.117   3.338   3.633
29866W        W98084  26.337   8.902   2.882
29867W        W98085  12.314  34.621  11.153
29868W        W98086  11.739  39.244   1.665
29869W        W98087  39.002  21.561   4.624
29870W        W98088  34.462  16.154  12.360
29871W        W98089  31.331  32.605   3.789
29872W        W98090  27.173  39.397   4.852
29873W        W98091  24.119  26.498  14.139
29874W        W98092  23.760  44.924   1.044
29875W        W98093  13.244  38.392  14.859
29876W        W98094  31.425   7.745   3.854
29877W        W98095  11.750  25.454  12.024
29878W        W98096  10.862  32.341   0.745
29879W        W98097  24.703  39.868   3.816
29880W        W98098  42.026  15.402  13.456
29881W        W98099  37.394  44.299  13.512
29882W        W98100   7.688  42.253   3.170
29883W        W98101  15.333  23.790  12.837
29884W        W98102  18.605  34.616   3.409
29885W        W98103  24.032  12.765  10.283
29886W        W98104   8.402  19.243   3.817
29887W        W98105  20.039  44.451  14.330
29888W        W98106  17.634  15.581   1.122
29889W        W98107  18.202  28.193  13.589
29890W        W98108  27.583  41.135  14.011
29891W        W98109   7.413  38.935  11.057
29892W        W98110  37.664  34.084   1.370
29893W        W98111  28.762   0.282   2.256
29894W        W98112  14.726   8.898  10.775
29895W        W98113  12.218  17.323   4.095
29896W        W98114   5.356  10.228   1.956
29897W        W98115   0.442  26.232   0.750
29898W        W98116  13.851  42.317   0.786
29899W        W98117  10.246  17.517   0.349
29900W        W98118  43.813  23.201   1.305
29901W        W98119  25.518  43.137   1.520
29902W        W98120  35.463  29.689   4.751
29903W        W98121   9.251  17.563  11.263
29904W        W98122   0.237  39.892   0.308
29905W        W98123  23.014   1.520  13.114
29906W        W98124   4.197  38.432   1.476
29907W        W98125  37.471  26.766  13.565
29908W        W98126  17.655  25.692  14.215
29909W        W98127   9.772  39.060  12.671
29910W        W98128  13.779   8.199  12.989
29911W        W98129  26.944  18.095   3.014
29912W        W98130   8.423  41.973  13.534
29913W        W98131   7.733  15.706   2.297
29914W        W98132  22.330  11.260   3.368
29915W        W98133  37.909  21.488  13.929
29916W        W98134  33.866  31.342   4.562
29917W        W98135   3.916  41.492  14.001
29918W        W98136  24.728  12.593  12.087
29919W        W98137  41.299  15.993   0.478
29920W        W98138   2.520  32.936   0.858
29921W        W98139  27.701  37.352   0.543
29922W        W98140  28.396  41.229   2.768
29923W        W98141  37.902  30.417  14.749
29924W        W98142  33.468  10.231  10.575
29925W        W98143  27.146  16.073  11.260
29926W        W98144  38.706  27.198  13.361
29927W        W98145  38.478   4.620   9.831
29928W        W98146  16.466   3.817   4.897
29929W        W98147  22.241  12.791  12.442
29930W        W98148  33.528  34.883  12.012
29931W        W98149  37.879  10.573   3.392
29932W        W98150  11.932  19.290   3.383
29933W        W98151  39.820  26.148  13.062
29934W        W98152  14.965  40.575   2.742
29935W        W98153  31.381  43.033   9.733
29936W        W98154  18.727   4.979  11.045
29937W        W98155  31.096   0.848   0.299
29938W        W98156  43.672   6.435  14.898
29939W        W98157  28.882  36.979   5.067
29940W        W98158  38.424  36.901   4.236
29941W        W98159   0.698   9.683  14.007
29942W        W98160  13.565  25.195   1.945
29943W        W98161   7.414  28.511   0.293
29944W        W98162   5.345  42.502  13.931
29945W        W98163   5.245  21.023   1.652
29946W        W98164  26.539  41.017   3.821
29947W        W98165   1.229  42.446   1.724
29948W        W98166  35.078   1.923  10.032
29949W        W98167  25.874  34.119  13.326
29950W        W98168   3.374   5.700   0.406
29951W        W98169  22.930  26.527  12.370
29952W        W98170  39.817  13.267  14.031
29953W        W98171  12.194  20.564   1.876
29954W        W98172  41.024  33.419   3.110
29955W        W98173  19.608  40.545  12.990
29956W        W98174  43.606   0.469  12.995
29957W        W98175  24.027  27.155   2.495
29958W        W98176  22.479  16.216   1.394
29959W        W98177  28.545   8.233  10.922
29960W        W98178   9.154  37.184  11.194
29961W        W98179  30.181  14.669  11.075
29962W        W98180  30.458  17.516   4.470
29963W        W98181  18.221  23.714  14.850
29964W        W98182  31.336  14.178   1.830
29965W        W98183  27.719  40.623  11.473
29966W        W98184  28.932  32.700  10.745
29967W        W98185   7.467  34.287   4.162
29968W        W98186  30.934  20.328  13.497
29969W        W98187  34.485  26.700   1.317
29970W        W98188  28.605  27.373   1.190
29971W        W98189  44.272  31.861   2.357
29972W        W98190  17.153  43.711   1.217
29973W        W98191  14.774  13.180   2.326
29974W        W98192  25.223  15.805  11.552
29975W        W98193  18.283  13.160  14.415
29976W        W98194   5.350   9.332  10.511
29977W        W98195  12.948   9.706   3.712
29978W        W98196   1.185  36.478  13.597
29979W        W98197  29.633  18.706   3.191
29980W        W98198  11.053  35.221  11.624
29981W        W98199   2.915   5.384  13.622
29982W        W98200  37.958  39.968  11.616
29983W        W98201  33.393  40.602   3.275
29984W        W98202   4.143  20.835   0.254
29985W        W98203  44.975  43.522  14.937
29986W        W98204  16.308  43.797  14.465
29987W        W98205  20.091  40.422  12.625
29988W        W98206  17.689  20.702  14.314
29989W        W98207   1.377   0.302  12.944
29990W        W98208  30.423   1.364   1.360
29991W        W98209  33.613   4.451   5.344
29992W        W98210  13.579  29.399   3.143
29993W        W98211  21.221  21.522   0.738
29994W        W98212   8.304  31.676   3.830
29995W        W98213  29.698  33.142  14.545
29996W        W98214  18.665  19.648  14.469
29997W        W98215  19.654  27.408   0.825
29998W        W98216  40.249  38.950   1.748
29999W        W98217  40.790   2.148   1.235
30000W        W98218   2.316   4.907   2.882
30001W        W98219  31.529  17.860   2.691
30002W        W98220  15.804  35.384  13.788
30003W        W98221   9.959  29.136   2.164
30004W        W98222  32.933  44.445   4.018
30005W        W98223  21.764   5.413  13.884
30006W        W98224  29.356   5.321   3.759
30007W        W98225  40.722   7.969   2.247
30008W        W98226   9.762  23.260  13.394
30009W        W98227   7.610  11.774   5.298
30010W        W98228  23.031  18.356   0.658
30011W        W98229  32.102  31.340   4.400
30012W        W98230  43.307   7.315  14.272
30013W        W98231  20.822  10.308   3.710
30014W        W98232   2.335   2.486  10.699
30015W        W98233  31.460  15.499   4.582
30016W        W98234  29.578  21.753   4.650
30017W        W98235  34.709  27.135  12.480
30018W        W98236   3.264  36.696  11.851
30019W        W98237  43.919   9.813  14.317
30020W        W98238   0.455   4.649   4.910
30021W        W98239  32.617  31.321   3.762
30022W        W98240  13.151   3.016  10.782
30023W        W98241  42.729  37.257  10.539
30024W        W98242  34.671  37.453   1.836
30025W        W98243  31.714   2.962   4.108
30026W        W98244  25.515  15.728  14.841
30027W        W98245  16.066   9.424  13.378
30028W        W98246  28.132  28.029   3.775
30029W        W98247  14.321  31.500  10.580
30030W        W98248  38.189  43.398  14.801
30031W        W98249  42.047   0.393  12.858
30032W        W98250  25.859  32.414  12.049
30033W        W98251   4.921   4.836  14.836
30034W        W98252   9.259  15.152  13.502
30035W        W98253  37.548  28.837   2.664
30036W        W98254  44.610  19.255  14.992
30037W        W98255  10.677   7.792  12.487
30038W        W98256  34.373  34.387  11.586
30039W        W98257   8.796  12.675   4.637
30040W        W98258   7.548   7.888  12.442
30041W        W98259  13.408  25.625  12.951
30042W        W98260  31.094  18.077  14.945
30043W        W98261  24.975  21.675   2.761
30044W        W98262  42.484  44.190   0.254
30045W        W98263  42.228  39.276   4.018
30046W        W98264  17.276  13.075  13.764
30047W        W98265  16.205   3.392   2.733
30048W        W98266   9.163  26.959   0.953
30049W        W98267  18.282  35.860  10.731
30050W        W98268  34.308  27.677   0.268
30051W        W98269  34.924  38.551   1.698
30052W        W98270  15.643  34.051   1.274
30053W        W98271  44.426  17.093  10.708
30054W        W98272  22.143  40.284  13.017
30055W        W98273  23.041  30.593   2.353
30056W        W98274  29.877  15.624   0.510
30057W        W98275  23.418  15.170   4.601
30058W        W98276  25.870  27.019  12.031
30059W        W98277  41.303  40.780  13.028
30060W        W98278  16.050  33.034  11.418
30061W        W98279  40.084  40.016  13.990
30062W        W98280   1.239  38.123   0.831
30063W        W98281  33.031  25.656  12.464
30064W        W98282  10.021  35.442  11.558
30065W        W98283  43.994  21.185   4.425
30066W        W98284  29.640  43.987   1.027
30067W        W98285  27.314  28.854  12.408
30068W        W98286  31.714   6.826   2.911
30069W        W98287   9.377   3.335  12.899
30070W        W98288  19.750   6.217   1.872
30071W        W98289   5.589  28.521   0.972
30072W        W98290  36.056  10.792  12.426
30073W        W98291  30.978  41.715  11.547
30074W        W98292   6.855  18.013   2.214
30075W        W98293  12.077  35.608   1.313
30076W        W98294  13.630  17.241   0.018
30077W        W98295  35.903  34.107  13.575
30078W        W98296  14.479   1.751   4.962
30079W        W98297  21.046  36.908   3.567
30080W        W98298  34.498  44.985   3.741
30081W        W98299  41.930   7.833   1.007
30082W        W98300   4.857  20.713  10.795
30083W        W98301  20.796  34.975   2.764
30084W        W98302  26.726  18.207  12.075
30085W        W98303  16.675  19.784  11.734
30086W        W98304   0.731  13.699  10.709
30087W        W98305  35.643  26.493  13.510
30088W        W98306  21.628  19.586   0.350
30089W        W98307  28.038  31.014  14.942
30090W        W98308   1.729  35.469   0.998
30091W        W98309   5.462  10.267   0.936
30092W        W98310  16.774  42.438   4.764
30093W        W98311  19.022   6.192  11.576
30094W        W98312  42.569   4.288   3.328
30095W        W98313  44.512  42.924   3.857
30096W        W98314  11.721  16.180   0.260
30097W        W98315  44.459  28.098  14.807
30098W        W98316  40.556  15.294   4.161
30099W        W98317  18.202  40.360  11.117
30100W        W98318  17.973  25.943  14.922
30101W        W98319  20.091   1.874  11.702
30102W        W98320   4.553  12.866  11.236
30103W        W98321  41.286  25.487   3.062
30104W        W98322  18.456   8.108   1.875
30105W        W98323  32.912  34.200   0.786
30106W        W98324  17.223  42.350   3.621
30107W        W98325   2.975  10.919   4.028
30108W        W98326  42.304  41.167  12.935
30109W        W98327   4.314  33.790  14.318
30110W        W98328   3.836  43.293   3.756
30111W        W98329   2.808   0.380   0.725
30112W        W98330  43.558   5.966  14.424
30113W        W98331  31.081   8.655  14.081
30114W        W98332   3.433  15.578  13.272
30115W        W98333  13.907  42.380   5.268
30116W        W98334  25.577  28.441   2.887
30117W        W98335  34.343  28.572  12.502
30118W        W98336   2.706   0.881  12.357
30119W        W98337  23.031  30.436  12.192
30120W        W98338  17.797  28.381  10.628
30121W        W98339  10.565  33.115   2.718
30122W        W98340  37.158  30.595  13.371
30123W        W98341  31.926   6.501  10.441
30124W        W98342  25.180  35.979  14.246
30125W        W98343  25.443  28.134  10.701
30126W        W98344   5.973  25.502   2.485
30127W        W98345  13.828  39.913  12.340
30128W        W98346   6.229  40.276   5.215
30129W        W98347  34.095  35.629   3.767
30130W        W98348  22.483   4.397  10.424
30131W        W98349  31.620   2.032  11.161
30132W        W98350  40.031  43.009   0.809
30133W        W98351  43.344  10.745  12.961
30134W        W98352  20.934  21.779   0.374
30135W        W98353  11.933   6.364   4.628
30136W        W98354  32.579   4.182  10.858
30137W        W98355  38.864  24.017   2.477
30138W        W98356  22.534  35.492  11.671
30139W        W98357  28.590   3.822  11.588
30140W        W98358  30.490  22.658   3.001
30141W        W98359   0.683   1.037  13.832
30142W        W98360   3.836  37.387   5.092
30143W        W98361  24.914   8.871   1.232
30144W        W98362  21.138  39.062  11.024
30145W        W98363  25.049  36.548   1.458
30146W        W98364  39.060  44.176  13.089
30147W        W98365  25.994  25.826   1.203
30148W        W98366   9.192  35.395  14.999
30149W        W98367  19.573  35.692  10.336
30150W        W98368  33.756   9.528   0.293
30151W        W98369  27.990  33.030  10.086
30152W        W98370  17.689  17.842  10.721
30153W        W98371   3.413  10.920   0.192
30154W        W98372  15.860  31.461   0.950
30155W        W98373  36.311   5.282  13.871
30156W        W98374   6.330  14.288   3.547
30157W        W98375   1.085  17.531  14.046
30158W        W98376  35.384   5.433  11.799
30159W        W98377   6.313  13.580  13.145
30160W        W98378  15.325   5.140   0.078
30161W        W98379   5.889  24.025   0.754
30162W        W98380  37.950  29.401   1.192
30163W        W98381   5.391  40.416  12.991
30164W        W98382  26.975  34.598   2.648
30165W        W98383  29.020  18.168  13.503
30166W        W98384  28.946  26.504  11.492
30167W        W98385  31.483   9.411  11.091
30168W        W98386  18.167   7.482  13.387
30169W        W98387  42.808   3.205   2.801
30170W        W98388  24.140  14.164   2.753
30171W        W98389  30.651   8.206  12.509
30172W        W98390  18.350  12.185  11.134
30173W        W98391  29.124  20.617   3.919
30174W        W98392   9.724   0.848  11.104
30175W        W98393   9.875   8.692  14.995
30176W        W98394  14.150  25.916  13.377
30177W        W98395  37.810  26.238   3.337
30178W        W98396  12.554   9.411  13.610
30179W        W98397  22.840  23.674   9.877
30180W        W98398  42.819  20.616  10.880
30181W        W98399  11.188  29.457  13.052
30182W        W98400  26.396  22.254   1.447
30183W        W98401  35.062  16.634  13.052
30184W        W98402  43.292  17.669   4.607
30185W        W98403   7.078  18.620  14.042
30186W        W98404  10.537   5.310   0.929
30187W        W98405  35.831   2.351   4.176
30188W        W98406  25.691  28.913  13.997
30189W        W98407  33.345  27.543  11.112
30190W        W98408  30.952  26.983  14.914
30191W        W98409  29.541   7.375  12.484
30192W        W98410   8.245  12.408   1.994
30193W        W98411   5.341  14.037   1.306
30194W        W98412  17.263  33.663   0.403
30195W        W98413  12.870  38.533  10.703
30196W        W98414  22.586   4.873   4.267
30197W        W98415  38.290  31.916  14.208
30198W        W98416  17.471  20.486  13.820
30199W        W98417  24.536  33.045   2.332
30200W        W98418  31.449  25.040   4.581
30201W        W98419  40.956  32.417   0.834
30202W        W98420  15.333  39.826  12.303
30203W        W98421  18.201  10.805   2.748
30204W        W98422  39.534  28.486   3.589
30205W        W98423  43.479  44.409   0.304
30206W        W98424  14.078  20.271  11.006
30207W        W98425  40.319  44.041   1.165
30208W        W98426  16.171  38.750  10.395
30209W        W98427  25.818  19.572   2.250
30210W        W98428  22.013  10.107  13.853
30211W        W98429  40.388  40.036  11.226
30212W        W98430  30.537   8.160   2.371
30213W        W98431  27.476  25.943   1.837
30214W        W98432  43.342  19.836  14.879
30215W        W98433  15.999   6.285  12.852
30216W        W98434  38.845   2.751  13.459
30217W        W98435   8.659  32.507   2.774
30218W        W98436  19.075  23.083  13.442
30219W        W98437  37.837  38.623   4.446
30220W        W98438   9.850  34.054   4.729
30221W        W98439  14.788  28.511  10.734
30222W        W98440   0.024  34.191   1.755
30223W        W98441   4.790   0.113   5.168
30224W        W98442  13.279  11.658  14.384
30225W        W98443  27.511  15.023  13.461
30226W        W98444  20.450   3.233  13.540
30227W        W98445  17.606  30.370  12.000
30228W        W98446  35.491   8.726  13.908
30229W        W98447  43.622  42.442   0.949
30230W        W98448  22.038  28.603   0.804
30231W        W98449  34.640  39.193   2.161
30232W        W98450   8.294  28.169   3.361
30233W        W98451  40.324  44.009   4.269
30234W        W98452  44.342  30.998   2.807
30235W        W98453   2.894  35.076  10.764
30236W        W98454  36.999  41.841  14.465
30237W        W98455  27.130  19.759   3.582
30238W        W98456   0.373  13.733  12.046
30239W        W98457   4.808  15.524   3.505
30240W        W98458  37.814  21.532   3.296
30241W        W98459  29.703  11.558   0.011
30242W        W98460  35.589  13.224   2.602
30243W        W98461  29.400  37.251   0.801
30244W        W98462  32.782   3.511  14.439
30245W        W98463  13.051  12.405   4.036
30246W        W98464  28.158  24.254  13.397
30247W        W98465  26.125  17.915  14.379
30248W        W98466  34.475  35.875  10.794
30249W        W98467  14.143  40.571   4.736
30250W        W98468  26.104   9.946   0.387
30251W        W98469  44.242  11.887   3.265
30252W        W98470  29.810  36.820  13.080
30253W        W98471  43.385  39.371  13.450
30254W        W98472  11.870   4.404  10.549
30255W        W98473  41.322  12.351  14.884
30256W        W98474  31.532  36.847  11.910
30257W        W98475  15.773  43.911  12.175
30258W        W98476   1.502  40.331   3.379
30259W        W98477   2.221  33.956  14.965
30260W        W98478  33.319  16.229  11.730
30261W        W98479  40.617  31.593   4.751
30262W        W98480  19.753  26.447   2.813
30263W        W98481  20.610  25.173   4.535
30264W        W98482  33.656  17.000   0.392
30265W        W98483  11.295  20.513   3.746
30266W        W98484  19.146  33.465   2.754
30267W        W98485   6.237   6.773   2.359
30268W        W98486  39.365   2.215  13.926
30269W        W98487  42.302  39.384  14.347
30270W        W98488  20.401  44.955  12.600
30271W        W98489  41.088  27.030   0.769
30272W        W98490  33.647  19.551  13.372
30273W        W98491  30.562  10.246   4.777
30274W        W98492   5.123  20.486  13.404
30275W        W98493  18.131  25.379  11.615
30276W        W98494  35.647   4.790   0.274
30277W        W98495   2.787  29.917  14.003
30278W        W98496   8.144   1.186   5.308
30279W        W98497   2.015   7.506  11.184
30280W        W98498  12.259  12.138   4.750
30281W        W98499  37.087  28.053  14.414
30282W        W98500  32.767  38.530  11.984
30283W        W98501  32.150   1.948  11.196
30284W        W98502  18.709  27.226   2.787
30285W        W98503  38.509  41.970   2.748
30286W        W98504   7.463  39.921   0.960
30287W        W98505  19.839   0.436   2.793
30288W        W98506  10.355   9.126  14.340
30289W        W98507  18.572  43.053   0.969
30290W        W98508  18.068  23.476   4.648
30291W        W98509   4.174  17.571   2.315
30292W        W98510   4.430  20.136  12.000
30293W        W98511  15.440  29.204  13.894
30294W        W98512  17.702  28.118  14.953
30295W        W98513   5.191  23.740   1.390
30296W        W98514  40.586  10.392  13.780
30297W        W98515  39.502  34.876   4.946
30298W        W98516  30.177  11.354   1.905
30299W        W98517  23.992  20.246   2.366
30300W        W98518  39.535   8.325  13.924
30301W        W98519  16.736   6.328   2.643
30302W        W98520  19.992  10.260   4.851
30303W        W98521  25.718  10.233  11.963
30304W        W98522  31.641  16.123  13.494
30305W        W98523  39.529   4.991  11.063
30306W        W98524   7.952  19.314  13.329
30307W        W98525   6.489   3.145  12.448
30308W        W98526  36.599   8.526  11.455
30309W        W98527  28.129   0.190  12.618
30310W        W98528  36.443  18.881  14.217
30311W        W98529   8.295  16.032   0.826
30312W        W98530  39.679  11.810   3.965
30313W        W98531  31.886  23.691  14.365
30314W        W98532   6.105  39.390   9.830
30315W        W98533  13.203  43.046   1.963
30316W        W98534  27.737  14.129  11.179
30317W        W98535  28.984  34.874   0.953
30318W        W98536  24.583  15.473   0.907
30319W        W98537  13.418  20.755   1.346
30320W        W98538  14.200  40.973  14.032
30321W        W98539  36.140  22.730  14.179
30322W        W98540  38.581   6.218   3.738
30323W        W98541   6.904  26.525   2.209
30324W        W98542  21.070   0.883   0.818
30325W        W98543  15.342  16.093  14.036
30326W        W98544   8.728   1.558   2.279
30327W        W98545   6.862  38.074  12.447
30328W        W98546   4.869   8.062   4.651
30329W        W98547  39.385  18.443   2.151
30330W        W98548  36.893  34.638   1.259
30331W        W98549   0.409  13.877  12.999
30332W        W98550  20.806   2.644   1.878
30333W        W98551  15.109   5.757  14.518
30334W        W98552  29.714  43.863  11.551
30335W        W98553  32.616  32.483   3.169
30336W        W98554   2.285  17.123  12.037
30337W        W98555  38.588  32.411  12.345
30338W        W98556  26.472  39.473   3.773
30339W        W98557  11.292  15.881  12.967
30340W        W98558  12.619  19.114  11.464
30341W        W98559  18.046  10.377   0.319
30342W        W98560  25.718  27.569   1.434
30343W        W98561  24.283  32.973  14.065
30344W        W98562  13.262  14.257  14.276
30345W        W98563  26.228  36.274  11.976
30346W        W98564  37.415  36.642  12.897
30347W        W98565  43.677  40.281   1.818
30348W        W98566  36.606  31.533  14.374
30349W        W98567  42.769  36.574  13.864
30350W        W98568  27.527  30.124  12.694
30351W        W98569   1.264  13.306  12.959
30352W        W98570  40.881  42.869   0.874
30353W        W98571  34.099   5.703   3.090
30354W        W98572  27.074   9.981   1.138
30355W        W98573  36.967  40.927   1.165
30356W        W98574   1.243  20.517   1.723
30357W        W98575  20.752  12.086   3.549
30358W        W98576  19.802  18.752  12.434
30359W        W98577  25.006  18.219  12.383
30360W        W98578  13.801  19.339   4.070
30361W        W98579  13.572   7.714  12.855
30362W        W98580   5.847  34.539   3.069
30363W        W98581   4.414   0.337  14.888
30364W        W98582   8.867  19.115  12.523
30365W        W98583  23.864   7.936   1.550
30366W        W98584   8.370  30.603   4.162
30367W        W98585  12.032  30.548  10.250
30368W        W98586  29.803  39.589  11.346
30369W        W98587  14.829  39.041  12.222
30370W        W98588  40.338   1.240  10.237
30371W        W98589  16.438   6.923   0.311
30372W        W98590  12.201  43.303   2.925
30373W        W98591   3.754  27.240   0.079
30374W        W98592  29.942  10.173   3.611
30375W        W98593  15.930  29.520  10.833
30376W        W98594  19.177  31.003  12.829
30377W        W98595  39.072  41.344  14.795
30378W        W98596  28.064   9.906  12.507
30379W        W98597  38.748  26.643   2.301
30380W        W98598   3.581  43.244   0.660
30381W        W98599  30.981  28.699   9.814
30382W        W98600  43.392  37.119  13.549
30383W        W98601  10.400   3.622  14.467
30384W        W98602  15.955  41.595   4.104
30385W        W98603  39.039  29.927  14.962
30386W        W98604  39.330   3.672   0.936
30387W        W98605   3.671  27.298  11.963
30388W        W98606   3.666  11.784   2.257
30389W        W98607  24.756  14.512   3.140
30390W        W98608   6.662  32.006  11.203
30391W        W98609  22.478  37.907   4.132
30392W        W98610   8.211  30.383   0.070
30393W        W98611  43.037   6.411   2.741
30394W        W98612  10.135  40.432   4.851
30395W        W98613  19.517  19.038   3.277
30396W        W98614   3.651  29.006   4.661
30397W        W98615  15.808   0.693   5.113
30398W        W98616  41.259  40.521  11.549
30399W        W98617  38.011  40.368   0.580
30400W        W98618  20.018   7.718  11.697
30401W        W98619  17.810  29.222   1.205
30402W        W98620   1.207  28.511   0.306
30403W        W98621  19.581  35.120   1.130
30404W        W98622  40.691  27.399  14.061
30405W        W98623  42.846   9.950  10.702
30406W        W98624   1.495  22.681  14.984
30407W        W98625  32.859  18.612   1.334
30408W        W98626   2.657   2.755  11.182
30409W        W98627   9.068  17.794   2.247
30410W        W98628   3.927  25.397   0.955
30411W        W98629  28.851  19.779  12.182
30412W        W98630  30.354  36.337   4.178
30413W        W98631  10.965  33.153  12.432
30414W        W98632  34.234  34.849  11.426
30415W        W98633  39.542  19.743   3.303
30416W        W98634   6.878  14.400   4.272
30417W        W98635   6.898  41.055  14.477
30418W        W98636  40.560   2.485   2.399
30419W        W98637   5.449  31.231   3.103
30420W        W98638  35.219  23.696  12.545
30421W        W98639  23.588   5.741  11.554
30422W        W98640  35.401  23.178   2.207
30423W        W98641   9.308   4.552   1.311
30424W        W98642  19.211  24.197   4.131
30425W        W98643   6.760  13.803  12.070
30426W        W98644  43.790  30.923  14.820
30427W        W98645   8.346  28.713   4.054
30428W        W98646  21.079  23.423   0.951
30429W        W98647  38.856   2.322  14.046
30430W        W98648  34.611  16.773   3.697
30431W        W98649  33.378  41.632   3.573
30432W        W98650  17.972  21.232   3.414
30433W        W98651  40.825  40.752  11.132
30434W        W98652  43.827  32.606   4.680
30435W        W98653  17.775  36.524   3.571
30436W        W98654  42.039   3.083  13.132
30437W        W98655   2.519  30.373  12.971
30438W        W98656  33.493  34.133  14.216
30439W        W98657  32.296  40.343   0.924
30440W        W98658  26.581  39.315  11.486
30441W        W98659  33.571  22.765   2.280
30442W        W98660   1.242  42.278   2.979
30443W        W98661  40.917  44.481  14.782
30444W        W98662  14.256  43.842  14.234
30445W        W98663  43.272  27.219   0.938
30446W        W98664  21.582  38.804   4.250
30447W        W98665  10.984   3.371  11.496
30448W        W98666   6.445  33.656  11.593
30449W        W98667   8.282  19.098   5.297
30450W        W98668  36.302  24.514  12.535
30451W        W98669  24.438  15.718   4.892
30452W        W98670  28.449  29.534  12.997
30453W        W98671  24.699   1.817   3.160
30454W        W98672  33.053  13.167  12.510
30455W        W98673  14.763  20.504  10.678
30456W        W98674   7.511  31.024   2.842
30457W        W98675  27.062  30.848  10.743
30458W        W98676   1.802  40.775   0.348
30459W        W98677  34.405  13.647   4.619
30460W        W98678  31.577  10.076   1.245
30461W        W98679  22.735  41.797  10.972
30462W        W98680  13.155   9.643  10.590
30463W        W98681   7.770  16.317   3.324
30464W        W98682  35.938  32.985  14.806
30465W        W98683  41.448  19.137   2.681
30466W        W98684  20.070  21.419   4.592
30467W        W98685  14.118  34.573  12.636
30468W        W98686   9.192  36.457   1.401
30469W        W98687   4.423  32.492  13.620
30470W        W98688  24.226   3.937  10.438
30471W        W98689  26.234   8.751   0.763
30472W        W98690  23.003  23.818   0.371
30473W        W98691  44.209   2.508   5.124
30474W        W98692  37.244  27.733  13.263
30475W        W98693   7.959   2.345   3.591
30476W        W98694  20.139  30.197   0.854
30477W        W98695  31.267  40.969   4.879
30478W        W98696  23.969  12.348  12.615
30479W        W98697  29.468  19.043   4.177
30480W        W98698  18.124  32.029   0.398
30481W        W98699  19.692   7.158   0.395
30482W        W98700  25.755  16.403   4.446
30483W        W98701  23.243  19.626   0.017
30484W        W98702  12.224   5.499  14.165
30485W        W98703   0.453   2.723  12.920
30486W        W98704  16.821  15.142   2.728
30487W        W98705   6.597   8.275   1.276
30488W        W98706  40.032  44.481   1.132
30489W        W98707   0.564   0.377   1.092
30490W        W98708  18.162   2.293   0.577
30491W        W98709  29.398  10.897   1.227
30492W        W98710   8.159  38.398  12.627
30493W        W98711  25.147   0.503   4.842
30494W        W98712  21.660  38.037  14.897
30495W        W98713  43.407  36.441   2.443
30496W        W98714  44.492  35.251  11.617
30497W        W98715  33.605  23.788   5.101
30498W        W98716  38.825  41.393   0.254
30499W        W98717  33.626   1.267   0.847
30500W        W98718  14.336   6.391   1.336
30501W        W98719  10.253  15.379  13.326
30502W        W98720  32.453  20.331  12.821
30503W        W98721  11.819  36.560  14.051
30504W        W98722   6.180  25.994   3.285
30505W        W98723  31.133   8.421  12.495
30506W        W98724   7.699   5.661  14.448
30507W        W98725   7.329  38.436  11.980
30508W        W98726  16.471  19.755  11.253
30509W        W98727   7.238  36.434  12.022
30510W        W98728   0.663   8.864   5.220
30511W        W98729  15.452   9.252   2.459
30512W        W98730  29.690  41.607  14.064
30513W        W98731   4.706  21.514   2.311
30514W        W98732   9.196  29.911   2.257
30515W        W98733  23.225  40.873  10.948
30516W        W98734  41.930  27.494  14.727
30517W        W98735   8.700  26.261  11.595
30518W        W98736   8.443  10.267   1.850
30519W        W98737  13.076  30.071  14.298
30520W        W98738  16.757   6.217  14.036
30521W        W98739   7.138  20.526  11.592
30522W        W98740   2.033  22.537   3.389
30523W        W98741  26.313  36.930   4.406
30524W        W98742   0.391  14.576  10.618
30525W        W98743  17.263  10.393  10.633
30526W        W98744   4.674   7.187   4.508
30527W        W98745  27.469   4.948  13.379
30528W        W98746  43.278   2.087   4.309
30529W        W98747  11.254  32.667  13.299
30530W        W98748  13.841  24.740   2.016
30531W        W98749  26.485  22.090  10.286
30532W        W98750  19.680  24.006  14.396
30533W        W98751  28.621   3.377   9.818
30534W        W98752   7.368  26.492   1.980
30535W        W98753  22.032   4.051   4.673
30536W        W98754  38.284   8.834   1.352
30537W        W98755  13.837   9.806  12.091
30538W        W98756   5.867   0.921   2.653
30539W        W98757  42.906  33.654   1.289
30540W        W98758  29.497  25.587   4.592
30541W        W98759  11.071  37.868   1.446
30542W        W98760  43.948  26.276   1.843
30543W        W98761  27.463  44.429   2.128
30544W        W98762  14.777  24.304   1.802
30545W        W98763  28.453  10.818  13.211
30546W        W98764   4.309  24.100  11.500
30547W        W98765  30.254  24.512  12.057
30548W        W98766   0.734   4.130   4.311
30549W        W98767  34.650  36.250  12.165
30550W        W98768  37.271  25.323  13.377
30551W        W98769  15.048  24.758   2.678
30552W        W98770  28.096  14.210   2.340
30553W        W98771  30.642  22.031  14.695
30554W        W98772  37.456  27.402  10.623
30555W        W98773  35.986  41.505   2.687
30556W        W98774   2.377  20.124   0.416
30557W        W98775  44.442  22.491   3.607
30558W        W98776  20.572  12.674  13.977
30559W        W98777  42.990  16.289  11.521
30560W        W98778  20.415   9.646  12.568
30561W        W98779  34.082   9.470  13.832
30562W        W98780  34.948  22.269  12.051
30563W        W98781  35.148  37.607   1.660
30564W        W98782  41.743  39.338  11.114
30565W        W98783  16.613  11.866   4.218
30566W        W98784  12.642  42.839  13.377
30567W        W98785   2.766   1.143   4.506
30568W        W98786   6.374  11.906   0.301
30569W        W98787   6.234   0.771   0.908
30570W        W98788  29.481  28.612   0.110
30571W        W98789  39.860  36.941   2.460
30572W        W98790   3.744  35.783  14.750
30573W        W98791  12.697  35.928  12.095
30574W        W98792   1.046  16.372  14.817
30575W        W98793  14.192  15.906   3.291
30576W        W98794  44.203  42.733  14.513
30577W        W98795  22.358  43.099   1.876
30578W        W98796  29.746  33.198  13.509
30579W        W98797  17.638  34.353  10.908
30580W        W98798  23.943   5.198   2.772
30581W        W98799  19.071  22.497  12.017
30582W        W98800   6.286  21.478  14.424
30583W        W98801  30.006  21.690   4.320
30584W        W98802  30.877  16.593  14.351
30585W        W98803   8.291  23.393  10.683
30586W        W98804  12.925  20.477  14.920
30587W        W98805  38.300  26.265   0.171
30588W        W98806  40.059  43.553   0.832
30589W        W98807   9.901  27.186  14.044
30590W        W98808  40.911  42.266   2.803
30591W        W98809  37.721  37.597   2.720
30592W        W98810  37.546  42.504   0.875
30593W        W98811  31.073  29.606   0.434
30594W        W98812  31.070  39.093   4.394
30595W        W98813   5.622  19.712  13.133
30596W        W98814  11.287  15.071   0.995
30597W        W98815  30.008   4.912  13.780
30598W        W98816  21.579   4.349   1.388
30599W        W98817  26.706   4.494  12.841
30600W        W98818  21.961  33.140  13.567
30601W        W98819  35.362   9.742   1.665
30602W        W98820  30.101  43.029   4.644
30603W        W98821  27.957   4.066  13.061
30604W        W98822  21.133  10.653   2.627
30605W        W98823  33.303  39.823  14.864
30606W        W98824  30.320  25.555  13.401
30607W        W98825   8.920  41.178   2.744
30608W        W98826  35.934  24.581   2.798
30609W        W98827  14.782  12.211   2.404
30610W        W98828   5.821  37.466  14.270
30611W        W98829   7.509   8.736  12.476
30612W        W98830   0.289  16.140   4.753
30613W        W98831   6.210  24.633   0.449
30614W        W98832   1.233  28.601   1.920
30615W        W98833  19.181  21.464   4.516
30616W        W98834  22.738   4.828  10.549
30617W        W98835  21.483  32.566  14.270
30618W        W98836  20.648   1.418  12.918
30619W        W98837  16.835  15.384  13.827
30620W        W98838  28.742  18.589  11.418
30621W        W98839  26.060  37.015   0.202
30622W        W98840  32.844   6.867   4.835
30623W        W98841  24.217  40.832  10.717
30624W        W98842  12.317  14.792   1.599
30625W        W98843  30.930   6.438   2.696
30626W        W98844  34.023  39.064  13.487
30627W        W98845  24.012  43.560   1.280
30628W        W98846  44.669  12.272   4.168
30629W        W98847  33.103  21.466   3.779
30630W        W98848  41.047  20.210  13.420
30631W        W98849  32.515  41.224  14.862
30632W        W98850  33.426  38.017  11.597
30633W        W98851  25.987  24.121   3.743
30634W        W98852  18.548  37.607   4.533
30635W        W98853  11.176  17.783  10.825
30636W        W98854  42.488   6.608  11.603
30637W        W98855  26.173  41.585  14.307
30638W        W98856   0.311  10.584   3.361
30639W        W98857  24.420  33.369  11.566
30640W        W98858  43.354  39.973  10.612
30641W        W98859  42.703  25.703   2.738
30642W        W98860  17.253  30.025   0.992
30643W        W98861  31.109   4.193   1.441
30644W        W98862   1.215  12.678   0.256
30645W        W98863  35.537  31.447   0.314
30646W        W98864  13.084  23.622   3.296
30647W        W98865  27.424  25.432   1.905
30648W        W98866   7.637  12.771  12.466
30649W        W98867   8.548  19.727   3.903
30650W        W98868  11.681  44.294   0.692
30651W        W98869  25.650   2.514   1.454
30652W        W98870   4.724  38.882  14.735
30653W        W98871  36.655  24.515  13.486
30654W        W98872  28.314  30.421  11.706
30655W        W98873  28.846  35.034  14.962
30656W        W98874   8.880   1.322  13.905
30657W        W98875  38.844  43.728  13.259
30658W        W98876  35.386  14.366   0.893
30659W        W98877  18.708  32.967   3.569
30660W        W98878  42.923  12.766  10.718
30661W        W98879  41.636  43.113   3.253
30662W        W98880  13.125   5.696   4.871
30663W        W98881   3.881  20.562  13.754
30664W        W98882   7.817  35.141   4.219
30665W        W98883  38.672  30.612  11.756
30666W        W98884  36.908  19.130   1.818
30667W        W98885  11.913  25.570   4.625
30668W        W98886  11.734  34.601  11.640
30669W        W98887  28.720  42.500  12.948
30670W        W98888  40.755  32.486  13.846
30671W        W98889  44.813   5.071  13.079
30672W        W98890  37.562  10.886   0.347
30673W        W98891   3.978   7.130   0.036
30674W        W98892  31.509  18.129  13.149
30675W        W98893  32.894  20.167  13.542
30676W        W98894  16.645  40.722   0.463
30677W        W98895   0.917   3.930   1.309
30678W        W98896  15.150   2.343   1.665
30679W        W98897  34.048   1.732   4.186
30680W        W98898  17.109  33.036  11.326
30681W        W98899  22.066   8.213  13.855
30682W        W98900  41.261   4.338   4.837
30683W        W98901  25.850  17.701  10.410
30684W        W98902   3.266  19.781  12.298
30685W        W98903  40.507  26.140   0.723
30686W        W98904   4.410  19.447  11.136
30687W        W98905  21.605  42.995  11.805
30688W        W98906  10.376  12.802   0.991
30689W        W98907  39.497  30.527  13.378
30690W        W98908  17.160   7.872  13.083
30691W        W98909  33.531   2.257  12.496
30692W        W98910  14.212  34.586   1.245
30693W        W98911  43.747   4.760  14.410
30694W        W98912   9.800  22.625   3.501
30695W        W98913  19.822   4.961   1.019
30696W        W98914  28.225  21.034   3.852
30697W        W98915  27.857  31.663   4.088
30698W        W98916  33.722   7.241   4.538
30699W        W98917  40.943   4.760  13.973
30700W        W98918  39.226  32.098  14.447
30701W        W98919  28.579  24.795   3.615
30702W        W98920  30.872  28.451  10.269
30703W        W98921   1.449  30.494   3.747
30704W        W98922  12.119  26.446   0.541
30705W        W98923  10.340   9.660  11.154
30706W        W98924  40.872   7.137  14.075
30707W        W98925  32.469  14.425   3.235
30708W        W98926  42.739  32.689   0.552
30709W        W98927  13.793  11.632  12.527
30710W        W98928   7.746  43.741  14.695
30711W        W98929  40.842  24.959  13.592
30712W        W98930  36.088   6.382  13.489
30713W        W98931  35.971   0.222  13.421
30714W        W98932  35.013  42.807  11.493
30715W        W98933  27.718   2.667   1.856
30716W        W98934   0.095  27.417  13.432
30717W        W98935  42.536  33.847   4.761
30718W        W98936  24.492   2.732   2.250
30719W        W98937  23.194   9.074   4.155
30720W        W98938  25.440   7.371   3.152
30721W        W98939  36.017  28.441  10.989
30722W        W98940  30.547  21.574   1.487
30723W        W98941  12.049  43.775   5.000
30724W        W98942  26.241  35.072  13.075
30725W        W98943  34.500   0.029   3.149
30726W        W98944  44.097   0.190  11.174
30727W        W98945  38.646   4.035   1.451
30728W        W98946  28.880  32.769   1.797
30729W        W98947  35.099  32.687   2.686
30730W        W98948  13.814  39.292  13.024
30731W        W98949  12.855   1.461   3.796
30732W        W98950  42.220   7.921   4.250
30733W        W98951  30.986  42.847  13.024
30734W        W98952  35.412  11.902  14.805
30735W        W98953   6.392  35.971  12.010
30736W        W98954  25.273  36.852   2.395
30737W        W98955  22.489  32.054   0.797
30738W        W98956   5.717   6.301   2.660
30739W        W98957   6.839  32.952   1.173
30740W        W98958  12.486  43.048   4.638
30741W        W98959  22.255  32.141   2.463
30742W        W98960   6.977   4.879   1.654
30743W        W98961  42.007  28.767  13.386
30744W        W98962  14.053   6.855   1.801
30745W        W98963  16.884  27.140   3.630
30746W        W98964  36.770  16.769  11.602
30747W        W98965  32.399   2.346  10.920
30748W        W98966  18.593  27.898   0.825
30749W        W98967   3.323  18.149  12.955
30750W        W98968   7.295  25.338   1.325
30751W        W98969  14.613  42.928   1.694
30752W        W98970  30.597  26.140   2.590
30753W        W98971  31.449  21.992  10.701
30754W        W98972  11.955  14.194  14.228
30755W        W98973  18.187  18.528   4.453
30756W        W98974  26.285  13.510  11.048
30757W        W98975  15.223  14.334  12.557
30758W        W98976   2.973  37.906   1.425
30759W        W98977   6.254  21.860  11.977
30760W        W98978   2.302   4.718   9.944
30761W        W98979  10.744  41.885   1.404
30762W        W98980  23.737   8.303  14.460
30763W        W98981   3.734  10.153   3.607
30764W        W98982   5.335  39.815  14.742
30765W        W98983  26.054   1.132  12.523
30766W        W98984  26.896   6.752   2.319
30767W        W98985  34.080  35.838   4.237
30768W        W98986  36.596  38.954  14.422
30769W        W98987  39.020  22.801  10.815
30770W        W98988  22.755  19.241  11.285
30771W        W98989  19.022   3.830  10.482
30772W        W98990  18.648  34.979  11.488
30773W        W98991  31.962   5.209   3.661
30774W        W98992  23.445  16.285  11.612
30775W        W98993  16.734  27.475   3.272
30776W        W98994  18.449  27.906   2.250
30777W        W98995  39.340  35.203   0.890
30778W        W98996  37.932  43.222   0.243
30779W        W98997  39.556  30.400   3.693
30780W        W98998  31.190  41.294   3.074
30781W        W98999  37.256  37.023   0.483
30782W        W99000  21.289  26.555   2.359
30783W        W99001  14.907  22.519   2.630
30784W        W99002  15.772  35.333  10.605
30785W        W99003  31.642   0.286   4.259
30786W        W99004  38.842  18.588  14.913
30787W        W99005  23.214  12.002   0.818
30788W        W99006  22.714  32.989   3.595
30789W        W99007  15.560  12.676  12.426
30790W        W99008  11.046  34.536   2.279
30791W        W99009  12.128  39.986   0.891
30792W        W99010   8.444  28.971   4.505
30793W        W99011  36.604  42.899  14.776
30794W        W99012  35.079  35.208  11.318
30795W        W99013   9.437  21.591   3.547
30796W        W99014   4.745   5.911  12.695
30797W        W99015   3.775  27.958  13.890
30798W        W99016  33.453  13.047  11.265
30799W        W99017  34.866  21.156   3.274
30800W        W99018   0.263  21.623  14.461
30801W        W99019   8.142   2.842  11.606
30802W        W99020  21.770  28.473   1.316
30803W        W99021  36.078   1.674  11.165
30804W        W99022  44.006  41.551   1.487
30805W        W99023  38.347  38.295  13.849
30806W        W99024   2.061   1.362   2.961
30807W        W99025   4.034  42.233  10.651
30808W        W99026  26.009   4.998  12.503
30809W        W99027  22.564  35.050   3.345
30810W        W99028   3.012  23.757  14.882
30811W        W99029  14.260  20.347   2.375
30812W        W99030   5.419  34.567   2.747
30813W        W99031  40.798  41.550  12.551
30814W        W99032  10.188  42.351  10.748
30815W        W99033  35.450  10.398  14.954
30816W        W99034  27.900  14.802   1.220
30817W        W99035  18.840  31.612  12.912
30818W        W99036  31.981  36.358  10.175
30819W        W99037   1.115  40.382  13.270
30820W        W99038  42.751   2.452  12.331
30821W        W99039  31.069  24.817   0.579
30822W        W99040  27.456   5.371   2.732
30823W        W99041  22.191  40.968   2.367
30824W        W99042  22.329  42.443   0.422
30825W        W99043   3.062  30.483  11.144
30826W        W99044  12.701  28.056  11.096
30827W        W99045  22.961  23.260   4.567
30828W        W99046  40.803  21.064   2.848
30829W        W99047   1.857  34.161   1.284
30830W        W99048   8.364  23.078  14.525
30831W        W99049   1.718  37.039  13.057
30832W        W99050  34.331  16.231  11.416
30833W        W99051  33.545   0.930  11.277
30834W        W99052  41.019  12.062   1.756
30835W        W99053   0.824  42.360  13.938
30836W        W99054   3.012  28.656  11.238
30837W        W99055  24.400  24.805  10.279
30838W        W99056   1.403  19.586   4.811
30839W        W99057  35.767  43.963  10.701
30840W        W99058  37.007  10.854  12.435
30841W        W99059  34.309   2.267   4.831
30842W        W99060  44.321   5.165  12.597
30843W        W99061  31.030  16.770   1.937
30844W        W99062  38.401  28.163   0.679
30845W        W99063  26.450  28.085  10.937
30846W        W99064  10.814  29.086   0.955
30847W        W99065   2.580   0.133  11.131
30848W        W99066  39.834  27.817   0.735
30849W        W99067  34.480   4.320   3.792
30850W        W99068  25.489  36.125   4.958
30851W        W99069   3.151  20.261  13.563
30852W        W99070  42.954   3.722   0.273
30853W        W99071  39.496  17.668   4.655
30854W        W99072  34.521  33.175   3.527
30855W        W99073  16.186   7.233  10.708
30856W        W99074  27.495   3.711  14.912
30857W        W99075  29.623  42.992  14.781
30858W        W99076  43.991  11.213  11.187
30859W        W99077  28.949  40.211  12.494
30860W        W99078   8.440  37.851  10.708
30861W        W99079   9.297  20.671  14.016
30862W        W99080  33.407  40.330  12.942
30863W        W99081  43.482  19.711  10.756
30864W        W99082  10.853  36.880   2.369
30865W        W99083  26.235  28.489  14.862
30866W        W99084  31.352  23.680  14.492
30867W        W99085  28.287  16.128  14.807
30868W        W99086  35.426  39.993   3.584
30869W        W99087   2.933   0.211   4.203
30870W        W99088  15.221  20.368   2.806
30871W        W99089  13.075   3.976  12.917
30872W        W99090  35.837  25.972   1.534
30873W        W99091  28.981  11.813   2.156
30874W        W99092   4.234  38.349   3.198
30875W        W99093   5.060  41.192  12.316
30876W        W99094  18.247  20.605   4.530
30877W        W99095  11.220   9.227  10.402
30878W        W99096  32.931  22.236   0.024
30879W        W99097   6.660  17.803   0.308
30880W        W99098  17.086  27.560   4.512
30881W        W99099  34.191   0.292  13.651
30882W        W99100  40.249   7.623   2.907
30883W        W99101  28.049  22.143   4.375
30884W        W99102   5.378  16.967   2.250
30885W        W99103  29.057  11.346  10.713
30886W        W99104  41.333  28.612   1.319
30887W        W99105  21.993  30.238  13.269
30888W        W99106  35.905  15.415  11.570
30889W        W99107   0.444  41.127   0.946
30890W        W99108  22.085  13.706   4.498
30891W        W99109  13.310  11.103   3.434
30892W        W99110  31.495  29.889  10.674
30893W        W99111  20.402  36.605   0.380
30894W        W99112  24.813   2.329  14.978
30895W        W99113  23.853  38.404   0.840
30896W        W99114  10.757  22.746   3.883
30897W        W99115  40.135  17.088  12.900
30898W        W99116  40.781  10.347   5.286
30899W        W99117  21.835  19.639  10.813
30900W        W99118   7.604  42.278  10.739
30901W        W99119  43.980  42.582  12.518
30902W        W99120  42.028  23.355   2.643
30903W        W99121   0.901  35.983   4.520
30904W        W99122  33.192  15.215   2.720
30905W        W99123  40.367  35.053  13.114
30906W        W99124  35.892  20.561   2.802
30907W        W99125  18.185  38.442  12.597
30908W        W99126  25.451  29.112   1.849
30909W        W99127   8.426   0.159  11.925
30910W        W99128  10.392  43.268   3.357
30911W        W99129  34.967  44.400   1.246
30912W        W99130  16.902  26.407   2.222
30913W        W99131  29.968  31.404  13.748
30914W        W99132  24.616   0.287   2.395
30915W        W99133   9.140   2.303   4.263
30916W        W99134  42.842   7.887   4.134
30917W        W99135  34.569  35.867   0.802
30918W        W99136  16.065  11.964   3.457
30919W        W99137  14.130  24.272   3.697
30920W        W99138  29.726  12.577  10.707
30921W        W99139  29.884  16.215   1.726
30922W        W99140   1.538  29.901  13.506
30923W        W99141   0.972  38.034   1.359
30924W        W99142   9.659  14.388  11.338
30925W        W99143  24.065  11.464   4.620
30926W        W99144  35.761   1.453  11.503
30927W        W99145   6.349  23.080  11.823
30928W        W99146  36.952  19.111  13.118
30929W        W99147  22.049  37.906   3.814
30930W        W99148   8.879  25.999  13.079
30931W        W99149  39.909  34.775  13.003
30932W        W99150  22.204   1.404   1.413
30933W        W99151   8.844  40.994   2.263
30934W        W99152   4.982  37.424  12.054
30935W        W99153  20.769  31.659   4.605
30936W        W99154  29.389  10.334   2.749
30937W        W99155  42.579  28.198   4.147
30938W        W99156  31.011  28.365  13.853
30939W        W99157  29.064   3.389   1.757
30940W        W99158   8.287  35.012   0.196
30941W        W99159   8.778  31.576   4.148
30942W        W99160  28.333  12.542  11.459
30943W        W99161  28.946  33.952   1.434
30944W        W99162   0.917  27.640   4.875
30945W        W99163   7.607  10.164   1.386
30946W        W99164  20.548   7.837  13.830
30947W        W99165   2.565   3.895  13.002
30948W        W99166  36.489  29.687  12.918
30949W        W99167  31.458   2.932   3.667
30950W        W99168  37.341   5.874  10.929
30951W        W99169  16.774   6.540  14.937
30952W        W99170  38.956  27.599  14.053
30953W        W99171  27.549  17.136   3.650
30954W        W99172  19.905  10.424   0.470
30955W        W99173  40.311  36.336   2.837
30956W        W99174  36.030   3.397  11.729
30957W        W99175  10.681   2.785   4.124
30958W        W99176  17.694  28.478   3.254
30959W        W99177   3.488  21.955  14.816
30960W        W99178  13.923  31.600   4.410
30961W        W99179  10.149  32.073   1.862
30962W        W99180  43.856   1.563   1.183
30963W        W99181   5.860  11.787  14.458
30964W        W99182  37.810  26.430   0.239
30965W        W99183  31.465  32.972   2.524
30966W        W99184  37.430  19.852   0.443
30967W        W99185  33.558  34.264  13.466
30968W        W99186   3.727   2.398   1.466
30969W        W99187  20.284  11.404  12.027
30970W        W99188  44.495  14.397  13.993
30971W        W99189  26.713  18.625   1.506
30972W        W99190   5.411  18.568   3.924
30973W        W99191  35.449  37.794   2.086
30974W        W99192   2.241   9.955  10.551
30975W        W99193   1.745  14.278   1.239
30976W        W99194  28.114  11.303  11.122
30977W        W99195   5.119  13.302   0.838
30978W        W99196   9.032   2.906  14.730
30979W        W99197   3.209   7.989   1.953
30980W        W99198  29.457   6.666  11.561
30981W        W99199   1.324  10.245  11.467
30982W        W99200  13.199   2.781  11.633
30983W        W99201  20.166  27.623   2.867
30984W        W99202  32.816  40.920   1.238
30985W        W99203  29.567  35.642   2.640
30986W        W99204  36.306  41.340  14.456
30987W        W99205  42.955   7.905   2.655
30988W        W99206   7.649  33.519   4.488
30989W        W99207  17.742  40.524  11.245
30990W        W99208  34.676   8.673   2.414
30991W        W99209  13.722  19.519   3.588
30992W        W99210  40.169  17.091   4.886
30993W        W99211  10.328  33.557   0.998
30994W        W99212  25.183  17.629  13.319
30995W        W99213   3.667  21.030   2.407
30996W        W99214  36.052  32.628  13.632
30997W        W99215   1.869  41.225  12.544
30998W        W99216  22.224   4.886  11.686
30999W        W99217  36.807  16.497  12.920
31000W        W99218  40.888  37.374   0.769
31001W        W99219  21.239  21.414  10.990
31002W        W99220  17.029  39.572  11.112
31003W        W99221   4.956   1.412  10.750
31004W        W99222  44.935  11.641  11.486
31005W        W99223  11.323  17.009   0.341
31006W        W99224  18.010  27.117   0.784
31007W        W99225  22.064  12.232   4.220
31008W        W99226  28.365  21.640   2.625
31009W        W99227  33.421  12.730   3.171
31010W        W99228  29.142  31.970  13.025
31011W        W99229  41.556  33.540   3.960
31012W        W99230  36.869  34.704  14.355
31013W        W99231   8.267  18.200  13.974
31014W        W99232  35.210  34.474  11.908
31015W        W99233  11.861  26.824   4.247
31016W        W99234  18.675  35.328   1.335
31017W        W99235  35.382  44.402   0.881
31018W        W99236   6.297  16.812   5.228
31019W        W99237  34.224  12.902  14.961
31020W        W99238  24.371  36.910  11.057
31021W        W99239  37.801  25.136  11.919
31022W        W99240  15.090   5.254  14.631
31023W        W99241  18.157  18.060  13.843
31024W        W99242  42.171  40.348  11.511
31025W        W99243  42.044  26.545  12.136
31026W        W99244   2.488  40.587   1.953
31027W        W99245  35.971  30.183  12.402
31028W        W99246  19.664  10.872   1.400
31029W        W99247  25.517  35.159   3.520
31030W        W99248  21.954   9.325   2.770
31031W        W99249  23.184  30.991  11.506
31032W        W99250  11.193  18.328  12.030
31033W        W99251  23.479   5.798   1.903
31034W        W99252   2.840   8.442  12.174
31035W        W99253   5.752   0.502   4.273
31036W        W99254  42.846  17.851   4.805
31037W        W99255  35.607  40.923  12.026
31038W        W99256  32.460  12.282  10.555
31039W        W99257  25.224   0.373   3.183
31040W        W99258   1.284  26.141  13.330
31041W        W99259   6.890  18.124   4.102
31042W        W99260  32.552  25.022  14.224
31043W        W99261  15.763  12.873  14.518
31044W        W99262  30.665  42.247   2.105
31045W        W99263  34.476  19.841  11.489
31046W        W99264  29.472  19.387  12.870
31047W        W99265  39.237  18.745   3.820
31048W        W99266  28.048  21.068   1.920
31049W        W99267  16.949  25.181  12.881
31050W        W99268  24.989  38.509  11.789
31051W        W99269  36.300  36.016   1.436
31052W        W99270  16.311   9.994   1.303
31053W        W99271   3.466  39.445  13.449
31054W        W99272  20.129  36.380  13.589
31055W        W99273  42.020  43.059   4.815
31056W        W99274  21.317  32.976   0.021
31057W        W99275  13.716  23.649   0.749
31058W        W99276  12.708  44.330  12.109
31059W        W99277  27.720   9.812  14.441
31060W        W99278   3.458  18.903   0.293
31061W        W99279  43.887  44.008  12.516
31062W        W99280  39.073  25.913  11.056
31063W        W99281  44.660  44.458  10.708
31064W        W99282  37.145  39.429  12.470
31065W        W99283  22.782  26.914  11.598
31066W        W99284  18.192  43.929  11.568
31067W        W99285  27.561  25.649   3.379
31068W        W99286   0.218  40.734  12.489
31069W        W99287  41.084  28.563   3.302
31070W        W99288  13.791  23.472   0.226
31071W        W99289  38.453   9.362  11.157
31072W        W99290  40.795  21.448   0.017
31073W        W99291  11.107   1.032  14.272
31074W        W99292   3.732  15.690   0.715
31075W        W99293   7.944  13.888   2.689
31076W        W99294   7.346  20.256  13.973
31077W        W99295  33.564   5.284  14.355
31078W        W99296   2.955  13.352   3.288
31079W        W99297  28.560  34.936   3.259
31080W        W99298   2.413  21.634  10.847
31081W        W99299  42.331  44.797  12.063
31082W        W99300  15.011  12.882  14.868
31083W        W99301  18.154  15.308   2.302
31084W        W99302  15.962  38.020   3.007
31085W        W99303  27.679  33.446  14.818
31086W        W99304   4.109  32.314   0.466
31087W        W99305  37.841   7.655  14.085
31088W        W99306  34.395  33.563   2.352
31089W        W99307  40.992  17.559   2.908
31090W        W99308  18.806  37.642   1.425
31091W        W99309   0.094  36.314  14.431
31092W        W99310  13.375  30.482  14.390
31093W        W99311   9.225  12.665  12.474
31094W        W99312   5.657  43.728   4.413
31095W        W99313  12.746  21.703   2.826
31096W        W99314  38.086  24.792   0.688
31097W        W99315  33.463  40.512  12.447
31098W        W99316   8.613  12.173   2.300
31099W        W99317   0.508   9.247  10.611
31100W        W99318  32.826  37.772  14.866
31101W        W99319  30.979  42.613   1.941
31102W        W99320  36.864   6.242  14.090
31103W        W99321  41.707  32.358   4.203
31104W        W99322   5.838   8.668  13.202
31105W        W99323  27.924  31.477  11.543
31106W        W99324  27.961  44.368   3.763
31107W        W99325  14.144  41.908  14.452
31108W        W99326  28.934  30.944   0.241
31109W        W99327  11.362   3.431   0.354
31110W        W99328   0.785  34.949   1.815
31111W        W99329  31.619  25.236  11.684
31112W        W99330   5.976   7.439  10.048
31113W        W99331   1.960   5.726  10.708
31114W        W99332  14.736   3.601  12.774
31115W        W99333  10.901  18.513  11.058
31116W        W99334  43.491  27.429  11.709
31117W        W99335   5.976   0.458   3.390
31118W        W99336  20.771  23.386  11.179
31119W        W99337  43.781  12.198   4.058
31120W        W99338  21.176  37.714   9.712
31121W        W99339  34.646  22.153   3.745
31122W        W99340   0.796  20.762   1.782
31123W        W99341   5.723  22.276   3.804
31124W        W99342  16.808  43.482   0.327
31125W        W99343   7.802  10.644  13.230
31126W        W99344   9.689   6.451  13.622
31127W        W99345  33.123  15.632   2.444
31128W        W99346  30.028  25.521  13.883
31129W        W99347  33.807  13.386   0.439
31130W        W99348  44.099   4.927   1.845
31131W        W99349  43.778  21.872   3.324
31132W        W99350   2.863  30.557  14.933
31133W        W99351  26.104  37.614   3.196
31134W        W99352  20.902   5.226  11.982
31135W        W99353   0.527  37.467  10.806
31136W        W99354  26.957   7.278  13.815
31137W        W99355  31.679  39.911  13.363
31138W        W99356   8.074  15.123   4.549
31139W        W99357  32.057   8.983  11.568
31140W        W99358  15.685  13.248   2.396
31141W        W99359  31.734  10.943   0.004
31142W        W99360   5.863   5.790   1.824
31143W        W99361   5.198  34.116  12.653
31144W        W99362   5.651  17.765   1.776
31145W        W99363  23.520  17.313  11.590
31146W        W99364  11.932  32.539   1.835
31147W        W99365  17.582   9.771  14.087
31148W        W99366   4.338  28.144   4.828
31149W        W99367  41.442  10.900   1.737
31150W        W99368  31.372  10.356   0.760
31151W        W99369  31.127  29.373   2.060
31152W        W99370  37.973  38.392   0.289
31153W        W99371  34.061  36.468   2.311
31154W        W99372   7.914  42.763  13.420
31155W        W99373  31.184  36.623   3.771
31156W        W99374  31.632  15.585  12.407
31157W        W99375  15.606  26.750  12.981
31158W        W99376  40.971   2.395  12.664
31159W        W99377  28.180  14.311  12.550
31160W        W99378   5.013   4.832   4.560
31161W        W99379  35.211  38.893  12.234
31162W        W99380  18.380  41.820  11.634
31163W        W99381  25.453   8.763   4.630
31164W        W99382  34.960  25.931   0.006
31165W        W99383  13.328  24.790   2.203
31166W        W99384  22.579  16.764   2.688
31167W        W99385  30.638   0.855   0.074
31168W        W99386  17.144  17.628   1.246
31169W        W99387  23.592   0.295  10.885
31170W        W99388  18.130   1.822  13.914
31171W        W99389  23.266   1.822   2.740
31172W        W99390   7.711  14.668   4.597
31173W        W99391  34.825  31.821  10.802
31174W        W99392  11.067  21.634  12.945
31175W        W99393   7.629  20.586  12.992
31176W        W99394  11.371  29.488  13.539
31177W        W99395  23.132  40.577  12.133
31178W        W99396  13.271  32.325   3.631
31179W        W99397   8.317  18.727   1.870
31180W        W99398  36.716  15.721   3.739
31181W        W99399   8.655  31.247   4.682
31182W        W99400  27.556  38.788   0.289
31183W        W99401  33.399   7.242   0.542
31184W        W99402  10.874  11.235   2.854
31185W        W99403  18.146  29.076  13.426
31186W        W99404  36.003   5.931   1.168
31187W        W99405  43.038  20.009   4.348
31188W        W99406  21.710  40.862   1.552
31189W        W99407  20.127  30.527   5.017
31190W        W99408  17.685   9.973   1.491
31191W        W99409   7.658  31.127  13.809
31192W        W99410   6.149  13.141  11.880
31193W        W99411  38.025  22.532   1.294
31194W        W99412  43.517  20.992   0.852
31195W        W99413  41.504   4.459  14.619
31196W        W99414  30.677  25.375  12.504
31197W        W99415   1.337  19.102  12.516
31198W        W99416  15.352  14.062   1.902
31199W        W99417  36.127  38.991   1.890
31200W        W99418  41.506  25.254   1.842
31201W        W99419  12.804  32.833  11.178
31202W        W99420  16.076  14.729  12.183
31203W        W99421   9.731   8.619   1.763
31204W        W99422  33.996   1.389   0.025
31205W        W99423  16.662  26.952  10.771
31206W        W99424   3.045  19.253   0.351
31207W        W99425  18.097  16.303   3.197
31208W        W99426  11.971  23.203  13.074
31209W        W99427   9.325  44.473   4.759
31210W        W99428   3.121  31.448  13.131
31211W        W99429  11.779  16.480   0.710
31212W        W99430  44.933   9.941   3.601
31213W        W99431  12.877   7.925   2.785
31214W        W99432  42.301  18.474  11.949
31215W        W99433   6.614  40.975   2.709
31216W        W99434  42.151  25.171  12.291
31217W        W99435   3.929   6.022   3.567
31218W        W99436   8.884  27.187   2.362
31219W        W99437  12.648  19.269   4.484
31220W        W99438  42.527   5.538  13.759
31221W        W99439  42.774  38.033  11.063
31222W        W99440  43.856  14.172  12.488
31223W        W99441  19.068  40.343   1.496
31224W        W99442  25.682   1.730   2.731
31225W        W99443  35.738  34.584  11.737
31226W        W99444  27.870  15.819  11.251
31227W        W99445   1.050  23.243   2.705
31228W        W99446  32.155  31.974  13.498
31229W        W99447  41.595   7.089   4.859
31230W        W99448  25.317  30.888  14.564
31231W        W99449  17.175  39.584  14.363
31232W        W99450   1.389  15.549  13.676
31233W        W99451  40.806  17.806  14.364
31234W        W99452   6.011  30.197  12.710
31235W        W99453   2.520  22.702  12.368
31236W        W99454  11.897   7.305  14.947
31237W        W99455   8.888  22.948  11.378
31238W        W99456  36.836  39.888   4.584
31239W        W99457  33.629  31.969  14.358
31240W        W99458   2.218  27.176   0.848
31241W        W99459  21.118  24.734  10.661
31242W        W99460   4.158   4.869   0.338
31243W        W99461  33.062  37.575  11.196
31244W        W99462   1.897   7.844  12.947
31245W        W99463  10.150  31.252  14.315
31246W        W99464  37.133  16.087   3.099
31247W        W99465  41.072   4.023  10.559
31248W        W99466  29.720  32.176  11.054
31249W        W99467   5.045  27.887   2.256
31250W        W99468  19.013  32.020  13.186
31251W        W99469  12.758  23.241   0.816
31252W        W99470   9.364  24.731   0.811
31253W        W99471  18.958   4.883  11.884
31254W        W99472   6.830  16.030   2.262
31255W        W99473  44.014  36.531   3.403
31256W        W99474   8.895  19.374  11.632
31257W        W99475  42.427  39.875   4.760
31258W        W99476  38.960  13.376  12.474
31259W        W99477  27.457  21.515  12.273
31260W        W99478  19.505  19.902   2.772
31261W        W99479  43.841  37.394  13.592
31262W        W99480   6.807  21.886   4.621
31263W        W99481  15.780   3.806  14.588
31264W        W99482  45.000  40.802   4.215
31265W        W99483  19.713  20.147   4.980
31266W        W99484  30.154  11.391   0.963
31267W        W99485   6.434  29.549   1.190
31268W        W99486  13.411  15.902   0.478
31269W        W99487  43.531  22.608   9.968
31270W        W99488   8.113  18.156  13.470
31271W        W99489  13.478  31.917  14.440
31272W        W99490   3.431  13.529  12.860
31273W        W99491  43.287  37.432   0.565
31274W        W99492  37.338  22.081  13.431
31275W        W99493  38.832  43.837  13.790
31276W        W99494  16.282   8.130   3.317
31277W        W99495  31.607   4.177  13.870
31278W        W99496  33.821  21.204   3.224
31279W        W99497   7.504   5.434  10.957
31280W        W99498  43.687  40.013   0.471
31281W        W99499  34.240  33.232  12.605
31282W        W99500   0.637  24.590  11.477
31283W        W99501   8.671  27.828   0.226
31284W        W99502  39.508  26.203  10.984
31285W        W99503  35.591  16.593  10.574
31286W        W99504  29.304   8.930   2.818
31287W        W99505   3.492  13.293  14.136
31288W        W99506  36.010  39.107  11.937
31289W        W99507  37.553  10.716   1.233
31290W        W99508  28.603   7.695   4.111
31291W        W99509  41.338  27.271   2.175
31292W        W99510  25.805  23.656   0.048
31293W        W99511  43.730   1.983  14.636
31294W        W99512   3.185  43.542  12.121
31295W        W99513  17.708  17.178  13.340
31296W        W99514   5.163   6.929  10.915
31297W        W99515  36.596   0.850  12.407
31298W        W99516  23.998  39.348   0.721
31299W        W99517  43.864   1.954   2.058
31300W        W99518   9.407  17.088   3.216
31301W        W99519  33.567  20.179   0.324
31302W        W99520   7.888  25.199   2.643
31303W        W99521  30.006   5.466  12.060
31304W        W99522  11.856   4.296   4.617
31305W        W99523   6.862   5.033   2.130
31306W        W99524   1.358  37.524   2.147
31307W        W99525  20.682  11.042  12.640
31308W        W99526   1.577  34.917   2.165
31309W        W99527  15.763  44.389  12.376
31310W        W99528  32.039  30.212   0.832
31311W        W99529   6.155  15.841  10.291
31312W        W99530  28.194  38.659   3.733
31313W        W99531  29.252  36.822  13.946
31314W        W99532   3.771  42.968   4.152
31315W        W99533  34.552   8.929   0.909
31316W        W99534   1.472  30.666   4.231
31317W        W99535  36.183  26.959   2.761
31318W        W99536   6.257  39.001  13.675
31319W        W99537  40.920  44.033  12.839
31320W        W99538  12.866  30.082  14.778
31321W        W99539  13.727   3.493  13.491
31322W        W99540  41.310   3.725   9.790
31323W        W99541  44.870  31.437  11.605
31324W        W99542   8.740  19.299   5.144
31325W        W99543   1.013  33.962   4.333
31326W        W99544  38.845  19.132  14.825
31327W        W99545   6.872  28.093   0.825
31328W        W99546  14.784  40.351  14.661
31329W        W99547  27.652  11.661  11.054
31330W        W99548  18.568  41.945  12.545
31331W        W99549  17.025  18.575   4.538
31332W        W99550  39.964  22.942   4.677
31333W        W99551   2.667  20.022   3.688
31334W        W99552  22.020  34.631   1.822
31335W        W99553  22.721  27.542   1.194
31336W        W99554  30.758  27.458  14.929
31337W        W99555  10.274   3.897   0.533
31338W        W99556  13.036  21.012  11.157
31339W        W99557  35.954  30.891   1.949
31340W        W99558  14.046  17.213   1.803
31341W        W99559  16.455  19.959  14.414
31342W        W99560  38.987  22.582   3.329
31343W        W99561  44.511   0.982   0.526
31344W        W99562   9.914  42.881  14.069
31345W        W99563  28.479  11.946  14.307
31346W        W99564  17.663  31.434  12.493
31347W        W99565  21.028  37.524   1.144
31348W        W99566   1.839   4.880   1.960
31349W        W99567   1.821  16.811  14.775
31350W        W99568  43.164  34.594   2.477
31351W        W99569  14.878  22.563  10.702
31352W        W99570   9.093  13.213   0.960
31353W        W99571  29.120  41.025   1.441
31354W        W99572  21.451   0.264  11.950
31355W        W99573  41.377  37.605   1.472
31356W        W99574   2.401   0.363  13.921
31357W        W99575  36.968  24.769  14.848
31358W        W99576  35.618  10.019   4.443
31359W        W99577  24.722   3.805   1.761
31360W        W99578  36.927   3.263  11.738
31361W        W99579  16.169  12.155  12.043
31362W        W99580  34.785   2.747  14.990
31363W        W99581  21.122  35.500   1.171
31364W        W99582  39.433  30.527  10.591
31365W        W99583  38.963  34.534   1.702
31366W        W99584  44.473  40.617  14.946
31367W        W99585   4.319  25.731   2.694
31368W        W99586   9.385   7.306   2.421
31369W        W99587   4.153  40.722  13.866
31370W        W99588  43.025  19.679  10.975
31371W        W99589  16.564   5.059   3.157
31372W        W99590  20.834  17.311  13.395
31373W        W99591  22.106  43.950   4.023
31374W        W99592  23.457   9.626   1.776
31375W        W99593  31.074  29.460   1.336
31376W        W99594  23.892  40.042   2.842
31377W        W99595  28.485  36.601   0.971
31378W        W99596  23.897  33.385   3.340
31379W        W99597  33.728  39.344   1.675
31380W        W99598  43.518  44.699  13.415
31381W        W99599  30.363  25.749  11.181
31382W        W99600   6.832  34.115  10.703
31383W        W99601   9.206  22.556  11.409
31384W        W99602  13.860   6.884  14.619
31385W        W99603  16.153  13.651   2.261
31386W        W99604  18.590   2.153  10.372
31387W        W99605  20.105  19.091  12.648
31388W        W99606  23.006  16.668   4.486
31389W        W99607  37.603  34.824  11.142
31390W        W99608  33.407   3.456  14.789
31391W        W99609  28.639   8.217   1.646
31392W        W99610  33.840  12.182   1.687
31393W        W99611   0.495  40.763   4.083
31394W        W99612  44.517  34.843  12.465
31395W        W99613  37.407   1.204  14.067
31396W        W99614   0.866   1.320   4.888
31397W        W99615  10.249   3.158   2.777
31398W        W99616   7.426  32.044   3.755
31399W        W99617  26.211  20.716  13.257
31400W        W99618   1.511  31.713  13.971
31401W        W99619   9.879  30.524  12.109
31402W        W99620  22.794  23.036   4.142
31403W        W99621  17.640  37.069  13.493
31404W        W99622  28.131   6.617   0.877
31405W        W99623  43.905  18.197   2.752
31406W        W99624  13.347   9.402   1.281
31407W        W99625  32.602  33.865  13.471
31408W        W99626  38.598  22.771   2.347
31409W        W99627  23.629  12.282   3.741
31410W        W99628  15.761  38.109  12.597
31411W        W99629  30.950   2.214  14.476
31412W        W99630   4.327  14.030  10.721
31413W        W99631   3.023  13.329  13.891
31414W        W99632   5.264   2.108  10.730
31415W        W99633  43.299  25.018  11.792
31416W        W99634  17.096   4.799  11.424
31417W        W99635  29.569  38.302  13.866
31418W        W99636  43.358  35.396   1.689
31419W        W99637  42.277  23.988   4.691
31420W        W99638   5.724  43.040   2.003
31421W        W99639  18.467  23.253  11.438
31422W        W99640   2.930   1.190   0.442
31423W        W99641  30.155   7.341   3.348
31424W        W99642  19.149  35.961  10.762
31425W        W99643  14.667   5.931   1.265
31426W        W99644  13.350  27.114   2.714
31427W        W99645  42.393  29.187   4.022
31428W        W99646  34.578  21.580   0.400
31429W        W99647  22.162  26.562  13.884
31430W        W99648  26.455  11.711  14.940
31431W        W99649  44.695  22.928   4.679
31432W        W99650  21.740  36.172  10.703
31433W        W99651   8.827  20.205   1.654
31434W        W99652  16.336  24.634   0.682
31435W        W99653  33.909  25.833   3.291
31436W        W99654   6.413   6.115   0.687
31437W        W99655  11.148   1.668   0.200
31438W        W99656   1.727  18.097  13.848
31439W        W99657  19.287  44.215  11.628
31440W        W99658  41.316   9.376   0.821
31441W        W99659  31.618  16.302  12.970
31442W        W99660  32.395  38.770   4.346
31443W        W99661  27.420  37.910  11.135
31444W        W99662  35.044  31.674   0.331
31445W        W99663  27.003  43.254  11.082
31446W        W99664  24.895  37.006  10.998
31447W        W99665   2.220  18.635   4.307
31448W        W99666  26.110  26.550  12.007
31449W        W99667  22.796  17.566   0.003
31450W        W99668  44.263  35.596   0.651
31451W        W99669  15.586  21.592  13.613
31452W        W99670  40.790   2.303   3.960
31453W        W99671   0.014  20.548  13.813
31454W        W99672  15.732   9.158   2.888
31455W        W99673  15.296  43.996   3.734
31456W        W99674  19.904  17.700  13.442
31457W        W99675  39.535  15.255   2.630
31458W        W99676  42.004   2.359   0.306
31459W        W99677  20.127  29.882  13.788
31460W        W99678  11.266  13.108  13.359
31461W        W99679  31.663  30.407  13.314
31462W        W99680  43.364   5.698   3.732
31463W        W99681  30.080  31.539   4.582
31464W        W99682  37.571   9.905  13.249
31465W        W99683  29.112   7.928  11.030
31466W        W99684  17.305  24.557   2.800
31467W        W99685  22.027  30.367   1.288
31468W        W99686  28.723  35.807  14.903
31469W        W99687   5.360  19.247  13.958
31470W        W99688  34.580  37.320   3.209
31471W        W99689   6.941  43.388  13.452
31472W        W99690  13.561  25.574  13.884
31473W        W99691  18.642   0.052  13.469
31474W        W99692  31.448  28.620  14.443
31475W        W99693  43.855  37.994   0.883
31476W        W99694  11.269   4.320  14.993
31477W        W99695  37.866  43.988   3.071
31478W        W99696   9.625  23.245   1.399
31479W        W99697  39.552   1.420   1.505
31480W        W99698  13.269  44.497   2.794
31481W        W99699  44.779   8.590  11.155
31482W        W99700  11.084  27.893   1.270
31483W        W99701   0.679  29.825   2.897
31484W        W99702   9.263  34.758   2.619
31485W        W99703  39.475  17.542  14.359
31486W        W99704  23.392  30.003   2.918
31487W        W99705  40.240  31.806  11.130
31488W        W99706  43.721  12.119  11.092
31489W        W99707  13.325  25.134  13.093
31490W        W99708  27.198   1.355  11.212
31491W        W99709  33.984  22.550   3.637
31492W        W99710  30.041  12.172  13.509
31493W        W99711  39.750  43.258   2.701
31494W        W99712  23.554  23.571  10.567
31495W        W99713  32.073  25.567   1.269
31496W        W99714  42.230  39.447  14.862
31497W        W99715  16.059  37.509   1.257
31498W        W99716  22.093   3.656  12.892
31499W        W99717  10.773  10.381   4.406
31500W        W99718  38.906  22.707  12.079
31501W        W99719  40.996  21.673   0.499
31502W        W99720  25.852  24.121  10.991
31503W        W99721  17.782   0.855  13.797
31504W        W99722  16.146  29.503   1.179
31505W        W99723   6.329  17.175   3.491
31506W        W99724   6.378   5.785  13.487
31507W        W99725  43.076  43.053   2.748
31508W        W99726  24.295  11.862  11.622
31509W        W99727   3.458  10.775  11.693
31510W        W99728  32.770  32.427  13.526
31511W        W99729  42.954  31.535  12.970
31512W        W99730  21.523  34.647  13.879
31513W        W99731  42.838  11.131  14.808
31514W        W99732  44.300  17.287  13.559
31515W        W99733  19.526  35.601  13.371
31516W        W99734  20.699  30.552  13.777
31517W        W99735  15.114  10.341   3.189
31518W        W99736  27.699  22.934  12.041
31519W        W99737  43.023  21.771   2.312
31520W        W99738  13.782  42.545  11.122
31521W        W99739  36.949  27.631   4.307
31522W        W99740  17.282  35.053  12.856
31523W        W99741  31.677   2.930  13.411
31524W        W99742   6.405  20.685   4.604
31525W        W99743   7.935  38.970  14.348
31526W        W99744  23.899  24.987  14.456
31527W        W99745  23.617  43.236  13.504
31528W        W99746  27.602  16.256   2.779
31529W        W99747  36.630  34.521  11.872
31530W        W99748  16.155  38.663  13.251
31531W        W99749   1.019  42.318   1.283
31532W        W99750  32.109   5.237  13.475
31533W        W99751  11.339  28.989   2.650
31534W        W99752  38.478   7.764   0.693
31535W        W99753  28.465   1.238   3.627
31536W        W99754  14.619  12.575   3.159
31537W        W99755  43.224   0.794  11.980
31538W        W99756  44.597  13.028  12.520
31539W        W99757  43.776  23.591  14.947
31540W        W99758  20.740  31.750   2.426
31541W        W99759  35.975   0.674   2.241
31542W        W99760   9.428  11.784  15.000
31543W        W99761  28.197  15.839  12.079
31544W        W99762  39.512  40.656  12.496
31545W        W99763  23.673  26.956  11.549
31546W        W99764  14.826  21.731   3.881
31547W        W99765  11.892  36.061  10.321
31548W        W99766  23.240  25.702   0.831
31549W        W99767  12.246  11.392   2.432
31550W        W99768  16.580   4.334   1.166
31551W        W99769  29.509  16.709   3.505
31552W        W99770  33.861  21.786   0.938
31553W        W99771  30.329  13.242   2.848
31554W        W99772  23.607   6.913   3.759
31555W        W99773   7.674  27.150  13.842
31556W        W99774  18.678  37.324   9.954
31557W        W99775  36.448  14.981   0.673
31558W        W99776   8.178  20.597  14.389
31559W        W99777  43.956  34.512  13.475
31560W        W99778  33.311  17.195  10.691
31561W        W99779  20.407   5.923   0.601
31562W        W99780  39.043  37.292  13.472
31563W        W99781  20.671  30.998   1.667
31564W        W99782  30.279  33.725  10.639
31565W        W99783  15.767  26.121   1.363
31566W        W99784  14.810  19.355   2.279
31567W        W99785  26.179  31.953  10.515
31568W        W99786  13.147   3.265   3.235
31569W        W99787  12.637   3.453   3.153
31570W        W99788  36.193  18.112   3.932
31571W        W99789  15.883  28.387  11.495
31572W        W99790  23.261  34.230  11.601
31573W        W99791  43.069   6.244  14.092
31574W        W99792  39.470   6.985  13.584
31575W        W99793   2.838  15.285  14.427
31576W        W99794   2.034   8.172   1.397
31577W        W99795  39.682  17.676   2.720
31578W        W99796  44.409  36.572   0.702
31579W        W99797   1.859  34.201  10.725
31580W        W99798  42.574  28.962  11.872
31581W        W99799  16.760   2.411  12.047
31582W        W99800  44.861  39.504   1.572
31583W        W99801  26.026   7.181  13.384
31584W        W99802  13.292  13.155   3.112
31585W        W99803   7.853  31.972  13.342
31586W        W99804  44.616  33.475   0.763
31587W        W99805  13.911   5.877   1.731
31588W        W99806  44.236   4.480  13.475
31589W        W99807  20.978   5.775  13.598
31590W        W99808  15.031  16.393  12.370
31591W        W99809  21.793   5.736   4.302
31592W        W99810  18.815  31.389   4.887
31593W        W99811  19.106  28.261  13.853
31594W        W99812  44.257  19.989  13.832
31595W        W99813  31.940  33.701   2.246
31596W        W99814  33.421  43.213   4.065
31597W        W99815  23.545  14.605  11.940
31598W        W99816  33.618  42.860  14.913
31599W        W99817   7.986  27.700   0.531
31600W        W99818  14.228  10.654   0.991
31601W        W99819  41.998   3.958   1.242
31602W        W99820  10.602  27.139  13.453
31603W        W99821  31.896  22.225  10.648
31604W        W99822  19.068  22.065   1.440
31605W        W99823  14.908  36.838   3.321
31606W        W99824  15.238  30.164  11.594
31607W        W99825  33.211   6.406  13.949
31608W        W99826   5.709  14.161  11.238
31609W        W99827  34.951  43.920  12.941
31610W        W99828  43.814  10.361  10.955
31611W        W99829   8.422  42.643   2.676
31612W        W99830  28.958  11.248   1.342
31613W        W99831   7.009  13.250   4.549
31614W        W99832  19.627   0.711   5.027
31615W        W99833  32.483   2.956   0.774
31616W        W99834   0.755  16.758  13.014
31617W        W99835  22.725   4.024  14.884
31618W        W99836   0.258  29.719  10.704
31619W        W99837  33.277  14.316   1.644
31620W        W99838  31.419  32.161   1.734
31621W        W99839   0.534   1.383   2.645
31622W        W99840  19.734  32.449  13.557
31623W        W99841  31.045  26.105   0.766
31624W        W99842  13.284  44.910   0.382
31625W        W99843  43.554   4.243   1.795
31626W        W99844  12.621  18.323   0.935
31627W        W99845   6.759  34.503   3.043
31628W        W99846  23.587  28.948  14.775
31629W        W99847  27.382  26.207  11.935
31630W        W99848   2.370  24.713   4.212
31631W        W99849  18.579  14.294   2.680
31632W        W99850   7.349  25.684  12.035
31633W        W99851  29.483   1.908  13.836
31634W        W99852  38.360  14.347  11.226
31635W        W99853  20.343  43.079  11.188
31636W        W99854  19.177   2.873   3.872
31637W        W99855  23.186   6.858  12.483
31638W        W99856  40.369  17.008   2.239
31639W        W99857   0.599  18.691   0.404
31640W        W99858  36.607  43.506  14.779
31641W        W99859  11.766   9.725   2.318
31642W        W99860  16.946  31.854   4.273
31643W        W99861   3.955  19.273   4.125
31644W        W99862  24.581  22.723   3.981
31645W        W99863  25.694  12.902  10.562
31646W        W99864  12.575  30.932  14.379
31647W        W99865  19.983  37.033   4.086
31648W        W99866   3.496  13.781   5.073
31649W        W99867  43.134   0.354  14.379
31650W        W99868  26.900   4.008  11.263
31651W        W99869  23.953   9.438   2.769
31652W        W99870  39.885  22.136   4.129
31653W        W99871  43.877  40.807   0.062
31654W        W99872  42.984  32.583   1.986
31655W        W99873  41.756   4.370  13.203
31656W        W99874  14.808  27.152   4.823
31657W        W99875  32.669  22.751   2.103
31658W        W99876  14.818  29.133   3.527
31659W        W99877  17.062  29.378   2.643
31660W        W99878  39.953  11.834  12.059
31661W        W99879  31.514  37.064  10.580
31662W        W99880  38.807  16.700  12.830
31663W        W99881  13.390  16.577  10.977
31664W        W99882  42.977   9.304   1.916
31665W        W99883  17.628  43.467   2.385
31666W        W99884  29.469   3.274  12.419
31667W        W99885  39.857  23.150  11.921
31668W        W99886  28.525  43.130   4.564
31669W        W99887  24.069  36.479   3.745
31670W        W99888  26.479  24.535  11.209
31671W        W99889   9.278   6.339  10.514
31672W        W99890  14.533  40.981  11.501
31673W        W99891   6.302  25.108   2.454
31674W        W99892  22.942  15.460  12.874
31675W        W99893  17.041  15.160  14.289
31676W        W99894   9.765  19.756   2.398
31677W        W99895   5.642  14.653   4.488
31678W        W99896  44.440  44.056   4.751
31679W        W99897  35.049   5.738  11.163
31680W        W99898  17.348   3.456  11.009
31681W        W99899  19.232  39.471  11.644
31682W        W99900   9.091  41.394  11.231
31683W        W99901  26.762   8.803   3.818
31684W        W99902  16.338  15.134   5.130
31685W        W99903  23.067   7.677   2.174
31686W        W99904   8.908  11.623  13.244
31687W        W99905  24.917  28.736  11.606
31688W        W99906  37.746  41.013  12.863
31689W        W99907  17.029  40.188   2.228
31690W        W99908   0.950   9.685   2.507
31691W        W99909  33.840  39.971  12.051
31692W        W99910   3.285  17.641   4.645
31693W        W99911  29.676  29.033   4.519
31694W        W99912  21.043  34.824  13.889
31695W        W99913  31.239  29.899   3.207
31696W        W99914  21.787   1.403   3.426
31697W        W99915  17.081  11.851  11.606
31698W        W99916  35.845  28.539   2.699
31699W        W99917  42.280  41.804   3.872
31700W        W99918  44.160   2.730  11.147
31701W        W99919   3.324   5.978  11.929
31702W        W99920  22.691  32.956  10.973
31703W        W99921  36.797  29.657  13.393
31704W        W99922   3.385   3.577   4.758
31705W        W99923  33.918  41.333  11.819
31706W        W99924   3.825   2.277  14.926
31707W        W99925  30.262   9.609  14.241
31708W        W99926   8.157  11.152  11.148
31709W        W99927  35.443   4.097   2.046
31710W        W99928  16.058   0.512  10.712
31711W        W99929   2.544  29.375   2.848
31712W        W99930  31.619  44.942  14.375
31713W        W99931   9.269  22.294   0.947
31714W        W99932  32.480   9.089  12.504
31715W        W99933  37.154  32.653   2.186
31716W        W99934  32.848  31.030   5.005
31717W        W99935  14.690  38.426  14.649
31718W        W99936   6.247  38.077   2.673
31719W        W99937  38.399  18.897  13.441
31720W        W99938   6.914  26.515   3.667
31721W        W99939   7.194  14.303   2.732
31722W        W99940  16.676  34.511  11.876
31723W        W99941   4.260  41.643   0.892
31724W        W99942  12.252   7.967   1.776
31725W        W99943  41.309  29.983   0.849
31726W        W99944   0.271   3.816  14.470
31727W        W99945   3.509  28.960  13.746
31728W        W99946  14.186   4.454  14.112
31729W        W99947   8.168  12.884  13.682
31730W        W99948  28.373   0.412  11.395
31731W        W99949  28.241  31.656   4.982
31732W        W99950  34.158  37.733  12.494
31733W        W99951   4.455  10.747   4.957
31734W        W99952  39.795  14.133  14.412
31735W        W99953  21.050  10.793  10.576
31736W        W99954  13.505   1.888   3.264
31737W        W99955  44.312   7.153   2.326
31738W        W99956   7.545  30.635  12.038
31739W        W99957  27.641  27.488  14.001
31740W        W99958   4.351  20.810   1.833
31741W        W99959  35.966  34.000  12.182
31742W        W99960   5.344  10.889  10.592
31743W        W99961  10.801  26.504   3.156
31744W        W99962  24.768  42.790   3.740
31745W        W99963  15.345  17.806   2.259
31746W        W99964   1.296  38.961  14.090
31747W        W99965  20.084  20.207   4.033
31748W        W99966   9.889  15.272  10.426
31749W        W99967  22.099  14.708  13.548
31750W        W99968  20.578  18.336   0.876
31751W        W99969  22.153  17.540   3.668
31752W        W99970   7.661  37.064   4.542
31753W        W99971  15.183   4.111  13.445
31754W        W99972   4.357  37.352   3.358
31755W        W99973  27.703  30.133   3.241
31756W        W99974  21.036  35.612  13.500
31757W        W99975  12.524  35.328   1.318
31758W        W99976  26.723  33.781   0.930
31759W        W99977  27.751  14.244  14.984
31760W        W99978  28.092   0.313  14.537
31761W        W99979  28.637   1.053   1.574
31762W        W99980  31.085  15.875  13.897
31763W        W99981  21.589  43.005   0.513
31764W        W99982  18.737  14.063   3.135
31765W        W99983  11.921   9.881  14.248
31766W        W99984  36.494  21.401   4.565
31767W        W99985   2.917   4.196   0.341
31768W        W99986  43.721  19.739  12.131
31769W        W99987  32.319  41.093  12.929
31770W        W99988   1.698  11.997  11.605
31771W        W99989  33.046   6.777  14.261
31772W        W99990  21.519  13.706   1.393
31773W        W99991  41.686  17.330  12.453
31774W        W99992   7.799   1.850  12.038
31775W        W99993  10.181  14.093  11.766
31776W        W99994  28.214  13.796   1.723
31777W        W99995   3.028  41.476   3.614
31778W        W99996  19.224  16.086   0.971
31779W        W99997  26.433  21.128   1.396
31780W        W99998   9.984  29.098  11.518
31781W        W99999  22.748  22.731   3.751
31782W        W    0  41.109  23.093  10.831
31783W        W    1  28.376  19.626   4.073
31784W        W    2  22.201  33.387  11.163
31785W        W    3   9.838  10.343  11.630
31786W        W    4  42.421  35.122  13.131
31787W        W    5   2.589  38.585   0.857
31788W        W    6  28.044   7.078  11.678
31789W        W    7  15.056   1.400   5.747
31790W        W    8  18.573   1.861   2.766
31791W        W    9  26.215   5.134  11.186
31792W        W   10  24.660  32.677   2.691
31793W        W   11  35.628  31.063   0.802
31794W        W   12  19.246  14.553   1.869
31795W        W   13  16.651  19.427  10.595
31796W        W   14  40.699  26.162  11.071
31797W        W   15  31.417  41.924   1.249
31798W        W   16   5.985  34.530   1.637
31799W        W   17  25.552   4.949  14.793
31800W        W   18   9.649  18.769  11.627
31801W        W   19  12.909   0.282   3.302
31802W        W   20  19.022   5.841  13.426
31803W        W   21  19.283   4.905  13.752
31804W        W   22  30.115  35.500  14.572
31805W        W   23   3.545  41.845  14.053
31806W        W   24  10.781  17.407   0.445
31807W        W   25  42.035   5.625   4.639
31808W        W   26  44.277  22.556  11.603
31809W        W   27  15.735  40.036   1.061
31810W        W   28  44.696  36.374   1.419
31811W        W   29  28.001  27.921  13.808
31812W        W   30  16.365  15.099   3.786
31813W        W   31  38.994  24.706  12.167
31814W        W   32  34.075   4.611  13.346
31815W        W   33  35.424  23.432  14.234
31816W        W   34  15.764  29.926   4.312
31817W        W   35  18.620  15.096  12.654
31818W        W   36  29.577   8.753  13.736
31819W        W   37  32.667   9.490  14.980
31820W        W   38  38.182  23.383   4.181
31821W        W   39   2.365  31.197  12.193
31822W        W   40  22.599  18.795   4.787
31823W        W   41  35.442  28.542  13.114
31824W        W   42  39.471  39.388  12.765
31825W        W   43  41.787  18.063  14.270
31826W        W   44  23.058  28.070  11.148
31827W        W   45  29.962  19.546  13.007
31828W        W   46  43.972   8.350   3.757
31829W        W   47  39.551  10.422   2.787
31830W        W   48  37.733   6.978  13.461
31831W        W   49  41.760  27.481  12.045
31832W        W   50  16.532  18.559   0.296
31833W        W   51   3.395  11.569  14.371
31834W        W   52  28.204  35.225   4.059
31835W        W   53  22.904   0.173   2.241
31836W        W   54   0.164  23.291  11.116
31837W        W   55  29.107  27.120  13.747
31838W        W   56  34.921  18.259   4.559
31839W        W   57   7.796  21.329   0.712
31840W        W   58  10.629  16.638  13.620
31841W        W   59  10.255  39.583  13.295
31842W        W   60  12.324   7.973   3.807
31843W        W   61  12.118  37.748   0.303
31844W        W   62   2.405  37.150   1.682
31845W        W   63  25.604  12.319   3.701
31846W        W   64  41.115  28.949  11.603
31847W        W   65  14.950  35.903   3.622
31848W        W   66  37.562  30.501  14.327
31849W        W   67  15.279   2.811  13.012
31850W        W   68  30.010   4.998   0.586
31851W        W   69  40.983  26.575  11.738
31852W        W   70   3.227  31.317  14.957
31853W        W   71   6.659  16.570  13.968
31854W        W   72   2.317  18.304   0.058
31855W        W   73   7.820  43.085   5.006
31856W        W   74   3.081  42.289   1.448
31857W        W   75  16.675  22.621   4.437
31858W        W   76  19.108  16.527   2.745
31859W        W   77  36.089  42.473  10.667
31860W        W   78  18.532  14.165  13.001
31861W        W   79  28.563  27.947   2.932
31862W        W   80   6.768  18.836   1.538
31863W        W   81  10.925  18.607   2.747
31864W        W   82  20.260  24.042  11.574
31865W        W   83  13.825  22.700   4.250
31866W        W   84   3.564  10.463  12.580
31867W        W   85  32.055  25.600   1.774
31868W        W   86  25.338  38.088   1.945
31869W        W   87  32.612  10.024   3.685
31870W        W   88  14.677  23.131   1.363
31871W        W   89  17.201  36.348  14.364
31872W        W   90   8.732  19.883   5.386
31873W        W   91   1.860  31.077   3.330
31874W        W   92  34.537  39.181  10.694
31875W        W   93  40.361  14.582  10.728
31876W        W   94  19.023  25.505   1.300
31877W        W   95   4.890  39.471  12.051
31878W        W   96  18.994  17.164  14.242
31879W        W   97  26.380  26.032   2.090
31880W        W   98   4.230   9.527   0.561
31881W        W   99  18.049   0.741  11.132
31882W        W  100  25.827   9.153   0.834
31883W        W  101  26.291   9.408   2.894
31884W        W  102  16.850  24.568  11.615
31885W        W  103  15.522  34.928   4.713
31886W        W  104  20.693  42.068   3.401
31887W        W  105  36.498  18.855   4.347
31888W        W  106  32.677  16.763   2.614
31889W        W  107  39.795  12.310  12.182
31890W        W  108  39.286  38.382  10.667
31891W        W  109  34.309   9.859  14.365
31892W        W  110  12.992  44.003   2.805
31893W        W  111   7.337   2.939   0.492
31894W        W  112  19.705  38.562  11.699
31895W        W  113   9.172  14.597  10.274
31896W        W  114  30.886  41.531   0.015
31897W        W  115  37.562  42.989   2.250
31898W        W  116  11.045  17.160  13.474
31899W        W  117  19.130  39.985  10.892
31900W        W  118  30.104  20.073   1.940
31901W        W  119  12.410   5.996  11.091
31902W        W  120  16.024  35.090   1.198
31903W        W  121  33.383  29.168   2.311
31904W        W  122   3.133  13.790   2.195
31905W        W  123  31.404  43.740   2.514
31906W        W  124  17.812  36.002   2.780
31907W        W  125  29.107  22.589   2.804
31908W        W  126   7.767  44.451  12.603
31909W        W  127  23.805   3.473  11.194
31910W        W  128  15.563  38.415  11.065
31911W        W  129  16.199  39.340   4.960
31912W        W  130  20.577  30.018   2.317
31913W        W  131  22.723  29.045  11.669
31914W        W  132  10.674  24.071  10.599
31915W        W  133  40.516  17.325   2.754
31916W        W  134   0.856  41.897   4.374
31917W        W  135  28.529  21.326   1.356
31918W        W  136   7.527  29.307   0.524
31919W        W  137  31.033  41.807  10.690
31920W        W  138  43.029  42.721  11.627
31921W        W  139  31.544   5.336  10.490
31922W        W  140   1.923   2.690  11.556
31923W        W  141  43.838   8.126   3.295
31924W        W  142  44.842  34.454  10.743
31925W        W  143  15.080  18.612   0.571
31926W        W  144  13.116  29.595   0.769
31927W        W  145  15.217  21.464  12.175
31928W        W  146  21.087   3.263   1.200
31929W        W  147  27.176  23.978  13.392
31930W        W  148  32.652  39.432  13.337
31931W        W  149  40.293  28.163  12.598
31932W        W  150  36.564  34.140   2.945
31933W        W  151  22.043   5.496  13.427
31934W        W  152  40.662  14.399   2.425
31935W        W  153   0.469  42.719   2.738
31936W        W  154  30.088  32.405   1.852
31937W        W  155  31.265  43.924  11.506
31938W        W  156  13.671   4.220  14.876
31939W        W  157  14.186  22.070   4.573
31940W        W  158   7.348  39.281  14.890
31941W        W  159  42.712   7.540  14.984
31942W        W  160   1.468  25.917  12.136
31943W        W  161  27.602  40.462   2.206
31944W        W  162  43.913  42.889   1.675
31945W        W  163   0.858  20.597  14.779
31946W        W  164   8.164   3.697  10.628
31947W        W  165  18.987  26.460  12.150
31948W        W  166  23.685  28.185   3.527
31949W        W  167  36.377  41.448   3.896
31950W        W  168  33.498  30.102   5.067
31951W        W  169   3.023  34.488  12.000
31952W        W  170  42.874   8.466   1.440
31953W        W  171  16.319   9.759   4.684
31954W        W  172  44.966  38.019   4.345
31955W        W  173   7.412   5.919   3.764
31956W        W  174  20.006  36.690   1.212
31957W        W  175  36.155  44.898  12.989
31958W        W  176  10.613  20.543   0.434
31959W        W  177  26.409  19.122   2.650
31960W        W  178  13.648  12.212  11.174
31961W        W  179  30.976  37.050  10.793
31962W        W  180  39.013  15.137   3.867
31963W        W  181   8.184  44.386  10.877
31964W        W  182  43.008  22.093   4.138
31965W        W  183   8.477   2.182   5.042
31966W        W  184  25.163  25.700  13.285
31967W        W  185  26.667  42.865   4.601
31968W        W  186  44.018  20.507  13.966
31969W        W  187  38.565   2.166  13.049
31970W        W  188  16.844   7.389   4.148
31971W        W  189  35.252  24.051   0.704
31972W        W  190  44.473   4.825   5.064
31973W        W  191  15.283  17.833   3.233
31974W        W  192  35.420  41.650  13.467
31975W        W  193  42.813  28.434   1.499
31976W        W  194  10.156   1.759   0.382
31977W        W  195  25.725   6.875   1.320
31978W        W  196  42.965  14.862   2.505
31979W        W  197  18.040  29.620   0.578
31980W        W  198  32.400  32.695  13.783
31981W        W  199  18.351  20.805   2.648
31982W        W  200  28.472   7.655   0.481
31983W        W  201   6.631  34.862  14.692
31984W        W  202   3.339   4.807   1.732
31985W        W  203  40.610  39.943   3.131
31986W        W  204  44.437  19.868   5.047
31987W        W  205   2.214  13.867   1.739
31988W        W  206  16.074  35.615   4.191
31989W        W  207   0.447  11.468   3.694
31990W        W  208  38.673  17.102  14.904
31991W        W  209   5.483   5.961  14.363
31992W        W  210  21.695  20.795   0.988
31993W        W  211  40.954  17.859  11.600
31994W        W  212  27.608   1.307   3.072
31995W        W  213  13.215  11.620  12.988
31996W        W  214  18.088   8.350  13.650
31997W        W  215  13.620  39.497  12.600
31998W        W  216  30.054  25.415   2.358
31999W        W  217  21.224   0.590  11.139
32000W        W  218  17.084  42.904   1.814
32001W        W  219   1.897   1.446   4.379
32002W        W  220  22.042  14.110   4.154
32003W        W  221  12.190  36.871  14.260
32004W        W  222   8.794  10.960   0.623
32005W        W  223  26.231  20.647   1.249
32006W        W  224  33.146  22.495   3.268
32007W        W  225  25.673  16.163   4.882
32008W        W  226  11.133  11.289  13.287
32009W        W  227  32.400   6.250   0.602
32010W        W  228  41.838  28.721  14.397
32011W        W  229  42.463   3.023   3.138
32012W        W  230   3.301  33.474  13.934
32013W        W  231  21.682  29.902  11.144
32014W        W  232  23.170   4.203  14.663
32015W        W  233  14.047   1.886  13.010
32016W        W  234   9.404   2.761   3.898
32017W        W  235   2.752   9.948   1.103
32018W        W  236  37.884  17.727  14.857
32019W        W  237   5.915  15.804   4.859
32020W        W  238   8.873   9.660   4.569
32021W        W  239   2.263  15.664  14.828
32022W        W  240  31.166  41.326  12.500
32023W        W  241  41.074  33.041   0.267
32024W        W  242  38.312   1.746  12.500
32025W        W  243  42.515  32.608   1.025
32026W        W  244  11.553  42.984   3.602
32027W        W  245  11.559  13.636  11.669
32028W        W  246  31.404  39.341   2.251
32029W        W  247   7.904  19.174   4.515
32030W        W  248  28.830  37.968   2.873
32031W        W  249  37.830  37.897   3.175
32032W        W  250   0.841  34.466   1.591
32033W        W  251  34.483  15.696   2.561
32034W        W  252  32.380  21.680   0.681
32035W        W  253   5.173  44.185   0.921
32036W        W  254  11.361  13.897  10.743
32037W        W  255   9.633   1.775   0.341
32038W        W  256  29.136  41.435   4.360
32039W        W  257   4.916  23.024   2.365
32040W        W  258  23.642  21.543  10.644
32041W        W  259  38.034  31.097  10.780
32042W        W  260  39.024   9.639  12.113
32043W        W  261   8.338  19.749   2.612
32044W        W  262  23.120  17.766  13.701
32045W        W  263  23.602  15.886   2.494
32046W        W  264  30.652  35.622  11.547
32047W        W  265  22.451  29.854  10.607
32048W        W  266  22.006  27.493   4.010
32049W        W  267  23.579  41.692   0.463
32050W        W  268  16.385   4.192   0.451
32051W        W  269   4.456   7.681   3.402
32052W        W  270  15.635  35.151  12.478
32053W        W  271  14.832  41.090   3.637
32054W        W  272   3.715  41.318   5.216
32055W        W  273  23.682  38.081  11.492
32056W        W  274  20.980  44.383  12.579
32057W        W  275  17.378  14.647   1.226
32058W        W  276  26.679  15.984  11.425
32059W        W  277  43.760  32.457   1.307
32060W        W  278  40.254   5.453   4.900
32061W        W  279   3.100  43.442   0.830
32062W        W  280  11.379  22.030  12.390
32063W        W  281   0.950  21.769   0.772
32064W        W  282  36.383   2.504  12.647
32065W        W  283  25.020  41.315   3.632
32066W        W  284  20.605   5.514   4.375
32067W        W  285  41.467  33.455  11.963
32068W        W  286  35.053  41.125  14.843
32069W        W  287  36.946  42.771   2.673
32070W        W  288  24.643  16.037   1.755
32071W        W  289  10.427  22.216   4.327
32072W        W  290  33.208   8.319  13.355
32073W        W  291  11.636  33.384   2.732
32074W        W  292   7.808   7.185   2.942
32075W        W  293   4.256  25.187  12.900
32076W        W  294  39.763  18.553   0.562
32077W        W  295  27.015  20.950   4.970
32078W        W  296  32.127  18.627  14.390
32079W        W  297  22.559   3.793  11.171
32080W        W  298   4.047  43.871   1.332
32081W        W  299  34.728  12.705  11.730
32082W        W  300  33.965  16.147  14.905
32083W        W  301  19.931  34.580   1.872
32084W        W  302  31.680  37.347  11.444
32085W        W  303  20.299  22.150  10.686
32086W        W  304  37.517  33.977  11.125
32087W        W  305  15.979  34.859  13.415
32088W        W  306  38.435  11.095  10.696
32089W        W  307  25.022  16.566  10.994
32090W        W  308   6.526  13.218   1.968
32091W        W  309   0.603  11.320   5.065
32092W        W  310  34.896  16.322   3.782
32093W        W  311  36.961  40.869  13.327
32094W        W  312  19.176  44.981  14.144
32095W        W  313   3.152  16.879   4.268
32096W        W  314  41.937   5.316  14.851
32097W        W  315  34.579   6.264  13.683
32098W        W  316  18.101  14.858  11.499
32099W        W  317  22.935  25.174   1.023
32100W        W  318  24.524   9.926  12.509
32101W        W  319   2.869  31.019   1.883
32102W        W  320  14.407  29.024   3.246
32103W        W  321   8.130  16.037   4.522
32104W        W  322   6.703   8.581  13.987
32105W        W  323  21.056   9.109  14.495
32106W        W  324   4.764   9.792   3.336
32107W        W  325  36.564  20.714  12.959
32108W        W  326   0.926   3.414  12.914
32109W        W  327  35.627  33.901  13.158
32110W        W  328  38.973  40.116   1.657
32111W        W  329  19.627  43.208  14.435
32112W        W  330  16.051  19.551   4.096
32113W        W  331  32.434  39.211   3.422
32114W        W  332  38.109  36.891  14.310
32115W        W  333   4.723  23.976   1.384
32116W        W  334   0.700  39.988  13.988
32117W        W  335  31.887  11.781   1.865
32118W        W  336  11.784  31.368   3.894
32119W        W  337  33.244   1.424   3.866
32120W        W  338  10.882   0.218  11.293
32121W        W  339  24.686  19.797  12.815
32122W        W  340  23.525  32.430   4.536
32123W        W  341  44.285  34.897   5.155
32124W        W  342  39.537  24.487   4.769
32125W        W  343  17.594   0.277   4.797
32126W        W  344  20.463  37.602  11.062
32127W        W  345   1.459  39.136  12.409
32128W        W  346  17.044  28.645   0.310
32129W        W  347  44.429  28.565  14.519
32130W        W  348  19.603   2.497   3.165
32131W        W  349  10.840  43.318  14.877
32132W        W  350  39.886  15.361   3.852
32133W        W  351  25.383  13.366  12.624
32134W        W  352  29.861   7.756   3.442
32135W        W  353  36.129  10.634   0.268
32136W        W  354  32.497  12.773  13.089
32137W        W  355  33.450  35.871  13.556
32138W        W  356  37.417  33.788  11.585
32139W        W  357  26.713  18.696   2.520
32140W        W  358   2.313  26.016  14.327
32141W        W  359  17.112  25.237   0.361
32142W        W  360  37.952  18.587  13.918
32143W        W  361   8.409  17.781  11.759
32144W        W  362   9.178   6.265   3.819
32145W        W  363  13.871  35.110   4.148
32146W        W  364  22.066  22.005  13.178
32147W        W  365  21.559  10.401  12.602
32148W        W  366  44.038  31.530  11.997
32149W        W  367  35.869  19.805  10.711
32150W        W  368  44.440  26.810   3.325
32151W        W  369  18.347  35.974  11.607
32152W        W  370  44.588   7.723  14.572
32153W        W  371  35.801   3.989   3.247
32154W        W  372  22.584  13.570  12.410
32155W        W  373   9.804   4.463  12.406
32156W        W  374  25.982   7.177  14.862
32157W        W  375  16.304  42.133  12.564
32158W        W  376  42.882  15.234   0.701
32159W        W  377   3.463  44.239  11.618
32160W        W  378  15.641  26.680   0.772
32161W        W  379   2.492  33.712   5.077
32162W        W  380  25.047  12.630   1.934
32163W        W  381  32.737  23.106  12.635
32164W        W  382  37.990   9.221   1.023
32165W        W  383  43.393   2.369   4.732
32166W        W  384   0.222  22.192   0.095
32167W        W  385  27.066  29.504  14.581
32168W        W  386  22.269   2.726  12.850
32169W        W  387  15.651  42.992  12.902
32170W        W  388  28.212  13.936  11.082
32171W        W  389  13.397  37.487   4.072
32172W        W  390   2.225  15.658   1.863
32173W        W  391  18.189  29.696   4.068
32174W        W  392  35.411  24.506  12.910
32175W        W  393  26.054  36.108   2.884
32176W        W  394  17.532   5.863  11.631
32177W        W  395  13.879   2.851   4.508
32178W        W  396  19.066  42.974  13.887
32179W        W  397   3.727  18.000  12.308
32180W        W  398  16.013   6.199  11.558
32181W        W  399  43.705  41.153  11.760
32182W        W  400   0.850   2.963  13.178
32183W        W  401  30.379  11.817   1.587
32184W        W  402  14.846  21.074  11.481
32185W        W  403  10.030  14.358  12.589
32186W        W  404  36.148  14.185   2.622
32187W        W  405  18.646   2.590  10.659
32188W        W  406   5.822  21.724  14.357
32189W        W  407  24.112   6.725  11.921
32190W        W  408  32.147  18.086  12.080
32191W        W  409  19.503   6.709  12.558
32192W        W  410  37.472  33.103   0.432
32193W        W  411   1.669  17.768  10.834
32194W        W  412  17.099  24.700  12.055
32195W        W  413  23.687  14.176  11.246
32196W        W  414  14.778  11.342   4.578
32197W        W  415  35.857   5.619  11.699
32198W        W  416  31.707  27.910  12.470
32199W        W  417  22.602  30.044   2.253
32200W        W  418  24.186  15.853  13.297
32201W        W  419   3.216  38.848  13.345
32202W        W  420   7.940   1.430   3.880
32203W        W  421  27.430  33.387   1.361
32204W        W  422   5.318  30.216  13.426
32205W        W  423   5.540  13.294  13.587
32206W        W  424  15.603   7.751   4.548
32207W        W  425   5.258  15.541   0.969
32208W        W  426  15.786  43.133   3.345
32209W        W  427  36.916  43.519   0.481
32210W        W  428  10.354  31.345   3.633
32211W        W  429  27.180  38.519  14.473
32212W        W  430  18.517  35.820   3.233
32213W        W  431  24.717   1.884   0.735
32214W        W  432  24.440  31.996  13.974
32215W        W  433  39.903  27.241  13.840
32216W        W  434   9.357  33.323   2.250
32217W        W  435  12.704  14.863   2.848
32218W        W  436  32.381   0.737  14.660
32219W        W  437  36.588  23.067   3.453
32220W        W  438  10.627  12.099  13.957
32221W        W  439   7.262  13.554   4.072
32222W        W  440  11.759  10.789  12.659
32223W        W  441  28.896   5.685  11.163
32224W        W  442  11.891  28.122  13.898
32225W        W  443   4.426   1.293  13.964
32226W        W  444  17.636  42.791   4.136
32227W        W  445   4.261  39.693   0.698
32228W        W  446   4.821  29.062  12.954
32229W        W  447  35.067  43.261  13.584
32230W        W  448  17.336  26.164   4.610
32231W        W  449  24.553  25.872  14.565
32232W        W  450  38.181   2.656   1.095
32233W        W  451  14.183  43.454  12.081
32234W        W  452   1.973  42.476   4.352
32235W        W  453  43.076  10.705  13.428
32236W        W  454  14.082  34.384   2.756
32237W        W  455   4.698   6.745   1.328
32238W        W  456  21.184  18.297   0.382
32239W        W  457  34.885  10.434   1.316
32240W        W  458   0.497  41.527   4.455
32241W        W  459   8.509  29.829  11.975
32242W        W  460  24.506   4.280   1.726
32243W        W  461  10.874  28.885   2.383
32244W        W  462  22.503  32.109  11.850
32245W        W  463  38.597  13.398   3.787
32246W        W  464  35.049  19.622  11.109
32247W        W  465  44.465   1.955  10.795
32248W        W  466   7.232  34.703  11.203
32249W        W  467  35.912  22.473   4.004
32250W        W  468   6.396  44.992   0.457
32251W        W  469   0.714  34.895  11.091
32252W        W  470  40.223  16.550   4.238
32253W        W  471  38.410  37.547  14.276
32254W        W  472  38.959   0.314  12.055
32255W        W  473  25.092   9.912   0.418
32256W        W  474   9.135  30.456   0.243
32257W        W  475  37.891  31.132  11.596
32258W        W  476  17.608  11.351  12.990
32259W        W  477  36.541  23.112   1.974
32260W        W  478   0.975   9.448   4.706
32261W        W  479  24.567  33.513   1.658
32262W        W  480  11.803  44.417   5.152
32263W        W  481  27.405  11.469   0.924
32264W        W  482  11.295  16.133   5.471
32265W        W  483  11.610  19.690   1.833
32266W        W  484  34.668   7.082  14.783
32267W        W  485  22.591  39.471  13.197
32268W        W  486   0.778  28.354  14.935
32269W        W  487   6.901  42.911  11.027
32270W        W  488   2.968  33.007   4.438
32271W        W  489   7.505   8.265  10.783
32272W        W  490  27.543  25.146  14.865
32273W        W  491   8.703  13.029   5.008
32274W        W  492  23.983  10.841   4.150
32275W        W  493   6.329  17.077  12.832
32276W        W  494  39.959  43.317  13.769
32277W        W  495  23.099   4.039  11.644
32278W        W  496  30.914  39.751  14.428
32279W        W  497  32.524  11.629  12.212
32280W        W  498   6.729  36.461   1.362
32281W        W  499  37.932  38.795   2.201
32282W        W  500  33.489  26.520  11.993
32283W        W  501  34.277  14.394   4.075
32284W        W  502  33.966  39.633  11.627
32285W        W  503  17.347   4.175   2.138
32286W        W  504   8.967  30.920   0.345
32287W        W  505  39.605  30.720  14.097
32288W        W  506  36.034   4.654   4.855
32289W        W  507   1.214   6.595  14.775
32290W        W  508   9.186  15.879   2.385
32291W        W  509   6.346  44.866  11.167
32292W        W  510   1.524  35.194  13.018
32293W        W  511  37.868  32.878   4.225
32294W        W  512  17.233  33.597   1.341
32295W        W  513  36.891   0.738   4.886
32296W        W  514  29.507   3.731  14.445
32297W        W  515   0.800  43.540   2.302
32298W        W  516   2.260   4.459   2.626
32299W        W  517  21.182   8.612   2.734
32300W        W  518   1.376  30.106   4.707
32301W        W  519  22.279  24.185  14.091
32302W        W  520  31.376  26.027   4.779
32303W        W  521  44.798  29.959  10.623
32304W        W  522  30.162  33.186   2.804
32305W        W  523  15.279  26.515   3.324
32306W        W  524  36.155   1.774  11.951
32307W        W  525  13.814   7.362  13.880
32308W        W  526   1.538  23.751   4.890
32309W        W  527  19.798   9.916  14.314
32310W        W  528  39.033  43.623   4.111
32311W        W  529   0.846   4.419   1.889
32312W        W  530  38.772  23.641  10.273
32313W        W  531   6.650   4.441   4.081
32314W        W  532  31.059   8.186   2.591
32315W        W  533  10.640  18.774   2.353
32316W        W  534   7.922   1.414  13.843
32317W        W  535  19.533   8.211  13.023
32318W        W  536  42.708  13.790   3.535
32319W        W  537   8.376   8.972  14.498
32320W        W  538  14.108   5.522  12.461
32321W        W  539   2.798  20.949  14.963
32322W        W  540  40.068   1.033  12.994
32323W        W  541  20.285  31.516   0.621
32324W        W  542  32.747  28.744   3.622
32325W        W  543   5.608  14.221   0.877
32326W        W  544   3.295   5.655   2.260
32327W        W  545  29.699  13.698   1.776
32328W        W  546  44.913   5.278   2.440
32329W        W  547  43.175  11.842   1.695
32330W        W  548  29.206  17.616   3.736
32331W        W  549  21.646  30.375  12.077
32332W        W  550  40.083  39.877   4.282
32333W        W  551  20.007  36.313  11.886
32334W        W  552   6.516   8.557   2.536
32335W        W  553   0.161  13.364  14.302
32336W        W  554  25.500  27.035   1.479
32337W        W  555  18.775  20.019   0.803
32338W        W  556  21.219  36.422  12.459
32339W        W  557  18.764  35.964   4.136
32340W        W  558  23.724  10.936   1.283
32341W        W  559  25.696  32.105   2.806
32342W        W  560   4.834  14.875   1.421
32343W        W  561  28.527  36.158  10.632
32344W        W  562   4.827  14.040   3.048
32345W        W  563  38.947  30.813   3.777
32346W        W  564  43.329  34.542   4.246
32347W        W  565  39.027  15.082  12.754
32348W        W  566  37.629   8.184   0.961
32349W        W  567   4.490  35.510  12.822
32350W        W  568  31.422  35.332   0.431
32351W        W  569  37.918   1.236  10.745
32352W        W  570  20.557   6.608  14.061
32353W        W  571  31.514  24.295  12.602
32354W        W  572  19.535   7.906  13.479
32355W        W  573  11.962   9.780   1.805
32356W        W  574  40.028  39.486  10.540
32357W        W  575  28.379  17.106  14.951
32358W        W  576   1.353  32.355  11.638
32359W        W  577  39.127   6.421   4.175
32360W        W  578  21.578   7.405   2.144
32361W        W  579  14.284   3.623   2.797
32362W        W  580  30.889  21.550   1.929
32363W        W  581   1.392  28.035   0.393
32364W        W  582  29.802   3.663  13.143
32365W        W  583  37.121   3.662  12.038
32366W        W  584  24.999  35.363   4.685
32367W        W  585   3.426   3.285   1.892
32368W        W  586   3.302   1.546   3.222
32369W        W  587  27.036  23.831  14.406
32370W        W  588  17.964  43.897   2.386
32371W        W  589   4.833   2.159   3.850
32372W        W  590  27.699  13.679   5.515
32373W        W  591   0.509  22.493   0.464
32374W        W  592  35.629  28.301  10.665
32375W        W  593  23.163  22.790   0.287
32376W        W  594   6.278  36.347  13.485
32377W        W  595  29.123  38.079   2.205
32378W        W  596   7.674  20.003   4.178
32379W        W  597  33.098  27.930   0.148
32380W        W  598   9.655  41.755  13.405
32381W        W  599  39.662  36.450  10.675
32382W        W  600   4.229  30.594  11.002
32383W        W  601   3.414  24.125  11.030
32384W        W  602  16.844  18.676  11.735
32385W        W  603  24.200  30.225   1.088
32386W        W  604  21.154  28.209   3.640
32387W        W  605  23.377   8.753   3.303
32388W        W  606  31.413  35.850   2.768
32389W        W  607  35.945   9.839   3.717
32390W        W  608  11.306  36.463  14.813
32391W        W  609   1.724  36.230  14.067
32392W        W  610  14.454  25.521  14.320
32393W        W  611  19.955  11.922   3.981
32394W        W  612  16.336  24.275  10.675
32395W        W  613   7.121  39.832   4.080
32396W        W  614   1.737  27.477   3.369
32397W        W  615  26.721  37.067  14.501
32398W        W  616  15.339   6.808   0.217
32399W        W  617   4.898  16.307   0.782
32400W        W  618  11.141  43.790   3.102
32401W        W  619  22.719  27.455   2.180
32402W        W  620  21.268  16.195   3.206
32403W        W  621  10.915  42.384   4.133
32404W        W  622  37.399  35.378  12.469
32405W        W  623  10.230   2.541   3.704
32406W        W  624   2.841  26.053  12.714
32407W        W  625   4.846  11.917  14.974
32408W        W  626   2.981   6.430   2.978
32409W        W  627  10.753   0.705   2.647
32410W        W  628  28.057  30.956  13.856
32411W        W  629  27.918  14.375   4.941
32412W        W  630  34.364   6.842   1.837
32413W        W  631  17.617   8.352   0.557
32414W        W  632  15.538  18.458  14.287
32415W        W  633  34.387   2.593  13.790
32416W        W  634   5.704  30.265   2.815
32417W        W  635  16.056  32.515   1.844
32418W        W  636  22.083  13.715  13.672
32419W        W  637  12.874  10.769  14.161
32420W        W  638  41.609  44.705   2.852
32421W        W  639  28.087  24.659  13.845
32422W        W  640  25.615   4.849  13.458
32423W        W  641  16.127  30.199   3.521
32424W        W  642  44.968   9.720   3.127
32425W        W  643  17.701  43.240  11.746
32426W        W  644  23.171  26.447  13.233
32427W        W  645   1.620  12.193   0.284
32428W        W  646  28.228  29.176   4.139
32429W        W  647  44.447  11.211   1.581
32430W        W  648  14.724  37.337  14.508
32431W        W  649  11.873  33.341   0.313
32432W        W  650  19.338  40.833   3.701
32433W        W  651  27.630  33.595  13.508
32434W        W  652   1.903  23.627   2.619
32435W        W  653  35.991  21.142   2.133
32436W        W  654   3.445  11.312   2.273
32437W        W  655   3.231  13.351  13.305
32438W        W  656  12.823  39.442   2.874
32439W        W  657  19.713  30.428   2.212
32440W        W  658  18.100  41.237  13.434
32441W        W  659  34.401   1.889   3.690
32442W        W  660  29.503  22.628  12.827
32443W        W  661  30.798  18.855   3.579
32444W        W  662  13.745   7.883   0.828
32445W        W  663   2.342  24.172  14.587
32446W        W  664  44.711  12.134   3.642
32447W        W  665   0.265   6.088   0.755
32448W        W  666   6.222  11.700   5.069
32449W        W  667   6.453   8.385   0.267
32450W        W  668  32.005   6.472   3.600
32451W        W  669  34.975  18.040  11.956
32452W        W  670  26.091  22.797  14.223
32453W        W  671   3.259   5.966  13.004
32454W        W  672  17.775  20.508   3.676
32455W        W  673  44.975  24.127  14.808
32456W        W  674   5.716  31.272  14.305
32457W        W  675  12.429  33.573   3.052
32458W        W  676  25.310  14.022  14.895
32459W        W  677  40.779  28.121  10.594
32460W        W  678  20.022  32.233   4.699
32461W        W  679  17.821  24.071  12.399
32462W        W  680  40.391  26.743  10.096
32463W        W  681  19.897  18.747  14.283
32464W        W  682  39.015  31.023  11.723
32465W        W  683   6.754   1.943   4.324
32466W        W  684  28.368  29.041  11.022
32467W        W  685   5.349  21.834  10.399
32468W        W  686  38.428  31.070  14.565
32469W        W  687   4.621  20.010   2.568
32470W        W  688  41.164  17.281  13.589
32471W        W  689  19.872   3.292   4.435
32472W        W  690  20.065  17.084   1.350
32473W        W  691   9.849  17.480  12.589
32474W        W  692  13.217  30.895  11.739
32475W        W  693  43.440  34.512  13.353
32476W        W  694  10.091  43.983   0.613
32477W        W  695  19.440   7.619  10.749
32478W        W  696  24.768   8.349   1.243
32479W        W  697  25.872  14.109   0.708
32480W        W  698  33.054  35.127  13.384
32481W        W  699   8.319  39.839  12.337
32482W        W  700   8.201  43.008   0.848
32483W        W  701  32.439  42.973   2.185
32484W        W  702  37.054  40.534   3.383
32485W        W  703  11.659   9.823  14.675
32486W        W  704  11.767  18.532  14.927
32487W        W  705  38.313  33.605   0.967
32488W        W  706  30.807  28.339   1.225
32489W        W  707   4.154  30.578  12.448
32490W        W  708  44.488  10.761   3.888
32491W        W  709   4.974  11.166  13.058
32492W        W  710  36.442   7.171   2.344
32493W        W  711  44.673  15.902  13.063
32494W        W  712   5.440  31.053  12.018
32495W        W  713  28.878  23.398   2.252
32496W        W  714  34.513  38.902   2.833
32497W        W  715  10.107  19.765   2.791
32498W        W  716  37.482  26.490   1.890
32499W        W  717  22.575  26.031  13.156
32500W        W  718   9.611  33.497   1.631
32501W        W  719   3.757  33.105   3.984
32502W        W  720  10.152   9.694  13.533
32503W        W  721   5.862  26.722  10.166
32504W        W  722  12.174   8.713  14.548
32505W        W  723  44.440  35.506   2.174
32506W        W  724  22.694  23.928  13.317
32507W        W  725   9.474  39.462  12.177
32508W        W  726  17.819  15.096  13.948
32509W        W  727   1.333  10.412   1.497
32510W        W  728   9.389   6.879  13.847
32511W        W  729  44.374  35.799  14.926
32512W        W  730  17.751  28.452   1.792
32513W        W  731  36.937  41.512  10.563
32514W        W  732  17.395  20.285  14.284
32515W        W  733   5.535  30.451  10.620
32516W        W  734  14.197  19.681   3.585
32517W        W  735  22.676  17.025  10.106
32518W        W  736  43.757  16.412   1.631
32519W        W  737  30.963  28.404  11.539
32520W        W  738   5.374  19.774   0.764
32521W        W  739  40.002  44.357  14.696
32522W        W  740  16.000  31.966  13.040
32523W        W  741  32.834  10.363   0.970
32524W        W  742   5.968  38.773  12.355
32525W        W  743   2.924  23.168  13.456
32526W        W  744   3.472  26.595   0.780
32527W        W  745  31.403  38.659  11.522
32528W        W  746   8.889  44.214   0.237
32529W        W  747  42.539  19.758  10.604
32530W        W  748  23.262  23.400   0.853
32531W        W  749  41.588  34.170   4.529
32532W        W  750  21.702  44.756  13.930
32533W        W  751  26.286  27.544  14.834
32534W        W  752   5.388  16.592  13.627
32535W        W  753  13.794  20.261   2.131
32536W        W  754  21.877  23.061  12.464
32537W        W  755   9.379  22.870   1.672
32538W        W  756  20.032   0.462  11.568
32539W        W  757  21.054  35.512   0.160
32540W        W  758  25.536  23.220   0.331
32541W        W  759   0.643  33.721   2.927
32542W        W  760  12.702  11.888  11.928
32543W        W  761   7.424  21.185   1.316
32544W        W  762   9.612  36.378   4.204
32545W        W  763  17.254  20.173  12.507
32546W        W  764   8.707  24.505  11.324
32547W        W  765  11.268  32.716  10.788
32548W        W  766  34.801  21.803   1.244
32549W        W  767  19.596  27.944  14.424
32550W        W  768  37.413  19.185  12.478
32551W        W  769  41.572  27.875  14.978
32552W        W  770  17.498  41.535  11.488
32553W        W  771  39.319  25.206  12.926
32554W        W  772  24.697  16.250   2.295
32555W        W  773  11.615  32.513   1.427
32556W        W  774  40.567  39.315  13.421
32557W        W  775  23.159  22.463   3.122
32558W        W  776  33.513  15.141   1.424
32559W        W  777  13.823  31.570   3.852
32560W        W  778  39.289   8.022  11.131
32561W        W  779  28.891  33.465  12.076
32562W        W  780  24.158  13.187   4.786
32563W        W  781  24.731  13.333   1.192
32564W        W  782  43.037  18.017   4.301
32565W        W  783  20.280  44.795   3.169
32566W        W  784  23.758  17.333  14.958
32567W        W  785  44.692  25.906  14.712
32568W        W  786  15.652  36.943  12.915
32569W        W  787  27.886  33.588  13.017
32570W        W  788  30.627  32.304  13.931
32571W        W  789   1.155  15.305   0.462
32572W        W  790  32.699  14.728  14.449
32573W        W  791  12.034   7.975   1.285
32574W        W  792  26.753  23.214  13.866
32575W        W  793  21.307  29.000  13.951
32576W        W  794  25.112  40.236  10.784
32577W        W  795  19.589  40.840  11.141
32578W        W  796  32.771  15.593   4.118
32579W        W  797  29.843  40.449  13.467
32580W        W  798  29.601   7.259   3.717
32581W        W  799  16.027  28.346  12.518
32582W        W  800  14.615  36.994   2.362
32583W        W  801  24.141  22.450  10.348
32584W        W  802  23.196  38.074   1.411
32585W        W  803   2.605  14.761  11.263
32586W        W  804   5.453   5.272   0.066
32587W        W  805  37.309  16.564  12.958
32588W        W  806   1.782  44.744   1.440
32589W        W  807  23.502  35.122   4.184
32590W        W  808   9.446   8.800   0.348
32591W        W  809  20.161  14.096   1.656
32592W        W  810  36.756  27.038  14.440
32593W        W  811   1.197  44.422  14.502
32594W        W  812   7.542  22.075   4.542
32595W        W  813  35.060  25.759   4.120
32596W        W  814   6.474   4.911   4.175
32597W        W  815   2.544  26.787   5.029
32598W        W  816  44.963  39.222   1.990
32599W        W  817  12.081   5.280   2.803
32600W        W  818  24.773  10.707   3.643
32601W        W  819  30.392  31.942   1.326
32602W        W  820  18.230   1.984   1.500
32603W        W  821   7.227  26.252  13.405
32604W        W  822  41.094  31.109  12.046
32605W        W  823  39.781   5.406  13.126
32606W        W  824   2.813  37.064  14.502
32607W        W  825  34.874  13.528  14.452
32608W        W  826  30.881  31.028   0.354
32609W        W  827   4.901  34.312   1.715
32610W        W  828  24.255  28.908   0.471
32611W        W  829  22.326  22.267  10.754
32612W        W  830   3.872  13.244  13.174
32613W        W  831  29.692  11.398   1.795
32614W        W  832   4.227  22.748   4.055
32615W        W  833  36.059   7.270  14.530
32616W        W  834  41.384  43.509   2.237
32617W        W  835  23.246  15.100   4.113
32618W        W  836   4.693  16.245   2.161
32619W        W  837  20.193  14.870   2.626
32620W        W  838  44.370  21.501   2.387
32621W        W  839  19.617   2.419  14.981
32622W        W  840  22.560   4.329  12.709
32623W        W  841  21.485  17.101  10.264
32624W        W  842  33.317   4.823   3.794
32625W        W  843  37.370  34.129  11.980
32626W        W  844   7.191  28.679   1.137
32627W        W  845  42.219  31.163  12.548
32628W        W  846  31.519  39.403  13.520
32629W        W  847  20.665  35.616   1.401
32630W        W  848   2.952  31.058   4.037
32631W        W  849  22.988  36.841  14.407
32632W        W  850   0.783  38.050   2.847
32633W        W  851  21.609  24.181  12.925
32634W        W  852  39.198  38.982   3.395
32635W        W  853  33.419   0.760  12.648
32636W        W  854  42.839  26.959  14.267
32637W        W  855  36.722  20.187  13.849
32638W        W  856  18.583  19.968  10.557
32639W        W  857  42.743   5.934   2.691
32640W        W  858  43.009   3.776  13.496
32641W        W  859  27.677  43.975   1.173
32642W        W  860  26.944  32.770  11.533
32643W        W  861  39.921  30.860  13.504
32644W        W  862   7.881  13.807  12.411
32645W        W  863  27.950  42.495  10.558
32646W        W  864   3.359  36.137  12.508
32647W        W  865   3.064  34.250  11.119
32648W        W  866  29.409  42.896   0.725
32649W        W  867  20.358  30.846   2.629
32650W        W  868  31.846  34.354  11.620
32651W        W  869  14.655  18.061  11.346
32652W        W  870  25.269  31.814   2.896
32653W        W  871   6.958  40.306  13.622
32654W        W  872  28.105   1.291  11.744
32655W        W  873  33.163   1.704  13.760
32656W        W  874   7.447  30.624   4.166
32657W        W  875   8.448  29.120  13.271
32658W        W  876  36.958   8.852   2.329
32659W        W  877  13.269  40.800  13.760
32660W        W  878  35.597   7.411  14.337
32661W        W  879  36.987  27.187  10.572
32662W        W  880   1.063   3.875   4.619
32663W        W  881  28.122  37.691   3.965
32664W        W  882  13.613   6.404   3.917
32665W        W  883   0.909  35.535  11.718
32666W        W  884   4.482  43.771   2.281
32667W        W  885  19.707  42.974  11.540
32668W        W  886  21.107  40.190   1.136
32669W        W  887   9.132  31.601   0.882
32670W        W  888  24.050  44.849  10.467
32671W        W  889   5.315  18.402   5.167
32672W        W  890  34.735   8.067  12.626
32673W        W  891  34.411  16.754  14.362
32674W        W  892  39.768  31.154  11.090
32675W        W  893  10.677  43.814   3.312
32676W        W  894  32.807  13.701   0.457
32677W        W  895   7.782  20.649   1.979
32678W        W  896   0.308   7.692   3.702
32679W        W  897  36.478   8.303  11.904
32680W        W  898   6.320   3.761   4.910
32681W        W  899   5.938  10.398   4.150
32682W        W  900  30.043   6.744   2.206
32683W        W  901  35.487  26.590  10.718
32684W        W  902  24.979  16.563   4.353
32685W        W  903  28.821  30.558  12.995
32686W        W  904  35.083  15.191  12.760
32687W        W  905  17.612  10.055  11.959
32688W        W  906  18.334  41.802   0.304
32689W        W  907   5.794  41.807   1.415
32690W        W  908  25.281  23.044   4.011
32691W        W  909   6.990  10.933   3.681
32692W        W  910  34.553  36.540  12.573
32693W        W  911  28.249   2.759  13.256
32694W        W  912  32.886  25.027   0.493
32695W        W  913  24.742  31.057   1.474
32696W        W  914  25.562  12.553  13.431
32697W        W  915   3.728  28.895   2.262
32698W        W  916   8.885  18.324   1.369
32699W        W  917  41.913   7.504   2.109
32700W        W  918  19.374  24.580  12.243
32701W        W  919  10.306  34.015  10.447
32702W        W  920  30.594   3.922  11.880
32703W        W  921  14.119   3.483   4.647
32704W        W  922  42.383  14.216  11.099
32705W        W  923  30.602   6.328   0.863
32706W        W  924  12.214  23.118   3.228
32707W        W  925   8.769  34.736  13.393
32708W        W  926  28.353  17.835  13.287
32709W        W  927  33.555  23.720   0.303
32710W        W  928  26.472  15.208  12.041
32711W        W  929  13.729  37.394  11.988
32712W        W  930   7.190  42.937   1.471
32713W        W  931   4.896  20.818   0.463
32714W        W  932   0.440  14.571   2.962
32715W        W  933   0.839  14.840   3.120
32716W        W  934  13.058  14.199   0.484
32717W        W  935  24.666   9.394  11.575
32718W        W  936  23.752  41.333   2.354
32719W        W  937  10.677  32.505  13.485
32720W        W  938  22.199  36.285   0.984
32721W        W  939  11.791   5.772   1.770
32722W        W  940  28.229  31.396   0.270
32723W        W  941  10.905  38.507   2.863
32724W        W  942   8.758  11.160   4.759
32725W        W  943  32.619  13.209  11.837
32726W        W  944  39.974   6.821   2.475
32727W        W  945  37.281   0.259  14.336
32728W        W  946  24.148  40.920   4.432
32729W        W  947  26.133   1.842  13.948
32730W        W  948   4.905  22.071  13.033
32731W        W  949  18.712   3.407  13.439
32732W        W  950  34.270  32.849   4.541
32733W        W  951  35.024   7.119   3.556
32734W        W  952  12.668  25.959   0.600
32735W        W  953  21.850  41.248  13.098
32736W        W  954   5.438  31.609  13.134
32737W        W  955  18.152   8.330   0.466
32738W        W  956  44.796  12.639  10.597
32739W        W  957  16.668   7.799  11.105
32740W        W  958  24.270  12.231  13.011
32741W        W  959   2.983  13.523  11.164
32742W        W  960  21.472  14.194  14.924
32743W        W  961  12.307  13.458   3.514
32744W        W  962   5.414  14.824   0.260
32745W        W  963   2.070   3.400   1.053
32746W        W  964  28.786  13.129   5.047
32747W        W  965  43.901  39.352  13.504
32748W        W  966  20.769  16.144   0.877
32749W        W  967  35.391   1.457  13.559
32750W        W  968  40.349  33.486   1.925
32751W        W  969  10.736  13.255  13.297
32752W        W  970  10.435  42.835  12.657
32753W        W  971   7.015  10.167   3.306
32754W        W  972  22.260  11.390   2.442
32755W        W  973  25.585  39.502  10.926
32756W        W  974   3.998   3.745  12.273
32757W        W  975  38.993  25.894   2.452
32758W        W  976   8.563  10.860  12.095
32759W        W  977  37.793  35.827   2.647
32760W        W  978  39.304  38.103   3.778
32761W        W  979  26.122  38.929   0.204
32762W        W  980  18.297  16.053   0.796
32763W        W  981  12.142  20.077   2.191
32764W        W  982  40.347  37.664   3.468
32765W        W  983  40.348  37.964   1.428
32766W        W  984  22.579  35.860   2.748
32767W        W  985  20.749  19.310  12.091
32768W        W  986  35.569  15.127   4.128
32769W        W  987   8.051  28.000   4.657
32770W        W  988  36.818  42.769   5.073
32771W        W  989  43.266  38.503   3.253
32772W        W  990  30.578   8.895   1.745
32773W        W  991  12.467  26.074  12.174
32774W        W  992  37.467  27.825  12.500
32775W        W  993  16.305   9.479   1.608
32776W        W  994   6.173  24.681   2.722
32777W        W  995  43.342   0.448   1.245
32778W        W  996  44.360  30.602  12.167
32779W        W  997  13.066  28.454   0.907
32780W        W  998  39.500   5.453  14.883
32781W        W  999   6.480   0.945   1.325
32782W        W 1000  29.600   6.453   4.191
32783W        W 1001   7.929  10.076   3.192
32784W        W 1002   3.699  29.953   2.238
32785W        W 1003   4.719  25.204   3.181
32786W        W 1004  12.452  41.879   3.527
32787W        W 1005  31.579  43.503   3.737
32788W        W 1006  23.665  34.385  14.599
32789W        W 1007   1.935   7.908   2.724
32790W        W 1008  37.909   3.982  13.934
32791W        W 1009  27.412  26.677  13.669
32792W        W 1010   5.519   4.799  12.836
32793W        W 1011   6.550  38.844  14.945
32794W        W 1012  15.140  28.881   3.129
32795W        W 1013  20.642  22.704  13.847
32796W        W 1014  29.573  34.413   2.366
32797W        W 1015  41.741  23.723  14.779
32798W        W 1016  25.686  25.178  12.466
32799W        W 1017  44.862  21.694   2.378
32800W        W 1018   9.256   2.476  10.879
32801W        W 1019  30.942  13.883   2.040
32802W        W 1020  25.499  31.390  14.777
32803W        W 1021  25.608  18.752  10.742
32804W        W 1022  34.861  27.234  10.692
32805W        W 1023   4.465  10.356   1.398
32806W        W 1024   1.952  34.917  11.021
32807W        W 1025  21.659  17.978   0.317
32808W        W 1026  35.404  14.869   3.712
32809W        W 1027  35.071  40.221   2.719
32810W        W 1028  10.192  12.548  10.637
32811W        W 1029  19.262  25.508   2.315
32812W        W 1030  15.201   7.288   0.389
32813W        W 1031  37.528  10.201   1.096
32814W        W 1032  18.747  15.539  12.894
32815W        W 1033  19.419  42.654  10.769
32816W        W 1034   5.267  25.577  12.416
32817W        W 1035  34.926  43.104   4.039
32818W        W 1036  13.836  24.924  13.784
32819W        W 1037  12.237   7.675  13.450
32820W        W 1038  42.974   7.936   2.145
32821W        W 1039  33.447   7.360   1.795
32822W        W 1040  38.448  33.486   0.187
32823W        W 1041   1.828  32.351   1.981
32824W        W 1042  35.796  13.741  11.367
32825W        W 1043   9.688  39.139   2.254
32826W        W 1044  16.274  22.811   2.759
32827W        W 1045  30.059   7.556   4.377
32828W        W 1046   4.822  21.201  13.395
32829W        W 1047  22.377   7.844   4.453
32830W        W 1048  26.161  24.049   2.284
32831W        W 1049   9.913  12.706  12.103
32832W        W 1050   3.347   9.393   3.723
32833W        W 1051   7.150  32.748   2.099
32834W        W 1052   0.534  34.928   2.284
32835W        W 1053  18.307   9.170   0.756
32836W        W 1054  28.560   6.641  12.826
32837W        W 1055  14.275  23.251   0.225
32838W        W 1056   8.193   7.490  12.232
32839W        W 1057  21.137  19.557   1.243
32840W        W 1058  17.349   9.731   3.335
32841W        W 1059  44.951  10.906  13.033
32842W        W 1060  39.392  15.087  10.989
32843W        W 1061  26.815  11.139  11.103
32844W        W 1062   7.553  24.749   3.333
32845W        W 1063  43.456  30.360  10.883
32846W        W 1064   3.886  14.219   2.893
32847W        W 1065  24.579   1.958   1.778
32848W        W 1066  35.026  18.662   1.041
32849W        W 1067  33.801  16.941  11.388
32850W        W 1068  16.497  29.648  13.968
32851W        W 1069  28.339  17.137   1.734
32852W        W 1070  44.961  44.295   4.825
32853W        W 1071  41.363  13.030   3.293
32854W        W 1072  23.807  28.441  13.578
32855W        W 1073  25.975   4.365  14.325
32856W        W 1074  31.672  12.379   0.755
32857W        W 1075  27.232  33.374  14.366
32858W        W 1076   9.641  23.865   0.440
32859W        W 1077  21.637  14.115   3.128
32860W        W 1078  25.041  11.866  13.578
32861W        W 1079   6.211  44.923  11.665
32862W        W 1080  31.553   5.392  11.592
32863W        W 1081  30.782  36.931   3.620
32864W        W 1082  12.853  14.377   4.093
32865W        W 1083  10.188   9.778  12.610
32866W        W 1084  16.211   0.807  14.357
32867W        W 1085  42.394  33.928   1.985
32868W        W 1086  21.675  22.579  14.983
32869W        W 1087   8.210  41.938  14.012
32870W        W 1088  32.406  35.804   4.908
32871W        W 1089  33.916  10.940  13.755
32872W        W 1090  36.005   6.698  13.896
32873W        W 1091  27.610   2.576   3.289
32874W        W 1092   5.050  26.709   1.010
32875W        W 1093  11.709  19.035   2.410
32876W        W 1094   3.671  16.109  12.600
32877W        W 1095  17.445  38.843   2.663
32878W        W 1096  10.097   7.269   0.891
32879W        W 1097  17.021  17.257  10.958
32880W        W 1098   1.186  28.705   3.661
32881W        W 1099  44.859  11.891   1.375
32882W        W 1100  33.354  33.376  11.100
32883W        W 1101  36.397  24.050  13.500
32884W        W 1102  20.076   8.367   0.870
32885W        W 1103  31.917  31.499  11.632
32886W        W 1104  13.199  11.323   1.420
32887W        W 1105  11.515  23.377   1.242
32888W        W 1106  42.003  19.660  14.502
32889W        W 1107  44.835   6.247   2.339
32890W        W 1108   6.754  17.417  12.023
32891W        W 1109  33.118  41.390  11.352
32892W        W 1110   8.861  36.924  13.540
32893W        W 1111  33.329  44.901  13.233
32894W        W 1112   7.287  25.757  11.145
32895W        W 1113   4.907  24.552   0.739
32896W        W 1114  31.184  39.830  13.532
32897W        W 1115  36.246  29.200   5.020
32898W        W 1116  31.151  35.944   3.226
32899W        W 1117  18.303  13.131   4.034
32900W        W 1118  44.539  16.109   2.032
32901W        W 1119  37.270  16.463  12.107
32902W        W 1120  10.150  44.249  13.895
32903W        W 1121  19.584  26.749   1.376
32904W        W 1122  35.082  33.969  11.842
32905W        W 1123  32.420   8.500   5.022
32906W        W 1124  24.527  38.253   0.228
32907W        W 1125   4.433  19.438   4.618
32908W        W 1126   6.346   9.133   4.619
32909W        W 1127  20.316  40.856  11.593
32910W        W 1128  33.502  39.011   0.901
32911W        W 1129  36.057  30.722   0.085
32912W        W 1130  39.442   7.901   4.898
32913W        W 1131  16.298  38.867   0.379
32914W        W 1132   0.284  31.838  12.467
32915W        W 1133  28.075  40.682   3.674
32916W        W 1134  26.417  15.993   0.075
32917W        W 1135  32.197   2.001  14.537
32918W        W 1136  40.376  22.499   0.464
32919W        W 1137  37.999  29.420  12.137
32920W        W 1138  27.919  31.490   2.193
32921W        W 1139  31.292  39.749   1.831
32922W        W 1140  37.998  28.546  12.646
32923W        W 1141  14.099  25.515  11.172
32924W        W 1142  44.259   9.249   2.423
32925W        W 1143  11.874  28.455   2.530
32926W        W 1144  28.082  24.912  12.863
32927W        W 1145   9.184  21.025  10.802
32928W        W 1146  43.281  43.050  12.912
32929W        W 1147  43.013  32.624  12.920
32930W        W 1148  10.182  29.197   0.331
32931W        W 1149  27.210  35.394  12.429
32932W        W 1150  40.258   0.788  10.851
32933W        W 1151  28.525   8.789  14.790
32934W        W 1152  10.565   9.829   3.846
32935W        W 1153  20.123  13.701   9.780
32936W        W 1154  30.480  34.146   4.138
32937W        W 1155  34.100   8.761  12.621
32938W        W 1156  11.969  17.461   1.646
32939W        W 1157   5.844  19.203  13.796
32940W        W 1158  11.493  18.470   3.843
32941W        W 1159  39.854  15.769   2.555
32942W        W 1160   3.155   3.894   2.290
32943W        W 1161  40.580  34.078   1.247
32944W        W 1162  25.105   6.334   2.675
32945W        W 1163  36.052  27.970  13.122
32946W        W 1164  25.222  38.876  14.276
32947W        W 1165  11.854   2.102  14.876
32948W        W 1166  19.671  13.395   3.480
32949W        W 1167  36.080  26.403   3.781
32950W        W 1168  36.870   5.626  11.017
32951W        W 1169  17.311  43.907  14.412
32952W        W 1170  38.781  40.991   3.663
32953W        W 1171   5.142   1.243   0.973
32954W        W 1172  14.737  33.919  14.131
32955W        W 1173   6.844   8.990  14.962
32956W        W 1174  22.797  43.416   3.786
32957W        W 1175  43.200   9.932  13.640
32958W        W 1176  25.987   9.088   2.444
32959W        W 1177   1.239  33.043  14.899
32960W        W 1178  31.544   3.278   2.874
32961W        W 1179  22.507  29.976  12.748
32962W        W 1180  41.861   0.995  12.060
32963W        W 1181  38.263  42.382   1.333
32964W        W 1182  12.686  38.878   1.629
32965W        W 1183   6.825  39.920  10.500
32966W        W 1184  31.662  21.062   3.176
32967W        W 1185  20.566  28.094  13.512
32968W        W 1186  41.851  24.437   0.316
32969W        W 1187  28.430  44.971   4.249
32970W        W 1188  38.986  24.492  13.513
32971W        W 1189  33.044   3.363  12.996
32972W        W 1190  10.432  28.230   3.228
32973W        W 1191  35.038  33.348   3.305
32974W        W 1192  25.926   5.865   2.943
32975W        W 1193  20.246  39.056  12.036
32976W        W 1194  11.636  20.252  11.157
32977W        W 1195   4.214   4.726   5.052
32978W        W 1196  15.652   4.364  13.304
32979W        W 1197   7.901  33.127   4.740
32980W        W 1198  27.634  42.090  11.443
32981W        W 1199  11.248   3.622  12.934
32982W        W 1200   7.064  30.743  10.691
32983W        W 1201  16.062  22.059   1.693
32984W        W 1202  26.598   9.880   3.301
32985W        W 1203  26.630  22.698  12.952
32986W        W 1204  32.445   8.289   3.470
32987W        W 1205  42.873  34.415   4.463
32988W        W 1206  43.954   5.743  11.754
32989W        W 1207   6.135   7.712  12.469
32990W        W 1208  35.055  32.735  14.235
32991W        W 1209  39.011  32.718   3.579
32992W        W 1210  31.083  16.210  12.998
32993W        W 1211  34.166   3.373   0.285
32994W        W 1212  14.639  34.737   4.633
32995W        W 1213  44.200  33.368  10.198
32996W        W 1214  32.492  39.243  12.501
32997W        W 1215  10.381  15.859   4.542
32998W        W 1216   5.865   8.932   0.930
32999W        W 1217   8.184  24.973   0.273
33000W        W 1218  32.893   7.274   4.130
33001W        W 1219   9.337  36.121   2.867
33002W        W 1220  20.947  34.493   0.926
33003W        W 1221  25.417  27.253  12.091
33004W        W 1222  42.308  13.862   3.862
33005W        W 1223   8.298  17.720  13.251
33006W        W 1224   3.723  17.238  11.119
33007W        W 1225  38.775  11.647  13.463
33008W        W 1226   8.796  17.134  13.418
33009W        W 1227  31.387  29.472   0.881
33010W        W 1228  37.319   2.953  14.415
33011W        W 1229  20.158  38.130  14.914
33012W        W 1230  40.532  22.592  13.338
33013W        W 1231  37.751  36.911   0.355
33014W        W 1232  34.679  13.183  14.961
33015W        W 1233  35.324   8.515   3.788
33016W        W 1234  39.872  21.924  11.904
33017W        W 1235  18.770   8.912   5.043
33018W        W 1236  29.193  14.626   2.737
33019W        W 1237   2.280  31.244  10.683
33020W        W 1238  29.618  18.534  12.952
33021W        W 1239  44.877   7.157   1.235
33022W        W 1240  38.060  17.762  11.080
33023W        W 1241  41.988  12.184  10.678
33024W        W 1242  36.366   4.964   1.673
33025W        W 1243   1.809  34.692  10.581
33026W        W 1244   7.202  18.598  14.808
33027W        W 1245  22.150  17.783  12.509
33028W        W 1246  29.628   6.842  12.049
33029W        W 1247  42.574  25.522  11.117
33030W        W 1248  26.967  44.211   1.937
33031W        W 1249  12.318   9.621  14.477
33032W        W 1250   0.817  34.352  11.019
33033W        W 1251   3.353  24.547   2.357
33034W        W 1252  31.989  36.337  10.723
33035W        W 1253  35.863  24.893   0.836
33036W        W 1254  11.207  31.079   4.152
33037W        W 1255  44.428  14.868   5.205
33038W        W 1256   4.950   7.692  13.472
33039W        W 1257  13.726   9.350  11.618
33040W        W 1258  13.167  14.205  10.766
33041W        W 1259  33.292  10.050  13.566
33042W        W 1260   6.351  13.602   4.225
33043W        W 1261   4.336  28.765   1.310
33044W        W 1262  27.236   8.551   0.401
33045W        W 1263  30.499   2.413  12.053
33046W        W 1264   3.703   1.135  13.530
33047W        W 1265  43.420   7.808  12.537
33048W        W 1266  34.614  18.300   1.374
33049W        W 1267  43.780   4.872   1.422
33050W        W 1268  27.990  21.999  11.296
33051W        W 1269  27.218  12.843  14.988
33052W        W 1270  44.451   4.124   1.827
33053W        W 1271   5.721  17.702   1.257
33054W        W 1272   1.056   7.362   3.731
33055W        W 1273   9.981  29.144  14.557
33056W        W 1274  23.161  35.445  12.360
33057W        W 1275  40.989  37.845  12.796
33058W        W 1276  21.997  43.464   4.156
33059W        W 1277  25.782  11.402  13.890
33060W        W 1278  31.882   0.446   0.303
33061W        W 1279  40.545  40.922   1.091
33062W        W 1280  11.346  26.635  13.061
33063W        W 1281  33.935  11.366   1.385
33064W        W 1282  11.233   1.789   0.737
33065W        W 1283  26.748  43.069   4.128
33066W        W 1284  38.045  29.401  14.852
33067W        W 1285  44.112  44.713  10.893
33068W        W 1286  42.776  15.857   0.800
33069W        W 1287  36.317  25.436  12.014
33070W        W 1288  41.584  34.584  14.391
33071W        W 1289  43.815  29.731  12.922
33072W        W 1290  17.018   1.948   3.739
33073W        W 1291  18.487  23.478   2.711
33074W        W 1292  21.235  28.494   4.943
33075W        W 1293   1.388  11.554  13.057
33076W        W 1294  33.668  35.030   2.820
33077W        W 1295  32.652  42.336  11.283
33078W        W 1296  10.183  13.762   0.005
33079W        W 1297   4.699  35.604   9.977
33080W        W 1298  24.556   7.077   2.841
33081W        W 1299   3.971  44.594   3.296
33082W        W 1300  44.951   0.341  12.154
33083W        W 1301  19.194  19.696   4.011
33084W        W 1302  34.032  16.614   2.411
33085W        W 1303  12.232  25.744  11.270
33086W        W 1304  13.253  27.941  13.098
33087W        W 1305  30.050  28.683   3.232
33088W        W 1306  25.699  24.691   0.810
33089W        W 1307  39.063  35.786   3.617
33090W        W 1308   6.237   9.834  10.693
33091W        W 1309   9.670  14.103   4.090
33092W        W 1310  16.657  19.022  14.599
33093W        W 1311  25.222  12.279   4.424
33094W        W 1312  16.530  15.037  12.363
33095W        W 1313  38.478   6.963  13.112
33096W        W 1314   1.387   2.537  10.794
33097W        W 1315  41.830  43.769   2.270
33098W        W 1316  20.179  30.483   0.427
33099W        W 1317  43.736  27.740  14.855
33100W        W 1318  20.300  26.524   2.276
33101W        W 1319  40.145   2.689  13.871
33102W        W 1320   6.012  42.365   4.101
33103W        W 1321  32.428  20.951   2.830
33104W        W 1322  19.261  43.998   3.729
33105W        W 1323  27.561  28.747   0.493
33106W        W 1324  33.405  32.513   2.506
33107W        W 1325   1.556  27.113   0.380
33108W        W 1326  44.310   3.627   4.129
33109W        W 1327  34.318   2.707   2.160
33110W        W 1328  25.988  38.043   1.288
33111W        W 1329  40.037   2.172   4.285
33112W        W 1330  20.928  28.500  11.526
33113W        W 1331  38.474   8.420   1.596
33114W        W 1332   5.506  36.616  13.985
33115W        W 1333   3.570  22.478  14.766
33116W        W 1334  32.572   6.515  11.163
33117W        W 1335  36.100  34.484   0.642
33118W        W 1336  44.463  37.823   1.347
33119W        W 1337  41.395   2.501   3.196
33120W        W 1338  42.867  22.227  13.507
33121W        W 1339   2.606  17.180   2.814
33122W        W 1340  38.096   0.722  14.932
33123W        W 1341  38.916  11.439   4.133
33124W        W 1342  13.047   8.570  10.662
33125W        W 1343  21.866  43.980  10.706
33126W        W 1344   4.437  20.658   3.044
33127W        W 1345   5.164  28.253  11.083
33128W        W 1346   5.176  35.822   4.146
33129W        W 1347  12.334  38.577   1.937
33130W        W 1348  32.552  25.938   3.764
33131W        W 1349   1.876  37.948  11.252
33132W        W 1350  12.552  34.394   4.058
33133W        W 1351  20.938  35.844  11.993
33134W        W 1352  27.611   9.307   1.250
33135W        W 1353  28.957  32.878   3.339
33136W        W 1354  13.763  33.667   0.311
33137W        W 1355  38.381  11.690  13.155
33138W        W 1356  14.269  30.147  12.770
33139W        W 1357   0.040  44.946  14.803
33140W        W 1358   4.454  12.969  12.114
33141W        W 1359  43.515  22.025   4.076
33142W        W 1360  25.480  38.316   4.580
33143W        W 1361  26.190  16.666  13.310
33144W        W 1362  36.549  28.954  12.092
33145W        W 1363  18.876  33.883   2.619
33146W        W 1364  11.395   1.859   2.850
33147W        W 1365  25.124  10.360   0.740
33148W        W 1366  26.915  27.493  12.397
33149W        W 1367  11.084  34.907  13.708
33150W        W 1368  13.332  27.171  12.521
33151W        W 1369  10.331  34.329  12.587
33152W        W 1370  32.382  35.425   0.785
33153W        W 1371  36.925  15.968  14.261
33154W        W 1372  14.151  20.112  13.460
33155W        W 1373  24.134  22.695  11.197
33156W        W 1374  25.738   1.935  13.134
33157W        W 1375   7.700  31.713   2.433
33158W        W 1376  21.476   6.433   2.220
33159W        W 1377  16.201  36.604  11.190
33160W        W 1378  21.226   8.155  13.460
33161W        W 1379  31.234  17.660   4.172
33162W        W 1380  34.169  20.234  10.759
33163W        W 1381  27.055  38.214  11.565
33164W        W 1382  26.213  17.837   2.421
33165W        W 1383   0.373  39.534  11.955
33166W        W 1384  44.721  12.085  11.530
33167W        W 1385  30.931  22.943   4.020
33168W        W 1386  19.572  28.576   0.947
33169W        W 1387   4.263  42.390  13.089
33170W        W 1388  17.888  33.234   2.696
33171W        W 1389  30.352  19.481   1.209
33172W        W 1390  42.529  15.987   2.300
33173W        W 1391  17.682  20.015  11.566
33174W        W 1392  27.556  41.422  13.133
33175W        W 1393  33.316   6.315   5.122
33176W        W 1394   9.861  25.073  14.837
33177W        W 1395  10.557  41.641  11.207
33178W        W 1396  17.107  27.399  10.507
33179W        W 1397  23.712  35.551   5.475
33180W        W 1398  44.737   9.989  10.598
33181W        W 1399  12.577  31.206   3.336
33182W        W 1400  30.255   5.719   1.385
33183W        W 1401  37.001  16.188   1.220
33184W        W 1402  10.139  23.032  14.764
33185W        W 1403  19.762   5.668  13.735
33186W        W 1404  38.798   7.225  14.029
33187W        W 1405  28.029   3.583  12.932
33188W        W 1406   1.712   4.964  13.574
33189W        W 1407  11.843  25.447  14.594
33190W        W 1408   8.330  19.543  12.992
33191W        W 1409   1.250  11.775   3.492
33192W        W 1410  33.520  43.028  12.544
33193W        W 1411  15.422  33.350  12.631
33194W        W 1412  33.443   7.875   1.818
33195W        W 1413  34.745  37.263  11.930
33196W        W 1414  33.630   0.487   4.384
33197W        W 1415  18.205  34.174  14.451
33198W        W 1416  15.128  38.138  14.555
33199W        W 1417  36.954  15.298  12.357
33200W        W 1418  15.303  12.301   5.247
33201W        W 1419  23.950  18.332   0.034
33202W        W 1420  14.371  44.525   2.059
33203W        W 1421   4.289  27.406   3.656
33204W        W 1422  44.927   9.608   0.304
33205W        W 1423  42.977  30.499  11.650
33206W        W 1424  34.115  24.200  12.174
33207W        W 1425  20.289  27.688   2.362
33208W        W 1426  21.587   1.186   0.770
33209W        W 1427  27.892  41.243   2.824
33210W        W 1428  24.980  10.249   1.245
33211W        W 1429   9.200  32.407  11.997
33212W        W 1430  18.708  35.988   4.990
33213W        W 1431  27.286  32.599  11.182
33214W        W 1432  37.886  29.871  13.040
33215W        W 1433  12.282  36.139   1.350
33216W        W 1434  42.849  36.903  12.871
33217W        W 1435  13.122  24.314   2.148
33218W        W 1436  16.544  27.192  13.943
33219W        W 1437   6.845  25.687   1.937
33220W        W 1438  32.443  13.654   3.688
33221W        W 1439  17.287  14.386  12.692
33222W        W 1440  42.573  23.092   4.376
33223W        W 1441   2.236  10.845  12.349
33224W        W 1442  12.771  14.590   1.462
33225W        W 1443  27.013  42.729  11.156
33226W        W 1444  44.806  44.888  13.462
33227W        W 1445  43.352  21.739   0.503
33228W        W 1446  43.316  40.994   1.271
33229W        W 1447  19.528  22.088  11.163
33230W        W 1448  42.752   1.377   4.111
33231W        W 1449   6.486   5.877  11.931
33232W        W 1450  21.296  15.379   2.749
33233W        W 1451   0.953   0.611  13.672
33234W        W 1452  20.807  19.026   2.745
33235W        W 1453   9.719  35.572   4.915
33236W        W 1454   6.602  39.418   0.476
33237W        W 1455  20.025  15.226   1.812
33238W        W 1456  38.843  32.921   1.429
33239W        W 1457   0.768   7.288   4.150
33240W        W 1458  29.720  25.744  12.542
33241W        W 1459  40.003   6.978   0.549
33242W        W 1460  27.435  25.250   3.778
33243W        W 1461  38.313  32.087   4.113
33244W        W 1462   1.817   2.695  12.798
33245W        W 1463  14.364  33.678  13.741
33246W        W 1464   7.049  21.428  10.867
33247W        W 1465   7.671  21.321  13.520
33248W        W 1466  15.972  13.417   4.881
33249W        W 1467  25.862  27.437  12.364
33250W        W 1468  18.693  14.823  14.809
33251W        W 1469  14.759  10.739   3.326
33252W        W 1470  19.044  38.903  12.474
33253W        W 1471  15.567  37.471   1.390
33254W        W 1472   9.139   6.759  12.462
33255W        W 1473  40.839   4.408  13.348
33256W        W 1474  38.958  21.691  12.131
33257W        W 1475  44.026   4.926  13.977
33258W        W 1476   3.333   1.508  11.141
33259W        W 1477  23.561   0.350  13.621
33260W        W 1478  18.459   5.055   5.176
33261W        W 1479   3.058   3.282   0.807
33262W        W 1480   4.602  33.356   1.930
33263W        W 1481  40.143  12.729  11.154
33264W        W 1482   5.589   5.910  12.856
33265W        W 1483  20.685  13.054   2.465
33266W        W 1484  14.061  35.462  12.419
33267W        W 1485  37.488  30.713  12.966
33268W        W 1486  15.164  23.751   2.406
33269W        W 1487  33.011  44.741  14.001
33270W        W 1488  43.128  43.357   1.431
33271W        W 1489  35.138   4.196   3.166
33272W        W 1490   3.451   1.938   1.404
33273W        W 1491  32.556  14.117  12.402
33274W        W 1492  28.763  31.611  11.069
33275W        W 1493  30.544  30.656   4.318
33276W        W 1494  42.550  38.464  14.453
33277W        W 1495  20.156  18.162  11.159
33278W        W 1496  25.923  10.162  13.489
33279W        W 1497  25.589  12.841  13.866
33280W        W 1498  34.634  17.553  14.073
33281W        W 1499  43.026   3.670   3.024
33282W        W 1500  26.961  20.578   3.221
33283W        W 1501  10.116   3.671  11.592
33284W        W 1502  29.503  31.149  11.548
33285W        W 1503   6.683  24.034   0.446
33286W        W 1504   4.352  43.275  12.099
33287W        W 1505  36.651   7.303   1.818
33288W        W 1506  22.702  40.612   3.099
33289W        W 1507   7.792  13.914  14.786
33290W        W 1508   8.405  35.548  12.410
33291W        W 1509   6.300   4.413   0.323
33292W        W 1510  26.910  26.386   0.950
33293W        W 1511  38.841  26.419   4.143
33294W        W 1512  42.312  41.911   4.436
33295W        W 1513  25.032  38.945   1.634
33296W        W 1514  39.271  14.743  13.486
33297W        W 1515   7.743  16.666   1.290
33298W        W 1516  19.625  35.308  13.817
33299W        W 1517  40.713  25.678  11.616
33300W        W 1518  10.599  14.331   3.772
33301W        W 1519  44.372  12.594  13.190
33302W        W 1520  33.621  19.613  14.361
33303W        W 1521   8.205  18.633  14.976
33304W        W 1522  43.557  34.565   1.859
33305W        W 1523  25.882  31.126  13.435
33306W        W 1524  20.512   9.652   1.800
33307W        W 1525  27.350   3.792  11.168
33308W        W 1526  23.432  40.474   4.548
33309W        W 1527  43.196  21.678   1.815
33310W        W 1528   7.942  41.814  13.487
33311W        W 1529  22.055  32.418  11.835
33312W        W 1530  10.733  34.448  13.856
33313W        W 1531  25.434  28.918   2.735
33314W        W 1532   0.009   6.313  10.546
33315W        W 1533  34.980  15.222   4.655
33316W        W 1534   6.647  17.174   0.423
33317W        W 1535  25.588  42.833   1.948
33318W        W 1536  18.963   2.799   1.899
33319W        W 1537  23.604  28.475  11.872
33320W        W 1538  15.637  29.563   5.273
33321W        W 1539  15.039   4.622  11.651
33322W        W 1540  38.285  43.895  14.936
33323W        W 1541  12.310  27.233  14.371
33324W        W 1542  16.537  39.570   1.803
33325W        W 1543  32.410  12.442   1.483
33326W        W 1544   1.369  33.555  14.803
33327W        W 1545  11.614  10.037  13.867
33328W        W 1546  31.463   0.825   4.681
33329W        W 1547  19.646  36.045   0.208
33330W        W 1548  21.638  36.942   4.558
33331W        W 1549  25.893  13.338  13.049
33332W        W 1550   4.354  38.928   3.234
33333W        W 1551  43.479  26.430   0.363
33334W        W 1552  32.078  31.890  10.926
33335W        W 1553  23.086  22.128   2.202
33336W        W 1554  29.350  12.620  14.401
33337W        W 1555  35.647  15.276  11.976
33338W        W 1556  39.963  29.194  12.251
33339W        W 1557  16.741   3.829  14.965
33340W        W 1558  37.178  28.567  11.030
33341W        W 1559  43.708  15.134   0.358
33342W        W 1560  39.896   9.003   4.123
33343W        W 1561  40.162   9.646  12.835
33344W        W 1562   2.610  30.446  14.508
33345W        W 1563  11.023  31.446  12.058
33346W        W 1564  13.317  26.507  10.540
33347W        W 1565  26.724   0.413   2.166
33348W        W 1566  30.039  20.979   0.311
33349W        W 1567  36.512  13.849   4.895
33350W        W 1568   4.374  42.839  12.842
33351W        W 1569  44.516  36.888   2.469
33352W        W 1570   6.733  35.726  11.098
33353W        W 1571  27.683  23.718   1.733
33354W        W 1572   7.260   2.032   4.390
33355W        W 1573  17.122  13.645   4.054
33356W        W 1574  19.167  40.893  14.888
33357W        W 1575  13.209   4.010  13.818
33358W        W 1576   5.617   6.249   3.673
33359W        W 1577  26.646  25.962   0.741
33360W        W 1578  34.630  38.849  12.948
33361W        W 1579  12.764  36.199  11.644
33362W        W 1580  40.288  12.239  12.020
33363W        W 1581  17.647  32.264   0.405
33364W        W 1582  26.137  32.885  12.002
33365W        W 1583  34.512  41.317  14.128
33366W        W 1584   3.064  44.438  13.818
33367W        W 1585  17.717  24.203   2.766
33368W        W 1586  25.265  37.035  12.524
33369W        W 1587   8.613   1.116   1.794
33370W        W 1588  34.417  20.991   4.069
33371W        W 1589  24.502  32.652  12.387
33372W        W 1590  16.155  13.326   1.113
33373W        W 1591  23.523  30.436  14.832
33374W        W 1592  43.221  37.170  10.638
33375W        W 1593  10.957   9.909   1.963
33376W        W 1594  12.821  29.390   4.941
33377W        W 1595  17.978   3.373  11.922
33378W        W 1596  41.279  34.073  13.519
33379W        W 1597  21.254  11.014  14.474
33380W        W 1598  27.600  24.982  13.900
33381W        W 1599  25.432  19.650  14.911
33382W        W 1600   9.460  31.851  12.713
33383W        W 1601  27.723  24.563  13.486
33384W        W 1602   5.358  29.992   0.364
33385W        W 1603  21.817   8.794   1.642
33386W        W 1604  43.279  32.345   1.154
33387W        W 1605  22.517   9.851  10.607
33388W        W 1606  18.617   7.887  11.726
33389W        W 1607   3.615  41.032   3.746
33390W        W 1608  13.339  33.718   0.715
33391W        W 1609  42.987  24.147  12.170
33392W        W 1610  25.196  14.225  13.099
33393W        W 1611   0.582   7.710   1.540
33394W        W 1612   9.704  28.857   3.637
33395W        W 1613  28.149  17.760   1.962
33396W        W 1614  16.653  16.242   4.484
33397W        W 1615  32.513  20.169   4.588
33398W        W 1616  27.624   4.980  11.321
33399W        W 1617  36.593  43.348  12.454
33400W        W 1618   7.958  18.096  10.088
33401W        W 1619   3.899  10.870   3.125
33402W        W 1620  15.557  35.406   0.895
33403W        W 1621  33.979  26.548   1.301
33404W        W 1622  20.263  35.952   2.799
33405W        W 1623  29.933   3.456  14.626
33406W        W 1624  13.759  17.814  14.746
33407W        W 1625  19.953  22.752   3.616
33408W        W 1626   1.281   6.723   1.831
33409W        W 1627  24.079  33.110  14.564
33410W        W 1628   8.298  21.474   0.008
33411W        W 1629  28.840  17.607   4.602
33412W        W 1630  40.814  12.438  14.870
33413W        W 1631  26.197  28.041   0.774
33414W        W 1632  25.174  43.866  10.555
33415W        W 1633  24.755   5.444  11.962
33416W        W 1634  30.545   2.712   1.647
33417W        W 1635   8.411  24.236   3.880
33418W        W 1636  28.608  20.164  11.902
33419W        W 1637  29.910  36.121  13.500
33420W        W 1638   4.736   5.918   3.769
33421W        W 1639  19.193  39.536  10.594
33422W        W 1640   6.303   6.937  14.454
33423W        W 1641  39.757  25.828  12.636
33424W        W 1642  27.240   8.095  13.995
33425W        W 1643  37.645  36.461   5.207
33426W        W 1644  42.555  37.690  11.403
33427W        W 1645  18.839   9.744  13.510
33428W        W 1646   6.009  17.384  13.116
33429W        W 1647  44.927  20.011   3.271
33430W        W 1648  30.379  11.715   4.176
33431W        W 1649  43.288   5.209   3.913
33432W        W 1650  29.329  17.131   3.846
33433W        W 1651  27.426   2.239   1.895
33434W        W 1652   0.140   9.083   5.098
33435W        W 1653   9.746   6.329  12.104
33436W        W 1654  20.251   7.255   0.449
33437W        W 1655  30.646   8.699   3.705
33438W        W 1656  13.573  32.584  13.867
33439W        W 1657  13.847  31.167  10.644
33440W        W 1658  15.745  33.044   1.702
33441W        W 1659   1.494  27.838   3.636
33442W        W 1660  10.209  38.912  11.891
33443W        W 1661   3.262  13.089  11.111
33444W        W 1662  44.951   1.702   3.393
33445W        W 1663  16.280  13.303   0.615
33446W        W 1664   0.387   5.711   4.616
33447W        W 1665  37.919  35.433  12.494
33448W        W 1666  18.163  14.667  10.616
33449W        W 1667  19.234  25.740   1.853
33450W        W 1668   9.387  33.156   4.048
33451W        W 1669  40.581  25.068   1.402
33452W        W 1670  41.814   7.703   1.544
33453W        W 1671  19.140  39.917   4.722
33454W        W 1672   2.408   3.903  10.419
33455W        W 1673  35.260  42.757  13.204
33456W        W 1674  16.251  24.227   4.303
33457W        W 1675  25.521  33.200  12.431
33458W        W 1676  32.560  27.493   3.518
33459W        W 1677  25.467  11.316   2.376
33460W        W 1678  28.162   3.084  12.859
33461W        W 1679  13.788  27.403  12.647
33462W        W 1680  41.543  26.783   2.847
33463W        W 1681  13.353  21.020   1.834
33464W        W 1682  26.272  10.301   2.837
33465W        W 1683  23.759  29.166  10.865
33466W        W 1684  15.359  29.014  10.893
33467W        W 1685  41.579   5.740  12.558
33468W        W 1686  34.467  44.468  12.670
33469W        W 1687  20.937  38.393  12.838
33470W        W 1688   5.690  22.933   1.359
33471W        W 1689   0.781  21.505  12.383
33472W        W 1690   4.736  30.514  11.016
33473W        W 1691   3.328  33.918   2.672
33474W        W 1692  17.893  15.711   5.287
33475W        W 1693   5.321  31.610  14.462
33476W        W 1694  13.152  29.812   4.022
33477W        W 1695  33.713   4.684   1.789
33478W        W 1696   5.704  43.279   1.538
33479W        W 1697   4.986  14.247   0.005
33480W        W 1698  16.731   7.205  14.343
33481W        W 1699  41.799  43.397  13.721
33482W        W 1700   2.332  31.062   3.121
33483W        W 1701  30.490  32.620   0.365
33484W        W 1702  40.749  16.686   3.213
33485W        W 1703  39.972  36.066  14.327
33486W        W 1704  37.054  26.616  13.291
33487W        W 1705  23.141  27.540   4.478
33488W        W 1706   8.874   1.997  12.317
33489W        W 1707  24.486  36.015   4.249
33490W        W 1708   0.251  34.044   1.297
33491W        W 1709  11.132  39.766   0.210
33492W        W 1710  17.250  17.963   2.780
33493W        W 1711  37.118  37.004   4.752
33494W        W 1712  38.569  36.337  12.675
33495W        W 1713  20.579   1.532   0.730
33496W        W 1714  43.485  18.128   0.903
33497W        W 1715   4.638  33.035   3.505
33498W        W 1716  14.804  41.486  13.025
33499W        W 1717  17.550  19.561   3.673
33500W        W 1718  24.510  32.027  14.935
33501W        W 1719  34.115   6.596  12.018
33502W        W 1720   6.304  37.591   3.218
33503W        W 1721  22.083   7.913   2.275
33504W        W 1722  43.826   7.269   1.002
33505W        W 1723  11.330   7.802   4.198
33506W        W 1724  24.121  37.207   4.462
33507W        W 1725  39.935  33.915  10.987
33508W        W 1726  12.058  18.154  13.049
33509W        W 1727  23.211  16.151  13.780
33510W        W 1728  10.155  27.760   4.211
33511W        W 1729  19.928  31.454  12.116
33512W        W 1730  37.305  37.521   1.472
33513W        W 1731  23.137  31.357  12.388
33514W        W 1732  24.166   5.338   0.848
33515W        W 1733  18.274  14.302  10.273
33516W        W 1734   0.209  37.355  14.912
33517W        W 1735   7.339  21.881  10.992
33518W        W 1736  12.103  43.379   3.918
33519W        W 1737  27.157  40.915   1.598
33520W        W 1738  14.210   4.748  13.167
33521W        W 1739  39.530  12.200   3.248
33522W        W 1740   6.726  39.888  13.411
33523W        W 1741  43.060  11.922  12.552
33524W        W 1742  28.009  35.539  11.488
33525W        W 1743  40.290  31.939  14.958
33526W        W 1744  40.715  36.553  11.570
33527W        W 1745  25.403  23.015   3.262
33528W        W 1746  36.126  42.542   3.607
33529W        W 1747  42.345  43.732  11.139
33530W        W 1748  14.801  23.168  12.515
33531W        W 1749   8.112  35.387  14.857
33532W        W 1750  20.888   1.221   0.444
33533W        W 1751  10.740  44.248   2.665
33534W        W 1752  19.153  35.063  13.802
33535W        W 1753  43.070  29.691   3.910
33536W        W 1754  42.836  20.307  14.515
33537W        W 1755  24.288  21.126  10.770
33538W        W 1756  19.710  42.513  13.002
33539W        W 1757  19.387  26.858  13.444
33540W        W 1758   5.881  10.361  11.039
33541W        W 1759  29.334   7.877  12.552
33542W        W 1760  33.915  25.239  14.120
33543W        W 1761  29.698  21.700  13.756
33544W        W 1762   7.785  35.038   1.818
33545W        W 1763  41.396  40.374   2.582
33546W        W 1764   1.230  28.908  14.230
33547W        W 1765  17.552  16.116  14.311
33548W        W 1766  34.095   0.710  11.909
33549W        W 1767   5.296  24.944   2.269
33550W        W 1768   7.483   8.390  14.887
33551W        W 1769  29.029  16.060  14.021
33552W        W 1770  36.603  44.479   3.668
33553W        W 1771  20.474   0.705   1.305
33554W        W 1772  36.907  14.585  11.171
33555W        W 1773  12.389  41.931   1.746
33556W        W 1774  42.607  24.476   0.978
33557W        W 1775  13.203  34.540   3.667
33558W        W 1776  16.110   6.427   1.443
33559W        W 1777  13.539  22.458   1.615
33560W        W 1778  44.681  28.986   4.908
33561W        W 1779  43.824  27.954  12.535
33562W        W 1780  30.893  43.672   4.019
33563W        W 1781  39.517  22.351   2.299
33564W        W 1782  41.788   2.978   1.385
33565W        W 1783  27.510  42.052   1.239
33566W        W 1784  15.148  36.520   4.400
33567W        W 1785  36.614   1.289   2.781
33568W        W 1786  24.786  23.199   3.888
33569W        W 1787  23.182  12.815   2.303
33570W        W 1788  16.279  40.469  12.405
33571W        W 1789  30.450   0.702   4.627
33572W        W 1790  20.740   0.686  11.306
33573W        W 1791  25.172  20.012   3.585
33574W        W 1792  28.559  23.048   9.633
33575W        W 1793  29.629   9.225   4.794
33576W        W 1794  31.525  30.415  12.065
33577W        W 1795  28.357  16.689   5.033
33578W        W 1796  18.784  12.656   2.295
33579W        W 1797  16.255  26.593  11.478
33580W        W 1798   6.517   4.706   2.315
33581W        W 1799  42.468   9.428   1.362
33582W        W 1800  30.542  30.100  14.970
33583W        W 1801  15.280  22.199  11.656
33584W        W 1802  42.677  39.771  11.066
33585W        W 1803   3.272  17.776   2.244
33586W        W 1804   4.403  11.343  12.401
33587W        W 1805  11.670  13.147  11.568
33588W        W 1806  33.963  18.531  11.607
33589W        W 1807  31.354  15.722  10.273
33590W        W 1808  27.228  26.274  13.405
33591W        W 1809  33.176   6.474   4.225
33592W        W 1810   0.081   3.370   1.457
33593W        W 1811   7.802  12.921   1.900
33594W        W 1812  26.631  37.386  13.294
33595W        W 1813  25.821   2.955   2.409
33596W        W 1814  30.768  17.052  10.531
33597W        W 1815  39.298  30.643   4.092
33598W        W 1816  42.037  23.888  11.093
33599W        W 1817  36.793  23.943   4.215
33600W        W 1818  23.963  18.849   3.617
33601W        W 1819  37.943   3.434   0.538
33602W        W 1820  37.827  38.595  11.843
33603W        W 1821  24.022  12.615  12.013
33604W        W 1822  21.289  32.784  13.821
33605W        W 1823  38.110  16.065  13.001
33606W        W 1824  27.923   8.263   4.545
33607W        W 1825   5.151  15.910  14.321
33608W        W 1826   4.362  31.593   1.326
33609W        W 1827  25.963  26.670   0.959
33610W        W 1828  42.332  28.694   4.145
33611W        W 1829   3.887   9.834   3.218
33612W        W 1830  23.942  35.008   1.810
33613W        W 1831  26.151  36.076   4.805
33614W        W 1832   2.301  17.527  13.432
33615W        W 1833   9.939  33.166   3.716
33616W        W 1834  17.970  20.032  12.029
33617W        W 1835  24.613   2.611  12.368
33618W        W 1836   5.836  43.897   9.905
33619W        W 1837   0.230  38.376  12.450
33620W        W 1838  24.686  24.780  14.342
33621W        W 1839  20.502  20.030   1.398
33622W        W 1840  24.280  24.465   3.790
33623W        W 1841  21.144  34.927   4.750
33624W        W 1842   5.205   2.689  12.492
33625W        W 1843  35.382  16.363   3.604
33626W        W 1844  15.374  34.063  11.960
33627W        W 1845   1.207  42.969   0.546
33628W        W 1846  12.319  19.838   1.193
33629W        W 1847  29.726   5.757   0.955
33630W        W 1848  30.631  14.143  11.910
33631W        W 1849  36.769  28.053  14.808
33632W        W 1850  39.838  10.797   2.256
33633W        W 1851   8.916  30.673  11.917
33634W        W 1852  30.415   4.872  13.379
33635W        W 1853  27.605  25.700  12.670
33636W        W 1854  19.695   7.707   2.758
33637W        W 1855  25.255   3.932   3.944
33638W        W 1856  17.126  19.234   0.335
33639W        W 1857  44.339   7.451  13.414
33640W        W 1858  20.538  22.094   1.698
33641W        W 1859   2.722  18.829   1.615
33642W        W 1860   4.022  39.546   3.489
33643W        W 1861  43.933  21.209  10.013
33644W        W 1862   6.131  31.038  13.973
33645W        W 1863   9.799  44.746   2.460
33646W        W 1864   6.293   5.429  14.454
33647W        W 1865  14.572   8.336  11.531
33648W        W 1866  42.157  12.753  13.611
33649W        W 1867  14.583  23.536   3.458
33650W        W 1868   7.788   8.814   2.800
33651W        W 1869  34.963  18.729   2.009
33652W        W 1870  10.321  25.602  12.353
33653W        W 1871  44.925   3.774  13.322
33654W        W 1872  13.589  41.939  13.550
33655W        W 1873  28.889  36.370   4.404
33656W        W 1874  18.732   1.968  11.668
33657W        W 1875  30.102  26.570   3.663
33658W        W 1876  13.836  31.661  10.494
33659W        W 1877  10.628  39.996  13.024
33660W        W 1878   3.830  24.347   1.888
33661W        W 1879  11.939   0.837   3.579
33662W        W 1880   6.656  32.530  11.064
33663W        W 1881  12.831  22.071   0.003
33664W        W 1882   4.211  11.066   1.980
33665W        W 1883  33.273   6.775  13.387
33666W        W 1884  30.096  36.097  11.194
33667W        W 1885  31.993  33.499   2.736
33668W        W 1886   8.187  32.977   0.406
33669W        W 1887  38.110  43.639   2.220
33670W        W 1888  33.467  30.759   4.003
33671W        W 1889   5.900   8.852   1.854
33672W        W 1890   0.182  12.836  14.306
33673W        W 1891  31.879   1.435   1.540
33674W        W 1892  33.294  35.084  14.555
33675W        W 1893  27.489  38.471  11.721
33676W        W 1894  14.469   2.632   5.095
33677W        W 1895  44.192   0.681  13.323
33678W        W 1896  22.505  19.239   4.511
33679W        W 1897  44.273  13.172   0.860
33680W        W 1898  42.550  40.953   1.944
33681W        W 1899  40.479   3.904  12.115
33682W        W 1900  30.952  30.047  13.514
33683W        W 1901  15.758  17.064   3.397
33684W        W 1902  29.114  19.681   2.888
33685W        W 1903  37.069   1.760   4.136
33686W        W 1904  35.530  36.671   1.454
33687W        W 1905  10.759  24.591   2.059
33688W        W 1906  30.287  43.513   4.474
33689W        W 1907  44.275  12.909  14.511
33690W        W 1908  33.940  24.818  13.798
33691W        W 1909  34.963  39.068  13.265
33692W        W 1910   8.687  20.375  13.581
33693W        W 1911  15.789   8.930  13.449
33694W        W 1912  23.250  32.631   4.108
33695W        W 1913  10.396   8.667  10.734
33696W        W 1914  15.513   8.716   3.658
33697W        W 1915   0.799   2.057  13.480
33698W        W 1916  25.750   6.042   0.383
33699W        W 1917  14.268  37.856   1.292
33700W        W 1918   8.335  24.920  14.520
33701W        W 1919  40.080   2.144  12.078
33702W        W 1920  23.406  12.703  14.519
33703W        W 1921  31.042   4.285  14.342
33704W        W 1922  39.758  18.045  13.900
33705W        W 1923   6.772  40.002  11.472
33706W        W 1924   3.360  40.904   3.339
33707W        W 1925  37.664   3.761  12.943
33708W        W 1926  33.256  27.618   2.731
33709W        W 1927  41.950  17.529  11.088
33710W        W 1928  18.510  37.920  11.679
33711W        W 1929  15.555   5.917  10.307
33712W        W 1930  34.974  32.924   0.841
33713W        W 1931  29.471  21.703  14.706
33714W        W 1932   0.210  24.991   1.410
33715W        W 1933   2.295  18.493  11.616
33716W        W 1934  16.562  23.191  11.685
33717W        W 1935   8.617   2.057   2.412
33718W        W 1936   7.180   9.399  14.956
33719W        W 1937  30.725  28.813   4.841
33720W        W 1938  36.957   3.912  11.612
33721W        W 1939  33.045  16.812   3.816
33722W        W 1940   0.936  35.060  11.526
33723W        W 1941  10.648   4.820   0.361
33724W        W 1942  16.885  36.173  10.761
33725W        W 1943  18.618   1.681   1.295
33726W        W 1944  23.973  28.568   3.799
33727W        W 1945   6.455  39.784   0.864
33728W        W 1946  24.028   7.787   0.267
33729W        W 1947  20.514   3.018  14.866
33730W        W 1948   8.947  39.803   0.727
33731W        W 1949  34.471   8.939  11.628
33732W        W 1950  44.894  14.070   3.762
33733W        W 1951   8.411  21.938  14.302
33734W        W 1952  11.671  26.960  11.055
33735W        W 1953  15.293  34.126   2.679
33736W        W 1954  18.551  35.531  14.896
33737W        W 1955  22.783  35.939   0.364
33738W        W 1956  23.073  40.657  12.634
33739W        W 1957   7.312  29.065  10.448
33740W        W 1958  11.576  40.851   4.249
33741W        W 1959  39.574  42.899   5.090
33742W        W 1960  13.251  27.000  14.777
33743W        W 1961  25.838  11.998  10.354
33744W        W 1962  41.894  21.469   0.790
33745W        W 1963  16.894  11.367   2.460
33746W        W 1964  27.544  22.445  11.731
33747W        W 1965  43.409  44.344   2.304
33748W        W 1966  36.103  40.513   0.747
33749W        W 1967   9.186  36.012   1.799
33750W        W 1968  37.945  41.737  13.525
33751W        W 1969  29.560  35.686  12.121
33752W        W 1970  11.672  44.181  10.132
33753W        W 1971  24.177  39.655  14.342
33754W        W 1972  16.089  15.139   1.405
33755W        W 1973  32.468  37.019   4.752
33756W        W 1974   8.747   8.774  13.034
33757W        W 1975  23.573  13.603  11.642
33758W        W 1976  25.470  18.311   0.279
33759W        W 1977   2.923  17.326   1.652
33760W        W 1978  20.301  23.215   0.986
33761W        W 1979  21.708  39.941   3.306
33762W        W 1980  35.069  40.391   5.167
33763W        W 1981  30.163  33.596  14.291
33764W        W 1982   9.347  34.797  10.842
33765W        W 1983   6.271  23.808  10.102
33766W        W 1984  25.447  35.971  11.459
33767W        W 1985   8.020  22.717  11.905
33768W        W 1986   4.953  18.178   5.476
33769W        W 1987  36.637  27.144  10.948
33770W        W 1988  35.589  40.983   2.739
33771W        W 1989   7.846  42.398   0.329
33772W        W 1990  16.159   4.919  11.883
33773W        W 1991   0.306   8.259   3.135
33774W        W 1992  26.060  13.596  11.523
33775W        W 1993  38.843  12.354   0.904
33776W        W 1994  22.129  14.695  14.947
33777W        W 1995  25.034  31.577  12.054
33778W        W 1996  25.104   6.428  12.605
33779W        W 1997  32.652  25.047  12.869
33780W        W 1998  16.605  23.265  13.390
33781W        W 1999  34.602   8.286  11.722
33782W        W 2000   9.586  14.364   3.667
33783W        W 2001  43.011  28.874   1.280
33784W        W 2002   8.628  31.443  12.613
33785W        W 2003  31.924  28.786   3.251
33786W        W 2004  11.317  11.519  14.784
33787W        W 2005  10.615  11.255  13.390
33788W        W 2006  20.353  39.481  14.345
33789W        W 2007  11.279  13.668   3.177
33790W        W 2008  27.449   1.929   3.259
33791W        W 2009  17.263  29.118  12.361
33792W        W 2010  26.565  30.925   1.065
33793W        W 2011  17.008  16.788   3.912
33794W        W 2012   0.024  21.137  10.640
33795W        W 2013   8.679  40.257  13.937
33796W        W 2014  44.489  26.099  12.195
33797W        W 2015  13.122  33.435   2.385
33798W        W 2016  32.443  15.074   0.676
33799W        W 2017  19.739  36.108  11.520
33800W        W 2018  33.012  41.688   0.676
33801W        W 2019  10.853  44.383   4.674
33802W        W 2020  17.630   3.554   5.081
33803W        W 2021  16.461   5.814  14.296
33804W        W 2022   1.026  13.259   2.408
33805W        W 2023  39.342  27.184  14.766
33806W        W 2024  37.519  26.381  10.698
33807W        W 2025   2.406   4.822  10.702
33808W        W 2026  18.733   9.103   1.979
33809W        W 2027  34.387  33.547  14.363
33810W        W 2028  17.718  30.876  11.908
33811W        W 2029   8.651  11.898   2.951
33812W        W 2030   5.190  17.734   2.292
33813W        W 2031  14.895   2.823   2.725
33814W        W 2032   0.459   5.188   0.740
33815W        W 2033  41.818   2.068  14.170
33816W        W 2034   6.840  37.231  12.994
33817W        W 2035  40.439   5.792  14.739
33818W        W 2036  39.993   5.855  13.838
33819W        W 2037  43.582  26.055   1.354
33820W        W 2038  23.574  12.696  14.007
33821W        W 2039   3.011  26.663  11.553
33822W        W 2040   3.347  27.179   1.402
33823W        W 2041  30.501  25.720   5.012
33824W        W 2042   7.371  19.552   4.188
33825W        W 2043  42.137  44.839   3.748
33826W        W 2044  21.109  31.186  11.156
33827W        W 2045  10.070  20.385   1.305
33828W        W 2046  33.960   7.445  12.973
33829W        W 2047  26.929  18.084  14.447
33830W        W 2048  33.472  12.864  12.707
33831W        W 2049   9.691   6.405  14.630
33832W        W 2050  19.947   6.949  13.280
33833W        W 2051  19.562  21.878   1.995
33834W        W 2052   6.236   5.347  11.968
33835W        W 2053  38.063  18.502  12.503
33836W        W 2054  29.527  37.003  13.470
33837W        W 2055   3.995  41.667   4.983
33838W        W 2056   2.279  40.896  11.652
33839W        W 2057   2.476  33.121  11.961
33840W        W 2058   8.472  17.781  10.596
33841W        W 2059  29.534  42.084  11.648
33842W        W 2060  27.263  32.670  12.590
33843W        W 2061  23.321  42.291   0.673
33844W        W 2062   2.348  17.148   0.817
33845W        W 2063  41.855  15.088  13.824
33846W        W 2064   0.026  14.487  13.939
33847W        W 2065  26.189  35.092   2.833
33848W        W 2066  33.738   4.683  12.056
33849W        W 2067  37.391  44.168   1.046
33850W        W 2068  38.473  21.354   4.037
33851W        W 2069  19.146  19.232  11.218
33852W        W 2070  34.351  17.123   1.873
33853W        W 2071  19.125  18.840   2.392
33854W        W 2072  22.931  12.579  14.661
33855W        W 2073  34.694  26.594  14.404
33856W        W 2074  19.289   5.754  11.519
33857W        W 2075  11.402   0.299  10.087
33858W        W 2076   8.619  22.182  14.956
33859W        W 2077   8.132  39.443   0.407
33860W        W 2078  41.115  34.505   1.814
33861W        W 2079  34.011  30.792   4.944
33862W        W 2080  11.348   7.802  13.139
33863W        W 2081  42.916  44.398   3.600
33864W        W 2082  33.478  24.333   0.695
33865W        W 2083  44.376  12.842  12.069
33866W        W 2084  28.442  15.669   1.846
33867W        W 2085   7.217  29.604   0.811
33868W        W 2086  30.959  41.337  13.571
33869W        W 2087  28.497  41.990  14.495
33870W        W 2088  33.510  12.314  10.450
33871W        W 2089  35.822  23.568   4.251
33872W        W 2090  24.186   8.440  11.211
33873W        W 2091  11.999   4.755  13.764
33874W        W 2092  18.116   1.597  14.997
33875W        W 2093   6.845  43.747  12.485
33876W        W 2094  31.914  33.280   3.778
33877W        W 2095  12.733  27.654  12.056
33878W        W 2096   0.000  15.654  13.423
33879W        W 2097  41.235  19.291  11.689
33880W        W 2098  21.774  23.007   2.318
33881W        W 2099  33.750  37.123   4.056
33882W        W 2100  23.093  29.319  10.735
33883W        W 2101   9.711  11.012   3.372
33884W        W 2102   8.327  36.852  13.889
33885W        W 2103  23.082  16.281  10.758
33886W        W 2104  31.459  37.833   4.987
33887W        W 2105  18.036  24.955   0.767
33888W        W 2106  10.766  10.434  12.655
33889W        W 2107  33.938  17.114   2.793
33890W        W 2108  10.713  20.614   0.975
33891W        W 2109  42.674  12.307  11.851
33892W        W 2110  19.504  12.917   4.564
33893W        W 2111  22.692   1.244  14.869
33894W        W 2112  34.193  42.769  11.933
33895W        W 2113  41.479  37.886  12.998
33896W        W 2114   3.200  18.200  13.944
33897W        W 2115  32.560  34.365  10.733
33898W        W 2116  15.030  39.818   2.194
33899W        W 2117  31.327  27.646   1.236
33900W        W 2118  13.284  40.622  11.974
33901W        W 2119  29.420   3.200   3.248
33902W        W 2120  12.659  23.793   4.623
33903W        W 2121  34.744   2.062   4.644
33904W        W 2122  22.159   9.466  13.191
33905W        W 2123  44.319  25.152   1.293
33906W        W 2124  15.001  27.578  11.952
33907W        W 2125  41.903  22.522   3.371
33908W        W 2126   5.284  42.651   0.259
33909W        W 2127   1.357  17.892  13.297
33910W        W 2128  18.638  27.096   4.049
33911W        W 2129  20.554  31.086   0.754
33912W        W 2130  31.558  29.370   2.349
33913W        W 2131  28.365  40.015  11.648
33914W        W 2132  14.733  39.138   3.872
33915W        W 2133  39.483  33.115  10.701
33916W        W 2134  11.608  44.106  13.434
33917W        W 2135  35.593  11.960  13.308
33918W        W 2136  37.355  23.069   0.702
33919W        W 2137  26.017  22.981  13.522
33920W        W 2138  33.559   4.400  14.013
33921W        W 2139  19.259   3.331   3.635
33922W        W 2140  41.329  24.599   0.008
33923W        W 2141  29.164  15.203   4.123
33924W        W 2142  23.063   8.193   2.203
33925W        W 2143  39.165  29.359  11.538
33926W        W 2144  20.679   7.510  11.102
33927W        W 2145  16.720  25.005  11.122
33928W        W 2146  37.147   3.572   5.279
33929W        W 2147  36.302  19.714   3.701
33930W        W 2148  37.309  44.961   1.465
33931W        W 2149   7.313   8.284  12.666
33932W        W 2150  15.068  38.478   4.311
33933W        W 2151  13.725  12.384   0.294
33934W        W 2152  34.573  41.726  12.491
33935W        W 2153  20.762  15.106   4.361
33936W        W 2154  16.040  12.176   2.972
33937W        W 2155  20.003  22.240  11.913
33938W        W 2156  34.722  32.859   4.288
33939W        W 2157  42.095   0.499   1.856
33940W        W 2158  10.870  15.126   1.316
33941W        W 2159  43.915  24.435  14.100
33942W        W 2160  19.271  35.861   2.803
33943W        W 2161  28.422  31.891   1.836
33944W        W 2162  38.576  29.475   0.693
33945W        W 2163  34.476  33.014  11.643
33946W        W 2164  30.358  21.220  10.773
33947W        W 2165  42.204  21.804   4.130
33948W        W 2166  19.139  37.721   4.798
33949W        W 2167   1.771  21.493   4.113
33950W        W 2168  22.826  28.879  10.781
33951W        W 2169  17.323   3.312   0.495
33952W        W 2170  19.770   3.253   3.623
33953W        W 2171  32.632  31.981  11.692
33954W        W 2172  20.246   3.767   4.307
33955W        W 2173  28.375   2.263  13.332
33956W        W 2174  24.903  14.409  12.673
33957W        W 2175  10.799   8.845   0.870
33958W        W 2176  36.389   2.486   0.394
33959W        W 2177  15.873  31.931   2.065
33960W        W 2178  40.082  16.011  11.657
33961W        W 2179  40.277  41.721   4.067
33962W        W 2180  15.515   9.996  11.250
33963W        W 2181  33.085  29.726  11.913
33964W        W 2182  34.511  28.601  14.114
33965W        W 2183   0.928  14.997  14.777
33966W        W 2184  17.506  21.019   0.011
33967W        W 2185  13.702  23.230   3.348
33968W        W 2186  44.904   3.026  11.529
33969W        W 2187   6.874  30.552   2.137
33970W        W 2188   1.360   8.683   1.766
33971W        W 2189  44.687  33.083  14.941
33972W        W 2190   6.804  14.500   1.234
33973W        W 2191  41.370  18.182  12.523
33974W        W 2192  34.096  16.107   3.225
33975W        W 2193  29.855  33.951   2.242
33976W        W 2194  27.091  37.470   4.600
33977W        W 2195  36.145  40.993   2.691
33978W        W 2196  42.329  40.597  11.079
33979W        W 2197  30.977  39.935  10.456
33980W        W 2198  32.044  34.449  10.746
33981W        W 2199  10.721  11.702   0.288
33982W        W 2200  25.102  22.576   2.440
33983W        W 2201   2.583   1.559  12.724
33984W        W 2202  17.529  39.519  13.385
33985W        W 2203  36.105   4.954   1.207
33986W        W 2204  30.921  28.895   3.543
33987W        W 2205   0.398  22.052   3.890
33988W        W 2206  29.482  43.753   0.590
33989W        W 2207   4.201   8.959  12.168
33990W        W 2208   9.168   3.538   1.139
33991W        W 2209   3.999   7.881  13.458
33992W        W 2210  42.747  23.485   2.549
33993W        W 2211   6.067  38.589   1.321
33994W        W 2212  16.956   7.455  14.828
33995W        W 2213  43.132  21.911  13.867
33996W        W 2214  23.096  36.135  14.780
33997W        W 2215  31.858  40.974   4.782
33998W        W 2216  13.151   9.922   0.818
33999W        W 2217  11.742   2.809  12.415
34000W        W 2218  10.503  40.311  11.637
34001W        W 2219  16.524  34.107   0.307
34002W        W 2220  34.145   3.989   0.729
34003W        W 2221  42.903  16.082   1.676
34004W        W 2222  43.205  37.005   0.284
34005W        W 2223  38.871   5.873  10.715
34006W        W 2224  36.995  10.891   3.470
34007W        W 2225  34.254  26.243   3.237
34008W        W 2226  31.865  28.180  13.998
34009W        W 2227  32.440  25.404   2.925
34010W        W 2228   5.911   5.676   2.834
34011W        W 2229  11.783  16.821   3.150
34012W        W 2230   5.732   2.445  11.448
34013W        W 2231  22.513  21.778   1.331
34014W        W 2232  41.853   6.906  12.864
34015W        W 2233  41.356   2.984   0.397
34016W        W 2234  24.259  12.244   4.293
34017W        W 2235   5.936  14.871  11.991
34018W        W 2236   0.312  42.882  12.363
34019W        W 2237  21.310  35.401   2.204
34020W        W 2238   4.027  31.960  11.899
34021W        W 2239  41.542  12.535  13.089
34022W        W 2240  23.265   4.921   1.831
34023W        W 2241  23.531   8.947  13.668
34024W        W 2242  13.300  32.038  11.151
34025W        W 2243  19.596  21.189   4.666
34026W        W 2244  27.211   4.901  12.075
34027W        W 2245  40.937  19.829  14.333
34028W        W 2246  22.132   9.412   2.312
34029W        W 2247   9.919  42.960   0.482
34030W        W 2248  27.010  32.203  12.540
34031W        W 2249  10.660   6.266   0.513
34032W        W 2250  15.195  19.261  13.997
34033W        W 2251  31.202  23.537  14.003
34034W        W 2252   8.869  42.456  14.373
34035W        W 2253   8.882  27.679  13.477
34036W        W 2254  32.839  18.218  13.462
34037W        W 2255  31.079  16.128   0.720
34038W        W 2256  36.741  39.959  10.918
34039W        W 2257  14.375  40.648  14.897
34040W        W 2258   7.485  24.615  14.897
34041W        W 2259  12.246   5.028   3.230
34042W        W 2260  29.649  44.192   3.422
34043W        W 2261   7.572  17.177  12.614
34044W        W 2262  19.135   1.354   1.950
34045W        W 2263  28.074  41.786  10.297
34046W        W 2264  22.775  20.544  11.951
34047W        W 2265  44.431  42.452   4.063
34048W        W 2266   3.962  21.319  13.894
34049W        W 2267  38.411  23.270  11.367
34050W        W 2268  43.727   5.695   2.739
34051W        W 2269   3.713   7.661   4.833
34052W        W 2270  26.959  12.928   3.766
34053W        W 2271  34.558  20.122   1.340
34054W        W 2272   0.336  32.554  12.961
34055W        W 2273  14.253  26.631   1.778
34056W        W 2274  10.660  35.833   3.144
34057W        W 2275  17.619  29.089  11.165
34058W        W 2276  15.916  21.992  13.456
34059W        W 2277  43.562  17.590  10.698
34060W        W 2278  44.488  34.409  11.133
34061W        W 2279  18.284  44.957   1.538
34062W        W 2280  38.960   2.159   4.051
34063W        W 2281  28.597  35.929   4.495
34064W        W 2282  28.719  15.366   3.219
34065W        W 2283  40.605   2.883  12.961
34066W        W 2284   3.912  13.680  12.906
34067W        W 2285  43.836  16.766  12.893
34068W        W 2286  21.222   5.729  14.968
34069W        W 2287  41.066  25.012   1.692
34070W        W 2288  40.557   5.659   3.605
34071W        W 2289  34.469  22.058  12.095
34072W        W 2290  16.054   1.488   4.878
34073W        W 2291  36.614  24.027   1.947
34074W        W 2292   8.138  20.143  14.666
34075W        W 2293  22.814   9.700   2.761
34076W        W 2294  26.062  14.949   5.236
34077W        W 2295  36.930  39.044   0.737
34078W        W 2296  26.022   3.930  10.983
34079W        W 2297  17.714  14.762  12.631
34080W        W 2298  22.094  31.814   4.248
34081W        W 2299  21.003  25.139   4.880
34082W        W 2300  36.513  34.412  10.763
34083W        W 2301   1.390  44.162  10.949
34084W        W 2302   9.004   6.713   4.513
34085W        W 2303  42.913  16.580   4.910
34086W        W 2304  18.267  38.902   4.503
34087W        W 2305  21.931  14.689   2.853
34088W        W 2306  19.272  34.321  11.242
34089W        W 2307   4.391   1.769   2.782
34090W        W 2308  22.202  35.966  14.818
34091W        W 2309  32.548  40.766   4.236
34092W        W 2310  35.868  17.086   5.053
34093W        W 2311  18.695  36.668  14.253
34094W        W 2312  33.352   6.799   3.444
34095W        W 2313   6.819  22.161  12.611
34096W        W 2314  34.645  25.697   0.387
34097W        W 2315   4.664  33.109  11.879
34098W        W 2316  36.607  35.577   3.143
34099W        W 2317   5.340   9.233  14.547
34100W        W 2318  43.996  26.454   4.142
34101W        W 2319  43.373  24.695   4.172
34102W        W 2320   4.446   1.241   3.529
34103W        W 2321  15.696  24.753   1.905
34104W        W 2322  37.394  12.971  10.221
34105W        W 2323  12.647   3.786  13.813
34106W        W 2324  39.302  31.451   2.284
34107W        W 2325  29.013  37.791   3.306
34108W        W 2326  41.221   3.518   0.727
34109W        W 2327  26.936   6.150  10.169
34110W        W 2328  33.888  41.551   0.527
34111W        W 2329  43.964   5.563  12.685
34112W        W 2330  30.994  21.225  13.012
34113W        W 2331  10.087  17.583  14.832
34114W        W 2332  24.591  12.570   0.986
34115W        W 2333  10.433  28.166  10.585
34116W        W 2334  28.497   1.506   0.144
34117W        W 2335   5.813   3.173   0.259
34118W        W 2336  39.787  38.497  12.973
34119W        W 2337  14.756  44.521   4.500
34120W        W 2338  25.467  33.480   3.227
34121W        W 2339   9.933   6.819  12.010
34122W        W 2340  20.467  36.076   1.223
34123W        W 2341  16.985  34.341   4.170
34124W        W 2342   4.294  39.097  13.503
34125W        W 2343   4.721  27.455  11.003
34126W        W 2344  10.438  44.383  14.364
34127W        W 2345   7.221  23.270  11.511
34128W        W 2346  14.988  11.772   2.198
34129W        W 2347  22.590  39.643  11.290
34130W        W 2348  21.550  21.098  14.841
34131W        W 2349  39.540  10.693   1.224
34132W        W 2350  10.938  39.193   0.812
34133W        W 2351   8.375  26.745  13.656
34134W        W 2352  44.959  32.098   4.185
34135W        W 2353  41.803   9.253   3.213
34136W        W 2354  37.031  30.930  12.893
34137W        W 2355   7.907   2.958   1.656
34138W        W 2356  21.345   2.109  14.404
34139W        W 2357  18.742   7.342   3.686
34140W        W 2358  17.707  40.354  10.770
34141W        W 2359  30.008   1.869  11.964
34142W        W 2360   4.033  10.203  11.186
34143W        W 2361  16.608   8.968   4.025
34144W        W 2362  10.204  23.499  14.518
34145W        W 2363  39.298   6.403   2.114
34146W        W 2364   0.582  18.829  10.959
34147W        W 2365  28.473  35.375  12.881
34148W        W 2366  36.999   4.025  10.819
34149W        W 2367  44.919  28.172   0.047
34150W        W 2368  15.249  18.866  11.125
34151W        W 2369   0.832   2.226  10.796
34152W        W 2370  43.268  32.688  14.762
34153W        W 2371  44.837  28.976   1.741
34154W        W 2372  14.814  15.645   1.930
34155W        W 2373  37.011   6.493  14.859
34156W        W 2374   8.699  30.611  12.804
34157W        W 2375  32.048  44.950   0.185
34158W        W 2376   8.682  17.063   2.753
34159W        W 2377  39.607  15.721   5.027
34160W        W 2378  11.579  24.389   3.682
34161W        W 2379   1.412  14.680  13.945
34162W        W 2380  11.465  10.538  13.891
34163W        W 2381  42.749  30.454   3.266
34164W        W 2382  16.580  13.705   3.212
34165W        W 2383   3.328  38.240   1.206
34166W        W 2384  30.450  18.978   0.205
34167W        W 2385  17.457   8.450  12.298
34168W        W 2386  25.242  29.698   4.084
34169W        W 2387  38.461  16.101  14.558
34170W        W 2388   2.896  40.982   2.793
34171W        W 2389   8.203  13.414  13.723
34172W        W 2390  43.359  22.442  10.432
34173W        W 2391   9.209  10.657   0.473
34174W        W 2392  13.163   3.380   0.820
34175W        W 2393  21.893   5.216   4.196
34176W        W 2394  40.937  19.824   3.272
34177W        W 2395   8.633  17.257  14.919
34178W        W 2396  10.672  41.941   4.038
34179W        W 2397  25.475  27.682  14.349
34180W        W 2398  17.153  10.208  12.353
34181W        W 2399   5.468  18.677   2.054
34182W        W 2400  28.634  36.619  14.563
34183W        W 2401  13.772  29.637   0.059
34184W        W 2402  34.603   9.143  10.603
34185W        W 2403  41.851  10.453   0.195
34186W        W 2404  25.423  19.722   0.735
34187W        W 2405  33.596  40.048   2.268
34188W        W 2406  20.914  20.086   3.790
34189W        W 2407  16.364  10.986   2.439
34190W        W 2408  34.340  10.881  11.900
34191W        W 2409  39.014  38.488   4.961
34192W        W 2410  33.842   9.144   3.728
34193W        W 2411  24.965   1.322   4.260
34194W        W 2412  28.211  19.704   1.012
34195W        W 2413  18.357  23.258  12.812
34196W        W 2414  29.062  11.583   3.228
34197W        W 2415  14.181  40.388   2.258
34198W        W 2416  43.381  18.810  13.569
34199W        W 2417  30.319  16.707   2.698
34200W        W 2418  35.776  41.719   0.054
34201W        W 2419  34.957  20.024  11.458
34202W        W 2420  10.320  39.888  10.729
34203W        W 2421  15.623  12.719  13.650
34204W        W 2422  29.637  29.438  14.447
34205W        W 2423  20.282  14.273  12.302
34206W        W 2424  37.599  41.453  14.854
34207W        W 2425   4.552  37.825   0.131
34208W        W 2426  36.183  12.130  14.027
34209W        W 2427   7.277  23.291  14.478
34210W        W 2428  20.068  29.599   3.216
34211W        W 2429  25.437  25.624   1.769
34212W        W 2430  26.072   1.669   4.949
34213W        W 2431  43.009  16.745   1.828
34214W        W 2432   4.068  38.221  13.300
34215W        W 2433  18.293  40.747   1.204
34216W        W 2434  12.506  34.334   1.005
34217W        W 2435  33.602   9.162  13.875
34218W        W 2436  13.347  30.959   2.701
34219W        W 2437  38.307  18.510  14.839
34220W        W 2438  35.854   7.994  12.606
34221W        W 2439  19.399  10.636  13.963
34222W        W 2440  29.420   5.860  13.002
34223W        W 2441  39.899  14.760  10.615
34224W        W 2442   3.100  35.360   2.402
34225W        W 2443  22.999   5.525  14.275
34226W        W 2444   2.594  10.414  11.223
34227W        W 2445  21.026  19.118  14.758
34228W        W 2446   6.164   4.662   0.787
34229W        W 2447   0.248   6.885   0.883
34230W        W 2448  21.108  16.179  13.253
34231W        W 2449   1.790  12.421  14.021
34232W        W 2450  29.308  33.653   5.057
34233W        W 2451  31.868  20.654  12.173
34234W        W 2452  16.824  43.850  12.042
34235W        W 2453  29.560  18.121  10.173
34236W        W 2454  16.766  30.060   4.202
34237W        W 2455  18.968   7.222  12.408
34238W        W 2456   7.403  37.258   1.330
34239W        W 2457   5.650  12.173   0.923
34240W        W 2458  13.855   8.414   4.273
34241W        W 2459  13.317   4.436  10.548
34242W        W 2460  20.035  29.552   2.403
34243W        W 2461   1.492  24.059  13.384
34244W        W 2462   9.575  19.819  13.537
34245W        W 2463   5.788  33.853  13.338
34246W        W 2464  18.750  19.328   4.106
34247W        W 2465  14.101  40.259   0.195
34248W        W 2466  34.490  23.488   3.948
34249W        W 2467  38.110  32.636   2.356
34250W        W 2468  27.381   1.683  12.676
34251W        W 2469  39.743   7.707  13.070
34252W        W 2470   1.495  37.791  12.644
34253W        W 2471   0.004  42.864  11.085
34254W        W 2472   0.984  20.758  10.673
34255W        W 2473  16.052  26.566  13.592
34256W        W 2474  40.595  39.768  10.258
34257W        W 2475  38.564  44.366  13.981
34258W        W 2476  10.454  39.969  14.500
34259W        W 2477  15.662   7.098  11.882
34260W        W 2478  25.673  38.082  13.967
34261W        W 2479  34.947   6.319  10.530
34262W        W 2480  23.049  32.138   9.506
34263W        W 2481   6.949   0.338   0.973
34264W        W 2482  23.937  19.001  11.267
34265W        W 2483  12.925  19.375   3.746
34266W        W 2484  28.237  27.222   2.074
34267W        W 2485  24.541  31.828  13.073
34268W        W 2486  22.067  42.454   3.121
34269W        W 2487  43.255  12.614  14.282
34270W        W 2488   8.086   8.344   2.849
34271W        W 2489  12.640  15.697   3.928
34272W        W 2490  32.416   9.079   3.393
34273W        W 2491  17.123  29.215   4.550
34274W        W 2492  20.524   4.834  10.749
34275W        W 2493   0.898  18.317   2.795
34276W        W 2494  20.021   3.694   3.401
34277W        W 2495  42.751  25.142   2.871
34278W        W 2496  15.854  11.867   0.964
34279W        W 2497   5.045   3.790  10.049
34280W        W 2498   4.868  26.742  12.544
34281W        W 2499  38.568  42.875   3.700
34282W        W 2500   1.034   4.909  14.430
34283W        W 2501  28.906  10.346   4.600
34284W        W 2502  24.542  23.557  13.968
34285W        W 2503  35.036  26.002   3.660
34286W        W 2504  31.936  42.829  14.967
34287W        W 2505  39.102   4.915   4.660
34288W        W 2506  25.520  20.384   3.351
34289W        W 2507  10.705  32.104  11.997
34290W        W 2508  28.404  11.228   0.475
34291W        W 2509   0.993  27.595  13.288
34292W        W 2510  12.736  29.201  12.878
34293W        W 2511   1.143  34.864  13.045
34294W        W 2512   2.165  37.537   4.593
34295W        W 2513   3.675  13.029  11.455
34296W        W 2514   9.746   7.765  14.883
34297W        W 2515   3.377  24.429  14.766
34298W        W 2516   0.223  35.663   2.793
34299W        W 2517  33.793  15.670   4.112
34300W        W 2518  14.455  15.896  13.018
34301W        W 2519   0.147  41.789  10.531
34302W        W 2520  15.342   8.204  14.505
34303W        W 2521  25.492   5.981  13.066
34304W        W 2522  37.529  10.028   2.013
34305W        W 2523  25.970  22.296  14.330
34306W        W 2524  27.463  38.877   1.752
34307W        W 2525  39.322   1.742  11.688
34308W        W 2526  31.015  24.214   1.185
34309W        W 2527  39.028  14.697  13.923
34310W        W 2528  10.754   0.431   0.194
34311W        W 2529  25.223  11.257  12.977
34312W        W 2530   3.687  27.878   3.196
34313W        W 2531  23.539   6.226   1.191
34314W        W 2532  36.968   8.688  10.704
34315W        W 2533  33.517   0.408  14.416
34316W        W 2534  36.029  25.052  12.452
34317W        W 2535  27.756  41.101   3.719
34318W        W 2536  37.350  14.136   4.636
34319W        W 2537  40.968  32.953   2.269
34320W        W 2538   9.619   1.745   3.232
34321W        W 2539  16.868  44.468  14.486
34322W        W 2540  12.571  16.196  12.580
34323W        W 2541  37.292  18.816   4.622
34324W        W 2542  22.172  19.513   4.802
34325W        W 2543  35.503   8.407   4.696
34326W        W 2544  36.830  10.710  12.916
34327W        W 2545  17.748   2.505   2.843
34328W        W 2546  40.833  40.476  13.836
34329W        W 2547  14.600  13.836  14.795
34330W        W 2548   2.919  15.740  10.427
34331W        W 2549  29.571  31.002   2.902
34332W        W 2550  35.430  38.615  11.034
34333W        W 2551  30.486   4.950   4.080
34334W        W 2552  40.812   9.033  12.624
34335W        W 2553   4.387   8.405   2.731
34336W        W 2554  26.875  43.052   3.222
34337W        W 2555   7.307  19.088   1.813
34338W        W 2556  41.517  28.939   1.694
34339W        W 2557   5.505  17.279  13.056
34340W        W 2558  42.856  12.331   1.182
34341W        W 2559  43.820  27.603   1.953
34342W        W 2560  14.557  30.949   0.981
34343W        W 2561  39.947  38.830  11.660
34344W        W 2562  28.217  29.215   1.280
34345W        W 2563   9.585  29.657  14.555
34346W        W 2564  30.086  21.061   1.601
34347W        W 2565   7.180   3.654  14.959
34348W        W 2566   3.756  38.506   2.160
34349W        W 2567  18.131   0.540  14.903
34350W        W 2568   5.221  14.631  11.481
34351W        W 2569  44.181  20.819   3.202
34352W        W 2570  31.155   5.937   5.365
34353W        W 2571  33.056  20.336  12.660
34354W        W 2572   3.274   6.441   1.781
34355W        W 2573  14.403  42.541   5.179
34356W        W 2574  40.256   3.665  14.404
34357W        W 2575  30.491   6.754   3.833
34358W        W 2576   6.618  34.649  13.000
34359W        W 2577  14.223  39.941  10.803
34360W        W 2578  41.797   2.365  10.798
34361W        W 2579  36.564  44.181   0.278
34362W        W 2580  26.750   3.952  12.003
34363W        W 2581   2.680   9.001   4.129
34364W        W 2582   8.694  34.531   1.791
34365W        W 2583  22.740   0.805  14.451
34366W        W 2584   5.148  30.400  12.469
34367W        W 2585  42.270  19.209   2.346
34368W        W 2586  42.013   5.947  12.974
34369W        W 2587   4.659  35.403  10.674
34370W        W 2588  23.042  22.706  12.054
34371W        W 2589   3.918  15.249   4.167
34372W        W 2590  33.946  17.125  14.974
34373W        W 2591  12.997  16.281  12.292
34374W        W 2592  22.965  44.553  14.460
34375W        W 2593   1.413  27.569   2.739
34376W        W 2594  21.783  28.421  13.393
34377W        W 2595  11.277  30.922   3.046
34378W        W 2596  36.025  36.995   2.798
34379W        W 2597  35.067  16.887  12.599
34380W        W 2598   5.904   0.942   3.191
34381W        W 2599  40.399  43.984  13.986
34382W        W 2600   8.391  32.072   1.264
34383W        W 2601  34.612  37.988   3.808
34384W        W 2602   5.277  30.632   3.371
34385W        W 2603  18.415  14.226  12.093
34386W        W 2604  25.396  11.154  12.113
34387W        W 2605   1.048  32.308  10.290
34388W        W 2606  36.516  22.851  10.300
34389W        W 2607  24.533  10.696  14.988
34390W        W 2608  14.733  40.262   3.062
34391W        W 2609  19.446   1.068   0.386
34392W        W 2610  41.746  33.649  12.701
34393W        W 2611  20.467  38.959  11.545
34394W        W 2612   8.577  41.051   4.099
34395W        W 2613   2.772   6.224  10.456
34396W        W 2614  28.924   1.883  10.533
34397W        W 2615  28.813  13.908   0.858
34398W        W 2616  29.001  14.040   0.076
34399W        W 2617  11.393  38.366  12.495
34400W        W 2618  37.784  33.567  12.717
34401W        W 2619  41.472  42.722  14.674
34402W        W 2620  22.137  44.255  13.380
34403W        W 2621  25.995  27.710  14.366
34404W        W 2622  26.909  14.520  14.032
34405W        W 2623   2.972   1.352  11.504
34406W        W 2624  34.432   3.042   1.775
34407W        W 2625   0.972   8.585  10.564
34408W        W 2626  22.563   1.774   4.616
34409W        W 2627  44.679  30.372  13.716
34410W        W 2628  40.274  30.678   3.271
34411W        W 2629  14.260  15.654   0.615
34412W        W 2630  37.933  16.785  14.360
34413W        W 2631  22.679  18.261  11.395
34414W        W 2632  30.138  20.032  13.924
34415W        W 2633   2.360   8.681   3.609
34416W        W 2634  40.168   1.652   3.904
34417W        W 2635   7.201   7.798  14.851
34418W        W 2636  28.602  11.526   2.391
34419W        W 2637  41.430  34.951  13.469
34420W        W 2638   6.892  43.366   3.216
34421W        W 2639  24.633  42.505   0.462
34422W        W 2640  38.188  28.731   3.194
34423W        W 2641  35.014   6.203  11.436
34424W        W 2642  22.605  30.936   2.869
34425W        W 2643  14.376  16.591   4.029
34426W        W 2644  20.959  34.591   1.877
34427W        W 2645  13.212   7.126  10.447
34428W        W 2646  37.542   6.006  12.566
34429W        W 2647  42.526  33.337  14.905
34430W        W 2648   3.474  27.367  11.022
34431W        W 2649  44.503  12.208   1.941
34432W        W 2650  35.284  14.752  12.088
34433W        W 2651  10.737  27.084   2.440
34434W        W 2652  12.446  39.794   1.271
34435W        W 2653   7.905   2.592  11.186
34436W        W 2654  40.595  13.806  13.121
34437W        W 2655  10.271   6.918  12.874
34438W        W 2656  18.011  32.408   0.758
34439W        W 2657  32.758   6.887   3.819
34440W        W 2658  12.317   3.466  13.476
34441W        W 2659   3.702   0.344   1.336
34442W        W 2660  34.901  15.319  13.264
34443W        W 2661  28.623  19.385  11.940
34444W        W 2662   0.995  43.948   2.605
34445W        W 2663  13.436  36.402   2.803
34446W        W 2664  39.215  34.434   3.518
34447W        W 2665  31.687  40.574   4.149
34448W        W 2666  24.287  20.418  14.400
34449W        W 2667  35.406  43.868   1.840
34450W        W 2668  28.555  14.018   2.314
34451W        W 2669  24.550   5.695   3.418
34452W        W 2670   0.914   2.978   4.975
34453W        W 2671  39.742  36.868   1.459
34454W        W 2672  35.638  36.318   3.325
34455W        W 2673  15.175  42.321  12.648
34456W        W 2674  36.042  22.000   3.874
34457W        W 2675  19.037  37.081  10.233
34458W        W 2676  19.155  31.332   3.593
34459W        W 2677  14.706  42.720   0.315
34460W        W 2678  10.775  19.730  14.915
34461W        W 2679  13.608   4.724  10.867
34462W        W 2680  40.333  40.756   1.564
34463W        W 2681   1.927  43.073  14.750
34464W        W 2682  38.389   3.705  10.709
34465W        W 2683  20.620  35.163   3.229
34466W        W 2684   8.276   8.366   4.238
34467W        W 2685  11.886  32.355  13.389
34468W        W 2686  35.937   6.910  10.489
34469W        W 2687  18.086  13.624   0.922
34470W        W 2688   7.299  37.782   3.583
34471W        W 2689  42.647  40.420   1.852
34472W        W 2690  39.871   3.117  13.799
34473W        W 2691  44.988  15.875   4.414
34474W        W 2692  32.217   1.790  12.795
34475W        W 2693  11.772  15.672  12.225
34476W        W 2694  31.784  10.102   4.964
34477W        W 2695  30.288  24.761   4.822
34478W        W 2696  26.123   9.646   3.313
34479W        W 2697  14.228   8.939  11.173
34480W        W 2698  29.710  34.915   2.238
34481W        W 2699  27.066  44.267   3.781
34482W        W 2700  22.915  32.922   4.864
34483W        W 2701  43.103  16.788   4.473
34484W        W 2702  18.101  27.961   2.651
34485W        W 2703  26.824  44.752  12.431
34486W        W 2704  42.757  42.810  14.216
34487W        W 2705  30.436  10.270   1.742
34488W        W 2706   3.151  38.857   0.357
34489W        W 2707  44.264  38.976   4.663
34490W        W 2708  16.193  22.344  11.644
34491W        W 2709  30.380   2.990  12.649
34492W        W 2710  31.032  35.294  13.472
34493W        W 2711   2.028  33.977  12.434
34494W        W 2712  11.364  30.572  13.277
34495W        W 2713  35.133  25.800   2.260
34496W        W 2714  14.704   9.389   0.010
34497W        W 2715  13.232   7.317   4.612
34498W        W 2716  25.131  35.624   1.924
34499W        W 2717  18.856  19.537   3.645
34500W        W 2718  21.490   4.828   1.201
34501W        W 2719   7.332  38.482   3.338
34502W        W 2720  19.654  37.971  12.811
34503W        W 2721  10.413  43.265  13.374
34504W        W 2722   7.805  43.504   3.569
34505W        W 2723  33.004  33.972   4.480
34506W        W 2724  11.748  17.266  10.640
34507W        W 2725  22.100  31.927   0.013
34508W        W 2726  29.388  10.612  12.478
34509W        W 2727   1.250   5.438   0.316
34510W        W 2728  21.527  30.946  13.024
34511W        W 2729  13.829  30.688   2.870
34512W        W 2730  12.143  22.556   1.915
34513W        W 2731  28.179  40.001   0.458
34514W        W 2732   2.386   3.883  12.499
34515W        W 2733  31.689  39.800   3.146
34516W        W 2734  36.336   3.389   4.125
34517W        W 2735  34.917   0.227   1.621
34518W        W 2736  21.389  36.124   4.129
34519W        W 2737   8.733  33.477  14.802
34520W        W 2738  21.582   5.979   4.712
34521W        W 2739  20.564  22.112  13.093
34522W        W 2740  17.396  24.663   0.760
34523W        W 2741   5.734   9.655  11.634
34524W        W 2742   1.876  29.172   4.604
34525W        W 2743   5.893  10.739   3.708
34526W        W 2744  37.875  30.385  13.070
34527W        W 2745  10.356  32.098   4.057
34528W        W 2746   4.189  14.097   0.484
34529W        W 2747  33.269  29.371  10.427
34530W        W 2748  35.077  27.500   2.183
34531W        W 2749  41.904  28.265  13.539
34532W        W 2750  38.768  42.288  10.656
34533W        W 2751  30.661   8.389   2.863
34534W        W 2752  23.998   7.762  10.719
34535W        W 2753  16.653  18.134  14.070
34536W        W 2754  15.325   1.747  13.494
34537W        W 2755   5.202  41.231   0.806
34538W        W 2756   3.737   4.561   0.356
34539W        W 2757   5.646  35.986  14.387
34540W        W 2758  38.446   6.214   0.755
34541W        W 2759   3.390  30.448   2.831
34542W        W 2760  27.919  25.537  14.716
34543W        W 2761   8.386  43.994   0.759
34544W        W 2762   2.227  43.880   1.590
34545W        W 2763  34.457   6.264  12.216
34546W        W 2764  21.188  27.586  12.075
34547W        W 2765  40.276  36.933   4.024
34548W        W 2766  26.722   2.209  11.055
34549W        W 2767  19.927  42.496  11.994
34550W        W 2768   2.700  36.085  12.977
34551W        W 2769  23.401  30.045   1.698
34552W        W 2770  33.378  12.634  14.173
34553W        W 2771  31.003   9.634  10.954
34554W        W 2772  44.345  26.590   2.604
34555W        W 2773   5.718  42.446   3.251
34556W        W 2774  33.348  12.990   0.446
34557W        W 2775  28.566  25.694  11.676
34558W        W 2776  15.581  26.551   5.064
34559W        W 2777   6.309   7.635   4.071
34560W        W 2778  36.926  20.154  10.673
34561W        W 2779  24.647  25.013   2.731
34562W        W 2780  14.721  26.561  10.566
34563W        W 2781  27.982  44.849   1.944
34564W        W 2782  28.558  25.461   4.950
34565W        W 2783  26.962   6.760   1.363
34566W        W 2784  26.554   3.159  13.304
34567W        W 2785  34.113   3.446  10.760
34568W        W 2786   3.646  24.113   2.680
34569W        W 2787  32.400  17.739   0.965
34570W        W 2788   8.177  19.271  11.443
34571W        W 2789  41.768   7.113   1.819
34572W        W 2790  15.483  34.451   0.981
34573W        W 2791  24.243  40.397  12.498
34574W        W 2792  38.550  33.566  10.621
34575W        W 2793   1.926  31.411   1.748
34576W        W 2794  33.871  33.350  14.361
34577W        W 2795  11.575  44.298  12.187
34578W        W 2796  37.028  11.362   0.910
34579W        W 2797  22.989  38.094  14.721
34580W        W 2798  39.995  11.368   0.567
34581W        W 2799  34.670  16.230   2.926
34582W        W 2800  24.293   4.376   1.257
34583W        W 2801   6.896  14.250   3.801
34584W        W 2802  15.155  26.429   1.741
34585W        W 2803   1.886  32.394  14.566
34586W        W 2804   1.997  23.304  14.152
34587W        W 2805  12.652  16.546   1.316
34588W        W 2806  13.728  43.988   4.111
34589W        W 2807  27.044  39.525  14.349
34590W        W 2808  17.143  23.770  12.822
34591W        W 2809  25.913  27.129   2.255
34592W        W 2810  33.608  26.224   3.974
34593W        W 2811  40.496  15.457   0.115
34594W        W 2812  17.099  14.660  11.392
34595W        W 2813  15.040  40.876   4.347
34596W        W 2814  37.088  19.694   4.145
34597W        W 2815  10.294   4.265  10.041
34598W        W 2816  19.086  37.204  11.151
34599W        W 2817  19.321   5.202  10.663
34600W        W 2818  17.174  31.418  13.131
34601W        W 2819  42.515  12.820   2.312
34602W        W 2820  29.920  26.032  13.877
34603W        W 2821  22.216   8.769  11.955
34604W        W 2822  39.788  22.239   3.108
34605W        W 2823  34.833  35.144  10.433
34606W        W 2824  12.184  14.895   3.538
34607W        W 2825  23.918  40.194  11.628
34608W        W 2826  26.001  35.133  12.609
34609W        W 2827  41.313  44.348  12.118
34610W        W 2828   1.377  42.540  13.366
34611W        W 2829   5.472  41.545  14.813
34612W        W 2830  25.031  25.107   3.996
34613W        W 2831  13.090  14.889  11.170
34614W        W 2832  42.446  42.067   3.420
34615W        W 2833  12.710  27.199   3.829
34616W        W 2834  15.759  23.546   2.710
34617W        W 2835   3.497  14.839  11.665
34618W        W 2836   8.980  13.488   4.125
34619W        W 2837  43.820  28.134   3.665
34620W        W 2838  29.063   5.049   2.362
34621W        W 2839  17.829  16.565   0.109
34622W        W 2840   4.302   0.895  11.364
34623W        W 2841   0.429  33.564   1.326
34624W        W 2842  35.326  36.626  11.066
34625W        W 2843   0.846  28.598   3.298
34626W        W 2844   6.895   2.673  11.128
34627W        W 2845  42.445  42.232   4.828
34628W        W 2846  37.523  34.336   1.801
34629W        W 2847  27.948  15.128  11.631
34630W        W 2848  19.258  13.130  13.965
34631W        W 2849  44.285  44.534   2.191
34632W        W 2850  38.097   8.125  10.613
34633W        W 2851  39.941  33.013  11.005
34634W        W 2852  28.664   0.673  13.846
34635W        W 2853  21.721  32.996  14.008
34636W        W 2854  16.071  23.138  11.900
34637W        W 2855   2.329   2.378   0.840
34638W        W 2856  15.257   0.940   5.572
34639W        W 2857  21.539  32.044  10.186
34640W        W 2858  23.486  14.060  14.419
34641W        W 2859  24.978  22.496   0.253
34642W        W 2860   5.076  37.088  13.332
34643W        W 2861  23.424   0.446   4.356
34644W        W 2862  26.466   5.767   2.731
34645W        W 2863  16.148  33.069   4.155
34646W        W 2864  25.242  44.876   4.088
34647W        W 2865  28.347  10.310  13.468
34648W        W 2866  22.996  22.360  13.539
34649W        W 2867  38.003  36.262   2.416
34650W        W 2868  38.762  31.463   3.097
34651W        W 2869  33.880   7.936   4.502
34652W        W 2870  23.449  19.621  14.168
34653W        W 2871  22.429  38.352   0.325
34654W        W 2872  31.214  10.348  12.018
34655W        W 2873   2.537  43.329   4.717
34656W        W 2874  34.709  40.413   1.489
34657W        W 2875   2.214   7.915  13.818
34658W        W 2876   1.680  37.405   4.750
34659W        W 2877  18.068  42.133  10.743
34660W        W 2878  18.602  43.297   1.425
34661W        W 2879   3.778  36.972  11.451
34662W        W 2880  37.991  19.200   3.553
34663W        W 2881  38.439  13.274   1.610
34664W        W 2882  29.400   5.776  10.965
34665W        W 2883  42.096   6.195   1.866
34666W        W 2884  11.152   2.824   1.243
34667W        W 2885  13.623   3.823   2.338
34668W        W 2886  11.926  30.069  11.430
34669W        W 2887  20.236  11.934  12.028
34670W        W 2888  19.596   4.873   4.769
34671W        W 2889   6.771  29.926  10.984
34672W        W 2890  31.835  20.584   3.253
34673W        W 2891  28.025  21.447   0.681
34674W        W 2892  38.802  25.456   0.313
34675W        W 2893  16.622  15.133  14.589
34676W        W 2894  27.502  30.753   0.063
34677W        W 2895  28.578  17.234  10.498
34678W        W 2896  26.279   4.816  14.314
34679W        W 2897  30.789   2.033   4.814
34680W        W 2898  44.936  37.318   1.007
34681W        W 2899  28.991   9.673  13.903
34682W        W 2900  15.030  28.695   0.282
34683W        W 2901  39.308  28.110  14.811
34684W        W 2902  31.077  33.830   1.950
34685W        W 2903  39.842  31.635  13.961
34686W        W 2904   9.432  12.299   4.054
34687W        W 2905  36.578  28.114  10.078
34688W        W 2906  31.014   9.337   1.242
34689W        W 2907  30.202  22.782   0.766
34690W        W 2908  38.141  39.795  12.568
34691W        W 2909   0.890  38.403   4.177
34692W        W 2910  43.038  34.518   1.909
34693W        W 2911  29.719  23.967   3.261
34694W        W 2912  12.086  25.927  14.900
34695W        W 2913  39.670  12.745   0.513
34696W        W 2914  29.175  30.050  10.682
34697W        W 2915  36.039  35.110  10.996
34698W        W 2916   8.837  27.254   1.269
34699W        W 2917  35.380   4.948  11.094
34700W        W 2918  19.646  18.080  11.255
34701W        W 2919  30.389  22.419   1.100
34702W        W 2920  40.071   5.961  12.861
34703W        W 2921  29.667  10.858  11.248
34704W        W 2922  30.446  20.060  13.499
34705W        W 2923   3.950   9.907   1.297
34706W        W 2924  32.643  34.282  14.902
34707W        W 2925  29.146  20.815   4.403
34708W        W 2926  24.572  35.080  14.883
34709W        W 2927   8.817  42.100   3.656
34710W        W 2928  37.125  14.699  14.471
34711W        W 2929  12.644  11.666   3.683
34712W        W 2930  14.134   2.232  13.854
34713W        W 2931  27.209   0.428  13.911
34714W        W 2932  12.343  25.048   0.412
34715W        W 2933  43.653  10.580   0.872
34716W        W 2934  13.047  41.365  11.556
34717W        W 2935  17.114  28.921  11.910
34718W        W 2936  36.319  16.068   4.592
34719W        W 2937  34.369   3.824   3.740
34720W        W 2938  14.285   9.715   4.635
34721W        W 2939  30.963  21.597   4.147
34722W        W 2940  28.788  39.645  11.128
34723W        W 2941  36.174  19.343   0.440
34724W        W 2942  18.440   6.489   3.128
34725W        W 2943   4.079  39.615  11.405
34726W        W 2944  11.165  24.946   1.587
34727W        W 2945  17.668  29.352  14.313
34728W        W 2946   9.672  25.721   0.564
34729W        W 2947  27.523  20.543  14.957
34730W        W 2948   1.267  42.667  12.183
34731W        W 2949  44.869  24.796   3.639
34732W        W 2950  34.624  40.519  13.438
34733W        W 2951  14.552  43.802   1.557
34734W        W 2952  12.850  38.665   4.711
34735W        W 2953  20.957  15.878  14.251
34736W        W 2954  17.359  12.016   3.178
34737W        W 2955  42.392  22.202  12.149
34738W        W 2956  17.319  17.386  13.087
34739W        W 2957  36.777  22.710   2.224
34740W        W 2958  12.377  23.644   3.622
34741W        W 2959  38.523  34.039   1.694
34742W        W 2960  29.660  43.134  13.951
34743W        W 2961  22.981  16.431   2.780
34744W        W 2962  38.879  36.229   2.183
34745W        W 2963  19.044  43.544  12.030
34746W        W 2964  14.988   6.762   1.028
34747W        W 2965  22.094  17.287   0.369
34748W        W 2966   6.148   1.205  11.230
34749W        W 2967  20.023  34.515  12.876
34750W        W 2968   9.221  23.535  11.565
34751W        W 2969  38.888  29.217  10.652
34752W        W 2970  22.929  14.079  10.205
34753W        W 2971  44.906  18.517  13.423
34754W        W 2972   0.384  17.758   2.263
34755W        W 2973  16.046  10.087   0.831
34756W        W 2974  35.801   8.297   2.747
34757W        W 2975   8.881   7.647   4.413
34758W        W 2976  22.061  20.654  14.194
34759W        W 2977  43.384   3.801  14.927
34760W        W 2978   6.319  18.953  10.218
34761W        W 2979  21.591  25.462   2.586
34762W        W 2980  21.674  27.823  12.527
34763W        W 2981  31.455  28.003  14.975
34764W        W 2982   9.597  25.546  10.522
34765W        W 2983  31.036   9.377  14.729
34766W        W 2984   2.559  23.074   1.851
34767W        W 2985  21.698  14.496   0.764
34768W        W 2986  28.197   5.500  14.117
34769W        W 2987  30.141  26.548  10.421
34770W        W 2988  38.258  12.593  10.611
34771W        W 2989   5.852  36.855   4.315
34772W        W 2990   4.355  41.305   4.943
34773W        W 2991  16.306   2.414  13.007
34774W        W 2992  37.030  35.795  13.038
34775W        W 2993  23.669  14.228  13.192
34776W        W 2994  12.631  43.247  10.785
34777W        W 2995  36.533  11.338  13.405
34778W        W 2996  22.211  17.329  13.453
34779W        W 2997   7.091  37.950   2.613
34780W        W 2998  22.089  43.048   2.307
34781W        W 2999   7.404  13.822   2.738
34782W        W 3000  21.075  11.706  13.579
34783W        W 3001  33.635  21.592   0.487
34784W        W 3002  22.510  39.041   3.324
34785W        W 3003  31.911  39.349   2.258
34786W        W 3004  43.906   7.506   0.546
34787W        W 3005  12.354  17.756  12.750
34788W        W 3006  40.877  15.331  12.493
34789W        W 3007   3.347  12.288   2.455
34790W        W 3008  30.736  36.241  10.417
34791W        W 3009   5.974  16.886  11.696
34792W        W 3010  28.679  36.490   4.934
34793W        W 3011   5.308  12.866   3.112
34794W        W 3012   4.450  35.037  12.604
34795W        W 3013   5.165  34.157   3.594
34796W        W 3014  44.515  20.214  14.404
34797W        W 3015  31.914   4.991  13.952
34798W        W 3016  22.465   3.295  12.886
34799W        W 3017  13.740   8.205   1.235
34800W        W 3018  26.768   6.100  11.489
34801W        W 3019  10.772   7.823   4.304
34802W        W 3020  28.609  37.755   1.511
34803W        W 3021  30.987  44.342   1.809
34804W        W 3022  32.877  33.953  13.918
34805W        W 3023  27.657  35.166  11.548
34806W        W 3024  36.973  22.589   3.037
34807W        W 3025  29.467  11.307   0.433
34808W        W 3026   5.712   8.361   3.136
34809W        W 3027   9.163  25.980   3.144
34810W        W 3028  34.853  10.609   3.612
34811W        W 3029  24.601  14.663  12.348
34812W        W 3030   2.857  23.223   0.835
34813W        W 3031  20.331  11.246   3.287
34814W        W 3032  24.479  43.246  13.489
34815W        W 3033  15.575  23.064   4.975
34816W        W 3034  42.548   0.276  11.996
34817W        W 3035  27.343   2.593  13.320
34818W        W 3036   4.643  14.722  12.326
34819W        W 3037  16.307  23.027   4.344
34820W        W 3038   8.921   7.872  12.068
34821W        W 3039  21.552  29.039   2.238
34822W        W 3040   9.228  42.513  10.465
34823W        W 3041  15.021  30.946   2.232
34824W        W 3042  30.621  39.635  12.870
34825W        W 3043  18.701  41.298  13.365
34826W        W 3044  29.138   8.876   0.718
34827W        W 3045  30.037  27.599   1.489
34828W        W 3046   0.055  18.329   1.879
34829W        W 3047   2.330   5.233   1.297
34830W        W 3048  14.770  10.192   0.034
34831W        W 3049   2.614  44.891   1.688
34832W        W 3050   2.340  31.161  11.684
34833W        W 3051  11.587  36.016  14.914
34834W        W 3052  31.265  31.651   3.857
34835W        W 3053  19.769  41.530  11.811
34836W        W 3054   3.803  41.770  14.818
34837W        W 3055  16.427  19.577  12.516
34838W        W 3056  12.753  29.465  12.434
34839W        W 3057  31.198  43.154   4.725
34840W        W 3058  34.640  25.713  11.517
34841W        W 3059   0.509  15.587   3.112
34842W        W 3060  30.469  11.808   4.796
34843W        W 3061  14.099   5.763   0.440
34844W        W 3062  21.599  29.203  12.442
34845W        W 3063  20.069  31.039   4.099
34846W        W 3064  41.842  19.562   4.578
34847W        W 3065  29.648   0.762   2.209
34848W        W 3066  33.531  31.264  12.783
34849W        W 3067  34.565  37.346  14.680
34850W        W 3068  39.486  10.771  10.897
34851W        W 3069  33.400  24.737   0.360
34852W        W 3070  28.459  20.285   2.349
34853W        W 3071  35.906   5.271  12.566
34854W        W 3072  42.302  18.566   4.582
34855W        W 3073   0.368  34.164   3.756
34856W        W 3074  14.131  40.557   0.638
34857W        W 3075  43.215  22.670  11.299
34858W        W 3076  18.123  29.214   3.678
34859W        W 3077  13.979  25.758  14.377
34860W        W 3078  23.444  43.241  12.128
34861W        W 3079  11.366  23.847   3.579
34862W        W 3080  36.021  36.306  12.287
34863W        W 3081   4.852  40.960   0.491
34864W        W 3082  43.420  10.917   1.239
34865W        W 3083   5.643  40.977   0.962
34866W        W 3084  36.753   5.386   4.501
34867W        W 3085  38.549  25.848  12.216
34868W        W 3086  35.111  14.286   2.347
34869W        W 3087   3.001   9.214  12.512
34870W        W 3088  13.223  20.507   1.773
34871W        W 3089   6.125  28.031  12.374
34872W        W 3090  27.577   6.588   0.971
34873W        W 3091   6.177  21.052   0.022
34874W        W 3092  43.239  44.553   0.770
34875W        W 3093  30.890   8.173   0.784
34876W        W 3094  40.655  43.025   4.495
34877W        W 3095  36.846  32.453   0.343
34878W        W 3096  15.414   1.352   9.764
34879W        W 3097  24.452  40.913   2.699
34880W        W 3098  16.928  38.481  13.036
34881W        W 3099  40.752  37.050   4.192
34882W        W 3100  29.087  22.557  13.596
34883W        W 3101   6.857  12.920  12.958
34884W        W 3102  31.094  30.134  12.047
34885W        W 3103   5.133   2.454   2.796
34886W        W 3104  31.081  25.687   1.059
34887W        W 3105  27.948  40.939   4.168
34888W        W 3106  10.928  23.107  10.920
34889W        W 3107   8.771  19.351   0.508
34890W        W 3108  23.072  22.113   1.268
34891W        W 3109   9.219  20.711   3.768
34892W        W 3110   5.172  17.372   4.622
34893W        W 3111   7.575  30.859  10.785
34894W        W 3112  27.847   2.030   1.668
34895W        W 3113  40.594  19.446   3.259
34896W        W 3114  16.401  11.923  11.084
34897W        W 3115  20.979  24.657  14.053
34898W        W 3116  30.524  37.160  14.237
34899W        W 3117  18.628  37.362   0.033
34900W        W 3118  32.611  29.554   0.256
34901W        W 3119   4.462  11.174   4.141
34902W        W 3120  19.031   5.921  11.114
34903W        W 3121  14.128  42.342  12.889
34904W        W 3122  32.191  22.604   0.698
34905W        W 3123  14.160   1.364   4.219
34906W        W 3124  36.302  20.184   3.382
34907W        W 3125  42.004  24.986   3.534
34908W        W 3126   1.294  13.387   0.346
34909W        W 3127  42.273   9.670  11.527
34910W        W 3128   6.830   0.198  10.448
34911W        W 3129   5.270  26.558   3.328
34912W        W 3130  39.471  37.027   4.715
34913W        W 3131   7.830  35.909   1.612
34914W        W 3132   9.305   9.803  13.704
34915W        W 3133  37.462  42.440   3.915
34916W        W 3134  36.962  38.953  12.537
34917W        W 3135  39.481  36.988  10.665
34918W        W 3136   1.901  19.662  14.846
34919W        W 3137  30.388  32.338   2.742
34920W        W 3138  33.380   7.393  10.374
34921W        W 3139  10.347  28.480   1.178
34922W        W 3140  44.274  24.773  14.364
34923W        W 3141  21.825  24.642   3.734
34924W        W 3142  29.196  19.866   1.992
34925W        W 3143   9.037  34.368   2.863
34926W        W 3144  40.734  12.849  14.543
34927W        W 3145  36.516  30.720  12.891
34928W        W 3146  41.267  36.510   2.706
34929W        W 3147  11.411  37.300   2.735
34930W        W 3148  33.586  24.716  14.429
34931W        W 3149  39.216  12.215   0.387
34932W        W 3150  26.824  27.290  11.931
34933W        W 3151   9.466  36.453   1.855
34934W        W 3152  19.560  22.937  10.604
34935W        W 3153  34.312  14.066   1.765
34936W        W 3154  15.170  22.771  12.543
34937W        W 3155  30.199  41.479   0.368
34938W        W 3156  42.395  11.408   2.234
34939W        W 3157  30.692  18.091  10.692
34940W        W 3158   5.236  17.697  12.870
34941W        W 3159  32.179   1.400  10.537
34942W        W 3160  24.141  37.381   0.372
34943W        W 3161   2.646  23.109   2.834
34944W        W 3162  32.533  35.798  13.174
34945W        W 3163  28.462   2.293   0.705
34946W        W 3164  23.315  13.295   2.149
34947W        W 3165  29.670  19.796   4.594
34948W        W 3166  43.576  33.742  11.591
34949W        W 3167   6.370  34.487   2.252
34950W        W 3168  21.562   6.467  13.911
34951W        W 3169  37.475  29.996  14.551
34952W        W 3170   3.772   3.136  13.910
34953W        W 3171  15.607  30.450   1.842
34954W        W 3172   0.817   5.131  10.441
34955W        W 3173  28.444  44.228  12.773
34956W        W 3174  44.016  14.567   2.806
34957W        W 3175  31.931   9.738  12.903
34958W        W 3176  42.951  17.799  13.440
34959W        W 3177   8.581  20.912   4.986
34960W        W 3178  14.879  41.466   0.965
34961W        W 3179  21.879  31.354  12.968
34962W        W 3180  11.765  19.683   4.770
34963W        W 3181  25.387   4.524   0.081
34964W        W 3182   6.815  15.018   1.276
34965W        W 3183  30.573  20.801   0.324
34966W        W 3184  32.336   3.824  14.523
34967W        W 3185  26.908   4.206   0.405
34968W        W 3186  38.638  27.857   2.939
34969W        W 3187  38.376  42.262  11.922
34970W        W 3188   5.439  42.186  10.994
34971W        W 3189  40.900  25.781  14.052
34972W        W 3190  10.755  15.577  12.342
34973W        W 3191  29.006  36.931  13.471
34974W        W 3192  43.564  29.449  11.255
34975W        W 3193  37.767  41.906   1.999
34976W        W 3194   5.274  34.623  12.761
34977W        W 3195   1.023  41.506   3.753
34978W        W 3196  41.317  13.264   4.171
34979W        W 3197   1.284  33.656  11.971
34980W        W 3198  18.619   9.190   4.642
34981W        W 3199  20.027  43.408   0.217
34982W        W 3200   1.900  43.364  12.191
34983W        W 3201  38.139  26.933   3.617
34984W        W 3202   5.604  26.621  10.599
34985W        W 3203  40.270  10.745   0.426
34986W        W 3204  39.016  43.576  12.782
34987W        W 3205  25.480  27.957   3.132
34988W        W 3206  11.703   4.969   3.328
34989W        W 3207  14.260  33.627  13.228
34990W        W 3208  28.889  33.803  12.989
34991W        W 3209  13.234  39.808   3.268
34992W        W 3210  39.302  35.380   1.747
34993W        W 3211  14.007  44.808  14.245
34994W        W 3212  16.785  17.691   0.761
34995W        W 3213  35.939  32.105   3.393
34996W        W 3214  18.406   4.538   2.439
34997W        W 3215  10.663  37.596  14.734
34998W        W 3216  40.819  29.835   2.357
34999W        W 3217  40.873  14.199   1.629
35000W        W 3218   2.583   4.289  11.201
35001W        W 3219  24.403  18.835  11.153
35002W        W 3220  29.556  39.006  12.534
35003W        W 3221  24.196   5.030  12.546
35004W        W 3222  42.312  10.534  12.439
35005W        W 3223   1.071  32.474  12.042
35006W        W 3224  27.916   8.796   1.837
35007W        W 3225  36.471   3.254  11.982
35008W        W 3226  11.002  34.792   4.091
35009W        W 3227   7.434  37.516   1.779
35010W        W 3228  29.027   1.334   4.638
35011W        W 3229  34.348  13.789  12.435
35012W        W 3230   8.967   5.945   4.346
35013W        W 3231   5.279  24.588  13.281
35014W        W 3232   3.379  12.793  10.697
35015W        W 3233  23.237   1.267  14.833
35016W        W 3234  25.066  41.906  11.519
35017W        W 3235  14.864  14.283  11.823
35018W        W 3236  16.050  12.516  14.024
35019W        W 3237  18.200  36.655   3.270
35020W        W 3238   8.503  40.055  11.089
35021W        W 3239  36.054  11.073  13.192
35022W        W 3240  21.111  25.455  12.065
35023W        W 3241   6.399   0.481  12.995
35024W        W 3242  10.762  42.408   0.299
35025W        W 3243   0.161  40.918   1.375
35026W        W 3244  17.157  18.638  10.704
35027W        W 3245  25.197  40.442   2.918
35028W        W 3246  33.030  20.804   4.894
35029W        W 3247  19.886  19.725   0.096
35030W        W 3248   4.916   9.608  10.652
35031W        W 3249  33.362   0.384  11.250
35032W        W 3250  34.997  26.736  10.687
35033W        W 3251   9.244   2.406  11.577
35034W        W 3252  41.380  32.795   4.828
35035W        W 3253  38.643   5.281   3.599
35036W        W 3254   7.155  38.802   2.949
35037W        W 3255  35.664   3.343   1.242
35038W        W 3256  11.862  26.216  13.440
35039W        W 3257  10.897  38.403  11.887
35040W        W 3258  39.334  16.526   2.171
35041W        W 3259  37.416  31.100   1.710
35042W        W 3260  33.492  23.073   2.703
35043W        W 3261  10.610  40.031   4.175
35044W        W 3262  18.096   0.770   0.521
35045W        W 3263  14.824   9.826   4.629
35046W        W 3264  13.721  34.895  10.993
35047W        W 3265  25.478  18.312  13.401
35048W        W 3266  40.067   8.342  13.969
35049W        W 3267  31.123  28.838   2.129
35050W        W 3268  30.491   2.393  10.666
35051W        W 3269  19.683  13.055  11.763
35052W        W 3270  44.055  11.365  12.068
35053W        W 3271  34.877   7.680  10.946
35054W        W 3272  33.424  33.989   4.130
35055W        W 3273  21.101  12.365  11.139
35056W        W 3274   2.439  19.303  14.249
35057W        W 3275  39.187  28.108   4.596
35058W        W 3276  27.205  27.173  14.509
35059W        W 3277  43.763  20.259   3.742
35060W        W 3278   3.208  42.359  13.460
35061W        W 3279  19.831  42.263  14.400
35062W        W 3280   1.568   4.920  13.073
35063W        W 3281  33.110  32.494  13.130
35064W        W 3282  30.016  33.641   4.525
35065W        W 3283  13.443  34.230  14.228
35066W        W 3284  43.449   7.303   3.149
35067W        W 3285  19.643  35.838  12.924
35068W        W 3286  39.026   7.643   0.315
35069W        W 3287  18.125  30.511   3.321
35070W        W 3288  15.337  25.179  14.804
35071W        W 3289  14.759   0.494   0.811
35072W        W 3290  30.643   6.126  11.535
35073W        W 3291  11.152  37.490   3.702
35074W        W 3292  29.351   7.460  11.210
35075W        W 3293  10.760   3.180   2.931
35076W        W 3294   0.843  34.417   4.575
35077W        W 3295   8.208  29.120  13.750
35078W        W 3296   2.446  24.364  10.121
35079W        W 3297  15.283  38.437  10.632
35080W        W 3298  41.291   5.525  12.204
35081W        W 3299  44.726   8.177  13.340
35082W        W 3300  39.401  43.702  10.747
35083W        W 3301   2.040  42.343   1.306
35084W        W 3302   5.393  42.081   1.121
35085W        W 3303   0.988   6.779  14.109
35086W        W 3304  38.616  22.509  11.701
35087W        W 3305  31.051  16.709  13.063
35088W        W 3306  39.762  30.444   1.324
35089W        W 3307  35.959  44.658   4.347
35090W        W 3308  18.477  20.133  11.966
35091W        W 3309  43.778  18.066   2.267
35092W        W 3310  39.835  43.848   1.929
35093W        W 3311  15.750  43.256   1.002
35094W        W 3312   0.976   7.743  12.974
35095W        W 3313  32.575  27.220  14.776
35096W        W 3314   3.535   7.323   0.213
35097W        W 3315   7.274  12.817  14.014
35098W        W 3316  36.532  36.209   4.639
35099W        W 3317  35.166  11.338  14.030
35100W        W 3318  17.717   0.976   2.235
35101W        W 3319  35.598  11.874   2.153
35102W        W 3320  12.145   9.132   2.916
35103W        W 3321   5.282  18.935   4.350
35104W        W 3322  32.789   9.111  13.363
35105W        W 3323  32.697  40.297  10.734
35106W        W 3324  30.125  12.906   3.194
35107W        W 3325  22.977   0.451   1.790
35108W        W 3326   1.717  30.338  12.037
35109W        W 3327  39.183  26.191   0.719
35110W        W 3328  16.814   6.043   3.244
35111W        W 3329   2.895  44.438   1.733
35112W        W 3330  44.943  24.573  11.573
35113W        W 3331  26.107  21.290  10.334
35114W        W 3332  15.492  26.710  11.043
35115W        W 3333   0.884  24.789   2.750
35116W        W 3334  40.961  26.030   2.894
35117W        W 3335  44.373  39.886  14.533
35118W        W 3336  36.864  39.188  12.081
35119W        W 3337  16.697  28.075   1.816
35120W        W 3338   3.651  25.981   1.196
35121W        W 3339  35.425  28.119   1.280
35122W        W 3340  37.172  16.876  13.809
35123W        W 3341   3.786  38.758   3.689
35124W        W 3342  17.310  36.487   2.698
35125W        W 3343  11.696  37.096   4.904
35126W        W 3344  41.105  35.578   1.354
35127W        W 3345  23.495  18.183  12.446
35128W        W 3346  13.147  13.490  12.523
35129W        W 3347  36.881  20.000  13.394
35130W        W 3348  40.448  24.948  11.511
35131W        W 3349  26.316  36.990  13.418
35132W        W 3350  42.840  44.410   1.683
35133W        W 3351  36.924   1.281   1.194
35134W        W 3352   0.532   3.247   1.761
35135W        W 3353  30.010  23.066   2.406
35136W        W 3354  43.359  42.430   4.285
35137W        W 3355  34.907  33.074   1.735
35138W        W 3356  12.318  39.418   3.607
35139W        W 3357   7.108  19.053  13.189
35140W        W 3358  17.587   9.222   3.206
35141W        W 3359  43.316   7.198   1.173
35142W        W 3360  44.516   0.168   2.748
35143W        W 3361  29.845  24.042  10.333
35144W        W 3362  39.483  42.240   2.376
35145W        W 3363  41.263   7.057  14.471
35146W        W 3364  31.892  36.015  11.132
35147W        W 3365  25.284  42.395  11.982
35148W        W 3366  31.793  38.005   4.405
35149W        W 3367   6.348  43.506  11.873
35150W        W 3368  40.916  39.316  11.541
35151W        W 3369  36.558  20.679   0.225
35152W        W 3370  11.938  27.510   2.111
35153W        W 3371  40.725  19.626   2.807
35154W        W 3372  10.641   4.356   1.774
35155W        W 3373  31.451  40.220  14.769
35156W        W 3374   2.375  38.833   3.859
35157W        W 3375  17.547   3.008  11.287
35158W        W 3376  14.795  44.029  12.825
35159W        W 3377   1.538  42.332   2.127
35160W        W 3378   7.490  30.043   0.927
35161W        W 3379   0.014  23.052  10.666
35162W        W 3380  31.099  24.718   3.634
35163W        W 3381  42.015   7.807   2.841
35164W        W 3382  28.397  26.662   3.174
35165W        W 3383   4.349   2.007  12.581
35166W        W 3384  13.879  27.563   1.856
35167W        W 3385  43.436  44.611  11.617
35168W        W 3386  26.060  28.614   1.289
35169W        W 3387  36.534  15.140   1.176
35170W        W 3388  43.761  41.101   1.543
35171W        W 3389  14.285  21.705  10.688
35172W        W 3390   6.126  23.717   4.710
35173W        W 3391  30.343  13.714   1.189
35174W        W 3392  39.752  43.909  12.541
35175W        W 3393  20.592   3.198  11.664
35176W        W 3394  40.891  43.906   2.553
35177W        W 3395  28.897  22.111  14.010
35178W        W 3396  44.463  23.746   3.186
35179W        W 3397  37.379  17.168  12.468
35180W        W 3398  36.810  37.909   0.206
35181W        W 3399  35.874   3.875  13.922
35182W        W 3400  26.241  11.702  10.580
35183W        W 3401   2.753  39.761   3.239
35184W        W 3402   8.926  21.263  13.572
35185W        W 3403  28.583  35.371   4.522
35186W        W 3404  30.175   0.536  11.561
35187W        W 3405  34.075   7.358   1.219
35188W        W 3406   4.328  10.880  11.592
35189W        W 3407  42.708  26.450  14.289
35190W        W 3408  15.256   5.079   2.327
35191W        W 3409  23.472  13.286   3.726
35192W        W 3410  34.102  33.751  12.534
35193W        W 3411  12.833  24.650  13.953
35194W        W 3412  41.799  43.236   2.361
35195W        W 3413  19.949  30.874   2.321
35196W        W 3414  17.119  43.581   5.018
35197W        W 3415   8.573   4.330   4.089
35198W        W 3416   1.319  39.550   4.081
35199W        W 3417  20.430   8.297  14.089
35200W        W 3418  44.404  26.754   4.300
35201W        W 3419  23.098  13.686   3.281
35202W        W 3420  41.568  13.892   1.434
35203W        W 3421  39.919  23.499   0.947
35204W        W 3422   1.082  31.941  10.658
35205W        W 3423  30.711  40.404   4.438
35206W        W 3424  11.866   0.416  11.555
35207W        W 3425  33.371  37.386   0.478
35208W        W 3426  42.328  26.506  11.070
35209W        W 3427   9.240   3.827   2.201
35210W        W 3428  29.501   8.347  14.419
35211W        W 3429  18.567  42.049   0.900
35212W        W 3430  42.099  43.801  14.522
35213W        W 3431  13.031  39.169  11.814
35214W        W 3432  18.212  43.186   1.754
35215W        W 3433  39.447  40.313  13.403
35216W        W 3434   4.163   6.190   1.484
35217W        W 3435  21.983   3.333  11.974
35218W        W 3436  38.403  39.737  12.112
35219W        W 3437  11.300  14.570   1.871
35220W        W 3438  12.878  35.423   2.279
35221W        W 3439  36.436  29.631   3.753
35222W        W 3440  38.343  10.433  13.535
35223W        W 3441  23.258  29.981  12.139
35224W        W 3442   2.854  29.243   3.248
35225W        W 3443  19.298  43.548   4.111
35226W        W 3444   3.224   3.216   4.268
35227W        W 3445  33.904   3.455   3.667
35228W        W 3446  22.670  14.581   2.298
35229W        W 3447   5.018   5.170   0.314
35230W        W 3448   4.209  14.534  14.711
35231W        W 3449  44.383  37.826   5.190
35232W        W 3450  44.644  10.348  11.911
35233W        W 3451  21.140  21.874  14.484
35234W        W 3452  32.408  11.295   3.163
35235W        W 3453  35.396  35.139  12.630
35236W        W 3454   0.323  23.865   4.325
35237W        W 3455  19.606  18.532  13.863
35238W        W 3456  14.929  23.091  13.060
35239W        W 3457  40.449   8.301   0.990
35240W        W 3458  29.167  18.354  13.026
35241W        W 3459  26.045  26.522   3.975
35242W        W 3460  32.753  38.893  10.875
35243W        W 3461  19.718  30.608  10.945
35244W        W 3462  10.908  30.466  12.976
35245W        W 3463   9.144  27.597   4.290
35246W        W 3464  40.571   0.397  10.731
35247W        W 3465  10.835  37.946  14.383
35248W        W 3466   6.896  36.462  14.659
35249W        W 3467   7.117  39.033  11.612
35250W        W 3468  29.109   5.934   3.693
35251W        W 3469  31.541  12.865   3.823
35252W        W 3470  29.144   3.643   3.212
35253W        W 3471  40.887   2.913   2.582
35254W        W 3472   5.090  20.111   2.331
35255W        W 3473   4.523   8.668   0.544
35256W        W 3474  22.345  43.646  11.505
35257W        W 3475  14.177  28.389  12.140
35258W        W 3476   2.414  13.185  10.716
35259W        W 3477  10.223  38.890  14.822
35260W        W 3478  28.499   1.498   1.222
35261W        W 3479  15.754  24.918   2.431
35262W        W 3480  13.314  32.723  12.514
35263W        W 3481  13.162   6.626   4.031
35264W        W 3482  11.377  19.589  13.934
35265W        W 3483  26.601  15.581   1.455
35266W        W 3484  25.572   4.714  12.305
35267W        W 3485  21.158  23.638  12.463
35268W        W 3486   6.311  21.205   0.905
35269W        W 3487  31.179  17.683   0.343
35270W        W 3488  33.399   7.959   4.206
35271W        W 3489   2.594  10.283  10.725
35272W        W 3490   8.676  11.201   1.967
35273W        W 3491  30.698   3.382  13.016
35274W        W 3492   9.792  41.803   1.243
35275W        W 3493  10.681  31.470   0.270
35276W        W 3494  33.595  38.577  12.484
35277W        W 3495  34.466   4.858   2.682
35278W        W 3496  16.832  17.731   4.257
35279W        W 3497  19.669  35.479   1.518
35280W        W 3498  35.553   9.731  11.958
35281W        W 3499  29.654   0.430  13.892
35282W        W 3500  42.061  40.794   3.129
35283W        W 3501  39.288  38.781   2.900
35284W        W 3502  15.200  21.238  10.655
35285W        W 3503  43.853  28.206   3.169
35286W        W 3504  42.552  13.297  14.235
35287W        W 3505  23.610  11.628  10.592
35288W        W 3506  27.904  19.718  11.276
35289W        W 3507  28.654  42.861  10.592
35290W        W 3508  27.835  16.672   5.029
35291W        W 3509   5.843   9.669  12.605
35292W        W 3510   4.634  32.065  14.386
35293W        W 3511  13.811  31.407   3.361
35294W        W 3512  15.593  13.823   4.666
35295W        W 3513  23.017   1.494   1.813
35296W        W 3514  30.482  32.117  11.545
35297W        W 3515   4.802  24.150  11.619
35298W        W 3516  42.691  15.287  12.556
35299W        W 3517  20.735  41.734   0.409
35300W        W 3518  22.635   7.685   3.240
35301W        W 3519  26.712  22.231  12.734
35302W        W 3520  21.698  22.594  14.410
35303W        W 3521  16.316  40.787   2.660
35304W        W 3522  43.779  42.261  14.962
35305W        W 3523  44.227  19.079  12.878
35306W        W 3524   8.820  15.408   9.807
35307W        W 3525  35.426  14.198   3.321
35308W        W 3526  12.353  31.652  12.653
35309W        W 3527  38.319  28.952  13.876
35310W        W 3528   2.692   2.285   1.757
35311W        W 3529   1.413  30.972  10.767
35312W        W 3530   7.197   3.027   4.560
35313W        W 3531  21.934  30.616   0.821
35314W        W 3532  18.639   2.479  12.372
35315W        W 3533   8.207  30.976   4.530
35316W        W 3534  17.584   2.243  10.595
35317W        W 3535  42.743   5.418   0.886
35318W        W 3536  20.588  16.044  14.982
35319W        W 3537  42.841  10.693  11.994
35320W        W 3538  39.499   3.944  11.173
35321W        W 3539   4.447  25.169  14.408
35322W        W 3540  15.615  40.894   1.908
35323W        W 3541  25.358  24.634   2.891
35324W        W 3542  39.896  37.404  11.468
35325W        W 3543   6.190  27.753   2.908
35326W        W 3544  14.686  19.524  11.433
35327W        W 3545  42.599  26.978   2.187
35328W        W 3546  36.266  20.135  14.596
35329W        W 3547  32.751  39.331  14.954
35330W        W 3548  44.496  32.321   3.254
35331W        W 3549  34.014  17.835   0.316
35332W        W 3550  43.011   9.742  13.198
35333W        W 3551  34.403  34.526  11.061
35334W        W 3552  31.296  26.127   0.293
35335W        W 3553   9.399  20.369   5.252
35336W        W 3554  26.184  26.420  11.275
35337W        W 3555  23.961  16.545  11.078
35338W        W 3556  16.249  11.638  14.112
35339W        W 3557  43.438  24.302  13.852
35340W        W 3558  42.380  10.170  11.468
35341W        W 3559   9.194   9.447  13.340
35342W        W 3560  31.998  40.299  12.246
35343W        W 3561  11.765  31.171   1.677
35344W        W 3562   3.320  26.445  14.055
35345W        W 3563  29.565  16.089   2.615
35346W        W 3564  18.048  29.070  14.887
35347W        W 3565  35.030  36.578   2.645
35348W        W 3566  12.137  20.186   3.177
35349W        W 3567  40.986  22.710  12.624
35350W        W 3568  20.190   2.738   0.764
35351W        W 3569  25.037   4.198  11.864
35352W        W 3570   5.313  19.772  13.941
35353W        W 3571   7.115   6.062   2.438
35354W        W 3572  25.947  25.622   2.679
35355W        W 3573   5.947  22.799  14.481
35356W        W 3574  29.362  14.792  13.572
35357W        W 3575  25.236  36.626  10.755
35358W        W 3576  12.673  10.118  12.524
35359W        W 3577  30.237   6.317  11.146
35360W        W 3578  10.876  30.714   3.430
35361W        W 3579  25.984  10.349  11.142
35362W        W 3580  11.651  36.146   4.227
35363W        W 3581  15.651   3.190   2.341
35364W        W 3582  37.025  36.854  11.570
35365W        W 3583  40.898  24.753   2.558
35366W        W 3584  19.292   9.711   0.404
35367W        W 3585  34.959  20.819   4.728
35368W        W 3586  18.444  42.291   0.462
35369W        W 3587  32.944  15.431  11.122
35370W        W 3588   2.986   7.060   1.644
35371W        W 3589  22.229  31.568   2.596
35372W        W 3590  43.440   6.672   4.009
35373W        W 3591  11.218  32.427   3.795
35374W        W 3592  29.534  17.997  12.892
35375W        W 3593  37.142  22.627   1.835
35376W        W 3594   6.713  20.478  12.864
35377W        W 3595  15.790  38.324  11.608
35378W        W 3596  33.867  25.438  10.462
35379W        W 3597  17.148  20.196  10.662
35380W        W 3598  17.011  42.932  10.032
35381W        W 3599  24.595  22.561  14.889
35382W        W 3600  16.983  18.133  11.783
35383W        W 3601  21.189  29.577  12.028
35384W        W 3602  26.063  19.337  13.309
35385W        W 3603  37.725  19.099   4.501
35386W        W 3604  37.055   4.259  14.543
35387W        W 3605  18.504   3.999   3.714
35388W        W 3606  13.339  10.414  13.636
35389W        W 3607  13.176  15.014   1.606
35390W        W 3608  17.746  20.762  10.869
35391W        W 3609   5.454  16.900  11.623
35392W        W 3610  22.434   2.246   2.698
35393W        W 3611  41.666  28.193  12.897
35394W        W 3612   4.286  36.469   0.996
35395W        W 3613  10.020   0.854   4.682
35396W        W 3614  31.873   0.476  12.169
35397W        W 3615  31.184  33.856  13.372
35398W        W 3616  29.899  37.975   4.573
35399W        W 3617  17.818   3.228  14.295
35400W        W 3618  33.957  41.523  12.798
35401W        W 3619   0.184  27.432   3.346
35402W        W 3620   8.327  41.829   2.813
35403W        W 3621   4.875  17.664  11.144
35404W        W 3622  26.997  25.237   4.896
35405W        W 3623  41.835   1.294  13.369
35406W        W 3624  16.552  26.995   1.812
35407W        W 3625  13.280  21.638   3.630
35408W        W 3626  41.994  23.474  13.444
35409W        W 3627  13.632  35.311   3.682
35410W        W 3628  40.905  43.964  14.939
35411W        W 3629  26.535  35.755   2.306
35412W        W 3630  11.153  18.205   3.532
35413W        W 3631  40.984  42.785   2.737
35414W        W 3632   4.657  31.041   2.880
35415W        W 3633  37.307  30.978   2.232
35416W        W 3634  39.161   4.325   0.379
35417W        W 3635  23.864  16.389   1.705
35418W        W 3636  44.382  22.695  12.975
35419W        W 3637   3.310  14.091   9.817
35420W        W 3638  28.712  43.097   1.488
35421W        W 3639   3.654   4.047   2.743
35422W        W 3640   7.724  34.605  12.944
35423W        W 3641  31.560   3.165  14.888
35424W        W 3642   4.439   6.945   1.891
35425W        W 3643  40.398   2.980   1.240
35426W        W 3644   0.734  25.033   1.446
35427W        W 3645  25.028   7.198   1.764
35428W        W 3646  10.160  12.726   4.428
35429W        W 3647  18.384  10.381  13.004
35430W        W 3648   3.688   3.452  10.668
35431W        W 3649  41.728  22.011   4.113
35432W        W 3650   4.926  31.810  13.076
35433W        W 3651  24.604  18.177   1.574
35434W        W 3652   7.419  10.420  10.660
35435W        W 3653  42.916  37.485   4.876
35436W        W 3654   3.253  19.776   3.240
35437W        W 3655   0.516  19.309   0.916
35438W        W 3656   1.061  13.356   0.828
35439W        W 3657  33.623  39.346   3.700
35440W        W 3658  19.764  25.022   1.507
35441W        W 3659   8.908  40.680  13.055
35442W        W 3660  36.430   6.757   0.850
35443W        W 3661  20.971   9.424   2.427
35444W        W 3662  35.559  10.377   4.797
35445W        W 3663  30.654  44.010   3.644
35446W        W 3664  36.779   7.166  11.272
35447W        W 3665  35.624   8.291  13.469
35448W        W 3666  29.042  15.548  13.901
35449W        W 3667  40.765  37.094   0.368
35450W        W 3668  22.678  34.690  12.532
35451W        W 3669  34.194   4.463   0.487
35452W        W 3670  30.344  15.813  10.172
35453W        W 3671  35.394  30.952   4.135
35454W        W 3672   9.621  38.563   2.248
35455W        W 3673   4.473  39.139   4.468
35456W        W 3674  26.926  33.627   3.057
35457W        W 3675  19.277   7.746  12.455
35458W        W 3676  11.340  35.434  12.557
35459W        W 3677  44.932  35.272   3.006
35460W        W 3678  29.568  41.245  11.233
35461W        W 3679   2.788   0.370  14.316
35462W        W 3680   9.190  18.605   1.026
35463W        W 3681   7.164   6.849   3.390
35464W        W 3682  39.011  39.621  10.678
35465W        W 3683  27.440  40.960   3.318
35466W        W 3684  30.018  22.056  10.885
35467W        W 3685  39.923  30.081   3.839
35468W        W 3686  11.690   1.321  12.820
35469W        W 3687  21.436  41.145   3.264
35470W        W 3688   9.050  29.853   0.955
35471W        W 3689  20.567  31.495   1.060
35472W        W 3690  13.113  33.354  14.794
35473W        W 3691   3.316  10.742  12.986
35474W        W 3692  41.413  22.452  13.874
35475W        W 3693  12.192  39.719  11.628
35476W        W 3694  23.202  16.617   0.595
35477W        W 3695  36.909  35.489   0.926
35478W        W 3696  21.179  22.745   0.117
35479W        W 3697   0.782   1.324  10.621
35480W        W 3698  17.013  20.788   4.172
35481W        W 3699  20.314   3.373   1.733
35482W        W 3700   6.263   3.166  10.686
35483W        W 3701   4.735   2.455   4.282
35484W        W 3702   5.471  24.430   2.200
35485W        W 3703  43.321   3.277  13.478
35486W        W 3704  39.032  20.502  12.173
35487W        W 3705  34.949  30.192   4.321
35488W        W 3706  42.208  12.333  12.061
35489W        W 3707  30.632  12.064  11.067
35490W        W 3708   1.031  23.168  11.576
35491W        W 3709   6.797  25.674  12.785
35492W        W 3710  20.691  14.301  11.984
35493W        W 3711  11.539  15.743   1.992
35494W        W 3712  39.469  24.228  14.448
35495W        W 3713   6.723  11.622   3.134
35496W        W 3714  22.214  27.207  14.391
35497W        W 3715  17.726   3.260  12.636
35498W        W 3716  14.492  29.004   1.889
35499W        W 3717  38.723  32.949   4.550
35500W        W 3718  35.487  43.288  13.958
35501W        W 3719  22.959  26.178   2.771
35502W        W 3720  10.323  10.331   3.128
35503W        W 3721  34.598  13.184   2.771
35504W        W 3722   1.811  21.182  10.118
35505W        W 3723  17.036   9.284   2.320
35506W        W 3724  21.813  29.078  12.935
35507W        W 3725  10.404  20.628  10.604
35508W        W 3726  38.459  22.020   1.869
35509W        W 3727   4.142   8.949  14.551
35510W        W 3728   7.417  30.926  14.805
35511W        W 3729  13.305  12.110  11.564
35512W        W 3730   9.401  21.347  12.333
35513W        W 3731  33.027  24.062  13.125
35514W        W 3732  20.029  44.484  12.069
35515W        W 3733  39.820  10.167   1.463
35516W        W 3734  40.484  43.312  11.705
35517W        W 3735  12.096  40.067   1.723
35518W        W 3736   0.032  12.005  11.140
35519W        W 3737   9.284  44.976  14.540
35520W        W 3738  12.671  35.589  12.495
35521W        W 3739  24.084  11.849   2.210
35522W        W 3740   3.478  26.181   3.902
35523W        W 3741   8.756   6.303  13.093
35524W        W 3742  14.751  19.319  13.374
35525W        W 3743   7.297  14.225  12.949
35526W        W 3744  12.359   9.684   0.444
35527W        W 3745  24.971  41.788   0.605
35528W        W 3746  15.800  13.157   3.380
35529W        W 3747   3.806  27.055  14.108
35530W        W 3748  29.579   4.769   3.616
35531W        W 3749  12.131   0.125   3.177
35532W        W 3750  44.932  27.921  13.486
35533W        W 3751  36.590  29.438   2.362
35534W        W 3752  39.079  26.651   2.914
35535W        W 3753   3.408  41.580   4.619
35536W        W 3754  10.574  23.482  11.163
35537W        W 3755  24.658   9.269   1.493
35538W        W 3756  34.842   6.477   1.889
35539W        W 3757  41.169   9.318   2.353
35540W        W 3758   0.467  22.933  14.548
35541W        W 3759   9.750  30.183  12.850
35542W        W 3760  39.333  19.239  14.888
35543W        W 3761  37.836  10.891  12.797
35544W        W 3762  27.102   5.507  10.891
35545W        W 3763  41.119  35.608  12.832
35546W        W 3764  44.064  33.842   4.328
35547W        W 3765   7.898   5.764  12.285
35548W        W 3766  35.917  43.991  14.227
35549W        W 3767  23.093  23.128  11.238
35550W        W 3768  10.552   2.301   2.772
35551W        W 3769   9.858  20.860   3.215
35552W        W 3770  11.183  32.020   1.800
35553W        W 3771  28.873  37.352  12.484
35554W        W 3772  40.632   2.670  13.736
35555W        W 3773  39.878  22.555   3.649
35556W        W 3774   3.979   4.991   2.549
35557W        W 3775   2.034   4.139  11.204
35558W        W 3776  23.635  30.467  11.007
35559W        W 3777  43.944  41.332  13.431
35560W        W 3778  37.199  22.580  13.294
35561W        W 3779  41.338  18.213  10.692
35562W        W 3780  36.353  40.595   4.342
35563W        W 3781  25.579  34.225  12.540
35564W        W 3782  19.031  31.142  14.315
35565W        W 3783  15.123  27.713   1.234
35566W        W 3784  31.963  15.850  10.164
35567W        W 3785  32.908  21.715  11.237
35568W        W 3786  38.764  12.577  13.918
35569W        W 3787  36.400  20.601  14.346
35570W        W 3788  41.368  39.541   0.362
35571W        W 3789  19.205  33.112   2.359
35572W        W 3790   5.269  11.811   0.989
35573W        W 3791   3.817   2.975   1.122
35574W        W 3792   7.971  27.653  12.595
35575W        W 3793   1.826  31.843   1.010
35576W        W 3794  25.176  24.755   0.771
35577W        W 3795  14.662  14.793   4.306
35578W        W 3796  37.500  11.087  11.579
35579W        W 3797  39.629  22.555  14.308
35580W        W 3798  39.787   8.272   4.823
35581W        W 3799   5.849  16.873  13.004
35582W        W 3800  27.885  36.758   1.718
35583W        W 3801  17.807  36.854  14.917
35584W        W 3802  16.622   2.931   4.732
35585W        W 3803  21.771   2.255   3.815
35586W        W 3804  12.702  19.780   2.826
35587W        W 3805   0.775   0.207  10.738
35588W        W 3806  42.795  36.839   1.768
35589W        W 3807  43.616   7.296  14.710
35590W        W 3808  24.540  24.502   4.241
35591W        W 3809  16.197  10.803  12.891
35592W        W 3810  40.443   7.608  13.340
35593W        W 3811  23.620  17.274   1.210
35594W        W 3812  38.337  20.199  12.159
35595W        W 3813  40.380  15.100  12.658
35596W        W 3814  41.728  35.112   0.284
35597W        W 3815  44.441   8.354   2.847
35598W        W 3816  44.194  32.877   0.463
35599W        W 3817  11.666  42.322  10.445
35600W        W 3818  37.378  44.833   0.246
35601W        W 3819  36.788  21.093   1.579
35602W        W 3820   6.155   4.887   1.281
35603W        W 3821  22.892  12.081   4.433
35604W        W 3822  38.914  38.108   2.303
35605W        W 3823   7.184   6.766  10.754
35606W        W 3824  40.375  26.153   4.550
35607W        W 3825  21.398  19.953   3.666
35608W        W 3826  16.069   7.357   3.740
35609W        W 3827  16.706  18.365  12.147
35610W        W 3828  43.427  18.276  14.994
35611W        W 3829  36.033  41.501   1.786
35612W        W 3830  45.000  39.236   4.704
35613W        W 3831  24.767  22.524  11.568
35614W        W 3832  11.730  21.723   1.756
35615W        W 3833  19.985  21.189   3.789
35616W        W 3834  20.963  31.009  14.420
35617W        W 3835   6.493  13.174  14.471
35618W        W 3836  10.384  43.300  12.407
35619W        W 3837   5.156  33.261  14.338
35620W        W 3838  39.004  37.921  10.795
35621W        W 3839  29.070  21.006  12.356
35622W        W 3840   5.136  37.947   4.659
35623W        W 3841  44.685   0.735  13.374
35624W        W 3842  41.795  30.410  12.108
35625W        W 3843  12.723  23.776  14.912
35626W        W 3844   6.252  16.951  13.308
35627W        W 3845  16.099  12.770  12.367
35628W        W 3846  14.292  27.168   4.147
35629W        W 3847  27.397  31.887  12.767
35630W        W 3848  29.626  19.203  10.526
35631W        W 3849  26.505   8.804  14.901
35632W        W 3850  27.858  38.973   4.629
35633W        W 3851  40.354  11.298  13.744
35634W        W 3852  15.210   9.013   4.901
35635W        W 3853  34.609  33.621   3.249
35636W        W 3854  39.936  21.787   0.219
35637W        W 3855  40.357  24.959  13.785
35638W        W 3856  33.467   8.848   3.011
35639W        W 3857  29.008  38.882  14.543
35640W        W 3858   7.202  11.686  11.186
35641W        W 3859   4.825  30.687  10.169
35642W        W 3860  27.551  38.426   2.978
35643W        W 3861  10.188  39.554   1.323
35644W        W 3862  39.156  23.847  11.141
35645W        W 3863  18.068  20.259   1.423
35646W        W 3864  11.172  25.738  13.419
35647W        W 3865  34.401  26.982   5.777
35648W        W 3866  19.696   4.465  11.898
35649W        W 3867  28.962  42.752   3.230
35650W        W 3868  25.268   8.726  12.455
35651W        W 3869  25.718  28.455  14.986
35652W        W 3870   6.677   9.258   1.958
35653W        W 3871  22.740  26.962  10.684
35654W        W 3872   5.621  28.225   0.236
35655W        W 3873  13.250  28.170  14.046
35656W        W 3874  30.152   6.978   0.560
35657W        W 3875  14.360  10.408  12.102
35658W        W 3876   8.698  36.389  11.190
35659W        W 3877  36.048   3.414  12.691
35660W        W 3878  32.482  27.427  12.561
35661W        W 3879  17.218  38.520  10.946
35662W        W 3880  27.681  27.977   0.428
35663W        W 3881  30.391  41.473  11.525
35664W        W 3882  29.097  35.608   3.285
35665W        W 3883  29.106  18.236   4.249
35666W        W 3884  27.416  43.178  14.955
35667W        W 3885  10.624  26.898  10.708
35668W        W 3886   4.903  40.319   4.637
35669W        W 3887  31.411  21.067  13.917
35670W        W 3888   1.571  16.364  14.719
35671W        W 3889  20.240  32.602  11.569
35672W        W 3890  42.137  32.055  11.149
35673W        W 3891   1.443  30.229  13.894
35674W        W 3892  17.627  24.735  11.929
35675W        W 3893   5.539  25.502  14.288
35676W        W 3894  26.937   0.556   3.355
35677W        W 3895   8.013   4.851  11.967
35678W        W 3896   2.983  16.687   0.103
35679W        W 3897  44.411   2.485   3.180
35680W        W 3898  34.656  10.277   0.837
35681W        W 3899   0.496   2.590   4.312
35682W        W 3900  36.077   2.413  14.663
35683W        W 3901  42.016  39.551   3.589
35684W        W 3902  37.124  26.183   3.695
35685W        W 3903   2.978  19.895   0.898
35686W        W 3904   8.265   4.754   2.634
35687W        W 3905  24.208  10.270   1.726
35688W        W 3906   5.573  17.403   2.438
35689W        W 3907  34.850  25.286   2.822
35690W        W 3908  26.663  26.049  14.239
35691W        W 3909  44.503   6.377   1.796
35692W        W 3910  17.218   1.324  10.215
35693W        W 3911  42.385  23.611  11.870
35694W        W 3912  25.007   2.324   4.049
35695W        W 3913  20.506   4.139   2.856
35696W        W 3914  29.413  38.342   3.319
35697W        W 3915  29.462  34.503  14.809
35698W        W 3916  12.193  21.115  13.088
35699W        W 3917  15.426  26.007  12.476
35700W        W 3918  14.611  22.198   3.803
35701W        W 3919  22.570  24.946   2.298
35702W        W 3920  23.078  11.091   2.796
35703W        W 3921  30.116  43.443  13.087
35704W        W 3922  28.938  41.553   3.619
35705W        W 3923  14.105  18.070  13.501
35706W        W 3924   7.622  36.651   4.234
35707W        W 3925  17.942  11.346   5.018
35708W        W 3926  25.006  18.111  13.430
35709W        W 3927  25.967  20.987   4.095
35710W        W 3928  34.673  28.067  12.430
35711W        W 3929  34.371  14.426  11.700
35712W        W 3930  26.562  15.599   3.855
35713W        W 3931  17.683  32.503  13.953
35714W        W 3932  41.030   2.664  10.247
35715W        W 3933  13.407   1.269   1.857
35716W        W 3934  21.480  20.868   1.482
35717W        W 3935  42.712  29.189  14.283
35718W        W 3936  44.752  38.309  13.334
35719W        W 3937  20.928  39.472  14.076
35720W        W 3938   2.940   9.382  14.699
35721W        W 3939  38.847  13.280  11.969
35722W        W 3940  17.168   0.198  11.072
35723W        W 3941  43.260  28.091   2.902
35724W        W 3942  29.712  37.289  10.681
35725W        W 3943  36.013  29.150   0.789
35726W        W 3944   6.381  33.680   4.977
35727W        W 3945  36.810   5.322   2.398
35728W        W 3946  26.902  22.620   2.297
35729W        W 3947  21.563   7.195  10.574
35730W        W 3948  43.514  19.554  14.340
35731W        W 3949   3.868  44.340   0.244
35732W        W 3950  26.572   9.348   1.411
35733W        W 3951   4.214  43.933   4.571
35734W        W 3952  10.710   3.635   4.666
35735W        W 3953  12.276  37.885   0.763
35736W        W 3954  15.746  28.798   3.597
35737W        W 3955  24.143   1.885  10.053
35738W        W 3956  15.707   9.618  12.092
35739W        W 3957   1.990  31.082   3.856
35740W        W 3958  35.207  22.063   4.557
35741W        W 3959   3.507   3.312   3.858
35742W        W 3960  18.298  24.659  14.688
35743W        W 3961  29.456  22.921   1.232
35744W        W 3962  11.665  30.701  12.318
35745W        W 3963  28.371   4.786   1.841
35746W        W 3964  18.200  15.825   0.313
35747W        W 3965  23.848  14.490   4.179
35748W        W 3966  44.307  27.604   2.336
35749W        W 3967  30.942  13.637   4.891
35750W        W 3968  13.155  20.066   3.224
35751W        W 3969  40.460  29.382   3.917
35752W        W 3970  29.245  20.098  10.915
35753W        W 3971  44.266  11.158  11.640
35754W        W 3972   1.812   6.393   4.554
35755W        W 3973  17.408  37.895   3.331
35756W        W 3974   3.651  18.503   5.054
35757W        W 3975  24.735  38.935   3.626
35758W        W 3976   0.841  12.386   0.027
35759W        W 3977  20.140  39.504  12.310
35760W        W 3978  43.278   4.407  11.983
35761W        W 3979  34.768  39.459   3.443
35762W        W 3980  35.924  21.746  12.602
35763W        W 3981  29.603  26.990  14.430
35764W        W 3982  24.423  11.149   3.629
35765W        W 3983  38.571  16.764   3.684
35766W        W 3984  25.974  16.360  12.930
35767W        W 3985  24.835  13.687   1.807
35768W        W 3986  29.999  41.508  11.121
35769W        W 3987  41.423  25.664   4.078
35770W        W 3988  23.588   3.962   3.660
35771W        W 3989  35.508  29.717   1.351
35772W        W 3990  25.593  20.792  10.517
35773W        W 3991  34.009   9.898   3.223
35774W        W 3992  25.301  11.334   4.186
35775W        W 3993  44.717  41.437   2.051
35776W        W 3994  44.500  18.851  10.770
35777W        W 3995  29.063  18.886   2.292
35778W        W 3996  38.563  41.956   3.685
35779W        W 3997  43.910  29.673  10.952
35780W        W 3998  27.454  42.953  11.871
35781W        W 3999  15.812  32.640   1.377
35782W        W 4000  44.305   9.756   2.750
35783W        W 4001  18.306  27.447   2.542
35784W        W 4002  32.929   0.626   2.559
35785W        W 4003   9.747  29.658  13.119
35786W        W 4004  38.493  24.543   3.254
35787W        W 4005  20.404   5.239  11.879
35788W        W 4006   0.818   3.365   4.638
35789W        W 4007  17.117  35.908  12.611
35790W        W 4008  13.745  33.828  11.145
35791W        W 4009  28.403  10.322  12.545
35792W        W 4010  30.442  23.249   2.698
35793W        W 4011  25.294  18.844   4.234
35794W        W 4012  43.485   0.230   3.790
35795W        W 4013  17.381  11.706  10.178
35796W        W 4014   4.068  26.972   9.901
35797W        W 4015  25.658   0.672   2.753
35798W        W 4016  37.790  22.915  13.755
35799W        W 4017  10.934  29.911   3.746
35800W        W 4018  25.669  25.883  13.366
35801W        W 4019  15.666  26.074  11.223
35802W        W 4020   6.130  33.425  14.318
35803W        W 4021  24.916  25.464   2.706
35804W        W 4022   8.224  24.535  11.525
35805W        W 4023  33.704   4.695  10.704
35806W        W 4024  12.117  31.232  13.533
35807W        W 4025  29.652  13.816   3.205
35808W        W 4026  25.279  17.782   2.888
35809W        W 4027  44.342  35.515   4.778
35810W        W 4028  25.048  35.501  14.219
35811W        W 4029  37.411  37.372  14.307
35812W        W 4030  31.839  26.967   3.533
35813W        W 4031  43.433  17.361   9.701
35814W        W 4032  43.328  24.012  10.840
35815W        W 4033  16.314  25.764  11.571
35816W        W 4034   1.462  39.593  11.554
35817W        W 4035  29.587  23.684   3.688
35818W        W 4036   3.414   2.047   5.065
35819W        W 4037  10.239   2.915   0.174
35820W        W 4038  32.021  34.652  14.669
35821W        W 4039  40.344  15.716  12.897
35822W        W 4040   3.343  41.004  10.597
35823W        W 4041   6.759  43.579   1.070
35824W        W 4042  13.233  13.829   3.355
35825W        W 4043  10.667  12.667   2.282
35826W        W 4044  39.724   2.763   1.845
35827W        W 4045  16.635  17.190  13.503
35828W        W 4046  16.111  32.106   4.607
35829W        W 4047  38.880   4.747  12.323
35830W        W 4048  22.061  44.760   3.159
35831W        W 4049  36.415  27.335  11.382
35832W        W 4050  32.648   6.982  14.555
35833W        W 4051   9.376   1.643  11.520
35834W        W 4052  30.526  13.593   4.549
35835W        W 4053  33.974  44.711  11.562
35836W        W 4054  21.085  22.374   1.077
35837W        W 4055  29.510   6.388   1.562
35838W        W 4056  14.116  37.393   3.641
35839W        W 4057  32.063  42.373  12.512
35840W        W 4058  23.058  32.903  14.297
35841W        W 4059   0.008  14.153   0.243
35842W        W 4060   2.277  14.571   0.537
35843W        W 4061  28.480  12.066  10.652
35844W        W 4062   2.745  22.206   4.780
35845W        W 4063   0.473  37.614   1.828
35846W        W 4064  23.710   7.187   2.817
35847W        W 4065  32.050  19.057  11.952
35848W        W 4066   0.742  33.933   0.425
35849W        W 4067  26.169  10.921  14.343
35850W        W 4068   4.515  12.755   0.381
35851W        W 4069  28.458   6.692   3.206
35852W        W 4070   7.713  38.497  11.009
35853W        W 4071  39.037   6.852  11.517
35854W        W 4072  33.046  34.332  12.981
35855W        W 4073  40.854  30.517  14.949
35856W        W 4074  13.803   3.779   2.799
35857W        W 4075  19.202  11.230  14.477
35858W        W 4076  26.857  33.715  14.443
35859W        W 4077  37.984  12.943  13.484
35860W        W 4078  27.450  19.367  14.424
35861W        W 4079  33.757   9.090  14.818
35862W        W 4080  24.287  39.932   3.143
35863W        W 4081   6.839  22.486   1.375
35864W        W 4082   2.625  17.519  13.000
35865W        W 4083  24.483   4.301  11.546
35866W        W 4084  15.667  26.423   4.042
35867W        W 4085   9.277  13.646   4.557
35868W        W 4086  27.502  15.936  11.602
35869W        W 4087   9.798  27.622   0.975
35870W        W 4088   8.400  37.117  11.505
35871W        W 4089  43.192   0.849   0.825
35872W        W 4090  12.862  31.993   3.645
35873W        W 4091  39.739  30.463  12.364
35874W        W 4092   0.747  18.571   2.363
35875W        W 4093  20.912   9.276   0.941
35876W        W 4094   7.209   7.865   2.668
35877W        W 4095  21.739  22.074   4.908
35878W        W 4096  24.120   5.460   2.325
35879W        W 4097  17.742   2.026  12.036
35880W        W 4098  36.375   0.390  11.559
35881W        W 4099  36.837  18.214   1.257
35882W        W 4100  40.839  44.284   4.181
35883W        W 4101  37.390  37.897  11.595
35884W        W 4102  12.816   4.328  10.711
35885W        W 4103   7.794  40.060  12.370
35886W        W 4104  14.342   1.000   0.028
35887W        W 4105  27.479  41.366   4.646
35888W        W 4106  20.082  20.585  14.736
35889W        W 4107   2.742   8.734   1.972
35890W        W 4108  22.703  24.139   4.105
35891W        W 4109  32.834  19.207  13.501
35892W        W 4110  22.972  17.093   1.279
35893W        W 4111   2.006  29.992   0.865
35894W        W 4112   4.942  37.428  13.815
35895W        W 4113  12.226  28.161  14.309
35896W        W 4114  12.860  42.007   0.874
35897W        W 4115   9.906  37.864  13.149
35898W        W 4116  11.870   7.918   4.084
35899W        W 4117  12.341  20.974  14.405
35900W        W 4118  26.773  12.991   0.220
35901W        W 4119  13.851  39.420   2.551
35902W        W 4120   7.055  15.352   4.475
35903W        W 4121  10.298  14.536   4.216
35904W        W 4122  14.181  42.013   0.390
35905W        W 4123  40.385  10.198   3.279
35906W        W 4124  28.472  27.995  10.995
35907W        W 4125  33.906  24.565   0.480
35908W        W 4126  35.010  12.001  14.499
35909W        W 4127  32.921  30.476   9.565
35910W        W 4128  43.762  44.938   0.063
35911W        W 4129  11.884  38.426  10.355
35912W        W 4130  24.344  23.307  11.981
35913W        W 4131  44.991  12.889  14.807
35914W        W 4132  40.620  33.689  11.306
35915W        W 4133   6.779  22.015   2.299
35916W        W 4134  19.109  16.104   1.479
35917W        W 4135  35.832   4.940   1.648
35918W        W 4136  27.179  41.413   2.255
35919W        W 4137  25.059  33.371  11.898
35920W        W 4138  29.923  10.742  13.131
35921W        W 4139  37.767  11.740   1.670
35922W        W 4140  32.980  23.505   1.693
35923W        W 4141  27.017  12.295  12.000
35924W        W 4142  33.065  40.651   2.627
35925W        W 4143   0.963  36.013   2.177
35926W        W 4144   6.943  32.133   4.615
35927W        W 4145  14.351  29.643  10.309
35928W        W 4146  34.566  11.135   4.489
35929W        W 4147  12.782  24.537  11.114
35930W        W 4148  17.042  15.723  14.341
35931W        W 4149   0.744  41.913   1.492
35932W        W 4150  29.218  22.246   9.826
35933W        W 4151  29.748   7.937   0.862
35934W        W 4152   8.586  39.460   4.890
35935W        W 4153   9.124   5.869   3.141
35936W        W 4154  41.700   2.575  14.048
35937W        W 4155  22.757  12.273   1.041
35938W        W 4156  26.748  37.313  10.707
35939W        W 4157  25.053  27.459   2.207
35940W        W 4158  31.611  26.575   4.605
35941W        W 4159  22.088  35.416   1.177
35942W        W 4160  21.049   3.687   3.691
35943W        W 4161  30.152  35.443  10.731
35944W        W 4162   4.389  39.392   2.251
35945W        W 4163  11.682  39.853   3.336
35946W        W 4164  37.963   5.281  14.425
35947W        W 4165  15.368  22.301   2.772
35948W        W 4166   5.363  11.580  14.540
35949W        W 4167  44.378  30.442  10.329
35950W        W 4168  28.882  22.726  11.170
35951W        W 4169  18.634  17.222   4.438
35952W        W 4170  42.764  18.272  13.286
35953W        W 4171  42.707  11.848   1.478
35954W        W 4172  12.866  14.603  12.034
35955W        W 4173  43.795   4.371   1.240
35956W        W 4174  39.507  37.627   3.644
35957W        W 4175  21.661  12.719   2.144
35958W        W 4176  18.739  37.647   2.750
35959W        W 4177  26.748  13.724  11.865
35960W        W 4178  22.132   7.392  10.676
35961W        W 4179  15.289  28.441   0.740
35962W        W 4180  12.209  44.888  14.386
35963W        W 4181  41.520  22.581  12.958
35964W        W 4182  31.337  12.043  12.436
35965W        W 4183   9.371  12.806   0.805
35966W        W 4184  27.821  21.891  12.973
35967W        W 4185  37.569  36.833   0.850
35968W        W 4186   7.963  43.285  13.373
35969W        W 4187  15.963  24.834  11.757
35970W        W 4188  43.976   6.055   0.076
35971W        W 4189  39.450   8.718   2.235
35972W        W 4190  12.658  13.165  11.858
35973W        W 4191  27.572  16.600  14.373
35974W        W 4192  43.798  18.721   4.493
35975W        W 4193  35.845  25.467   1.738
35976W        W 4194  14.320   1.935  13.468
35977W        W 4195  17.190  44.376   1.896
35978W        W 4196  19.688   3.197  12.588
35979W        W 4197  29.398   1.039  11.070
35980W        W 4198   2.827  12.289  14.491
35981W        W 4199  34.890  31.697   2.730
35982W        W 4200  33.869  31.510   3.670
35983W        W 4201  16.322  31.645   0.307
35984W        W 4202  39.749  44.028  13.430
35985W        W 4203  29.031   5.149  11.424
35986W        W 4204  20.203  11.774   4.949
35987W        W 4205  36.573  31.085   4.775
35988W        W 4206  30.469   0.851   1.092
35989W        W 4207  15.240   0.704  12.406
35990W        W 4208   2.225  10.324   2.870
35991W        W 4209  16.582   4.784  11.435
35992W        W 4210  42.255   9.635   0.390
35993W        W 4211  30.478  31.162   3.873
35994W        W 4212  26.179  33.172   4.193
35995W        W 4213  34.806   7.624  12.381
35996W        W 4214  18.387  37.613   2.330
35997W        W 4215  39.440  40.222   0.353
35998W        W 4216  25.110  21.816  14.867
35999W        W 4217  17.331  10.588  13.997
36000W        W 4218  14.119  37.290   2.138
36001W        W 4219   8.673   1.714   4.420
36002W        W 4220  11.707  25.518  13.155
36003W        W 4221   5.478   2.331   1.840
36004W        W 4222  32.803  38.403  12.960
36005W        W 4223  41.460  20.515  11.196
36006W        W 4224   1.790   5.368   4.596
36007W        W 4225   0.976  13.307   4.120
36008W        W 4226  23.757   0.047  13.028
36009W        W 4227  11.472   5.347  10.781
36010W        W 4228   1.462   8.365  10.459
36011W        W 4229  36.505   2.346  11.659
36012W        W 4230  42.077   5.779  13.885
36013W        W 4231  28.663   9.128   4.884
36014W        W 4232  17.125   6.947  14.884
36015W        W 4233   0.065  30.546   3.708
36016W        W 4234   6.424  12.633  12.894
36017W        W 4235  40.122  25.056  10.173
36018W        W 4236  24.989  30.460  13.302
36019W        W 4237  15.332  27.514   3.301
36020W        W 4238  30.561   3.750   3.876
36021W        W 4239   1.187  26.359  12.099
36022W        W 4240  35.550  13.057  12.911
36023W        W 4241   1.670  20.660  11.806
36024W        W 4242  39.802  32.335  12.969
36025W        W 4243  19.944  18.192  14.815
36026W        W 4244   7.903  18.585  11.841
36027W        W 4245  19.718  33.315  12.049
36028W        W 4246  34.080  40.073  12.946
36029W        W 4247   0.285  14.052  13.472
36030W        W 4248  27.039  35.347  11.354
36031W        W 4249  29.650  24.768  12.577
36032W        W 4250   0.891   5.755   3.293
36033W        W 4251  31.080  44.850   3.564
36034W        W 4252  18.572  24.209   3.738
36035W        W 4253  18.049  21.197   2.004
36036W        W 4254  17.564  41.961   0.840
36037W        W 4255  21.126   2.705  12.990
36038W        W 4256  24.065   4.144   3.634
36039W        W 4257  14.843  10.563  14.696
36040W        W 4258  34.368  42.887  11.091
36041W        W 4259   6.609  21.041   2.255
36042W        W 4260  23.056  23.101   1.244
36043W        W 4261  15.536   2.301   2.293
36044W        W 4262  36.827  23.077  13.386
36045W        W 4263  32.583  14.584  12.646
36046W        W 4264  42.189  28.734   0.313
36047W        W 4265  31.150  25.160  13.441
36048W        W 4266  36.954  44.781  14.335
36049W        W 4267   4.276  13.116   4.636
36050W        W 4268  12.019  35.137  13.946
36051W        W 4269   2.962  21.348  11.686
36052W        W 4270   6.296  12.598   4.185
36053W        W 4271   0.061  28.169   2.186
36054W        W 4272  39.881  32.246   2.210
36055W        W 4273  15.645   5.411   4.135
36056W        W 4274   6.319  41.159  11.675
36057W        W 4275  27.578   5.454  11.064
36058W        W 4276   6.551  10.274   2.028
36059W        W 4277  27.517  19.488   1.665
36060W        W 4278  13.469   9.260  12.646
36061W        W 4279   5.529  26.679   1.944
36062W        W 4280  23.799   0.508   2.172
36063W        W 4281  39.414  43.818   1.184
36064W        W 4282  33.434  42.905   1.667
36065W        W 4283  11.383   7.865  12.008
36066W        W 4284   5.997   5.792  12.104
36067W        W 4285   4.304   3.443   4.603
36068W        W 4286  33.863  31.855  10.879
36069W        W 4287  19.731  31.355   2.214
36070W        W 4288  16.150  34.434   2.367
36071W        W 4289  43.982  27.647   1.466
36072W        W 4290  14.855  22.967   0.407
36073W        W 4291   6.470  14.845   0.892
36074W        W 4292  13.148   6.635   0.739
36075W        W 4293  29.686  11.860  11.900
36076W        W 4294   8.951  41.082   0.789
36077W        W 4295  19.517  11.709   2.275
36078W        W 4296   6.220  17.116   0.769
36079W        W 4297  11.889  43.638  13.444
36080W        W 4298  17.267  15.672   4.696
36081W        W 4299  20.355  37.558   4.387
36082W        W 4300   7.297  36.363  11.124
36083W        W 4301  22.691  27.354   3.678
36084W        W 4302  41.413  33.079   3.424
36085W        W 4303  13.726  24.206  10.896
36086W        W 4304  37.597  42.869   4.645
36087W        W 4305  38.488  33.977   4.650
36088W        W 4306  25.631  37.354   0.172
36089W        W 4307  43.895  22.971   3.226
36090W        W 4308  16.782  43.941   3.551
36091W        W 4309  19.607  31.703  12.408
36092W        W 4310  21.329   6.434  14.437
36093W        W 4311  21.762  13.164   3.309
36094W        W 4312  28.061  23.479  14.374
36095W        W 4313   1.445  17.951   3.863
36096W        W 4314  17.623  12.738   1.662
36097W        W 4315  29.288  31.899   2.160
36098W        W 4316  37.991  16.912  11.598
36099W        W 4317  25.662  10.984   4.053
36100W        W 4318  15.589  38.469   4.089
36101W        W 4319   5.191  31.200   4.713
36102W        W 4320  19.657  17.207   5.328
36103W        W 4321  41.555  34.059   0.353
36104W        W 4322  44.298  11.504   0.775
36105W        W 4323  43.294  12.245  13.458
36106W        W 4324  25.108  41.851  13.333
36107W        W 4325  20.220   0.081   1.972
36108W        W 4326  17.976  26.665  11.710
36109W        W 4327  15.276  16.855  12.326
36110W        W 4328  44.495  41.986   4.277
36111W        W 4329  41.691  38.276   0.381
36112W        W 4330  26.450   3.507  11.597
36113W        W 4331  17.426  38.643  13.049
36114W        W 4332  15.702  35.409   1.655
36115W        W 4333  37.489   9.187   0.841
36116W        W 4334  35.953  34.639  10.751
36117W        W 4335  29.353  36.703   2.258
36118W        W 4336  22.908  29.107   3.257
36119W        W 4337   7.839   3.793   0.348
36120W        W 4338  33.980   5.519  13.006
36121W        W 4339  12.900  22.551  10.670
36122W        W 4340  33.034   9.487  14.569
36123W        W 4341  43.498  11.660  10.986
36124W        W 4342  21.562  25.062  11.102
36125W        W 4343  31.852  24.537   2.234
36126W        W 4344  27.692  16.839  13.032
36127W        W 4345  11.262  23.163  13.842
36128W        W 4346  30.941   2.050   0.743
36129W        W 4347  30.598  19.736  13.876
36130W        W 4348  35.488   2.938   0.950
36131W        W 4349  32.492  31.100  11.598
36132W        W 4350  29.622  42.304  11.171
36133W        W 4351  41.887  36.856  10.745
36134W        W 4352  11.598  10.720   2.012
36135W        W 4353   1.758   4.919   0.447
36136W        W 4354  21.146   8.199   1.865
36137W        W 4355  17.190   6.861  12.909
36138W        W 4356  16.594  42.891   1.590
36139W        W 4357  40.663  32.410  12.579
36140W        W 4358  19.874  21.467   1.887
36141W        W 4359  38.549   6.803  11.338
36142W        W 4360  35.917  42.845  10.992
36143W        W 4361  35.525   8.360   0.216
36144W        W 4362  21.117   1.718  12.889
36145W        W 4363  25.452   0.367  14.903
36146W        W 4364   4.460  44.068  11.525
36147W        W 4365   4.188  36.506  10.357
36148W        W 4366  11.825  39.110  13.022
36149W        W 4367  42.017   6.778  14.789
36150W        W 4368   2.535   7.491  12.506
36151W        W 4369  25.123  35.408   4.173
36152W        W 4370  18.746  33.952   1.126
36153W        W 4371  18.659  41.010  14.686
36154W        W 4372   7.793   5.293  12.106
36155W        W 4373  18.539  42.573   3.436
36156W        W 4374  15.446   0.808  13.137
36157W        W 4375   7.636   4.270   1.964
36158W        W 4376  34.660  18.720  13.465
36159W        W 4377  34.416  22.278  10.669
36160W        W 4378  41.746  13.625  12.546
36161W        W 4379  18.556   7.274   2.210
36162W        W 4380  13.415   8.203  14.449
36163W        W 4381   9.934  24.017   0.028
36164W        W 4382  41.569   2.991   3.244
36165W        W 4383  44.064  28.736   0.981
36166W        W 4384  40.299   7.750   2.397
36167W        W 4385  13.158  35.573   3.398
36168W        W 4386  34.418  43.436   2.335
36169W        W 4387  33.661  38.840  11.169
36170W        W 4388  27.827  43.329   4.733
36171W        W 4389   5.895   9.359   4.763
36172W        W 4390   8.440  43.459  13.465
36173W        W 4391  19.582  13.890   3.567
36174W        W 4392  42.474  43.776   4.275
36175W        W 4393  36.745  31.597   3.586
36176W        W 4394  39.813   4.141  13.791
36177W        W 4395  20.653  28.976   0.233
36178W        W 4396  26.135   8.332  12.370
36179W        W 4397  12.843  32.123   0.324
36180W        W 4398   3.282  14.330  12.466
36181W        W 4399  30.460  15.700   4.583
36182W        W 4400  28.132  42.360  11.983
36183W        W 4401  41.263  35.005   1.065
36184W        W 4402  33.014  24.223   1.860
36185W        W 4403  43.660  11.803   0.315
36186W        W 4404  36.363  28.080  11.041
36187W        W 4405   9.787  29.449   2.822
36188W        W 4406  23.528  25.360  14.467
36189W        W 4407  41.888   8.925  14.364
36190W        W 4408  11.835  33.043   1.770
36191W        W 4409  26.193  17.180  12.013
36192W        W 4410  30.200   3.410   3.631
36193W        W 4411   6.122   9.133  13.305
36194W        W 4412  18.945   4.281   0.698
36195W        W 4413  40.832  31.431   2.793
36196W        W 4414  33.461  12.905  14.603
36197W        W 4415  17.259  37.038  11.218
36198W        W 4416  36.093  30.204  10.488
36199W        W 4417   5.622  30.958  13.913
36200W        W 4418  12.931  12.851  11.144
36201W        W 4419  21.569  25.986  11.470
36202W        W 4420  11.205  38.589  11.518
36203W        W 4421   0.703  44.479   0.833
36204W        W 4422   7.195   1.426   2.592
36205W        W 4423  37.935   0.917  14.431
36206W        W 4424  31.071   0.655  11.066
36207W        W 4425  33.542  14.105  12.488
36208W        W 4426  37.468  40.066   3.378
36209W        W 4427  28.635  43.791  11.518
36210W        W 4428   2.573  35.725  11.255
36211W        W 4429  33.545   2.662   3.181
36212W        W 4430  31.894  33.685   4.582
36213W        W 4431  13.309  23.332  14.167
36214W        W 4432  28.228  20.581   3.223
36215W        W 4433  36.970  10.976  11.539
36216W        W 4434  34.989   8.581   2.875
36217W        W 4435  30.435  41.266  13.743
36218W        W 4436  34.026   9.114   0.403
36219W        W 4437  44.801  33.149   4.656
36220W        W 4438  37.387  31.762  12.884
36221W        W 4439  35.905  41.960  11.358
36222W        W 4440  11.893  22.247   3.203
36223W        W 4441   6.160  44.408   4.521
36224W        W 4442   9.278  10.259   3.873
36225W        W 4443   6.332  41.183   3.113
36226W        W 4444  32.097   5.737  14.321
36227W        W 4445   7.924  40.875  10.174
36228W        W 4446  12.162  38.023  11.950
36229W        W 4447  38.458  41.664   2.323
36230W        W 4448  37.998  24.295   0.805
36231W        W 4449  40.559   6.983  10.761
36232W        W 4450  38.002   5.453  11.560
36233W        W 4451  27.855  36.036  11.402
36234W        W 4452  15.607  14.264  13.362
36235W        W 4453  13.562  11.064  13.336
36236W        W 4454  15.152   8.542  11.089
36237W        W 4455   0.460  13.127  14.658
36238W        W 4456  20.125  43.305   2.264
36239W        W 4457  20.674  39.248  11.163
36240W        W 4458  35.643  26.994   2.802
36241W        W 4459   0.910   1.926  12.988
36242W        W 4460  22.304  43.564   3.744
36243W        W 4461  44.787  29.173   1.213
36244W        W 4462  43.466  27.903   0.266
36245W        W 4463  29.033  17.262  10.278
36246W        W 4464  29.662  44.079  10.686
36247W        W 4465  32.376  42.056  11.622
36248W        W 4466   8.641   4.735  11.146
36249W        W 4467   1.820  37.354  12.646
36250W        W 4468   4.873  15.287  14.383
36251W        W 4469  14.259   4.634  10.379
36252W        W 4470  20.523  38.855  10.174
36253W        W 4471   5.280   2.763   0.264
36254W        W 4472  26.551  23.254   3.678
36255W        W 4473  16.331  29.864  12.924
36256W        W 4474   7.174  20.966   5.198
36257W        W 4475  10.124  35.494   4.579
36258W        W 4476  25.776  30.713   1.003
36259W        W 4477  38.705  20.825  10.560
36260W        W 4478  18.723  11.162   2.747
36261W        W 4479  27.425   4.489   4.097
36262W        W 4480  16.163   9.564  11.042
36263W        W 4481  39.159  36.921  14.363
36264W        W 4482   0.258   6.907   2.277
36265W        W 4483  39.454   5.037  13.473
36266W        W 4484  17.867  39.494   0.960
36267W        W 4485  26.074  18.900   1.429
36268W        W 4486  29.613   2.996  12.007
36269W        W 4487   5.833  26.076  14.771
36270W        W 4488  10.188  35.135   4.963
36271W        W 4489  14.181  22.311  14.527
36272W        W 4490   0.014  42.266   1.178
36273W        W 4491  29.582  20.791  13.866
36274W        W 4492   9.235   9.729   1.624
36275W        W 4493  31.049   7.082  12.985
36276W        W 4494  12.820   0.744   2.241
36277W        W 4495  44.325  18.165   4.100
36278W        W 4496  41.293  34.361  14.743
36279W        W 4497  43.096  29.413  13.980
36280W        W 4498  19.035   5.513   1.646
36281W        W 4499  44.030  33.370  13.539
36282W        W 4500   2.712  44.500   2.622
36283W        W 4501  29.759  33.951  10.725
36284W        W 4502  44.850  17.025   3.696
36285W        W 4503  38.004  10.959   0.105
36286W        W 4504  42.223  23.678   1.704
36287W        W 4505   5.251  28.678   3.258
36288W        W 4506   3.994  28.549   4.154
36289W        W 4507  38.965  20.616  11.120
36290W        W 4508  37.491  10.933  13.432
36291W        W 4509   7.169   9.492   3.140
36292W        W 4510   6.377   3.323  13.026
36293W        W 4511  38.465  16.138   0.076
36294W        W 4512  40.784  13.319   2.355
36295W        W 4513  35.894  11.599  11.149
36296W        W 4514   7.113  35.434   0.666
36297W        W 4515   9.840  39.946   1.252
36298W        W 4516  23.324  11.719   1.698
36299W        W 4517  12.286  17.626  14.356
36300W        W 4518  41.388  31.215   4.590
36301W        W 4519   0.995  36.401   0.002
36302W        W 4520   9.752  33.025   1.776
36303W        W 4521  22.773   5.769  10.681
36304W        W 4522  21.723  19.523   5.029
36305W        W 4523  32.424   1.867   0.953
36306W        W 4524  23.591   7.793   3.416
36307W        W 4525  39.111   4.243   1.320
36308W        W 4526  38.736  44.852  14.979
36309W        W 4527  31.583  40.477  13.743
36310W        W 4528  19.641  43.540   2.683
36311W        W 4529  34.879  21.037   0.129
36312W        W 4530  12.772   8.947   4.573
36313W        W 4531   6.628  25.233   3.372
36314W        W 4532  17.126   4.889  12.057
36315W        W 4533  43.090  18.218   3.691
36316W        W 4534   2.464  17.263  11.176
36317W        W 4535  41.108  16.640  14.916
36318W        W 4536  29.924   8.353  12.076
36319W        W 4537  26.476  17.898   1.312
36320W        W 4538   7.597  29.617  14.564
36321W        W 4539  19.038   7.117   0.031
36322W        W 4540  24.217   4.866  10.344
36323W        W 4541   2.500  25.951  11.172
36324W        W 4542  44.815  42.944  10.604
36325W        W 4543  30.507   2.938  12.126
36326W        W 4544  13.129  21.721  13.350
36327W        W 4545  24.078  34.905  14.932
36328W        W 4546  34.947  27.864   3.529
36329W        W 4547  40.961   4.238   1.309
36330W        W 4548  26.717  24.465  14.756
36331W        W 4549  23.738  27.251   3.755
36332W        W 4550  22.519  24.607   4.309
36333W        W 4551  40.524  12.815  13.878
36334W        W 4552  18.008  40.840  12.820
36335W        W 4553   4.374  20.544  14.467
36336W        W 4554  43.257  18.238  10.684
36337W        W 4555  28.278  39.404  14.762
36338W        W 4556  42.972   6.678   3.188
36339W        W 4557   3.420  42.972   2.164
36340W        W 4558  39.842  27.225  14.920
36341W        W 4559  34.575  21.846  13.993
36342W        W 4560  12.208  21.596   4.565
36343W        W 4561  41.497  42.752   2.701
36344W        W 4562  26.567   0.278  11.912
36345W        W 4563   5.302  17.916   0.282
36346W        W 4564  21.251  13.780  13.001
36347W        W 4565   6.221  14.236  11.233
36348W        W 4566  10.843  24.870   4.346
36349W        W 4567   7.345  12.835   1.495
36350W        W 4568  17.511  28.224   2.748
36351W        W 4569  14.234  31.493  13.390
36352W        W 4570  37.530  17.224   1.703
36353W        W 4571  40.126   4.804   2.600
36354W        W 4572  42.976  40.445   0.483
36355W        W 4573   2.426  13.374   2.638
36356W        W 4574  13.161  29.186  13.513
36357W        W 4575   8.247  11.973   4.190
36358W        W 4576  36.430  19.139  12.008
36359W        W 4577   9.895   3.694  11.022
36360W        W 4578  16.312  19.750   1.669
36361W        W 4579  39.920  35.592   1.662
36362W        W 4580  30.862   9.908   2.846
36363W        W 4581   1.131  18.612   0.479
36364W        W 4582  38.402   2.644   2.317
36365W        W 4583   3.681  28.972   1.737
36366W        W 4584  27.932   9.173   2.249
36367W        W 4585   0.414  10.239   1.330
36368W        W 4586   6.279   8.026   1.802
36369W        W 4587   0.232  30.489   1.806
36370W        W 4588  43.033  39.557   0.921
36371W        W 4589  41.643  42.733  11.557
36372W        W 4590  35.388  34.608  10.935
36373W        W 4591  38.878   1.706  10.953
36374W        W 4592  38.998  23.288   1.704
36375W        W 4593  13.784  32.131   0.333
36376W        W 4594  29.193  39.903  12.070
36377W        W 4595   6.433  30.667   4.260
36378W        W 4596  37.951  32.638  14.413
36379W        W 4597  21.341  18.407   3.564
36380W        W 4598  27.507  28.451  14.300
36381W        W 4599  21.012  10.728  13.562
36382W        W 4600  23.044  12.702  12.005
36383W        W 4601   4.980  39.556   3.644
36384W        W 4602  17.363  42.262  11.852
36385W        W 4603  34.919  30.353  11.644
36386W        W 4604  26.979  24.007  14.902
36387W        W 4605  35.549   5.813  12.353
36388W        W 4606   5.480   9.258   3.748
36389W        W 4607  17.821  39.976  11.156
36390W        W 4608  32.022  27.974  13.555
36391W        W 4609  16.653  16.843   2.219
36392W        W 4610  40.618   0.597   1.807
36393W        W 4611  11.611  37.955  10.753
36394W        W 4612  40.738   7.727   5.105
36395W        W 4613  37.834  37.090  11.096
36396W        W 4614   7.439  20.371  14.834
36397W        W 4615  31.107  15.173   0.779
36398W        W 4616   1.751  43.258  14.268
36399W        W 4617   0.531  24.076   2.326
36400W        W 4618  20.753  35.865   3.214
36401W        W 4619  40.963   8.200   2.691
36402W        W 4620  16.782  26.895   2.265
36403W        W 4621   9.615  43.821  11.517
36404W        W 4622  36.332  41.538  13.956
36405W        W 4623  41.772  32.918   0.954
36406W        W 4624  43.715   6.218  12.010
36407W        W 4625  14.048   7.013   0.776
36408W        W 4626   0.269  38.460   0.448
36409W        W 4627  17.674  21.313  13.099
36410W        W 4628  19.556  36.303   5.326
36411W        W 4629  32.794  35.001  14.684
36412W        W 4630  17.825   0.513  13.357
36413W        W 4631  38.925  42.586   0.934
36414W        W 4632  35.096  37.024   3.915
36415W        W 4633  36.214   8.788  12.944
36416W        W 4634   0.508  31.177   3.357
36417W        W 4635   5.591  22.553   0.978
36418W        W 4636   4.420   1.490   4.795
36419W        W 4637   1.810  21.022   2.320
36420W        W 4638   4.394  19.249  10.669
36421W        W 4639  18.529  42.316  14.199
36422W        W 4640  23.117  23.474  14.932
36423W        W 4641  37.901  41.244  13.504
36424W        W 4642  19.451   4.930  11.834
36425W        W 4643  22.667   8.488  11.185
36426W        W 4644   4.141   8.817  11.680
36427W        W 4645  37.813  37.399   1.377
36428W        W 4646   6.336   3.132   0.953
36429W        W 4647  44.298  37.846  10.515
36430W        W 4648  22.209  27.139  12.872
36431W        W 4649  25.221   8.327   4.530
36432W        W 4650   8.183  10.196   4.677
36433W        W 4651   7.999  31.934  12.418
36434W        W 4652  10.910  11.363   0.635
36435W        W 4653  11.489  42.862  11.969
36436W        W 4654  11.272   9.118   0.861
36437W        W 4655  32.632  23.846   1.859
36438W        W 4656  10.082  32.346  14.523
36439W        W 4657  28.073  34.370  11.941
36440W        W 4658  18.580   8.622  10.658
36441W        W 4659  44.620  33.979  10.869
36442W        W 4660  19.288  17.546   4.014
36443W        W 4661  43.337  10.905   0.667
36444W        W 4662  16.698  22.580  12.291
36445W        W 4663   4.937  37.959   4.185
36446W        W 4664   4.476  44.898  10.754
36447W        W 4665  37.837   4.797  12.286
36448W        W 4666  22.740   8.747  13.797
36449W        W 4667  28.494  26.814   1.787
36450W        W 4668  16.682   4.282   3.621
36451W        W 4669  39.745  34.537  11.040
36452W        W 4670  23.594  42.770   1.334
36453W        W 4671   2.327  32.547   3.231
36454W        W 4672  10.818  32.354  12.591
36455W        W 4673  31.215   0.096  14.992
36456W        W 4674  14.670  16.557  14.498
36457W        W 4675   8.805   6.970   2.777
36458W        W 4676   7.497  10.193  12.563
36459W        W 4677  36.096  34.505   0.078
36460W        W 4678  13.808   5.766  14.966
36461W        W 4679  38.462  21.560   0.567
36462W        W 4680  27.059  24.832   3.059
36463W        W 4681  16.085   0.005   3.706
36464W        W 4682   4.869  16.697  10.971
36465W        W 4683  27.722   0.555   4.584
36466W        W 4684  14.578  15.242   4.704
36467W        W 4685  19.074  14.487  14.984
36468W        W 4686   8.963  44.503   3.283
36469W        W 4687  41.424  12.057   3.073
36470W        W 4688  17.258  37.441   1.798
36471W        W 4689  14.821   9.939  13.310
36472W        W 4690  41.238  15.666  11.072
36473W        W 4691  39.338  42.410  13.288
36474W        W 4692  17.782  13.184   2.901
36475W        W 4693  25.523  43.772  12.246
36476W        W 4694   9.316  44.314  10.262
36477W        W 4695  29.030  22.684   3.324
36478W        W 4696  36.837  35.120  11.929
36479W        W 4697  44.450  20.586   2.829
36480W        W 4698  35.616   7.939  13.056
36481W        W 4699  39.782   0.044  11.641
36482W        W 4700   1.704  26.465  11.045
36483W        W 4701  37.388  26.546   3.286
36484W        W 4702  27.382  18.651  13.029
36485W        W 4703   4.866  21.982   2.823
36486W        W 4704  31.640  39.369   1.797
36487W        W 4705  15.368  38.942  13.525
36488W        W 4706  19.215  16.608  12.928
36489W        W 4707  25.166   8.206   3.233
36490W        W 4708  10.369  34.461  11.745
36491W        W 4709   3.407  22.411  10.599
36492W        W 4710  20.525  23.465   3.940
36493W        W 4711  34.442  15.676   3.586
36494W        W 4712  22.394  31.527   3.096
36495W        W 4713  12.314  41.569   0.884
36496W        W 4714  26.173  28.611  12.001
36497W        W 4715  19.963  43.233   3.136
36498W        W 4716  37.557   5.844  14.167
36499W        W 4717  18.942  14.736  13.370
36500W        W 4718  27.699  14.566  12.018
36501W        W 4719  11.375  11.027  14.028
36502W        W 4720  19.154  41.914  11.035
36503W        W 4721  20.802  10.087   1.876
36504W        W 4722   6.174   5.698   0.829
36505W        W 4723  16.795  29.769   2.408
36506W        W 4724   0.938  35.055   4.877
36507W        W 4725  30.554   5.395  13.559
36508W        W 4726  44.937   2.233   3.366
36509W        W 4727  42.719  25.549   5.065
36510W        W 4728  39.448   1.915   0.494
36511W        W 4729  27.867  28.852  14.360
36512W        W 4730  33.541  34.306  10.722
36513W        W 4731   5.385  22.299  11.996
36514W        W 4732  31.722  38.421   1.904
36515W        W 4733  42.451  17.346  11.402
36516W        W 4734   6.713  14.638   3.529
36517W        W 4735  41.007  25.061   2.955
36518W        W 4736  11.691   5.859  14.841
36519W        W 4737  13.193   3.341  12.442
36520W        W 4738  11.735  24.937   3.052
36521W        W 4739  10.499  40.890   2.768
36522W        W 4740  21.071  11.579   1.814
36523W        W 4741  16.009  15.026  12.987
36524W        W 4742  19.440  17.192   4.853
36525W        W 4743  41.952  22.960  10.453
36526W        W 4744  15.415  15.680   4.555
36527W        W 4745  44.736   9.309   3.326
36528W        W 4746  30.728  13.240   3.211
36529W        W 4747   0.321  27.746   2.380
36530W        W 4748  29.471  36.500   0.068
36531W        W 4749  44.386  15.295  13.972
36532W        W 4750  43.197  11.095  12.591
36533W        W 4751  40.976  21.569  13.474
36534W        W 4752  15.254  30.551   2.921
36535W        W 4753   0.399  21.016  11.826
36536W        W 4754  17.665  33.037  10.527
36537W        W 4755  42.228  44.415  12.416
36538W        W 4756  29.544  39.529  12.540
36539W        W 4757  42.828  15.528   4.159
36540W        W 4758  40.818   9.684  11.747
36541W        W 4759  22.126  26.601   3.835
36542W        W 4760  23.989   8.284   3.876
36543W        W 4761  36.407  23.236  10.655
36544W        W 4762  26.070  43.349  11.116
36545W        W 4763  26.484  31.024   1.616
36546W        W 4764  42.770  38.071  12.546
36547W        W 4765  35.119  22.329   3.030
36548W        W 4766   4.501   7.915  14.354
36549W        W 4767   5.526  34.881   2.316
36550W        W 4768  32.992   9.062   3.056
36551W        W 4769  39.606  26.647   2.808
36552W        W 4770  39.634  10.216  12.983
36553W        W 4771  31.687  39.501  14.542
36554W        W 4772  29.676   0.355  12.937
36555W        W 4773   7.773  15.346  11.754
36556W        W 4774  41.350   1.024  11.600
36557W        W 4775  28.999  16.886  14.374
36558W        W 4776  30.195  39.521   1.901
36559W        W 4777   8.416  44.790   1.992
36560W        W 4778  16.407   0.410  11.068
36561W        W 4779  44.840  16.342  10.696
36562W        W 4780  21.505  12.535  13.132
36563W        W 4781  27.044  34.285  11.185
36564W        W 4782  14.277  26.753   1.006
36565W        W 4783  26.414   5.416   0.302
36566W        W 4784   8.790  34.041  12.890
36567W        W 4785  29.702  10.370  12.818
36568W        W 4786   8.959  13.285   3.280
36569W        W 4787  44.829   7.769  14.124
36570W        W 4788  22.681  22.200  11.577
36571W        W 4789  29.880  13.709  12.935
36572W        W 4790  11.559  12.125  12.476
36573W        W 4791  36.120  10.783   4.954
36574W        W 4792  42.202  12.918  14.337
36575W        W 4793  11.897  37.259  14.494
36576W        W 4794  16.976   3.310  10.658
36577W        W 4795   3.382   3.457  13.964
36578W        W 4796   3.445  16.186   3.726
36579W        W 4797   5.037   2.010  14.422
36580W        W 4798   7.296  14.069   4.115
36581W        W 4799  41.889   8.256   3.574
36582W        W 4800   4.628  21.151   3.157
36583W        W 4801   2.484  44.442   4.265
36584W        W 4802  24.709  13.851  11.987
36585W        W 4803  12.933   9.444   0.906
36586W        W 4804   2.307  23.128  12.616
36587W        W 4805  18.792  20.595   0.857
36588W        W 4806  15.856  16.846  10.596
36589W        W 4807  21.573  38.121  13.427
36590W        W 4808  14.273  27.721  10.581
36591W        W 4809  29.583   3.401  11.104
36592W        W 4810  35.135  42.089   4.067
36593W        W 4811  36.906   6.733  10.910
36594W        W 4812   7.888  42.440  14.289
36595W        W 4813   5.851  33.387  10.760
36596W        W 4814   7.695  37.862   2.847
36597W        W 4815  34.889  11.127   3.628
36598W        W 4816  35.394   2.730  11.678
36599W        W 4817  32.876   0.889  14.685
36600W        W 4818  14.343  17.700  12.086
36601W        W 4819  29.695  37.798  13.916
36602W        W 4820  14.422  12.789   1.284
36603W        W 4821  34.017  23.013   4.576
36604W        W 4822  44.288  35.455   1.142
36605W        W 4823  44.147   1.739  14.528
36606W        W 4824  13.658   3.176  13.893
36607W        W 4825  31.627   9.688  12.468
36608W        W 4826  43.549   3.468  10.882
36609W        W 4827  18.363  14.193  14.081
36610W        W 4828  31.394   8.092  12.177
36611W        W 4829  29.921  41.266   0.743
36612W        W 4830  32.382   8.386   4.001
36613W        W 4831  15.167  27.542  10.879
36614W        W 4832  23.078  11.024  14.362
36615W        W 4833  34.908   9.454   3.129
36616W        W 4834   2.617   6.121   2.781
36617W        W 4835  43.304  42.588   4.805
36618W        W 4836   9.390   5.810   4.026
36619W        W 4837   2.870  25.461   4.203
36620W        W 4838  39.036  25.976   1.925
36621W        W 4839  27.707  31.752  10.156
36622W        W 4840  22.321  27.668   2.931
36623W        W 4841   7.580   8.523   3.202
36624W        W 4842  31.057  19.618  12.958
36625W        W 4843  35.044  26.343   1.640
36626W        W 4844  15.526  24.785  13.061
36627W        W 4845  23.911  42.997  12.085
36628W        W 4846  38.144  37.884   0.362
36629W        W 4847   4.048   1.825   5.053
36630W        W 4848  17.181  28.217  13.246
36631W        W 4849  20.198   5.278   1.865
36632W        W 4850  36.832  30.443   1.645
36633W        W 4851  34.359  15.789  11.660
36634W        W 4852  18.271  21.215   0.999
36635W        W 4853  12.542  40.399  12.061
36636W        W 4854  14.371  16.386  14.068
36637W        W 4855  27.497   5.738   2.326
36638W        W 4856  19.053  40.891  14.355
36639W        W 4857  21.694  23.928   2.222
36640W        W 4858  43.538  14.143   1.101
36641W        W 4859  38.386  24.636  12.652
36642W        W 4860  33.122  10.104   4.579
36643W        W 4861  35.282  33.196  14.449
36644W        W 4862  33.868  34.047  13.870
36645W        W 4863  39.206  28.051  13.414
36646W        W 4864  43.747  22.526   2.668
36647W        W 4865   6.382  27.906  10.589
36648W        W 4866  36.018  18.946   5.062
36649W        W 4867  24.065  29.068   4.589
36650W        W 4868   4.839  23.619  10.252
36651W        W 4869  20.205  16.357   2.250
36652W        W 4870   6.793  40.982   3.639
36653W        W 4871  38.852  31.056   1.978
36654W        W 4872   8.362   8.495  14.309
36655W        W 4873  28.030  33.632  10.816
36656W        W 4874  26.782  43.317   3.668
36657W        W 4875  38.070   0.946   1.692
36658W        W 4876  21.283  29.663   4.781
36659W        W 4877  26.992  28.163  14.966
36660W        W 4878   5.443  13.551   1.483
36661W        W 4879  17.669  36.035  14.566
36662W        W 4880   1.255   1.586  10.451
36663W        W 4881  26.733  20.115   4.201
36664W        W 4882  21.821   6.694   2.757
36665W        W 4883  29.512   7.443  14.510
36666W        W 4884   9.295  40.924   3.670
36667W        W 4885  40.746  10.869  12.175
36668W        W 4886  30.487  15.739  12.542
36669W        W 4887  13.275   5.001  10.581
36670W        W 4888  36.476  42.971   2.797
36671W        W 4889  35.092  24.057  14.014
36672W        W 4890  27.953  26.881   1.831
36673W        W 4891   5.904   4.951   0.031
36674W        W 4892  13.432  27.562  11.283
36675W        W 4893  36.458   8.775  13.405
36676W        W 4894  39.075  44.537  11.596
36677W        W 4895  36.967  23.468   0.479
36678W        W 4896  33.142  36.026   4.512
36679W        W 4897  10.655  20.570   4.370
36680W        W 4898   6.779  17.927  11.962
36681W        W 4899   2.772  40.410  12.322
36682W        W 4900  14.873  22.690   4.615
36683W        W 4901  43.705  27.904  13.706
36684W        W 4902  28.460  11.471  11.504
36685W        W 4903  36.070  40.459  10.893
36686W        W 4904  10.822  29.561   0.056
36687W        W 4905  28.495   3.790   4.257
36688W        W 4906  23.899  37.355   3.786
36689W        W 4907   6.212  36.547   0.430
36690W        W 4908  18.105  11.385  12.932
36691W        W 4909  39.786  22.692   4.165
36692W        W 4910  20.823  25.731  14.740
36693W        W 4911   8.224  31.509   4.831
36694W        W 4912  34.085  13.538  11.938
36695W        W 4913  29.125  21.544  12.947
36696W        W 4914   4.212  17.026  11.206
36697W        W 4915  23.161  22.423   1.690
36698W        W 4916   1.786  39.061  14.255
36699W        W 4917  18.152  12.823   2.747
36700W        W 4918   4.933  27.692   0.799
36701W        W 4919  26.793  10.255  11.574
36702W        W 4920  17.334  37.227  10.327
36703W        W 4921  17.325   6.816   0.335
36704W        W 4922  19.236  31.367   0.726
36705W        W 4923  42.052  20.886   2.261
36706W        W 4924  40.587  19.619  14.644
36707W        W 4925   2.006  25.658  11.620
36708W        W 4926  41.819  41.647  14.399
36709W        W 4927  14.511   0.462  13.580
36710W        W 4928  23.275  40.531  14.769
36711W        W 4929  44.462  25.617  10.750
36712W        W 4930  44.109   1.702   2.989
36713W        W 4931  15.771   6.197  12.385
36714W        W 4932  37.298  21.247  13.043
36715W        W 4933   2.526  40.544  10.752
36716W        W 4934  32.208  27.881  12.426
36717W        W 4935  26.734   6.930   0.489
36718W        W 4936  40.583  24.957   0.374
36719W        W 4937  43.923  42.754   0.654
36720W        W 4938  30.235  13.304  13.612
36721W        W 4939  34.642  28.075   3.900
36722W        W 4940  38.003   7.111   4.104
36723W        W 4941   4.397   3.968   3.342
36724W        W 4942  41.871  33.568   3.545
36725W        W 4943  33.495   2.131   0.364
36726W        W 4944  28.159  39.521  12.467
36727W        W 4945  21.094  28.191   2.219
36728W        W 4946  40.887  34.168  11.917
36729W        W 4947  25.195   8.808   3.761
36730W        W 4948   4.409  17.341   0.398
36731W        W 4949  19.595  16.715   2.752
36732W        W 4950  36.470  39.006   2.366
36733W        W 4951  38.816  34.487   3.197
36734W        W 4952  15.206  19.989  12.066
36735W        W 4953   3.775  17.474  14.235
36736W        W 4954  22.524  29.799   0.755
36737W        W 4955  31.176  30.978  13.926
36738W        W 4956  21.771  28.630   3.251
36739W        W 4957  23.526  14.295   1.714
36740W        W 4958  11.910  10.756  13.153
36741W        W 4959  34.087  35.401  14.093
36742W        W 4960  36.832  21.200   0.317
36743W        W 4961  25.142   2.607   1.302
36744W        W 4962  21.579   3.951  12.145
36745W        W 4963  26.994  32.386  13.444
36746W        W 4964  14.420  37.642  11.346
36747W        W 4965  27.046  17.735   0.710
36748W        W 4966  44.380  30.162  12.470
36749W        W 4967  25.942  26.988  13.933
36750W        W 4968  13.263  42.744  11.444
36751W        W 4969  31.551  30.144   2.860
36752W        W 4970  13.867   0.162  12.841
36753W        W 4971  29.756  36.766  14.090
36754W        W 4972  36.334   1.491   1.761
36755W        W 4973  41.885  38.273   3.739
36756W        W 4974  31.348   4.919   4.137
36757W        W 4975   2.225  16.164   1.251
36758W        W 4976  28.560  42.077   0.877
36759W        W 4977  37.981   1.417   4.151
36760W        W 4978   8.360  11.108   3.910
36761W        W 4979   1.829   8.743   0.917
36762W        W 4980  30.041  36.802   2.307
36763W        W 4981  11.715  14.685   3.665
36764W        W 4982  28.734   6.040  14.985
36765W        W 4983  15.983  37.588   2.234
36766W        W 4984  33.926  39.289   3.264
36767W        W 4985  24.683  42.894  14.503
36768W        W 4986  29.992  38.003   3.680
36769W        W 4987  39.031  10.348   1.904
36770W        W 4988  20.823  38.076   2.396
36771W        W 4989   8.602  10.340  11.155
36772W        W 4990  15.027   5.504   4.365
36773W        W 4991   4.812  17.242  10.186
36774W        W 4992  12.047   9.907   0.861
36775W        W 4993  31.146   2.476   0.933
36776W        W 4994  20.045  37.556  11.947
36777W        W 4995  40.472  31.598  11.540
36778W        W 4996  17.994  34.679   1.929
36779W        W 4997  39.960  21.898  13.374
36780W        W 4998   8.701  18.354   1.846
36781W        W 4999  35.507  40.280  13.072
36782W        W 5000  29.681  31.438  14.538
36783W        W 5001   7.445   1.076  11.137
36784W        W 5002   6.206   3.360   3.652
36785W        W 5003  31.136  17.886  10.910
36786W        W 5004   7.307  43.556  14.905
36787W        W 5005  25.590  19.064  14.589
36788W        W 5006  22.213  20.317  12.464
36789W        W 5007  32.620  13.860   4.121
36790W        W 5008  41.398  25.930  12.329
36791W        W 5009  34.911  11.293  11.731
36792W        W 5010   2.523  37.876   1.186
36793W        W 5011  27.231  11.607  11.573
36794W        W 5012   5.328  41.858   2.154
36795W        W 5013  42.617  19.454   0.984
36796W        W 5014   9.827  31.383  14.981
36797W        W 5015  37.860  29.054   0.828
36798W        W 5016   3.363   8.168   1.332
36799W        W 5017  12.589  37.082   4.622
36800W        W 5018  18.994  11.825   3.328
36801W        W 5019   0.023  18.899  10.801
36802W        W 5020   7.269  28.620   2.608
36803W        W 5021  18.269  12.033   1.610
36804W        W 5022  42.803  44.794  13.979
36805W        W 5023   1.098   4.687  13.103
36806W        W 5024  29.448  18.953  11.500
36807W        W 5025   3.435  32.711   3.246
36808W        W 5026  32.066  40.979   4.225
36809W        W 5027  10.708   6.867  14.354
36810W        W 5028  17.626  23.685   2.785
36811W        W 5029  18.621  36.383   2.287
36812W        W 5030  23.164  14.994  12.897
36813W        W 5031  35.693  20.710   2.255
36814W        W 5032  11.813  29.124  13.660
36815W        W 5033  36.908   7.578  10.532
36816W        W 5034   3.588  21.890   1.854
36817W        W 5035  17.600  21.039  11.747
36818W        W 5036   4.148   8.134  12.574
36819W        W 5037  31.884  39.765  12.200
36820W        W 5038  33.117  33.846   0.481
36821W        W 5039  44.741  27.411  12.481
36822W        W 5040  33.447   0.143   4.715
36823W        W 5041  10.432  31.116   4.123
36824W        W 5042  16.661  10.619   2.688
36825W        W 5043  23.488   1.254   1.747
36826W        W 5044  16.677  16.540  12.429
36827W        W 5045  14.332  13.845  11.096
36828W        W 5046  21.624  30.961   2.746
36829W        W 5047  14.196  13.639   2.405
36830W        W 5048  42.724  23.089   2.205
36831W        W 5049   7.188  15.868   4.590
36832W        W 5050   9.260  22.556  14.314
36833W        W 5051  28.607  14.784   0.779
36834W        W 5052   6.446  18.422   0.302
36835W        W 5053   2.004   8.409   2.691
36836W        W 5054  24.762  10.288  10.732
36837W        W 5055  40.535  12.110  13.397
36838W        W 5056  14.155  16.368  11.793
36839W        W 5057   5.990   8.790  11.758
36840W        W 5058  37.641   5.886   2.644
36841W        W 5059  34.278  34.611   0.245
36842W        W 5060  30.567  34.493  13.067
36843W        W 5061   1.537   7.411   1.493
36844W        W 5062  40.102  43.004   2.443
36845W        W 5063  12.112  10.266  12.687
36846W        W 5064  19.109  36.375  14.328
36847W        W 5065  39.751  31.680  11.128
36848W        W 5066  18.496  14.381   3.467
36849W        W 5067  35.571  29.992  10.637
36850W        W 5068   6.829  29.160   3.689
36851W        W 5069  18.151  35.209   1.241
36852W        W 5070  21.556  33.924  13.521
36853W        W 5071  15.292   6.843   4.613
36854W        W 5072  20.503  22.291  12.075
36855W        W 5073  29.581  13.863  11.253
36856W        W 5074  16.679  30.226   3.271
36857W        W 5075  41.789  12.371  13.536
36858W        W 5076  31.306  25.540  12.016
36859W        W 5077  39.919  13.848  11.196
36860W        W 5078   0.007  11.723   3.733
36861W        W 5079  27.164  15.276   2.190
36862W        W 5080  12.053  33.013   9.894
36863W        W 5081  16.078  27.555   4.492
36864W        W 5082  25.531  43.910  11.750
36865W        W 5083  44.802   7.529   4.159
36866W        W 5084  19.089   7.828   0.309
36867W        W 5085   2.318  33.424  10.675
36868W        W 5086  27.056   6.966   4.432
36869W        W 5087  44.457   8.757   1.174
36870W        W 5088  44.420   2.718  11.590
36871W        W 5089  35.403  37.361   0.733
36872W        W 5090  38.334  31.477  11.661
36873W        W 5091  15.570   6.418  11.196
36874W        W 5092  34.518  35.476   4.590
36875W        W 5093  30.207  18.310  11.872
36876W        W 5094  42.211   9.719   1.699
36877W        W 5095  30.452  27.072  14.745
36878W        W 5096  38.479  43.340   4.718
36879W        W 5097  14.623  16.284  13.595
36880W        W 5098  10.673  17.902   4.701
36881W        W 5099  36.841   5.488   3.794
36882W        W 5100  11.070  11.263  14.386
36883W        W 5101  29.014  24.173   1.967
36884W        W 5102   7.739  27.481   0.928
36885W        W 5103  30.108  25.917  14.731
36886W        W 5104   0.371  19.740   3.210
36887W        W 5105  29.831  26.598   2.688
36888W        W 5106  24.267   5.253  12.072
36889W        W 5107   8.245  19.111   1.007
36890W        W 5108   1.966  28.392   0.575
36891W        W 5109  24.532  11.657  12.014
36892W        W 5110  32.966  37.263  10.726
36893W        W 5111  37.364  34.095  10.655
36894W        W 5112   0.575  21.116  10.629
36895W        W 5113  27.479  36.825  14.945
36896W        W 5114   4.877  33.549   1.082
36897W        W 5115  15.684  16.345   0.398
36898W        W 5116  24.784   6.313   0.110
36899W        W 5117  11.567  41.749   0.422
36900W        W 5118  10.600  43.931   1.367
36901W        W 5119  12.075  23.607  12.768
36902W        W 5120   9.333  37.624  13.472
36903W        W 5121   4.131   3.850   2.690
36904W        W 5122  43.299  19.043  13.076
36905W        W 5123  23.165  40.698   4.914
36906W        W 5124  33.965  17.828   1.206
36907W        W 5125  42.754   0.687  10.694
36908W        W 5126  11.642  29.938   2.252
36909W        W 5127   3.195   6.765   3.672
36910W        W 5128   4.163  29.135   1.637
36911W        W 5129  24.106   4.240  12.976
36912W        W 5130  42.098  19.074   3.262
36913W        W 5131  14.872  26.470   2.215
36914W        W 5132  41.405  21.207  13.586
36915W        W 5133  30.154  27.234   4.041
36916W        W 5134   1.725  27.531   4.176
36917W        W 5135  24.976  12.147   3.408
36918W        W 5136  36.536  24.996  10.367
36919W        W 5137  11.906  20.683   3.233
36920W        W 5138  42.807  31.655  11.599
36921W        W 5139  23.617  16.526   4.239
36922W        W 5140  14.940  16.102   9.695
36923W        W 5141  40.020  44.835   4.673
36924W        W 5142  13.058   6.463  11.555
36925W        W 5143  41.823  17.844  12.969
36926W        W 5144  15.655  10.209   4.988
36927W        W 5145  13.155  41.161   2.111
36928W        W 5146   3.261  41.788   4.114
36929W        W 5147  36.286  29.552  14.329
36930W        W 5148  32.787  33.394  13.472
36931W        W 5149  19.496  37.304  10.153
36932W        W 5150   5.391   9.890   0.341
36933W        W 5151  27.373  14.797   3.000
36934W        W 5152  25.041  28.456  13.919
36935W        W 5153  10.446  13.119   2.179
36936W        W 5154   4.805  13.344  12.292
36937W        W 5155  21.688  21.473  12.823
36938W        W 5156  14.706  42.230   4.852
36939W        W 5157  33.979  15.450  11.689
36940W        W 5158  42.037   2.470   1.770
36941W        W 5159  11.250   3.526  10.768
36942W        W 5160   7.129  21.098  12.585
36943W        W 5161  30.675  31.818  13.783
36944W        W 5162  31.003   3.799  12.897
36945W        W 5163  29.824  40.870   4.109
36946W        W 5164   4.354  31.933  10.399
36947W        W 5165  24.276   6.426   5.182
36948W        W 5166  13.532   1.224   2.815
36949W        W 5167  38.456  30.643   2.903
36950W        W 5168  19.331  20.416   2.710
36951W        W 5169   0.593  42.928   4.555
36952W        W 5170  12.886  34.001   0.863
36953W        W 5171  27.012   9.209  14.069
36954W        W 5172  15.312  39.102  14.459
36955W        W 5173  35.942  25.466   4.323
36956W        W 5174  13.362  36.018   4.147
36957W        W 5175  13.274   4.279   3.318
36958W        W 5176   7.700   2.287   4.543
36959W        W 5177   0.762   6.812  10.507
36960W        W 5178   6.232  11.392  12.627
36961W        W 5179   6.712   5.384   1.745
36962W        W 5180   4.202  25.648   1.877
36963W        W 5181  41.121  19.681  13.438
36964W        W 5182  10.664   8.780   3.838
36965W        W 5183  15.055  44.898  14.469
36966W        W 5184  40.000   3.554  12.872
36967W        W 5185  30.147   5.600  10.303
36968W        W 5186  22.236  34.538  13.406
36969W        W 5187   3.555  25.058  11.159
36970W        W 5188  34.168  37.549   0.213
36971W        W 5189  21.068  12.706  13.377
36972W        W 5190  39.035  36.201  12.933
36973W        W 5191  41.942  20.175  13.057
36974W        W 5192  24.230  27.958  10.923
36975W        W 5193  12.618  33.626  14.092
36976W        W 5194  21.295   0.340  12.889
36977W        W 5195   8.880  17.687  11.998
36978W        W 5196   3.807  18.517  11.575
36979W        W 5197   8.116  25.371   0.822
36980W        W 5198   6.800  18.733  14.492
36981W        W 5199  19.223  13.708  13.123
36982W        W 5200  13.533  19.289  12.114
36983W        W 5201   5.997   7.230  11.189
36984W        W 5202   1.499   7.426  11.136
36985W        W 5203   4.440  27.001   1.839
36986W        W 5204  11.144  12.808  11.520
36987W        W 5205  14.950  20.912   2.113
36988W        W 5206  22.611  25.128  14.848
36989W        W 5207  15.096  36.594   0.076
36990W        W 5208   2.377  31.299   2.606
36991W        W 5209  26.094   2.164  10.523
36992W        W 5210  21.114  29.091   0.435
36993W        W 5211  33.015  42.346   3.144
36994W        W 5212  28.670  15.643  12.098
36995W        W 5213  19.593   4.967   4.220
36996W        W 5214  14.507  32.223  13.114
36997W        W 5215  11.707  12.853   3.175
36998W        W 5216  17.992  35.775  10.320
36999W        W 5217  25.877  32.079   0.272
37000W        W 5218  38.877  11.818   0.449
37001W        W 5219  20.957  31.378  14.818
37002W        W 5220  40.267   2.422   3.891
37003W        W 5221  18.065   3.102   3.342
37004W        W 5222  29.177  40.083   4.010
37005W        W 5223  43.824  13.306  10.424
37006W        W 5224   2.975  18.628  13.706
37007W        W 5225  44.425  21.482   4.571
37008W        W 5226   2.788  26.109   0.719
37009W        W 5227  15.618  30.579  13.269
37010W        W 5228  30.452  19.989  14.348
37011W        W 5229   1.842  34.839   2.655
37012W        W 5230  37.133  11.623   2.366
37013W        W 5231  44.991  14.018   1.808
37014W        W 5232  34.521  21.779  14.920
37015W        W 5233   9.817  19.768   3.243
37016W        W 5234  20.479  40.314  11.906
37017W        W 5235  30.499  16.651  14.671
37018W        W 5236  27.101  14.523  12.413
37019W        W 5237  23.720  13.317  13.280
37020W        W 5238   1.442  38.074  10.599
37021W        W 5239  18.727  20.711  13.262
37022W        W 5240  43.996   9.325   2.859
37023W        W 5241  24.719  34.832   0.304
37024W        W 5242  33.645  32.238  13.436
37025W        W 5243   5.557  20.044  14.370
37026W        W 5244   7.821  34.778   0.304
37027W        W 5245  25.834   9.631   2.821
37028W        W 5246   7.151  43.275   1.956
37029W        W 5247  27.557  10.375   3.631
37030W        W 5248   4.933  33.401   2.715
37031W        W 5249  16.482   8.293   1.304
37032W        W 5250  26.753   4.755  14.553
37033W        W 5251  29.025  34.050  13.805
37034W        W 5252  12.834  44.007   3.640
37035W        W 5253   9.397  42.392   0.981
37036W        W 5254  40.408  30.727  13.303
37037W        W 5255   7.915  26.673  12.312
37038W        W 5256   5.754  26.368   2.295
37039W        W 5257  10.823   1.312  11.562
37040W        W 5258  44.530   0.964  11.100
37041W        W 5259   8.749   5.024   2.743
37042W        W 5260  18.224  43.364   0.676
37043W        W 5261  33.826  28.469   2.775
37044W        W 5262  20.621   2.865   0.513
37045W        W 5263  32.010  18.667   1.565
37046W        W 5264  13.301  27.991   3.722
37047W        W 5265  19.712  37.819   3.449
37048W        W 5266  33.235  29.686   4.920
37049W        W 5267  25.194  26.191   0.900
37050W        W 5268   9.073  14.525   3.648
37051W        W 5269  35.793  14.809  12.093
37052W        W 5270  10.962  29.020  12.891
37053W        W 5271  13.179  43.381  14.277
37054W        W 5272   0.286  34.635  13.930
37055W        W 5273  11.243  18.284   0.783
37056W        W 5274   3.858   3.927   4.076
37057W        W 5275  19.565   5.271  12.995
37058W        W 5276  27.143   7.600   2.804
37059W        W 5277  29.850  34.652   2.769
37060W        W 5278   2.268  31.468   2.137
37061W        W 5279  44.833  30.951   0.747
37062W        W 5280  43.765  17.184   1.349
37063W        W 5281  13.145  24.630  12.930
37064W        W 5282  21.008  32.910   0.436
37065W        W 5283   8.229  29.964   4.382
37066W        W 5284   6.989  28.712  13.046
37067W        W 5285  13.561  29.635   1.860
37068W        W 5286   4.775  19.610  14.275
37069W        W 5287   0.023  40.578  14.783
37070W        W 5288  38.952  15.293   4.764
37071W        W 5289  30.509   7.374   2.933
37072W        W 5290  39.512  30.101  13.072
37073W        W 5291  38.110  38.509  11.409
37074W        W 5292  28.697  42.412  12.076
37075W        W 5293   7.777  26.584   2.297
37076W        W 5294  11.967   2.406  13.582
37077W        W 5295  22.907   0.805   3.587
37078W        W 5296  17.056  21.254   0.238
37079W        W 5297   2.863  24.435   4.245
37080W        W 5298  42.018  18.780   0.516
37081W        W 5299  10.409  39.616  13.788
37082W        W 5300  22.035  30.855  12.986
37083W        W 5301   1.613   7.931  11.981
37084W        W 5302  20.339  42.325  14.461
37085W        W 5303  18.942  42.305   3.263
37086W        W 5304  41.363   9.076  12.012
37087W        W 5305  24.186  20.717  14.854
37088W        W 5306  28.213   2.705   3.625
37089W        W 5307  32.432  12.749  12.077
37090W        W 5308  31.595  18.550  13.466
37091W        W 5309  21.636  29.389  11.143
37092W        W 5310   4.724  31.686  14.738
37093W        W 5311   1.794  14.793   1.301
37094W        W 5312  33.360  44.353  14.148
37095W        W 5313  35.994  20.282   2.359
37096W        W 5314  29.970  38.514   4.587
37097W        W 5315  22.716  43.242   1.540
37098W        W 5316   4.021  24.877  14.444
37099W        W 5317  44.476  14.005  11.645
37100W        W 5318  23.393  26.990   3.283
37101W        W 5319  28.125   6.903  13.033
37102W        W 5320  24.201  14.974  13.591
37103W        W 5321  16.779   7.470  12.473
37104W        W 5322  37.574  43.531   3.088
37105W        W 5323  13.703   2.033  11.718
37106W        W 5324  22.290   2.215   4.522
37107W        W 5325  14.664   4.848   2.379
37108W        W 5326   4.261  26.880   3.690
37109W        W 5327  40.961  39.514  13.695
37110W        W 5328  13.303   4.424  11.816
37111W        W 5329  32.714   0.196   2.748
37112W        W 5330  26.947  29.086   0.943
37113W        W 5331  29.481  11.218   3.125
37114W        W 5332  39.601   8.213   2.241
37115W        W 5333  33.644  41.031  10.601
37116W        W 5334  42.690   3.374   4.822
37117W        W 5335   9.749   5.450  13.546
37118W        W 5336  31.658  43.221  14.773
37119W        W 5337  17.138   6.976   0.797
37120W        W 5338  24.098  44.033  13.428
37121W        W 5339  28.689  31.106   3.260
37122W        W 5340  17.832  22.735   2.694
37123W        W 5341  44.147  12.331   4.903
37124W        W 5342   6.946   3.173  14.408
37125W        W 5343  14.280   7.681  10.817
37126W        W 5344  21.269  26.182  14.595
37127W        W 5345  28.667  20.202  12.410
37128W        W 5346  21.124  35.619   4.934
37129W        W 5347  29.434  10.810  12.951
37130W        W 5348  42.417   8.633  12.190
37131W        W 5349  18.574  30.682   4.241
37132W        W 5350  41.826  42.836  13.775
37133W        W 5351  23.134  31.182   3.656
37134W        W 5352  25.543  39.686   1.687
37135W        W 5353  33.704  19.936  14.885
37136W        W 5354  29.493  32.367   4.778
37137W        W 5355  19.733   8.343   2.158
37138W        W 5356  25.486   3.245  14.135
37139W        W 5357  39.887  43.797   0.421
37140W        W 5358  10.776  19.806   3.116
37141W        W 5359  43.510   7.754  13.544
37142W        W 5360  31.191   6.653  11.138
37143W        W 5361  42.009  23.008   3.049
37144W        W 5362  10.331   7.085   0.196
37145W        W 5363  13.869  40.757  14.370
37146W        W 5364  15.662  13.301  12.696
37147W        W 5365  16.828   8.243  12.871
37148W        W 5366  11.677   6.674  12.432
37149W        W 5367  35.649   0.395   0.293
37150W        W 5368   2.179   7.186   9.661
37151W        W 5369  42.730  29.907  11.933
37152W        W 5370  35.855  30.156   4.366
37153W        W 5371  13.504  22.451  12.359
37154W        W 5372  15.771  26.771  10.608
37155W        W 5373  29.582  10.448   4.131
37156W        W 5374  26.941   4.947  13.591
37157W        W 5375  26.692  44.252   0.327
37158W        W 5376  42.821  24.384  12.614
37159W        W 5377  19.639  14.108  13.723
37160W        W 5378  22.225  30.109  12.322
37161W        W 5379  41.118  25.232   4.192
37162W        W 5380  10.096  27.913  13.411
37163W        W 5381  29.867  12.176  11.561
37164W        W 5382  39.786  27.229  11.634
37165W        W 5383  44.506   8.124   3.846
37166W        W 5384  43.308  33.917  11.998
37167W        W 5385  43.443   7.739  14.533
37168W        W 5386  31.470   4.561   1.648
37169W        W 5387  24.209  28.696   3.342
37170W        W 5388   9.811   1.710   2.758
37171W        W 5389  42.847  42.479   5.051
37172W        W 5390  12.592  29.399   0.737
37173W        W 5391  19.109  38.595   3.935
37174W        W 5392  31.552  40.105  12.394
37175W        W 5393  19.377  13.942   4.030
37176W        W 5394   2.904  11.330  12.655
37177W        W 5395  34.919  44.122   9.523
37178W        W 5396  19.082  40.908   4.251
37179W        W 5397  15.308   7.507  11.165
37180W        W 5398  10.300  41.883  14.732
37181W        W 5399  24.223  30.863  14.558
37182W        W 5400  36.778   2.950  14.542
37183W        W 5401  18.211  22.109   1.995
37184W        W 5402   8.269  33.518   2.259
37185W        W 5403  20.131  26.993   0.444
37186W        W 5404  15.263  18.456   4.563
37187W        W 5405   1.610  27.946   3.131
37188W        W 5406  36.606   2.714   0.794
37189W        W 5407   5.851  43.813   0.701
37190W        W 5408  18.001   8.643  14.957
37191W        W 5409   4.685  42.994  12.392
37192W        W 5410  30.809  26.680   5.012
37193W        W 5411  23.208   8.563  13.613
37194W        W 5412  28.910  44.790   3.217
37195W        W 5413   2.520  36.582   0.738
37196W        W 5414  31.996  21.961  13.277
37197W        W 5415   2.284   1.778   4.597
37198W        W 5416   6.640  21.446   1.255
37199W        W 5417  13.884  13.371   4.976
37200W        W 5418  40.851  42.353   3.680
37201W        W 5419  41.284  12.570  13.543
37202W        W 5420  32.560  30.609  11.380
37203W        W 5421  13.729  13.748   2.153
37204W        W 5422  24.725  27.622  14.846
37205W        W 5423  30.942  33.097  12.966
37206W        W 5424  14.746   4.020  12.462
37207W        W 5425  20.809  10.947  11.364
37208W        W 5426  36.582  40.293   3.325
37209W        W 5427  25.510   5.870  11.759
37210W        W 5428  16.334  18.096  14.501
37211W        W 5429  11.285  41.179   1.374
37212W        W 5430  18.067  28.844  11.104
37213W        W 5431  33.073   7.674  12.313
37214W        W 5432  26.495   2.420  14.511
37215W        W 5433  41.282  35.535  10.611
37216W        W 5434  37.005  10.580  11.210
37217W        W 5435  23.237  42.862   0.964
37218W        W 5436  18.261  39.857  13.407
37219W        W 5437   5.996  32.144   0.779
37220W        W 5438   0.506   0.694   3.181
37221W        W 5439  11.714  18.504   0.922
37222W        W 5440  26.602  33.204  10.533
37223W        W 5441  15.175  20.597  14.417
37224W        W 5442  40.349  16.007   2.357
37225W        W 5443  30.553  43.139  13.035
37226W        W 5444   7.124  20.153   3.354
37227W        W 5445  31.745  14.585  11.163
37228W        W 5446  18.053  40.361   0.268
37229W        W 5447  41.442   7.707   1.176
37230W        W 5448  41.929  36.347   0.371
37231W        W 5449  23.263  12.212   3.174
37232W        W 5450  14.098  23.613  12.994
37233W        W 5451   3.704  13.731  14.288
37234W        W 5452   4.938   8.426   1.915
37235W        W 5453  20.078  37.274  14.081
37236W        W 5454  16.933  28.875   3.240
37237W        W 5455   0.243  38.327  11.619
37238W        W 5456   0.911   7.977  13.427
37239W        W 5457  33.816   5.281  13.890
37240W        W 5458  26.376  11.822  11.643
37241W        W 5459  15.750   1.874   1.221
37242W        W 5460   1.583  31.953  10.483
37243W        W 5461   0.729   3.909   2.776
37244W        W 5462  29.380  29.537  13.012
37245W        W 5463  23.857  32.368   4.158
37246W        W 5464  39.789  39.659   1.298
37247W        W 5465  16.626   8.538   0.873
37248W        W 5466   5.217   0.189  13.833
37249W        W 5467  20.798  17.909  11.804
37250W        W 5468  31.133  26.526  13.851
37251W        W 5469  15.858  36.735  13.752
37252W        W 5470  18.628  29.381  13.361
37253W        W 5471  34.676  17.220  14.460
37254W        W 5472   3.511  42.566   4.375
37255W        W 5473  29.531   2.852  13.603
37256W        W 5474  28.602  43.566   1.755
37257W        W 5475  26.483  11.579   0.832
37258W        W 5476  17.079  23.045   2.441
37259W        W 5477  42.966  36.834  13.451
37260W        W 5478  20.617  36.838   4.608
37261W        W 5479  42.031  29.598  14.827
37262W        W 5480  15.996  29.376  13.868
37263W        W 5481   4.411  21.135   2.699
37264W        W 5482  10.717  21.429   2.402
37265W        W 5483  29.089  34.550  13.880
37266W        W 5484  28.112   4.187  10.771
37267W        W 5485  10.714  20.128   4.618
37268W        W 5486  27.740  30.989   3.556
37269W        W 5487   5.294  37.485  14.466
37270W        W 5488   3.285  23.191  12.014
37271W        W 5489   0.904  20.590   1.283
37272W        W 5490  10.128   0.205  12.448
37273W        W 5491   1.655   0.417  10.632
37274W        W 5492  25.644  28.036  13.445
37275W        W 5493  34.876   0.393   3.041
37276W        W 5494  41.019  41.350   2.757
37277W        W 5495  39.329  25.293   0.839
37278W        W 5496  36.221  23.574  12.386
37279W        W 5497  25.313  36.140   0.242
37280W        W 5498  36.574  24.695   1.120
37281W        W 5499  15.972   9.671   3.721
37282W        W 5500  32.597  25.564  14.313
37283W        W 5501  39.967  21.906   4.676
37284W        W 5502  40.350  14.650   4.547
37285W        W 5503  32.130   4.023   1.764
37286W        W 5504   4.436  39.843  11.086
37287W        W 5505  14.701  13.973   1.110
37288W        W 5506  44.694  42.416   0.748
37289W        W 5507  18.161  17.197  11.569
37290W        W 5508  22.306  36.441   3.748
37291W        W 5509  29.466  35.566  11.593
37292W        W 5510  22.039  11.420  12.059
37293W        W 5511  27.440  29.919   0.794
37294W        W 5512  42.337  13.412   2.296
37295W        W 5513   3.121  20.276  10.717
37296W        W 5514  33.289  18.199  11.128
37297W        W 5515  29.494   1.438   0.363
37298W        W 5516  22.158  37.498   4.147
37299W        W 5517   7.785  43.308   2.655
37300W        W 5518  12.290  14.291  13.408
37301W        W 5519   7.787  19.072   5.417
37302W        W 5520  32.916   0.858   1.007
37303W        W 5521  25.950  18.465   0.256
37304W        W 5522  36.375  37.130  12.080
37305W        W 5523  13.700  30.391  13.526
37306W        W 5524  43.620  13.036  11.159
37307W        W 5525  36.026  17.236   0.556
37308W        W 5526  37.954  42.230  13.570
37309W        W 5527  18.781  42.856  11.095
37310W        W 5528  18.800  27.530  10.424
37311W        W 5529  33.248   9.425   0.681
37312W        W 5530  17.767  16.921   4.375
37313W        W 5531  38.683   5.353  10.505
37314W        W 5532  36.313  11.637  13.775
37315W        W 5533  42.450  31.836  14.750
37316W        W 5534   1.952  35.258  11.717
37317W        W 5535  23.965  21.643   2.729
37318W        W 5536  30.535  19.720  11.809
37319W        W 5537   8.428  10.440  12.381
37320W        W 5538  44.494  28.120   2.205
37321W        W 5539  29.678  13.383   4.120
37322W        W 5540   6.860  20.282   4.777
37323W        W 5541  39.528  38.882  10.898
37324W        W 5542  11.160   4.435   0.899
37325W        W 5543  24.006  20.979   0.265
37326W        W 5544  37.619  17.676   1.389
37327W        W 5545  42.912  27.660  13.809
37328W        W 5546  43.756  22.623   0.852
37329W        W 5547  11.042  35.287   0.384
37330W        W 5548  18.812   3.017  13.762
37331W        W 5549  29.377  38.299  11.571
37332W        W 5550  40.092  44.202   1.603
37333W        W 5551  30.510   6.958   3.323
37334W        W 5552  32.656  23.049   3.819
37335W        W 5553  16.207  24.159  12.452
37336W        W 5554  12.405  11.525  12.619
37337W        W 5555   6.900   8.815  14.454
37338W        W 5556  25.179  10.560   0.258
37339W        W 5557  40.014   7.889   3.875
37340W        W 5558  32.951  42.127  12.884
37341W        W 5559  36.309   8.790  11.764
37342W        W 5560  40.562  14.256  11.062
37343W        W 5561  20.183  28.606   4.259
37344W        W 5562   6.924  38.907  10.751
37345W        W 5563  40.341  21.504  12.544
37346W        W 5564  32.938  14.180   1.213
37347W        W 5565  31.509  42.101  10.741
37348W        W 5566  39.410  22.852   2.408
37349W        W 5567  30.571  26.639   0.004
37350W        W 5568  11.225  29.754  14.400
37351W        W 5569   5.365   1.731  14.100
37352W        W 5570  16.750  36.991   2.229
37353W        W 5571  12.887  40.509   4.361
37354W        W 5572  21.704  26.264  13.068
37355W        W 5573   8.912   4.842  13.512
37356W        W 5574  24.954  26.438   4.121
37357W        W 5575  37.798   1.145  13.396
37358W        W 5576  14.473  30.481   1.253
37359W        W 5577   2.552  11.244  10.728
37360W        W 5578   9.421   4.388  14.914
37361W        W 5579  41.845  33.612   0.014
37362W        W 5580  10.599  41.552  12.053
37363W        W 5581  38.484  42.720   0.691
37364W        W 5582  35.426  17.244   4.791
37365W        W 5583  33.834  39.891  14.917
37366W        W 5584  30.127  13.357  14.952
37367W        W 5585  17.017  21.575   3.700
37368W        W 5586  33.057   9.241  11.606
37369W        W 5587  30.897  37.950  11.781
37370W        W 5588  41.912  32.679   1.403
37371W        W 5589  25.960  30.669   4.287
37372W        W 5590  25.856  13.096   4.672
37373W        W 5591   0.721  35.993  13.897
37374W        W 5592  30.149  40.429   0.343
37375W        W 5593   9.889  27.303  12.085
37376W        W 5594   5.977  21.480  10.561
37377W        W 5595  39.223  36.794   1.482
37378W        W 5596  18.921  24.612  12.475
37379W        W 5597  26.924  29.397  13.005
37380W        W 5598  20.044  35.461   2.738
37381W        W 5599   3.405  30.559  12.855
37382W        W 5600   6.620  28.122   0.377
37383W        W 5601  33.023  18.577   2.402
37384W        W 5602  20.290  42.486  13.377
37385W        W 5603  20.217  39.343   1.321
37386W        W 5604   5.848  30.526   1.224
37387W        W 5605  29.493  36.091   1.736
37388W        W 5606  13.594  25.631   3.733
37389W        W 5607  21.125  43.979  14.268
37390W        W 5608  36.547  42.429  10.900
37391W        W 5609   2.799  28.882  13.025
37392W        W 5610   0.797  24.966  10.048
37393W        W 5611  24.651  25.553   3.147
37394W        W 5612  44.357  33.021  13.970
37395W        W 5613  27.916  26.647  13.438
37396W        W 5614  17.205  41.293   2.145
37397W        W 5615  40.465  21.550  14.390
37398W        W 5616   0.767  41.950  12.357
37399W        W 5617  29.089   6.163  11.131
37400W        W 5618  32.934   1.764   3.254
37401W        W 5619  42.417  34.492   1.278
37402W        W 5620   4.295  26.669  14.949
37403W        W 5621  21.761  42.432   4.885
37404W        W 5622  24.948  26.102   0.441
37405W        W 5623  39.932  31.369   1.319
37406W        W 5624   5.167  23.072   2.835
37407W        W 5625  22.522  43.250  14.320
37408W        W 5626  44.510  33.126  13.495
37409W        W 5627   5.559   4.331  13.531
37410W        W 5628  25.517  10.215   0.399
37411W        W 5629  26.554  42.288  12.583
37412W        W 5630  21.726  20.529  11.149
37413W        W 5631  15.637  15.876   5.040
37414W        W 5632  18.961   8.678   3.321
37415W        W 5633  34.021  39.808   2.440
37416W        W 5634   1.979  18.561  14.448
37417W        W 5635  39.492  18.314   2.637
37418W        W 5636   7.708  38.104   2.388
37419W        W 5637  13.514  33.740  13.926
37420W        W 5638   3.908  11.671   2.736
37421W        W 5639  20.329   4.331  10.672
37422W        W 5640   1.512  32.636   2.322
37423W        W 5641   2.787  32.939  14.365
37424W        W 5642   3.430  16.762  13.942
37425W        W 5643  12.393   2.404  14.561
37426W        W 5644   7.693  33.352   1.577
37427W        W 5645  11.056   9.773   3.720
37428W        W 5646   5.807  17.741  12.168
37429W        W 5647   0.445  13.799  14.319
37430W        W 5648  15.895   7.456   4.212
37431W        W 5649  34.515  25.817  12.591
37432W        W 5650  28.105   6.672  12.066
37433W        W 5651  14.688  18.522   0.915
37434W        W 5652  16.770   0.248   4.100
37435W        W 5653  44.567  23.332   0.305
37436W        W 5654  15.171  39.478  14.801
37437W        W 5655  24.407  37.319   3.819
37438W        W 5656  18.464  21.403   1.794
37439W        W 5657  15.080  34.809   1.108
37440W        W 5658  15.908  30.489   0.938
37441W        W 5659   4.694  26.503   5.052
37442W        W 5660  20.740   0.384  13.371
37443W        W 5661  11.861  36.628  12.083
37444W        W 5662  14.282  36.092  13.159
37445W        W 5663  15.596  42.779  10.985
37446W        W 5664  44.781  18.307   4.321
37447W        W 5665   5.563  15.492  11.480
37448W        W 5666  43.441  25.191   4.174
37449W        W 5667   4.345  24.866   0.417
37450W        W 5668   6.633  36.000  10.680
37451W        W 5669   0.747  29.509  10.746
37452W        W 5670  34.572  18.783   3.378
37453W        W 5671  24.908   2.293  13.497
37454W        W 5672   5.850   9.432  13.653
37455W        W 5673  32.108  17.901  13.978
37456W        W 5674  30.582  33.305  13.979
37457W        W 5675  38.768  35.449   2.697
37458W        W 5676  13.682   9.722  12.568
37459W        W 5677   8.486   3.632   4.165
37460W        W 5678  14.400  34.030   4.631
37461W        W 5679  24.226  43.781   1.706
37462W        W 5680  39.473  43.983   0.173
37463W        W 5681  38.965   0.536  12.914
37464W        W 5682  21.146   1.938   0.937
37465W        W 5683  35.041   6.909   1.305
37466W        W 5684  37.954   4.228   3.587
37467W        W 5685  23.079   4.479   0.663
37468W        W 5686  12.868  23.742   2.818
37469W        W 5687   1.632  34.926   1.649
37470W        W 5688   2.895  39.242   0.126
37471W        W 5689  38.802  23.756   1.694
37472W        W 5690  41.535  29.086  11.895
37473W        W 5691  13.675  16.443   0.861
37474W        W 5692  12.365   8.412  14.084
37475W        W 5693   0.406  40.252  12.588
37476W        W 5694  21.088   9.841  10.656
37477W        W 5695  10.763  19.744  10.454
37478W        W 5696  34.568  42.182  10.762
37479W        W 5697   6.895  14.821   3.980
37480W        W 5698  16.660  11.396  11.944
37481W        W 5699   5.750  13.639   4.594
37482W        W 5700   8.496  31.085   0.281
37483W        W 5701  27.618   0.729  13.789
37484W        W 5702   1.397   7.175   4.322
37485W        W 5703   0.889  21.035  11.108
37486W        W 5704  11.883  34.034  14.714
37487W        W 5705  18.912  15.316   5.030
37488W        W 5706   3.026  14.564   3.647
37489W        W 5707  26.088  17.535   1.280
37490W        W 5708   3.243  30.259   2.322
37491W        W 5709  27.886  42.909   0.060
37492W        W 5710  23.720   1.017  11.963
37493W        W 5711   6.272  18.606  10.631
37494W        W 5712  29.362  27.510  10.599
37495W        W 5713  18.121  39.083   0.733
37496W        W 5714  22.298  44.413  13.834
37497W        W 5715  36.093  39.769   4.050
37498W        W 5716  24.242  44.305   1.648
37499W        W 5717  22.236   8.992  13.398
37500W        W 5718   3.687  40.748   1.843
37501W        W 5719  21.906   1.214  14.493
37502W        W 5720  26.828   6.139   3.231
37503W        W 5721  38.010  32.472  11.151
37504W        W 5722  35.610   3.189  13.897
37505W        W 5723  12.385  30.736   2.392
37506W        W 5724  11.581   0.796   0.236
37507W        W 5725   4.738  33.834  13.352
37508W        W 5726  15.746  39.871  11.541
37509W        W 5727  44.918  31.024   4.051
37510W        W 5728  38.360  36.578   3.533
37511W        W 5729  10.353  17.867   2.927
37512W        W 5730  27.687  17.389   0.850
37513W        W 5731   0.285   7.295   0.235
37514W        W 5732  22.063  44.422   3.765
37515W        W 5733  43.048  35.807  13.154
37516W        W 5734  26.954  43.516  11.666
37517W        W 5735  32.686  16.801   1.842
37518W        W 5736  14.080  27.522  13.388
37519W        W 5737  41.877  35.898  12.231
37520W        W 5738  23.211  38.040  13.461
37521W        W 5739   4.305  33.074   2.688
37522W        W 5740  25.129  36.365   2.381
37523W        W 5741  20.058   5.376   3.781
37524W        W 5742  34.663   2.334   2.950
37525W        W 5743  18.626  26.585   0.011
37526W        W 5744  44.502   5.855   4.151
37527W        W 5745  15.596  23.946   2.212
37528W        W 5746  18.092  14.466   3.803
37529W        W 5747  11.056  34.490  14.498
37530W        W 5748  24.571   1.665  12.418
37531W        W 5749  31.943  12.337   3.616
37532W        W 5750   4.434  32.934   0.800
37533W        W 5751  33.734  31.218   0.805
37534W        W 5752   8.762  33.816  13.756
37535W        W 5753   6.386  44.863   2.693
37536W        W 5754  29.931   8.020   4.538
37537W        W 5755  21.074  14.594  11.109
37538W        W 5756   9.703  25.927  14.403
37539W        W 5757  41.571   1.674   2.241
37540W        W 5758  16.192  28.690  11.147
37541W        W 5759  38.482  25.576   1.232
37542W        W 5760  17.797  44.113  14.372
37543W        W 5761  19.031  20.487  12.879
37544W        W 5762  14.812  14.271   0.703
37545W        W 5763  27.732  23.372   4.081
37546W        W 5764  19.201  28.958   2.379
37547W        W 5765  37.298   8.414  11.626
37548W        W 5766  31.842  28.511   3.703
37549W        W 5767  34.911   8.832  12.206
37550W        W 5768  12.321  24.206   2.130
37551W        W 5769  44.954  20.579   2.676
37552W        W 5770   9.597  14.704  14.346
37553W        W 5771  19.131  19.162  10.677
37554W        W 5772  15.251  28.958   0.681
37555W        W 5773  10.354  16.345  13.954
37556W        W 5774  22.641  38.307  11.427
37557W        W 5775  26.273  40.440  13.831
37558W        W 5776  13.070  22.704  11.135
37559W        W 5777  25.598  16.242   3.153
37560W        W 5778  24.587  43.795  14.783
37561W        W 5779  41.846  12.843   0.568
37562W        W 5780  15.112  32.924  12.594
37563W        W 5781  19.979   7.450   2.390
37564W        W 5782  15.650  15.620   0.925
37565W        W 5783  40.498  38.292   2.760
37566W        W 5784  18.365   3.273   0.512
37567W        W 5785  22.731  33.655  13.428
37568W        W 5786  26.599  25.679  12.291
37569W        W 5787  14.299  37.547   1.722
37570W        W 5788   3.216   6.051  11.431
37571W        W 5789   9.624  34.610  13.879
37572W        W 5790  14.352  26.661   3.254
37573W        W 5791   8.273  43.250  12.406
37574W        W 5792  25.497  41.775   2.815
37575W        W 5793  13.345  11.804   1.873
37576W        W 5794   1.194  43.909   4.039
37577W        W 5795  40.270  12.287   4.606
37578W        W 5796  25.852  37.794  11.130
37579W        W 5797   7.419  21.479  12.379
37580W        W 5798  19.078  44.023   1.299
37581W        W 5799  11.872   1.536   4.983
37582W        W 5800   7.167  30.596   3.719
37583W        W 5801  26.381  16.088   3.856
37584W        W 5802  44.023  16.743   1.334
37585W        W 5803  21.114  26.313   1.798
37586W        W 5804  20.621  42.048  12.686
37587W        W 5805  16.793  38.246  11.043
37588W        W 5806  31.041  22.573   3.662
37589W        W 5807  15.574  10.748  12.164
37590W        W 5808  43.396  23.030   4.717
37591W        W 5809  25.428  15.264   0.168
37592W        W 5810  39.862   0.358  11.222
37593W        W 5811  31.122  32.140   3.889
37594W        W 5812  35.656   1.261  11.015
37595W        W 5813  21.729   5.695  14.825
37596W        W 5814  11.451  44.150  12.950
37597W        W 5815  21.837  12.647  10.754
37598W        W 5816  12.719  39.837  10.933
37599W        W 5817  44.644  12.362  11.929
37600W        W 5818  19.275  26.542   4.935
37601W        W 5819  25.659  29.158   5.049
37602W        W 5820   2.995  22.525   0.378
37603W        W 5821  41.472  27.388  12.505
37604W        W 5822  11.861  13.768  11.256
37605W        W 5823  17.182  25.383   1.250
37606W        W 5824  34.433  39.714   1.396
37607W        W 5825  40.935   6.387  12.385
37608W        W 5826  21.216  23.093   0.526
37609W        W 5827   2.332  31.734   1.694
37610W        W 5828  14.653  35.404   0.296
37611W        W 5829  44.199  37.993   1.862
37612W        W 5830  27.656  42.830  12.577
37613W        W 5831  24.748  39.219   0.455
37614W        W 5832  27.268   8.772   5.017
37615W        W 5833   3.685  32.398   1.774
37616W        W 5834  28.202  28.292  12.867
37617W        W 5835  38.565   0.784   0.175
37618W        W 5836  42.733  40.927  11.232
37619W        W 5837  18.556  12.422   2.724
37620W        W 5838  27.767  39.448  14.767
37621W        W 5839  10.568  37.526   4.956
37622W        W 5840  31.066  37.126  14.000
37623W        W 5841  24.696  38.941  14.368
37624W        W 5842  28.038   8.295   2.779
37625W        W 5843  14.075  41.803  12.930
37626W        W 5844   6.372  44.466   2.309
37627W        W 5845   0.283   0.935  14.186
37628W        W 5846  37.529  39.090  12.465
37629W        W 5847   7.056  28.125   4.713
37630W        W 5848  15.688   4.707  14.998
37631W        W 5849  33.146  43.816   4.497
37632W        W 5850  17.492  41.411   2.583
37633W        W 5851  29.251  36.935  11.610
37634W        W 5852   2.516  39.898   0.498
37635W        W 5853  30.467   7.201   1.430
37636W        W 5854   0.935  36.683   3.320
37637W        W 5855  27.975  41.934  14.477
37638W        W 5856  23.157   3.808  10.586
37639W        W 5857  43.020  30.145  14.436
37640W        W 5858  25.150   7.401   0.839
37641W        W 5859  16.577  38.965   4.946
37642W        W 5860  15.972  41.971  14.048
37643W        W 5861  10.324  11.629  11.582
37644W        W 5862  11.851  43.445  12.436
37645W        W 5863   6.897  25.109  14.306
37646W        W 5864  40.833  26.062   3.763
37647W        W 5865  34.704  27.496  14.136
37648W        W 5866  10.652   2.258   3.831
37649W        W 5867  17.558  19.776   4.563
37650W        W 5868   1.738  44.929  10.795
37651W        W 5869  17.258  40.389  12.416
37652W        W 5870  25.580   9.714   0.495
37653W        W 5871  19.325  16.066  13.814
37654W        W 5872  31.618  27.146  14.075
37655W        W 5873  35.402  36.910  14.991
37656W        W 5874  33.596  30.016   9.893
37657W        W 5875  11.921  40.491  12.952
37658W        W 5876   5.636  21.732  10.862
37659W        W 5877   6.344  36.116   1.366
37660W        W 5878   0.229  34.669   3.717
37661W        W 5879  21.091  11.754   4.568
37662W        W 5880  19.970  26.067   3.138
37663W        W 5881  34.151  44.418  11.982
37664W        W 5882   9.766   1.312   4.604
37665W        W 5883  24.898  32.184   4.256
37666W        W 5884  26.550  13.925   3.286
37667W        W 5885  32.990  36.975  12.073
37668W        W 5886  28.502  39.530  14.318
37669W        W 5887  31.631   5.885   0.003
37670W        W 5888   9.308   8.445   0.711
37671W        W 5889   0.450  19.503  14.840
37672W        W 5890  30.929  18.496  14.685
37673W        W 5891  24.024  39.323  13.961
37674W        W 5892   3.783  36.945  13.526
37675W        W 5893   4.350  13.494  12.063
37676W        W 5894  41.489  22.893  14.916
37677W        W 5895   4.124  18.989   4.561
37678W        W 5896   5.925  31.900   2.771
37679W        W 5897  13.669  34.559   0.449
37680W        W 5898  35.279  37.511  11.058
37681W        W 5899  33.038  19.050   4.108
37682W        W 5900  32.851   5.268   2.846
37683W        W 5901  25.952  11.240   0.498
37684W        W 5902  29.706  40.780  12.090
37685W        W 5903   7.221  24.019  13.144
37686W        W 5904  31.834  13.033  14.077
37687W        W 5905  18.627  33.939   4.558
37688W        W 5906  27.812  31.683   0.182
37689W        W 5907   8.418  17.097   1.011
37690W        W 5908  20.516  17.245  10.618
37691W        W 5909  41.617  34.470   1.877
37692W        W 5910  33.839  37.544   0.649
37693W        W 5911  24.356   0.423   0.324
37694W        W 5912  42.576  13.413   3.907
37695W        W 5913  27.580  30.891  14.010
37696W        W 5914  19.593  10.245   3.710
37697W        W 5915  14.310  26.434   2.277
37698W        W 5916  11.687  44.858  12.901
37699W        W 5917  19.624  10.894  14.403
37700W        W 5918   1.895   0.740   3.647
37701W        W 5919   6.361  43.617   3.665
37702W        W 5920   3.997  20.997  12.922
37703W        W 5921  40.116  34.558  13.416
37704W        W 5922  23.542  18.211  13.015
37705W        W 5923  36.302  37.937  13.187
37706W        W 5924  22.190  26.234  10.590
37707W        W 5925   8.872  17.340  13.977
37708W        W 5926   7.146   2.484   0.371
37709W        W 5927  11.301   2.755   1.757
37710W        W 5928  27.612  10.818  12.531
37711W        W 5929  17.533  24.641   2.224
37712W        W 5930   8.657   0.168   0.421
37713W        W 5931   5.979   4.977   4.335
37714W        W 5932  18.318   5.395   4.795
37715W        W 5933  26.069  18.758   1.929
37716W        W 5934  13.242  24.067   3.043
37717W        W 5935  10.606   5.108  11.102
37718W        W 5936  16.913  27.283  11.674
37719W        W 5937  43.002  15.160  11.525
37720W        W 5938  10.413  28.836  11.500
37721W        W 5939  20.228  17.387   3.611
37722W        W 5940  33.667  37.146   2.347
37723W        W 5941   5.464  26.996   3.106
37724W        W 5942  27.180  22.942   1.418
37725W        W 5943  31.165  40.774  13.522
37726W        W 5944  23.089  41.412   0.238
37727W        W 5945  42.016  35.059  14.851
37728W        W 5946  36.242   1.805   5.507
37729W        W 5947  28.573  28.659  12.902
37730W        W 5948  17.313  15.061   2.826
37731W        W 5949  30.376  38.969  12.334
37732W        W 5950   4.739  24.957   2.224
37733W        W 5951  21.675   2.004  14.818
37734W        W 5952  35.109  22.536   1.706
37735W        W 5953  40.316  25.937   2.768
37736W        W 5954  17.615  16.768  13.651
37737W        W 5955  39.816  27.592   3.585
37738W        W 5956  36.596  14.664   1.434
37739W        W 5957  19.969  40.980  13.832
37740W        W 5958  33.308  13.497  13.941
37741W        W 5959  15.200   1.034  11.934
37742W        W 5960  39.017  13.341   2.840
37743W        W 5961  19.772  12.129  10.146
37744W        W 5962   4.178  33.264   3.280
37745W        W 5963   4.740  32.809  11.477
37746W        W 5964  38.978  42.106  13.064
37747W        W 5965   6.447   3.953   1.966
37748W        W 5966   0.621  12.210  12.794
37749W        W 5967  33.314   0.459  13.492
37750W        W 5968  22.775  36.258   3.630
37751W        W 5969  22.213   0.456   4.594
37752W        W 5970  19.751   5.860   1.458
37753W        W 5971  34.049  14.815  11.549
37754W        W 5972  24.025  42.362   4.734
37755W        W 5973  41.447  24.516  12.540
37756W        W 5974  15.603  37.011  10.706
37757W        W 5975   9.092   5.364  12.751
37758W        W 5976   7.247   8.699  10.938
37759W        W 5977  33.334  29.872  10.326
37760W        W 5978  24.651  16.249   5.241
37761W        W 5979  29.038  19.266  11.129
37762W        W 5980   6.913  16.920  12.043
37763W        W 5981  11.192  25.001  11.150
37764W        W 5982   4.880  22.033  10.639
37765W        W 5983  21.744  44.026  14.951
37766W        W 5984  25.245  42.396  11.458
37767W        W 5985   5.203  21.840   4.509
37768W        W 5986  11.997   4.294  11.714
37769W        W 5987  35.364   6.367   2.668
37770W        W 5988  40.281  32.479  11.080
37771W        W 5989   5.214   3.966   0.891
37772W        W 5990  31.528  33.919   2.813
37773W        W 5991  12.821  20.725  14.427
37774W        W 5992   1.456  35.394  13.880
37775W        W 5993  25.210  40.014   4.099
37776W        W 5994  18.515  17.721   3.294
37777W        W 5995  36.484  19.075   3.819
37778W        W 5996  11.593   1.254  14.382
37779W        W 5997   8.109  24.242  13.900
37780W        W 5998  23.017  28.413   1.961
37781W        W 5999  36.773  44.202  13.005
37782W        W 6000  34.868  17.214   3.629
37783W        W 6001  23.164   7.197  12.042
37784W        W 6002  10.567  36.435   2.254
37785W        W 6003  41.080  38.960  13.930
37786W        W 6004  25.650  34.734  12.539
37787W        W 6005  32.051   9.245   4.655
37788W        W 6006   7.557  30.256   2.086
37789W        W 6007  17.810  37.410  12.960
37790W        W 6008  22.057  17.728  10.761
37791W        W 6009  27.630  19.038  10.693
37792W        W 6010  24.203  13.674  12.984
37793W        W 6011   6.571  42.646  14.487
37794W        W 6012  10.352  26.142  13.559
37795W        W 6013   8.875  42.447  12.620
37796W        W 6014   3.779  44.641   4.182
37797W        W 6015  14.553  26.521  11.463
37798W        W 6016  29.674  31.826   3.784
37799W        W 6017   6.469  17.512  14.096
37800W        W 6018  10.539  14.912   2.745
37801W        W 6019  44.536   5.156   1.650
37802W        W 6020   3.283  18.657   4.710
37803W        W 6021  33.494   6.970  11.174
37804W        W 6022  40.021  26.433  10.359
37805W        W 6023   3.634  33.580  11.263
37806W        W 6024  31.917   9.269   0.691
37807W        W 6025  31.106  41.365   4.545
37808W        W 6026  44.493   9.837   3.263
37809W        W 6027  41.929  44.630  11.000
37810W        W 6028  42.450  41.907  11.449
37811W        W 6029   2.516  29.624  14.350
37812W        W 6030  10.228   7.635  13.418
37813W        W 6031  35.095  35.062   1.724
37814W        W 6032  26.123  37.115  11.622
37815W        W 6033  24.073  41.800   0.723
37816W        W 6034  44.566  34.472   2.855
37817W        W 6035  41.983  20.675  14.546
37818W        W 6036  43.595  18.072   4.487
37819W        W 6037  24.247  34.036   3.742
37820W        W 6038  23.212  37.585   0.672
37821W        W 6039   7.119   7.186   2.114
37822W        W 6040  24.670  25.095   1.372
37823W        W 6041  12.754   5.429   3.712
37824W        W 6042  13.269  43.749  11.205
37825W        W 6043  37.611   5.982  13.658
37826W        W 6044   1.407  16.587  11.911
37827W        W 6045  37.951  28.398  12.154
37828W        W 6046  28.849  19.765  11.657
37829W        W 6047   2.266  14.605   2.457
37830W        W 6048  38.551  19.455  10.582
37831W        W 6049  44.462   1.987  13.433
37832W        W 6050  42.052  21.278  10.370
37833W        W 6051  25.744  25.297   3.791
37834W        W 6052   0.947  42.227  13.452
37835W        W 6053  17.120  44.001   0.767
37836W        W 6054  20.749  17.750  14.719
37837W        W 6055  29.491  21.288  13.997
37838W        W 6056   4.957  17.077   3.748
37839W        W 6057  21.226  21.711   2.423
37840W        W 6058   1.822  37.769   4.258
37841W        W 6059  16.688   4.250   2.731
37842W        W 6060   5.833  20.322   1.300
37843W        W 6061  10.207   2.106   0.761
37844W        W 6062  39.542  28.608   1.182
37845W        W 6063   0.410  35.837   4.620
37846W        W 6064  43.339  35.011   2.906
37847W        W 6065  28.173  14.743  12.834
37848W        W 6066   9.878  35.233   2.383
37849W        W 6067  33.905  25.486   1.955
37850W        W 6068  39.851   7.436  14.758
37851W        W 6069   8.441  36.635  14.357
37852W        W 6070  40.354   0.578  14.086
37853W        W 6071  44.471  14.112   1.719
37854W        W 6072   0.856  26.832   1.124
37855W        W 6073  34.096  19.853  11.144
37856W        W 6074  21.070   0.318  11.565
37857W        W 6075  21.029   5.766  12.350
37858W        W 6076  10.843   3.516  11.965
37859W        W 6077   3.223  25.660   4.571
37860W        W 6078  21.206  37.991  10.592
37861W        W 6079  42.600  24.276  13.504
37862W        W 6080  30.981  27.861   3.709
37863W        W 6081  22.592  32.822   4.472
37864W        W 6082  23.655  43.940  14.886
37865W        W 6083   2.364  20.326  13.006
37866W        W 6084   7.253  26.435  12.888
37867W        W 6085  32.013  31.039  11.462
37868W        W 6086  18.816  41.784  13.558
37869W        W 6087  34.353  44.261   4.168
37870W        W 6088  34.011  22.751  11.892
37871W        W 6089  26.096  23.142  11.346
37872W        W 6090   2.447  30.390  12.018
37873W        W 6091  32.401  19.039  11.595
37874W        W 6092   6.912  40.924  12.942
37875W        W 6093  16.146  20.311  14.178
37876W        W 6094  18.621  15.574   2.215
37877W        W 6095  10.365  29.882  14.866
37878W        W 6096   8.803  23.229  11.800
37879W        W 6097   7.250  28.632  14.820
37880W        W 6098  34.497  27.637   1.360
37881W        W 6099  37.055  23.215  13.830
37882W        W 6100  10.836  18.980   4.085
37883W        W 6101  20.698  33.315   2.674
37884W        W 6102  17.551  15.864  10.092
37885W        W 6103  14.278  10.895  11.133
37886W        W 6104  10.320  19.305   4.664
37887W        W 6105  41.938   7.834  13.445
37888W        W 6106  11.415  31.578   0.223
37889W        W 6107  40.273   4.930  10.314
37890W        W 6108  15.025  13.964   1.514
37891W        W 6109   1.466  13.451  10.712
37892W        W 6110  10.639  22.593  12.649
37893W        W 6111  12.826  33.189   0.220
37894W        W 6112  13.110   5.903  10.467
37895W        W 6113   1.181  33.011   1.312
37896W        W 6114  18.186  25.946  12.231
37897W        W 6115  20.702  30.414  11.110
37898W        W 6116  25.919  12.588   0.191
37899W        W 6117   0.436  34.608   2.879
37900W        W 6118   2.244  11.135  13.435
37901W        W 6119  27.438  43.243   2.350
37902W        W 6120  20.152   8.374  11.435
37903W        W 6121  44.454   1.180   3.650
37904W        W 6122   2.731  32.624   1.899
37905W        W 6123  24.040  44.164   0.768
37906W        W 6124  26.742  29.891  11.104
37907W        W 6125   2.675   0.668   4.253
37908W        W 6126  20.282  10.336   0.832
37909W        W 6127  32.569   5.021   0.151
37910W        W 6128   2.377   5.445  13.858
37911W        W 6129  30.507  17.006  13.042
37912W        W 6130  23.512  12.728   0.925
37913W        W 6131  28.983  10.533   3.303
37914W        W 6132  26.982  39.903  14.729
37915W        W 6133  35.441   2.534   4.504
37916W        W 6134  31.929  28.467  14.428
37917W        W 6135  19.090   9.201  11.230
37918W        W 6136  11.673  38.081  12.133
37919W        W 6137   1.875   7.085  14.254
37920W        W 6138  38.299   4.939   3.728
37921W        W 6139  14.858  32.936  14.971
37922W        W 6140  18.088  36.993  13.855
37923W        W 6141  16.767  37.980   4.667
37924W        W 6142  14.748  36.082  14.939
37925W        W 6143  28.168   9.947  11.040
37926W        W 6144  22.007  44.311  12.590
37927W        W 6145  32.597  32.901   1.224
37928W        W 6146   0.269  34.508   2.403
37929W        W 6147  37.795  21.158  10.431
37930W        W 6148  37.976   5.135   4.145
37931W        W 6149  42.525  35.297  11.221
37932W        W 6150  41.231  17.393  11.535
37933W        W 6151  28.069  16.868   1.372
37934W        W 6152  22.638  22.951  11.109
37935W        W 6153  33.428  18.590   4.676
37936W        W 6154  36.311  19.905  11.620
37937W        W 6155  36.599  28.022  12.498
37938W        W 6156  34.042  28.440  12.924
37939W        W 6157  19.476  43.805  11.921
37940W        W 6158  16.352   9.519   1.090
37941W        W 6159  35.927  15.158  14.431
37942W        W 6160  11.571   5.247  11.681
37943W        W 6161  11.372  18.206  10.298
37944W        W 6162  34.697  34.361  12.034
37945W        W 6163  30.083  21.490   1.241
37946W        W 6164  12.600  23.990  12.491
37947W        W 6165  22.744  15.129   1.000
37948W        W 6166   0.861  21.099   1.381
37949W        W 6167   9.721  30.448  13.354
37950W        W 6168  15.156  44.884  11.440
37951W        W 6169   1.262   6.018   1.260
37952W        W 6170  20.127  19.974   3.600
37953W        W 6171  40.916  36.905  12.080
37954W        W 6172  24.490   4.253  11.015
37955W        W 6173  21.966  44.361  10.343
37956W        W 6174  30.115  36.579   4.592
37957W        W 6175  37.018   2.344  14.785
37958W        W 6176  38.103  22.462  11.009
37959W        W 6177  25.731  22.249   3.616
37960W        W 6178   7.682  44.491  12.097
37961W        W 6179   4.891  34.316  13.032
37962W        W 6180   8.064  37.754  11.049
37963W        W 6181  20.571  13.597  12.457
37964W        W 6182   5.330  28.564  10.699
37965W        W 6183  26.475  18.298  14.429
37966W        W 6184  37.110  16.746   1.376
37967W        W 6185  22.552  31.921   2.801
37968W        W 6186  30.831   7.260   4.843
37969W        W 6187   1.321  32.069   3.740
37970W        W 6188  16.367  30.600  11.070
37971W        W 6189  37.350  17.636   3.211
37972W        W 6190  22.556  30.516  14.960
37973W        W 6191  38.067  39.858   4.160
37974W        W 6192  26.546  23.052  14.317
37975W        W 6193  23.902   3.739   0.855
37976W        W 6194   3.882  17.947  11.558
37977W        W 6195  16.159   1.508   3.837
37978W        W 6196  35.084  24.857   1.977
37979W        W 6197  14.812  22.033  12.866
37980W        W 6198  23.533  13.758   4.525
37981W        W 6199  23.197   4.051   1.929
37982W        W 6200  28.702  17.687   2.834
37983W        W 6201   1.341   5.858   3.816
37984W        W 6202  25.250   0.903   3.084
37985W        W 6203  19.526  11.245  11.741
37986W        W 6204  32.838  41.963  14.743
37987W        W 6205   9.391  22.285  12.380
37988W        W 6206  40.905  18.091   3.819
37989W        W 6207   2.652  43.241   2.286
37990W        W 6208  19.719  26.489   5.168
37991W        W 6209  33.132  14.675   1.244
37992W        W 6210  31.883  21.838   4.084
37993W        W 6211  26.049  21.920   3.947
37994W        W 6212  13.086  43.921   0.968
37995W        W 6213  15.617  42.361  10.105
37996W        W 6214  15.092  31.572  11.519
37997W        W 6215  11.131   2.088   3.688
37998W        W 6216  12.768  28.875   2.606
37999W        W 6217  40.067  19.176   4.498
38000W        W 6218  26.924   4.397   3.955
38001W        W 6219  11.587  38.462  10.784
38002W        W 6220  35.385  39.177   2.836
38003W        W 6221  35.429  22.177  10.464
38004W        W 6222  34.392  13.004  10.627
38005W        W 6223  16.778   9.846   1.145
38006W        W 6224  23.196  20.770   2.704
38007W        W 6225  41.765  22.628   0.858
38008W        W 6226   3.875  13.594   4.256
38009W        W 6227  19.527  24.263  13.944
38010W        W 6228  32.436  16.857   3.067
38011W        W 6229  36.232  34.188  11.109
38012W        W 6230  19.080  43.967  13.919
38013W        W 6231   0.849  42.086  10.536
38014W        W 6232  40.738  28.066   4.577
38015W        W 6233  10.123   7.901   3.628
38016W        W 6234  32.373  23.446  14.784
38017W        W 6235  43.362  14.684  13.495
38018W        W 6236  18.140  30.928  14.922
38019W        W 6237   2.706  31.107  10.412
38020W        W 6238   5.400  44.544   2.754
38021W        W 6239  30.949  11.293   1.413
38022W        W 6240   2.495  37.725   4.938
38023W        W 6241  15.484  17.860   3.711
38024W        W 6242  20.994  41.914   1.740
38025W        W 6243  16.630  27.435  14.382
38026W        W 6244  10.665   3.472   0.953
38027W        W 6245  26.652  11.361  13.439
38028W        W 6246  17.346  25.143  12.125
38029W        W 6247  28.864   2.140  10.080
38030W        W 6248   2.119  17.093   1.488
38031W        W 6249  35.883  22.229  11.678
38032W        W 6250  15.832  23.736  12.219
38033W        W 6251  14.215  41.993   2.426
38034W        W 6252   3.336  20.968  11.193
38035W        W 6253  34.683  15.535  14.904
38036W        W 6254  36.083  21.530  14.428
38037W        W 6255  43.442   1.523  14.561
38038W        W 6256   5.356  19.961   4.212
38039W        W 6257   8.661  40.559  11.171
38040W        W 6258  44.916  33.839  12.297
38041W        W 6259   7.703  42.979   2.268
38042W        W 6260  12.140  40.377  14.943
38043W        W 6261  20.422  13.457   5.350
38044W        W 6262  27.899  33.667   4.929
38045W        W 6263  19.629  44.168  14.085
38046W        W 6264   3.865  12.795  12.901
38047W        W 6265   4.834  28.698  10.521
38048W        W 6266   4.199  20.024   3.418
38049W        W 6267   3.790  27.456   1.331
38050W        W 6268  34.031  14.657   3.143
38051W        W 6269  32.826  38.168  13.840
38052W        W 6270  31.878  15.639   1.214
38053W        W 6271  33.946   5.495   0.499
38054W        W 6272  43.874  37.067   3.926
38055W        W 6273  18.107   6.066   3.114
38056W        W 6274   7.602  40.448  14.334
38057W        W 6275   3.865  40.183   4.195
38058W        W 6276  20.550   4.521   1.411
38059W        W 6277   1.988   9.800  14.440
38060W        W 6278   3.213  31.880   3.562
38061W        W 6279  14.392   5.208   1.282
38062W        W 6280  43.439   5.401  11.611
38063W        W 6281  42.770   9.744   0.485
38064W        W 6282  30.943  32.027  14.279
38065W        W 6283  15.043  22.970  12.060
38066W        W 6284   0.751  26.615  12.087
38067W        W 6285  31.208  41.311   0.377
38068W        W 6286  26.986  12.259   3.275
38069W        W 6287  40.875  15.358  14.308
38070W        W 6288   8.324  31.905   2.096
38071W        W 6289  28.673  24.055   0.527
38072W        W 6290  32.578   1.442  12.933
38073W        W 6291  15.764  15.838   1.824
38074W        W 6292  19.162   0.701  14.741
38075W        W 6293  22.223  11.056  12.553
38076W        W 6294  25.409  24.552   4.442
38077W        W 6295   5.731   6.794  11.203
38078W        W 6296  18.304  17.756  14.343
38079W        W 6297  38.626  30.178   2.732
38080W        W 6298  31.456  16.447   5.505
38081W        W 6299  25.646  43.411  14.965
38082W        W 6300   1.807  33.430  10.835
38083W        W 6301  28.618  28.469   2.811
38084W        W 6302  36.302  34.700  11.144
38085W        W 6303  36.643  33.103  12.835
38086W        W 6304  33.919   1.982   4.641
38087W        W 6305  38.296  22.030   0.340
38088W        W 6306  42.956   4.325   4.309
38089W        W 6307   5.091  24.115  10.780
38090W        W 6308  17.677  10.165   4.689
38091W        W 6309  32.276  23.527   4.698
38092W        W 6310   0.915  16.455   1.405
38093W        W 6311  43.839  23.977   1.932
38094W        W 6312   4.821  31.741  10.291
38095W        W 6313  40.720  30.903  11.094
38096W        W 6314  38.533  25.701   3.762
38097W        W 6315   4.236   1.870   1.841
38098W        W 6316  17.227  30.893  13.002
38099W        W 6317  36.473  41.479   2.924
38100W        W 6318  38.997  24.716   3.294
38101W        W 6319  31.534   4.468  12.562
38102W        W 6320  23.016  24.650  12.838
38103W        W 6321  32.441  44.736   3.849
38104W        W 6322  15.503   0.848  11.542
38105W        W 6323  44.926  24.604  13.651
38106W        W 6324  37.768  33.661   1.701
38107W        W 6325  15.753  43.310  14.608
38108W        W 6326  25.217  27.060   0.875
38109W        W 6327  37.965  13.557  11.272
38110W        W 6328  16.209  34.530   2.900
38111W        W 6329  21.715  30.151  11.588
38112W        W 6330  28.453  24.729  14.444
38113W        W 6331  33.585  39.331  13.341
38114W        W 6332   5.352  16.743   3.675
38115W        W 6333  41.192  40.398   1.212
38116W        W 6334  27.435  41.887   3.490
38117W        W 6335  24.343   3.297   5.079
38118W        W 6336  44.035  33.312   4.288
38119W        W 6337  19.983  24.639   1.234
38120W        W 6338  25.553  33.106  11.903
38121W        W 6339   9.421   8.738  12.229
38122W        W 6340  42.281  28.386  14.433
38123W        W 6341  10.555   5.113  12.464
38124W        W 6342  26.479  16.071  14.561
38125W        W 6343  10.795  17.178  12.170
38126W        W 6344  24.743  27.543   1.246
38127W        W 6345  34.532  25.727   4.099
38128W        W 6346   2.830  15.248   4.198
38129W        W 6347  36.087  19.274   2.058
38130W        W 6348  23.240  33.720  11.518
38131W        W 6349   5.450  19.442  14.923
38132W        W 6350  24.019  21.145   3.279
38133W        W 6351   3.660  19.151  14.000
38134W        W 6352  21.059   7.544  12.366
38135W        W 6353  21.347  37.631  13.529
38136W        W 6354  27.201  12.159   4.032
38137W        W 6355  24.773  22.990   2.468
38138W        W 6356  44.539  25.766  12.978
38139W        W 6357  22.037  10.870  13.415
38140W        W 6358  27.045  29.910  14.919
38141W        W 6359  10.152  33.601   4.824
38142W        W 6360  39.087  36.664  14.801
38143W        W 6361  38.203  24.483  13.111
38144W        W 6362   6.157   0.350   3.969
38145W        W 6363  29.862  37.402  12.170
38146W        W 6364  15.339  12.547  10.753
38147W        W 6365   3.944  42.218   0.041
38148W        W 6366  14.918  14.355  11.324
38149W        W 6367   9.251  41.929   1.205
38150W        W 6368  44.500  21.453   3.648
38151W        W 6369   3.311  30.502   3.358
38152W        W 6370  24.178  27.205  14.456
38153W        W 6371  27.091  21.294   2.877
38154W        W 6372   4.368  37.911   2.209
38155W        W 6373  19.967  11.518   2.329
38156W        W 6374  14.445  43.867   3.421
38157W        W 6375  23.318  10.898  11.059
38158W        W 6376  15.715   8.467   2.288
38159W        W 6377  39.248   7.719  12.931
38160W        W 6378  26.656  32.121  10.676
38161W        W 6379  20.663  34.970  13.582
38162W        W 6380  11.183  30.178   2.150
38163W        W 6381   9.345  24.655  14.874
38164W        W 6382  33.510  27.114  11.323
38165W        W 6383  28.225  35.646  10.160
38166W        W 6384  14.373  25.865   0.513
38167W        W 6385  31.072   2.291  10.271
38168W        W 6386  26.597  18.122   4.251
38169W        W 6387  33.342   5.831   1.888
38170W        W 6388   8.441  33.992   4.082
38171W        W 6389  21.700  32.670   0.262
38172W        W 6390  14.053  31.810  14.351
38173W        W 6391  11.066  14.806  11.870
38174W        W 6392  35.713  23.689  12.436
38175W        W 6393  44.514   5.902   3.232
38176W        W 6394  44.866  22.039   0.435
38177W        W 6395   4.443  26.740  13.633
38178W        W 6396   2.035  27.369  11.140
38179W        W 6397  42.206  43.740  12.834
38180W        W 6398  16.636  12.690   3.685
38181W        W 6399  38.761  20.579   4.506
38182W        W 6400  22.233  22.556   2.345
38183W        W 6401  27.431  17.625  13.552
38184W        W 6402  23.070  43.032   1.981
38185W        W 6403  11.332  26.245   4.722
38186W        W 6404  22.838  29.581   2.398
38187W        W 6405  16.970   8.355  12.395
38188W        W 6406  44.144  25.308   2.339
38189W        W 6407   6.323  44.466   1.370
38190W        W 6408  30.246  34.908  10.687
38191W        W 6409   5.991  20.874   1.443
38192W        W 6410  32.049   6.456   5.348
38193W        W 6411  11.031   2.665  11.055
38194W        W 6412   2.460  25.162   0.770
38195W        W 6413  18.224  41.639  10.691
38196W        W 6414  39.012  26.014  11.570
38197W        W 6415  25.504  27.860  11.119
38198W        W 6416  23.624  44.181   0.428
38199W        W 6417  27.159  15.206  12.596
38200W        W 6418  11.323   3.740  11.994
38201W        W 6419  19.021   8.746  11.429
38202W        W 6420  17.563  13.171   1.947
38203W        W 6421   5.615   6.957  12.198
38204W        W 6422  25.583   3.482   2.527
38205W        W 6423  21.532  37.132  13.037
38206W        W 6424  12.217  17.315  11.056
38207W        W 6425  44.967  35.416   2.231
38208W        W 6426  20.425  12.988   3.232
38209W        W 6427  27.742   7.729  11.677
38210W        W 6428  34.603  12.585   1.253
38211W        W 6429  31.011  10.385   5.100
38212W        W 6430  23.136  27.453  12.796
38213W        W 6431  14.855  20.170  13.011
38214W        W 6432   5.252  27.031  12.399
38215W        W 6433  33.677  21.104  14.315
38216W        W 6434  16.044  27.450  12.442
38217W        W 6435  39.814  19.609   3.722
38218W        W 6436  27.425  22.814  13.155
38219W        W 6437   9.181   7.400   0.734
38220W        W 6438  25.582  40.412  10.648
38221W        W 6439  38.055  23.523  11.065
38222W        W 6440   4.862  38.451   2.879
38223W        W 6441   5.870  16.882   3.256
38224W        W 6442  23.521  35.663  13.474
38225W        W 6443  17.235   0.523  14.825
38226W        W 6444  15.495  17.186  14.722
38227W        W 6445   8.839  12.857   2.749
38228W        W 6446  22.716  33.345  11.302
38229W        W 6447  38.272  17.727   2.429
38230W        W 6448  10.020   2.387  11.553
38231W        W 6449   8.246  21.434   1.003
38232W        W 6450  24.896  39.390  14.982
38233W        W 6451  25.522  12.372   1.640
38234W        W 6452  43.855  32.715  12.382
38235W        W 6453  20.710  19.714   0.981
38236W        W 6454  11.289  24.153  11.999
38237W        W 6455  10.160  18.052  14.524
38238W        W 6456   9.999  30.082   1.218
38239W        W 6457  28.290  39.777   3.626
38240W        W 6458  38.470   2.125   4.216
38241W        W 6459   6.415  25.061   0.227
38242W        W 6460  19.734  39.091  12.087
38243W        W 6461  36.584  21.210  11.204
38244W        W 6462   7.940  22.573   9.605
38245W        W 6463   7.666   8.297   1.419
38246W        W 6464  39.957   3.685   0.230
38247W        W 6465   5.685  30.534  12.443
38248W        W 6466  43.575   4.429   3.190
38249W        W 6467   9.351  17.595   0.881
38250W        W 6468  28.461  32.407  10.642
38251W        W 6469   7.342   4.193  12.485
38252W        W 6470  23.943  25.168   5.047
38253W        W 6471   2.803  30.717  10.762
38254W        W 6472  12.346  33.277   3.767
38255W        W 6473  29.359  43.474  14.862
38256W        W 6474  26.108  17.683  12.854
38257W        W 6475  19.006  38.036   0.387
38258W        W 6476   9.762  29.124  11.954
38259W        W 6477  13.316   0.859  12.069
38260W        W 6478   6.646  12.379   3.555
38261W        W 6479  34.962   7.823   2.294
38262W        W 6480   9.189   7.350  14.861
38263W        W 6481  22.635   3.690   1.244
38264W        W 6482  10.854  43.488  11.546
38265W        W 6483   1.039  25.921  11.485
38266W        W 6484  40.346  12.796   3.119
38267W        W 6485   3.372   3.479   3.371
38268W        W 6486  13.115   9.107  10.609
38269W        W 6487  25.080   5.676  13.013
38270W        W 6488   0.401  35.646  13.175
38271W        W 6489  35.480  34.624  12.680
38272W        W 6490   1.933  28.074   1.708
38273W        W 6491  14.535  35.608   3.759
38274W        W 6492  31.697  14.117   3.926
38275W        W 6493  25.235   0.731   3.562
38276W        W 6494  42.915   2.968   4.292
38277W        W 6495   5.380  24.048  14.045
38278W        W 6496  21.229   8.517   0.130
38279W        W 6497  41.717  12.032   4.745
38280W        W 6498  28.839  12.447  12.379
38281W        W 6499  26.180   6.996  13.868
38282W        W 6500  23.095  14.926   1.362
38283W        W 6501  44.543   8.928  14.782
38284W        W 6502  23.187  18.623   0.223
38285W        W 6503  25.917  32.189   4.273
38286W        W 6504   2.875  33.829   0.191
38287W        W 6505  36.044  16.289   2.936
38288W        W 6506  43.347   2.712  12.153
38289W        W 6507  13.576  14.664   3.207
38290W        W 6508  14.311  10.044  13.475
38291W        W 6509  25.969  38.223   3.687
38292W        W 6510  29.702  11.161   0.881
38293W        W 6511  30.513   5.519   4.018
38294W        W 6512  31.822  38.964  13.433
38295W        W 6513  41.128  36.022   3.268
38296W        W 6514  10.689  11.607  11.080
38297W        W 6515  36.900  18.767  11.028
38298W        W 6516   7.660  30.163  11.206
38299W        W 6517  22.500   1.321   2.808
38300W        W 6518  35.544  28.839  10.667
38301W        W 6519  17.956  29.693   1.068
38302W        W 6520  15.988  30.514   5.099
38303W        W 6521  37.050  39.782   2.651
38304W        W 6522  15.371  14.621   0.368
38305W        W 6523   9.821  30.095  11.819
38306W        W 6524  13.442  33.812  10.228
38307W        W 6525   6.300  40.731   4.892
38308W        W 6526  39.340  16.222  12.084
38309W        W 6527  16.790  35.875  12.105
38310W        W 6528  43.250  33.304   2.243
38311W        W 6529   6.840   2.173  11.930
38312W        W 6530  27.870  16.095  13.389
38313W        W 6531  10.620  14.895  12.123
38314W        W 6532  34.794   6.743  13.479
38315W        W 6533   3.081  31.900   3.061
38316W        W 6534  44.503  15.521   1.388
38317W        W 6535  22.105  30.698   3.191
38318W        W 6536  29.766   0.996   0.235
38319W        W 6537  23.301  27.537  12.285
38320W        W 6538  29.977   3.397   1.842
38321W        W 6539   9.168  42.836  14.558
38322W        W 6540  28.097  25.190  11.451
38323W        W 6541  44.354  43.455   0.431
38324W        W 6542  42.355  12.128   4.046
38325W        W 6543   4.408   5.937  14.496
38326W        W 6544   6.801  23.979  13.447
38327W        W 6545  33.013  41.171   2.697
38328W        W 6546  16.509  15.128  10.657
38329W        W 6547  33.031  36.640  14.328
38330W        W 6548  18.255  17.770   1.830
38331W        W 6549  19.076  10.112   3.685
38332W        W 6550  25.451  43.462   2.437
38333W        W 6551   0.843  37.086  10.870
38334W        W 6552  44.017  11.201  14.251
38335W        W 6553   9.838   8.074  12.387
38336W        W 6554  13.658  29.369  13.527
38337W        W 6555  35.063  11.317  10.840
38338W        W 6556  14.078   3.591  13.890
38339W        W 6557  12.567  13.125  10.500
38340W        W 6558   2.414  23.718  10.893
38341W        W 6559  43.736  30.538   0.611
38342W        W 6560   1.636  43.229  12.596
38343W        W 6561  16.396  26.549   2.407
38344W        W 6562  10.296   3.408   0.358
38345W        W 6563  27.350  21.633  14.412
38346W        W 6564   3.327  20.348  12.081
38347W        W 6565  20.764  23.222   0.232
38348W        W 6566   9.887  43.800  13.826
38349W        W 6567   5.654  43.459   0.334
38350W        W 6568   9.196  25.655  13.275
38351W        W 6569   9.047  27.409  13.001
38352W        W 6570  11.952   8.908   4.185
38353W        W 6571  29.022   9.237  12.838
38354W        W 6572  44.325  44.699  10.406
38355W        W 6573   8.681  11.649   0.535
38356W        W 6574  37.464  17.511   0.375
38357W        W 6575  13.597   2.536  11.880
38358W        W 6576  29.399  34.573   1.896
38359W        W 6577  18.641  15.531  13.781
38360W        W 6578   4.628  14.283   5.117
38361W        W 6579  19.007  16.999  13.761
38362W        W 6580   7.930  29.988   1.828
38363W        W 6581   3.981  12.706   2.083
38364W        W 6582  11.608  43.553  12.922
38365W        W 6583  16.116  19.116  11.777
38366W        W 6584  13.054   6.342  13.530
38367W        W 6585   3.203   7.246  11.614
38368W        W 6586  25.057  41.777  10.654
38369W        W 6587  17.339  11.567   4.740
38370W        W 6588  37.031  43.264  13.036
38371W        W 6589  42.340  29.135  12.299
38372W        W 6590  14.054  38.312   0.212
38373W        W 6591  10.714  17.652   4.252
38374W        W 6592  20.737   0.786   1.773
38375W        W 6593  42.082   4.423  12.816
38376W        W 6594  44.303  19.538   4.188
38377W        W 6595  19.760  22.731   3.111
38378W        W 6596  12.412   9.429   0.945
38379W        W 6597  33.622  36.081   0.311
38380W        W 6598  25.174  34.044   4.589
38381W        W 6599  32.869  25.126   1.006
38382W        W 6600  26.450   8.882  11.460
38383W        W 6601  20.426  30.983  14.453
38384W        W 6602  21.438  38.026  11.055
38385W        W 6603  25.642  24.568  11.670
38386W        W 6604   0.725  12.622   0.481
38387W        W 6605  17.169  39.525   3.844
38388W        W 6606   6.828   8.317   1.742
38389W        W 6607   8.756  31.646  10.402
38390W        W 6608   6.933   7.232  10.685
38391W        W 6609  40.751   4.442  10.478
38392W        W 6610  29.213  44.243  13.782
38393W        W 6611   9.675  15.080   0.381
38394W        W 6612  22.022  38.477  14.893
38395W        W 6613  15.200  42.873   0.238
38396W        W 6614  40.997   5.843  13.868
38397W        W 6615  40.325  31.422  14.857
38398W        W 6616  37.054  27.994  12.831
38399W        W 6617  42.793  21.491  13.730
38400W        W 6618  39.099  23.011  12.433
38401W        W 6619  20.239  32.903  11.089
38402W        W 6620  20.960  10.099  12.970
38403W        W 6621  36.863  43.478  14.096
38404W        W 6622  16.257   3.854  14.786
38405W        W 6623  11.918  22.527  14.983
38406W        W 6624  24.053  28.943  12.109
38407W        W 6625  16.401   8.072  10.693
38408W        W 6626  41.352  44.930   3.267
38409W        W 6627   5.115  42.498   1.824
38410W        W 6628  15.314  42.901   3.308
38411W        W 6629   3.115  23.641  13.474
38412W        W 6630  15.733  24.701  11.052
38413W        W 6631  30.746   5.656   1.312
38414W        W 6632  39.081  21.421  12.585
38415W        W 6633  32.372   7.508  11.173
38416W        W 6634  10.849  11.874   0.764
38417W        W 6635  29.987  15.961   4.529
38418W        W 6636  33.898   2.977   0.886
38419W        W 6637  21.739  41.252  12.081
38420W        W 6638  38.213  27.238   1.780
38421W        W 6639  33.355  43.416  14.080
38422W        W 6640  20.200  39.558  11.067
38423W        W 6641  41.731  16.282   1.331
38424W        W 6642  10.105  23.301  11.138
38425W        W 6643  20.819  25.909   3.305
38426W        W 6644  43.403  42.741  13.304
38427W        W 6645  17.844  41.979  11.472
38428W        W 6646  28.345  15.582   1.356
38429W        W 6647  16.507  19.962  12.189
38430W        W 6648  19.292  12.732  10.618
38431W        W 6649  22.015  14.055   1.991
38432W        W 6650  41.321   8.635  13.444
38433W        W 6651   2.455  32.467   1.091
38434W        W 6652  27.761  40.828  11.917
38435W        W 6653  24.707  20.589   2.350
38436W        W 6654  20.967  26.974   2.398
38437W        W 6655  39.893  17.542   0.238
38438W        W 6656  12.168  25.476  12.922
38439W        W 6657  41.851   1.376   0.790
38440W        W 6658  42.104  17.226  11.758
38441W        W 6659  32.685  30.189  11.680
38442W        W 6660  12.273  21.491  14.394
38443W        W 6661  23.445   6.190   4.199
38444W        W 6662  22.515  42.259  10.822
38445W        W 6663  17.205  24.902   4.588
38446W        W 6664  20.802  41.615  11.978
38447W        W 6665  28.481  40.276   3.616
38448W        W 6666  28.856  34.839   2.853
38449W        W 6667   4.471  31.580   4.922
38450W        W 6668  40.646  44.811  11.411
38451W        W 6669  32.997  34.734  14.292
38452W        W 6670  14.216  40.998   1.484
38453W        W 6671  17.266  40.479  14.809
38454W        W 6672  36.433  15.561  10.739
38455W        W 6673  40.838  11.468   0.471
38456W        W 6674  10.111   0.828   0.433
38457W        W 6675  37.635  43.429  12.416
38458W        W 6676  25.477  11.857   3.923
38459W        W 6677  36.452  43.248  14.367
38460W        W 6678  36.319   1.443  13.523
38461W        W 6679   3.135   7.771  11.878
38462W        W 6680  12.763  26.979  14.579
38463W        W 6681   0.870  23.780  13.015
38464W        W 6682  36.832   6.518   3.644
38465W        W 6683  29.433  18.043   3.909
38466W        W 6684   9.351   7.751   4.228
38467W        W 6685  13.601  28.107   0.310
38468W        W 6686   0.206  41.645   1.831
38469W        W 6687  31.635  14.796  14.332
38470W        W 6688   7.839  28.106   4.184
38471W        W 6689  31.109  41.504  12.028
38472W        W 6690  33.038  10.603   0.512
38473W        W 6691  38.977  23.836   0.449
38474W        W 6692  36.407  31.712   2.732
38475W        W 6693   3.306  36.424  10.927
38476W        W 6694  41.041   8.401  11.640
38477W        W 6695  12.368  22.964  13.982
38478W        W 6696  15.292  37.894  13.559
38479W        W 6697   7.152  15.141   3.614
38480W        W 6698  31.889  17.513   1.330
38481W        W 6699  41.905  41.008   0.998
38482W        W 6700  19.946  39.493   1.750
38483W        W 6701  30.929  27.144  12.040
38484W        W 6702  27.176  17.122   3.211
38485W        W 6703  27.687  13.743   9.988
38486W        W 6704  26.090  44.540   1.148
38487W        W 6705  33.984  26.150  14.743
38488W        W 6706  36.825  26.141   0.042
38489W        W 6707  42.191  29.040  12.829
38490W        W 6708  30.247  10.564   3.457
38491W        W 6709  37.439  34.629   2.756
38492W        W 6710  43.332   7.759  14.027
38493W        W 6711  15.378  36.511  13.685
38494W        W 6712  42.023  40.461  12.004
38495W        W 6713  11.216  24.469  11.205
38496W        W 6714  31.208  15.316  12.523
38497W        W 6715  43.217  28.141  11.496
38498W        W 6716  13.771  33.417   0.783
38499W        W 6717  37.193   3.983   4.098
38500W        W 6718   3.276  37.052   1.854
38501W        W 6719  15.198  24.031  11.016
38502W        W 6720  36.636  25.279   3.101
38503W        W 6721  22.128  11.673   4.608
38504W        W 6722  38.526  32.910   3.130
38505W        W 6723  38.489  38.615   1.516
38506W        W 6724  11.156  16.534   3.511
38507W        W 6725   3.833  25.108  11.579
38508W        W 6726  18.597  38.406   2.313
38509W        W 6727  32.659   9.294  13.940
38510W        W 6728  20.276  12.267   4.733
38511W        W 6729  17.834  33.420  14.889
38512W        W 6730  39.493   5.051   2.212
38513W        W 6731  30.391  18.841  11.138
38514W        W 6732  20.600   5.645   1.774
38515W        W 6733  18.064  32.398  14.987
38516W        W 6734  42.826  33.906   4.344
38517W        W 6735  11.663  30.454   3.590
38518W        W 6736  40.009  40.806  11.482
38519W        W 6737  15.307  41.411   2.806
38520W        W 6738  29.436   3.787  13.495
38521W        W 6739   3.433  32.621   1.315
38522W        W 6740   6.939   3.704  11.829
38523W        W 6741  26.770  10.932  11.970
38524W        W 6742  39.977   2.322  12.542
38525W        W 6743  26.864   3.894   0.818
38526W        W 6744  28.714  35.313   3.753
38527W        W 6745   0.407  42.267  14.605
38528W        W 6746  14.786  36.630  11.511
38529W        W 6747  44.064   5.364   1.582
38530W        W 6748   7.280  42.783  12.688
38531W        W 6749  22.236  28.676  11.202
38532W        W 6750  38.366   8.843   1.869
38533W        W 6751   8.392  32.162  11.570
38534W        W 6752  21.683  25.507  14.371
38535W        W 6753  33.103   6.865   0.303
38536W        W 6754  29.533  18.197   3.083
38537W        W 6755  39.753  10.735   3.165
38538W        W 6756  26.534  34.305   2.656
38539W        W 6757  21.040  19.453  13.323
38540W        W 6758  13.252  37.898  13.808
38541W        W 6759   8.728  33.084   1.919
38542W        W 6760  44.450  22.382  10.346
38543W        W 6761  19.418  25.715  14.074
38544W        W 6762  23.377   7.120  14.028
38545W        W 6763  30.621  36.047   3.354
38546W        W 6764  27.761  18.697   4.062
38547W        W 6765  10.548   0.409  14.478
38548W        W 6766  42.978  23.029   2.665
38549W        W 6767  14.421  27.452   2.836
38550W        W 6768  20.529  17.134  12.307
38551W        W 6769   7.737  37.102  10.810
38552W        W 6770  41.426   7.595   0.313
38553W        W 6771  41.139  39.541  11.952
38554W        W 6772  18.253  36.362  10.698
38555W        W 6773  40.567  11.901   1.928
38556W        W 6774  23.710  24.742   1.651
38557W        W 6775  19.518  32.850   4.693
38558W        W 6776   8.965  17.496   3.657
38559W        W 6777  23.736  40.994   0.914
38560W        W 6778  25.705  39.092   0.534
38561W        W 6779  37.010  37.092  13.340
38562W        W 6780  42.835  32.395   4.256
38563W        W 6781  43.308  40.048  13.257
38564W        W 6782  22.543  28.564  13.040
38565W        W 6783  33.576  22.634   0.275
38566W        W 6784  37.574  13.328   1.248
38567W        W 6785   8.855  33.279   5.232
38568W        W 6786  44.487  28.200   0.325
38569W        W 6787  16.674  27.482   4.874
38570W        W 6788  13.383  23.195   0.350
38571W        W 6789   9.427  20.126  11.499
38572W        W 6790  40.473  37.526  11.591
38573W        W 6791   1.038   1.700   1.387
38574W        W 6792   0.889  21.039  10.224
38575W        W 6793  43.967  10.454   0.449
38576W        W 6794  26.453   3.154  11.218
38577W        W 6795  24.001  22.214   4.124
38578W        W 6796  23.518   7.382  14.871
38579W        W 6797   0.966  44.148   1.138
38580W        W 6798  35.811  34.044   4.626
38581W        W 6799  35.005  44.874   3.869
38582W        W 6800   7.722  11.215   0.471
38583W        W 6801   0.381  14.541   4.996
38584W        W 6802  38.448  18.362  11.633
38585W        W 6803  31.088  19.195  10.629
38586W        W 6804  15.504  36.484   4.051
38587W        W 6805  17.338  32.565   2.170
38588W        W 6806  27.173  21.204  12.579
38589W        W 6807  10.703  14.032   2.457
38590W        W 6808  18.350  31.531  13.057
38591W        W 6809  42.960  25.889   2.280
38592W        W 6810  16.957  15.375  10.914
38593W        W 6811  29.725  11.864   5.253
38594W        W 6812  44.109   9.154   4.743
38595W        W 6813  31.183  44.939  11.465
38596W        W 6814  10.874  43.463  10.691
38597W        W 6815  16.250  41.848   3.747
38598W        W 6816   4.405  40.786   3.196
38599W        W 6817  25.597  26.312   2.246
38600W        W 6818  39.137  25.057   0.397
38601W        W 6819  21.044  39.056   5.060
38602W        W 6820   5.977  31.042  12.030
38603W        W 6821  21.525  42.469   2.188
38604W        W 6822  14.141  19.715   4.092
38605W        W 6823   9.805  12.051  12.372
38606W        W 6824  28.190  38.578   1.368
38607W        W 6825  30.416  16.471   2.258
38608W        W 6826  34.350  31.532  13.864
38609W        W 6827  10.230  16.244  11.371
38610W        W 6828  34.352  43.863   2.720
38611W        W 6829  12.797  41.462   2.893
38612W        W 6830   4.266  37.952  14.136
38613W        W 6831  26.692  24.029  14.047
38614W        W 6832   8.891  30.634   1.074
38615W        W 6833  36.626  42.298  11.388
38616W        W 6834   9.340  28.889   1.842
38617W        W 6835  33.682   5.363  10.531
38618W        W 6836  34.894  12.157   3.673
38619W        W 6837  17.708  16.781   3.877
38620W        W 6838  23.529  29.030   4.029
38621W        W 6839  30.499  42.208   2.572
38622W        W 6840  37.890  24.787  12.809
38623W        W 6841  10.057  42.412   2.917
38624W        W 6842  37.924  18.820  14.642
38625W        W 6843  14.615  16.295   1.287
38626W        W 6844  43.664  36.687   2.076
38627W        W 6845   4.758  33.938   2.285
38628W        W 6846  34.534   4.260  10.861
38629W        W 6847  28.259  24.583  14.934
38630W        W 6848  41.067  14.878   0.878
38631W        W 6849  12.333  42.087   0.877
38632W        W 6850  35.283  10.101   1.284
38633W        W 6851  21.282  21.296  12.559
38634W        W 6852   8.002  32.117  11.213
38635W        W 6853   5.465   9.187  14.003
38636W        W 6854  26.754  23.770  10.752
38637W        W 6855  29.566   1.954   4.599
38638W        W 6856  38.056  34.668  13.923
38639W        W 6857  19.264  44.933   1.652
38640W        W 6858   3.014   2.451   3.746
38641W        W 6859  25.597  33.446  10.661
38642W        W 6860  29.504  23.124   4.583
38643W        W 6861   0.646  37.670  12.077
38644W        W 6862  20.232   6.490   1.858
38645W        W 6863  12.110  16.602  10.531
38646W        W 6864  20.458  23.076  13.433
38647W        W 6865  43.701  37.237   0.287
38648W        W 6866  19.198   9.796  10.699
38649W        W 6867  21.233  22.534   3.251
38650W        W 6868  38.560  21.311   4.537
38651W        W 6869  29.150  21.158  14.384
38652W        W 6870  21.678  40.577  13.868
38653W        W 6871   0.426  12.354   0.850
38654W        W 6872  41.931  13.735   3.208
38655W        W 6873  13.379  38.614   4.820
38656W        W 6874   0.735  36.276   0.434
38657W        W 6875  13.345  32.437  14.344
38658W        W 6876  30.516  18.828  12.022
38659W        W 6877  42.430  20.572  14.291
38660W        W 6878  35.431  12.101   2.579
38661W        W 6879  11.725  23.952   3.935
38662W        W 6880   8.891  19.875  11.479
38663W        W 6881  29.012  13.888  12.510
38664W        W 6882  13.225  13.912  13.365
38665W        W 6883  23.065  34.214  14.681
38666W        W 6884   0.039  21.285   0.753
38667W        W 6885  38.542  14.890  11.914
38668W        W 6886   0.730  11.523  13.911
38669W        W 6887   3.976  25.887   0.777
38670W        W 6888   6.587  25.993  12.423
38671W        W 6889  26.568  16.673  13.892
38672W        W 6890  21.157  28.515  11.988
38673W        W 6891  30.685  43.388   1.705
38674W        W 6892   4.035   3.935   1.409
38675W        W 6893  29.465  42.761   3.295
38676W        W 6894   7.507   4.863  11.948
38677W        W 6895   2.488  18.740   3.886
38678W        W 6896  34.499  24.835  12.490
38679W        W 6897  24.242  42.081  12.314
38680W        W 6898  29.431   1.534  11.184
38681W        W 6899  28.504   8.963   1.445
38682W        W 6900  26.527  10.483  11.982
38683W        W 6901  41.798  31.019   4.329
38684W        W 6902   9.455  15.738  13.347
38685W        W 6903   2.730   8.864   5.086
38686W        W 6904  20.192  22.596  13.628
38687W        W 6905  11.708  24.925  14.550
38688W        W 6906  44.444  22.002   2.335
38689W        W 6907  11.272  29.251   0.766
38690W        W 6908  40.560  44.530   0.358
38691W        W 6909  21.073  14.254  13.110
38692W        W 6910  11.845  29.497  10.693
38693W        W 6911  24.610  19.743   3.426
38694W        W 6912  13.126  22.196   4.903
38695W        W 6913   6.267  21.620   2.213
38696W        W 6914  34.879  20.088  13.445
38697W        W 6915  42.704  40.547   4.142
38698W        W 6916  40.311  18.190  12.536
38699W        W 6917  36.944  41.885   0.821
38700W        W 6918  32.538  34.562  14.470
38701W        W 6919  36.356  33.362   3.284
38702W        W 6920  29.083  14.041   1.265
38703W        W 6921  32.568  14.159   0.242
38704W        W 6922   6.367  18.741   0.863
38705W        W 6923   6.926  27.826  10.634
38706W        W 6924  28.679  42.281  14.096
38707W        W 6925  41.373  36.786  13.923
38708W        W 6926  27.132   1.274   3.687
38709W        W 6927  22.193   0.774  10.661
38710W        W 6928   5.130  36.890  12.429
38711W        W 6929  15.841  44.943   3.237
38712W        W 6930   7.192   1.893   3.365
38713W        W 6931  38.419  24.243   2.668
38714W        W 6932  29.025  22.587   4.845
38715W        W 6933   7.867  24.157   0.661
38716W        W 6934   8.575   1.928   1.458
38717W        W 6935  17.719  31.197   1.485
38718W        W 6936   3.861  23.406   1.596
38719W        W 6937  18.647  35.306   2.082
38720W        W 6938  27.085  25.790  14.089
38721W        W 6939   4.140  27.122   2.836
38722W        W 6940   0.637   2.423  10.366
38723W        W 6941   1.454  27.229   1.436
38724W        W 6942  16.678  33.101  14.367
38725W        W 6943  43.854  41.771  14.761
38726W        W 6944  33.969  20.986  11.226
38727W        W 6945  31.896  40.050   2.762
38728W        W 6946  41.200   5.780  14.354
38729W        W 6947   9.850  21.762  11.198
38730W        W 6948   3.874  15.807  13.410
38731W        W 6949  31.975  26.125  13.000
38732W        W 6950   2.134  12.661   4.106
38733W        W 6951  17.498  36.506   4.015
38734W        W 6952  35.487  21.966  12.778
38735W        W 6953  20.186  15.082  11.989
38736W        W 6954  27.201  12.820   1.105
38737W        W 6955  12.241   7.198   0.930
38738W        W 6956   1.047  18.540  11.632
38739W        W 6957  42.953   2.281   5.037
38740W        W 6958  21.984  14.067  14.293
38741W        W 6959   9.922  19.160  12.488
38742W        W 6960  30.624  40.372   2.221
38743W        W 6961  10.035   2.837  14.711
38744W        W 6962  13.068  10.261  14.458
38745W        W 6963  25.663  16.762  10.727
38746W        W 6964  42.025   9.594  14.912
38747W        W 6965   0.563  11.692   0.684
38748W        W 6966   5.753  44.084  12.934
38749W        W 6967  25.785   8.737  12.465
38750W        W 6968  30.951   1.169  11.094
38751W        W 6969  26.804   9.108   2.744
38752W        W 6970  34.900  16.091  10.552
38753W        W 6971  15.393  23.207   0.349
38754W        W 6972  14.748   5.439  10.383
38755W        W 6973  44.381   3.684   2.756
38756W        W 6974  42.416  32.921   1.423
38757W        W 6975  30.556  11.855   2.552
38758W        W 6976  24.991  39.988   2.683
38759W        W 6977  30.439  35.150   4.170
38760W        W 6978  23.782  28.717  10.460
38761W        W 6979  35.705  17.227  13.294
38762W        W 6980  35.285  20.959  13.851
38763W        W 6981  36.757   9.132   2.762
38764W        W 6982  16.755  37.971   0.741
38765W        W 6983  20.907  18.501   3.274
38766W        W 6984   1.386   8.851   3.562
38767W        W 6985  24.245  21.496  11.633
38768W        W 6986   7.683   6.717   0.465
38769W        W 6987  27.576  12.354  10.350
38770W        W 6988  16.128   2.693   0.337
38771W        W 6989  29.567   9.724   1.916
38772W        W 6990  36.534  41.664   1.677
38773W        W 6991  24.714  35.043   0.760
38774W        W 6992   7.855  43.284   4.042
38775W        W 6993  42.246  37.834  13.443
38776W        W 6994  30.725  35.159   3.723
38777W        W 6995  25.152  30.501   2.798
38778W        W 6996  13.689   2.079   1.740
38779W        W 6997  42.884  26.839   1.249
38780W        W 6998  30.899  10.104  11.123
38781W        W 6999  44.849  38.656   1.210
38782W        W 7000  36.590   1.008  11.487
38783W        W 7001  26.930   0.551   1.545
38784W        W 7002  33.123  40.046   4.441
38785W        W 7003  34.974  35.591   0.942
38786W        W 7004  20.672  10.250  11.962
38787W        W 7005   1.179  12.929  12.438
38788W        W 7006  41.979   8.263   3.086
38789W        W 7007  12.902   2.286   3.701
38790W        W 7008   8.469  34.840  12.966
38791W        W 7009  21.525   8.376  14.682
38792W        W 7010  31.408  12.662   4.918
38793W        W 7011  32.291  41.065   1.254
38794W        W 7012   7.433  44.469  10.306
38795W        W 7013  34.238  20.507  11.191
38796W        W 7014   0.038  18.652  11.657
38797W        W 7015  36.149  15.056   2.829
38798W        W 7016  44.509  11.730   0.008
38799W        W 7017   2.554  32.768   2.366
38800W        W 7018  13.388  41.506  11.204
38801W        W 7019  32.182  40.610  12.602
38802W        W 7020   7.005  23.020  10.881
38803W        W 7021   0.408  34.981  14.301
38804W        W 7022   3.353  36.828  13.296
38805W        W 7023  10.430   1.384   2.212
38806W        W 7024  30.141  30.622   1.472
38807W        W 7025  13.641  43.423  13.854
38808W        W 7026  27.617  26.951   2.734
38809W        W 7027   7.840  44.076   2.145
38810W        W 7028  18.090  43.884   2.916
38811W        W 7029  18.855  21.260  12.146
38812W        W 7030  25.660   1.812  11.196
38813W        W 7031  13.611   8.318  11.562
38814W        W 7032  27.163   3.598  14.548
38815W        W 7033  11.017  15.149  10.208
38816W        W 7034  43.410  10.352  11.278
38817W        W 7035  23.671  18.401   2.248
38818W        W 7036  26.616  31.683   2.772
38819W        W 7037   5.493  27.907  13.520
38820W        W 7038  22.287  13.447   1.366
38821W        W 7039  32.201   2.797  14.473
38822W        W 7040  23.566  22.063  14.287
38823W        W 7041  29.221  25.973  10.686
38824W        W 7042  17.763  43.006   0.202
38825W        W 7043  39.501   5.898  10.455
38826W        W 7044  39.407  28.641   9.881
38827W        W 7045  29.082   0.415   1.848
38828W        W 7046  21.507  11.867  11.682
38829W        W 7047   9.148   8.767   3.215
38830W        W 7048   1.952  11.447   1.231
38831W        W 7049  37.411  21.481   0.780
38832W        W 7050  42.866  30.401  14.874
38833W        W 7051  37.795  26.510  12.077
38834W        W 7052   2.866   1.436   2.297
38835W        W 7053  26.533   1.747  11.188
38836W        W 7054  31.961  13.120   2.160
38837W        W 7055  32.157  40.868  11.565
38838W        W 7056   7.879  30.507   1.768
38839W        W 7057  31.892  26.535   0.859
38840W        W 7058   2.859  32.769   3.267
38841W        W 7059  22.967  30.103   4.869
38842W        W 7060  23.735  19.190  14.003
38843W        W 7061  39.548   5.764  14.276
38844W        W 7062   2.535  30.157  12.512
38845W        W 7063   9.282  34.788  14.365
38846W        W 7064  39.773  33.122   1.663
38847W        W 7065  37.126  19.161   0.262
38848W        W 7066   8.970  36.819   0.842
38849W        W 7067  19.562  10.171  10.658
38850W        W 7068  13.396   3.550  12.888
38851W        W 7069  35.074  21.519   0.244
38852W        W 7070   8.693  35.918  12.610
38853W        W 7071  28.885  38.927   4.470
38854W        W 7072  36.417   4.979   4.630
38855W        W 7073  39.540  35.375  14.778
38856W        W 7074  26.997  28.100  10.237
38857W        W 7075  41.979  37.011   2.329
38858W        W 7076   5.976  27.101   0.833
38859W        W 7077   0.472  14.717   1.995
38860W        W 7078  10.425  21.025  14.238
38861W        W 7079   1.854  30.363   2.435
38862W        W 7080  13.162  22.376   1.959
38863W        W 7081   7.246  32.945  13.843
38864W        W 7082   8.341  22.601  11.310
38865W        W 7083  27.087   5.391  13.393
38866W        W 7084  16.760  14.365   2.253
38867W        W 7085  28.998  28.279  11.479
38868W        W 7086  39.196  42.805  12.212
38869W        W 7087  13.320   0.033   2.780
38870W        W 7088  31.231  21.084  11.632
38871W        W 7089  26.771   7.414   4.291
38872W        W 7090  40.937   4.450   3.378
38873W        W 7091  13.372   5.357   4.533
38874W        W 7092  13.577  23.743   3.299
38875W        W 7093  39.928  12.103  10.722
38876W        W 7094  29.184   6.802   1.673
38877W        W 7095  42.280  11.861   4.758
38878W        W 7096  30.650   8.224   3.926
38879W        W 7097   1.184  20.707  11.968
38880W        W 7098  32.845  20.049  13.037
38881W        W 7099   8.401   3.673   1.692
38882W        W 7100  16.014   5.817   2.670
38883W        W 7101   0.315  17.288   3.456
38884W        W 7102   8.981  25.632   0.906
38885W        W 7103   2.413  27.187   1.738
38886W        W 7104  11.599  27.533   3.728
38887W        W 7105   7.859  15.134   9.707
38888W        W 7106  43.484   9.158   1.429
38889W        W 7107  23.122   1.991  12.425
38890W        W 7108   9.876  25.582  14.070
38891W        W 7109  16.831  33.891   0.678
38892W        W 7110  40.528  35.617   4.199
38893W        W 7111  18.729  26.719  13.048
38894W        W 7112  13.122  11.136   2.938
38895W        W 7113  29.091  16.734  13.470
38896W        W 7114  26.440  10.371   0.323
38897W        W 7115   7.176   2.442   3.190
38898W        W 7116   6.224  13.399  14.098
38899W        W 7117  32.482  30.612  12.998
38900W        W 7118  19.742  43.804   3.683
38901W        W 7119  30.473  35.107  14.218
38902W        W 7120   8.753  30.396  14.873
38903W        W 7121  27.984  16.308   0.279
38904W        W 7122  11.720   4.470  13.022
38905W        W 7123  20.416   3.573  14.886
38906W        W 7124  29.831  37.036   2.757
38907W        W 7125  20.176  13.236  13.421
38908W        W 7126  32.271  18.489   2.686
38909W        W 7127  36.518  26.581   0.121
38910W        W 7128  33.990  12.242   3.573
38911W        W 7129   7.230  40.286   2.651
38912W        W 7130  12.356  36.574  12.874
38913W        W 7131  18.797  14.909   4.114
38914W        W 7132  32.875  17.613  12.138
38915W        W 7133  11.635  20.254   3.247
38916W        W 7134  19.424   8.402  14.396
38917W        W 7135  22.559  32.834  14.310
38918W        W 7136  18.645  18.859   3.157
38919W        W 7137  37.365   7.242  12.656
38920W        W 7138  28.522  35.301   0.292
38921W        W 7139  14.048  10.819  12.005
38922W        W 7140  10.138  30.094   4.218
38923W        W 7141  18.036  25.810   4.624
38924W        W 7142   6.424  19.083  14.523
38925W        W 7143  31.614   5.360  13.468
38926W        W 7144  15.138   3.683   1.945
38927W        W 7145  30.310  37.522  12.465
38928W        W 7146   0.358  26.457  10.361
38929W        W 7147  32.558  44.204  12.601
38930W        W 7148  36.125  25.572  14.301
38931W        W 7149  13.810  21.702   3.549
38932W        W 7150  21.632   1.721  12.749
38933W        W 7151   8.148  17.240  13.084
38934W        W 7152  28.343  44.250  14.777
38935W        W 7153  26.170  31.107  12.989
38936W        W 7154  37.981  44.044  14.116
38937W        W 7155  22.746   3.834   2.882
38938W        W 7156  18.465  15.983  13.948
38939W        W 7157   8.043  30.632  12.144
38940W        W 7158   9.670  33.590  11.174
38941W        W 7159  39.874  32.114   0.770
38942W        W 7160   1.734  24.237  11.628
38943W        W 7161  35.013  12.834   1.990
38944W        W 7162  26.587   4.787   9.886
38945W        W 7163  29.909   9.118  12.944
38946W        W 7164  39.506  33.593  13.508
38947W        W 7165   8.216  35.637   1.366
38948W        W 7166  15.868  28.553  10.775
38949W        W 7167  35.700  27.356  10.137
38950W        W 7168   2.845   9.684   0.600
38951W        W 7169  20.107   0.865  14.320
38952W        W 7170  31.413  22.533  12.541
38953W        W 7171  24.781  33.215   2.765
38954W        W 7172   3.962  36.654   1.440
38955W        W 7173  36.516  33.246   4.201
38956W        W 7174  10.450   0.802  10.765
38957W        W 7175  21.690  26.624   1.836
38958W        W 7176  15.670   3.658  10.735
38959W        W 7177   2.727  33.525  11.723
38960W        W 7178   8.295  13.580   0.645
38961W        W 7179  12.258  39.999  11.166
38962W        W 7180   8.818   8.216   0.674
38963W        W 7181   7.639  20.290   2.395
38964W        W 7182  15.192  34.127  13.944
38965W        W 7183  19.879   3.175  11.144
38966W        W 7184   3.865  33.176  12.858
38967W        W 7185  25.899  10.613   1.771
38968W        W 7186  32.853  43.065   4.163
38969W        W 7187   5.736   8.684   2.309
38970W        W 7188   4.891  28.601  12.008
38971W        W 7189  32.347  22.932   1.591
38972W        W 7190   1.371  25.301   0.294
38973W        W 7191   8.863  32.332  12.384
38974W        W 7192  33.622  29.005   1.102
38975W        W 7193   5.503  44.874  14.143
38976W        W 7194  17.308   2.534   4.516
38977W        W 7195  19.634   6.190   0.190
38978W        W 7196   9.834  20.001   1.546
38979W        W 7197   5.196  11.685   3.218
38980W        W 7198   5.635  33.597   0.393
38981W        W 7199   7.247  42.538  11.819
38982W        W 7200  41.557   4.362   1.855
38983W        W 7201  30.522  26.178  10.971
38984W        W 7202  37.564  13.684   3.315
38985W        W 7203  43.320   3.032   0.322
38986W        W 7204   1.781  34.883   4.335
38987W        W 7205  17.325  28.629  10.642
38988W        W 7206   1.979  39.980   4.055
38989W        W 7207  38.521  26.567  14.816
38990W        W 7208  27.934  18.070   5.032
38991W        W 7209  26.645  20.202   5.164
38992W        W 7210  10.751  14.466   1.905
38993W        W 7211   9.360   2.272   3.780
38994W        W 7212   7.179  22.995  14.003
38995W        W 7213  42.889  43.223   2.280
38996W        W 7214  23.164  11.841   3.631
38997W        W 7215  10.214  24.563  14.454
38998W        W 7216  25.929   7.672  10.534
38999W        W 7217   0.924  17.265   3.624
39000W        W 7218  19.136  17.900  11.309
39001W        W 7219  11.357  29.028   4.544
39002W        W 7220   5.948  15.057  13.547
39003W        W 7221   2.961  13.337   1.069
39004W        W 7222  25.461  36.444   1.799
39005W        W 7223  39.932  12.527   3.265
39006W        W 7224   3.272  15.772   3.156
39007W        W 7225   2.068  34.342   2.664
39008W        W 7226  30.411  15.118   2.204
39009W        W 7227  24.017   7.610  11.584
39010W        W 7228  29.502  28.065   5.167
39011W        W 7229  23.757  44.421   4.960
39012W        W 7230  31.259  10.759   3.770
39013W        W 7231  32.349   0.058   2.158
39014W        W 7232  13.622  14.068   1.368
39015W        W 7233  36.056   2.299  11.904
39016W        W 7234   9.122   8.795  11.255
39017W        W 7235  40.808  37.772   3.691
39018W        W 7236  10.688  27.094   1.943
39019W        W 7237  17.718  15.449  10.349
39020W        W 7238   7.909  24.263  14.802
39021W        W 7239  13.917   5.361   1.752
39022W        W 7240  25.060  16.166  14.493
39023W        W 7241   9.699  26.866   3.755
39024W        W 7242  38.852  23.153  10.456
39025W        W 7243  17.620  44.848   2.204
39026W        W 7244  14.864  11.362  13.007
39027W        W 7245  43.928  18.201  14.920
39028W        W 7246  20.557  35.980   2.193
39029W        W 7247  26.624  14.342  12.489
39030W        W 7248  15.941  42.782   3.715
39031W        W 7249  32.341  11.253  14.094
39032W        W 7250  36.389  28.855  10.801
39033W        W 7251   6.951  22.545  14.578
39034W        W 7252   2.506  38.538  11.220
39035W        W 7253  34.123  28.211  14.915
39036W        W 7254  21.935  19.565   2.221
39037W        W 7255  42.688  14.261  12.372
39038W        W 7256   4.874  12.578   3.220
39039W        W 7257   0.000  19.618   3.617
39040W        W 7258  17.595  11.572   3.105
39041W        W 7259   0.342  24.785   3.437
39042W        W 7260  21.870  30.597   3.832
39043W        W 7261  35.518  29.891   0.462
39044W        W 7262  32.421  19.518   2.836
39045W        W 7263  19.020  16.375  12.495
39046W        W 7264   6.885  32.821  12.594
39047W        W 7265  24.850  27.352  12.091
39048W        W 7266  12.271   8.857   2.277
39049W        W 7267  17.073  44.513  13.764
39050W        W 7268  12.647   6.917   0.682
39051W        W 7269  25.601  40.000  11.005
39052W        W 7270  42.006  32.530  10.970
39053W        W 7271   2.923   4.753  10.665
39054W        W 7272   1.839  23.140  11.145
39055W        W 7273   1.876  26.467  13.376
39056W        W 7274   8.772   8.285   2.286
39057W        W 7275   6.225  38.375   0.869
39058W        W 7276  34.039  38.513  13.455
39059W        W 7277  10.804  33.554   2.876
39060W        W 7278  15.149  43.793   4.187
39061W        W 7279  35.625   4.851  13.413
39062W        W 7280  38.509  37.777  13.825
39063W        W 7281   3.758  19.782   0.451
39064W        W 7282  37.860   1.114   1.242
39065W        W 7283  16.800  39.841   4.024
39066W        W 7284  44.403  17.299  14.966
39067W        W 7285  30.394  14.342  14.827
39068W        W 7286  30.558  12.995  11.159
39069W        W 7287  14.747  13.953   5.099
39070W        W 7288  28.925  37.314  14.375
39071W        W 7289  32.655  40.231   4.108
39072W        W 7290  44.991  40.490   4.618
39073W        W 7291  41.016  25.711  12.604
39074W        W 7292  12.337  15.417  11.604
39075W        W 7293  35.046   7.940   3.155
39076W        W 7294  28.626  26.026   0.351
39077W        W 7295   9.175   4.497   0.365
39078W        W 7296  11.293  23.489   1.692
39079W        W 7297   6.868  39.779   3.192
39080W        W 7298  14.654   4.945  10.246
39081W        W 7299  35.971   4.753  12.398
39082W        W 7300  36.496  34.027   1.187
39083W        W 7301  24.079  14.762  11.214
39084W        W 7302  17.297  33.387  14.918
39085W        W 7303  25.974  24.152   1.788
39086W        W 7304  27.123  17.426   3.624
39087W        W 7305  24.531  23.767   2.587
39088W        W 7306  19.751   7.281   1.283
39089W        W 7307  21.531  39.510   0.846
39090W        W 7308  22.722  16.073  10.426
39091W        W 7309  28.622  38.544  14.006
39092W        W 7310  13.597  36.912  11.101
39093W        W 7311  16.260  28.607   2.716
39094W        W 7312  13.181  14.573   2.807
39095W        W 7313   1.888  12.312  14.843
39096W        W 7314   0.500  24.028  13.616
39097W        W 7315  43.539  23.037   4.196
39098W        W 7316  19.377  26.628   1.869
39099W        W 7317  36.432  19.839  12.402
39100W        W 7318  11.390  39.643  14.106
39101W        W 7319  20.538   7.831   0.313
39102W        W 7320  38.479  32.226  12.843
39103W        W 7321  25.064  40.946  14.933
39104W        W 7322   2.136  39.446  14.947
39105W        W 7323   3.209  40.433  11.192
39106W        W 7324  18.342  25.924   3.677
39107W        W 7325  41.345   2.150   2.327
39108W        W 7326  24.672  44.597   4.117
39109W        W 7327  16.175  17.479   1.378
39110W        W 7328  32.396  26.721   3.162
39111W        W 7329  32.999   6.184  11.661
39112W        W 7330  44.243  23.986   2.796
39113W        W 7331  16.116  25.497  12.945
39114W        W 7332  41.229  29.009   3.075
39115W        W 7333   1.039  19.433  11.687
39116W        W 7334  43.499  20.176   4.578
39117W        W 7335  16.601  33.533   1.000
39118W        W 7336  43.966  28.003   2.258
39119W        W 7337  42.356  23.834  13.373
39120W        W 7338  18.250   5.425   4.271
39121W        W 7339   6.647  28.180  11.839
39122W        W 7340  15.329  14.262  11.620
39123W        W 7341   3.338  44.150  14.545
39124W        W 7342   8.400   1.132   1.268
39125W        W 7343  37.901  37.132  14.916
39126W        W 7344  20.169  36.488   2.917
39127W        W 7345  42.015  38.796   3.796
39128W        W 7346   8.690  36.411  13.953
39129W        W 7347   0.814  29.228  11.173
39130W        W 7348  18.021  10.182  13.390
39131W        W 7349  33.921  35.444  13.614
39132W        W 7350  20.561  31.464  11.198
39133W        W 7351  41.200  30.991  12.513
39134W        W 7352   3.664   9.368   3.323
39135W        W 7353  30.993  33.937   0.397
39136W        W 7354   1.429   0.928  11.171
39137W        W 7355  40.498  38.287  13.502
39138W        W 7356  17.522  30.146  13.835
39139W        W 7357  41.699  38.537   0.921
39140W        W 7358  39.981  21.270  10.604
39141W        W 7359  12.290   7.158   4.197
39142W        W 7360   7.256  36.857   3.495
39143W        W 7361  36.333  16.546  11.754
39144W        W 7362   2.737  19.715   4.249
39145W        W 7363  15.605   4.544   1.672
39146W        W 7364   9.916  41.309  13.335
39147W        W 7365  28.678  29.455   1.324
39148W        W 7366  30.467  35.495   0.537
39149W        W 7367  36.934  42.769  12.028
39150W        W 7368  34.949  44.900   2.895
39151W        W 7369  43.049  19.719   3.073
39152W        W 7370  35.958  12.099  11.131
39153W        W 7371  29.486  26.425   0.694
39154W        W 7372  20.461   6.892   1.618
39155W        W 7373  27.571  27.990   2.660
39156W        W 7374  36.554  42.394   4.346
39157W        W 7375  43.460  15.430   3.633
39158W        W 7376  32.015  28.583   2.220
39159W        W 7377  16.528   5.267  11.976
39160W        W 7378   9.328  20.937  12.674
39161W        W 7379   4.806  18.703  14.511
39162W        W 7380   0.828  33.564  12.934
39163W        W 7381  20.022  10.302   2.953
39164W        W 7382  39.101  20.961   1.762
39165W        W 7383  40.964  30.145  10.604
39166W        W 7384  43.930  15.654  14.243
39167W        W 7385   2.922  34.703  14.031
39168W        W 7386  39.304  40.884  14.778
39169W        W 7387  41.831   3.421  13.452
39170W        W 7388  36.848  33.609  13.007
39171W        W 7389   9.170  12.338   0.847
39172W        W 7390  34.596  12.512   2.719
39173W        W 7391  28.883  40.400  10.788
39174W        W 7392   4.141  30.434  14.519
39175W        W 7393  42.805  29.558  13.033
39176W        W 7394  33.493  16.331   9.884
39177W        W 7395  20.890   6.812   5.387
39178W        W 7396  19.180   5.162  12.668
39179W        W 7397  24.530  23.010   2.928
39180W        W 7398  32.109  15.408  12.434
39181W        W 7399  18.263  41.344  13.993
39182W        W 7400  16.511  17.766   3.826
39183W        W 7401   3.265  21.743  14.361
39184W        W 7402  44.293   5.765   3.693
39185W        W 7403  30.438  27.463  11.541
39186W        W 7404  31.897  17.463   2.702
39187W        W 7405  23.298  25.588  12.805
39188W        W 7406   3.417   4.100   4.545
39189W        W 7407  40.231   3.868   5.101
39190W        W 7408  42.570   7.120  14.727
39191W        W 7409   1.643  11.793   2.112
39192W        W 7410  31.660  20.675   0.931
39193W        W 7411  24.486  15.130  12.159
39194W        W 7412  38.628   0.302  11.673
39195W        W 7413  39.049   9.204   0.400
39196W        W 7414  19.821  18.300   3.593
39197W        W 7415  21.866  14.687  10.769
39198W        W 7416  35.322   8.832  14.437
39199W        W 7417  17.468  12.568  12.621
39200W        W 7418   6.390  36.984  14.832
39201W        W 7419   8.342   4.199   3.654
39202W        W 7420  24.536  12.861   1.891
39203W        W 7421  13.093   6.272  12.870
39204W        W 7422  15.800  37.768   0.803
39205W        W 7423  18.721  42.080  13.145
39206W        W 7424  32.080  27.038   9.767
39207W        W 7425  40.489   8.359  11.643
39208W        W 7426   1.952  20.531   2.401
39209W        W 7427  22.731  23.640   3.551
39210W        W 7428   8.278  16.847   3.190
39211W        W 7429   9.142  24.387   3.204
39212W        W 7430  11.252  40.924  12.564
39213W        W 7431  16.338  40.129  12.009
39214W        W 7432  13.186  29.741  12.595
39215W        W 7433  40.850  29.021  14.899
39216W        W 7434   9.302  29.402  11.962
39217W        W 7435  18.219   5.021  11.609
39218W        W 7436  39.626  35.623  14.317
39219W        W 7437  34.610   2.005  14.882
39220W        W 7438  12.702   2.938  11.692
39221W        W 7439  26.826  20.620  11.423
39222W        W 7440  29.538  34.931  12.776
39223W        W 7441  40.541   1.492   3.591
39224W        W 7442  44.245  26.741   0.420
39225W        W 7443  38.100   1.903   0.691
39226W        W 7444  42.914  38.398  13.502
39227W        W 7445  27.531  26.210   4.108
39228W        W 7446  43.011  34.924   4.627
39229W        W 7447  24.580  26.549   3.338
39230W        W 7448   5.732  21.177  12.325
39231W        W 7449  20.686  10.416  11.450
39232W        W 7450  26.470   4.977   3.808
39233W        W 7451  15.357  21.080  13.416
39234W        W 7452  15.545   9.664   1.691
39235W        W 7453  21.640   7.343   2.648
39236W        W 7454  39.049  36.972   1.030
39237W        W 7455   8.951  29.059   4.599
39238W        W 7456  15.180  31.829  14.316
39239W        W 7457  14.560  22.619  11.993
39240W        W 7458  14.840   3.489  10.339
39241W        W 7459  18.550  15.520   1.301
39242W        W 7460  29.536  36.525   4.589
39243W        W 7461  40.040  32.089  10.762
39244W        W 7462  11.443  42.051   3.667
39245W        W 7463  23.889   0.554  13.231
39246W        W 7464   8.390  13.392   0.176
39247W        W 7465  21.083  39.340   3.065
39248W        W 7466  27.061   5.691   0.912
39249W        W 7467   0.482  33.866   0.866
39250W        W 7468  30.029  16.788  13.847
39251W        W 7469  44.684  10.588   0.809
39252W        W 7470  23.880  29.928  12.996
39253W        W 7471  38.448   1.670   5.252
39254W        W 7472  42.109   2.057  11.594
39255W        W 7473   8.348  35.831  14.768
39256W        W 7474  15.355  44.158  14.592
39257W        W 7475  28.980   0.406   3.179
39258W        W 7476  26.549  44.236   3.611
39259W        W 7477  27.928   0.753   0.831
39260W        W 7478   0.942  20.218  11.995
39261W        W 7479  22.018  41.105  14.501
39262W        W 7480   9.697   3.796  10.572
39263W        W 7481   7.864   1.764   2.846
39264W        W 7482  31.567  37.962   1.720
39265W        W 7483  31.520  43.017   4.300
39266W        W 7484  15.845   2.693  10.447
39267W        W 7485  33.985   9.373   3.265
39268W        W 7486   3.763  10.236  12.131
39269W        W 7487  23.331  37.530  13.416
39270W        W 7488  31.449  38.482   1.473
39271W        W 7489  37.621  16.114   2.898
39272W        W 7490  29.851  23.871  11.793
39273W        W 7491  21.294  44.288   2.312
39274W        W 7492  17.656  23.158   4.708
39275W        W 7493  28.667  31.079   2.275
39276W        W 7494  10.378  32.886  11.067
39277W        W 7495  39.076   2.479  11.318
39278W        W 7496  18.757  31.683   4.454
39279W        W 7497  17.708   2.713   3.325
39280W        W 7498   8.832   2.226  11.035
39281W        W 7499  36.309  29.503  13.368
39282W        W 7500  21.770  44.813  11.749
39283W        W 7501  12.254  36.504  10.649
39284W        W 7502  30.435  31.123   4.806
39285W        W 7503  13.635  42.884  10.128
39286W        W 7504  16.289  35.379   1.528
39287W        W 7505  43.741  27.051   1.110
39288W        W 7506  34.835   3.202  13.560
39289W        W 7507  22.776  38.453   0.713
39290W        W 7508  22.296  25.722   0.416
39291W        W 7509  24.263   8.205  10.733
39292W        W 7510   7.475  25.068   2.926
39293W        W 7511   5.594   4.746   1.425
39294W        W 7512   0.682  17.521   3.997
39295W        W 7513  25.112  21.198  12.849
39296W        W 7514  13.918   2.204  14.351
39297W        W 7515   6.147  17.059   9.892
39298W        W 7516  17.931  24.754  14.319
39299W        W 7517  23.500  26.186  14.076
39300W        W 7518  12.777  26.468  12.335
39301W        W 7519  40.911  14.637   1.340
39302W        W 7520  16.755  37.485   1.788
39303W        W 7521  12.277   4.537  10.897
39304W        W 7522  40.827   3.431   2.602
39305W        W 7523   7.825  15.211  13.638
39306W        W 7524  14.207   0.867  10.314
39307W        W 7525  31.474   6.218  10.548
39308W        W 7526  26.064  14.803   4.258
39309W        W 7527  33.234   5.864  13.398
39310W        W 7528  27.854   5.887  11.159
39311W        W 7529  30.381  34.430  12.596
39312W        W 7530  37.875  31.032  14.527
39313W        W 7531  18.018  12.946   3.659
39314W        W 7532  37.598  30.155  13.484
39315W        W 7533   7.946  36.116   2.094
39316W        W 7534  11.437   5.790   0.315
39317W        W 7535  36.595   5.770   4.194
39318W        W 7536  29.882  32.398   4.422
39319W        W 7537  20.122  25.737  13.504
39320W        W 7538  43.758   7.875   4.667
39321W        W 7539  34.434   2.879   0.911
39322W        W 7540   4.964  30.081  11.184
39323W        W 7541  19.756  39.514  12.671
39324W        W 7542  22.097   8.288   4.524
39325W        W 7543   1.762  38.141   0.769
39326W        W 7544   8.125  23.218  14.066
39327W        W 7545   2.985  31.616  10.679
39328W        W 7546  39.329  40.336   4.295
39329W        W 7547  41.274  32.087  12.461
39330W        W 7548  18.343  44.796   2.482
39331W        W 7549  33.420  19.224   1.951
39332W        W 7550  22.707  10.459   4.333
39333W        W 7551  13.413   4.643  11.355
39334W        W 7552   0.143  12.280  12.994
39335W        W 7553  43.922  44.094   4.872
39336W        W 7554   4.510   6.450   1.769
39337W        W 7555  32.939  22.033  13.104
39338W        W 7556  42.462   7.684   0.422
39339W        W 7557  31.674  37.820  11.254
39340W        W 7558  26.508   1.431   4.226
39341W        W 7559  12.111  22.087  14.801
39342W        W 7560  40.104  30.478   0.409
39343W        W 7561  23.453  17.452  10.707
39344W        W 7562  28.014  15.028   2.860
39345W        W 7563  10.352  23.955  13.017
39346W        W 7564  23.301  35.322   3.743
39347W        W 7565  10.215  21.250   3.250
39348W        W 7566  27.470  22.880   0.751
39349W        W 7567   9.674  43.595   3.177
39350W        W 7568   6.249   3.294   4.573
39351W        W 7569   2.941  18.241   0.260
39352W        W 7570  33.176   0.024  14.650
39353W        W 7571  31.140  44.827  14.553
39354W        W 7572  13.301  10.624  11.480
39355W        W 7573  12.739   4.846  12.962
39356W        W 7574  40.352  34.966  12.136
39357W        W 7575  18.374   1.319  14.115
39358W        W 7576  17.801  39.188  13.649
39359W        W 7577   3.804  34.111   3.646
39360W        W 7578  36.080   7.956  11.935
39361W        W 7579  38.843  11.724   4.552
39362W        W 7580  34.819  10.639   4.525
39363W        W 7581   6.259  23.958  12.737
39364W        W 7582  42.788   8.877   3.142
39365W        W 7583   8.720  35.233  13.290
39366W        W 7584  30.021  18.478  10.949
39367W        W 7585  30.097  44.320  12.184
39368W        W 7586  24.350   3.774  13.111
39369W        W 7587  18.587  42.482   2.900
39370W        W 7588  11.387   5.877  10.748
39371W        W 7589  28.532  14.522   2.408
39372W        W 7590   2.364  44.400   1.638
39373W        W 7591   3.796  25.321  13.542
39374W        W 7592  19.838  29.561  11.095
39375W        W 7593  28.177  37.332   2.777
39376W        W 7594   8.171   2.859  13.953
39377W        W 7595   0.060  42.023  11.056
39378W        W 7596  18.762   9.066   0.574
39379W        W 7597  25.063  18.596   0.106
39380W        W 7598  31.457   2.402   1.345
39381W        W 7599  20.054  40.585  12.141
39382W        W 7600   4.258  16.207  13.936
39383W        W 7601   6.944  20.017  10.569
39384W        W 7602  39.385  14.630  14.471
39385W        W 7603  21.055   0.347  12.421
39386W        W 7604  29.537  17.478  14.948
39387W        W 7605  38.103   9.231   3.500
39388W        W 7606  10.341  14.383  13.423
39389W        W 7607   7.595   3.202  11.639
39390W        W 7608  25.534   7.755   2.505
39391W        W 7609  22.096  12.936  14.807
39392W        W 7610  11.655  18.724   4.688
39393W        W 7611  32.190  30.140  11.521
39394W        W 7612  26.282  26.523  10.764
39395W        W 7613  38.567  44.336   3.714
39396W        W 7614  33.440  42.437  14.006
39397W        W 7615  29.186   3.329   2.803
39398W        W 7616  33.631  19.053  14.952
39399W        W 7617   5.375   1.185  12.469
39400W        W 7618  36.357  24.932  12.839
39401W        W 7619  31.323  16.671   4.219
39402W        W 7620  34.896   0.742  11.510
39403W        W 7621   4.283  14.857   4.132
39404W        W 7622  22.889  24.161  11.553
39405W        W 7623   7.201  33.427  11.174
39406W        W 7624  23.715  29.778  12.052
39407W        W 7625  39.992  29.645   2.088
39408W        W 7626  19.173  40.358  14.836
39409W        W 7627  27.232  19.114  11.993
39410W        W 7628   6.634   2.293  12.368
39411W        W 7629  11.431   2.495   3.605
39412W        W 7630  30.946  25.747  12.785
39413W        W 7631   8.143  19.767  11.278
39414W        W 7632  40.767  44.955  13.140
39415W        W 7633  38.569   0.754   1.704
39416W        W 7634   2.304  19.739  14.484
39417W        W 7635  11.824   0.960  13.770
39418W        W 7636   4.743  39.857   0.901
39419W        W 7637  43.528  37.477  14.555
39420W        W 7638  44.395  34.826   4.240
39421W        W 7639  10.282   5.651  12.356
39422W        W 7640   9.388  15.829  14.338
39423W        W 7641   8.091  39.378   2.200
39424W        W 7642   7.485  27.174   4.802
39425W        W 7643  33.441  41.878  10.098
39426W        W 7644  43.429  33.821  14.016
39427W        W 7645  17.264  37.919   4.851
39428W        W 7646  39.972  25.025  10.670
39429W        W 7647   3.670  26.248  12.078
39430W        W 7648  28.049  31.128  10.422
39431W        W 7649  31.191  29.541  13.555
39432W        W 7650   4.453  27.486   0.829
39433W        W 7651   9.612  35.077   3.314
39434W        W 7652  35.462  10.289   3.202
39435W        W 7653  33.939  34.399   4.570
39436W        W 7654  42.457  18.540  12.845
39437W        W 7655  42.769  44.362   0.670
39438W        W 7656  27.656  14.207  10.240
39439W        W 7657   2.298   5.328  14.383
39440W        W 7658  30.391   9.787  11.976
39441W        W 7659  41.871  34.575   2.318
39442W        W 7660   7.961  40.433   0.209
39443W        W 7661  40.261  26.271  10.844
39444W        W 7662  35.322  26.920  13.498
39445W        W 7663  17.010  11.548   4.332
39446W        W 7664   5.318  22.506  14.343
39447W        W 7665  35.945  41.590  10.520
39448W        W 7666   2.937  41.287   1.338
39449W        W 7667   5.824  27.184  14.847
39450W        W 7668  36.372  18.137  13.824
39451W        W 7669  34.599  31.359   0.402
39452W        W 7670  39.129  34.581  12.154
39453W        W 7671  24.176  43.830   4.153
39454W        W 7672   7.431  19.334   3.663
39455W        W 7673  27.593  15.068  11.980
39456W        W 7674  42.299  24.056   0.880
39457W        W 7675  32.553   0.797  12.465
39458W        W 7676  24.586  43.105  14.011
39459W        W 7677   9.306  19.764   2.124
39460W        W 7678  15.052  19.582   0.197
39461W        W 7679   0.906  43.996   2.101
39462W        W 7680  39.961  30.337  10.763
39463W        W 7681   2.561   8.154  13.470
39464W        W 7682  42.941  34.513   0.076
39465W        W 7683  10.510  37.112  11.094
39466W        W 7684  44.448   8.597   4.673
39467W        W 7685  31.873  35.550  11.950
39468W        W 7686  44.463  11.670   3.711
39469W        W 7687  12.114  40.591  12.246
39470W        W 7688  18.052  19.215  14.907
39471W        W 7689  20.778  10.282   0.796
39472W        W 7690   8.053  43.912  13.657
39473W        W 7691   2.285  30.772  10.926
39474W        W 7692  12.117   2.557  12.135
39475W        W 7693  42.709  24.487  11.919
39476W        W 7694  38.435  34.986  13.735
39477W        W 7695   0.207   5.586  12.836
39478W        W 7696  24.455  34.594  10.598
39479W        W 7697  28.343  13.280   3.440
39480W        W 7698  38.075  22.243  12.972
39481W        W 7699  37.110  12.458  12.502
39482W        W 7700  31.655  18.370   2.719
39483W        W 7701   4.476  30.503  10.553
39484W        W 7702  22.692  41.500  12.920
39485W        W 7703  19.251  10.801  13.070
39486W        W 7704  17.118  15.859  13.848
39487W        W 7705  44.502   0.354   4.045
39488W        W 7706  14.641  35.792   1.258
39489W        W 7707  24.529  22.799   1.685
39490W        W 7708   1.344  11.144   3.846
39491W        W 7709  29.916   5.965   0.514
39492W        W 7710   3.161  42.309   4.118
39493W        W 7711   7.274  15.881  13.970
39494W        W 7712  21.414   3.895  11.592
39495W        W 7713  44.051  40.389  10.832
39496W        W 7714   4.306  29.531  13.369
39497W        W 7715   2.217  34.106   3.362
39498W        W 7716  14.677  20.550   0.661
39499W        W 7717  18.057  17.583   3.528
39500W        W 7718  16.136  10.336  12.616
39501W        W 7719  30.669  27.435   4.628
39502W        W 7720  24.119   1.257   2.234
39503W        W 7721   5.215  31.145  14.204
39504W        W 7722  13.482   8.853   0.455
39505W        W 7723   7.819  19.626   1.151
39506W        W 7724  37.044  37.019  10.723
39507W        W 7725  13.104  18.334   3.693
39508W        W 7726  28.581  11.385   3.247
39509W        W 7727   9.576  19.952  11.044
39510W        W 7728   7.922  28.065  11.513
39511W        W 7729   4.828  13.789  12.028
39512W        W 7730  40.900  18.871  11.594
39513W        W 7731  21.536  17.914   3.650
39514W        W 7732  39.605   8.714  12.910
39515W        W 7733  27.474  41.790  12.385
39516W        W 7734  33.477  27.202   0.462
39517W        W 7735   0.238  41.605  13.981
39518W        W 7736  13.181  12.392  11.113
39519W        W 7737  38.715   6.533  10.900
39520W        W 7738  13.076  17.293   5.027
39521W        W 7739  23.988   4.268   0.815
39522W        W 7740   5.294  20.146  14.830
39523W        W 7741  18.986  26.187  12.603
39524W        W 7742  32.225  44.863  11.582
39525W        W 7743  18.392  32.226   1.858
39526W        W 7744  43.409  14.752  11.190
39527W        W 7745  23.961  44.763   3.394
39528W        W 7746  12.785  38.067   2.959
39529W        W 7747  26.509  17.015  14.980
39530W        W 7748  19.856  37.485   4.298
39531W        W 7749  26.969  43.378   2.164
39532W        W 7750  38.913   2.849   3.471
39533W        W 7751  31.394  26.996   3.174
39534W        W 7752  37.465  20.132  12.832
39535W        W 7753  37.308  11.849  10.497
39536W        W 7754  25.676  22.516   0.986
39537W        W 7755   6.304   1.192   1.793
39538W        W 7756   1.940   3.997   0.966
39539W        W 7757  11.031  12.869   3.897
39540W        W 7758  41.484  29.568  11.064
39541W        W 7759  37.838  18.057   3.183
39542W        W 7760  25.532  18.339  11.578
39543W        W 7761   5.945  44.557  12.820
39544W        W 7762  17.843  19.365  14.077
39545W        W 7763   3.461   5.835  14.845
39546W        W 7764   0.035  34.051   4.540
39547W        W 7765  17.074  15.287   4.374
39548W        W 7766  29.270  19.648  11.908
39549W        W 7767  35.336  33.997   4.885
39550W        W 7768  39.393   7.898   1.842
39551W        W 7769  18.321  26.643  14.022
39552W        W 7770  19.518  14.391   3.780
39553W        W 7771  41.641  21.600  12.564
39554W        W 7772  27.945   8.666  13.771
39555W        W 7773  40.897  27.461  13.550
39556W        W 7774  23.234  36.188  11.467
39557W        W 7775   0.865  10.938   1.219
39558W        W 7776  25.485  36.051  12.401
39559W        W 7777   1.773  42.212   0.316
39560W        W 7778  29.488  37.358   4.047
39561W        W 7779   5.033  27.010   0.314
39562W        W 7780   2.369  23.723   2.417
39563W        W 7781  38.850  22.967  11.433
39564W        W 7782  19.788  21.993  10.729
39565W        W 7783   8.210  23.904  10.715
39566W        W 7784   6.634  41.504  14.466
39567W        W 7785   4.906  42.022   1.880
39568W        W 7786  38.389  20.246   0.451
39569W        W 7787   0.653  26.864   4.103
39570W        W 7788  40.196  13.545   2.726
39571W        W 7789  35.561  14.593   1.357
39572W        W 7790  16.509  29.108  14.772
39573W        W 7791  12.644  28.462   0.161
39574W        W 7792   5.778  37.085  13.835
39575W        W 7793  32.961  28.598   1.737
39576W        W 7794   9.684  28.466  10.807
39577W        W 7795  14.845   5.224   1.578
39578W        W 7796  27.915   1.699   3.226
39579W        W 7797   5.717  37.924  13.407
39580W        W 7798  24.612   4.128  12.769
39581W        W 7799  14.578  34.363  11.216
39582W        W 7800  19.748  14.463  14.308
39583W        W 7801  28.564  30.004  13.899
39584W        W 7802  36.321  40.757   1.723
39585W        W 7803  16.670  33.056  13.406
39586W        W 7804  22.640   5.507   3.775
39587W        W 7805  37.925  12.978   2.818
39588W        W 7806  35.187  13.894  11.176
39589W        W 7807  43.761  27.195   1.621
39590W        W 7808   1.270   5.100  10.165
39591W        W 7809  10.331  44.203   3.369
39592W        W 7810  33.852  41.919  13.093
39593W        W 7811  40.024  35.632   4.448
39594W        W 7812   6.281  14.595   1.866
39595W        W 7813   4.283  28.972   2.936
39596W        W 7814  21.500  42.794   4.210
39597W        W 7815  17.487   4.469  12.975
39598W        W 7816  28.874  39.485   2.359
39599W        W 7817   4.359  26.027  12.466
39600W        W 7818  27.851   1.812   1.177
39601W        W 7819  21.679  23.147   1.783
39602W        W 7820  13.177   7.531  10.776
39603W        W 7821   2.375  35.037  13.453
39604W        W 7822  20.382   1.268  11.933
39605W        W 7823  29.632  31.100   1.889
39606W        W 7824   3.731  41.826  10.580
39607W        W 7825  23.165  39.626   2.645
39608W        W 7826  25.011   6.973   0.580
39609W        W 7827  17.530  24.147  11.158
39610W        W 7828  20.015  10.567   3.715
39611W        W 7829  11.935  41.888   2.670
39612W        W 7830  31.570   9.167  11.532
39613W        W 7831  36.524  42.396  10.386
39614W        W 7832   7.839  21.980  11.670
39615W        W 7833  44.350  12.202   1.395
39616W        W 7834  28.014  16.134  12.848
39617W        W 7835  12.387  44.477  10.594
39618W        W 7836  43.291  30.568   2.419
39619W        W 7837  25.102  38.019  11.618
39620W        W 7838  40.919  12.525   1.968
39621W        W 7839  25.044  24.228  13.245
39622W        W 7840  14.087  14.759   4.494
39623W        W 7841  38.787  42.561  11.989
39624W        W 7842  29.147  40.031  11.212
39625W        W 7843  35.668  19.040   2.323
39626W        W 7844  38.280   2.696  14.827
39627W        W 7845  40.782  24.285   2.750
39628W        W 7846  10.655  15.369   2.565
39629W        W 7847  11.874  27.393   0.997
39630W        W 7848  11.499  13.596  13.335
39631W        W 7849  21.458  41.419  11.211
39632W        W 7850   0.592   7.300  14.271
39633W        W 7851  29.207  13.680   1.736
39634W        W 7852  25.987  36.336  14.363
39635W        W 7853   2.445  33.793   3.691
39636W        W 7854   6.234  12.776  13.363
39637W        W 7855   0.981   5.238   0.886
39638W        W 7856  17.518  15.473  10.827
39639W        W 7857  26.948  44.785  14.519
39640W        W 7858  43.080  14.889   4.294
39641W        W 7859  28.734  21.080   2.722
39642W        W 7860   1.916  29.137   1.047
39643W        W 7861   3.950  31.862   0.271
39644W        W 7862  19.328   4.216   3.654
39645W        W 7863  34.901  11.768  11.057
39646W        W 7864   9.820   3.653   0.419
39647W        W 7865  43.748  18.080   1.375
39648W        W 7866  32.674  28.005  13.756
39649W        W 7867  41.076  37.952   1.786
39650W        W 7868  32.582  23.552  13.380
39651W        W 7869  39.518  21.150   1.505
39652W        W 7870  36.377  26.453   1.420
39653W        W 7871  23.682  16.346   2.192
39654W        W 7872   3.555  10.622  13.420
39655W        W 7873  15.783  15.458  13.449
39656W        W 7874  22.478  34.089  13.332
39657W        W 7875  34.727  23.592  11.634
39658W        W 7876  35.746   1.252   9.986
39659W        W 7877  24.268  26.469   1.755
39660W        W 7878  13.583  18.668  13.946
39661W        W 7879  32.171  12.290  12.207
39662W        W 7880   6.809  36.814   0.882
39663W        W 7881  30.231  41.873  13.318
39664W        W 7882  30.957  42.337  13.243
39665W        W 7883  16.286  37.048  13.896
39666W        W 7884  18.385  12.592   3.692
39667W        W 7885  17.344  33.974  10.348
39668W        W 7886  16.224   0.579   4.792
39669W        W 7887  27.459  40.609  13.407
39670W        W 7888  12.383   4.333  10.433
39671W        W 7889  30.948  12.214  14.787
39672W        W 7890   9.342  31.992   4.642
39673W        W 7891  27.038   4.407   4.456
39674W        W 7892  31.593  43.887  10.836
39675W        W 7893   2.243  31.630   0.814
39676W        W 7894  18.388  10.123   0.716
39677W        W 7895  23.053  16.235  11.273
39678W        W 7896  15.241  13.379   1.251
39679W        W 7897  11.116  39.787   0.843
39680W        W 7898  14.544  10.648   0.169
39681W        W 7899   2.209  28.664  12.385
39682W        W 7900  12.118  33.974   3.975
39683W        W 7901  26.208   8.488  11.108
39684W        W 7902  16.939  19.594   3.865
39685W        W 7903  38.365  10.938   4.650
39686W        W 7904  13.073   1.762   0.269
39687W        W 7905  37.082  42.841   3.191
39688W        W 7906  41.701  33.573   0.502
39689W        W 7907  31.210  35.356   1.010
39690W        W 7908   7.214  25.928  12.952
39691W        W 7909   3.078  10.513   1.893
39692W        W 7910  11.632  22.524   4.764
39693W        W 7911  16.495  43.738   2.047
39694W        W 7912  11.514  41.446   4.970
39695W        W 7913  18.517  13.606   4.065
39696W        W 7914  37.425  18.033  13.510
39697W        W 7915  17.708   4.359  10.692
39698W        W 7916  27.351   3.282  11.123
39699W        W 7917  40.051  25.523   4.000
39700W        W 7918  23.994  30.812   3.188
39701W        W 7919  40.386  13.609   4.680
39702W        W 7920  38.966   5.556   1.748
39703W        W 7921  24.550  28.965   4.800
39704W        W 7922   9.306  27.970   2.506
39705W        W 7923  35.020  26.942   3.769
39706W        W 7924   9.018  34.954  14.783
39707W        W 7925  12.862  32.397   3.299
39708W        W 7926  23.871  38.962  13.604
39709W        W 7927  42.786  19.743  12.047
39710W        W 7928  31.142  16.774  13.950
39711W        W 7929  39.900  24.898  11.164
39712W        W 7930   0.005  24.423   3.194
39713W        W 7931  40.865  24.091  11.440
39714W        W 7932  26.623  22.157   4.550
39715W        W 7933  35.552  37.486  10.581
39716W        W 7934  29.487   6.493  14.998
39717W        W 7935  29.443   1.405   1.389
39718W        W 7936   1.561  36.028   4.001
39719W        W 7937  11.878  28.991  10.261
39720W        W 7938  42.812  20.298  12.039
39721W        W 7939  13.877  28.279   1.577
39722W        W 7940   0.814  10.169   2.348
39723W        W 7941   5.140  33.761   4.839
39724W        W 7942  40.800  44.975   3.307
39725W        W 7943  27.238  30.575   1.394
39726W        W 7944  41.314   6.221  14.019
39727W        W 7945  44.046   9.840  11.108
39728W        W 7946   7.710  17.651   1.403
39729W        W 7947   4.017  14.826   2.213
39730W        W 7948  30.358   1.309   4.231
39731W        W 7949  34.808  18.793   2.863
39732W        W 7950  22.019  40.255   1.181
39733W        W 7951  29.883  10.918   1.866
39734W        W 7952  20.612  37.756   3.660
39735W        W 7953  44.868  15.320  11.616
39736W        W 7954  35.138  16.632   1.183
39737W        W 7955  42.854  30.594  13.427
39738W        W 7956  23.953   2.519   1.823
39739W        W 7957  34.677  12.229   4.136
39740W        W 7958  26.652  38.318  12.492
39741W        W 7959  34.077  33.410   3.316
39742W        W 7960  38.177  33.903  10.488
39743W        W 7961  31.565  30.112   3.968
39744W        W 7962  32.076  44.373  11.386
39745W        W 7963  20.986  30.418  10.062
39746W        W 7964  16.211  44.894  11.320
39747W        W 7965  19.175  29.889   4.165
39748W        W 7966  12.400   2.298  10.686
39749W        W 7967  26.671  21.064   3.136
39750W        W 7968  29.941  24.211   0.953
39751W        W 7969  15.207  10.822   3.614
39752W        W 7970  24.533  16.344   4.122
39753W        W 7971  41.482  39.420   2.655
39754W        W 7972  10.843  30.198   3.295
39755W        W 7973  28.867  38.559   2.321
39756W        W 7974  38.900  40.294  13.419
39757W        W 7975   0.757  22.377   4.225
39758W        W 7976  44.086  31.609  13.065
39759W        W 7977  27.466   0.110   4.472
39760W        W 7978  32.894   5.767  10.407
39761W        W 7979   0.348  28.415   0.727
39762W        W 7980  40.948  19.597  12.972
39763W        W 7981   9.787   3.583   1.750
39764W        W 7982  13.818   4.407  11.954
39765W        W 7983  21.144   1.241  14.283
39766W        W 7984  15.366  19.841  11.037
39767W        W 7985   3.929  33.931  11.007
39768W        W 7986  21.275  33.060   4.181
39769W        W 7987  18.615  26.143  13.331
39770W        W 7988  11.456   0.324   5.492
39771W        W 7989  22.044   0.992   3.274
39772W        W 7990  23.029  29.666   2.856
39773W        W 7991  16.350  31.390   0.774
39774W        W 7992  44.133  39.011  12.090
39775W        W 7993  12.216   7.231  10.700
39776W        W 7994  32.021   9.356  10.671
39777W        W 7995   7.782  39.742  13.869
39778W        W 7996  10.968  33.155   1.337
39779W        W 7997  19.816  38.701   4.176
39780W        W 7998   8.938  37.673  10.724
39781W        W 7999   7.772   5.330  14.016
39782W        W 8000  18.480  15.192  14.505
39783W        W 8001  20.113   4.759   3.109
39784W        W 8002  43.275  20.738  12.580
39785W        W 8003  34.604  32.378   2.754
39786W        W 8004   9.872   6.627   3.595
39787W        W 8005  15.238  37.107   0.780
39788W        W 8006  18.151   4.489  11.586
39789W        W 8007   3.647  42.135  13.626
39790W        W 8008  37.982  22.740  12.922
39791W        W 8009  24.715  13.693   0.388
39792W        W 8010  21.809  31.554   4.652
39793W        W 8011   3.378  39.999  10.165
39794W        W 8012  28.190  44.680  14.527
39795W        W 8013   1.441  40.642  10.868
39796W        W 8014  13.716   5.973   2.740
39797W        W 8015  12.094   3.632   2.226
39798W        W 8016  28.146  31.950   4.525
39799W        W 8017  10.333   0.445   4.738
39800W        W 8018  12.256  44.981  10.564
39801W        W 8019   9.101   5.996   4.893
39802W        W 8020  24.219  40.071   0.746
39803W        W 8021  18.836  36.396   0.329
39804W        W 8022   2.730  15.036   1.283
39805W        W 8023   8.919  34.869  11.134
39806W        W 8024  43.884   7.694   3.005
39807W        W 8025  18.596  43.611  13.262
39808W        W 8026  34.407  29.269  13.059
39809W        W 8027  24.221  41.076   3.935
39810W        W 8028  42.779  12.197  13.433
39811W        W 8029  12.782   1.500  14.877
39812W        W 8030   1.010  12.969   2.830
39813W        W 8031   6.781  39.107  12.486
39814W        W 8032   4.264   0.996  12.399
39815W        W 8033  28.038  35.866   2.045
39816W        W 8034  33.870   5.128   1.991
39817W        W 8035   5.340  28.988   0.951
39818W        W 8036  24.516  22.153   4.034
39819W        W 8037  24.909  17.164   0.103
39820W        W 8038  38.388  10.598  11.627
39821W        W 8039   3.187  17.297  12.331
39822W        W 8040  21.726  17.051  14.346
39823W        W 8041   1.551   4.874   0.927
39824W        W 8042  27.826  21.173  10.503
39825W        W 8043  13.137  33.901  10.652
39826W        W 8044  33.252   4.773   0.713
39827W        W 8045  34.638  12.091   2.191
39828W        W 8046  35.989  29.704   0.423
39829W        W 8047  18.232  16.777   4.181
39830W        W 8048  16.134  33.383   2.167
39831W        W 8049  15.765  16.729   1.403
39832W        W 8050  24.799  38.269   0.693
39833W        W 8051  24.919  42.790  12.055
39834W        W 8052  30.423   8.163  13.280
39835W        W 8053  38.701   2.760   1.885
39836W        W 8054  42.550  41.462   1.297
39837W        W 8055  11.803   6.090   1.331
39838W        W 8056  40.846   0.886  12.396
39839W        W 8057  23.679  38.461   1.781
39840W        W 8058  41.453  32.500   1.112
39841W        W 8059  33.078  15.736   0.717
39842W        W 8060  31.120  33.913  14.539
39843W        W 8061  12.791   3.027  12.550
39844W        W 8062  37.536  31.389   3.881
39845W        W 8063  14.766  30.861  14.944
39846W        W 8064  13.303  42.871   3.711
39847W        W 8065  32.117  14.282   3.598
39848W        W 8066  25.106  40.972   2.369
39849W        W 8067  20.671  42.131  12.184
39850W        W 8068  33.315  41.000   1.364
39851W        W 8069  22.077  21.029   3.631
39852W        W 8070  38.502  21.557  11.890
39853W        W 8071  21.756   6.943   0.213
39854W        W 8072  37.990   9.584  13.296
39855W        W 8073   5.820   1.860   2.782
39856W        W 8074  19.273  21.609   2.315
39857W        W 8075   7.896  22.232   4.173
39858W        W 8076  27.049   8.282  14.440
39859W        W 8077  22.549  12.285  12.932
39860W        W 8078  42.912   3.064  11.709
39861W        W 8079  40.439  31.121   3.618
39862W        W 8080  21.591  39.412  10.822
39863W        W 8081  38.965   3.323  14.258
39864W        W 8082  26.468  33.460   2.259
39865W        W 8083  24.693  29.705  12.933
39866W        W 8084  34.939  16.346  13.506
39867W        W 8085  21.186  14.647   3.310
39868W        W 8086  42.311  25.031  14.729
39869W        W 8087  34.546  39.228   0.113
39870W        W 8088  41.533  31.979  13.737
39871W        W 8089   8.367  23.386  12.588
39872W        W 8090  34.942  20.121   1.739
39873W        W 8091   4.662  42.924   4.248
39874W        W 8092  28.417   1.971   4.715
39875W        W 8093   7.742   7.785   3.668
39876W        W 8094  36.518  36.893   2.641
39877W        W 8095  27.147  18.714   1.769
39878W        W 8096  20.627  30.527   3.286
39879W        W 8097  30.426  23.566  10.774
39880W        W 8098  24.569  33.384  11.047
39881W        W 8099  40.999  28.079   0.801
39882W        W 8100  16.619  27.925  10.922
39883W        W 8101  25.280  10.725  13.042
39884W        W 8102  41.681  41.324   0.238
39885W        W 8103  13.358  33.159   3.225
39886W        W 8104   6.817  22.529   2.364
39887W        W 8105  17.198   6.149   3.616
39888W        W 8106  39.264  43.109   1.791
39889W        W 8107  41.819  10.170   1.286
39890W        W 8108  24.553  22.781   0.355
39891W        W 8109   2.740  44.015  10.916
39892W        W 8110  15.216  26.944   0.502
39893W        W 8111  36.617  36.067   2.361
39894W        W 8112  30.438  40.345   3.638
39895W        W 8113  16.734  11.083   2.861
39896W        W 8114  29.955   1.734   2.512
39897W        W 8115  13.526  37.160  10.650
39898W        W 8116  28.711  17.079  11.517
39899W        W 8117  27.303  41.589  11.563
39900W        W 8118  34.232  15.754  13.943
39901W        W 8119   8.845  24.415  13.340
39902W        W 8120   1.481  11.362  14.092
39903W        W 8121  27.972  27.488  11.551
39904W        W 8122   0.003   8.825   4.166
39905W        W 8123  38.324  10.253  10.059
39906W        W 8124  43.852  11.088   0.867
39907W        W 8125  12.165  41.054   4.575
39908W        W 8126  26.453  16.755   4.501
39909W        W 8127  36.313  40.861  12.636
39910W        W 8128  41.365  15.769   1.888
39911W        W 8129  14.600  20.093   1.826
39912W        W 8130  25.670  14.849   1.247
39913W        W 8131  15.736  11.391  10.996
39914W        W 8132  16.669  25.420   4.342
39915W        W 8133  18.739  22.849  10.309
39916W        W 8134  38.395  35.481  10.773
39917W        W 8135  35.540  18.666  14.050
39918W        W 8136  38.869  17.120   5.145
39919W        W 8137   1.479  40.983   2.173
39920W        W 8138  19.538  34.018   0.313
39921W        W 8139  34.384   8.785  12.143
39922W        W 8140  17.143  29.144  14.382
39923W        W 8141  21.992  26.084  13.847
39924W        W 8142   5.437  11.369   1.240
39925W        W 8143  19.781  10.750  11.897
39926W        W 8144  32.894   9.940  14.801
39927W        W 8145   2.366  36.385  10.494
39928W        W 8146  41.628  31.924  12.120
39929W        W 8147  23.016  28.817   4.327
39930W        W 8148  31.967  32.937  14.356
39931W        W 8149   5.739  34.881   0.019
39932W        W 8150  18.516  40.032  12.977
39933W        W 8151   5.012   2.851   1.931
39934W        W 8152   4.202  20.763   4.002
39935W        W 8153  32.721  10.273  11.025
39936W        W 8154  34.853  21.948  12.437
39937W        W 8155  42.490  42.975   3.510
39938W        W 8156  19.453   5.799   0.700
39939W        W 8157   8.381   4.433  10.795
39940W        W 8158   2.375  13.470  11.133
39941W        W 8159  27.765   9.324   1.757
39942W        W 8160  41.528  16.839  12.450
39943W        W 8161  22.781  36.826   1.717
39944W        W 8162   9.125   8.315   2.680
39945W        W 8163  14.195  33.495   0.513
39946W        W 8164  28.384  42.818  12.025
39947W        W 8165   2.439  29.269  11.049
39948W        W 8166   5.928  44.875   9.818
39949W        W 8167  30.337  14.615  13.377
39950W        W 8168  19.897  19.043   2.705
39951W        W 8169  12.030  27.256  11.317
39952W        W 8170  14.775  13.249  13.564
39953W        W 8171   9.268  13.675   0.300
39954W        W 8172  13.493  13.375   4.637
39955W        W 8173   0.621   3.858  12.021
39956W        W 8174   2.416  14.840   2.018
39957W        W 8175  23.304  19.919   4.902
39958W        W 8176  23.150  43.954  11.497
39959W        W 8177  10.570  12.778   0.066
39960W        W 8178  18.256  43.340   4.264
39961W        W 8179   1.387  17.050   0.910
39962W        W 8180  26.914   0.874  11.168
39963W        W 8181  13.102  10.768  14.632
39964W        W 8182  37.289   1.660   1.774
39965W        W 8183  42.105  20.608   0.415
39966W        W 8184  18.307  14.775  11.979
39967W        W 8185   5.958  38.270   4.160
39968W        W 8186  39.348  27.283   4.722
39969W        W 8187  39.174  13.585  10.688
39970W        W 8188  31.093  20.009  14.819
39971W        W 8189  20.964  18.113  13.997
39972W        W 8190  34.187  33.124  13.237
39973W        W 8191  35.555  13.290  11.958
39974W        W 8192   0.175  27.978   0.959
39975W        W 8193  30.567  32.526   3.207
39976W        W 8194  44.116  21.242   4.914
39977W        W 8195  44.861  24.087   4.179
39978W        W 8196  21.076   1.687  11.080
39979W        W 8197   7.177  22.592   0.733
39980W        W 8198  28.329  39.770   2.769
39981W        W 8199  33.429  11.735   4.079
39982W        W 8200  44.411   4.217  14.069
39983W        W 8201  14.356  19.626   3.090
39984W        W 8202  38.997  41.447   3.895
39985W        W 8203  39.870  25.572   2.965
39986W        W 8204  18.065  37.420  12.496
39987W        W 8205  11.430   3.238   2.310
39988W        W 8206  26.705  23.128  11.987
39989W        W 8207  37.350  18.431  11.179
39990W        W 8208  14.748  44.435  14.002
39991W        W 8209  22.594   8.829   2.699
39992W        W 8210  27.247  40.322   4.703
39993W        W 8211  44.277  24.725   0.308
39994W        W 8212  42.310   3.266  13.524
39995W        W 8213  17.771  43.979  11.103
39996W        W 8214  11.263  17.301   9.858
39997W        W 8215   9.871   4.056  11.367
39998W        W 8216  39.095  10.216  13.731
39999W        W 8217   0.539  33.070   4.112
40000W        W 8218  38.516  34.978   0.618
40001W        W 8219  18.235  11.982   4.477
40002W        W 8220  44.180  20.108   2.900
40003W        W 8221   4.698  38.224   3.430
40004W        W 8222  28.404  21.502  13.457
40005W        W 8223  21.990   5.810  11.636
40006W        W 8224  35.667  21.066   2.913
40007W        W 8225  25.564   7.122   4.581
40008W        W 8226  37.524  26.653  11.130
40009W        W 8227  25.508  13.895  10.713
40010W        W 8228  35.094  33.196   2.801
40011W        W 8229  13.570  38.053   0.070
40012W        W 8230   3.203  22.757  13.499
40013W        W 8231   0.996  26.543  14.076
40014W        W 8232  36.158  35.834   2.344
40015W        W 8233  18.678  38.469  12.368
40016W        W 8234  15.506  27.919  10.079
40017W        W 8235  10.642  38.890  10.657
40018W        W 8236  22.190   5.449   4.538
40019W        W 8237  35.563  38.577  12.437
40020W        W 8238   5.153  27.444  11.441
40021W        W 8239  29.839  24.705  14.480
40022W        W 8240  33.845  33.365   0.265
40023W        W 8241  31.959  27.479  14.297
40024W        W 8242  17.765  31.179  14.061
40025W        W 8243  43.238  40.326   4.174
40026W        W 8244   5.405  10.154  14.874
40027W        W 8245  28.428  30.404   2.775
40028W        W 8246  40.318  15.279   1.943
40029W        W 8247  35.025  30.677  13.639
40030W        W 8248   1.327   1.368  10.900
40031W        W 8249   6.359  13.677   1.848
40032W        W 8250  26.113  19.828   1.893
40033W        W 8251  18.778  18.981  14.073
40034W        W 8252  23.792  10.137   0.006
40035W        W 8253  36.619  17.276  14.323
40036W        W 8254  23.727  26.920  14.578
40037W        W 8255  30.243  19.253   0.654
40038W        W 8256   4.697  28.074  14.255
40039W        W 8257   5.380  39.810  12.886
40040W        W 8258  31.613  37.357   2.772
40041W        W 8259  20.638  43.672  12.911
40042W        W 8260  16.269  17.605   0.871
40043W        W 8261  18.106  24.858  11.701
40044W        W 8262   8.858  16.890  12.958
40045W        W 8263   7.768  30.419  10.061
40046W        W 8264  11.156   7.111  11.530
40047W        W 8265  40.920  20.117   2.845
40048W        W 8266  23.037   8.742   2.434
40049W        W 8267  28.651  40.578  12.977
40050W        W 8268   1.420   9.174  14.821
40051W        W 8269  36.385  21.485   3.235
40052W        W 8270  15.260  24.301   0.847
40053W        W 8271  39.976  28.691  14.779
40054W        W 8272  29.562  15.904  11.012
40055W        W 8273  38.547  27.512  13.788
40056W        W 8274  16.694  17.631   3.355
40057W        W 8275  38.981  33.032   9.847
40058W        W 8276   9.381  28.692  12.557
40059W        W 8277   0.135   7.328  12.448
40060W        W 8278  22.661  40.465  12.387
40061W        W 8279  33.944  23.759   1.701
40062W        W 8280  40.084  33.851  10.489
40063W        W 8281  31.049  15.908  10.660
40064W        W 8282  19.781  37.599  12.403
40065W        W 8283  26.162  18.127  13.080
40066W        W 8284  40.022  16.169   0.395
40067W        W 8285  13.580  22.046   1.956
40068W        W 8286  38.416  16.541  14.316
40069W        W 8287  26.913  34.927   2.197
40070W        W 8288  17.882   6.705   1.905
40071W        W 8289  27.596   1.454   3.566
40072W        W 8290  13.869  16.585   2.217
40073W        W 8291  18.583  27.056  11.670
40074W        W 8292  39.057  43.837   4.586
40075W        W 8293  39.323  44.049   4.180
40076W        W 8294  36.785  40.530  13.944
40077W        W 8295  21.563  19.875  12.114
40078W        W 8296  35.180  18.808  12.282
40079W        W 8297  35.905  39.887  13.536
40080W        W 8298  29.974  40.937   1.127
40081W        W 8299  35.093  40.240   4.133
40082W        W 8300  41.452  29.655  12.022
40083W        W 8301  20.704  31.765  10.802
40084W        W 8302   1.228  30.306  14.370
40085W        W 8303   3.676   7.158  10.779
40086W        W 8304  15.452  29.241   2.258
40087W        W 8305  24.296  36.886  14.113
40088W        W 8306  13.172   4.791   3.246
40089W        W 8307  17.706  21.695  10.875
40090W        W 8308  17.027  22.956   3.453
40091W        W 8309  35.999  36.904   3.847
40092W        W 8310  20.212  38.703  10.756
40093W        W 8311  22.427   9.677  11.710
40094W        W 8312   8.421  28.585   0.708
40095W        W 8313  38.362  28.207  12.492
40096W        W 8314  17.094   2.954   3.602
40097W        W 8315  33.352   7.386  12.662
40098W        W 8316  16.089   3.776   4.041
40099W        W 8317  44.402   9.607  14.407
40100W        W 8318  11.292  44.521   0.963
40101W        W 8319  40.859  11.791  14.261
40102W        W 8320  21.796  13.220   1.372
40103W        W 8321  41.388   3.480  12.908
40104W        W 8322  16.314   0.091  14.918
40105W        W 8323  23.759  18.185   4.164
40106W        W 8324  13.746  19.171   2.335
40107W        W 8325  33.293  32.537   3.703
40108W        W 8326  12.009   2.723   0.707
40109W        W 8327   4.836  13.437  14.880
40110W        W 8328   3.721  44.861   3.729
40111W        W 8329  23.213  15.174  13.764
40112W        W 8330  18.926  44.464   4.455
40113W        W 8331   1.066  10.318   4.991
40114W        W 8332  31.238  41.806  13.301
40115W        W 8333  21.496  35.205   3.218
40116W        W 8334  30.999  21.063  12.098
40117W        W 8335  18.694  43.979  14.274
40118W        W 8336  25.795   0.678   4.842
40119W        W 8337   5.933  13.704   0.694
40120W        W 8338  18.069  30.426   1.410
40121W        W 8339  18.760  40.779  13.293
40122W        W 8340  17.825  28.606  14.882
40123W        W 8341  28.846   4.275  12.509
40124W        W 8342  17.222  19.530  14.857
40125W        W 8343  39.448   0.970  11.807
40126W        W 8344  30.958   7.266  14.460
40127W        W 8345  25.127  13.258   4.543
40128W        W 8346  43.813  21.355  12.886
40129W        W 8347  31.784   6.075  10.179
40130W        W 8348  22.080  29.534  12.985
40131W        W 8349  20.151   3.801   1.931
40132W        W 8350   4.486  43.872   0.384
40133W        W 8351   3.643  18.214  11.186
40134W        W 8352  38.462  39.782  12.982
40135W        W 8353  13.572  29.585   4.271
40136W        W 8354   6.345  12.896  11.484
40137W        W 8355  41.441  41.282   4.663
40138W        W 8356  12.834  24.657  12.450
40139W        W 8357  23.565  26.287  10.008
40140W        W 8358  27.911  33.791   2.449
40141W        W 8359   5.230  34.438  12.276
40142W        W 8360  27.562   4.154  12.511
40143W        W 8361  15.392  36.889  14.782
40144W        W 8362  10.565  35.583   1.277
40145W        W 8363   1.257  23.410  11.997
40146W        W 8364  22.593   5.494   1.877
40147W        W 8365  33.573  13.749  12.925
40148W        W 8366  29.138  11.649  13.553
40149W        W 8367  29.562   6.390  12.902
40150W        W 8368  44.902  29.113   0.618
40151W        W 8369  21.538   1.624  14.469
40152W        W 8370  18.126  18.890   0.294
40153W        W 8371  30.486  13.366  14.046
40154W        W 8372   3.874  28.098   0.701
40155W        W 8373  36.470   1.422   5.244
40156W        W 8374  39.579   1.298  13.922
40157W        W 8375  10.242  31.894  10.280
40158W        W 8376  21.962  25.311   2.206
40159W        W 8377   6.833  19.664  14.230
40160W        W 8378   2.598  16.190   4.216
40161W        W 8379   5.389   2.822  11.442
40162W        W 8380  12.727  29.136   2.147
40163W        W 8381  15.040   7.971   2.632
40164W        W 8382  26.004   4.157   1.788
40165W        W 8383  40.781  21.747   4.129
40166W        W 8384  30.420  12.841  11.653
40167W        W 8385  15.682  11.917  12.038
40168W        W 8386  33.393  35.452  13.885
40169W        W 8387   3.312  34.378  14.023
40170W        W 8388   0.439  43.587   0.856
40171W        W 8389  18.627   1.807   1.830
40172W        W 8390  23.749   5.376  12.141
40173W        W 8391  19.519  44.531   5.163
40174W        W 8392  25.586   6.242  13.559
40175W        W 8393  12.320  31.665   1.267
40176W        W 8394  11.664  34.948   0.824
40177W        W 8395  30.651  40.786   4.849
40178W        W 8396  16.506  37.039   1.761
40179W        W 8397  14.059  14.362  11.711
40180W        W 8398  20.026   8.151   3.661
40181W        W 8399  36.745  42.273  14.296
40182W        W 8400  36.748   4.297  11.171
40183W        W 8401  36.928  25.105  14.296
40184W        W 8402  40.320   1.316  13.415
40185W        W 8403  43.441  15.721  14.476
40186W        W 8404  26.775   7.843   4.604
40187W        W 8405  33.958  24.345  14.001
40188W        W 8406  21.025  22.263   0.255
40189W        W 8407   8.275   5.239   3.544
40190W        W 8408  24.932  20.905   0.195
40191W        W 8409  27.307   1.419  13.095
40192W        W 8410  26.993  43.898   4.616
40193W        W 8411  34.499  15.216   3.371
40194W        W 8412  37.390  28.454  11.513
40195W        W 8413  19.218   5.244  12.170
40196W        W 8414  15.292   9.584   1.244
40197W        W 8415  11.183  19.548  10.720
40198W        W 8416   6.370  33.638   1.986
40199W        W 8417  11.981  32.156   2.169
40200W        W 8418   3.038  13.785  13.060
40201W        W 8419  24.561  29.126  11.296
40202W        W 8420  38.993  37.164  11.929
40203W        W 8421   5.088   4.815   4.040
40204W        W 8422  29.568  15.879   3.079
40205W        W 8423  27.465  21.577  10.494
40206W        W 8424  28.569  29.087  13.256
40207W        W 8425  42.548   5.433   2.467
40208W        W 8426  12.346   9.768  11.891
40209W        W 8427  42.048  26.712   3.287
40210W        W 8428  27.646  34.730   3.281
40211W        W 8429  33.570  26.417   4.451
40212W        W 8430  39.699  15.768   4.465
40213W        W 8431  14.532  41.391  12.086
40214W        W 8432  39.458  43.205   4.685
40215W        W 8433  33.659  36.840  12.555
40216W        W 8434   9.479  42.077   5.169
40217W        W 8435  39.969   2.014   2.903
40218W        W 8436  23.217   8.712   3.796
40219W        W 8437   4.619   1.358  13.480
40220W        W 8438  37.908  18.505   2.351
40221W        W 8439   7.085  21.132   2.105
40222W        W 8440  23.170  34.904  12.672
40223W        W 8441  37.629  42.440   2.797
40224W        W 8442  31.152  14.899   3.779
40225W        W 8443   8.344   1.458   3.527
40226W        W 8444   1.734  14.706  10.901
40227W        W 8445  13.690  33.954   3.241
40228W        W 8446   2.911   9.730  12.429
40229W        W 8447  26.672  41.331   2.176
40230W        W 8448  42.050  31.400   4.092
40231W        W 8449  30.076  21.635   4.874
40232W        W 8450  44.875  23.119  13.382
40233W        W 8451  15.169  42.472  10.316
40234W        W 8452  17.783  40.471  14.832
40235W        W 8453   6.315  12.129   4.334
40236W        W 8454  31.019  17.084   1.190
40237W        W 8455  19.062  35.077   2.643
40238W        W 8456  19.400  43.268   4.559
40239W        W 8457  38.490   8.109  14.737
40240W        W 8458  11.863  33.525   3.804
40241W        W 8459  27.375  25.590   2.810
40242W        W 8460  43.918   9.349   3.727
40243W        W 8461  36.844  11.781   2.813
40244W        W 8462  37.620  41.232  11.667
40245W        W 8463  16.299  36.571   2.596
40246W        W 8464  17.609  35.913   3.292
40247W        W 8465   0.443   9.758  10.676
40248W        W 8466  33.938   8.868   3.230
40249W        W 8467  11.795   2.968  12.905
40250W        W 8468  27.465  27.956  13.806
40251W        W 8469  13.907  25.800   0.704
40252W        W 8470   5.405  16.766  11.123
40253W        W 8471   6.343  20.469   2.782
40254W        W 8472  11.655  27.001   3.811
40255W        W 8473  23.651  15.316   1.909
40256W        W 8474   9.687  12.350   0.839
40257W        W 8475  24.070  44.009  13.954
40258W        W 8476  15.726   0.951   0.939
40259W        W 8477  17.093  12.235   2.765
40260W        W 8478  40.456  12.344   2.193
40261W        W 8479   8.799   1.083  11.837
40262W        W 8480   4.885  15.876  11.722
40263W        W 8481  13.608  29.119   4.076
40264W        W 8482  19.227  22.306   2.836
40265W        W 8483  33.475  14.706   4.795
40266W        W 8484  35.302  21.577   4.180
40267W        W 8485  14.258   4.007   4.680
40268W        W 8486   9.662  30.888   2.149
40269W        W 8487  24.170   0.872  10.586
40270W        W 8488  31.947  16.348  10.354
40271W        W 8489  23.439  31.159   0.524
40272W        W 8490  16.537  40.224   0.409
40273W        W 8491   7.205   0.411   1.409
40274W        W 8492  43.592  13.878  14.040
40275W        W 8493  21.025   4.643   4.199
40276W        W 8494  38.346  43.496   1.758
40277W        W 8495  35.653  28.443   4.649
40278W        W 8496  44.422  11.631   1.272
40279W        W 8497  28.170  40.358   0.985
40280W        W 8498  42.329  24.058   4.168
40281W        W 8499  41.986  38.588   3.312
40282W        W 8500  12.883   1.359  11.062
40283W        W 8501  22.322  18.654   0.782
40284W        W 8502  40.617  31.525  13.074
40285W        W 8503   0.375   2.721  11.574
40286W        W 8504  28.620  21.499  12.982
40287W        W 8505  11.202  23.683  12.936
40288W        W 8506   8.191  37.271  11.067
40289W        W 8507  21.239  33.599   1.791
40290W        W 8508  20.010  11.354  14.073
40291W        W 8509  41.445  43.039  13.445
40292W        W 8510   3.080  10.365  10.851
40293W        W 8511  29.631   6.297   1.026
40294W        W 8512   7.733  19.852  12.486
40295W        W 8513  43.446  40.430  12.326
40296W        W 8514  38.216  13.966   1.289
40297W        W 8515   2.244   8.847   0.634
40298W        W 8516  29.235  19.002  12.441
40299W        W 8517  30.856  35.160   4.592
40300W        W 8518  31.508  31.894  10.704
40301W        W 8519  32.994  20.939  14.868
40302W        W 8520  41.742   0.470  13.321
40303W        W 8521  12.313  44.100  10.937
40304W        W 8522  43.994  21.450  14.088
40305W        W 8523  30.838   3.322   4.031
40306W        W 8524  27.423  21.005   2.637
40307W        W 8525  14.211   5.020   4.788
40308W        W 8526   2.103  42.895  12.499
40309W        W 8527  29.231   0.829   3.351
40310W        W 8528  11.828   0.269   5.104
40311W        W 8529  20.914   1.014   1.338
40312W        W 8530  43.817  32.539   2.464
40313W        W 8531   1.206  14.594  12.089
40314W        W 8532  33.712   0.653   0.807
40315W        W 8533  12.775   5.797   2.631
40316W        W 8534   3.035  34.583  12.998
40317W        W 8535  12.273  29.453  12.978
40318W        W 8536  39.728  10.271   4.445
40319W        W 8537   0.490  22.236  11.258
40320W        W 8538  14.119   3.927   2.410
40321W        W 8539   4.198  21.538   3.168
40322W        W 8540  17.093  31.500  12.605
40323W        W 8541  11.387  10.611   3.252
40324W        W 8542  20.018  28.817  10.663
40325W        W 8543  32.611  23.123   2.468
40326W        W 8544   3.290  32.119  13.578
40327W        W 8545  40.241  21.189  12.969
40328W        W 8546  16.787   8.495   4.095
40329W        W 8547  15.680  31.555  12.843
40330W        W 8548   3.632  31.790  11.547
40331W        W 8549  11.555  13.711   5.006
40332W        W 8550  37.092  22.713   0.280
40333W        W 8551  38.135  36.219  14.863
40334W        W 8552  41.512  22.167  11.578
40335W        W 8553  18.493  40.313   1.434
40336W        W 8554  20.792  34.641   4.472
40337W        W 8555   8.390  34.399   2.234
40338W        W 8556  38.753   7.633  14.845
40339W        W 8557   1.208  31.356   0.350
40340W        W 8558  44.684  15.122  12.973
40341W        W 8559  40.082  27.567  10.739
40342W        W 8560  17.105  13.635   3.225
40343W        W 8561  13.096   0.840   1.761
40344W        W 8562  15.805  11.757   4.048
40345W        W 8563  30.493  31.393  10.574
40346W        W 8564  37.532  13.460  11.575
40347W        W 8565  10.092  38.687  13.768
40348W        W 8566  39.569   6.208   5.078
40349W        W 8567  41.091  11.848  12.938
40350W        W 8568   4.357   6.265   3.784
40351W        W 8569   5.094   3.961   2.741
40352W        W 8570  22.045  14.072   3.457
40353W        W 8571  30.496  14.614   0.249
40354W        W 8572  18.968  10.994  10.682
40355W        W 8573  30.423  11.372  11.627
40356W        W 8574  30.577   0.685  11.216
40357W        W 8575   8.274  29.883   2.857
40358W        W 8576  30.839  17.769  13.608
40359W        W 8577  20.709   9.812   3.830
40360W        W 8578  11.762  19.888  12.522
40361W        W 8579  10.410  43.831   4.244
40362W        W 8580  21.359  14.739  10.719
40363W        W 8581   5.658  14.138  10.715
40364W        W 8582  37.182  28.130   4.971
40365W        W 8583   5.468  30.825   4.218
40366W        W 8584  38.037  32.015   0.239
40367W        W 8585  39.608  13.216   3.724
40368W        W 8586  21.596  17.511   1.983
40369W        W 8587  37.199  34.438  14.004
40370W        W 8588  35.616   1.681  14.713
40371W        W 8589   2.676  35.449  13.450
40372W        W 8590  31.100  17.140  11.606
40373W        W 8591  42.826  21.959   2.758
40374W        W 8592   1.815  43.834  12.023
40375W        W 8593   8.856  18.834   1.969
40376W        W 8594  44.435  17.596   0.409
40377W        W 8595   4.678  34.222  10.110
40378W        W 8596  24.294  33.808   5.115
40379W        W 8597  16.850  32.691   1.312
40380W        W 8598  26.145  19.745  14.399
40381W        W 8599  18.232  39.371   1.321
40382W        W 8600  39.399   0.273  10.593
40383W        W 8601  22.608  42.411  14.973
40384W        W 8602  15.736  34.855   2.865
40385W        W 8603  15.929  19.689  12.447
40386W        W 8604   0.301  35.369   4.355
40387W        W 8605  17.135  37.064   0.878
40388W        W 8606  27.483  10.756  13.528
40389W        W 8607  13.249  22.056  12.057
40390W        W 8608  38.536   9.264   1.168
40391W        W 8609  37.780  15.332   0.215
40392W        W 8610   1.920  15.145   4.520
40393W        W 8611  10.110  42.398  13.854
40394W        W 8612  14.209  10.460   2.737
40395W        W 8613  23.561  28.248  10.416
40396W        W 8614  32.562  39.916   1.012
40397W        W 8615  29.543  36.165   2.272
40398W        W 8616   5.701  19.135  12.404
40399W        W 8617   2.707  34.379   3.343
40400W        W 8618  18.619  16.343  14.968
40401W        W 8619   6.681  40.916  11.361
40402W        W 8620  34.915  15.771   2.847
40403W        W 8621   7.917  15.701  10.943
40404W        W 8622  16.250  12.188   2.485
40405W        W 8623  11.304  28.198  10.720
40406W        W 8624  18.211  29.215   1.850
40407W        W 8625   3.772  25.628  13.999
40408W        W 8626   7.375  26.263  14.993
40409W        W 8627  16.422  14.761   0.567
40410W        W 8628   8.583   6.905   0.259
40411W        W 8629  36.196  38.500   0.466
40412W        W 8630   0.844  40.947   4.471
40413W        W 8631  24.010  23.019   3.683
40414W        W 8632  41.165  33.695  11.026
40415W        W 8633   2.709   6.803  13.627
40416W        W 8634   2.208  26.885  11.136
40417W        W 8635  44.764  36.049  14.128
40418W        W 8636  30.540   3.180   0.292
40419W        W 8637  40.375   8.613  13.568
40420W        W 8638  24.504  31.521  11.400
40421W        W 8639   2.579   4.879  14.482
40422W        W 8640   0.710  37.087  12.941
40423W        W 8641   3.422  32.601  14.506
40424W        W 8642  14.270  19.501  14.664
40425W        W 8643  19.920   1.732   1.463
40426W        W 8644  13.735  11.085  14.939
40427W        W 8645   5.320   0.546  14.740
40428W        W 8646  23.046  34.672  14.951
40429W        W 8647  16.777  41.430  12.168
40430W        W 8648  28.539   2.464   4.848
40431W        W 8649  26.391  11.376  12.150
40432W        W 8650  44.386   7.325   3.197
40433W        W 8651   4.783  39.946   4.305
40434W        W 8652  22.736   4.968   1.812
40435W        W 8653   2.727  27.532  14.497
40436W        W 8654  30.070   7.163  10.695
40437W        W 8655  21.697   4.939   1.716
40438W        W 8656  23.556  44.816  13.505
40439W        W 8657  16.186  11.049  14.511
40440W        W 8658  15.687  25.595   3.538
40441W        W 8659  36.626  34.754  13.185
40442W        W 8660  39.517  18.318   3.649
40443W        W 8661  21.022  44.958  14.162
40444W        W 8662   0.732  17.020   1.664
40445W        W 8663  15.536  16.626   3.541
40446W        W 8664  32.977  21.328   0.540
40447W        W 8665  26.332   4.862   0.389
40448W        W 8666   3.319   3.385   2.402
40449W        W 8667  27.613  11.745  13.604
40450W        W 8668  23.716  18.796  14.977
40451W        W 8669  28.402  38.892  12.414
40452W        W 8670  25.409  27.917  13.890
40453W        W 8671  14.353  34.967   4.254
40454W        W 8672  23.160  32.628  11.997
40455W        W 8673  33.100   4.072   3.667
40456W        W 8674  33.453  37.798   0.920
40457W        W 8675  25.378  39.587  14.935
40458W        W 8676   1.353  32.868  14.384
40459W        W 8677  31.567   6.709   0.955
40460W        W 8678  21.344  35.417  12.591
40461W        W 8679  42.507   4.426  12.494
40462W        W 8680  27.719   2.169   4.250
40463W        W 8681  38.947  19.265  10.859
40464W        W 8682  36.680  32.437   0.839
40465W        W 8683  31.086  32.899  12.506
40466W        W 8684  26.090  27.006  14.807
40467W        W 8685  15.532  37.912  12.086
40468W        W 8686  32.507  18.178   0.676
40469W        W 8687  16.087  20.223  13.662
40470W        W 8688  37.488  38.430  12.401
40471W        W 8689  27.683  29.167  12.626
40472W        W 8690  17.200  19.982  13.931
40473W        W 8691  16.033  30.612   4.114
40474W        W 8692  42.074  15.838   2.955
40475W        W 8693  21.239   8.592   2.214
40476W        W 8694  42.629  34.333   4.909
40477W        W 8695  10.409   4.977  10.595
40478W        W 8696  20.743  41.463   1.797
40479W        W 8697  10.751   6.191   1.011
40480W        W 8698  21.735  33.854  14.873
40481W        W 8699  13.416   2.477   1.280
40482W        W 8700   6.906  13.191  10.619
40483W        W 8701   1.011  22.165   2.088
40484W        W 8702   5.228  42.026   2.692
40485W        W 8703   1.192  40.979   1.716
40486W        W 8704  17.600  40.721   0.254
40487W        W 8705  16.772  11.920   0.471
40488W        W 8706  30.907  18.863  11.071
40489W        W 8707  21.589  35.485   1.424
40490W        W 8708  29.868   4.605  11.717
40491W        W 8709   8.894  35.635   0.810
40492W        W 8710  35.903  15.109  13.530
40493W        W 8711  43.715  16.169  14.512
40494W        W 8712  21.907  43.405   0.329
40495W        W 8713  17.352  43.686   4.179
40496W        W 8714  34.935  11.421  13.556
40497W        W 8715  23.705  19.528   2.844
40498W        W 8716  22.789  14.295   4.662
40499W        W 8717   6.617  17.497  10.703
40500W        W 8718  13.604  29.111   1.936
40501W        W 8719  38.423  35.417   0.871
40502W        W 8720  42.856  38.087  10.442
40503W        W 8721  16.032  20.048   1.966
40504W        W 8722  18.189  21.681   1.247
40505W        W 8723  14.635  13.825   4.608
40506W        W 8724  38.614   3.327  14.868
40507W        W 8725   3.315  21.221  13.489
40508W        W 8726   8.708  30.446   3.796
40509W        W 8727  15.058  11.503  12.516
40510W        W 8728  44.928  16.500   3.835
40511W        W 8729  11.345   8.072   2.883
40512W        W 8730  18.973   4.050  13.823
40513W        W 8731   4.855  27.145   0.823
40514W        W 8732   5.112  20.251   3.162
40515W        W 8733  25.421  34.812  14.776
40516W        W 8734  38.542  16.231  11.591
40517W        W 8735  32.586  12.784  12.576
40518W        W 8736  15.999  23.631   2.231
40519W        W 8737  26.190  25.760   4.475
40520W        W 8738  23.084  30.856   1.282
40521W        W 8739  36.525  16.387   0.577
40522W        W 8740   2.212  20.284   3.637
40523W        W 8741  20.228  41.180  10.686
40524W        W 8742   7.060  12.192   0.938
40525W        W 8743  29.507  41.112  14.255
40526W        W 8744  24.247  35.186   4.691
40527W        W 8745  19.447   1.663   1.239
40528W        W 8746  30.955  40.164   3.541
40529W        W 8747  16.606  34.620   2.588
40530W        W 8748  38.521  39.105  14.186
40531W        W 8749  13.285  28.166  12.607
40532W        W 8750  35.286  18.467  11.884
40533W        W 8751  22.475  44.279   4.137
40534W        W 8752  10.424  24.204  11.030
40535W        W 8753  25.239  11.263  13.874
40536W        W 8754   9.069  21.946   3.209
40537W        W 8755  21.139   8.481  12.529
40538W        W 8756   0.953   7.218  11.148
40539W        W 8757  43.249  22.621   2.879
40540W        W 8758   3.883  36.130   0.148
40541W        W 8759  15.193   2.492   3.052
40542W        W 8760   1.473  43.227  10.506
40543W        W 8761  26.126  30.693  11.059
40544W        W 8762  17.535  23.149   2.730
40545W        W 8763  10.156  23.772   0.536
40546W        W 8764  33.972  19.541  12.681
40547W        W 8765  38.558  32.409   4.538
40548W        W 8766  38.653  32.344  13.339
40549W        W 8767  17.679   7.611   2.864
40550W        W 8768   6.777  44.723   4.222
40551W        W 8769  36.455  25.827  12.965
40552W        W 8770  22.278  27.032  11.608
40553W        W 8771  41.523  32.984  14.282
40554W        W 8772  20.549  13.356  12.970
40555W        W 8773  35.279  34.898   2.174
40556W        W 8774  41.840  40.103  13.596
40557W        W 8775  32.486  44.617  12.154
40558W        W 8776  12.325   1.758  13.912
40559W        W 8777  40.064  13.609   1.414
40560W        W 8778   6.903   4.572  11.512
40561W        W 8779  33.413  16.158  14.928
40562W        W 8780   0.006  17.801   1.821
40563W        W 8781  25.694  10.191   2.801
40564W        W 8782  38.440  13.832  11.167
40565W        W 8783  21.010   8.116   0.389
40566W        W 8784  26.624  12.542  11.184
40567W        W 8785  10.164   2.405  14.949
40568W        W 8786  20.607  18.626  10.714
40569W        W 8787  12.939  41.993   2.613
40570W        W 8788   7.651  43.728   4.221
40571W        W 8789   6.244  22.601   2.185
40572W        W 8790  43.448  26.601   4.960
40573W        W 8791   1.504  34.697   4.858
40574W        W 8792  31.705  33.301   4.250
40575W        W 8793  25.387  28.706   2.158
40576W        W 8794  12.096  30.676   3.781
40577W        W 8795   1.220  23.754  10.798
40578W        W 8796  34.565  12.784   1.726
40579W        W 8797  25.686  43.365   1.964
40580W        W 8798  13.513  18.178   0.814
40581W        W 8799  31.736  29.780   3.151
40582W        W 8800  12.754   3.164  13.356
40583W        W 8801  22.624  15.786   4.160
40584W        W 8802  42.122  36.880   3.848
40585W        W 8803  18.093   6.377   0.899
40586W        W 8804  20.726  23.098   0.725
40587W        W 8805  26.444  36.153   3.243
40588W        W 8806  32.912  31.158  10.737
40589W        W 8807  14.060   9.588  13.519
40590W        W 8808  13.939  29.180  13.912
40591W        W 8809  32.494  13.354   3.259
40592W        W 8810  44.079  39.883  12.063
40593W        W 8811  23.794   4.680  13.096
40594W        W 8812  40.699  24.923   4.293
40595W        W 8813  43.774  17.155  11.971
40596W        W 8814   4.977  28.668   1.842
40597W        W 8815   3.157   5.998   0.763
40598W        W 8816  35.338  24.968   0.768
40599W        W 8817  15.754  23.749  13.119
40600W        W 8818   4.437   5.821   2.918
40601W        W 8819  14.074  10.154   3.113
40602W        W 8820  37.891  27.164  10.468
40603W        W 8821  32.613  33.055   3.830
40604W        W 8822  25.341  12.640   4.035
40605W        W 8823  14.776  19.151   3.706
40606W        W 8824  40.899  23.906  13.332
40607W        W 8825  13.548  12.143  12.031
40608W        W 8826   0.376  27.059   1.174
40609W        W 8827  30.695  27.928  12.384
40610W        W 8828  20.240  27.237  11.965
40611W        W 8829  39.830   2.975   3.878
40612W        W 8830  19.143   6.595   0.155
40613W        W 8831  15.564  26.501  12.513
40614W        W 8832   4.234  38.245   0.180
40615W        W 8833  13.802  10.729   4.575
40616W        W 8834  22.645  22.746  12.412
40617W        W 8835  44.733  10.100   2.848
40618W        W 8836  18.620  42.948  12.407
40619W        W 8837  14.790  15.355   9.937
40620W        W 8838   8.174  36.898  11.897
40621W        W 8839  26.735  12.355   4.166
40622W        W 8840  34.963  26.847   1.488
40623W        W 8841   0.906  18.285   1.454
40624W        W 8842  22.830  17.521  11.998
40625W        W 8843  15.358  26.240  13.984
40626W        W 8844   0.436  31.343  12.579
40627W        W 8845  41.472  21.966   2.692
40628W        W 8846   1.935   7.684   0.019
40629W        W 8847   1.002   8.898   3.201
40630W        W 8848   8.831   0.559  14.904
40631W        W 8849   6.945  15.706   2.683
40632W        W 8850  11.373  18.695  11.131
40633W        W 8851  41.721  27.637   3.302
40634W        W 8852   9.050   6.746  11.538
40635W        W 8853  11.628  18.279   0.380
40636W        W 8854  25.523  16.893   0.900
40637W        W 8855  24.742  38.389   4.101
40638W        W 8856  14.287  23.991  12.116
40639W        W 8857  28.621  35.435   3.237
40640W        W 8858  24.154  28.450  10.698
40641W        W 8859  42.784   3.693  13.015
40642W        W 8860  43.393  27.573   1.671
40643W        W 8861  20.918  14.326   2.445
40644W        W 8862  36.051   7.306   0.963
40645W        W 8863   6.285   3.054   1.471
40646W        W 8864  32.306  14.839  13.055
40647W        W 8865  36.127  16.680   0.428
40648W        W 8866  34.389  42.318  14.772
40649W        W 8867  38.333  27.148  11.589
40650W        W 8868  35.526  16.320  13.720
40651W        W 8869  43.290  18.458   4.137
40652W        W 8870  40.436  25.733   3.617
40653W        W 8871   7.103  17.122   1.897
40654W        W 8872  29.513   9.431  12.965
40655W        W 8873  16.333  44.922   2.640
40656W        W 8874  11.629  44.386   3.255
40657W        W 8875   2.673  42.000  13.850
40658W        W 8876  14.202  12.333   0.729
40659W        W 8877  24.577  20.237   3.114
40660W        W 8878  10.882  44.026   1.791
40661W        W 8879   0.985  40.869   2.192
40662W        W 8880   2.362  11.889   2.745
40663W        W 8881  12.567  36.422  13.366
40664W        W 8882  24.466  12.142   2.021
40665W        W 8883  27.681  13.732   2.588
40666W        W 8884  12.189  11.881  14.901
40667W        W 8885  36.962  38.826   3.055
40668W        W 8886  44.213   5.852  10.416
40669W        W 8887   7.428  36.534   0.931
40670W        W 8888   6.851  39.401  10.656
40671W        W 8889  25.597  39.840   1.193
40672W        W 8890  36.869  41.471   2.126
40673W        W 8891   6.572   6.162  12.646
40674W        W 8892  29.188  24.613  10.886
40675W        W 8893  35.562   6.861  11.656
40676W        W 8894   7.813  39.015   3.747
40677W        W 8895  32.796  42.893  12.467
40678W        W 8896  28.993  26.465   1.529
40679W        W 8897   6.348  11.111  11.036
40680W        W 8898  21.937  20.645   1.416
40681W        W 8899  18.047  32.809   4.571
40682W        W 8900   6.741  28.540   3.334
40683W        W 8901   5.086  33.743   3.284
40684W        W 8902  11.320  40.671   0.436
40685W        W 8903  17.101  13.399   1.729
40686W        W 8904  41.993  28.533  14.858
40687W        W 8905  22.265  13.915  11.321
40688W        W 8906   8.756  11.393  14.275
40689W        W 8907  37.834  30.079  10.856
40690W        W 8908   3.994  11.171   0.831
40691W        W 8909  16.730  11.602   2.892
40692W        W 8910  31.016  17.420   0.759
40693W        W 8911  30.690  42.398  14.369
40694W        W 8912  20.804  30.545   1.933
40695W        W 8913   2.922  39.503   0.593
40696W        W 8914  26.988   9.537  10.293
40697W        W 8915  34.167   9.204   1.836
40698W        W 8916  36.393  39.921   0.012
40699W        W 8917  28.160   2.868  10.182
40700W        W 8918  10.674  34.970  10.710
40701W        W 8919  10.906  39.831  12.628
40702W        W 8920   0.336  42.418   0.318
40703W        W 8921  15.437  23.723   3.389
40704W        W 8922  42.045  13.926  14.298
40705W        W 8923  13.119  42.020   0.423
40706W        W 8924  28.225  18.877  11.165
40707W        W 8925   1.918  22.344  14.441
40708W        W 8926  12.700  29.199  11.988
40709W        W 8927   3.454  44.570   3.365
40710W        W 8928  42.516   1.463  14.529
40711W        W 8929  33.460   3.897   1.227
40712W        W 8930  26.065  35.589   2.982
40713W        W 8931  14.883   4.674   0.911
40714W        W 8932  31.143   4.848  14.267
40715W        W 8933  13.875   7.380  14.907
40716W        W 8934  37.674   0.488  10.336
40717W        W 8935  22.293   8.422   2.663
40718W        W 8936  44.823   3.234   3.285
40719W        W 8937  27.472  19.008   1.384
40720W        W 8938  13.111  19.546  14.867
40721W        W 8939  32.077  34.504   1.191
40722W        W 8940  39.209   1.719  13.905
40723W        W 8941  41.943  23.039  11.508
40724W        W 8942  17.810  21.777  12.410
40725W        W 8943  36.017  12.318  10.676
40726W        W 8944  26.383   4.876   4.639
40727W        W 8945   8.452  14.026   2.894
40728W        W 8946  19.167  33.724   0.954
40729W        W 8947  37.979  30.545   0.453
40730W        W 8948   9.729  24.156  13.323
40731W        W 8949  28.158   1.969   2.625
40732W        W 8950  13.576  12.202   4.117
40733W        W 8951  15.402  12.797   0.306
40734W        W 8952   9.576  18.695  10.722
40735W        W 8953   0.516   6.144   3.251
40736W        W 8954   2.715  43.486  12.328
40737W        W 8955  33.572  20.981  13.022
40738W        W 8956  20.813   4.333   4.681
40739W        W 8957  16.202  39.304   1.489
40740W        W 8958  25.288  13.166  10.428
40741W        W 8959  23.251  16.658   1.101
40742W        W 8960  16.954  17.679  14.818
40743W        W 8961   9.765  37.654   3.976
40744W        W 8962  29.447  44.414  10.018
40745W        W 8963  40.227  26.493   3.177
40746W        W 8964  21.458   0.103   4.247
40747W        W 8965  29.016   1.151  11.830
40748W        W 8966  22.136  26.690   0.199
40749W        W 8967  23.429  22.102  12.816
40750W        W 8968   8.747   6.432  10.980
40751W        W 8969  19.849  20.090  13.983
40752W        W 8970  40.962  15.301  14.830
40753W        W 8971  27.329  13.723   5.104
40754W        W 8972  15.837   6.766   1.158
40755W        W 8973  11.473  35.461   2.208
40756W        W 8974   6.910  42.406  14.195
40757W        W 8975  40.801   0.788   1.303
40758W        W 8976   5.192  24.679   1.827
40759W        W 8977  31.959  25.123   1.026
40760W        W 8978   9.583  21.018   1.777
40761W        W 8979   0.861   8.099  13.951
40762W        W 8980  16.608  31.902   4.778
40763W        W 8981  22.414  24.489  14.515
40764W        W 8982   4.657  28.279  11.268
40765W        W 8983  29.101  12.240   1.287
40766W        W 8984  12.616  16.469  10.628
40767W        W 8985  28.403   1.899  14.446
40768W        W 8986  39.373  10.267  10.186
40769W        W 8987   6.238  43.082  14.527
40770W        W 8988  29.045  34.764  12.598
40771W        W 8989  29.150  42.725  13.870
40772W        W 8990  41.293  28.557  12.951
40773W        W 8991   3.331  11.682  11.593
40774W        W 8992  31.367  35.547  11.927
40775W        W 8993  29.307  28.120   0.151
40776W        W 8994  13.430   5.781  13.092
40777W        W 8995   4.154  19.833   2.931
40778W        W 8996  16.855  41.784   3.045
40779W        W 8997  12.349  25.613   3.211
40780W        W 8998  10.375  24.587   0.780
40781W        W 8999  13.052  37.362  13.889
40782W        W 9000  35.944  27.884   3.649
40783W        W 9001  32.605  19.018   3.250
40784W        W 9002  33.843   3.674   3.199
40785W        W 9003  28.842   6.461  13.359
40786W        W 9004  21.472  19.177  11.586
40787W        W 9005  16.518  43.829  13.032
40788W        W 9006  24.484  18.216  14.335
40789W        W 9007  40.500   1.271   4.066
40790W        W 9008  15.232  42.366   0.143
40791W        W 9009  42.010   9.691   1.173
40792W        W 9010  11.388  15.313  10.640
40793W        W 9011   6.760   5.989  10.839
40794W        W 9012  26.348  32.447  12.216
40795W        W 9013  25.825  29.587  12.099
40796W        W 9014  21.581  42.032   2.906
40797W        W 9015  23.902  17.253   2.887
40798W        W 9016  28.523  22.790  13.004
40799W        W 9017   0.306  37.855   3.141
40800W        W 9018  22.047   8.825   2.948
40801W        W 9019  37.959   8.601  11.463
40802W        W 9020   4.333  29.916   0.394
40803W        W 9021  36.618   3.521   1.961
40804W        W 9022  42.491   2.252   2.805
40805W        W 9023   5.586  26.897   4.066
40806W        W 9024   1.496  22.116  14.246
40807W        W 9025  33.488  10.065  14.058
40808W        W 9026  19.740  32.509  11.540
40809W        W 9027   6.302  37.704   9.975
40810W        W 9028  23.686  34.526   0.437
40811W        W 9029  29.170   6.936   2.668
40812W        W 9030  18.993  17.852   3.120
40813W        W 9031  36.022  24.262  11.676
40814W        W 9032  33.588  43.048   3.609
40815W        W 9033  15.059  13.184   0.275
40816W        W 9034   8.755  42.397  10.654
40817W        W 9035  40.223  36.811  11.741
40818W        W 9036  19.193   1.912  13.877
40819W        W 9037  18.853  31.561   3.958
40820W        W 9038  25.545  44.651   3.265
40821W        W 9039  26.003   5.256   1.597
40822W        W 9040  14.215  34.654  14.603
40823W        W 9041  34.909  23.730   3.409
40824W        W 9042  15.167   5.122   0.874
40825W        W 9043  10.941  26.810   1.189
40826W        W 9044  16.624  35.601  12.520
40827W        W 9045   9.835   9.355  11.603
40828W        W 9046  30.005  11.336   4.106
40829W        W 9047   9.737  12.186  13.887
40830W        W 9048  31.616  28.418  12.279
40831W        W 9049  27.150   7.310  11.255
40832W        W 9050  14.406  42.915   3.573
40833W        W 9051  38.896  36.254  10.199
40834W        W 9052   1.771   3.000  14.919
40835W        W 9053  22.434  29.303   0.825
40836W        W 9054  21.215  20.968  12.088
40837W        W 9055  17.624   7.858  11.436
40838W        W 9056  28.022   3.882  12.485
40839W        W 9057  39.989   0.231   1.978
40840W        W 9058  39.877  29.888   2.977
40841W        W 9059  18.522  38.997  11.153
40842W        W 9060  21.848  36.571   2.454
40843W        W 9061  12.315  14.588   2.607
40844W        W 9062  20.260   9.692  14.292
40845W        W 9063  26.792   9.483  12.013
40846W        W 9064  31.964  39.342  12.524
40847W        W 9065  14.499   7.586   1.919
40848W        W 9066  18.676  26.150  11.453
40849W        W 9067  43.794  14.327  14.542
40850W        W 9068  13.611  30.922  14.421
40851W        W 9069  19.563  18.360  13.179
40852W        W 9070  23.148  43.505  13.522
40853W        W 9071  11.977  25.971  12.962
40854W        W 9072   2.679  43.635   1.372
40855W        W 9073  11.709  11.992   1.472
40856W        W 9074   1.951  37.411  13.615
40857W        W 9075  28.439  17.227  10.003
40858W        W 9076  24.305  10.058   0.009
40859W        W 9077  21.798  21.568  14.962
40860W        W 9078  39.833  19.661   4.586
40861W        W 9079  34.384   6.984  11.144
40862W        W 9080  15.758  43.089   2.362
40863W        W 9081  28.823  28.467  14.383
40864W        W 9082  30.947   4.955   2.723
40865W        W 9083  28.498   1.018   0.272
40866W        W 9084  40.052   8.812  14.298
40867W        W 9085  25.223  34.661   0.261
40868W        W 9086  44.711  43.225   1.310
40869W        W 9087  40.936  27.727  14.474
40870W        W 9088  15.831  13.083  10.258
40871W        W 9089   9.110  43.953  13.229
40872W        W 9090  28.967  16.603  13.946
40873W        W 9091   1.192   5.435   3.535
40874W        W 9092  41.398  31.462   1.890
40875W        W 9093   1.427   7.697  11.565
40876W        W 9094  13.882  35.943  12.477
40877W        W 9095  40.859  25.259  12.350
40878W        W 9096  44.468  27.419   0.943
40879W        W 9097  32.839  38.915  10.370
40880W        W 9098   0.968  14.974  13.991
40881W        W 9099  13.664   2.378  10.373
40882W        W 9100  34.820  20.941  10.700
40883W        W 9101  29.367  42.416   0.505
40884W        W 9102   4.714  12.811  14.009
40885W        W 9103   4.187   9.376   3.289
40886W        W 9104  32.220  42.908   3.623
40887W        W 9105  28.544  34.521   4.345
40888W        W 9106  17.996  27.993   1.331
40889W        W 9107  15.382  18.555   2.724
40890W        W 9108  24.477   5.579  10.671
40891W        W 9109  19.646  24.465  10.900
40892W        W 9110  40.398  32.171   2.569
40893W        W 9111  42.809  22.703  11.684
40894W        W 9112   3.600  39.074  13.025
40895W        W 9113  35.788  29.141  14.760
40896W        W 9114   2.010   8.837  11.136
40897W        W 9115  12.274  44.088   1.664
40898W        W 9116  27.961  44.743   4.132
40899W        W 9117   2.227  22.645  12.824
40900W        W 9118   5.488  34.018   5.149
40901W        W 9119  17.270  41.076  14.356
40902W        W 9120  20.444   1.828   1.488
40903W        W 9121  33.536  33.494  11.937
40904W        W 9122  25.623  13.700  13.328
40905W        W 9123   3.194  44.876  14.087
40906W        W 9124  14.512  12.309   4.332
40907W        W 9125  40.228  27.611  14.028
40908W        W 9126  36.031   3.366   2.694
40909W        W 9127  41.409  19.824   4.560
40910W        W 9128   9.476   0.422   2.604
40911W        W 9129  41.387  27.065   1.258
40912W        W 9130   8.091  22.065  13.916
40913W        W 9131   4.786   7.587  11.535
40914W        W 9132  15.001   1.892  11.382
40915W        W 9133  30.485   4.435   1.816
40916W        W 9134  16.169  17.842  14.945
40917W        W 9135   2.419  43.012   9.497
40918W        W 9136  20.079  37.780   1.287
40919W        W 9137  20.295  27.603  12.323
40920W        W 9138  33.226  15.182  14.537
40921W        W 9139  10.653  37.197   0.048
40922W        W 9140  23.277  34.828   4.556
40923W        W 9141  24.561  43.752  13.385
40924W        W 9142  23.651  39.251   4.588
40925W        W 9143  31.187  11.617  14.953
40926W        W 9144  28.511  25.813   0.801
40927W        W 9145  27.061  15.573  14.955
40928W        W 9146   6.067  34.084   3.156
40929W        W 9147  18.686  38.152   2.768
40930W        W 9148   5.499  15.718  13.994
40931W        W 9149  30.513  38.796   3.706
40932W        W 9150  39.919  16.570  13.366
40933W        W 9151  17.646  23.215   1.282
40934W        W 9152  16.197   2.944  14.255
40935W        W 9153  10.106  32.195  13.301
40936W        W 9154  28.682  21.505   4.087
40937W        W 9155  17.189  39.959   2.683
40938W        W 9156  30.369  33.364   3.289
40939W        W 9157  37.423  37.957   3.890
40940W        W 9158  17.538  22.979   2.244
40941W        W 9159  12.960  14.612   4.558
40942W        W 9160  22.326  42.826  11.064
40943W        W 9161  44.014  40.590  13.830
40944W        W 9162  33.903   1.747   0.454
40945W        W 9163  30.119  37.994  12.380
40946W        W 9164  34.910  41.061  14.337
40947W        W 9165  15.299  19.777  14.773
40948W        W 9166  44.243  12.058  11.823
40949W        W 9167  32.472  24.487  11.601
40950W        W 9168  36.971  40.985   2.017
40951W        W 9169  43.002  31.169  13.347
40952W        W 9170   9.173  38.084   1.842
40953W        W 9171  13.586  20.812   2.899
40954W        W 9172  13.835  42.822   5.005
40955W        W 9173  39.584  27.468  10.648
40956W        W 9174  18.556   1.218   3.904
40957W        W 9175  27.165  27.971   2.330
40958W        W 9176  16.996   3.957   3.094
40959W        W 9177  11.823  11.169   2.164
40960W        W 9178  11.142  23.947  12.477
40961W        W 9179   0.786  10.629  12.353
40962W        W 9180   0.314  14.296   0.969
40963W        W 9181   9.325  40.130   0.883
40964W        W 9182  27.954  19.695   3.229
40965W        W 9183  15.291  44.012   0.904
40966W        W 9184  17.317   4.987   0.766
40967W        W 9185  39.005   5.007   3.319
40968W        W 9186  21.781  34.878  12.580
40969W        W 9187  11.737  13.372   3.209
40970W        W 9188  19.574   5.281   2.834
40971W        W 9189   0.847   8.187  11.150
40972W        W 9190  30.485  29.583   2.425
40973W        W 9191   3.225   0.175  14.548
40974W        W 9192  42.027  34.164   1.168
40975W        W 9193  34.377  19.827   3.894
40976W        W 9194  23.252  14.390  14.089
40977W        W 9195  32.529  14.601  11.670
40978W        W 9196  11.806  44.399  12.648
40979W        W 9197  35.447  16.746  14.397
40980W        W 9198   6.283  44.741   0.911
40981W        W 9199  17.712  15.583   1.621
40982W        W 9200   1.883  28.879   2.494
40983W        W 9201  33.663  29.149   1.588
40984W        W 9202  28.121  21.959   0.757
40985W        W 9203   7.264  11.367   3.624
40986W        W 9204  42.551  13.196   0.261
40987W        W 9205  25.714  13.281   2.859
40988W        W 9206  32.690   0.065  11.936
40989W        W 9207  14.799  42.928   3.202
40990W        W 9208  29.218  23.822   2.313
40991W        W 9209  12.648   6.536  12.558
40992W        W 9210  20.252  44.416  10.514
40993W        W 9211  18.667  39.779   0.281
40994W        W 9212  16.717  32.631  13.103
40995W        W 9213  18.277  16.207   4.103
40996W        W 9214   1.367  40.467  12.327
40997W        W 9215  25.422   4.214  12.196
40998W        W 9216   9.539  38.158   4.163
40999W        W 9217  12.447   5.858  13.249
41000W        W 9218  30.850  42.539   2.790
41001W        W 9219  14.556  26.694   4.108
41002W        W 9220  33.197  12.737   0.015
41003W        W 9221  42.894  42.724   4.100
41004W        W 9222  37.870   1.978  13.895
41005W        W 9223   5.212  43.563   4.599
41006W        W 9224  17.041  24.525   2.348
41007W        W 9225  20.610  38.592   2.490
41008W        W 9226   2.380  44.476   2.214
41009W        W 9227  14.657   2.394  14.389
41010W        W 9228   4.408  42.611   3.678
41011W        W 9229  15.792  43.698  11.008
41012W        W 9230  14.842  25.568   2.206
41013W        W 9231  26.880   2.146   3.849
41014W        W 9232  22.504   2.850  12.387
41015W        W 9233  16.314   6.267   3.419
41016W        W 9234  32.145   0.996  13.352
41017W        W 9235  13.342  36.975   4.110
41018W        W 9236  18.085  13.344   1.352
41019W        W 9237  39.026  23.144   4.211
41020W        W 9238  37.178  35.548  12.025
41021W        W 9239  17.735  38.461  10.820
41022W        W 9240   7.224  14.641   3.599
41023W        W 9241  41.483  36.063   2.217
41024W        W 9242  33.112  14.107   2.342
41025W        W 9243  41.334  24.289   0.482
41026W        W 9244  24.711  19.837   4.714
41027W        W 9245  16.369  34.438  11.474
41028W        W 9246  32.400  36.952  13.323
41029W        W 9247  29.057   1.489   2.621
41030W        W 9248  28.005  27.146  13.396
41031W        W 9249  34.193  37.415   1.655
41032W        W 9250  26.260  11.707   4.522
41033W        W 9251  10.175   5.378  11.370
41034W        W 9252  35.857  39.449  13.944
41035W        W 9253   8.262   2.115  12.089
41036W        W 9254  18.646  11.187   0.925
41037W        W 9255  42.452  17.858   0.391
41038W        W 9256  40.908  38.030  14.885
41039W        W 9257  11.781   0.885  11.903
41040W        W 9258  44.792  42.691   3.173
41041W        W 9259   8.779  14.380   2.614
41042W        W 9260  31.088  22.134   0.234
41043W        W 9261  27.933   2.265  11.616
41044W        W 9262  25.714  21.372   3.259
41045W        W 9263  24.996   2.273  12.096
41046W        W 9264  35.156  21.747  10.661
41047W        W 9265  31.965  14.278  10.768
41048W        W 9266  32.680  31.418   1.565
41049W        W 9267  41.978   9.269  11.968
41050W        W 9268  17.754   5.683  14.400
41051W        W 9269   2.970  26.237   3.744
41052W        W 9270  34.286  35.351   4.141
41053W        W 9271  33.204   2.299  14.412
41054W        W 9272  24.177  22.977   1.048
41055W        W 9273  40.874  15.807   0.741
41056W        W 9274  26.997  39.463  11.161
41057W        W 9275  40.127  10.092  13.800
41058W        W 9276  15.767  18.589  13.785
41059W        W 9277  44.235  31.828  10.756
41060W        W 9278  22.630  29.497  12.940
41061W        W 9279  31.190  15.195  13.805
41062W        W 9280   8.746  23.720   2.440
41063W        W 9281  18.779  38.073   4.616
41064W        W 9282  24.652  33.821   0.412
41065W        W 9283  43.935  21.675  14.915
41066W        W 9284  23.067  43.059  11.551
41067W        W 9285  39.017  19.433   9.967
41068W        W 9286  14.187  31.131   2.547
41069W        W 9287  11.098  37.453  11.421
41070W        W 9288   3.426  11.263  11.886
41071W        W 9289  14.141   9.380   1.843
41072W        W 9290   3.916  12.243   2.313
41073W        W 9291  38.946  30.195  11.855
41074W        W 9292   2.213  44.530   2.712
41075W        W 9293  38.973  11.850   0.976
41076W        W 9294   5.791  37.479  12.303
41077W        W 9295   5.058   6.819  12.429
41078W        W 9296   3.002   4.989  12.772
41079W        W 9297   1.308  38.695   1.746
41080W        W 9298  39.552  31.075   2.543
41081W        W 9299   4.729  33.568  12.069
41082W        W 9300  29.487  31.725   3.314
41083W        W 9301  24.070  15.212  14.464
41084W        W 9302  33.210  12.716  11.638
41085W        W 9303   5.370  44.206  13.328
41086W        W 9304  32.404  18.225   4.249
41087W        W 9305  37.893  20.670  10.783
41088W        W 9306   8.949  21.147   3.741
41089W        W 9307   9.197  42.808   0.073
41090W        W 9308  26.880  38.039   2.675
41091W        W 9309  43.733   0.316   3.152
41092W        W 9310  35.575  22.075   3.285
41093W        W 9311  18.229  29.249   0.900
41094W        W 9312  32.939  25.230  14.519
41095W        W 9313  39.505  18.251   4.164
41096W        W 9314   8.075  37.474  10.595
41097W        W 9315  19.528   6.983   0.887
41098W        W 9316   9.656  13.978   1.242
41099W        W 9317  28.410  43.899  13.183
41100W        W 9318  11.716   7.102   2.764
41101W        W 9319  44.238  43.726  14.985
41102W        W 9320  17.704   2.746   4.240
41103W        W 9321  42.773   6.015   5.136
41104W        W 9322  14.806  34.099  13.124
41105W        W 9323  17.835  19.578  11.817
41106W        W 9324  30.741   7.735  14.502
41107W        W 9325  10.856   3.299   1.420
41108W        W 9326  34.151   8.923  10.694
41109W        W 9327   4.838  11.169  12.044
41110W        W 9328  19.972   6.959   1.755
41111W        W 9329  18.875  16.309   5.022
41112W        W 9330  25.472  38.508   1.653
41113W        W 9331  41.538  15.755  10.650
41114W        W 9332  34.197  35.952   5.252
41115W        W 9333  27.719   7.231  10.504
41116W        W 9334  42.936  15.181   1.321
41117W        W 9335   7.405   9.813  12.226
41118W        W 9336  31.671  14.518  12.476
41119W        W 9337  21.726  37.548  12.680
41120W        W 9338  37.501  42.247  11.609
41121W        W 9339  42.422  28.134   0.658
41122W        W 9340  24.249  35.972  14.050
41123W        W 9341   7.513   8.317  13.129
41124W        W 9342  10.443  27.343   4.075
41125W        W 9343   3.974   1.363  10.716
41126W        W 9344  34.868  13.839  12.395
41127W        W 9345  10.908   9.654   4.213
41128W        W 9346   6.793  23.820  13.937
41129W        W 9347  28.927  37.845  14.476
41130W        W 9348  19.142  33.468  10.229
41131W        W 9349  10.070  41.546   3.657
41132W        W 9350  13.855   9.183  14.456
41133W        W 9351  35.530  32.411   2.742
41134W        W 9352  34.733  15.766  14.081
41135W        W 9353  31.838  20.038   2.227
41136W        W 9354  11.764  29.247  11.188
41137W        W 9355   7.669   2.623   3.257
41138W        W 9356  15.641   7.337   0.686
41139W        W 9357   7.404  26.686   5.002
41140W        W 9358   2.533  39.869  12.227
41141W        W 9359  20.407  39.448   4.133
41142W        W 9360  20.383  14.286   4.972
41143W        W 9361   3.500   8.956  11.537
41144W        W 9362  21.141  18.655   1.480
41145W        W 9363   9.392   5.716   4.554
41146W        W 9364   8.945  42.838   9.734
41147W        W 9365   5.826   2.320  11.945
41148W        W 9366  26.559   1.444   2.430
41149W        W 9367  14.723  32.174   4.767
41150W        W 9368  40.957  25.771   3.354
41151W        W 9369  30.412   5.256  13.018
41152W        W 9370  18.827  26.609  11.658
41153W        W 9371  30.050  39.825  14.518
41154W        W 9372  28.780  19.002   3.307
41155W        W 9373  42.902  23.407   3.035
41156W        W 9374  10.349   8.549   0.236
41157W        W 9375  34.451  36.547   1.438
41158W        W 9376  40.943  37.294   4.635
41159W        W 9377   2.046   8.929  14.367
41160W        W 9378  11.417   7.274   3.584
41161W        W 9379   0.881  12.336  14.521
41162W        W 9380  14.245   8.078   4.403
41163W        W 9381  14.483  11.614   2.173
41164W        W 9382  40.703  35.483  11.314
41165W        W 9383  17.613  34.848   4.157
41166W        W 9384  26.428  25.881   2.586
41167W        W 9385  15.009  29.449  14.074
41168W        W 9386   4.284  16.244   2.991
41169W        W 9387  41.519   1.257  11.168
41170W        W 9388  25.876  23.651   2.482
41171W        W 9389  14.888   4.112   2.156
41172W        W 9390   2.978  12.588  11.915
41173W        W 9391  40.356  19.135   4.053
41174W        W 9392  15.554   7.457  10.062
41175W        W 9393  19.551  11.796  13.588
41176W        W 9394  43.030  14.697   1.999
41177W        W 9395  40.405  24.776  10.538
41178W        W 9396  35.163  28.317  12.194
41179W        W 9397  11.767  28.620  13.738
41180W        W 9398   0.561   9.093   3.038
41181W        W 9399  14.104   6.623   3.167
41182W        W 9400  14.109  14.123   2.748
41183W        W 9401  17.614  12.939   0.559
41184W        W 9402   8.275  26.458  12.908
41185W        W 9403  18.610  17.147  10.291
41186W        W 9404   3.288  44.211   4.853
41187W        W 9405  12.588  35.406   0.401
41188W        W 9406  32.890  43.705   1.352
41189W        W 9407  19.485  42.787  12.029
41190W        W 9408  26.597  15.328   0.918
41191W        W 9409   3.168  42.445  10.964
41192W        W 9410   8.128   7.467   2.642
41193W        W 9411   4.917  28.336   0.051
41194W        W 9412  22.553  16.245  13.050
41195W        W 9413  40.826  24.758  14.958
41196W        W 9414   6.778   3.968  12.690
41197W        W 9415  10.476   1.068   4.612
41198W        W 9416  44.198  13.162   2.900
41199W        W 9417  31.525  41.138  12.811
41200W        W 9418  27.782   9.062   0.298
41201W        W 9419  30.104  41.240  14.916
41202W        W 9420  28.161  38.064   1.507
41203W        W 9421   8.865  42.407   0.225
41204W        W 9422  33.566  19.699  12.384
41205W        W 9423  27.555  41.495  13.639
41206W        W 9424   6.054  28.453  11.685
41207W        W 9425  25.606  33.969   4.317
41208W        W 9426   7.128   4.135  14.737
41209W        W 9427  18.258   2.145   1.997
41210W        W 9428  25.726  17.664   2.616
41211W        W 9429  26.886  42.748   0.793
41212W        W 9430  31.803   3.578   0.231
41213W        W 9431   0.330  38.842   2.841
41214W        W 9432  24.112  16.611   4.027
41215W        W 9433  36.933   5.122  11.172
41216W        W 9434  37.442  10.431  13.308
41217W        W 9435  31.941   6.974   3.900
41218W        W 9436  20.765  26.079  13.521
41219W        W 9437  31.097   6.968   4.519
41220W        W 9438   7.108  21.606   1.412
41221W        W 9439  17.502  14.169  11.690
41222W        W 9440  22.124   0.715  11.485
41223W        W 9441   1.243  16.716   4.249
41224W        W 9442   3.623  12.098  14.001
41225W        W 9443  38.420  20.961   2.082
41226W        W 9444   2.688   8.498   4.306
41227W        W 9445  31.984  41.077  12.531
41228W        W 9446  23.548  33.055  14.500
41229W        W 9447  29.545  42.587  11.604
41230W        W 9448  31.848  30.278  14.512
41231W        W 9449  27.413  27.592   3.584
41232W        W 9450   9.307  25.215   3.751
41233W        W 9451  10.715  21.053   0.310
41234W        W 9452  11.666  33.176   0.791
41235W        W 9453  34.707  38.228   2.533
41236W        W 9454  19.647  16.345  13.087
41237W        W 9455  43.845  35.285  13.579
41238W        W 9456  30.475  35.638   3.064
41239W        W 9457   7.440   6.450  12.509
41240W        W 9458  15.390   2.492  10.643
41241W        W 9459  35.183   3.963   0.331
41242W        W 9460  39.302   0.348   0.434
41243W        W 9461  35.885  24.545   3.853
41244W        W 9462   7.332   8.523  14.386
41245W        W 9463  17.591  13.855  11.260
41246W        W 9464  33.484  25.692  10.256
41247W        W 9465  11.558  23.171  12.144
41248W        W 9466  42.651  16.404   1.994
41249W        W 9467  18.556  24.176   1.302
41250W        W 9468  16.451   0.309  13.585
41251W        W 9469  30.621  30.535   1.666
41252W        W 9470  39.798  40.323   4.055
41253W        W 9471  30.810  14.358  11.279
41254W        W 9472  10.140  35.948  12.607
41255W        W 9473  19.785  14.744  11.953
41256W        W 9474  10.868  18.335  11.555
41257W        W 9475  39.861  36.902  11.408
41258W        W 9476  15.675   0.463  12.601
41259W        W 9477  19.015  24.398   1.433
41260W        W 9478   1.211  29.746  10.566
41261W        W 9479  13.637  23.730   1.640
41262W        W 9480  17.303  32.201  10.050
41263W        W 9481  21.562  41.570  13.413
41264W        W 9482  39.821  20.251  12.792
41265W        W 9483  22.275  27.048  13.388
41266W        W 9484  20.344   6.271   3.756
41267W        W 9485   6.863  17.790   1.733
41268W        W 9486  18.540   8.165  14.492
41269W        W 9487   6.091  22.636   0.893
41270W        W 9488  18.393  30.614  13.065
41271W        W 9489  22.988   2.855  14.269
41272W        W 9490  17.918  13.654   2.651
41273W        W 9491  38.623  20.283   0.928
41274W        W 9492  44.322  37.078  13.351
41275W        W 9493  35.071  23.300   4.714
41276W        W 9494  14.697  28.119  14.303
41277W        W 9495  12.000  37.918  14.826
41278W        W 9496  44.852  10.090  13.608
41279W        W 9497  12.706  35.170   2.717
41280W        W 9498   3.924  31.055  14.977
41281W        W 9499  38.258  41.165   4.948
41282W        W 9500   2.334  13.753  13.621
41283W        W 9501  17.026  27.755  11.575
41284W        W 9502   7.186  22.589  11.073
41285W        W 9503  29.714   8.119   0.354
41286W        W 9504  14.349  18.397  11.136
41287W        W 9505  26.712  35.361  12.642
41288W        W 9506  36.767  23.550   3.328
41289W        W 9507  12.364  34.069   2.225
41290W        W 9508  13.322  20.318  13.296
41291W        W 9509  36.311  20.545  13.365
41292W        W 9510  13.800   7.780  13.568
41293W        W 9511  14.226  18.203   2.655
41294W        W 9512   0.414  26.855   2.201
41295W        W 9513  24.160   2.329   2.236
41296W        W 9514   4.904  15.356  11.644
41297W        W 9515   5.394  16.409   1.608
41298W        W 9516   9.172  39.129  13.529
41299W        W 9517   1.954  14.368  14.840
41300W        W 9518  33.320  16.241   4.596
41301W        W 9519  18.719   3.412  14.747
41302W        W 9520  24.656  44.853   2.093
41303W        W 9521  16.881  39.854   3.518
41304W        W 9522  22.708  16.241   4.655
41305W        W 9523  41.958  32.116   0.073
41306W        W 9524  10.085  38.813   3.168
41307W        W 9525  33.376  22.088  10.722
41308W        W 9526  25.529  26.794   2.374
41309W        W 9527  23.212  14.002  11.474
41310W        W 9528  32.380  17.551  12.001
41311W        W 9529  43.579  23.541  14.457
41312W        W 9530  44.227  26.959   0.880
41313W        W 9531  23.205  38.565   4.154
41314W        W 9532   7.492  37.992   0.081
41315W        W 9533   2.376   6.440  11.657
41316W        W 9534  13.628  16.126   1.327
41317W        W 9535  11.882   0.997  11.012
41318W        W 9536  29.919  27.260   4.918
41319W        W 9537  27.017  17.312  13.395
41320W        W 9538   8.117  43.789  12.626
41321W        W 9539  19.650  34.357   2.239
41322W        W 9540   7.283   5.137  13.913
41323W        W 9541  30.574  21.848  14.133
41324W        W 9542  36.483  28.441   0.019
41325W        W 9543  19.474  26.210   3.174
41326W        W 9544  16.246  27.506  12.946
41327W        W 9545  34.344  39.570   3.146
41328W        W 9546   4.873  31.035   2.380
41329W        W 9547  30.157  23.609   2.071
41330W        W 9548  22.515   5.527   0.967
41331W        W 9549  33.632  41.485  11.038
41332W        W 9550   3.221   5.140   0.400
41333W        W 9551  33.227  12.210  14.437
41334W        W 9552  31.587   4.801   3.694
41335W        W 9553  35.820  27.036  14.310
41336W        W 9554  26.553  38.769  10.194
41337W        W 9555  15.358   5.890   1.964
41338W        W 9556  36.552  18.334   1.983
41339W        W 9557  43.393  13.591  14.439
41340W        W 9558  19.755  18.619  11.103
41341W        W 9559  39.035  15.549   2.245
41342W        W 9560   3.791  23.095  14.227
41343W        W 9561  44.560  44.901  11.028
41344W        W 9562   6.081   3.699   2.859
41345W        W 9563  42.735  17.648   1.685
41346W        W 9564   6.346   8.017   3.712
41347W        W 9565  30.683   4.252   3.714
41348W        W 9566  43.806  23.405  10.868
41349W        W 9567  44.043  22.151   0.745
41350W        W 9568  16.883   1.037   2.222
41351W        W 9569  44.875  44.235   0.365
41352W        W 9570  22.104  42.989   3.140
41353W        W 9571  43.184   2.432   2.261
41354W        W 9572  32.548  34.466  12.907
41355W        W 9573   2.843  25.975  14.166
41356W        W 9574  28.409   3.139   3.159
41357W        W 9575  20.113   2.051   1.823
41358W        W 9576   3.216  14.773  13.368
41359W        W 9577  42.332  32.618  14.325
41360W        W 9578   6.866   1.186   2.153
41361W        W 9579   6.776   6.797   0.266
41362W        W 9580  28.543  17.318   3.176
41363W        W 9581  27.191  21.657   2.089
41364W        W 9582  21.820   3.467   1.661
41365W        W 9583   0.936  19.354  14.564
41366W        W 9584   7.990  21.686   2.936
41367W        W 9585  37.887  18.047   2.614
41368W        W 9586  19.118  15.547   3.437
41369W        W 9587   1.680  35.267  11.276
41370W        W 9588  30.014  35.202  12.996
41371W        W 9589  10.052  41.897  12.490
41372W        W 9590  25.222   9.401  14.371
41373W        W 9591  19.778  14.841   3.006
41374W        W 9592  34.031  36.490  14.326
41375W        W 9593  42.755  44.022  10.752
41376W        W 9594   8.414   3.313  14.202
41377W        W 9595  42.376   8.458  11.458
41378W        W 9596  25.809  40.104  11.472
41379W        W 9597  20.145  28.515   0.284
41380W        W 9598  28.151  36.927   3.596
41381W        W 9599  30.986   1.276   3.776
41382W        W 9600   1.193   7.606   0.466
41383W        W 9601  43.247  20.211   0.263
41384W        W 9602  13.660  36.279   3.810
41385W        W 9603  25.718  22.028   0.823
41386W        W 9604  27.044   0.383   2.883
41387W        W 9605  25.482  37.013   4.192
41388W        W 9606  41.787  19.071  13.861
41389W        W 9607   1.495  20.508  10.659
41390W        W 9608  20.043   3.883  10.677
41391W        W 9609  42.013  26.472  12.637
41392W        W 9610   0.047  20.711  12.329
41393W        W 9611  35.366   5.683   4.025
41394W        W 9612  19.449  12.434  14.863
41395W        W 9613  31.440  24.804   5.045
41396W        W 9614  17.837  43.003   3.621
41397W        W 9615   1.912  18.370   1.044
41398W        W 9616  11.235  20.924   1.854
41399W        W 9617  10.778   3.601  13.668
41400W        W 9618  37.443  11.273   1.323
41401W        W 9619  23.046  34.566   2.878
41402W        W 9620   5.144  37.994   1.439
41403W        W 9621  41.108   7.353   1.396
41404W        W 9622  12.909   2.461   1.331
41405W        W 9623  12.694  20.339  12.442
41406W        W 9624  10.623  13.307   0.854
41407W        W 9625  42.523  34.742  11.157
41408W        W 9626   8.632  33.085   0.111
41409W        W 9627  38.281  22.751   0.843
41410W        W 9628  22.513  16.745  12.956
41411W        W 9629  17.364  34.687  13.526
41412W        W 9630  40.911  24.492  14.520
41413W        W 9631   6.638  28.171  14.454
41414W        W 9632   4.499  40.047   0.166
41415W        W 9633  27.678  34.976   1.273
41416W        W 9634  28.572  21.183   1.859
41417W        W 9635  15.549  29.102   0.005
41418W        W 9636  29.476  24.435   3.178
41419W        W 9637  28.289   2.543  13.749
41420W        W 9638  35.104  28.145   0.428
41421W        W 9639  25.062  34.585   1.908
41422W        W 9640   5.886  43.051   4.476
41423W        W 9641   8.696  13.826   0.376
41424W        W 9642  30.005   1.773  14.974
41425W        W 9643   0.698   1.315   1.278
41426W        W 9644  35.611   2.433   1.421
41427W        W 9645  39.498  44.992  13.350
41428W        W 9646  20.324  25.085   3.333
41429W        W 9647   7.304  15.443   3.241
41430W        W 9648  10.381  12.131   2.737
41431W        W 9649  31.013  18.113  10.059
41432W        W 9650  28.530   8.816   3.230
41433W        W 9651  17.571  19.295  14.516
41434W        W 9652   2.425  35.645  14.178
41435W        W 9653  24.469   7.931   3.251
41436W        W 9654  17.944  31.132   1.972
41437W        W 9655  10.872  39.507   3.256
41438W        W 9656  26.792  35.769   3.308
41439W        W 9657  41.304  30.658   1.271
41440W        W 9658  17.585   1.446   3.725
41441W        W 9659  32.990  35.658  13.432
41442W        W 9660  16.359   5.517  12.487
41443W        W 9661  33.634  13.118  14.115
41444W        W 9662  21.965  42.446  13.103
41445W        W 9663  14.263   0.458   3.768
41446W        W 9664   0.967  36.430   1.854
41447W        W 9665  17.806  29.569  13.801
41448W        W 9666  31.397  31.378  10.599
41449W        W 9667   5.775  28.695   0.065
41450W        W 9668   8.410  10.774   2.151
41451W        W 9669  21.295  18.103   1.383
41452W        W 9670  16.638  12.260  10.528
41453W        W 9671   7.422  12.266   3.260
41454W        W 9672  28.140  19.855   2.780
41455W        W 9673  28.701  10.254   1.325
41456W        W 9674   7.309   8.911   2.613
41457W        W 9675   4.755  33.993   1.290
41458W        W 9676  20.651  24.570  10.804
41459W        W 9677  33.485  34.606  14.432
41460W        W 9678  12.179   6.388  14.304
41461W        W 9679   4.365  25.583   3.636
41462W        W 9680  28.169  22.744  10.219
41463W        W 9681  30.345  12.266  11.710
41464W        W 9682   6.272   5.447   0.379
41465W        W 9683  12.323   1.242  14.991
41466W        W 9684  20.148  12.887  14.972
41467W        W 9685   2.063  42.778  14.322
41468W        W 9686   5.800  24.079  12.942
41469W        W 9687   1.846  25.522  14.042
41470W        W 9688  26.038   4.812   2.325
41471W        W 9689   4.267  10.850   2.430
41472W        W 9690  15.274  38.157   0.981
41473W        W 9691   2.119   0.413  10.400
41474W        W 9692   0.261  12.785  12.882
41475W        W 9693   0.801  14.590   4.208
41476W        W 9694  24.587   6.100   3.851
41477W        W 9695   6.202   2.678  11.504
41478W        W 9696  18.122  37.111   0.817
41479W        W 9697  28.005  10.578  13.841
41480W        W 9698   4.710  17.347  13.466
41481W        W 9699  17.655  44.138   4.118
41482W        W 9700  28.445  13.213  10.682
41483W        W 9701  37.497  36.435   1.390
41484W        W 9702  29.559  23.225  10.544
41485W        W 9703  42.837  40.030  14.870
41486W        W 9704   3.938  25.213   1.886
41487W        W 9705  23.971  39.467  12.063
41488W        W 9706   6.091  30.498  14.905
41489W        W 9707  39.871   0.733  14.296
41490W        W 9708   0.973  37.908   2.365
41491W        W 9709   3.356  28.279   4.557
41492W        W 9710   3.919   6.209  12.507
41493W        W 9711  42.200  14.014   0.454
41494W        W 9712  21.979  38.314   1.275
41495W        W 9713   4.296  10.652  13.154
41496W        W 9714  11.429   9.768   3.351
41497W        W 9715   1.052  35.198  12.661
41498W        W 9716  34.989  40.753   4.122
41499W        W 9717   7.448  15.577  14.344
41500W        W 9718  20.498  40.095  10.601
41501W        W 9719  29.968  10.139  11.501
41502W        W 9720  31.108  17.774   1.771
41503W        W 9721  22.979  11.245   1.931
41504W        W 9722  15.044  19.361   2.746
41505W        W 9723   8.786  30.879   5.016
41506W        W 9724   4.426  43.952  12.418
41507W        W 9725  20.902  13.661  10.204
41508W        W 9726   5.374   6.758   4.600
41509W        W 9727  35.744  36.010  14.877
41510W        W 9728  42.286  29.971  11.013
41511W        W 9729  19.789  27.682   2.295
41512W        W 9730  33.905  40.487   2.244
41513W        W 9731  17.496  42.894   4.655
41514W        W 9732   4.379   1.867   0.514
41515W        W 9733  29.643  41.794   1.302
41516W        W 9734  33.591  40.351   1.808
41517W        W 9735  15.238  20.544  12.981
41518W        W 9736   9.669  33.673  13.841
41519W        W 9737  11.203  25.567  12.903
41520W        W 9738  15.602  14.179  14.796
41521W        W 9739  23.859  19.233  12.565
41522W        W 9740  36.155   4.324  12.599
41523W        W 9741  13.310   4.311  13.309
41524W        W 9742  26.936  18.196   1.705
41525W        W 9743   9.181   1.174  12.562
41526W        W 9744  43.720  44.444  10.686
41527W        W 9745  18.168  15.014   3.756
41528W        W 9746  35.260  34.787   0.394
41529W        W 9747  15.196  13.845   1.038
41530W        W 9748  10.457   9.339   3.214
41531W        W 9749  39.358  40.385  13.911
41532W        W 9750  24.330   5.963  14.294
41533W        W 9751  19.606  14.425   4.298
41534W        W 9752  20.549  35.704  12.955
41535W        W 9753  37.172  10.320   4.871
41536W        W 9754  42.742   0.345   3.257
41537W        W 9755  35.361   3.731   4.521
41538W        W 9756  35.289   2.755  14.736
41539W        W 9757  24.761  40.103   4.347
41540W        W 9758  12.754  34.116   1.893
41541W        W 9759  21.471  14.620  12.374
41542W        W 9760  26.614  15.135  14.546
41543W        W 9761  31.643  19.734   3.332
41544W        W 9762   0.949  35.175  10.708
41545W        W 9763  13.207   1.092   2.315
41546W        W 9764  13.107  40.338  10.838
41547W        W 9765  10.112  32.920  11.512
41548W        W 9766  43.816  33.466   3.433
41549W        W 9767  35.594  33.531   1.656
41550W        W 9768  44.786  10.564   2.595
41551W        W 9769  21.129  18.481  12.020
41552W        W 9770  37.630  12.784   1.665
41553W        W 9771  40.103  29.055   1.389
41554W        W 9772  42.324  21.799  14.866
41555W        W 9773  38.147   3.274   3.680
41556W        W 9774  21.109   5.413   0.890
41557W        W 9775  27.786  38.977   3.659
41558W        W 9776  21.505  37.454  14.013
41559W        W 9777  18.303  41.121  10.593
41560W        W 9778  32.961   5.482   3.345
41561W        W 9779  39.214  33.616   3.583
41562W        W 9780   2.785  23.554   4.263
41563W        W 9781  22.200  32.732   4.166
41564W        W 9782  22.197   6.861  11.575
41565W        W 9783  27.412  25.946  13.081
41566W        W 9784  42.257  27.559  12.059
41567W        W 9785  20.720  18.870   4.139
41568W        W 9786  15.663  30.962   0.092
41569W        W 9787   3.187  15.306  14.074
41570W        W 9788  25.547  25.995   2.699
41571W        W 9789  22.784  40.592  14.911
41572W        W 9790   4.276  38.891  11.993
41573W        W 9791  10.442  25.274  13.489
41574W        W 9792  19.178  31.377  10.869
41575W        W 9793  20.828  37.842  12.183
41576W        W 9794   4.012  31.575  10.643
41577W        W 9795   6.484  38.414  11.906
41578W        W 9796   8.534  14.743   4.969
41579W        W 9797  30.161  34.369   3.148
41580W        W 9798  35.980  26.096  13.419
41581W        W 9799  11.751  40.953   0.183
41582W        W 9800   1.987  20.933   0.117
41583W        W 9801  39.308   8.857   3.706
41584W        W 9802  23.277   2.449  12.583
41585W        W 9803  41.071  11.679  13.793
41586W        W 9804  34.808   5.876   0.059
41587W        W 9805  23.683  33.598   1.828
41588W        W 9806  19.283  38.108   3.275
41589W        W 9807   7.673  37.532  14.958
41590W        W 9808  43.945  23.412   4.180
41591W        W 9809  20.417  40.890   3.221
41592W        W 9810   2.440  35.586   0.211
41593W        W 9811  26.998   9.751   0.199
41594W        W 9812  43.478  13.424  10.793
41595W        W 9813  23.466  42.028   2.731
41596W        W 9814  25.138  24.594  12.025
41597W        W 9815  31.776  41.559   2.116
41598W        W 9816  17.766   0.962   3.624
41599W        W 9817  26.557  43.355  10.876
41600W        W 9818  34.621  32.630  12.017
41601W        W 9819  27.663  12.363  14.813
41602W        W 9820  43.296  29.035  12.929
41603W        W 9821   4.772  42.016  12.361
41604W        W 9822  21.219  43.355   3.631
41605W        W 9823   2.259  21.740   2.392
41606W        W 9824  16.614   4.688  13.709
41607W        W 9825   5.257  25.670   1.867
41608W        W 9826  36.805  33.048   4.628
41609W        W 9827  37.955  10.899  11.709
41610W        W 9828   1.144  36.960   4.213
41611W        W 9829   8.298  25.260   3.607
41612W        W 9830  39.878   5.804  10.837
41613W        W 9831  15.279  23.264  12.700
41614W        W 9832  18.737  42.540  11.482
41615W        W 9833   6.749   6.303  12.151
41616W        W 9834  32.657  42.247   1.923
41617W        W 9835  14.227  43.507   5.573
41618W        W 9836  35.545   0.930  12.626
41619W        W 9837  23.447  40.344   3.601
41620W        W 9838  36.394  27.715  13.447
41621W        W 9839  15.496  30.635  11.892
41622W        W 9840  11.764  17.272   0.251
41623W        W 9841  16.726  30.606   2.765
41624W        W 9842   0.821  27.634  12.005
41625W        W 9843  14.916  34.400   4.029
41626W        W 9844  26.727  36.054  12.073
41627W        W 9845  19.445  37.024  13.799
41628W        W 9846  27.614   7.681   0.045
41629W        W 9847   4.871  22.988   4.167
41630W        W 9848  22.150   2.566   1.766
41631W        W 9849  37.496  19.964   4.585
41632W        W 9850  23.230  33.241  11.321
41633W        W 9851  17.271   1.010  13.893
41634W        W 9852  27.962  18.220   2.892
41635W        W 9853  35.480   6.523  13.060
41636W        W 9854  19.180  41.070  13.323
41637W        W 9855   4.532  20.636  14.979
41638W        W 9856  17.036   1.308  12.542
41639W        W 9857   6.389  11.575  14.366
41640W        W 9858  35.398  33.758   3.856
41641W        W 9859  15.016  17.595   0.330
41642W        W 9860   6.383  43.734  12.697
41643W        W 9861  37.307  39.329  14.761
41644W        W 9862  37.268  41.851  14.892
41645W        W 9863  40.357   3.353  13.973
41646W        W 9864   2.349   9.671   0.910
41647W        W 9865   9.407   3.313  11.909
41648W        W 9866   0.131   7.208  10.704
41649W        W 9867  37.019  12.377   3.312
41650W        W 9868  42.285  27.649   4.083
41651W        W 9869  38.563  40.361   1.909
41652W        W 9870   9.025  13.704   0.791
41653W        W 9871   6.244  23.387   1.290
41654W        W 9872  10.422   1.149   0.703
41655W        W 9873  44.338  35.427   1.650
41656W        W 9874  42.918  29.480   0.530
41657W        W 9875   8.375  44.251   0.316
41658W        W 9876  11.171  42.089   0.342
41659W        W 9877  39.996  44.438  13.215
41660W        W 9878  39.974  11.182  10.698
41661W        W 9879  33.512  14.038  11.694
41662W        W 9880  37.105  12.108   4.174
41663W        W 9881   7.734   7.368   0.816
41664W        W 9882  27.894  22.533  14.380
41665W        W 9883  41.985  22.004   2.564
41666W        W 9884  15.105  12.551   2.682
41667W        W 9885  43.272  41.840   3.725
41668W        W 9886  38.580  42.484   2.703
41669W        W 9887  26.524  32.252  12.784
41670W        W 9888  17.117  26.273  11.452
41671W        W 9889  16.199  38.599  11.782
41672W        W 9890  34.569   2.640   4.583
41673W        W 9891  21.993  43.336  11.728
41674W        W 9892  38.776  32.812   4.052
41675W        W 9893   2.160   4.733   3.357
41676W        W 9894   2.598  24.781  13.115
41677W        W 9895  41.894  11.043   4.430
41678W        W 9896  41.399  43.167   0.341
41679W        W 9897  22.595  34.593   0.236
41680W        W 9898  30.832  18.524   0.215
41681W        W 9899  13.696  42.849  13.463
41682W        W 9900   5.914  43.623  10.346
41683W        W 9901  14.927  10.139   2.750
41684W        W 9902   6.898  27.251   1.750
41685W        W 9903  42.741   1.461  11.734
41686W        W 9904   8.681  12.830   4.159
41687W        W 9905  12.216  31.180   3.687
41688W        W 9906  29.595   6.734   3.771
41689W        W 9907  22.334  40.059   0.803
41690W        W 9908  21.499  34.276  13.094
41691W        W 9909  28.151  35.013   1.502
41692W        W 9910  31.054   6.948  10.752
41693W        W 9911  35.018   8.183  14.293
41694W        W 9912  40.092  16.059   4.326
41695W        W 9913  32.681  10.683  12.001
41696W        W 9914  23.793  30.167   1.385
41697W        W 9915   4.644  40.824  12.473
41698W        W 9916  10.785  33.781   0.967
41699W        W 9917  38.014  27.381  14.956
41700W        W 9918   1.435   0.390  14.458
41701W        W 9919  12.996  35.212   4.983
41702W        W 9920   3.727  25.068   3.177
41703W        W 9921  30.173  33.931  11.092
41704W        W 9922  10.217  27.779  10.261
41705W        W 9923   9.972  42.373   4.334
41706W        W 9924  35.586  39.790   0.729
41707W        W 9925  35.338  22.114   1.925
41708W        W 9926   2.749  15.577  10.905
41709W        W 9927  33.033  39.481  11.658
41710W        W 9928  37.212  19.284  13.989
41711W        W 9929  42.741  30.441   4.160
41712W        W 9930  24.103  14.781  12.218
41713W        W 9931   6.565  24.161  11.811
41714W        W 9932  15.152   6.321   3.891
41715W        W 9933  42.283  25.431  14.123
41716W        W 9934  35.099  21.019   1.527
41717W        W 9935  44.740  43.467  10.655
41718W        W 9936   5.588   3.822   2.714
41719W        W 9937   3.179  38.083  11.084
41720W        W 9938   1.538  30.689  13.034
41721W        W 9939  38.485  31.959   1.008
41722W        W 9940  38.467  27.011  13.825
41723W        W 9941  25.602   7.260   2.257
41724W        W 9942   1.924   8.437  14.494
41725W        W 9943   8.737  14.284  10.216
41726W        W 9944  33.335  36.464   0.540
41727W        W 9945  43.719  22.794  11.428
41728W        W 9946  10.589  24.681   4.976
41729W        W 9947  35.378   0.019   2.168
41730W        W 9948  32.453  38.936  12.099
41731W        W 9949  14.662  22.720   0.016
41732W        W 9950   0.426   9.290  11.506
41733W        W 9951  41.980   0.992  11.191
41734W        W 9952  27.374   7.007   1.185
41735W        W 9953   5.769  37.358   4.142
41736W        W 9954  33.570  18.063  13.939
41737W        W 9955   9.020  39.442   4.571
41738W        W 9956  44.724   9.400  13.071
41739W        W 9957  43.936  30.922  13.361
41740W        W 9958  16.148  20.203  11.269
41741W        W 9959   9.288  28.120  14.071
41742W        W 9960  39.554   1.159  10.530
41743W        W 9961  40.871  27.123  14.895
41744W        W 9962  14.658  10.601  12.533
41745W        W 9963  24.129  29.692   1.749
41746W        W 9964   4.822   6.866  13.010
41747W        W 9965  38.056  23.465   2.332
41748W        W 9966  18.267  42.892  12.866
41749W        W 9967  23.189  30.582   4.353
41750W        W 9968  23.075   0.737   0.735
41751W        W 9969  37.031  44.254  12.546
41752W        W 9970  34.963   3.914   4.858
41753W        W 9971  20.390   1.749  12.115
41754W        W 9972  41.448  22.600  12.044
41755W        W 9973  44.602   1.962   4.528
41756W        W 9974   5.755   9.817   3.060
41757W        W 9975  38.360  37.391  10.916
41758W        W 9976  32.660   9.646   4.041
41759W        W 9977  29.829  15.709  14.556
41760W        W 9978  10.256   4.910  13.065
41761W        W 9979   8.704   8.712   5.026
41762W        W 9980  18.712  42.287  13.712
41763W        W 9981   4.202  32.125  12.510
41764W        W 9982  25.022  37.241   4.592
41765W        W 9983   6.354  35.981  13.104
41766W        W 9984   3.470  18.392   4.136
41767W        W 9985   2.601  32.637  13.103
41768W        W 9986  27.715  43.295   3.450
41769W        W 9987  37.229  20.209  13.796
41770W        W 9988   6.788  29.999  12.066
41771W        W 9989  33.682  33.539   4.126
41772W        W 9990  21.726  20.084   0.023
41773W        W 9991  20.722  20.674  14.948
41774W        W 9992   2.803   5.631   4.230
41775W        W 9993  37.675  21.897   1.945
41776W        W 9994   9.583  23.459   3.188
41777W        W 9995  10.156  33.179  10.706
41778W        W 9996  30.054   3.822  12.729
41779W        W 9997  18.332  15.243   4.218
41780W        W 9998  15.288  14.402   2.266
41781W        W 9999  11.551  20.924   3.502
41782W        W10000  39.009  43.774  11.466
41783W        W10001   3.603  18.543   0.976
41784W        W10002  43.339  22.599   4.420
41785W        W10003  19.606  31.568   3.423
41786W        W10004  43.989  11.437   3.272
41787W        W10005  26.458  42.392   0.803
41788W        W10006  40.491  25.589  14.827
41789W        W10007   1.965   2.181  11.597
41790W        W10008  36.802  36.364   0.815
41791W        W10009   4.946   9.167  13.855
41792W        W10010  27.011   0.037   4.727
41793W        W10011   7.334   8.470   1.786
41794W        W10012  19.960   3.985  13.306
41795W        W10013  35.414  44.933  13.514
41796W        W10014  41.247  44.008   2.194
41797W        W10015   0.957  11.580  14.386
41798W        W10016  23.117  14.490  11.637
41799W        W10017  44.886   2.697  12.427
41800W        W10018  24.278  16.772   1.673
41801W        W10019   3.903   8.247  13.846
41802W        W10020  10.383   5.869  10.648
41803W        W10021   4.499   3.421   0.980
41804W        W10022  37.490  20.682   3.949
41805W        W10023  31.194  39.011   0.544
41806W        W10024  30.107   7.113  13.868
41807W        W10025  36.259   9.748  13.792
41808W        W10026  43.570  39.954  12.102
41809W        W10027  39.058  44.752  13.524
41810W        W10028  12.741  25.633  12.140
41811W        W10029  11.726  35.280  12.904
41812W        W10030  23.956  31.454   1.904
41813W        W10031   9.570  20.087  12.821
41814W        W10032  20.733  26.427  13.143
41815W        W10033  23.244  17.736   2.747
41816W        W10034  41.968   3.509  10.029
41817W        W10035  41.550  26.424  12.388
41818W        W10036   3.906   4.002  12.746
41819W        W10037  28.669  40.770   3.632
41820W        W10038  39.521  43.842   4.839
41821W        W10039  33.484  44.529  11.404
41822W        W10040  21.237   4.092  13.095
41823W        W10041  20.122  38.989   1.711
41824W        W10042  26.199  28.655  12.915
41825W        W10043  28.101  16.491   5.436
41826W        W10044  30.215  12.696  10.903
41827W        W10045  28.389  24.332   0.857
41828W        W10046  41.876  37.642   2.863
41829W        W10047  30.235  24.634   4.180
41830W        W10048   6.346  43.905   9.713
41831W        W10049  43.480  12.304   1.950
41832W        W10050  28.700  34.939   2.383
41833W        W10051  36.892  18.242  11.890
41834W        W10052  11.550  35.118  11.668
41835W        W10053  31.657   8.469   3.210
41836W        W10054   7.353  18.781  11.238
41837W        W10055  28.802  31.351   4.127
41838W        W10056  28.377  15.641  11.643
41839W        W10057   4.823  42.910   0.398
41840W        W10058  11.437  31.115   0.770
41841W        W10059  26.469  36.355   5.105
41842W        W10060   8.386  16.226  12.572
41843W        W10061  21.877  25.386   1.225
41844W        W10062   3.540  42.303   5.370
41845W        W10063  41.544  15.038  13.431
41846W        W10064  32.216  14.292   4.551
41847W        W10065  28.581  26.159   1.725
41848W        W10066  17.984   2.996  14.753
41849W        W10067  13.742  42.096   1.253
41850W        W10068  34.343  17.250   3.645
41851W        W10069   2.020  17.631   0.719
41852W        W10070  44.861   7.981   3.185
41853W        W10071  20.778  28.172   4.899
41854W        W10072  14.244   2.316   4.142
41855W        W10073   5.484  22.505   1.649
41856W        W10074  38.336   2.262  12.531
41857W        W10075  27.867  13.185  11.607
41858W        W10076  40.388  14.416   5.042
41859W        W10077   4.363  11.565  11.032
41860W        W10078  29.686  24.044   0.534
41861W        W10079  10.525  22.167  11.735
41862W        W10080  23.004  37.856   3.307
41863W        W10081  42.831  35.411  13.507
41864W        W10082  20.929  43.788  14.800
41865W        W10083  21.972  31.055  14.321
41866W        W10084  26.683  28.754  11.957
41867W        W10085  23.457  14.156  12.233
41868W        W10086  22.969   8.694   1.384
41869W        W10087  12.329  29.725  12.543
41870W        W10088  18.749  14.630  12.899
41871W        W10089   1.094  29.445   2.757
41872W        W10090   1.623  24.678   2.620
41873W        W10091  19.199  12.139  12.790
41874W        W10092  16.416  12.340   3.312
41875W        W10093   0.416   1.100   4.005
41876W        W10094  34.650   5.639  10.867
41877W        W10095  19.907   5.254   3.304
41878W        W10096  23.561   3.789   0.343
41879W        W10097  28.507  33.157   0.774
41880W        W10098  14.874   6.549  12.479
41881W        W10099  20.862  15.309   0.497
41882W        W10100  27.220  37.007   0.383
41883W        W10101  14.718   7.206   0.217
41884W        W10102  20.278  12.297  13.779
41885W        W10103  26.224  22.773   4.338
41886W        W10104  43.350  10.254  10.776
41887W        W10105  32.036   6.263  13.539
41888W        W10106  39.456   0.282  12.918
41889W        W10107  37.314  12.196   3.703
41890W        W10108  18.638  43.551   0.899
41891W        W10109  42.619  26.699   4.069
41892W        W10110  31.339  44.355   3.200
41893W        W10111  14.544  24.568  12.961
41894W        W10112  15.666  41.557   0.256
41895W        W10113  42.404  30.007   0.576
41896W        W10114  21.264  24.591   5.348
41897W        W10115   4.339  39.226   1.676
41898W        W10116  21.572  28.346  11.160
41899W        W10117   4.393  18.465   0.517
41900W        W10118  12.271  32.981  12.991
41901W        W10119  31.347  35.035  11.664
41902W        W10120  26.600   6.233   4.826
41903W        W10121  30.219  17.014  14.305
41904W        W10122   6.969   2.787  13.291
41905W        W10123  15.890  11.907   1.670
41906W        W10124   5.852  26.735   1.218
41907W        W10125  16.083  37.044  13.384
41908W        W10126  10.015   5.223   0.876
41909W        W10127  13.656  43.266   3.741
41910W        W10128  16.068  31.505   1.789
41911W        W10129  15.828  30.165  13.491
41912W        W10130   4.118  34.939   4.229
41913W        W10131  37.673  16.835  13.836
41914W        W10132  31.983  20.096  12.998
41915W        W10133  40.859  30.245   2.048
41916W        W10134  41.191   5.452   2.363
41917W        W10135  17.812   9.126   4.529
41918W        W10136   9.316  14.783  12.509
41919W        W10137   5.950   3.384   4.104
41920W        W10138  31.904  11.098   0.469
41921W        W10139  26.298  31.613   0.267
41922W        W10140  35.893  12.088  14.823
41923W        W10141  19.263  20.369  12.431
41924W        W10142   8.026  28.169   5.158
41925W        W10143  26.573  25.105   9.850
41926W        W10144   4.928   4.159   1.884
41927W        W10145  17.998   4.868  14.219
41928W        W10146  20.561  19.766  10.001
41929W        W10147  25.768  14.335  13.903
41930W        W10148  43.324  13.624   2.739
41931W        W10149  14.063  22.184  14.028
41932W        W10150  44.473  25.742   0.443
41933W        W10151  17.286  12.146  13.431
41934W        W10152  19.689   0.994   1.743
41935W        W10153   7.764  25.783  11.438
41936W        W10154  19.299  35.039  11.984
41937W        W10155  28.227  28.669  11.322
41938W        W10156  20.550  37.513  11.936
41939W        W10157  23.040  32.143   1.727
41940W        W10158  42.706  12.849  14.463
41941W        W10159  34.932  36.417   1.652
41942W        W10160   6.358   9.332  10.631
41943W        W10161  25.169  18.939   1.903
41944W        W10162  17.039  38.805   3.048
41945W        W10163  28.681   2.722   0.907
41946W        W10164  20.417  16.263   0.417
41947W        W10165  35.458   2.388  12.491
41948W        W10166  28.983  17.803   2.361
41949W        W10167  23.107   6.409   3.190
41950W        W10168  34.964   2.204  12.419
41951W        W10169   1.890  14.842   0.778
41952W        W10170  27.648  36.738  12.486
41953W        W10171   9.089  36.610   4.894
41954W        W10172   9.815  35.366  11.109
41955W        W10173   1.963   2.907  12.343
41956W        W10174  36.435  43.408  11.051
41957W        W10175  31.358  36.976   1.815
41958W        W10176  40.053  10.599   1.270
41959W        W10177  27.256  33.626   2.675
41960W        W10178  18.984  25.978  13.923
41961W        W10179   5.132  28.400   2.324
41962W        W10180  20.505  37.352  13.794
41963W        W10181  20.499  21.080  11.477
41964W        W10182   0.832  26.561  14.949
41965W        W10183  44.770   5.961   3.683
41966W        W10184  31.632  33.441   5.125
41967W        W10185  44.696  16.132  12.024
41968W        W10186  41.431  20.322  13.806
41969W        W10187  31.511   6.412   1.962
41970W        W10188  25.480  20.875   5.133
41971W        W10189   0.330  10.635   4.051
41972W        W10190  29.606  34.206   4.231
41973W        W10191  10.375  24.510  10.614
41974W        W10192  38.522  30.334   0.371
41975W        W10193  35.075   7.368   4.001
41976W        W10194   9.679  25.145  13.807
41977W        W10195   7.781  10.838   0.838
41978W        W10196  41.143   7.603   0.773
41979W        W10197  15.962   4.327   2.025
41980W        W10198  38.806  37.107  12.433
41981W        W10199  21.236  32.871   5.085
41982W        W10200  40.835   8.890  13.515
41983W        W10201   1.047  23.560   4.873
41984W        W10202  39.823  29.936   1.384
41985W        W10203  36.089  40.339  13.345
41986W        W10204  16.320  27.768   3.246
41987W        W10205   5.239   2.975   3.695
41988W        W10206   3.782  20.618  11.469
41989W        W10207  41.745   6.894  11.998
41990W        W10208  19.096  22.691   1.832
41991W        W10209   4.217   9.127  12.645
41992W        W10210   5.924  43.343  11.138
41993W        W10211   3.878  31.211   2.297
41994W        W10212  23.337  35.982  13.903
41995W        W10213  33.424  10.856  12.547
41996W        W10214  22.037  31.921   0.548
41997W        W10215  11.126   6.324  10.522
41998W        W10216  32.366  32.618  11.122
41999W        W10217  30.191   8.347   1.509
42000W        W10218   7.839   9.745   2.802
42001W        W10219  10.387  19.713  12.964
42002W        W10220   7.188   9.979   1.641
42003W        W10221  30.026  41.391  13.407
42004W        W10222  44.941   1.189   3.326
42005W        W10223  41.519  40.966  10.718
42006W        W10224   7.077  26.082  12.494
42007W        W10225  20.818  18.276   1.327
42008W        W10226  13.466  38.374  13.922
42009W        W10227  23.138  36.859   2.333
42010W        W10228  17.761  43.688   1.921
42011W        W10229  16.448  15.466  11.024
42012W        W10230  25.103   0.872   4.029
42013W        W10231   3.499   1.963  12.120
42014W        W10232   5.356  15.195  14.910
42015W        W10233  15.731  19.152  14.549
42016W        W10234  37.759  33.346   0.837
42017W        W10235  13.871  29.489   2.727
42018W        W10236  29.027   3.957  14.457
42019W        W10237  12.678  17.002   0.334
42020W        W10238  12.975   9.943   1.729
42021W        W10239   8.379  32.989  11.132
42022W        W10240  42.823  20.075  14.989
42023W        W10241  18.673  33.450  12.548
42024W        W10242  18.202   9.331  11.677
42025W        W10243  17.674  18.424   1.393
42026W        W10244  44.438  17.538  10.430
42027W        W10245  15.352  14.596  11.175
42028W        W10246  11.875   9.664  12.071
42029W        W10247  38.829  28.046  13.813
42030W        W10248  18.072  44.953  14.984
42031W        W10249  40.421  21.710  13.536
42032W        W10250  38.916  18.182  12.432
42033W        W10251   4.467  32.018   3.613
42034W        W10252   5.631   5.213   2.787
42035W        W10253  17.638  36.077  13.520
42036W        W10254  21.029  24.821   1.351
42037W        W10255  23.965  40.271   3.685
42038W        W10256  43.474  11.193   1.953
42039W        W10257  15.710  13.700   1.187
42040W        W10258   7.240  23.028   2.660
42041W        W10259  14.477  17.640  10.552
42042W        W10260  18.794  22.472  13.176
42043W        W10261  28.873  13.674  12.976
42044W        W10262  11.080  19.976  11.383
42045W        W10263   3.425  14.414   2.802
42046W        W10264  25.111   6.613  12.037
42047W        W10265  26.569  31.153   0.162
42048W        W10266  38.574  18.940  10.740
42049W        W10267  12.004  12.760  11.261
42050W        W10268  29.987   5.435  13.857
42051W        W10269  19.170  13.890  13.615
42052W        W10270  30.956  40.803  10.831
42053W        W10271  21.602  19.584   2.721
42054W        W10272  22.995  27.120   0.930
42055W        W10273  29.793  41.960   4.779
42056W        W10274  43.515  17.650   1.226
42057W        W10275  24.972  22.031   4.268
42058W        W10276  43.537  16.219   2.336
42059W        W10277  41.205  32.684   2.673
42060W        W10278  41.532  31.446  12.852
42061W        W10279   6.729  24.773   1.827
42062W        W10280  20.366  31.398   5.480
42063W        W10281  25.693  31.201   4.719
42064W        W10282   9.545  26.909   3.251
42065W        W10283   7.300  40.559   4.512
42066W        W10284   2.197  10.117   4.278
42067W        W10285  11.111  38.558  12.893
42068W        W10286  43.917   7.167   2.880
42069W        W10287  11.228  26.476   1.726
42070W        W10288   8.750  31.870   3.293
42071W        W10289  36.792  14.775  12.444
42072W        W10290  42.478  26.495  12.414
42073W        W10291   0.467   1.875  14.539
42074W        W10292  15.194  42.483   1.703
42075W        W10293  19.757   5.742  14.250
42076W        W10294  10.354  29.357   0.798
42077W        W10295  20.704   7.410  11.976
42078W        W10296  39.231   0.447  13.356
42079W        W10297  36.887  14.761  10.696
42080W        W10298  13.419   3.833   0.985
42081W        W10299  28.943  18.867  11.930
42082W        W10300  44.298  10.216   0.116
42083W        W10301  32.707  42.834   3.734
42084W        W10302  35.660  22.530  14.302
42085W        W10303  31.828  16.756   2.154
42086W        W10304  32.631  27.068  11.523
42087W        W10305  28.357   4.855  11.060
42088W        W10306  41.537   9.792  14.877
42089W        W10307  41.406  16.857  13.973
42090W        W10308  37.133  22.954  11.027
42091W        W10309   7.310  13.458   3.192
42092W        W10310  44.326  39.002  12.930
42093W        W10311   1.472   4.339  14.752
42094W        W10312  41.920  41.920   2.873
42095W        W10313  30.636  21.564   2.399
42096W        W10314  40.922  26.590  12.626
42097W        W10315   4.169  12.319  12.690
42098W        W10316  11.307  41.471  13.484
42099W        W10317  19.573  34.281  12.907
42100W        W10318  12.285  24.958  12.480
42101W        W10319  19.065   3.884   0.396
42102W        W10320  32.053   3.442   3.043
42103W        W10321  25.074   4.219  13.106
42104W        W10322  11.260  22.294  10.650
42105W        W10323  18.269  40.152  13.844
42106W        W10324  13.365  44.910  13.552
42107W        W10325   3.422  28.373   0.525
42108W        W10326  44.765  27.462   0.335
42109W        W10327  13.045  43.653  14.991
42110W        W10328  37.462  22.505   0.582
42111W        W10329  24.174  32.150  13.363
42112W        W10330  32.373   4.156  14.934
42113W        W10331  42.790  19.099   2.416
42114W        W10332  22.217   3.554   2.807
42115W        W10333  42.532   1.109  14.922
42116W        W10334   7.168  10.423   1.356
42117W        W10335  14.358  33.376  10.477
42118W        W10336  19.736  17.366   3.748
42119W        W10337  36.497   1.893   0.078
42120W        W10338   0.727  36.908  11.781
42121W        W10339  35.336  28.093  11.064
42122W        W10340  29.100  23.482   4.557
42123W        W10341  28.565  24.250   3.592
42124W        W10342  11.717  32.091  10.007
42125W        W10343  39.885  14.622   1.331
42126W        W10344  12.313  12.360  13.119
42127W        W10345  42.917  40.511   5.018
42128W        W10346  12.381  41.913   4.051
42129W        W10347  38.627   1.441  12.130
42130W        W10348  25.563  34.851   1.799
42131W        W10349  36.163  15.991   3.352
42132W        W10350  19.482  36.839  10.426
42133W        W10351   9.583  30.086   4.794
42134W        W10352  39.364  11.359  11.417
42135W        W10353   0.760  43.966   0.696
42136W        W10354  42.534  11.869   2.443
42137W        W10355  31.570  18.728   4.598
42138W        W10356   1.356  27.517   4.560
42139W        W10357  43.426  20.488   0.799
42140W        W10358  15.114   2.645   0.397
42141W        W10359   7.324  38.647  13.503
42142W        W10360   2.026   3.300   1.562
42143W        W10361  20.769   4.289  12.663
42144W        W10362  27.045   4.670   1.727
42145W        W10363  34.505  36.609  14.107
42146W        W10364  36.439  18.295  14.909
42147W        W10365   3.230  36.427   1.936
42148W        W10366  35.666  26.647   0.372
42149W        W10367  22.108   4.190  12.915
42150W        W10368   8.729  21.156   1.501
42151W        W10369   5.905  27.119  12.875
42152W        W10370   5.799  38.320  14.754
42153W        W10371  31.396  39.546   4.520
42154W        W10372   5.768   0.393  12.268
42155W        W10373  29.072  17.143  12.577
42156W        W10374  36.940  15.657   0.059
42157W        W10375  31.346   3.873  10.685
42158W        W10376   3.920  16.586   2.259
42159W        W10377  12.891  25.477  13.026
42160W        W10378   8.922  32.328  11.542
42161W        W10379   9.739  20.612   3.664
42162W        W10380   8.875  36.966   1.341
42163W        W10381  43.948  24.815   3.754
42164W        W10382   0.967  42.060  12.942
42165W        W10383  13.974  29.704  10.654
42166W        W10384  10.758  14.441   2.774
42167W        W10385   6.983  19.677  12.343
42168W        W10386  33.817   8.218   1.846
42169W        W10387  29.672  44.128  14.040
42170W        W10388   5.375  17.117  14.978
42171W        W10389  34.952  14.678   1.771
42172W        W10390  12.147  40.548   0.931
42173W        W10391   5.923  24.935  11.210
42174W        W10392  10.347  13.724   1.281
42175W        W10393   2.316   6.906  10.793
42176W        W10394  29.068  34.353  12.267
42177W        W10395  38.140  20.720  14.808
42178W        W10396  40.769   4.964  10.556
42179W        W10397  15.476  44.910   1.732
42180W        W10398  41.978  11.655  10.678
42181W        W10399  18.877  24.294  13.525
42182W        W10400   4.449  24.608   4.708
42183W        W10401  18.483  24.102   4.647
42184W        W10402  17.370  10.247   1.811
42185W        W10403  30.870  33.608  13.036
42186W        W10404  27.149  38.429   4.699
42187W        W10405  30.069  38.105  13.768
42188W        W10406  40.304  35.727   0.273
42189W        W10407  10.700  28.938   3.793
42190W        W10408  14.545   9.042   1.981
42191W        W10409   9.627  10.003   4.838
42192W        W10410  21.929  36.472   3.415
42193W        W10411   8.811  44.009   1.039
42194W        W10412  29.190  11.085  11.146
42195W        W10413  40.465  35.940   3.787
42196W        W10414  15.559  20.182   1.837
42197W        W10415  22.056  43.100  10.714
42198W        W10416   0.731  43.576   3.145
42199W        W10417   1.007  19.272   2.924
42200W        W10418  18.240  35.586  12.928
42201W        W10419  36.803  43.578   2.219
42202W        W10420  39.508  31.144   1.150
42203W        W10421  10.345  10.213   4.158
42204W        W10422  44.271  28.211   0.796
42205W        W10423  14.538   2.907  12.803
42206W        W10424  20.004   4.219  11.077
42207W        W10425   7.923  40.020  14.274
42208W        W10426   2.696  42.019   1.710
42209W        W10427  32.525  17.292   2.814
42210W        W10428  13.844   1.193   0.078
42211W        W10429   2.778  44.419  13.378
42212W        W10430  33.234  39.456   0.800
42213W        W10431  22.520  31.478  14.953
42214W        W10432   3.504   3.950   3.229
42215W        W10433  41.047  20.984   0.011
42216W        W10434   1.699  19.741  13.850
42217W        W10435  32.452  40.088  12.098
42218W        W10436  38.840  21.510   2.784
42219W        W10437  15.829  40.892  10.413
42220W        W10438  14.004  19.443   1.304
42221W        W10439  29.581  15.254   0.194
42222W        W10440  13.336  25.056  11.664
42223W        W10441  30.632  14.784   3.164
42224W        W10442  11.738  26.145  12.397
42225W        W10443   4.245   4.380   0.363
42226W        W10444  27.604  11.230   4.220
42227W        W10445  37.459  27.135   0.815
42228W        W10446   2.202   4.692   1.266
42229W        W10447  27.474  22.317   4.116
42230W        W10448  22.722  20.923  13.459
42231W        W10449  42.925  22.836   4.638
42232W        W10450  42.280  43.175   1.764
42233W        W10451  43.383  32.828   1.345
42234W        W10452   7.167  17.696   3.137
42235W        W10453  37.221  40.308  12.661
42236W        W10454  10.524  42.827  12.161
42237W        W10455   9.346  30.465   2.222
42238W        W10456  12.283  35.901  14.537
42239W        W10457  43.669   8.543  13.975
42240W        W10458   7.854  39.417   3.177
42241W        W10459  15.125  15.015   4.148
42242W        W10460   8.997   7.629  11.628
42243W        W10461  18.027  30.534  12.245
42244W        W10462   9.363  20.543  13.015
42245W        W10463  34.343  44.222   1.366
42246W        W10464  43.289  30.176   2.076
42247W        W10465  10.757  13.493  12.811
42248W        W10466  22.248  27.535   4.474
42249W        W10467  37.104   6.151   1.761
42250W        W10468  35.111  45.000  11.960
42251W        W10469   7.739  40.086  11.428
42252W        W10470   2.933  11.731  12.959
42253W        W10471  30.975  35.079  12.966
42254W        W10472  21.740   2.289   3.301
42255W        W10473  27.001  19.004  12.658
42256W        W10474  24.561  32.397   0.298
42257W        W10475  34.990  10.109  13.300
42258W        W10476   5.623  10.873   2.732
42259W        W10477  18.765  16.034  12.145
42260W        W10478  23.485  28.683   0.466
42261W        W10479  17.865  24.456   0.736
42262W        W10480  27.507  43.025  13.125
42263W        W10481  33.982  21.245  14.712
42264W        W10482   7.338  38.647   1.855
42265W        W10483   8.680  20.961   2.830
42266W        W10484  17.702   7.241  12.051
42267W        W10485   8.746   0.339   4.528
42268W        W10486  34.058   2.155  13.378
42269W        W10487  42.529  38.433   1.226
42270W        W10488  10.119  24.172   1.015
42271W        W10489  20.961  16.406  14.936
42272W        W10490  44.465  30.939  14.276
42273W        W10491  26.867  43.252   1.665
42274W        W10492   8.387  15.189  14.846
42275W        W10493  41.743   3.972   3.407
42276W        W10494  35.357  27.083   2.346
42277W        W10495   4.155  17.260  13.478
42278W        W10496  12.558  30.121  14.275
42279W        W10497  43.388  39.855   1.883
42280W        W10498  44.417  10.800   4.393
42281W        W10499  16.937   5.155   3.687
42282W        W10500  21.538  22.768   3.634
42283W        W10501  20.642  29.244   1.709
42284W        W10502  16.241  19.310  14.805
42285W        W10503  44.634  34.908  14.028
42286W        W10504  24.776  19.183  14.583
42287W        W10505   5.288   4.811   3.050
42288W        W10506  25.656  39.443  12.541
42289W        W10507  10.364   7.898  12.090
42290W        W10508  17.204  19.503   1.832
42291W        W10509  12.112   4.777   4.651
42292W        W10510  14.409   9.982   2.702
42293W        W10511  39.590  18.720  12.393
42294W        W10512  16.826  13.963   0.581
42295W        W10513  18.872  44.879   0.931
42296W        W10514  42.009  31.655  12.872
42297W        W10515  42.919  23.556   2.091
42298W        W10516   4.557  21.114  12.000
42299W        W10517  15.904  15.653   1.377
42300W        W10518  17.072  12.825   0.914
42301W        W10519  20.987   0.381  10.716
42302W        W10520  13.201  37.597   1.818
42303W        W10521  23.317  13.794   1.935
42304W        W10522   1.199  30.798   1.742
42305W        W10523  26.719   4.803  11.837
42306W        W10524   6.427  30.525   4.778
42307W        W10525   0.940  20.338  12.899
42308W        W10526  44.246   7.040  10.655
42309W        W10527  39.793  38.813   2.745
42310W        W10528  30.510  22.770   2.481
42311W        W10529  14.063  28.297  14.451
42312W        W10530  38.740  26.681  13.494
42313W        W10531   4.197  14.538  12.072
42314W        W10532  22.034  33.891  14.317
42315W        W10533  15.389  12.279  11.616
42316W        W10534  32.909  43.036   0.511
42317W        W10535   1.124  23.070   1.799
42318W        W10536  11.415   6.754  10.615
42319W        W10537  16.799  13.176   3.835
42320W        W10538  10.856  13.801  10.697
42321W        W10539  37.601  44.851   0.730
42322W        W10540  28.680  35.590  12.428
42323W        W10541  14.153  40.021   4.755
42324W        W10542   1.510  16.862  11.017
42325W        W10543  37.541  29.983   4.391
42326W        W10544  27.792  10.790   4.025
42327W        W10545   0.052  38.856  10.763
42328W        W10546   1.501  14.089  14.704
42329W        W10547  16.845  11.889   2.460
42330W        W10548  39.533  17.554   1.959
42331W        W10549   8.036  19.919   5.525
42332W        W10550   8.496  16.570   2.797
42333W        W10551  19.716  11.366  10.721
42334W        W10552  15.013   8.990   2.605
42335W        W10553  17.537  33.603   0.855
42336W        W10554  40.817  20.097  12.946
42337W        W10555   0.203  11.717  10.720
42338W        W10556  12.134   3.836  12.533
42339W        W10557  25.913  17.401   4.590
42340W        W10558  12.895  40.298  11.681
42341W        W10559  29.620   2.718   2.180
42342W        W10560  27.940  37.780   0.811
42343W        W10561  40.339   6.792   1.207
42344W        W10562   4.920   4.263  11.117
42345W        W10563  30.696  13.691   1.617
42346W        W10564   7.848   3.020  14.828
42347W        W10565  19.929  40.254  10.705
42348W        W10566  40.474  37.620   1.018
42349W        W10567  18.626  16.024  11.665
42350W        W10568  16.634  39.294  14.418
42351W        W10569  44.193  43.775   0.785
42352W        W10570   9.662   9.357  13.603
42353W        W10571  39.443  26.917  13.784
42354W        W10572  38.505  44.718   1.085
42355W        W10573  21.651   4.333  12.514
42356W        W10574  29.880  24.620   4.537
42357W        W10575  28.935  42.423   4.527
42358W        W10576   0.298   0.876   2.741
42359W        W10577  15.125  25.072  13.357
42360W        W10578  33.903  28.308  10.945
42361W        W10579   6.891  42.856  13.439
42362W        W10580  39.032  35.555   5.078
42363W        W10581  41.394   7.154   3.860
42364W        W10582  14.075  13.742  12.356
42365W        W10583  11.817  13.724  14.870
42366W        W10584  16.337  34.886   2.118
42367W        W10585  40.032  19.236  14.401
42368W        W10586   6.216  20.482  14.088
42369W        W10587  34.344  39.940  10.558
42370W        W10588  20.251   8.113  13.506
42371W        W10589  16.169   3.467  14.422
42372W        W10590  14.724   0.014  14.867
42373W        W10591  20.302  21.895   2.749
42374W        W10592  19.061  28.469   1.625
42375W        W10593   9.892   4.243   0.437
42376W        W10594  40.396  27.168  10.918
42377W        W10595   9.168  28.112  13.540
42378W        W10596  34.457  25.229  11.465
42379W        W10597  36.928  37.885   2.630
42380W        W10598  31.528  22.451   4.844
42381W        W10599   2.328  16.675  14.788
42382W        W10600  41.280   2.549   0.775
42383W        W10601  29.700   0.113  10.770
42384W        W10602  35.647  30.292   2.536
42385W        W10603  28.953  22.916  11.660
42386W        W10604   2.042  14.628   4.529
42387W        W10605  19.639  30.959   2.814
42388W        W10606  25.918  18.583  11.950
42389W        W10607  31.024  14.380   2.834
42390W        W10608   4.759  33.327  13.076
42391W        W10609  25.534  16.048  12.846
42392W        W10610  24.820  43.839   1.936
42393W        W10611  23.415  34.859  10.726
42394W        W10612  20.186  24.913   0.232
42395W        W10613   4.167  29.634  12.383
42396W        W10614  12.728  39.595   3.897
42397W        W10615  29.038  37.986  13.082
42398W        W10616  35.839   8.916  14.413
42399W        W10617  31.098   8.392  11.681
42400W        W10618  26.987   6.410  14.860
42401W        W10619   0.337   6.380   2.308
42402W        W10620  34.916  44.948  14.301
42403W        W10621  37.834  32.372   4.148
42404W        W10622  27.468  44.577  11.181
42405W        W10623  17.736  41.086  11.322
42406W        W10624  28.529  41.324  13.937
42407W        W10625  28.152  40.329  11.134
42408W        W10626  23.891  37.122  14.470
42409W        W10627   3.844  14.677   2.661
42410W        W10628  36.854  35.402   1.840
42411W        W10629   8.693  20.541   2.442
42412W        W10630  36.660  40.426  13.389
42413W        W10631  31.804  13.993   4.435
42414W        W10632   9.353  31.114  11.257
42415W        W10633  16.771  22.181  10.388
42416W        W10634   6.287  25.780  11.226
42417W        W10635   4.921   3.937  13.934
42418W        W10636   4.355  41.021  14.361
42419W        W10637  28.973  23.143   1.323
42420W        W10638  19.188  12.854  13.543
42421W        W10639  12.036  32.192  10.988
42422W        W10640  36.655  23.642  10.867
42423W        W10641  34.696  16.236   0.417
42424W        W10642  19.280   2.352   3.683
42425W        W10643   3.122  31.693   2.241
42426W        W10644   4.590  18.558  12.966
42427W        W10645  12.413  20.630   3.227
42428W        W10646  29.910   5.625  13.006
42429W        W10647  21.630  16.088  12.529
42430W        W10648  10.080  34.522  12.173
42431W        W10649   1.380   4.499   1.238
42432W        W10650  44.778  23.763   3.778
42433W        W10651   5.922   6.167  13.449
42434W        W10652  16.355  14.763  11.168
42435W        W10653  37.370  15.278  11.506
42436W        W10654   9.229  42.568   0.539
42437W        W10655  21.470  19.529  11.172
42438W        W10656  37.791  17.624   1.883
42439W        W10657  37.094  43.846   1.431
42440W        W10658  10.337  32.837   3.627
42441W        W10659  37.981  30.705   3.717
42442W        W10660  15.166   2.224  11.032
42443W        W10661  28.372  25.230  14.308
42444W        W10662   8.196  14.368  11.660
42445W        W10663  35.856   0.173   2.205
42446W        W10664  21.633  14.395  14.465
42447W        W10665  25.146   7.643  13.535
42448W        W10666   2.212  26.498   4.349
42449W        W10667  12.605  15.834  12.931
42450W        W10668  30.148  39.077   3.270
42451W        W10669  30.864  38.982  10.962
42452W        W10670   4.048   8.402  14.323
42453W        W10671  28.727   2.823  12.490
42454W        W10672  42.818  11.692  12.162
42455W        W10673  33.552  38.410   0.913
42456W        W10674   4.338  34.582  12.378
42457W        W10675   0.736  24.287   2.786
42458W        W10676  10.288  42.683  14.514
42459W        W10677  39.254  28.955  11.900
42460W        W10678  32.330  13.849   0.568
42461W        W10679  10.179   4.364   2.734
42462W        W10680  28.433  10.089   3.641
42463W        W10681  19.137  12.686  14.526
42464W        W10682  37.000  21.063  13.465
42465W        W10683  23.780  37.143   3.193
42466W        W10684   0.511  25.482   2.310
42467W        W10685  17.313  37.458   4.101
42468W        W10686   0.902   8.303   0.774
42469W        W10687  24.288  40.019   4.613
42470W        W10688  26.709  41.568   0.048
42471W        W10689  26.006  32.578   3.430
42472W        W10690  30.130  14.151  12.067
42473W        W10691  28.640   4.821  10.609
42474W        W10692  41.947   4.089   5.729
42475W        W10693  39.470   0.853   0.173
42476W        W10694  44.590   2.299  11.188
42477W        W10695  30.296  26.557   4.975
42478W        W10696  28.209  23.547  12.444
42479W        W10697  26.037   0.334  10.960
42480W        W10698  37.559  13.360  12.357
42481W        W10699  28.453  27.051   4.047
42482W        W10700  24.165  40.447  14.824
42483W        W10701  32.492   6.242  11.575
42484W        W10702   2.309  27.086  13.776
42485W        W10703  42.831  23.858  10.762
42486W        W10704  18.125  38.574  11.134
42487W        W10705   6.677  26.989  10.929
42488W        W10706  10.798   2.814   1.613
42489W        W10707  37.143  40.543   4.929
42490W        W10708  11.332  36.883  13.354
42491W        W10709  39.425  22.276  13.000
42492W        W10710  34.072   8.454   2.265
42493W        W10711  22.876  28.970  13.031
42494W        W10712  41.209  36.260   0.323
42495W        W10713  19.714  42.438  11.140
42496W        W10714  35.178  28.184   3.149
42497W        W10715   2.129  34.790  11.939
42498W        W10716   2.257  23.058   1.026
42499W        W10717  17.816  30.308   4.477
42500W        W10718   2.928  25.949   1.339
42501W        W10719  41.836  19.189  10.325
42502W        W10720  15.794  18.143   0.284
42503W        W10721  34.638  21.633   3.285
42504W        W10722  43.427  38.778   0.648
42505W        W10723  27.075  25.066   0.444
42506W        W10724   5.892  13.665  13.779
42507W        W10725   4.911  38.611   3.819
42508W        W10726  11.653  22.508  12.359
42509W        W10727  19.011  22.472   3.741
42510W        W10728  15.645  24.277  12.271
42511W        W10729  29.551  21.727   0.681
42512W        W10730  30.877  17.592   1.328
42513W        W10731   5.811  13.162   3.329
42514W        W10732  19.995  39.608  14.950
42515W        W10733  18.609   3.706   2.614
42516W        W10734  22.708  38.796   2.925
42517W        W10735  36.638   2.280   3.561
42518W        W10736  28.870  25.749  12.107
42519W        W10737  35.965  16.536  12.459
42520W        W10738  23.976   5.379  11.665
42521W        W10739  34.581  35.010   1.708
42522W        W10740  26.049  15.971   3.045
42523W        W10741  33.163  31.053  13.099
42524W        W10742  10.462   3.449   4.201
42525W        W10743  39.374   5.973   4.188
42526W        W10744  38.109  20.091   3.425
42527W        W10745  10.433  17.654  11.965
42528W        W10746  16.704   4.161  14.173
42529W        W10747  10.499  31.110  12.380
42530W        W10748  31.839  19.114  12.798
42531W        W10749  35.383  18.150  13.334
42532W        W10750  11.612  14.751  14.550
42533W        W10751  35.328  32.450   2.265
42534W        W10752   9.699  13.738  11.969
42535W        W10753  16.034  13.717   0.784
42536W        W10754  26.972  17.179  10.519
42537W        W10755   8.476  14.324  10.672
42538W        W10756  26.238   6.989   4.677
42539W        W10757  15.374   2.032   2.868
42540W        W10758  43.291  33.573  12.917
42541W        W10759  16.225  21.713   4.310
42542W        W10760  23.507  13.519  10.737
42543W        W10761  40.024  27.539   2.346
42544W        W10762  18.722  31.606  11.116
42545W        W10763  14.554   2.851  10.643
42546W        W10764  25.088  10.764  11.965
42547W        W10765  21.409  24.383  13.646
42548W        W10766  23.582  29.620  10.679
42549W        W10767  38.488   2.954   0.238
42550W        W10768  20.299   3.207   2.637
42551W        W10769  16.984  39.220   4.746
42552W        W10770  37.781  21.535   4.789
42553W        W10771  28.096   8.710  12.782
42554W        W10772  19.799  38.531   0.801
42555W        W10773  16.568  19.461  14.359
42556W        W10774  14.905   0.538  11.627
42557W        W10775  11.378  26.845  12.601
42558W        W10776  36.674  16.035   3.338
42559W        W10777   0.199  10.163  14.022
42560W        W10778  17.785  33.923  10.637
42561W        W10779  30.392  32.296  12.055
42562W        W10780  23.643   0.517  11.878
42563W        W10781  28.200  40.432   3.202
42564W        W10782  19.499   0.236   4.085
42565W        W10783  31.033   8.412   1.224
42566W        W10784  40.337  40.377   3.224
42567W        W10785  29.978  14.023  11.598
42568W        W10786  36.215   9.295  14.534
42569W        W10787  16.726  43.530  13.472
42570W        W10788  20.550  20.989  12.986
42571W        W10789  26.356  38.829   1.719
42572W        W10790  16.903  36.821  12.102
42573W        W10791  36.291  44.993  14.305
42574W        W10792  23.755  41.265   0.088
42575W        W10793  28.610  25.565   2.324
42576W        W10794  16.753  23.469  12.618
42577W        W10795  29.521  16.097  14.266
42578W        W10796   2.357  36.553  10.987
42579W        W10797  42.896  24.433  11.438
42580W        W10798   8.187   2.892   2.452
42581W        W10799  32.947  35.353   1.450
42582W        W10800   1.782  27.386  12.940
42583W        W10801  38.807  21.596   3.716
42584W        W10802  25.728  26.182   0.919
42585W        W10803  42.471  14.239   0.855
42586W        W10804  24.409  32.222   2.565
42587W        W10805  22.542  12.161   2.425
42588W        W10806  31.206   1.203  13.522
42589W        W10807  15.556  18.459  11.547
42590W        W10808  31.535  32.416  11.475
42591W        W10809   3.500   6.999   4.066
42592W        W10810  33.092  11.759   3.607
42593W        W10811  31.059  42.224   4.153
42594W        W10812   4.471   5.732   1.425
42595W        W10813  23.006   0.968  11.218
42596W        W10814  23.647  44.987  12.200
42597W        W10815  26.181  25.945  12.524
42598W        W10816  39.326  37.272   4.276
42599W        W10817  32.433  15.744  13.405
42600W        W10818  19.695  21.981  12.596
42601W        W10819  11.883  34.805  14.321
42602W        W10820  24.104  28.571   2.761
42603W        W10821  23.747  22.132   3.684
42604W        W10822  29.424  43.987  11.136
42605W        W10823  24.928  25.478  10.784
42606W        W10824  19.985  43.687  14.041
42607W        W10825  23.181  30.644  12.643
42608W        W10826  22.796  23.407  13.399
42609W        W10827   0.229  23.748  11.452
42610W        W10828  31.868  31.020  12.549
42611W        W10829  25.577   8.883   3.372
42612W        W10830   1.227  17.110   1.775
42613W        W10831  27.513  14.815  12.455
42614W        W10832  34.993  21.746   0.708
42615W        W10833  36.146  37.833  13.918
42616W        W10834  42.986  17.222   0.849
42617W        W10835  12.839  37.884   1.535
42618W        W10836  29.669   5.844  12.547
42619W        W10837  39.912  24.050  11.467
42620W        W10838  36.357  23.461  12.871
42621W        W10839  18.554  16.092  14.504
42622W        W10840  23.743  29.615   0.369
42623W        W10841  21.255   6.437  13.115
42624W        W10842  30.267   2.743  10.974
42625W        W10843  43.547  28.374   4.915
42626W        W10844  24.109  21.502  14.358
42627W        W10845  19.784  18.041  13.917
42628W        W10846  44.449  24.278  11.954
42629W        W10847  24.000  17.279  12.547
42630W        W10848  19.210  10.866  14.888
42631W        W10849  12.677  13.246  11.362
42632W        W10850   0.482  12.125  10.951
42633W        W10851  23.831  27.595  12.120
42634W        W10852  44.981  20.991   3.009
42635W        W10853   5.234  14.151   2.766
42636W        W10854  27.518  14.671   3.500
42637W        W10855  25.732   7.941  11.992
42638W        W10856  22.467  12.116   3.792
42639W        W10857  35.354  12.641  13.830
42640W        W10858   2.823  12.677  14.851
42641W        W10859  14.043  20.950   2.706
42642W        W10860  30.549   9.199   3.791
42643W        W10861  15.165  42.036  10.054
42644W        W10862  41.536  11.921  13.704
42645W        W10863   3.807  21.092   4.364
42646W        W10864  19.766   5.727  12.266
42647W        W10865  16.205  30.915  11.918
42648W        W10866   3.460  34.431   2.784
42649W        W10867  12.830  34.391  11.088
42650W        W10868  16.129  32.843   0.937
42651W        W10869  15.221  19.687  13.328
42652W        W10870  34.622  19.631  13.292
42653W        W10871  37.383  24.454   0.005
42654W        W10872  44.916  12.716   4.209
42655W        W10873  35.938   7.288   1.467
42656W        W10874  26.614   9.107   1.913
42657W        W10875  23.217  44.245  14.812
42658W        W10876   8.934  17.832   0.660
42659W        W10877   6.605  19.434   4.526
42660W        W10878  14.967  31.462   4.170
42661W        W10879  42.366  38.670   1.660
42662W        W10880  24.076   7.839   3.558
42663W        W10881   7.218  38.320   2.250
42664W        W10882  36.976  32.112   3.191
42665W        W10883  30.669  27.556  10.282
42666W        W10884  12.733   9.978   4.168
42667W        W10885  27.315   0.220  10.677
42668W        W10886  35.283   9.676   0.302
42669W        W10887  16.747  14.289  14.345
42670W        W10888  17.386  16.730  14.275
42671W        W10889  30.059  44.842   2.323
42672W        W10890   7.927  20.222  11.410
42673W        W10891  33.523  32.093   1.324
42674W        W10892   0.407  31.244  12.083
42675W        W10893  19.490  15.358  13.310
42676W        W10894  41.642  23.486   1.388
42677W        W10895  20.577  15.571   2.243
42678W        W10896  27.010  31.548  12.818
42679W        W10897  26.500  24.485   5.006
42680W        W10898  16.823  33.714   0.128
42681W        W10899   8.073   9.278   2.816
42682W        W10900  27.221  30.962  14.568
42683W        W10901  39.545  38.977   4.250
42684W        W10902  40.400  37.766  13.623
42685W        W10903  14.162  12.875  14.717
42686W        W10904   9.294   8.105  14.353
42687W        W10905  19.076  25.630  14.480
42688W        W10906  28.680  33.427  14.303
42689W        W10907   8.128  41.441  14.314
42690W        W10908  12.538  36.860   0.384
42691W        W10909  33.843   4.056  12.550
42692W        W10910   4.991   8.169   3.663
42693W        W10911   7.324  37.032   0.867
42694W        W10912  22.012  41.267   2.738
42695W        W10913  40.551  36.990  14.631
42696W        W10914  30.483  14.419   5.045
42697W        W10915  31.395  16.588  14.355
42698W        W10916  37.392  30.614  14.817
42699W        W10917   4.373  40.029  11.557
42700W        W10918  19.537  16.427  12.579
42701W        W10919  27.263  19.258   3.649
42702W        W10920  11.171   9.174   0.054
42703W        W10921  29.849   0.496   1.400
42704W        W10922   7.361   4.882   4.347
42705W        W10923  41.446  33.042   2.931
42706W        W10924  38.859   0.632   3.465
42707W        W10925   5.461  31.194  11.161
42708W        W10926  32.332   2.987  10.224
42709W        W10927  19.618  33.084   1.549
42710W        W10928  34.843  22.998  14.867
42711W        W10929  42.377   3.061  11.584
42712W        W10930  15.115  42.991   4.431
42713W        W10931  38.429   8.391  13.348
42714W        W10932   5.140  16.150   2.393
42715W        W10933  33.736  15.124  13.663
42716W        W10934   2.971  15.154   2.889
42717W        W10935   2.737   9.292   2.655
42718W        W10936  37.439   7.043  14.531
42719W        W10937  22.987   5.759  14.741
42720W        W10938  35.109   7.381  14.686
42721W        W10939   3.971  41.801   3.799
42722W        W10940  13.491  10.771   3.050
42723W        W10941  12.139  21.065  10.704
42724W        W10942  11.875  34.882  11.231
42725W        W10943  29.057   5.255   0.336
42726W        W10944  33.512   3.886   2.341
42727W        W10945  27.499  14.381  11.555
42728W        W10946  29.208   1.490  12.962
42729W        W10947  21.165  40.228   0.327
42730W        W10948   2.360  16.123   1.741
42731W        W10949  13.166  41.224   3.193
42732W        W10950  20.986  14.270  13.679
42733W        W10951  40.252   7.800  14.800
42734W        W10952  12.969  32.189   9.818
42735W        W10953  32.585  22.811   4.333
42736W        W10954  10.936  29.289  10.670
42737W        W10955  29.978   0.048  12.621
42738W        W10956  28.871  38.764  11.148
42739W        W10957   4.989  21.075  11.670
42740W        W10958  30.136  20.907  13.461
42741W        W10959  11.409  43.441   2.306
42742W        W10960  38.361  13.333   3.343
42743W        W10961  30.361  24.646  14.379
42744W        W10962  31.477  16.519   3.183
42745W        W10963  44.223  36.452   0.223
42746W        W10964   4.713   8.592   1.415
42747W        W10965  31.147  31.825  13.310
42748W        W10966  28.978   8.724  12.832
42749W        W10967  25.233   7.860  12.111
42750W        W10968  10.723  19.603   4.543
42751W        W10969  19.843   8.887  13.554
42752W        W10970   3.009  27.354   2.160
42753W        W10971  22.505  37.048   4.235
42754W        W10972  13.817  44.315   0.665
42755W        W10973  24.057  19.762  10.606
42756W        W10974  32.628  17.212  12.375
42757W        W10975  26.860  17.821  10.606
42758W        W10976  34.426  24.084   4.638
42759W        W10977  30.399   1.300  14.885
42760W        W10978  31.432  42.754   2.133
42761W        W10979  39.877   3.478  14.748
42762W        W10980   3.397  44.235   2.972
42763W        W10981   8.800  37.066   4.876
42764W        W10982  41.261  32.192   2.870
42765W        W10983  24.718   3.401  11.173
42766W        W10984  16.189  15.507   0.960
42767W        W10985  16.858  10.164   2.715
42768W        W10986  18.240  28.994   4.543
42769W        W10987  16.733  17.322  12.060
42770W        W10988  32.935  33.838   2.027
42771W        W10989  19.016  14.789  12.475
42772W        W10990   8.860   5.956   2.707
42773W        W10991   6.625  22.744   0.904
42774W        W10992   2.954  27.065   0.413
42775W        W10993  39.831  12.422   1.839
42776W        W10994  24.305  35.190   0.340
42777W        W10995  15.342  20.537   3.661
42778W        W10996  29.433  43.284  14.388
42779W        W10997  31.104  39.391   3.791
42780W        W10998  37.835  31.357   4.287
42781W        W10999  13.894  38.116   1.534
42782W        W11000  32.421  35.429   3.108
42783W        W11001  33.604  34.052   2.400
42784W        W11002  40.861   4.254   2.350
42785W        W11003  10.077  20.824   2.747
42786W        W11004  27.058   6.262  14.371
42787W        W11005  40.479  13.281   1.885
42788W        W11006  26.546   4.876   2.470
42789W        W11007   5.642  18.142  10.987
42790W        W11008  14.863   0.249  12.093
42791W        W11009  38.866   3.629   4.490
42792W        W11010  22.164  44.114   4.935
42793W        W11011  17.397   4.178  12.549
42794W        W11012  41.987   4.699   4.608
42795W        W11013  21.210  12.778  12.391
42796W        W11014   5.716  35.414  11.579
42797W        W11015   7.420  43.339  14.456
42798W        W11016  35.108   0.706  13.997
42799W        W11017  15.587  10.409  14.419
42800W        W11018   2.789  12.682   4.918
42801W        W11019  41.028  20.522  11.908
42802W        W11020  38.850  13.345   4.214
42803W        W11021  40.302  29.918   1.175
42804W        W11022  13.531  12.036   2.314
42805W        W11023  29.880  10.878  13.631
42806W        W11024  36.015  23.644   3.761
42807W        W11025   3.251   2.956   1.186
42808W        W11026  19.090  40.841  11.051
42809W        W11027  28.779  35.915  13.989
42810W        W11028   8.287  44.390   4.662
42811W        W11029  23.222  30.719   3.831
42812W        W11030  44.324   1.302  12.680
42813W        W11031  41.548  12.016  13.198
42814W        W11032   2.893  27.335  14.045
42815W        W11033  43.814  28.442  12.356
42816W        W11034  29.658  23.112  12.035
42817W        W11035   8.480  12.798  13.249
42818W        W11036   3.679  37.946   2.836
42819W        W11037  41.956  22.041   3.180
42820W        W11038  25.536   6.663   2.210
42821W        W11039  43.855   3.569   3.552
42822W        W11040  37.037  44.634   3.393
42823W        W11041  24.183   1.226  13.917
42824W        W11042   0.070  18.704  13.892
42825W        W11043   6.776   9.270   1.415
42826W        W11044  24.674  17.681   1.504
42827W        W11045  20.076   4.360   2.666
42828W        W11046  14.838  35.384  13.793
42829W        W11047  40.114  35.854   3.412
42830W        W11048  25.432  12.874  12.648
42831W        W11049  22.007  17.736   2.215
42832W        W11050  10.706  13.553   2.219
42833W        W11051  15.245  26.111  10.360
42834W        W11052  31.975   5.082  13.002
42835W        W11053  40.655  19.978   3.672
42836W        W11054  31.670  17.227  14.566
42837W        W11055  26.580  20.098  10.764
42838W        W11056  44.942  24.924  12.870
42839W        W11057  18.480  20.721   3.139
42840W        W11058  35.495  41.941  11.064
42841W        W11059  41.664   0.857  14.540
42842W        W11060  17.066   2.726  14.326
42843W        W11061  34.860   9.374   0.745
42844W        W11062  13.638  42.791  12.467
42845W        W11063  44.578  10.698  11.540
42846W        W11064  14.642   6.874   1.404
42847W        W11065  31.744  24.490   3.246
42848W        W11066   8.888  12.277  12.442
42849W        W11067  35.802  29.582  14.470
42850W        W11068  37.789  33.621   3.576
42851W        W11069  26.112  34.483  11.823
42852W        W11070  21.062  37.212   2.681
42853W        W11071  26.213  35.547  10.564
42854W        W11072  35.030  25.685  10.735
42855W        W11073  39.812  38.891  13.969
42856W        W11074  15.219  44.892  12.841
42857W        W11075   0.363  33.158  13.716
42858W        W11076  23.558  21.731  13.584
42859W        W11077  10.050  40.777  10.992
42860W        W11078   8.310  37.445   4.071
42861W        W11079  33.983  20.783  10.359
42862W        W11080  15.039  40.349   0.497
42863W        W11081   0.244   7.939  11.965
42864W        W11082  17.538  25.471   4.262
42865W        W11083  22.046  27.785  13.317
42866W        W11084  28.956   2.161   5.054
42867W        W11085  15.623   6.414   4.085
42868W        W11086  44.449  38.116   3.644
42869W        W11087  15.390  34.799  13.379
42870W        W11088  17.062   5.451   0.650
42871W        W11089   8.216  30.514  12.631
42872W        W11090   2.389  43.928  12.563
42873W        W11091  22.317  35.031  11.579
42874W        W11092  37.862  41.998  10.809
42875W        W11093  13.074  13.403   4.280
42876W        W11094  13.228   8.956   0.030
42877W        W11095  16.113  16.190   1.635
42878W        W11096  24.071  33.228  10.989
42879W        W11097  10.807  24.632  14.859
42880W        W11098   5.901  11.247  11.919
42881W        W11099  12.990  12.786   1.728
42882W        W11100  20.653  44.920   0.883
42883W        W11101  33.332  37.943   1.792
42884W        W11102  11.276  21.439   1.808
42885W        W11103   7.358   9.248   1.379
42886W        W11104  36.983  25.681   3.651
42887W        W11105  20.253   9.584  10.894
42888W        W11106  43.911  27.054   2.636
42889W        W11107   0.768  38.047   3.369
42890W        W11108  20.771  25.151  11.581
42891W        W11109  16.282  32.728   3.221
42892W        W11110  14.228  18.596   0.728
42893W        W11111  35.680  14.144  14.342
42894W        W11112  29.169  14.491  14.051
42895W        W11113  10.444  39.071   4.191
42896W        W11114  43.990  23.238  11.327
42897W        W11115   0.960   5.828   4.721
42898W        W11116  31.559  36.969   4.684
42899W        W11117  22.785  16.257   1.852
42900W        W11118   0.661  28.887   2.584
42901W        W11119  10.117  20.154  11.150
42902W        W11120  40.433  24.294  10.714
42903W        W11121   3.510  27.481  14.014
42904W        W11122  31.678  27.182   4.038
42905W        W11123  43.218   1.920   3.390
42906W        W11124  25.088  43.763  11.953
42907W        W11125  29.617  35.469  10.757
42908W        W11126   0.587  32.598  12.149
42909W        W11127  20.775   4.264   0.445
42910W        W11128  33.073  21.071  12.893
42911W        W11129   8.557  40.801   2.650
42912W        W11130   8.628  40.166  12.044
42913W        W11131  41.945  38.126   3.067
42914W        W11132  18.189  32.367  10.577
42915W        W11133  29.710   7.415  12.972
42916W        W11134   9.197  14.246  11.651
42917W        W11135  22.983  36.425   0.381
42918W        W11136  22.594  23.625   1.302
42919W        W11137  33.388  31.826   3.249
42920W        W11138   8.897   0.185  11.651
42921W        W11139  16.405  43.000   3.654
42922W        W11140  40.329  32.957  11.929
42923W        W11141  40.730  25.681   0.827
42924W        W11142   7.812  39.185  12.067
42925W        W11143   9.233  37.687   1.527
42926W        W11144  16.021   4.944  10.588
42927W        W11145  10.322  44.809   1.181
42928W        W11146   4.107  38.762   1.876
42929W        W11147   1.784  28.388   3.311
42930W        W11148   4.393  35.107  11.065
42931W        W11149   7.352  10.757  13.469
42932W        W11150  23.120   9.771   3.168
42933W        W11151  11.269  18.142   4.213
42934W        W11152  17.003  29.697   0.702
42935W        W11153  41.785  43.724   1.363
42936W        W11154  19.832  33.428   3.426
42937W        W11155  25.590   9.628  11.500
42938W        W11156  44.839  26.372  12.541
42939W        W11157  17.156  32.833  14.347
42940W        W11158  33.674  10.546  10.134
42941W        W11159  22.702   7.398   1.027
42942W        W11160  43.257  38.419  11.722
42943W        W11161   8.690  28.395   0.278
42944W        W11162  16.042  40.942  13.973
42945W        W11163  18.333  23.751   1.716
42946W        W11164   4.676  33.847  10.526
42947W        W11165   5.866  40.152  10.266
42948W        W11166  44.314  10.312   3.145
42949W        W11167  14.995  37.628   2.213
42950W        W11168  19.219  13.829  12.523
42951W        W11169   7.617  14.190   0.500
42952W        W11170  19.595  14.653  13.848
42953W        W11171  19.033  29.393   2.575
42954W        W11172  18.690  24.667   1.119
42955W        W11173   6.894  44.906   1.781
42956W        W11174  40.962   9.408   0.294
42957W        W11175  20.315  39.992  12.439
42958W        W11176  12.563  35.490   3.236
42959W        W11177  20.415  37.244  14.952
42960W        W11178  35.039  12.517  12.117
42961W        W11179   8.633   3.037  11.473
42962W        W11180  44.437  28.489  12.942
42963W        W11181  26.841  39.967  12.112
42964W        W11182  16.584  24.669   1.942
42965W        W11183   6.226  28.693  13.889
42966W        W11184   2.331  40.563   4.256
42967W        W11185  40.398  17.787  13.267
42968W        W11186  23.951  26.269   4.172
42969W        W11187  28.445  22.053   1.737
42970W        W11188  19.843  39.624  14.445
42971W        W11189  25.783  17.348  14.019
42972W        W11190  43.386  35.433  12.285
42973W        W11191  32.795   4.019  14.360
42974W        W11192  16.624  28.008  11.419
42975W        W11193  17.621   8.363  13.419
42976W        W11194  31.367   8.161  14.940
42977W        W11195  26.129   7.254   1.825
42978W        W11196  33.339  25.965  14.999
42979W        W11197  38.999   4.388  14.388
42980W        W11198  16.132  37.090   2.177
42981W        W11199  35.908   6.762   1.740
42982W        W11200  31.320  17.610  14.853
42983W        W11201   3.344  35.441   1.462
42984W        W11202  29.802   5.677   3.067
42985W        W11203  38.943   4.818  10.011
42986W        W11204  36.344  27.467   0.281
42987W        W11205  24.399  10.569  13.366
42988W        W11206  19.998  32.355   3.793
42989W        W11207  26.652  33.544  13.531
42990W        W11208   5.258   0.232   4.989
42991W        W11209  32.042   8.743   1.947
42992W        W11210  24.449  21.111   4.556
42993W        W11211  24.879  38.722  13.906
42994W        W11212  28.531  29.151   0.133
42995W        W11213  20.245   7.363  14.514
42996W        W11214  39.248  44.005  13.527
42997W        W11215  19.151  32.007   4.699
42998W        W11216  43.443  41.536  14.966
42999W        W11217  12.657  16.213  14.040
43000W        W11218  39.439  37.038  13.771
43001W        W11219   4.645  25.043  10.472
43002W        W11220  24.470  14.726  11.813
43003W        W11221  31.720   3.994  12.664
43004W        W11222  19.512   1.424  12.114
43005W        W11223  44.307  43.089  10.573
43006W        W11224  33.112   1.767   1.881
43007W        W11225  29.916  14.806   4.305
43008W        W11226  36.844  16.197  13.340
43009W        W11227   8.395  41.301   3.708
43010W        W11228  16.846   3.490  11.167
43011W        W11229  26.986  26.610   3.585
43012W        W11230  17.530   5.796   4.533
43013W        W11231  18.732  12.083  11.489
43014W        W11232   6.075  17.381   2.563
43015W        W11233   5.396   1.702  13.494
43016W        W11234   4.720  36.721  14.394
43017W        W11235  22.101  25.647   2.848
43018W        W11236  35.350   3.019   2.016
43019W        W11237  36.103  32.124   3.876
43020W        W11238  36.142  23.554   4.711
43021W        W11239  34.405  19.144  13.309
43022W        W11240  23.788  33.078   1.805
43023W        W11241  43.100   3.693  11.052
43024W        W11242  34.424  21.078   0.426
43025W        W11243   5.752  28.597   3.258
43026W        W11244  31.828  27.082   1.857
43027W        W11245   7.646  15.423   3.675
43028W        W11246  39.856  18.542  13.194
43029W        W11247  10.981  25.596   3.317
43030W        W11248   3.231  28.168  12.171
43031W        W11249  40.652  36.878  12.554
43032W        W11250  40.767   8.759   1.843
43033W        W11251  30.440  24.460   2.377
43034W        W11252  42.381  11.173  12.497
43035W        W11253  42.302  22.672  11.373
43036W        W11254   7.845  38.528   3.268
43037W        W11255  31.817  26.038   0.228
43038W        W11256   5.199  44.052   1.829
43039W        W11257  23.528   0.289   0.757
43040W        W11258  22.480  42.444   3.827
43041W        W11259   5.202   5.251  14.024
43042W        W11260  22.623  35.439   2.431
43043W        W11261  24.016   4.758  13.825
43044W        W11262  21.244  36.732   9.976
43045W        W11263  27.796   6.815   0.560
43046W        W11264  35.586  22.765   2.741
43047W        W11265  12.684   5.403  13.112
43048W        W11266  33.536  28.135  10.427
43049W        W11267  12.462  44.773  12.221
43050W        W11268  22.619  11.721  14.736
43051W        W11269  23.120  22.293  14.408
43052W        W11270  42.866  22.676  13.212
43053W        W11271  21.649   0.980  14.898
43054W        W11272   5.213  11.070   4.511
43055W        W11273  32.834   5.960   3.159
43056W        W11274   4.215   8.835  14.038
43057W        W11275  38.328  16.138  11.102
43058W        W11276  35.255   3.483   9.863
43059W        W11277  30.007  13.554  10.702
43060W        W11278   2.251  43.738  14.872
43061W        W11279  28.191  14.223   4.515
43062W        W11280   1.862   0.037   4.255
43063W        W11281  17.377  23.758   1.825
43064W        W11282   3.986  27.644  12.225
43065W        W11283  19.947  32.407  11.069
43066W        W11284  12.760  14.657  11.527
43067W        W11285  37.519   6.842  14.000
43068W        W11286   4.447   8.592  13.545
43069W        W11287  25.583  33.156   2.780
43070W        W11288  41.351   6.282   1.534
43071W        W11289  42.280  29.549   2.847
43072W        W11290  11.182  17.240   1.696
43073W        W11291  23.516  14.096   4.129
43074W        W11292  31.819   5.485  14.741
43075W        W11293  11.140  25.851  11.514
43076W        W11294   9.763   7.958   3.125
43077W        W11295  40.584  39.882   4.216
43078W        W11296   7.999  10.689   4.627
43079W        W11297  11.788  10.353   0.752
43080W        W11298  21.798  40.798   4.469
43081W        W11299  35.785   0.808  13.133
43082W        W11300  39.984  26.455   1.245
43083W        W11301  14.637   6.089  11.154
43084W        W11302   5.015  10.961  10.977
43085W        W11303  26.407  30.646  12.915
43086W        W11304  20.622   0.955  10.894
43087W        W11305   5.267   8.911   2.376
43088W        W11306  25.568  21.969   4.098
43089W        W11307  24.275  32.641  14.478
43090W        W11308  42.535  23.111  14.011
43091W        W11309  33.519  36.310  12.632
43092W        W11310   3.241  14.623   1.774
43093W        W11311  29.447  26.372   2.439
43094W        W11312  20.353  16.660  11.596
43095W        W11313  36.538  12.810  11.199
43096W        W11314  37.904  30.375  12.138
43097W        W11315  10.835  28.671   4.213
43098W        W11316   4.926  14.751  14.288
43099W        W11317  32.698  12.658  14.089
43100W        W11318  22.536  26.726   3.325
43101W        W11319  27.702  21.163   0.934
43102W        W11320  13.362   6.855  14.397
43103W        W11321  42.498  44.377   2.415
43104W        W11322  13.120  43.312   2.847
43105W        W11323  33.735   3.045   0.387
43106W        W11324  30.382  16.627   4.519
43107W        W11325  26.996   8.460   4.161
43108W        W11326  24.276   2.878   3.968
43109W        W11327  37.959  40.869  14.288
43110W        W11328  15.609   2.238   3.294
43111W        W11329  40.951   4.381   3.917
43112W        W11330  33.564  39.632  14.461
43113W        W11331  41.827   1.069  10.298
43114W        W11332  18.022  25.157   2.819
43115W        W11333  22.726  14.626   1.754
43116W        W11334  11.352   7.650   3.248
43117W        W11335  39.613  10.292  10.667
43118W        W11336  33.956  19.798  12.051
43119W        W11337  20.096  42.759  12.481
43120W        W11338  19.100  29.534  10.667
43121W        W11339   1.435   7.658   4.621
43122W        W11340   1.427  19.991   4.047
43123W        W11341  38.854   8.091   3.664
43124W        W11342  19.300  40.807   1.468
43125W        W11343   7.942  26.471  13.783
43126W        W11344  38.384   1.903  10.903
43127W        W11345  30.876  38.834   1.870
43128W        W11346  43.556   5.886  12.550
43129W        W11347  37.617  11.428   2.565
43130W        W11348  31.676  30.522  12.550
43131W        W11349  24.996  32.620  13.052
43132W        W11350  22.786  33.931   1.873
43133W        W11351   1.731   4.195  11.616
43134W        W11352  32.617  22.575   0.266
43135W        W11353  34.563  23.042   1.772
43136W        W11354   7.514  14.406   3.152
43137W        W11355  33.996   0.947  12.980
43138W        W11356  25.112   9.226  12.607
43139W        W11357   7.954  12.109   4.651
43140W        W11358   2.161  33.445  14.959
43141W        W11359  28.227   3.965   2.019
43142W        W11360  10.988  19.350  12.657
43143W        W11361  38.767  39.129  12.879
43144W        W11362   2.544  34.053  12.413
43145W        W11363  23.488  10.876   4.015
43146W        W11364  15.596  17.796  12.417
43147W        W11365  10.461  19.350   3.716
43148W        W11366  35.995  38.257   4.111
43149W        W11367  23.936  26.778   4.129
43150W        W11368  44.874  38.858  13.398
43151W        W11369   8.592  21.603  10.716
43152W        W11370   0.437  12.751  12.046
43153W        W11371  26.104  39.486  11.209
43154W        W11372  32.147  21.557  14.887
43155W        W11373   5.364  15.071  11.732
43156W        W11374  38.861  38.594  14.903
43157W        W11375   3.222  35.899  13.809
43158W        W11376   8.435  39.801   0.915
43159W        W11377   2.830  34.675   1.182
43160W        W11378  20.699   4.903  11.618
43161W        W11379  29.700  42.958  11.921
43162W        W11380  44.354  20.779  14.997
43163W        W11381  13.897  28.254  11.724
43164W        W11382  16.844  28.127   0.199
43165W        W11383  36.668  28.603   4.507
43166W        W11384  16.161  42.005  13.050
43167W        W11385  33.464  29.214  12.819
43168W        W11386  28.638   2.924  13.522
43169W        W11387  35.558  11.652  12.894
43170W        W11388  13.029  21.944   0.838
43171W        W11389   2.223  29.380   4.065
43172W        W11390  42.431  42.749  12.062
43173W        W11391   2.851   7.622   2.256
43174W        W11392  11.149  38.048  12.138
43175W        W11393   8.377   2.665   3.846
43176W        W11394  18.771  18.558   2.155
43177W        W11395  35.679  26.645  12.566
43178W        W11396   7.408  33.108   2.366
43179W        W11397  27.895   4.630  11.044
43180W        W11398  27.346  38.071  12.974
43181W        W11399  24.622  23.807   0.360
43182W        W11400  10.197  25.407   1.904
43183W        W11401  24.953  22.514   1.607
43184W        W11402  14.136   3.329   0.874
43185W        W11403  29.370  15.701   0.482
43186W        W11404   7.494  26.690   1.518
43187W        W11405   5.952  12.633  13.821
43188W        W11406  18.578   6.908  14.886
43189W        W11407  28.927   3.338  12.484
43190W        W11408  36.564  43.856  14.280
43191W        W11409  32.634  29.565   1.237
43192W        W11410  15.888  35.930  10.795
43193W        W11411  33.327  24.735   1.931
43194W        W11412  39.740   7.941  14.811
43195W        W11413  43.780  42.484  13.000
43196W        W11414   0.516   8.205  10.733
43197W        W11415  17.669   2.225   4.240
43198W        W11416   9.784  37.554  14.916
43199W        W11417   4.306  34.058   1.949
43200W        W11418  41.769  28.920   0.772
43201W        W11419   7.340  35.914  13.059
43202W        W11420  29.402  44.271  11.598
43203W        W11421  39.448  29.167  11.131
43204W        W11422  33.973  34.015  10.648
43205W        W11423  39.389  33.953  14.844
43206W        W11424  15.804   8.296  11.623
43207W        W11425   1.478   4.221  11.148
43208W        W11426   8.715  36.067   1.631
43209W        W11427  23.280  40.762   3.894
43210W        W11428   2.932  31.376   1.431
43211W        W11429  20.787  42.927   3.017
43212W        W11430   4.976  32.652   3.714
43213W        W11431  43.887  40.833   2.952
43214W        W11432  30.585  37.245   0.396
43215W        W11433  16.107  20.299  10.751
43216W        W11434  37.858  10.722   2.482
43217W        W11435  17.134  44.534   0.852
43218W        W11436  37.558  35.381   3.321
43219W        W11437  33.465  12.537  11.229
43220W        W11438  13.841  17.752   3.205
43221W        W11439   9.368  43.817   4.056
43222W        W11440  29.007  41.242   0.955
43223W        W11441  23.529  32.369  13.006
43224W        W11442  33.605  31.498   2.394
43225W        W11443  34.824  23.250   3.197
43226W        W11444  23.085  10.249   0.528
43227W        W11445  37.295  23.851  11.720
43228W        W11446  14.772  25.442   3.147
43229W        W11447  22.319  24.079   1.292
43230W        W11448  37.814  19.204   4.027
43231W        W11449  10.586  30.128  13.285
43232W        W11450   7.859  24.531  11.171
43233W        W11451  25.696   9.138  11.397
43234W        W11452   3.978  20.009  14.502
43235W        W11453   3.938  39.207  14.090
43236W        W11454  21.580  21.921  13.040
43237W        W11455  21.304   1.709  11.928
43238W        W11456  13.234  13.731   0.696
43239W        W11457  17.844  16.429   4.253
43240W        W11458  26.897  24.725   4.752
43241W        W11459  15.650  18.818   1.417
43242W        W11460  40.869   2.178   2.130
43243W        W11461  39.527   3.844   4.052
43244W        W11462   1.246  22.537  12.847
43245W        W11463  10.589  32.527   2.990
43246W        W11464  23.129  21.171   0.259
43247W        W11465  36.817  17.211  13.399
43248W        W11466  19.692  12.367   1.334
43249W        W11467  32.039   6.507  13.977
43250W        W11468  10.321  10.852   2.911
43251W        W11469  20.863  13.342  11.172
43252W        W11470  43.430   0.301   2.122
43253W        W11471  18.303  28.452   4.471
43254W        W11472  10.463  14.169  14.874
43255W        W11473  15.570  15.473  12.868
43256W        W11474  34.601  22.492   0.299
43257W        W11475  13.620  37.835  12.955
43258W        W11476   9.460  33.004   3.575
43259W        W11477  37.974  15.292   1.135
43260W        W11478  23.766  11.899  12.772
43261W        W11479  33.591  28.297   4.910
43262W        W11480  37.005  39.086   4.033
43263W        W11481  26.732   8.179   0.328
43264W        W11482  12.532  12.754  11.467
43265W        W11483   5.955  37.324   9.989
43266W        W11484  34.332   6.318   1.773
43267W        W11485  36.955  29.909  12.929
43268W        W11486  37.326   3.784  10.504
43269W        W11487  11.147  21.860   3.633
43270W        W11488  32.900  38.019   3.835
43271W        W11489  18.771  23.614  14.066
43272W        W11490   2.505  14.755   2.911
43273W        W11491  24.697  34.949   4.739
43274W        W11492  26.236  17.321  11.166
43275W        W11493  22.626  23.281   0.006
43276W        W11494  20.948  38.311  10.936
43277W        W11495  16.771  39.543  14.926
43278W        W11496  13.852  11.727  12.037
43279W        W11497  13.797  18.656  12.044
43280W        W11498  13.262   7.105   2.712
43281W        W11499  15.254  15.379  10.742
43282W        W11500  26.478  34.005   2.208
43283W        W11501  31.915  36.625   3.282
43284W        W11502  16.393   4.235   1.740
43285W        W11503   3.906  39.656  12.334
43286W        W11504  19.781  35.399   4.637
43287W        W11505  12.536  21.555   3.266
43288W        W11506  13.147   9.792  12.515
43289W        W11507  44.816  12.031   2.339
43290W        W11508  39.941  26.877  12.583
43291W        W11509  40.095   1.951   2.020
43292W        W11510  29.830   8.891   3.982
43293W        W11511   7.133  33.335  13.385
43294W        W11512   3.245  26.560  13.560
43295W        W11513  22.574   9.874   3.205
43296W        W11514  21.793  38.500  11.243
43297W        W11515  18.071  11.798  11.294
43298W        W11516  27.599  38.210  14.346
43299W        W11517  19.797   2.365   2.657
43300W        W11518   6.180  19.747  11.688
43301W        W11519  39.005   6.130  11.144
43302W        W11520  20.136   7.192   4.132
43303W        W11521  32.079  28.731  10.546
43304W        W11522  38.055  24.845   1.204
43305W        W11523  38.419   4.180   0.997
43306W        W11524  38.010   5.832  10.692
43307W        W11525  28.573  12.854   0.456
43308W        W11526   3.679  23.634   2.374
43309W        W11527  41.882   0.137  10.852
43310W        W11528   1.724  23.625  13.584
43311W        W11529  15.630  26.293  10.761
43312W        W11530  23.556   9.896   2.213
43313W        W11531  33.877  43.853   3.604
43314W        W11532  23.076  23.837  14.532
43315W        W11533  43.818  23.903  10.728
43316W        W11534  44.427  19.688  14.217
43317W        W11535  40.379  30.034  12.026
43318W        W11536  31.964  25.151  14.863
43319W        W11537  37.866  22.268  14.309
43320W        W11538  44.212  16.323  11.995
43321W        W11539  36.684  38.369   0.423
43322W        W11540   6.333  31.039  12.412
43323W        W11541  36.303  22.181   0.926
43324W        W11542  27.314  21.257  13.870
43325W        W11543  14.650  32.450   2.704
43326W        W11544  29.866   8.972  10.813
43327W        W11545   3.628  12.378  12.673
43328W        W11546  11.318  41.311  11.197
43329W        W11547  15.888   3.798   0.589
43330W        W11548  32.939  41.879   4.885
43331W        W11549  21.401   3.088   2.537
43332W        W11550   6.338   4.279   3.677
43333W        W11551  28.786  43.011   3.637
43334W        W11552  42.706   0.622  12.401
43335W        W11553  42.946  23.281   3.539
43336W        W11554  28.430  39.455  10.766
43337W        W11555  13.548  31.681   5.216
43338W        W11556  37.992  20.640   3.614
43339W        W11557  10.250   8.798   4.932
43340W        W11558  33.043  32.889   4.703
43341W        W11559   6.399  38.591  10.573
43342W        W11560  39.544  18.220   4.688
43343W        W11561  25.158  18.026  11.029
43344W        W11562  35.220   2.588   0.213
43345W        W11563  44.955  23.867   2.258
43346W        W11564  43.770  13.603   4.273
43347W        W11565  43.246  26.793   4.532
43348W        W11566  38.159   3.873   1.314
43349W        W11567  43.921  30.470  12.418
43350W        W11568  44.263  42.454  13.745
43351W        W11569  31.641  35.976  13.641
43352W        W11570  10.081   5.663   3.323
43353W        W11571  22.619   7.762   0.348
43354W        W11572  29.347  42.762  14.357
43355W        W11573  33.995  14.821   1.719
43356W        W11574  34.172   9.899   2.725
43357W        W11575  23.406  38.082   3.645
43358W        W11576  15.220   6.871   3.188
43359W        W11577  42.646  36.491   3.205
43360W        W11578  13.827  29.062   4.651
43361W        W11579  14.066  29.654  13.000
43362W        W11580  22.760  31.551  14.505
43363W        W11581  39.032  14.284   3.831
43364W        W11582  30.603  41.235   4.572
43365W        W11583   0.255   2.508  13.765
43366W        W11584  19.018  41.579   1.853
43367W        W11585  35.611  28.573  10.211
43368W        W11586  31.674  21.460  10.701
43369W        W11587  15.320   5.919   3.281
43370W        W11588   7.017   4.725   2.513
43371W        W11589  41.285   0.002  13.120
43372W        W11590  27.644   8.802   0.738
43373W        W11591  23.538  27.574  13.097
43374W        W11592  14.241   6.496   4.581
43375W        W11593  25.079   3.945  12.668
43376W        W11594  44.523   6.699  12.120
43377W        W11595   5.165  14.684  12.390
43378W        W11596  37.924  23.186  11.457
43379W        W11597  16.734  40.664   1.379
43380W        W11598   9.755  38.505   3.408
43381W        W11599  36.407  33.095   1.321
43382W        W11600  20.537  40.181  12.880
43383W        W11601  33.231  16.125   2.695
43384W        W11602  29.439  34.652  13.537
43385W        W11603  42.759  27.581  12.063
43386W        W11604   8.435   0.761   2.444
43387W        W11605   0.124  22.706   0.189
43388W        W11606  24.027   4.072  11.419
43389W        W11607  31.709  10.587   4.010
43390W        W11608   4.593  33.580  11.052
43391W        W11609  35.136  24.258   4.099
43392W        W11610  36.602  30.095   1.914
43393W        W11611  21.951  16.594  11.323
43394W        W11612  29.267  44.663  14.569
43395W        W11613   2.561  10.423   1.816
43396W        W11614   9.152  21.537   2.181
43397W        W11615  19.349  11.232  12.337
43398W        W11616  27.847  37.988   4.921
43399W        W11617  23.061  42.900  12.462
43400W        W11618   6.769  30.414  12.431
43401W        W11619   6.171   3.520   1.704
43402W        W11620  30.414  29.397  10.433
43403W        W11621  25.691  26.424  13.350
43404W        W11622  18.070  26.176   3.255
43405W        W11623  27.169   7.870   0.915
43406W        W11624  34.441  30.559  10.970
43407W        W11625  40.423  32.453   3.306
43408W        W11626   5.330  29.702   0.975
43409W        W11627   5.808  36.490   0.761
43410W        W11628   4.437   1.857  13.456
43411W        W11629  32.377  32.832  10.619
43412W        W11630  40.876  37.499   2.813
43413W        W11631  31.400   0.388   1.284
43414W        W11632  41.350  14.292   3.753
43415W        W11633   3.080   1.703  13.823
43416W        W11634   6.774   1.741  10.995
43417W        W11635  26.458   3.644   1.019
43418W        W11636  17.544  28.522   0.321
43419W        W11637  29.929  38.052  12.860
43420W        W11638  35.340  21.962   0.315
43421W        W11639  28.041  14.127   5.443
43422W        W11640  40.997  11.191   0.915
43423W        W11641  43.927   2.740  10.700
43424W        W11642  33.936  43.908   1.244
43425W        W11643  25.936  18.394  14.471
43426W        W11644   9.233  31.021  11.738
43427W        W11645  22.123  18.790   0.268
43428W        W11646  34.680   0.370  10.590
43429W        W11647   3.453   4.045  12.482
43430W        W11648  38.329   7.454  10.609
43431W        W11649  33.961   1.151  13.512
43432W        W11650   5.418   7.263   0.884
43433W        W11651  28.847  44.559  14.934
43434W        W11652  26.353  33.718   4.123
43435W        W11653   9.287   3.525   3.212
43436W        W11654  17.156  37.325   0.437
43437W        W11655  12.026   9.148   5.013
43438W        W11656  25.741  10.155   1.909
43439W        W11657  17.969  42.165   0.267
43440W        W11658  42.940  35.331  12.003
43441W        W11659   9.242  22.014   1.810
43442W        W11660  18.627  16.800   3.775
43443W        W11661  38.538  21.619   1.511
43444W        W11662  21.383   3.339   4.496
43445W        W11663  34.089  15.546  12.919
43446W        W11664  25.556  28.388  12.443
43447W        W11665  37.621  14.756   3.113
43448W        W11666  30.176  31.482   1.298
43449W        W11667  31.057  28.220  14.341
43450W        W11668  37.945   6.970  14.665
43451W        W11669  35.676   0.178  13.879
43452W        W11670   1.720  14.853   3.348
43453W        W11671  32.668  23.932   1.343
43454W        W11672   5.906  28.905   2.372
43455W        W11673  30.619  10.926   2.745
43456W        W11674  35.844  23.012  11.845
43457W        W11675  19.598  37.189  14.282
43458W        W11676  42.935   0.235  11.649
43459W        W11677  30.379  22.241  13.855
43460W        W11678  19.766  27.518  10.728
43461W        W11679   1.003  26.750   4.690
43462W        W11680  14.177  23.699   0.472
43463W        W11681  35.806  20.111  14.855
43464W        W11682  44.865  23.580  13.149
43465W        W11683  11.732  38.254  14.248
43466W        W11684  42.006   2.662  12.865
43467W        W11685   3.831  18.099   1.181
43468W        W11686  37.995  39.439   1.090
43469W        W11687  24.311  23.611  12.414
43470W        W11688  19.747   0.952   4.534
43471W        W11689  33.708  12.223   0.836
43472W        W11690  35.598   1.278   2.820
43473W        W11691  43.369  40.043   3.633
43474W        W11692  11.325  14.926   2.234
43475W        W11693  27.161   7.429  14.939
43476W        W11694  18.900  33.750  10.653
43477W        W11695   0.068  43.559   2.825
43478W        W11696  14.145   2.436  12.140
43479W        W11697   4.914  20.954   2.756
43480W        W11698  32.688  15.270   4.514
43481W        W11699  20.237  11.611   3.653
43482W        W11700   8.665  39.744  13.949
43483W        W11701  10.464   1.053   3.883
43484W        W11702   0.336  20.949   1.320
43485W        W11703  18.732  23.610   3.134
43486W        W11704  11.253  23.850   4.097
43487W        W11705  23.126  33.573   2.033
43488W        W11706  15.123  15.807  12.945
43489W        W11707  30.928  40.551   0.791
43490W        W11708  15.855   0.662   4.303
43491W        W11709  30.754   9.001  14.930
43492W        W11710  29.145   2.720   3.321
43493W        W11711  29.147  28.277  13.087
43494W        W11712  14.304  42.968  10.676
43495W        W11713  37.384  17.315   2.801
43496W        W11714  43.423  21.185   3.948
43497W        W11715  15.360  16.813   3.095
43498W        W11716  44.655  30.166  12.045
43499W        W11717  24.157  28.911   2.011
43500W        W11718  27.639  37.486   1.479
43501W        W11719  19.028  36.280   1.340
43502W        W11720  23.281  19.753  12.136
43503W        W11721  32.659  17.711  13.592
43504W        W11722  29.104   4.643  11.522
43505W        W11723  21.242  36.639  14.374
43506W        W11724  18.760  23.501   1.873
43507W        W11725  15.638  21.293   4.103
43508W        W11726  18.953  34.403   1.838
43509W        W11727  17.107  36.057   2.154
43510W        W11728   0.624  39.327  14.313
43511W        W11729  37.383  12.080   0.797
43512W        W11730  15.386  39.583  10.642
43513W        W11731  24.205   7.113  14.346
43514W        W11732  30.673  26.481  14.232
43515W        W11733  36.026  33.607  13.538
43516W        W11734  43.799  44.530  12.558
43517W        W11735  41.892  25.853   3.692
43518W        W11736  11.696  43.379  11.948
43519W        W11737  10.962  32.114   5.173
43520W        W11738  30.588  24.509  11.648
43521W        W11739  38.256  30.267  11.125
43522W        W11740  39.330  11.110   4.173
43523W        W11741  44.801  33.677   0.306
43524W        W11742   9.256   2.769  12.980
43525W        W11743  42.547  31.647  12.034
43526W        W11744  35.736  38.411   1.534
43527W        W11745   1.700   9.713  12.601
43528W        W11746   2.883  36.007   4.362
43529W        W11747  29.002  42.456  11.551
43530W        W11748  19.649  35.674   1.046
43531W        W11749  39.931  30.898   4.342
43532W        W11750  22.804  27.200  11.165
43533W        W11751  23.454  41.106   1.834
43534W        W11752  11.398  37.608  13.005
43535W        W11753  27.100   5.303   4.916
43536W        W11754  28.728   4.356  13.043
43537W        W11755  36.452  19.294  14.521
43538W        W11756  22.141  13.648  13.182
43539W        W11757  41.425  37.584   1.989
43540W        W11758  30.693   4.822  11.883
43541W        W11759   1.786  21.545  12.000
43542W        W11760  18.418   7.285   4.104
43543W        W11761  31.868  18.763   1.054
43544W        W11762  10.209  22.125  11.109
43545W        W11763  29.433  40.349  12.161
43546W        W11764   7.319  15.448   4.925
43547W        W11765  13.690   0.924  11.179
43548W        W11766   0.266   8.464  12.024
43549W        W11767  34.382  27.460  12.278
43550W        W11768  24.250  30.997  10.717
43551W        W11769  39.101   0.304   2.697
43552W        W11770   5.912  28.016  13.892
43553W        W11771  24.826   3.850  14.037
43554W        W11772  17.556  34.563   0.676
43555W        W11773  15.058   0.852   1.744
43556W        W11774  37.276   6.881   4.514
43557W        W11775  14.704  23.857  12.563
43558W        W11776  20.770  32.254  10.784
43559W        W11777  22.687  44.000  11.714
43560W        W11778  39.589  11.478   0.855
43561W        W11779  44.299  30.140  14.495
43562W        W11780   0.181  32.596   4.226
43563W        W11781  15.609  36.115  10.411
43564W        W11782  25.683   1.288  14.963
43565W        W11783   5.377   7.684  13.827
43566W        W11784   7.720  19.759   0.658
43567W        W11785  20.096   5.066  13.382
43568W        W11786  23.733   2.156  12.619
43569W        W11787   7.838  25.940   3.831
43570W        W11788   4.924   0.914  14.811
43571W        W11789  12.416  23.788   1.230
43572W        W11790  38.064  17.184  13.100
43573W        W11791  31.585   7.201   4.383
43574W        W11792   7.693  41.538   2.169
43575W        W11793  37.285  38.842  11.511
43576W        W11794  44.763  16.739   4.709
43577W        W11795  10.881  30.216  11.462
43578W        W11796  36.932  15.115   4.456
43579W        W11797  15.110  11.806   3.678
43580W        W11798   7.853  15.409  12.703
43581W        W11799  11.033  20.388  14.472
43582W        W11800  31.637  14.750  12.011
43583W        W11801  29.945  15.243  14.821
43584W        W11802  12.271  23.624  13.244
43585W        W11803  23.601  28.485   2.857
43586W        W11804  34.246  18.020   1.630
43587W        W11805  20.604   4.253   1.888
43588W        W11806  32.975  36.901  11.097
43589W        W11807  17.602  36.343  11.154
43590W        W11808  20.600  20.551   1.420
43591W        W11809  12.149  16.972  14.993
43592W        W11810  14.325  28.407  13.999
43593W        W11811   7.385  28.145   2.869
43594W        W11812  13.216  43.074   1.440
43595W        W11813  25.140   7.840   0.523
43596W        W11814   9.309  38.149  14.596
43597W        W11815  36.442   1.864  10.879
43598W        W11816  33.977   2.472  10.692
43599W        W11817   5.226   0.720  13.433
43600W        W11818  41.185  30.133   1.331
43601W        W11819  28.875  17.110   5.453
43602W        W11820  33.663   8.748   4.581
43603W        W11821  14.615  37.805   3.260
43604W        W11822  40.965  26.128   0.999
43605W        W11823  28.675  44.956  10.707
43606W        W11824  22.007  20.264  14.529
43607W        W11825  42.543   3.841   4.618
43608W        W11826  28.855  21.584   0.334
43609W        W11827  31.714  13.352  12.868
43610W        W11828   1.085  27.118  13.418
43611W        W11829  35.622  34.420  12.216
43612W        W11830   8.329  25.519  13.467
43613W        W11831  32.375  19.176   2.251
43614W        W11832   6.345   7.053   2.797
43615W        W11833  19.238  28.966   0.829
43616W        W11834  33.981  32.735  10.857
43617W        W11835   1.458  44.390  14.035
43618W        W11836  25.070  37.905  10.495
43619W        W11837  26.096  21.999  13.915
43620W        W11838   2.810  21.230  11.101
43621W        W11839   9.829   4.436  13.346
43622W        W11840  18.292   5.564  11.501
43623W        W11841  34.699  25.498   2.360
43624W        W11842   8.275  40.910   0.061
43625W        W11843  43.087  14.622  11.549
43626W        W11844  41.882  24.619   4.851
43627W        W11845  31.827  32.762  13.331
43628W        W11846  11.449  24.097  14.280
43629W        W11847  19.114  42.173  11.686
43630W        W11848  33.952  42.564   2.266
43631W        W11849  11.066  36.382   2.351
43632W        W11850  35.130  30.975  14.027
43633W        W11851   7.331  40.898  14.230
43634W        W11852  18.538  25.357   0.414
43635W        W11853  18.634   7.148   1.717
43636W        W11854  23.243  38.701   1.616
43637W        W11855   9.793  36.432  11.209
43638W        W11856  17.668   9.225  11.097
43639W        W11857  23.561   1.730  12.381
43640W        W11858  39.591  39.851   4.187
43641W        W11859  38.106  32.164  12.490
43642W        W11860  23.571  34.880  14.462
43643W        W11861  31.982  28.135  13.086
43644W        W11862   7.731   2.086  12.978
43645W        W11863  31.148  42.367   0.215
43646W        W11864  36.424  44.576  12.190
43647W        W11865   3.870  39.789  12.841
43648W        W11866  39.100   5.178   3.803
43649W        W11867   4.276  12.577   3.694
43650W        W11868  20.842   5.994   1.444
43651W        W11869  21.505  32.407  11.945
43652W        W11870  35.967  36.819  12.100
43653W        W11871  36.766  19.754  12.031
43654W        W11872  10.762  40.919   4.642
43655W        W11873  31.020   7.921   1.340
43656W        W11874   0.029  41.880  13.142
43657W        W11875   2.017  30.903   0.489
43658W        W11876  37.714  28.827   3.807
43659W        W11877  39.845  20.019   4.099
43660W        W11878   8.243  39.820  11.502
43661W        W11879  32.670   7.934  11.268
43662W        W11880  42.467  17.219   0.846
43663W        W11881   1.366   8.974  13.965
43664W        W11882  36.937  37.890  12.514
43665W        W11883  17.645  32.981  11.615
43666W        W11884  22.168  42.226   1.271
43667W        W11885   4.163  37.293  12.482
43668W        W11886  23.494   7.457   4.848
43669W        W11887  34.808  20.629  13.313
43670W        W11888  24.302  15.120   2.789
43671W        W11889  36.669  25.770   0.545
43672W        W11890  28.229  13.322  11.169
43673W        W11891  32.902  44.441  11.021
43674W        W11892  42.569  42.404  11.167
43675W        W11893  38.549   2.691   4.911
43676W        W11894  27.640  23.321   0.487
43677W        W11895   5.295  36.606   0.852
43678W        W11896  40.972  39.215  12.832
43679W        W11897  16.159  39.439  11.130
43680W        W11898  10.082  14.258   3.809
43681W        W11899  15.124  10.306  13.709
43682W        W11900  20.090  29.095   3.359
43683W        W11901   1.213   3.997   4.142
43684W        W11902   4.846  35.389   4.162
43685W        W11903  17.842  38.422  10.285
43686W        W11904  36.060  28.169  11.435
43687W        W11905  11.266   9.805  14.235
43688W        W11906  25.365   0.653  10.473
43689W        W11907  28.253  23.413   4.312
43690W        W11908  43.514  14.697  14.999
43691W        W11909  41.839  18.267  13.784
43692W        W11910   3.198   0.686  14.443
43693W        W11911  19.663  43.727   4.578
43694W        W11912  19.466  29.884   1.903
43695W        W11913  30.186  20.179  11.603
43696W        W11914  36.530  22.724  11.800
43697W        W11915  15.056  27.507   4.493
43698W        W11916  33.468  43.348   0.032
43699W        W11917  31.419  38.428  12.876
43700W        W11918  25.924  43.086   0.755
43701W        W11919  31.368  21.313   1.709
43702W        W11920  29.103  31.686  12.351
43703W        W11921   4.821  42.217  15.000
43704W        W11922  20.179  32.186  13.919
43705W        W11923  17.396  38.810  14.516
43706W        W11924  10.211  21.531   2.291
43707W        W11925   0.041  26.688   1.849
43708W        W11926   5.888   3.395   3.233
43709W        W11927   8.453   3.325   2.435
43710W        W11928  22.557  22.143   2.129
43711W        W11929   8.578  36.784   2.757
43712W        W11930   5.491  31.882   4.651
43713W        W11931  41.825  31.537  12.406
43714W        W11932  28.672  26.039   1.236
43715W        W11933  39.910  13.394   3.330
43716W        W11934   0.963  14.730   2.185
43717W        W11935  44.839  32.218   0.425
43718W        W11936  17.894  20.960  12.151
43719W        W11937  12.778  12.304   4.883
43720W        W11938  17.348   1.403  13.028
43721W        W11939  12.452   7.823   0.145
43722W        W11940  28.113  21.459  13.020
43723W        W11941  34.303  29.979  13.827
43724W        W11942  38.964  29.743  10.732
43725W        W11943  31.034   2.952   0.214
43726W        W11944  44.781  40.382  13.389
43727W        W11945  38.556  22.216   4.508
43728W        W11946  12.760   0.725   0.745
43729W        W11947  13.712  10.923  14.221
43730W        W11948   4.183   2.880   0.424
43731W        W11949  15.301   1.294   0.269
43732W        W11950  13.231   3.694   4.666
43733W        W11951  35.824  12.843   0.390
43734W        W11952  43.068  28.470  14.011
43735W        W11953  12.886  24.760  11.869
43736W        W11954  19.857   5.230  10.574
43737W        W11955  21.215  27.202   3.675
43738W        W11956  33.081  28.013  13.409
43739W        W11957  38.998   4.747   2.169
43740W        W11958  35.854  15.534   2.768
43741W        W11959  41.365  21.187   1.762
43742W        W11960   4.420   8.308  12.974
43743W        W11961  31.156  33.748   3.227
43744W        W11962  10.807   2.250   4.326
43745W        W11963  17.299  15.494  11.295
43746W        W11964  14.667   6.822   4.568
43747W        W11965  16.114  40.009   1.406
43748W        W11966   7.169  23.807   1.309
43749W        W11967  16.153  11.133  11.128
43750W        W11968  11.400  19.723   4.153
43751W        W11969  21.038  41.288   0.245
43752W        W11970  20.362  21.741  13.454
43753W        W11971  15.071  17.372  11.155
43754W        W11972  40.363  20.848   5.227
43755W        W11973  13.501   3.136   1.808
43756W        W11974   9.722  21.705  12.178
43757W        W11975  10.588   5.247   1.805
43758W        W11976  29.100  27.510   4.470
43759W        W11977  31.483  21.267  12.850
43760W        W11978  14.709  16.220   3.779
43761W        W11979  40.738  30.155  14.050
43762W        W11980  37.054  42.408   0.715
43763W        W11981  22.462  41.018  14.758
43764W        W11982  23.529  11.783  14.011
43765W        W11983  22.109   8.469   5.021
43766W        W11984  19.737  41.437  13.909
43767W        W11985  19.161  31.812   2.851
43768W        W11986  23.072   0.831  13.078
43769W        W11987  43.638  14.074   0.576
43770W        W11988  24.159  29.743   1.235
43771W        W11989  33.434  19.082  13.027
43772W        W11990  16.293  14.668   4.424
43773W        W11991  20.886   7.357   4.976
43774W        W11992  14.221   0.711  14.582
43775W        W11993  32.906  39.083   0.921
43776W        W11994  31.286  32.729   0.903
43777W        W11995  29.280  15.065   3.317
43778W        W11996  44.450  20.971   4.579
43779W        W11997  40.466  38.087  11.294
43780W        W11998  27.928  32.713   3.374
43781W        W11999   9.717   2.219  10.746
43782W        W12000  41.742  38.391  14.015
43783W        W12001  38.315  43.997  12.445
43784W        W12002   4.722   6.860   3.724
43785W        W12003  43.838  11.320  12.554
43786W        W12004   4.853  24.391  12.088
43787W        W12005  38.984  41.451   3.379
43788W        W12006  38.096   1.227   4.591
43789W        W12007   7.500  32.062  12.525
43790W        W12008  13.749  42.251  14.396
43791W        W12009   5.813  29.888   4.360
43792W        W12010   0.069  31.690   0.431
43793W        W12011  37.778  12.611  14.560
43794W        W12012  30.419  27.252   1.702
43795W        W12013   3.225  11.764  14.826
43796W        W12014  38.584  38.910   4.323
43797W        W12015   5.806   7.840   1.934
43798W        W12016  30.936  11.069   2.369
43799W        W12017  29.994  24.434   3.204
43800W        W12018  38.759  38.955   3.672
43801W        W12019  30.857  32.932   1.874
43802W        W12020  19.037  42.930   0.340
43803W        W12021  37.893  28.901  11.495
43804W        W12022   5.384   8.414  12.300
43805W        W12023   4.477  25.078   3.664
43806W        W12024  10.622  11.182   0.214
43807W        W12025   6.699  44.407   4.638
43808W        W12026  43.819  34.664   3.775
43809W        W12027   9.507  15.750   4.570
43810W        W12028  22.173  18.714   3.926
43811W        W12029   2.290   7.411   4.339
43812W        W12030  18.320  11.857  12.104
43813W        W12031  12.247  36.888  11.390
43814W        W12032  22.739  39.846  13.572
43815W        W12033  24.648  32.135   3.617
43816W        W12034  28.602  33.934   2.819
43817W        W12035   8.393  31.804  13.938
43818W        W12036  25.029  39.851   1.776
43819W        W12037  27.763  32.378  11.215
43820W        W12038  33.006  24.699   2.836
43821W        W12039  13.230  38.161  12.126
43822W        W12040  25.564  34.332   0.537
43823W        W12041  13.118  16.316   1.406
43824W        W12042  24.377  23.292   2.478
43825W        W12043  12.837  29.503   3.709
43826W        W12044  30.497  41.360  12.264
43827W        W12045  27.249  34.507   2.170
43828W        W12046   9.685  43.308   0.896
43829W        W12047   4.815  39.319  13.059
43830W        W12048   5.868  44.456  12.317
43831W        W12049  32.007   2.484   2.855
43832W        W12050   6.598  42.382   1.865
43833W        W12051   6.988  43.273   5.399
43834W        W12052   8.247  25.026  13.002
43835W        W12053  35.064  38.979  11.138
43836W        W12054   0.172   5.625  13.349
43837W        W12055  14.120  42.827  13.762
43838W        W12056  31.909   2.485   5.070
43839W        W12057  28.261  23.948  11.177
43840W        W12058  29.352  11.673  14.625
43841W        W12059  10.754  17.522  12.558
43842W        W12060  32.027   5.469   0.794
43843W        W12061  42.210  40.640   4.365
43844W        W12062  32.356   6.176   1.440
43845W        W12063  14.733  26.723   3.616
43846W        W12064   0.815  15.030   3.910
43847W        W12065  23.589  38.957   1.920
43848W        W12066   3.330  39.939  13.718
43849W        W12067  29.119  25.607   2.421
43850W        W12068   4.337   9.350   2.193
43851W        W12069  16.115  25.298  11.586
43852W        W12070  19.823  42.880   1.794
43853W        W12071   6.293  25.098   3.747
43854W        W12072  21.088   6.578  12.618
43855W        W12073  34.822  24.629  10.930
43856W        W12074  14.818  33.898   2.640
43857W        W12075  23.164  26.730  11.272
43858W        W12076  11.148  17.233   0.777
43859W        W12077  37.699  35.590  12.038
43860W        W12078   6.931  36.265   1.843
43861W        W12079  13.954   0.962   2.637
43862W        W12080  32.484  35.252   3.592
43863W        W12081  13.399  31.487   2.643
43864W        W12082   0.266  41.766   3.193
43865W        W12083  43.952  24.229  11.095
43866W        W12084  38.818   1.315  14.768
43867W        W12085  28.148   3.535  14.542
43868W        W12086  16.307  11.201   0.526
43869W        W12087  30.064   6.712  10.426
43870W        W12088  13.252  34.929  10.743
43871W        W12089  41.547  23.217   2.820
43872W        W12090  15.188  31.927   4.094
43873W        W12091  29.068   5.880   1.714
43874W        W12092  31.247  17.453  13.618
43875W        W12093   3.941   1.088   0.900
43876W        W12094  25.175  16.620  14.772
43877W        W12095  44.917  17.086   3.162
43878W        W12096   9.783  33.622  11.679
43879W        W12097  43.055  43.355   4.592
43880W        W12098  33.973  35.124   3.751
43881W        W12099  35.591  21.145  11.022
43882W        W12100   6.449  29.056  11.177
43883W        W12101  34.867  20.213  14.517
43884W        W12102  35.432  28.763  11.601
43885W        W12103  24.247   3.821   2.802
43886W        W12104  18.771  44.315   0.215
43887W        W12105   2.560  34.357  11.119
43888W        W12106  10.671  20.229  14.801
43889W        W12107  26.651  34.614  14.530
43890W        W12108  35.979  18.082   3.352
43891W        W12109  20.949   7.170   4.503
43892W        W12110  42.829   3.913  11.410
43893W        W12111  10.266  11.349   3.082
43894W        W12112  20.091   3.229   1.283
43895W        W12113  19.540   7.130  12.988
43896W        W12114  44.906   4.217  14.323
43897W        W12115  34.486  17.074  13.953
43898W        W12116  36.981  27.438  14.124
43899W        W12117   7.313  15.517  12.049
43900W        W12118   3.074  42.454   2.271
43901W        W12119  41.960  39.674  12.116
43902W        W12120  21.444  22.597   2.686
43903W        W12121  32.968  39.405  12.663
43904W        W12122  42.231  32.471   2.615
43905W        W12123  35.430  16.724   2.149
43906W        W12124  44.083  29.881  13.830
43907W        W12125  13.628   4.758   2.337
43908W        W12126  17.246  28.575   3.569
43909W        W12127  11.327  23.578   0.811
43910W        W12128  24.609   6.138   4.849
43911W        W12129  38.241  21.074  13.963
43912W        W12130   0.389  15.611   1.429
43913W        W12131  19.355   7.131  10.639
43914W        W12132  21.460  38.749  11.547
43915W        W12133  10.386  40.450  12.966
43916W        W12134  11.719  16.156   5.164
43917W        W12135   8.944  19.723  14.404
43918W        W12136  12.912  16.028   0.474
43919W        W12137  15.270  15.887   3.276
43920W        W12138  31.665  19.161   0.558
43921W        W12139  21.181  14.625   0.848
43922W        W12140  39.982  18.298   3.915
43923W        W12141  16.676  12.592  13.138
43924W        W12142  21.572  23.521   1.410
43925W        W12143  15.384   1.927   0.852
43926W        W12144  22.029  39.839  12.031
43927W        W12145  35.768   7.664  11.093
43928W        W12146  35.669  32.847   2.245
43929W        W12147  31.899  28.640   2.746
43930W        W12148  28.225  40.955  12.022
43931W        W12149  13.503  31.526   4.701
43932W        W12150  19.786  21.985   3.587
43933W        W12151   3.370  21.706   5.047
43934W        W12152  17.471  37.917   2.808
43935W        W12153  41.448   9.070   4.557
43936W        W12154  20.470  39.883   3.816
43937W        W12155  29.203   1.783   3.315
43938W        W12156   0.326  28.034  14.259
43939W        W12157  34.634  10.940   1.808
43940W        W12158  14.581  30.734   4.681
43941W        W12159  15.715  33.262   2.488
43942W        W12160  35.645   3.711   0.317
43943W        W12161  30.583   6.753  14.772
43944W        W12162   1.437  26.470   3.233
43945W        W12163  19.077  18.830   1.849
43946W        W12164  19.568  40.147  12.058
43947W        W12165  20.826  33.616  10.661
43948W        W12166   4.272  44.302  12.862
43949W        W12167  36.012  37.259  12.502
43950W        W12168  31.665  12.997   3.348
43951W        W12169  34.982  14.029  11.934
43952W        W12170   7.123  23.724  12.535
43953W        W12171  36.478   4.045   2.705
43954W        W12172  38.126   3.038   4.130
43955W        W12173  35.913  16.344   3.706
43956W        W12174  27.658  30.836  13.086
43957W        W12175  42.849  38.726   2.090
43958W        W12176   3.890   8.003  11.450
43959W        W12177  38.357   8.667   4.187
43960W        W12178   0.971  44.837  11.902
43961W        W12179  27.269  42.301   1.716
43962W        W12180  11.318  12.574  14.355
43963W        W12181  42.782  19.078  14.000
43964W        W12182  24.378   7.617   2.192
43965W        W12183  37.418  41.714  10.726
43966W        W12184  10.197  31.612   1.642
43967W        W12185  14.784  30.523  13.933
43968W        W12186  32.959  25.264   3.283
43969W        W12187   2.052  37.808   0.451
43970W        W12188  28.703  35.802  11.059
43971W        W12189   4.768  41.551  13.129
43972W        W12190  41.430   5.731   2.736
43973W        W12191  18.580   8.499   2.637
43974W        W12192  10.507  15.783   1.803
43975W        W12193   9.875   7.389   4.747
43976W        W12194  36.529  36.979  11.606
43977W        W12195  35.986  44.424   2.889
43978W        W12196  25.231   2.063  14.849
43979W        W12197  10.954  10.398   1.171
43980W        W12198  29.927  27.095  14.824
43981W        W12199  42.776  43.435   3.259
43982W        W12200  28.122   2.055  12.950
43983W        W12201  19.860  19.075  13.905
43984W        W12202  16.585  44.744  10.593
43985W        W12203  11.274  15.452   1.349
43986W        W12204  30.872   1.010  13.870
43987W        W12205  11.772  16.518  13.908
43988W        W12206  42.266  17.111  10.435
43989W        W12207  22.774  13.220   3.275
43990W        W12208  40.355  43.753   1.826
43991W        W12209  28.956  21.438  10.526
43992W        W12210  27.597  31.929   2.930
43993W        W12211  40.087   3.331  10.628
43994W        W12212   1.053  16.590  10.955
43995W        W12213  17.023  39.467  13.464
43996W        W12214  22.246  34.373  14.269
43997W        W12215  37.771  26.120   4.624
43998W        W12216   1.072  31.553  13.015
43999W        W12217  32.328  27.491  12.070
44000W        W12218  39.979  14.217   0.238
44001W        W12219   1.672  22.661   4.319
44002W        W12220  14.336   0.433  10.978
44003W        W12221  26.726   1.727  11.647
44004W        W12222  38.771   0.493  14.400
44005W        W12223   6.447  31.441  13.964
44006W        W12224  31.829  40.013  11.432
44007W        W12225  38.420  43.293   1.283
44008W        W12226  13.050  36.821   1.397
44009W        W12227   0.873  43.768  11.448
44010W        W12228  31.202  26.987  11.606
44011W        W12229  19.275  39.944   2.255
44012W        W12230  38.419  26.256  14.397
44013W        W12231  11.643  38.110  11.231
44014W        W12232  43.855  34.025  14.750
44015W        W12233  21.186  19.129   4.172
44016W        W12234  14.810   1.900   9.869
44017W        W12235   4.930  30.034   0.898
44018W        W12236  40.458  18.767  11.863
44019W        W12237  10.855  29.072  14.892
44020W        W12238  10.598   4.577  12.303
44021W        W12239  34.036  23.296   1.910
44022W        W12240  34.923  15.811   0.293
44023W        W12241   2.791  13.566  13.487
44024W        W12242   9.795  33.948   3.192
44025W        W12243   0.884   1.043   2.453
44026W        W12244  12.618  31.912   3.203
44027W        W12245  10.144  43.551   4.600
44028W        W12246   0.902  32.027   3.233
44029W        W12247   8.600   2.940  10.644
44030W        W12248   3.906  35.741  11.446
44031W        W12249   3.208  23.150   4.764
44032W        W12250  43.004   1.448   0.903
44033W        W12251  39.912  24.030  11.976
44034W        W12252  35.922   3.163   0.777
44035W        W12253   4.291  15.614   2.827
44036W        W12254  12.570  44.131  11.644
44037W        W12255  11.627  43.917  12.544
44038W        W12256  43.958  18.052   3.637
44039W        W12257   9.006   3.235  14.219
44040W        W12258  28.619   5.588   9.777
44041W        W12259  31.912  26.168  13.895
44042W        W12260  41.861  43.838  14.064
44043W        W12261  13.267  18.535   1.967
44044W        W12262  38.987  31.807  14.903
44045W        W12263  33.597  36.652   2.101
44046W        W12264  21.944  24.477  13.766
44047W        W12265  43.368  27.972   0.935
44048W        W12266  17.051  26.935  14.779
44049W        W12267  26.750  25.312  13.051
44050W        W12268   1.138  13.138  10.244
44051W        W12269  32.413   0.923   0.938
44052W        W12270  17.047  28.094  11.144
44053W        W12271   1.519  29.390  14.272
44054W        W12272  32.521   9.369   4.884
44055W        W12273   4.171   5.100  11.200
44056W        W12274   2.311  36.689  11.492
44057W        W12275  26.261  33.939  12.476
44058W        W12276  35.939   6.767   4.460
44059W        W12277  43.333   0.241  14.969
44060W        W12278  36.516  40.370  10.620
44061W        W12279  19.548  23.179  14.811
44062W        W12280  16.573  10.850  11.104
44063W        W12281   5.408  35.311  14.792
44064W        W12282  11.600  23.538  11.297
44065W        W12283  27.726  27.043   1.380
44066W        W12284  19.660  11.104  14.924
44067W        W12285  20.170   3.964  11.529
44068W        W12286  17.668  37.424   2.131
44069W        W12287   7.324   8.873  14.778
44070W        W12288  26.675  24.109   3.216
44071W        W12289  40.126  17.716  13.725
44072W        W12290  32.235  32.618  12.044
44073W        W12291  19.535   5.390   3.869
44074W        W12292  12.528  41.427   1.881
44075W        W12293  39.772  38.879  14.502
44076W        W12294  26.510   0.915  10.747
44077W        W12295  32.417  16.313  12.095
44078W        W12296  36.378  38.846   3.436
44079W        W12297   7.296  18.272   2.279
44080W        W12298  22.469  25.035   0.855
44081W        W12299  13.169  36.873  12.991
44082W        W12300  40.356  24.531   0.222
44083W        W12301   0.507  12.873   2.837
44084W        W12302  14.079  16.976  14.975
44085W        W12303   8.400  38.652   2.661
44086W        W12304  18.317   2.177   3.672
44087W        W12305  16.899   2.245   0.478
44088W        W12306  43.438  27.968  14.493
44089W        W12307  21.239  10.392   4.326
44090W        W12308  40.774  38.546  11.138
44091W        W12309  31.682  38.402   0.099
44092W        W12310  18.887  11.112   2.258
44093W        W12311  13.836  30.398  12.622
44094W        W12312   8.394  28.125   4.322
44095W        W12313  36.472  25.694   3.777
44096W        W12314   9.812   8.837  13.593
44097W        W12315  26.990   6.324  12.883
44098W        W12316  34.523  36.434   1.962
44099W        W12317  17.393   7.347  10.273
44100W        W12318  12.453  18.615  11.447
44101W        W12319   5.728   2.710   0.496
44102W        W12320  19.074  41.953  10.524
44103W        W12321  36.561  30.938   0.010
44104W        W12322   9.931   6.064  13.902
44105W        W12323  31.518  29.185   3.699
44106W        W12324   2.107  42.105  11.992
44107W        W12325   3.639  27.498   4.843
44108W        W12326  21.621  43.997  11.167
44109W        W12327  31.619   5.690   3.627
44110W        W12328   8.490   4.297   0.932
44111W        W12329  12.859   6.244  14.904
44112W        W12330  19.603  18.388   0.172
44113W        W12331  34.231  20.826  13.796
44114W        W12332  32.560   7.398   3.716
44115W        W12333  31.362  13.718   1.146
44116W        W12334  37.911  18.210  13.581
44117W        W12335  31.904  42.324  14.871
44118W        W12336  11.726  29.971   4.442
44119W        W12337  36.719  13.661  11.551
44120W        W12338  12.345  11.198  11.867
44121W        W12339   2.717  37.417   1.317
44122W        W12340   2.401  15.150  12.026
44123W        W12341  14.892  39.385  10.718
44124W        W12342  16.564  31.285  14.012
44125W        W12343   0.844   9.624   1.185
44126W        W12344  19.391  35.708   3.284
44127W        W12345  31.530   0.413  13.959
44128W        W12346   3.629  21.066   1.401
44129W        W12347   7.155  34.517  12.137
44130W        W12348  11.196  26.036   2.633
44131W        W12349  21.304  28.154  11.583
44132W        W12350   7.413   2.185  10.642
44133W        W12351  25.665  35.577  13.539
44134W        W12352   3.859  44.015   3.154
44135W        W12353  18.590  26.104   1.967
44136W        W12354   4.403  40.316  11.981
44137W        W12355   9.647  20.016   2.842
44138W        W12356   4.395  27.857  11.045
44139W        W12357  28.096  20.986   5.149
44140W        W12358   9.955  43.023   1.357
44141W        W12359  25.677  12.400  10.646
44142W        W12360  11.649  35.196  10.893
44143W        W12361   3.361  39.940  10.715
44144W        W12362  19.738  32.884  11.205
44145W        W12363  28.920  39.851  14.079
44146W        W12364  31.352  41.358   4.061
44147W        W12365  43.714  31.536   0.942
44148W        W12366  39.056  13.839   2.736
44149W        W12367  20.551  21.215   4.641
44150W        W12368   9.303  42.408   2.408
44151W        W12369  13.315  40.742   1.200
44152W        W12370  22.103  19.004   4.754
44153W        W12371  21.318  13.621  11.085
44154W        W12372  19.284  20.091   0.821
44155W        W12373   6.216  29.967   0.962
44156W        W12374  42.823  24.525  14.255
44157W        W12375   5.871  40.839   4.048
44158W        W12376   7.327  27.035  11.735
44159W        W12377  38.890  27.445   4.156
44160W        W12378  20.812   8.702   1.942
44161W        W12379  29.464  12.044  14.990
44162W        W12380  39.928  15.683   1.234
44163W        W12381  26.225  10.024   2.070
44164W        W12382  22.496   3.056  11.516
44165W        W12383  43.312  16.854  11.965
44166W        W12384  41.455  21.490  11.104
44167W        W12385  33.616   6.839  10.689
44168W        W12386  12.469  15.785   0.670
44169W        W12387  11.195  17.564   3.195
44170W        W12388  22.203   3.832   0.471
44171W        W12389  21.445  22.115  12.592
44172W        W12390  20.248  39.953   0.239
44173W        W12391  13.024  35.429   1.285
44174W        W12392  35.940  29.888   2.640
44175W        W12393  23.564  35.503  13.965
44176W        W12394  24.732  26.304   2.368
44177W        W12395  17.182  19.877  11.671
44178W        W12396   7.657  31.226   0.154
44179W        W12397  40.493  41.195   1.833
44180W        W12398  33.906   7.766   0.453
44181W        W12399   9.710  43.019  14.526
44182W        W12400  24.195  22.445   4.542
44183W        W12401  31.036   5.927  10.618
44184W        W12402  28.746  36.904  14.107
44185W        W12403  41.935  42.738  11.967
44186W        W12404  25.222   9.340  12.105
44187W        W12405  16.403  44.860   2.121
44188W        W12406  26.538   6.361  12.601
44189W        W12407   2.426  30.059  11.606
44190W        W12408  34.888  34.869  14.290
44191W        W12409  12.882  35.839   4.182
44192W        W12410  23.861  23.140  10.577
44193W        W12411  39.590  16.593  11.818
44194W        W12412  36.579  40.043  12.086
44195W        W12413   3.073  19.400   0.839
44196W        W12414   7.842  23.728  13.437
44197W        W12415  14.519  14.348   2.970
44198W        W12416  31.469  17.221  14.080
44199W        W12417  39.720   8.374  11.124
44200W        W12418  13.123   1.531   2.725
44201W        W12419  19.725   8.660  11.608
44202W        W12420  15.113  25.954   0.889
44203W        W12421  41.429  17.159   3.695
44204W        W12422  18.580  14.437  14.496
44205W        W12423   7.037   2.803   2.839
44206W        W12424  38.633  41.803  11.978
44207W        W12425  42.733   2.727   3.453
44208W        W12426  30.539  34.580  11.610
44209W        W12427  24.733   1.331  14.022
44210W        W12428  36.381   9.296   0.940
44211W        W12429   4.693   2.708  12.570
44212W        W12430  40.009  43.143  11.895
44213W        W12431  21.059  33.100  14.543
44214W        W12432  17.274  28.817  14.028
44215W        W12433   5.118  36.605   4.553
44216W        W12434  38.288   9.755  13.850
44217W        W12435  14.576  35.509  12.485
44218W        W12436  21.715   9.310   3.777
44219W        W12437  41.769   0.280  12.404
44220W        W12438   6.423  42.376   2.416
44221W        W12439  38.052  21.581  10.669
44222W        W12440  39.321   5.512  13.311
44223W        W12441  40.151  43.116  11.370
44224W        W12442  28.086  30.973   1.463
44225W        W12443  26.977  35.912  12.544
44226W        W12444  28.916  35.759  11.531
44227W        W12445  13.918   0.931   4.081
44228W        W12446  32.689  27.493  13.882
44229W        W12447  38.947  21.274  10.622
44230W        W12448   1.370   2.738   2.816
44231W        W12449  16.622   8.497  13.378
44232W        W12450  40.415  28.483   3.855
44233W        W12451   9.234  39.973  10.579
44234W        W12452   6.113  10.898   2.862
44235W        W12453  42.979  32.206  10.286
44236W        W12454   6.326   7.302  10.771
44237W        W12455  18.111  26.949  10.379
44238W        W12456  16.940   2.218  14.463
44239W        W12457  41.703  40.199  11.697
44240W        W12458  34.520  11.730  12.945
44241W        W12459   9.654  35.598   3.343
44242W        W12460  14.591  37.774  10.497
44243W        W12461  33.765  19.588  10.837
44244W        W12462  24.229  23.902   0.896
44245W        W12463  34.023  10.398   2.551
44246W        W12464  18.604  11.180  10.285
44247W        W12465  25.000   4.018  10.889
44248W        W12466  14.828  14.582   2.326
44249W        W12467  24.730  43.463   0.687
44250W        W12468  16.352  25.608   2.854
44251W        W12469  27.656  20.010   1.847
44252W        W12470   1.472  26.988   4.582
44253W        W12471  26.599  40.038   0.906
44254W        W12472  11.357  32.171  11.571
44255W        W12473  43.848  13.818  14.493
44256W        W12474  39.117  41.454   0.673
44257W        W12475   8.565  18.658   5.385
44258W        W12476  38.467  29.206   2.366
44259W        W12477  35.477  11.239   3.189
44260W        W12478  32.039   8.732   4.729
44261W        W12479  31.914  36.015   2.776
44262W        W12480   7.650  40.239  11.917
44263W        W12481  40.764  17.301  14.436
44264W        W12482  16.517  24.577   4.610
44265W        W12483  42.416  10.123   0.489
44266W        W12484   5.810  42.310  12.195
44267W        W12485  41.506  12.489   0.346
44268W        W12486  12.434   5.867   0.256
44269W        W12487  29.676  30.637   0.726
44270W        W12488  22.159  36.464  10.854
44271W        W12489  30.531  20.509  14.435
44272W        W12490  24.979  17.952   3.296
44273W        W12491  21.044   4.701  11.937
44274W        W12492  17.491  40.828  12.677
44275W        W12493  33.495  34.617  13.090
44276W        W12494  18.606  10.722   4.725
44277W        W12495   1.751  38.534  14.321
44278W        W12496  13.452  15.228  13.572
44279W        W12497  12.590  12.707   2.596
44280W        W12498   2.778  21.171  13.548
44281W        W12499  40.768  40.410  12.445
44282W        W12500  32.514  25.268  11.204
44283W        W12501  28.572  32.158   4.292
44284W        W12502   9.233  24.126   0.227
44285W        W12503   2.738  35.965   4.865
44286W        W12504   2.848  20.870  11.522
44287W        W12505  34.626  29.591   3.315
44288W        W12506  16.222  32.128  12.619
44289W        W12507  33.573  38.762   3.725
44290W        W12508  44.271  27.008  12.614
44291W        W12509  22.026  33.641   4.247
44292W        W12510  20.058   5.352   4.298
44293W        W12511  17.673  26.973  13.002
44294W        W12512   3.207  40.243   4.993
44295W        W12513   1.887   5.415  12.952
44296W        W12514  36.047  31.518   1.692
44297W        W12515   9.906  19.372  14.609
44298W        W12516  17.289  11.070   4.504
44299W        W12517  36.864  39.540  13.936
44300W        W12518  15.647  30.125   2.287
44301W        W12519   1.800   9.682  12.103
44302W        W12520  43.484  35.830  13.884
44303W        W12521  26.680  41.196  12.656
44304W        W12522  23.186  26.508  13.757
44305W        W12523  11.620  17.639   4.469
44306W        W12524  35.479  24.271   0.293
44307W        W12525  28.550  35.637  10.601
44308W        W12526   4.230  24.630   1.298
44309W        W12527   3.912  13.292  14.482
44310W        W12528  24.584  42.580  13.981
44311W        W12529  26.755  23.209  12.495
44312W        W12530  33.026  19.798   4.725
44313W        W12531  22.082  27.587  10.568
44314W        W12532  24.009  38.364  11.222
44315W        W12533  39.348  27.114  11.414
44316W        W12534   0.413  20.322  13.017
44317W        W12535  26.215   5.715   4.107
44318W        W12536  35.461   8.773  11.938
44319W        W12537  37.918  11.239  13.432
44320W        W12538  32.088  22.439   1.679
44321W        W12539  40.063  35.072  11.734
44322W        W12540  44.951  35.000  11.601
44323W        W12541  22.702  23.725   2.648
44324W        W12542  29.024   2.954  14.800
44325W        W12543   4.111  15.088  13.797
44326W        W12544  27.530   7.817   1.775
44327W        W12545  10.718  27.763   3.187
44328W        W12546  20.865  33.869   0.253
44329W        W12547  29.488  19.555   3.244
44330W        W12548  12.866  13.094   2.812
44331W        W12549   2.351   6.711  12.109
44332W        W12550  23.634  20.192  12.420
44333W        W12551  16.498  16.367  11.131
44334W        W12552  13.223   6.217   4.822
44335W        W12553   7.809  43.489  11.699
44336W        W12554   6.249  27.081   3.548
44337W        W12555   8.563  11.242   0.253
44338W        W12556  42.300  13.509   1.576
44339W        W12557  44.351  23.768   4.100
44340W        W12558  16.549  16.055   3.635
44341W        W12559   2.720  31.438   0.822
44342W        W12560   9.392  21.101  13.744
44343W        W12561  13.067  42.972  12.295
44344W        W12562  18.186  22.501   2.329
44345W        W12563  42.966  40.527  13.143
44346W        W12564  17.785  41.132   3.693
44347W        W12565   9.477  21.208   4.463
44348W        W12566  18.463  33.470  14.277
44349W        W12567  36.953  10.307   0.472
44350W        W12568   5.780  35.682  13.982
44351W        W12569  31.149  21.907  14.784
44352W        W12570  39.486  26.390   3.720
44353W        W12571  35.421  37.914   3.062
44354W        W12572  23.679  19.191   0.839
44355W        W12573  17.659  20.199   4.120
44356W        W12574   7.318  40.283   0.021
44357W        W12575  22.718  20.294  12.414
44358W        W12576  13.509  21.264  11.121
44359W        W12577  29.883  42.933   5.118
44360W        W12578  39.063  16.336  10.696
44361W        W12579   2.216  20.244   1.378
44362W        W12580  19.328  36.372   1.774
44363W        W12581   4.907  36.728   2.359
44364W        W12582  39.342  30.705   0.343
44365W        W12583   2.968  37.809  12.716
44366W        W12584   8.707  40.453   3.455
44367W        W12585  33.967   3.758  10.337
44368W        W12586  37.613  22.081   2.405
44369W        W12587   5.776  19.598  14.131
44370W        W12588  25.895  21.284  13.499
44371W        W12589  41.454   1.693   3.649
44372W        W12590   2.048  24.252   5.046
44373W        W12591  41.474   7.171   4.374
44374W        W12592  37.730   7.901   4.197
44375W        W12593  14.298   1.950   4.525
44376W        W12594  14.308  25.475  12.855
44377W        W12595  39.450  41.955  14.288
44378W        W12596  42.683  31.426  13.930
44379W        W12597  29.215  41.530  12.167
44380W        W12598  20.741  29.893  11.089
44381W        W12599  28.873  12.820  14.490
44382W        W12600   1.519   7.294  12.419
44383W        W12601  29.098  27.111  14.526
44384W        W12602  20.454  12.221   0.844
44385W        W12603  36.059  37.070   0.999
44386W        W12604  38.597  12.222   1.402
44387W        W12605  43.924  17.799   4.095
44388W        W12606  36.027  25.969  10.297
44389W        W12607   1.771  43.983  14.842
44390W        W12608  23.528   9.133   2.803
44391W        W12609  17.855   9.601  10.764
44392W        W12610  14.331  34.733  11.576
44393W        W12611  13.511  32.027  12.976
44394W        W12612  30.839  32.592   2.775
44395W        W12613  15.240   3.805   2.435
44396W        W12614  16.038   2.400   2.377
44397W        W12615  33.650  30.664  10.564
44398W        W12616  12.833  32.667  14.312
44399W        W12617  13.132  20.034  12.465
44400W        W12618  21.604   7.845   2.475
44401W        W12619  18.807  17.835   1.029
44402W        W12620  16.095  13.193  10.698
44403W        W12621  11.755  13.809   4.137
44404W        W12622  15.376  17.032   4.827
44405W        W12623  42.308  28.959   0.803
44406W        W12624  38.791  30.327  14.748
44407W        W12625  13.925  26.034   3.701
44408W        W12626  22.077  27.493  13.795
44409W        W12627  17.543  43.185   1.967
44410W        W12628  33.537  24.477   4.668
44411W        W12629  13.096  11.203  10.629
44412W        W12630  22.141  32.416  10.405
44413W        W12631  42.262  40.737   3.854
44414W        W12632  30.105  37.125  13.915
44415W        W12633  16.909  40.132  11.225
44416W        W12634  34.568  11.729   4.469
44417W        W12635   5.792   9.387   1.860
44418W        W12636  35.106   3.737  10.701
44419W        W12637  19.073  39.494   3.447
44420W        W12638  28.635   5.265  14.281
44421W        W12639  36.649  36.413   1.500
44422W        W12640  34.245   7.287  11.589
44423W        W12641  12.604  18.554  12.559
44424W        W12642   7.125  24.569   3.064
44425W        W12643  42.840  28.923   4.201
44426W        W12644  36.044  10.865  11.553
44427W        W12645  20.030   9.488  12.193
44428W        W12646  19.193  14.835   2.318
44429W        W12647  31.605  38.513  10.692
44430W        W12648  26.259   3.777  12.003
44431W        W12649  11.732  20.532  13.326
44432W        W12650  20.157  36.285   2.013
44433W        W12651   4.767  37.211   1.341
44434W        W12652  25.927  41.386   0.369
44435W        W12653  43.380   6.871  14.512
44436W        W12654  31.197  40.602   3.561
44437W        W12655  38.328  43.942  13.742
44438W        W12656  11.215  20.051  13.764
44439W        W12657  43.328  30.677  11.250
44440W        W12658  14.703   8.715  14.189
44441W        W12659  42.534   0.977  13.803
44442W        W12660  40.856   4.460  12.398
44443W        W12661  33.984  31.824   4.674
44444W        W12662  29.080  28.442  14.830
44445W        W12663  40.969  21.489   1.014
44446W        W12664  21.133  20.635  14.621
44447W        W12665  29.484  15.038  14.340
44448W        W12666  41.283  28.716  10.590
44449W        W12667  28.157  36.615   0.341
44450W        W12668  28.846  40.544   4.079
44451W        W12669  34.720  39.546   1.783
44452W        W12670  30.479  13.847  10.695
44453W        W12671  12.739  16.233   0.038
44454W        W12672  12.319   9.391   1.945
44455W        W12673   1.942  23.610   3.127
44456W        W12674  26.506  10.639   4.203
44457W        W12675   6.413  26.026   4.245
44458W        W12676  29.457  22.093   1.868
44459W        W12677   0.964  31.523  11.620
44460W        W12678   7.318   0.447   0.542
44461W        W12679  38.561   0.612   9.743
44462W        W12680   9.082  14.178   0.218
44463W        W12681  27.454  31.329  12.968
44464W        W12682  27.013   5.384   4.403
44465W        W12683  40.851  34.099  11.075
44466W        W12684  19.221  38.413  13.521
44467W        W12685  15.919  20.543   1.812
44468W        W12686   7.389  18.292  11.140
44469W        W12687  32.376   1.391   1.679
44470W        W12688   8.693  15.325   2.125
44471W        W12689  12.194  11.691   0.809
44472W        W12690  31.704  35.034   3.677
44473W        W12691  27.466  19.603  10.605
44474W        W12692  27.573  29.853   4.057
44475W        W12693  29.935  27.706   4.173
44476W        W12694   8.193  36.434  12.121
44477W        W12695  17.265  18.477  11.527
44478W        W12696  15.675  15.829   4.116
44479W        W12697  32.236  29.081   1.947
44480W        W12698   7.520  34.961  14.393
44481W        W12699   8.258  41.361  14.809
44482W        W12700  17.072  44.664  11.953
44483W        W12701  26.675  37.277   1.294
44484W        W12702   8.558  37.949   4.125
44485W        W12703  32.752  24.793   3.346
44486W        W12704  32.164   2.469  11.899
44487W        W12705  26.239  23.055  12.384
44488W        W12706  41.577  40.261  14.698
44489W        W12707   0.765  10.211  14.048
44490W        W12708  32.580  32.879   2.292
44491W        W12709  27.382  23.218   2.885
44492W        W12710  21.642  24.304   4.108
44493W        W12711  16.597  43.402  10.388
44494W        W12712  17.937  32.931  13.809
44495W        W12713  26.167  17.650   2.890
44496W        W12714  15.718  44.348   1.809
44497W        W12715   2.276  32.658   0.445
44498W        W12716  38.939  25.520   2.827
44499W        W12717   5.776  28.958  13.769
44500W        W12718  26.921  21.549   3.281
44501W        W12719  32.422  19.755   3.694
44502W        W12720   9.262   1.649  13.800
44503W        W12721  34.617  39.965   4.109
44504W        W12722  23.324   2.870  12.876
44505W        W12723  23.094  22.288   4.273
44506W        W12724   5.204  37.562   0.450
44507W        W12725  44.971   0.170  11.180
44508W        W12726  32.081  26.541   9.967
44509W        W12727  23.950  10.096  10.262
44510W        W12728  33.086  36.565   3.861
44511W        W12729   7.596  29.368   4.091
44512W        W12730  13.169  10.249   2.398
44513W        W12731  23.007  11.882  14.044
44514W        W12732  12.147  32.351   2.719
44515W        W12733  13.275  16.196  11.320
44516W        W12734  10.595  44.979   4.827
44517W        W12735   5.168  24.656  14.693
44518W        W12736  27.248  40.310  13.830
44519W        W12737  28.547  28.024   0.794
44520W        W12738  42.693   5.855  11.151
44521W        W12739  30.951  19.598  11.490
44522W        W12740  24.587  25.808  13.061
44523W        W12741   3.132  22.997  13.001
44524W        W12742  19.674  42.369   1.652
44525W        W12743  13.287   0.510  10.275
44526W        W12744   7.677  29.731   2.194
44527W        W12745  29.124  31.167   2.685
44528W        W12746   4.764  42.275  13.112
44529W        W12747  19.132  10.368   3.241
44530W        W12748  22.131  10.622  13.861
44531W        W12749   5.918  23.496  11.711
44532W        W12750  17.038   6.358  13.494
44533W        W12751   7.492  21.097  13.047
44534W        W12752   8.588  14.228   5.028
44535W        W12753   5.813  19.142  11.573
44536W        W12754   9.182  16.901   2.236
44537W        W12755  35.120   2.308  13.308
44538W        W12756  22.708  26.677   2.025
44539W        W12757  19.818  22.591   0.440
44540W        W12758   4.199  40.844   3.681
44541W        W12759  43.009  42.507   2.027
44542W        W12760  25.821   9.806   3.714
44543W        W12761   1.069  10.387  11.987
44544W        W12762  42.016  14.571  14.987
44545W        W12763  37.543  24.017  12.530
44546W        W12764  43.443   2.775   0.766
44547W        W12765  25.053  34.130  13.077
44548W        W12766  40.367   9.002  10.847
44549W        W12767   9.218  14.077  10.278
44550W        W12768  37.032  41.483  11.491
44551W        W12769  38.627  32.655   2.314
44552W        W12770  37.628  38.981  11.147
44553W        W12771  21.740  37.143  11.544
44554W        W12772  38.395  36.222   2.053
44555W        W12773  40.281  12.320  10.398
44556W        W12774  12.160   3.884   4.692
44557W        W12775   2.405  30.232   4.186
44558W        W12776  11.945  26.518   2.906
44559W        W12777  11.111  23.757  14.537
44560W        W12778   6.959   8.654   3.455
44561W        W12779  11.016   4.858  12.491
44562W        W12780  27.959   4.671   2.707
44563W        W12781  42.591   8.241   2.419
44564W        W12782   1.334   2.188   1.629
44565W        W12783  14.598  34.413   2.658
44566W        W12784  14.193   0.560   2.878
44567W        W12785  33.819  17.215   3.667
44568W        W12786   0.718  34.442  11.507
44569W        W12787   1.360  44.754   3.207
44570W        W12788  16.604  44.789   0.769
44571W        W12789  42.529   7.143   2.798
44572W        W12790  13.043   3.344   1.812
44573W        W12791  15.409   4.154  14.900
44574W        W12792  40.383  38.470   0.525
44575W        W12793  39.465  10.647  13.964
44576W        W12794  36.989  19.736  13.860
44577W        W12795   6.610  35.884  12.473
44578W        W12796  35.492  15.575  10.758
44579W        W12797  10.659  17.038  11.210
44580W        W12798  11.401   7.813   2.372
44581W        W12799   5.197  12.646  14.531
44582W        W12800   4.391  23.752  12.474
44583W        W12801  35.012   0.492   1.154
44584W        W12802  30.048  16.081   2.311
44585W        W12803  42.392  23.673   2.861
44586W        W12804  11.785   6.438   0.936
44587W        W12805  39.441   5.493   2.475
44588W        W12806  40.407  33.472   0.062
44589W        W12807  43.999  17.042  12.462
44590W        W12808   6.718   2.171   0.484
44591W        W12809  18.653  28.961  13.661
44592W        W12810   0.487  30.924   1.990
44593W        W12811  34.333  29.219  11.210
44594W        W12812  41.921  27.768  13.336
44595W        W12813  21.644   6.250   4.271
44596W        W12814  32.883  32.446  11.224
44597W        W12815  20.988  19.408   3.031
44598W        W12816  42.367  32.336  14.797
44599W        W12817  25.908  35.934  13.233
44600W        W12818  40.961  24.747  12.645
44601W        W12819  11.581  24.055  11.572
44602W        W12820   5.777  10.683  13.132
44603W        W12821  23.244  15.372   3.660
44604W        W12822  18.707  31.696  13.951
44605W        W12823   0.917  18.374   0.913
44606W        W12824  17.881  17.675  13.456
44607W        W12825  44.747   5.667  14.528
44608W        W12826  17.224  37.581  14.975
44609W        W12827   8.984  14.920   3.984
44610W        W12828  11.715  34.309   0.125
44611W        W12829  32.477  41.417  13.280
44612W        W12830  31.208  12.712  11.586
44613W        W12831  33.840  32.999  12.871
44614W        W12832  14.788  41.623   3.677
44615W        W12833   0.459  12.145   4.569
44616W        W12834   2.784  27.157  13.520
44617W        W12835  41.398  24.631   2.675
44618W        W12836   8.954   6.973  12.012
44619W        W12837  20.312   2.100  14.494
44620W        W12838  42.097  43.519   4.538
44621W        W12839  24.501  13.430   2.167
44622W        W12840  24.502   5.802  11.662
44623W        W12841   9.981   1.890  10.297
44624W        W12842  18.130  25.813   0.407
44625W        W12843  37.351   5.472   0.443
44626W        W12844  29.454  28.608  12.415
44627W        W12845  14.387  15.119  14.322
44628W        W12846  18.804   5.223  10.613
44629W        W12847  38.930  31.884   0.737
44630W        W12848  27.423  16.155   4.098
44631W        W12849   1.045  20.579  13.884
44632W        W12850  43.795  31.628  12.524
44633W        W12851  21.496  36.903  11.174
44634W        W12852  23.299  32.158   0.878
44635W        W12853  41.582  29.978  14.989
44636W        W12854   3.905   2.539   3.672
44637W        W12855  36.810  37.568  14.320
44638W        W12856   9.226   6.416  12.875
44639W        W12857  40.097  44.302  13.693
44640W        W12858   2.238  37.834  13.343
44641W        W12859   5.788  22.285  14.457
44642W        W12860  42.914  19.001   0.989
44643W        W12861  44.301  15.308   3.388
44644W        W12862  15.659  21.518   3.111
44645W        W12863  40.552  22.682  13.878
44646W        W12864  21.169   0.506   4.525
44647W        W12865  32.413  21.609  14.431
44648W        W12866  29.930   9.377   3.305
44649W        W12867  35.061  29.444   1.259
44650W        W12868  28.236  19.051  11.913
44651W        W12869  31.441  34.429   4.310
44652W        W12870   9.905  24.138  12.829
44653W        W12871  42.661  18.282   2.188
44654W        W12872  25.560  10.561   0.924
44655W        W12873  17.855  35.874   0.962
44656W        W12874  40.901   4.977   3.220
44657W        W12875  14.027  28.961  13.426
44658W        W12876  11.942  19.160   4.853
44659W        W12877   6.278  16.694   2.120
44660W        W12878  10.393  35.353   2.268
44661W        W12879  32.213  31.534  13.265
44662W        W12880   2.853  14.122  12.734
44663W        W12881  14.673  17.205   0.395
44664W        W12882  28.993  11.626   4.111
44665W        W12883   5.939  43.548   4.026
44666W        W12884  24.944   7.218  11.471
44667W        W12885  39.826  18.299  10.761
44668W        W12886  23.619  26.741  10.935
44669W        W12887  11.156  37.892  13.384
44670W        W12888  17.330  13.605  14.472
44671W        W12889  23.836  42.094   1.732
44672W        W12890  34.997   5.359   1.847
44673W        W12891  25.497  41.824   0.744
44674W        W12892  14.966  43.741   1.242
44675W        W12893  17.514  25.233  10.489
44676W        W12894  16.400  12.109   4.626
44677W        W12895  27.616   0.197   1.665
44678W        W12896  17.220  26.949  12.414
44679W        W12897   3.728  34.675   4.474
44680W        W12898  16.082  44.513   1.453
44681W        W12899  30.842  11.761  14.578
44682W        W12900  16.458  40.353  13.567
44683W        W12901  20.153   9.903  11.277
44684W        W12902   3.575  38.806   0.036
44685W        W12903  10.648   9.208   0.060
44686W        W12904  18.604  16.210   5.467
44687W        W12905  10.776  36.431  12.971
44688W        W12906   0.199  42.586   1.875
44689W        W12907   5.444  29.694  13.410
44690W        W12908  33.897   1.473   1.846
44691W        W12909  22.625  40.977   1.224
44692W        W12910  13.762  31.143  13.100
44693W        W12911  24.927   6.805  10.694
44694W        W12912   7.288  20.091  12.413
44695W        W12913  44.395   3.721  13.962
44696W        W12914  42.801   8.182   5.048
44697W        W12915  32.853  19.226  11.459
44698W        W12916  41.252  39.520   3.836
44699W        W12917  22.045  39.753  13.110
44700W        W12918  10.796  36.384   1.357
44701W        W12919  19.068   5.388   2.662
44702W        W12920  39.731  30.581   0.029
44703W        W12921  19.055  34.561  14.906
44704W        W12922  26.609  36.558   3.580
44705W        W12923  43.363  12.237   2.953
44706W        W12924  43.700  18.080  13.348
44707W        W12925  30.419  10.682  10.592
44708W        W12926   8.814  20.318  10.719
44709W        W12927  28.554  18.562  10.562
44710W        W12928  28.952  44.345   2.309
44711W        W12929  16.292   4.945   2.722
44712W        W12930  38.438  11.734   0.913
44713W        W12931  26.914  10.195   0.454
44714W        W12932  41.079   0.889   4.770
44715W        W12933  20.741  31.992  12.035
44716W        W12934   3.849  12.840   0.789
44717W        W12935  31.992  15.999   2.636
44718W        W12936   5.246  34.118  14.513
44719W        W12937  10.555   7.321  14.179
44720W        W12938   3.468   3.782  12.921
44721W        W12939  20.988  13.036   1.676
44722W        W12940  11.898  19.771   4.272
44723W        W12941   2.810  10.879  12.882
44724W        W12942  12.595  13.404  14.599
44725W        W12943  43.091  35.819  12.031
44726W        W12944   4.300   4.412   4.638
44727W        W12945  38.844  39.445  12.126
44728W        W12946  35.281  36.237   1.328
44729W        W12947  42.681  33.011   2.829
44730W        W12948  21.057  40.175   5.063
44731W        W12949  36.217  42.884   0.746
44732W        W12950  28.497   3.325   1.831
44733W        W12951  23.605  23.027  13.210
44734W        W12952  19.175   7.315   0.471
44735W        W12953  18.235   0.274   0.352
44736W        W12954  34.504  20.208   3.563
44737W        W12955   1.161  26.787  14.537
44738W        W12956   6.976  34.005   0.159
44739W        W12957  38.426  43.299  11.400
44740W        W12958   0.392  32.798   0.954
44741W        W12959   8.061  33.996   2.218
44742W        W12960  13.661  32.787  11.378
44743W        W12961   5.244  31.432   3.516
44744W        W12962   6.992  38.037  13.504
44745W        W12963  17.709  14.010   4.221
44746W        W12964  15.216  27.684  13.939
44747W        W12965  33.737  41.524   2.302
44748W        W12966  20.668  37.106   0.998
44749W        W12967  42.525   4.394   0.193
44750W        W12968  33.381  41.916  14.823
44751W        W12969   9.791  33.341  13.043
44752W        W12970  41.752  26.970   4.597
44753W        W12971   5.496  11.785   0.512
44754W        W12972  41.983  32.937  14.522
44755W        W12973  30.102   5.298   3.214
44756W        W12974  28.669  40.769   2.753
44757W        W12975  31.439  21.753  11.589
44758W        W12976  11.157  27.775  14.351
44759W        W12977   4.386   4.611  14.915
44760W        W12978  19.216  42.070  13.346
44761W        W12979   6.149  21.257  11.233
44762W        W12980   3.275  17.155  11.382
44763W        W12981  11.357  13.093  14.309
44764W        W12982  38.539   8.265  12.845
44765W        W12983  17.635  38.463   1.390
44766W        W12984   9.259   1.069  11.039
44767W        W12985  28.399  34.373  14.342
44768W        W12986  25.514  15.284   3.646
44769W        W12987  26.249  26.230   0.919
44770W        W12988  28.032  12.129   3.113
44771W        W12989  17.760  44.504  13.285
44772W        W12990  10.673   4.870   3.134
44773W        W12991   7.880  25.775  14.909
44774W        W12992  43.603  36.996   0.722
44775W        W12993  27.993  34.600   2.781
44776W        W12994  37.631  29.878   1.797
44777W        W12995  44.883  12.550   0.828
44778W        W12996  44.669  32.633   1.248
44779W        W12997  20.944  41.104   4.018
44780W        W12998  24.072  22.767  12.056
44781W        W12999  23.754  28.840  12.780
44782W        W13000  21.009  37.410  13.865
44783W        W13001  44.875  17.352  10.657
44784W        W13002  14.725  44.074  10.352
44785W        W13003  39.830   6.458  12.087
44786W        W13004  17.513   6.365  11.440
44787W        W13005  39.228  44.971   4.085
44788W        W13006  17.105   9.106  10.384
44789W        W13007  15.679   5.817  12.012
44790W        W13008   9.291  44.738   1.319
44791W        W13009  17.173   2.245   4.112
44792W        W13010  12.893  36.948  14.984
44793W        W13011   4.209  43.231   2.961
44794W        W13012  36.987  42.963   4.642
44795W        W13013  33.271  19.785   9.758
44796W        W13014  11.256   3.923   4.102
44797W        W13015  18.137  16.322   1.287
44798W        W13016   7.662  36.086  10.859
44799W        W13017  42.366  12.767  11.004
44800W        W13018  10.187  37.959   0.705
44801W        W13019  36.474   6.149   4.530
44802W        W13020  34.634  27.191   2.905
44803W        W13021  20.215  24.803  14.426
44804W        W13022  30.521  17.543   1.758
44805W        W13023   7.666  27.630  11.641
44806W        W13024  14.395   0.461  11.512
44807W        W13025  13.128  16.645  11.542
44808W        W13026  22.290   8.614   1.753
44809W        W13027  16.782  35.241  11.503
44810W        W13028  21.760  23.469  14.972
44811W        W13029  30.234  16.074   0.787
44812W        W13030  24.975  15.739   2.739
44813W        W13031  24.873  21.976   1.665
44814W        W13032  38.969  32.083   1.230
44815W        W13033  42.785   0.165  10.713
44816W        W13034  32.246  34.868   5.145
44817W        W13035  10.852  25.070  12.921
44818W        W13036  25.531  18.706  13.787
44819W        W13037  15.787   7.562   3.294
44820W        W13038  19.964  21.678   0.554
44821W        W13039  23.668   9.288  10.655
44822W        W13040   6.675  31.683  11.953
44823W        W13041   0.367  25.241   3.666
44824W        W13042  37.541  22.657   1.500
44825W        W13043  43.158  43.592   2.884
44826W        W13044  13.183  30.972   2.203
44827W        W13045   3.571  36.920   3.536
44828W        W13046  36.468  27.618   3.136
44829W        W13047  23.167   6.696   4.487
44830W        W13048  12.593  11.759   4.641
44831W        W13049  27.877  35.085   2.572
44832W        W13050  37.187   6.364   4.009
44833W        W13051   2.445   8.159   2.762
44834W        W13052  40.952  22.777  14.624
44835W        W13053  15.673  20.526  14.594
44836W        W13054  42.941  27.171   0.283
44837W        W13055  32.572  29.152   2.340
44838W        W13056  16.887   6.767  14.033
44839W        W13057   6.280  19.988  12.134
44840W        W13058  17.741  20.750   0.899
44841W        W13059  35.124  22.757  12.570
44842W        W13060  29.523   9.164   0.505
44843W        W13061   2.173  23.166   1.522
44844W        W13062  38.308   8.421  14.350
44845W        W13063  21.026   2.191  14.778
44846W        W13064  10.803  28.192   4.462
44847W        W13065  27.421  35.085   3.608
44848W        W13066  30.180  40.305  12.588
44849W        W13067  13.796  44.477  13.864
44850W        W13068  38.180  26.420   4.804
44851W        W13069  12.182  30.018   4.829
44852W        W13070  13.188  25.262  14.115
44853W        W13071  14.935  42.039  13.994
44854W        W13072  43.761  23.472  12.131
44855W        W13073  32.085  32.586   2.342
44856W        W13074  12.143  31.774  10.729
44857W        W13075  39.557  42.038   3.682
44858W        W13076  40.097  17.997  12.091
44859W        W13077  20.364  43.311  13.800
44860W        W13078  29.918  38.957  14.348
44861W        W13079  42.818  18.484   4.378
44862W        W13080  41.447   8.589  14.359
44863W        W13081  23.756  34.504  14.086
44864W        W13082  15.339  32.321   3.187
44865W        W13083   8.887  13.884  11.481
44866W        W13084  25.987  31.093   2.792
44867W        W13085   1.684  23.159   3.777
44868W        W13086  33.624  32.490  12.031
44869W        W13087  16.636   2.678   0.440
44870W        W13088  40.093   1.674   4.437
44871W        W13089  43.253  22.613   3.395
44872W        W13090  21.949   7.729  13.682
44873W        W13091  44.570   5.670   2.338
44874W        W13092  27.072  31.499  13.315
44875W        W13093  28.204  18.306  13.089
44876W        W13094  24.609  22.629   1.193
44877W        W13095  41.980  29.034   1.940
44878W        W13096   2.946   4.380   1.383
44879W        W13097  23.703   8.506  13.421
44880W        W13098  23.215  27.078  10.901
44881W        W13099  40.367  24.706   3.685
44882W        W13100  26.776  32.145   2.998
44883W        W13101  19.878   7.436   0.791
44884W        W13102   6.266  20.678   0.946
44885W        W13103   0.984  16.629   1.889
44886W        W13104  37.262  42.351  14.222
44887W        W13105   3.501  32.408  13.120
44888W        W13106  35.640  41.557  13.010
44889W        W13107  43.002  38.919  13.426
44890W        W13108  22.982   5.871   1.851
44891W        W13109  34.008   3.934   1.232
44892W        W13110  16.611   2.092   1.749
44893W        W13111  41.457  18.085   0.427
44894W        W13112  13.936   8.178  14.436
44895W        W13113   7.065   4.353  13.414
44896W        W13114  12.246  35.581  13.783
44897W        W13115   3.266   6.235  10.575
44898W        W13116   0.723  12.798  14.341
44899W        W13117   2.631  11.725   2.299
44900W        W13118  19.626  23.439  11.594
44901W        W13119  43.351  44.220  12.473
44902W        W13120  35.669  16.119   3.261
44903W        W13121  20.220  21.023  13.842
44904W        W13122  16.625   4.664   0.295
44905W        W13123   9.634  12.642   3.224
44906W        W13124  32.620  14.087  11.501
44907W        W13125  26.687  24.078  13.512
44908W        W13126   6.755  35.636  13.952
44909W        W13127  36.842  15.718   2.406
44910W        W13128  43.274  22.348   1.101
44911W        W13129  18.537  21.669  12.054
44912W        W13130   6.726   0.828   2.804
44913W        W13131   9.265  41.504   1.927
44914W        W13132  34.834   4.689   0.551
44915W        W13133  25.726  36.702  10.944
44916W        W13134  11.749  13.876   3.230
44917W        W13135  14.717  32.585  12.829
44918W        W13136  27.995   2.078  14.838
44919W        W13137  12.794  31.917  12.644
44920W        W13138  31.233  41.375  14.056
44921W        W13139  30.420  38.820   2.860
44922W        W13140   6.932   6.323   1.899
44923W        W13141  24.124  32.061  12.843
44924W        W13142  18.607  42.264   3.878
44925W        W13143   7.919  31.837   2.886
44926W        W13144   5.856  19.199   1.448
44927W        W13145   6.984  34.919   0.672
44928W        W13146  35.691  28.926  13.360
44929W        W13147  37.438  30.103  10.541
44930W        W13148  31.862   0.882   1.708
44931W        W13149  32.449  33.202  12.443
44932W        W13150  29.263  37.337   4.697
44933W        W13151   4.657   1.781  11.628
44934W        W13152   2.950  42.003   3.764
44935W        W13153  16.611  24.680  13.067
44936W        W13154   1.828  15.933  14.938
44937W        W13155   6.391  21.965   3.003
44938W        W13156  11.258  36.329   2.853
44939W        W13157  29.951  37.477   3.652
44940W        W13158  17.969  12.720   4.664
44941W        W13159   9.455   5.355  14.943
44942W        W13160  13.837  39.014  11.315
44943W        W13161  25.049  26.181   1.391
44944W        W13162  10.754  29.872   2.291
44945W        W13163  31.009  10.444   4.565
44946W        W13164  15.401  36.600   2.318
44947W        W13165  14.906  10.388   1.488
44948W        W13166   8.254   5.040   2.156
44949W        W13167   9.590   5.347   1.743
44950W        W13168   1.363  40.956   4.603
44951W        W13169  38.621   4.911   1.316
44952W        W13170  39.907  27.068  12.091
44953W        W13171  23.614  40.696   0.387
44954W        W13172  10.168  28.675  14.397
44955W        W13173  26.138   3.718  14.496
44956W        W13174  33.494  39.057   4.642
44957W        W13175   8.326  27.730   1.887
44958W        W13176  23.665  27.225  11.120
44959W        W13177  12.971   2.119   9.959
44960W        W13178  18.919  29.941   5.128
44961W        W13179  25.287   0.568  14.452
44962W        W13180   2.778   6.909   1.169
44963W        W13181  33.290  23.621  12.999
44964W        W13182  28.516  30.582   3.256
44965W        W13183   8.947   3.976   0.312
44966W        W13184  17.961  24.217   3.251
44967W        W13185  38.937  28.971  12.503
44968W        W13186  16.814  23.059   4.217
44969W        W13187   5.428  23.332   1.116
44970W        W13188  36.324  21.136   0.251
44971W        W13189   3.346  26.213   1.545
44972W        W13190  14.544  20.074   3.747
44973W        W13191  11.090  15.672  11.586
44974W        W13192  14.368  41.400   2.323
44975W        W13193  32.945   1.844   4.671
44976W        W13194   3.790   5.491  13.806
44977W        W13195  20.704  35.090   0.046
44978W        W13196   6.235   6.717   3.824
44979W        W13197  38.589  28.439   2.386
44980W        W13198  31.969   6.399   2.690
44981W        W13199   9.270  25.012  14.497
44982W        W13200  25.197  19.058   4.722
44983W        W13201  38.047   4.368   2.164
44984W        W13202  24.384  27.141   1.258
44985W        W13203  33.369   5.370   3.681
44986W        W13204  42.337  43.540  14.148
44987W        W13205  37.028  39.482   4.343
44988W        W13206  16.277  37.693  10.358
44989W        W13207  16.757  24.758   1.007
44990W        W13208  26.965  42.430  10.739
44991W        W13209  20.646  16.232  11.705
44992W        W13210  24.586  14.041   4.034
44993W        W13211   0.033  36.157   1.758
44994W        W13212  38.498  10.446   3.658
44995W        W13213  44.570  41.012  12.001
44996W        W13214  30.198  22.269   0.613
44997W        W13215  41.752  33.347  14.018
44998W        W13216   4.942   9.017   0.476
44999W        W13217  22.174   9.282  11.943
45000W        W13218  24.576   1.312  11.989
45001W        W13219  17.175  31.571   0.061
45002W        W13220   2.203   5.823   5.028
45003W        W13221  33.989  38.903   4.055
45004W        W13222  21.810  26.610   2.351
45005W        W13223  34.348  21.797  13.142
45006W        W13224  26.657  22.086   9.765
45007W        W13225   4.626   4.151  14.296
45008W        W13226  32.517  17.385  13.226
45009W        W13227   8.482   9.952   4.317
45010W        W13228  12.234  36.970  10.878
45011W        W13229  22.878  31.530  13.075
45012W        W13230  40.546  33.139   3.168
45013W        W13231  28.602  21.565  11.544
45014W        W13232  14.127   9.437  11.242
45015W        W13233  36.041  19.724   1.775
45016W        W13234  30.586  36.813   4.098
45017W        W13235   7.285  19.189  10.525
45018W        W13236   4.875   4.016   1.372
45019W        W13237  29.183   4.960   0.779
45020W        W13238  24.794  14.247   3.592
45021W        W13239   9.805  36.037   3.129
45022W        W13240  22.752  29.825   3.785
45023W        W13241  17.711  10.774   4.719
45024W        W13242  29.395   3.932   4.152
45025W        W13243  20.353   8.562   3.819
45026W        W13244  24.587  18.723   3.276
45027W        W13245  40.098  20.934   4.564
45028W        W13246  25.493  43.129  10.292
45029W        W13247  30.689  18.537   1.610
45030W        W13248  43.088  25.594   0.293
45031W        W13249  22.575  33.473  13.900
45032W        W13250  10.531  34.935  13.810
45033W        W13251  30.048   0.764  11.116
45034W        W13252   9.251  44.384   2.843
45035W        W13253  34.339   0.775  13.530
45036W        W13254  37.343  40.767  10.832
45037W        W13255  10.777  28.142  14.522
45038W        W13256  12.726   3.151   5.235
45039W        W13257  21.301   7.923  11.526
45040W        W13258  24.039  35.578  12.371
45041W        W13259  11.291  28.681   0.822
45042W        W13260  23.190  12.153  14.889
45043W        W13261  20.400   3.127  11.175
45044W        W13262  17.678   5.125   1.894
45045W        W13263  37.497  36.428  12.435
45046W        W13264  16.214   1.956  14.979
45047W        W13265  12.339   8.452   4.870
45048W        W13266  28.652  35.845   3.603
45049W        W13267  20.372  20.182  11.129
45050W        W13268  15.745  37.503  11.141
45051W        W13269  15.354  25.199   2.258
45052W        W13270  27.737  24.039  11.214
45053W        W13271  12.798   4.285  11.232
45054W        W13272  20.222  28.974   4.707
45055W        W13273   0.986  32.140  12.856
45056W        W13274  34.055   0.427   1.125
45057W        W13275  39.486  23.061   1.634
45058W        W13276  34.946  38.548  13.287
45059W        W13277  34.310   8.679   0.493
45060W        W13278  43.595  10.350  12.733
45061W        W13279   8.661  31.080   2.378
45062W        W13280  16.229   7.842   3.766
45063W        W13281  30.659  12.867  12.448
45064W        W13282   2.850  36.441   4.633
45065W        W13283   4.642  33.920  11.434
45066W        W13284  33.680  28.076  12.624
45067W        W13285  30.205  32.847   1.215
45068W        W13286   4.230  40.475  12.439
45069W        W13287  39.698  24.135   4.223
45070W        W13288  40.606  29.872  14.821
45071W        W13289  26.696  25.900   1.245
45072W        W13290  20.630  44.375  11.361
45073W        W13291  30.949  25.577   4.755
45074W        W13292  20.468  16.161   1.758
45075W        W13293  36.446   4.605   3.366
45076W        W13294  32.729  44.874  14.414
45077W        W13295   3.038  37.311   3.237
45078W        W13296   9.576  28.209  13.234
45079W        W13297  10.758  21.583  10.668
45080W        W13298   4.721  20.735  13.146
45081W        W13299  34.292   2.837  14.839
45082W        W13300  43.247  22.277  12.550
45083W        W13301  11.814  31.975   2.645
45084W        W13302  19.194   3.811   0.887
45085W        W13303  20.686   1.269  14.524
45086W        W13304  13.580  19.671   1.033
45087W        W13305  24.313  36.978   1.223
45088W        W13306   3.941  24.548   3.192
45089W        W13307  29.081  10.608   0.928
45090W        W13308  41.750  26.031  12.676
45091W        W13309  17.514  40.063  14.971
45092W        W13310  13.588  42.618  11.999
45093W        W13311   5.342  35.933   2.271
45094W        W13312  41.768  13.586  13.473
45095W        W13313  12.544  42.310  10.828
45096W        W13314  16.967  35.944   4.598
45097W        W13315  34.504  16.010  14.978
45098W        W13316  33.626  32.533  13.000
45099W        W13317  34.097  14.317  12.396
45100W        W13318  38.990  31.182  12.207
45101W        W13319  22.574  18.767   4.246
45102W        W13320  25.899  15.473   3.084
45103W        W13321  23.788  23.218  11.973
45104W        W13322  15.385  37.009  13.896
45105W        W13323  14.189  32.131  12.512
45106W        W13324  11.473  19.198   1.980
45107W        W13325  23.403  37.563  12.660
45108W        W13326  36.038   5.712   0.190
45109W        W13327   1.706  34.641   0.829
45110W        W13328  20.942  20.770  11.629
45111W        W13329  11.191  32.887   3.557
45112W        W13330  25.300   5.685   0.364
45113W        W13331  15.209  41.523   0.533
45114W        W13332   9.432  44.293   3.334
45115W        W13333  36.119  10.602   1.948
45116W        W13334   1.314   8.204  11.443
45117W        W13335  17.939  33.748   1.341
45118W        W13336  14.406  40.074  11.624
45119W        W13337   1.873  12.050  14.407
45120W        W13338   6.315  34.104  10.692
45121W        W13339  27.186   4.466  13.523
45122W        W13340  12.118   0.550  13.536
45123W        W13341  17.318  11.279   0.318
45124W        W13342  25.449  27.068  10.755
45125W        W13343   5.337  12.329   3.182
45126W        W13344  12.092  28.481  11.073
45127W        W13345  13.371  28.248  13.518
45128W        W13346  44.833   1.192   4.782
45129W        W13347  29.916   8.048   1.852
45130W        W13348  24.573   2.375  10.884
45131W        W13349   6.859  35.517   4.697
45132W        W13350   1.641  24.096   3.830
45133W        W13351  12.266  20.772   1.096
45134W        W13352  24.765   5.890  13.461
45135W        W13353  39.050  39.393   0.312
45136W        W13354  25.164  14.329   4.724
45137W        W13355   0.310  39.935   2.382
45138W        W13356  21.916  41.639   3.888
45139W        W13357  32.398  12.317   3.248
45140W        W13358  11.873  30.960   4.735
45141W        W13359  36.912  44.987  12.149
45142W        W13360  31.830  18.891  13.847
45143W        W13361  34.454  19.944   1.831
45144W        W13362   8.768   3.244  11.032
45145W        W13363   3.749  28.108  12.087
45146W        W13364  19.796  18.457   5.026
45147W        W13365   2.815  40.822   3.319
45148W        W13366  41.910  11.934  11.125
45149W        W13367  43.857  30.196  14.755
45150W        W13368   2.466   2.785  14.563
45151W        W13369  37.642  13.275  14.310
45152W        W13370  39.809  41.593   3.168
45153W        W13371  15.585  37.459   2.687
45154W        W13372  19.758  44.781   3.283
45155W        W13373  26.658   3.808   1.470
45156W        W13374  14.633  30.506  10.546
45157W        W13375  44.596  38.908   5.304
45158W        W13376  28.023   7.393   4.676
45159W        W13377   6.803  42.827  12.458
45160W        W13378   0.859   2.439  13.090
45161W        W13379  40.301  44.951  11.768
45162W        W13380  23.177   7.710  11.995
45163W        W13381  16.130  17.285   3.115
45164W        W13382  26.917   0.729  14.252
45165W        W13383  43.936  20.920   0.310
45166W        W13384  21.539  43.508  11.957
45167W        W13385  11.688  11.756  10.901
45168W        W13386  38.539   5.765   4.441
45169W        W13387  27.125  20.183   1.792
45170W        W13388  35.956  29.686   1.692
45171W        W13389  37.302  22.126   0.236
45172W        W13390  29.409   3.469   2.356
45173W        W13391   1.229  35.011  12.208
45174W        W13392  41.581  42.599   3.212
45175W        W13393  40.750   6.333  14.532
45176W        W13394  34.882  18.858  10.481
45177W        W13395  23.526  39.791   0.183
45178W        W13396   4.074   9.724  10.420
45179W        W13397   0.763   4.178  13.952
45180W        W13398  17.032  39.372  12.476
45181W        W13399   3.644  30.600   2.364
45182W        W13400  37.852  22.018  12.016
45183W        W13401  26.180  27.751   0.308
45184W        W13402  42.795  24.906  11.637
45185W        W13403  26.280  44.241   3.122
45186W        W13404  37.531   4.202   0.707
45187W        W13405  27.597  10.663   0.034
45188W        W13406   9.793  37.139   1.401
45189W        W13407  28.133  19.078  13.853
45190W        W13408  24.945  30.014   2.838
45191W        W13409  16.236  42.294   1.380
45192W        W13410  14.589   6.373   0.416
45193W        W13411  33.440  23.282  11.292
45194W        W13412  25.551   3.730   2.994
45195W        W13413  22.542  17.851   4.401
45196W        W13414  33.334   8.828  14.604
45197W        W13415  18.123  44.464   4.069
45198W        W13416  37.440  39.109   3.764
45199W        W13417  33.531  34.910  13.536
45200W        W13418  15.578  40.421   4.614
45201W        W13419   1.383  12.791  11.516
45202W        W13420  14.610  23.001   0.873
45203W        W13421   4.308  42.015  14.733
45204W        W13422  22.241   3.302  12.418
45205W        W13423   7.418  20.094  11.482
45206W        W13424   1.660   1.414  12.588
45207W        W13425  13.747  18.830  13.469
45208W        W13426  25.480  43.188   4.189
45209W        W13427  18.374  22.294  14.925
45210W        W13428  18.574   9.223   4.134
45211W        W13429  36.107  36.085   3.211
45212W        W13430  33.868  16.854   0.878
45213W        W13431  18.240  13.152  11.659
45214W        W13432  14.747  40.815   1.440
45215W        W13433  27.971  32.263   1.342
45216W        W13434   3.677  22.641  13.419
45217W        W13435  38.531  39.340  13.682
45218W        W13436   3.252  39.505  12.141
45219W        W13437  12.281  12.077   3.107
45220W        W13438  35.641  38.322   3.376
45221W        W13439  26.180  30.965   4.683
45222W        W13440  40.301  25.780  11.929
45223W        W13441   0.285  37.001   3.347
45224W        W13442  10.132  16.568   2.278
45225W        W13443  34.894  13.740   2.903
45226W        W13444  20.267   4.908  11.346
45227W        W13445   6.984   6.983  11.172
45228W        W13446  11.280  13.612  14.202
45229W        W13447  22.082  41.742   0.164
45230W        W13448  29.126  20.029   4.766
45231W        W13449  22.010  12.388   5.265
45232W        W13450  41.834  39.572  13.539
45233W        W13451  27.995   9.380  12.346
45234W        W13452  26.694   6.492  14.083
45235W        W13453  35.302   3.800   3.502
45236W        W13454  41.251  27.637   4.248
45237W        W13455  10.077  28.418  11.198
45238W        W13456  30.001  16.296   5.174
45239W        W13457  18.946  22.239  14.967
45240W        W13458  31.014   7.938   4.672
45241W        W13459   6.254  33.635   3.674
45242W        W13460   6.533   2.194  11.144
45243W        W13461  20.819  22.039   2.168
45244W        W13462  36.396  26.956  10.515
45245W        W13463  31.102  35.571   1.469
45246W        W13464  39.290  43.971  14.705
45247W        W13465   7.347  14.239   0.978
45248W        W13466  27.128  26.930  12.435
45249W        W13467  30.857  38.980  13.144
45250W        W13468  37.673  35.577   0.516
45251W        W13469  10.642   2.398  13.037
45252W        W13470  26.485  10.399   2.335
45253W        W13471  24.688   0.433   3.247
45254W        W13472   9.818  40.854  12.428
45255W        W13473  43.256   0.389   3.354
45256W        W13474   2.100  25.291   1.910
45257W        W13475  16.844  33.955  10.631
45258W        W13476  33.250  30.581   4.429
45259W        W13477  43.223  10.602  12.441
45260W        W13478  34.866  27.985  11.965
45261W        W13479  35.448  35.630  12.527
45262W        W13480  43.478  44.506  14.377
45263W        W13481   5.254   7.822   0.231
45264W        W13482  35.160  12.126   0.860
45265W        W13483  41.737  25.982  10.980
45266W        W13484  27.926  28.402  11.638
45267W        W13485   2.329  10.059   3.777
45268W        W13486  40.004  33.992   3.520
45269W        W13487  16.828  44.502   0.372
45270W        W13488  39.417   5.745   0.792
45271W        W13489   4.914   2.762  11.608
45272W        W13490   0.803  32.969   4.699
45273W        W13491   6.932  26.689   1.697
45274W        W13492   4.849  21.818  10.156
45275W        W13493  40.647  35.965  12.688
45276W        W13494  18.825  24.792   0.633
45277W        W13495   5.912  22.038   2.268
45278W        W13496   9.736  24.080   4.290
45279W        W13497  19.575  11.779  11.009
45280W        W13498  23.084  11.702  10.655
45281W        W13499  40.874  32.720  11.981
45282W        W13500   5.636  19.640   1.800
45283W        W13501  36.507  44.222  12.567
45284W        W13502  19.444  35.344  11.293
45285W        W13503  29.815   9.411  11.968
45286W        W13504  29.344   8.257   3.692
45287W        W13505  30.071  16.004  13.456
45288W        W13506  17.379  13.275  11.929
45289W        W13507   3.290  29.834  10.512
45290W        W13508  25.002  39.519   4.078
45291W        W13509   7.163   5.218   2.657
45292W        W13510   9.137  15.127   4.468
45293W        W13511  33.519  24.084   1.647
45294W        W13512  38.142  39.049   4.546
45295W        W13513  23.301  14.244   4.588
45296W        W13514  22.578  22.021  13.423
45297W        W13515  35.008  26.679   4.226
45298W        W13516  14.017  21.692  13.550
45299W        W13517  26.614  25.276   3.993
45300W        W13518   2.533  27.667  14.958
45301W        W13519   1.189   8.431   3.308
45302W        W13520  24.146   6.327   4.673
45303W        W13521  41.032  34.061  12.564
45304W        W13522  21.068  17.626  13.756
45305W        W13523   4.975  20.835  12.134
45306W        W13524  11.354  21.163  12.638
45307W        W13525  17.194  34.957   0.909
45308W        W13526   3.611   2.896   1.578
45309W        W13527  14.245  29.347   4.978
45310W        W13528   7.348  26.514  14.316
45311W        W13529  39.258  42.980  12.689
45312W        W13530  10.455  24.482   3.041
45313W        W13531  11.715  41.524   1.392
45314W        W13532  24.012  20.154   4.200
45315W        W13533   6.305  44.512   4.987
45316W        W13534  37.950  27.907  12.257
45317W        W13535  41.550  38.315   3.361
45318W        W13536  12.825  24.058  13.079
45319W        W13537  34.838  11.674  10.531
45320W        W13538   5.831   6.246  11.922
45321W        W13539  39.512  38.526   1.054
45322W        W13540  11.670  31.893  14.844
45323W        W13541   1.003  19.261   1.125
45324W        W13542  14.698   2.375   2.936
45325W        W13543  37.909  14.663  11.123
45326W        W13544  15.788  14.041   3.847
45327W        W13545  25.243  42.915  10.707
45328W        W13546  32.710  28.091  11.508
45329W        W13547  31.336  27.060   3.681
45330W        W13548   8.059  26.144  12.378
45331W        W13549   1.967  27.878  11.179
45332W        W13550  27.377  17.275   1.892
45333W        W13551  25.730  20.750  13.488
45334W        W13552  32.310  29.113   0.325
45335W        W13553   6.286   2.833   2.366
45336W        W13554  25.118  29.684   1.352
45337W        W13555  12.300  40.023   2.203
45338W        W13556   1.897  42.015  12.951
45339W        W13557  18.643  30.378  14.438
45340W        W13558  33.930  16.775  12.640
45341W        W13559   9.625   3.710   1.262
45342W        W13560  22.682   4.349   4.111
45343W        W13561  11.434   4.354   0.467
45344W        W13562  19.350  36.461   0.370
45345W        W13563  32.677  36.287   3.634
45346W        W13564  19.804  27.455  12.220
45347W        W13565   1.015  17.641   0.299
45348W        W13566  10.110  41.076  12.004
45349W        W13567  19.288  32.352  13.816
45350W        W13568  17.133  26.433  12.584
45351W        W13569  27.839   8.214   3.248
45352W        W13570  21.814  22.296  10.745
45353W        W13571  14.569  38.143  12.062
45354W        W13572  24.740  25.867  11.068
45355W        W13573   2.485  35.763  12.101
45356W        W13574  38.115   2.217  11.560
45357W        W13575  19.612  41.900  14.081
45358W        W13576  41.103  32.625  12.437
45359W        W13577   6.126  12.282   2.711
45360W        W13578  13.763  10.763  13.740
45361W        W13579  29.267  21.356   3.280
45362W        W13580   3.054  43.326   3.282
45363W        W13581  22.699   3.161   4.956
45364W        W13582  44.088  24.652  11.947
45365W        W13583  28.165  35.637   3.095
45366W        W13584  38.263   4.257   0.057
45367W        W13585   6.841  30.728  11.599
45368W        W13586   3.934  18.723  13.932
45369W        W13587  29.920  33.115   4.540
45370W        W13588  34.896  12.937   4.232
45371W        W13589  21.125  43.533  13.007
45372W        W13590   5.638  33.658   4.712
45373W        W13591  40.983  32.891  11.484
45374W        W13592  25.900  10.893  12.527
45375W        W13593  39.400  11.002   3.644
45376W        W13594  41.310   0.691   1.401
45377W        W13595  39.719   3.299   0.922
45378W        W13596  19.698  24.763   1.956
45379W        W13597  32.845  26.165  13.666
45380W        W13598  43.535  43.854   3.138
45381W        W13599  43.981  18.634  14.553
45382W        W13600  33.669   6.332   4.138
45383W        W13601  28.719   6.587   2.702
45384W        W13602  16.118  43.566   4.086
45385W        W13603  25.712  40.414  14.562
45386W        W13604  32.510  25.584   4.225
45387W        W13605  11.178  27.624  10.764
45388W        W13606  13.762  41.830  10.626
45389W        W13607  32.432   0.655   3.357
45390W        W13608   0.703  14.118   5.012
45391W        W13609  20.689  28.606   4.123
45392W        W13610  26.495  25.677   3.639
45393W        W13611  13.670  22.089  10.657
45394W        W13612  21.254  28.502   3.233
45395W        W13613  44.795  44.543   2.760
45396W        W13614  13.396  13.394  13.376
45397W        W13615  20.015  17.253   0.672
45398W        W13616  29.485  39.879  11.627
45399W        W13617   6.853  29.901  12.557
45400W        W13618  15.221  31.377   3.148
45401W        W13619   4.333  41.443  13.379
45402W        W13620  11.843   4.832   4.203
45403W        W13621   4.075  23.955  13.470
45404W        W13622  18.533  33.574  11.170
45405W        W13623  17.215   2.019  11.564
45406W        W13624  15.239  19.053   2.364
45407W        W13625  19.092  36.870  11.631
45408W        W13626  18.216   6.153  14.001
45409W        W13627  25.159  29.988  14.098
45410W        W13628  20.161   1.377  14.211
45411W        W13629  44.281  40.964   4.833
45412W        W13630   1.986  36.692  13.961
45413W        W13631  35.613  29.849  12.578
45414W        W13632  36.583   8.848  14.832
45415W        W13633  34.796   9.053   2.805
45416W        W13634  14.125  18.758   3.246
45417W        W13635  17.325  26.547   1.924
45418W        W13636   4.344  33.289   0.422
45419W        W13637  35.852   7.191   3.553
45420W        W13638  38.951  28.624   2.739
45421W        W13639  43.272  21.512  13.545
45422W        W13640  14.097  33.611  12.681
45423W        W13641  13.212  35.866  11.975
45424W        W13642  43.300  23.098  14.485
45425W        W13643  44.162  29.910   3.247
45426W        W13644  44.117  33.621   1.841
45427W        W13645  26.639  22.671   2.720
45428W        W13646  11.321  30.913   1.716
45429W        W13647  36.653  41.946   2.803
45430W        W13648  37.878  25.002  14.271
45431W        W13649  19.293  32.513  14.326
45432W        W13650  37.264   0.819  10.320
45433W        W13651  13.150   1.999   1.218
45434W        W13652  11.418  32.571   0.561
45435W        W13653  41.727  14.791  14.525
45436W        W13654  33.971   6.594   2.702
45437W        W13655  15.548  10.729  10.683
45438W        W13656  16.531  24.177  12.036
45439W        W13657  23.233   4.753  10.750
45440W        W13658  30.590  16.475  12.963
45441W        W13659   8.605  18.320  10.708
45442W        W13660  13.770   9.078   3.942
45443W        W13661  21.316  37.130  13.516
45444W        W13662  19.081   3.774  12.588
45445W        W13663  11.902  10.831  13.977
45446W        W13664  37.845  22.650   3.538
45447W        W13665   1.930  32.057   4.057
45448W        W13666   2.214  32.579  10.725
45449W        W13667  16.765  15.832   1.265
45450W        W13668   0.716  28.260   3.665
45451W        W13669  21.265  28.466  13.400
45452W        W13670  22.060   6.664   0.619
45453W        W13671  16.171  15.606   4.075
45454W        W13672  10.635  23.062   1.224
45455W        W13673  41.260  12.976  11.490
45456W        W13674  38.914  36.818   1.888
45457W        W13675  31.171   4.413   0.116
45458W        W13676  44.788  35.969  11.577
45459W        W13677  22.321  36.580   4.227
45460W        W13678   6.666   9.647  11.562
45461W        W13679   2.547  29.864  12.081
45462W        W13680  37.182  24.865  11.581
45463W        W13681  35.684   4.097  11.648
45464W        W13682  29.581  38.904  10.553
45465W        W13683  44.343   2.795   1.692
45466W        W13684  25.608  15.737  13.826
45467W        W13685  42.830  11.646  14.787
45468W        W13686  27.930  37.096   0.049
45469W        W13687  30.083  24.243  12.557
45470W        W13688   7.303   1.263  14.892
45471W        W13689  41.969  44.032   1.739
45472W        W13690  21.547   6.717  12.425
45473W        W13691  22.726  14.579  12.499
45474W        W13692  33.000  35.248   4.121
45475W        W13693  28.667  21.042   0.779
45476W        W13694  39.984  39.279  14.763
45477W        W13695   4.938  36.729   1.439
45478W        W13696   3.016  25.666   5.066
45479W        W13697   0.000  34.478   3.203
45480W        W13698  39.694  34.108   2.508
45481W        W13699  17.480  16.393  11.148
45482W        W13700  37.008   8.106  10.760
45483W        W13701  20.234  33.585   1.763
45484W        W13702  24.479  10.110  11.127
45485W        W13703  17.772  11.760  10.499
45486W        W13704  13.237  19.891   4.647
45487W        W13705  39.376  18.044  10.828
45488W        W13706  27.149  39.105   1.416
45489W        W13707   2.057  28.602  12.904
45490W        W13708   2.452   3.796   4.682
45491W        W13709  34.371  35.513  11.122
45492W        W13710  26.042  39.460   1.532
45493W        W13711  36.724  18.166   3.948
45494W        W13712  19.153  22.188   1.933
45495W        W13713  28.584   5.777   1.879
45496W        W13714  33.478  25.889   3.608
45497W        W13715  44.841  23.500  11.642
45498W        W13716   1.372  28.923   2.360
45499W        W13717  37.984  26.883  14.705
45500W        W13718  11.991  16.179   9.955
45501W        W13719  37.294  24.367  11.631
45502W        W13720  37.036  24.682  12.035
45503W        W13721   0.804  26.305   4.835
45504W        W13722   9.886   6.245   0.069
45505W        W13723  25.859  12.129   0.435
45506W        W13724  35.557  40.895   3.647
45507W        W13725   4.265  21.354   0.142
45508W        W13726  22.108  35.018  13.507
45509W        W13727  16.810  43.739   1.614
45510W        W13728   4.343   5.232  13.623
45511W        W13729  20.597  41.444   3.195
45512W        W13730   0.829  11.218   0.576
45513W        W13731  39.606   2.313   2.670
45514W        W13732  18.802  44.317  14.693
45515W        W13733  24.968  10.829  13.437
45516W        W13734   2.010  42.535  11.610
45517W        W13735  15.326  29.382  14.468
45518W        W13736   6.929  30.763   4.139
45519W        W13737  37.121  20.755   2.107
45520W        W13738   7.014  14.396  10.618
45521W        W13739   4.724  25.620   1.871
45522W        W13740  39.479   7.844   4.395
45523W        W13741  40.418  11.363   2.666
45524W        W13742  27.119  40.542   2.418
45525W        W13743  23.287  13.442  11.231
45526W        W13744  29.196   9.990  13.476
45527W        W13745   9.698  34.109   3.694
45528W        W13746  26.009  22.306  10.287
45529W        W13747  22.768   4.996  11.048
45530W        W13748  23.835  33.636  10.187
45531W        W13749  21.017  19.795   2.260
45532W        W13750  34.023  20.131   3.404
45533W        W13751   6.355  32.717   1.283
45534W        W13752   5.321  39.458   4.295
45535W        W13753  24.262   6.015   2.187
45536W        W13754  14.742   1.574   4.545
45537W        W13755   1.220  10.346   3.836
45538W        W13756  42.839  18.620   3.878
45539W        W13757  28.019  33.266  11.652
45540W        W13758  17.956  11.781  11.777
45541W        W13759   2.424  43.887   3.539
45542W        W13760  13.580  27.057   3.489
45543W        W13761  15.249  23.755  11.490
45544W        W13762  35.570  42.469  13.492
45545W        W13763   5.217  12.100  11.053
45546W        W13764  42.099  22.736   9.984
45547W        W13765  41.807   6.025   0.909
45548W        W13766  14.401  39.934  13.102
45549W        W13767   9.664   7.843  13.376
45550W        W13768   1.943  32.922   3.223
45551W        W13769  43.409  30.909   0.368
45552W        W13770  27.088  16.152   0.833
45553W        W13771  14.061  38.385  12.949
45554W        W13772  35.195  43.353   2.783
45555W        W13773  35.614  16.515   1.356
45556W        W13774  12.369  29.083   3.009
45557W        W13775   4.288  29.664  12.875
45558W        W13776   0.481  24.933   1.865
45559W        W13777  29.143  28.003   4.784
45560W        W13778   2.924   5.066  11.921
45561W        W13779  21.070  44.140  11.193
45562W        W13780  33.313  24.333  11.624
45563W        W13781  19.091  33.935   3.616
45564W        W13782  41.847  41.375  12.290
45565W        W13783   7.122  27.991  14.508
45566W        W13784  22.139  26.020   4.643
45567W        W13785  18.493  30.913   2.206
45568W        W13786  19.724   0.948   0.864
45569W        W13787  33.542  28.919  14.827
45570W        W13788  29.375   4.870  11.059
45571W        W13789  18.257  41.934   2.206
45572W        W13790  14.022   5.301  11.125
45573W        W13791  13.671  30.488   4.540
45574W        W13792  10.616   1.403   4.243
45575W        W13793  14.083   4.310  11.514
45576W        W13794  42.092  21.308  11.707
45577W        W13795  19.736  44.979   0.942
45578W        W13796  25.474  24.437  11.183
45579W        W13797  35.092  13.627   0.820
45580W        W13798   9.757   7.365  11.234
45581W        W13799  44.776  26.557  13.440
45582W        W13800  37.390  44.019   2.882
45583W        W13801  27.069   2.947  13.979
45584W        W13802  24.192  42.372   0.225
45585W        W13803  31.907   2.164  11.588
45586W        W13804  33.165  37.939  12.977
45587W        W13805  24.121  14.571   4.641
45588W        W13806   3.011  23.073   4.243
45589W        W13807   9.614  30.666  11.665
45590W        W13808  24.444  43.766   3.728
45591W        W13809  14.329  22.132   1.294
45592W        W13810  38.136  36.069   2.928
45593W        W13811  19.092  41.567   0.133
45594W        W13812  15.866  15.328   1.841
45595W        W13813   1.237   4.926   0.452
45596W        W13814  28.153   2.434   1.772
45597W        W13815  17.290  41.813   2.328
45598W        W13816  39.577  32.658   2.334
45599W        W13817   0.775  37.385  11.280
45600W        W13818  21.425  13.537   2.316
45601W        W13819  32.919  22.420   2.441
45602W        W13820  14.793  23.463  14.519
45603W        W13821   1.356  20.817   1.319
45604W        W13822   1.778  15.995  11.136
45605W        W13823  29.098  22.434   0.014
45606W        W13824  41.830  27.167   1.896
45607W        W13825  32.719  39.466   1.747
45608W        W13826  11.203  14.708   3.838
45609W        W13827  33.814  37.121  10.862
45610W        W13828   2.065   3.647  13.008
45611W        W13829  15.262  11.356  13.535
45612W        W13830  16.036   5.859  10.757
45613W        W13831  11.796   1.739   2.543
45614W        W13832  18.569   8.710  11.173
45615W        W13833  26.709   9.848   1.460
45616W        W13834  39.761   8.170   3.540
45617W        W13835  16.559   4.767   1.824
45618W        W13836  33.653  16.802  13.077
45619W        W13837  31.162   5.368  14.473
45620W        W13838  17.801  13.380  14.420
45621W        W13839   2.362  24.120  12.145
45622W        W13840  39.960  17.231   2.002
45623W        W13841  11.295   0.199   5.016
45624W        W13842  20.279   2.446   0.313
45625W        W13843  44.074  14.175   4.830
45626W        W13844  15.784  17.123  11.449
45627W        W13845  23.025   5.676  12.373
45628W        W13846  25.960  10.862   0.875
45629W        W13847   4.473  26.446  11.639
45630W        W13848  39.854  16.057  14.904
45631W        W13849  41.016   9.668  13.998
45632W        W13850  11.521  25.210  10.795
45633W        W13851   0.040   8.358  11.557
45634W        W13852   5.334  38.314  14.995
45635W        W13853  11.318  34.628   3.697
45636W        W13854   1.947   5.138  12.135
45637W        W13855  39.820  38.472  10.731
45638W        W13856  20.001  21.224   0.290
45639W        W13857   9.421  35.903   4.330
45640W        W13858  14.069   0.906  11.720
45641W        W13859  23.106  39.283  12.927
45642W        W13860   0.445  17.589  14.430
45643W        W13861  26.498  15.232  11.017
45644W        W13862  39.439  15.253   3.137
45645W        W13863  40.028  27.035  14.433
45646W        W13864  18.514   9.786  13.937
45647W        W13865  36.053  12.037  13.535
45648W        W13866  40.360  43.532   1.242
45649W        W13867  18.702   7.696  11.241
45650W        W13868  12.420  31.404  14.568
45651W        W13869  43.966  16.194  13.723
45652W        W13870  12.385  15.830  13.810
45653W        W13871  35.063   9.455  10.592
45654W        W13872  23.596  19.323  13.015
45655W        W13873  19.520  20.228  12.003
45656W        W13874  13.225  28.686  12.601
45657W        W13875  43.269  16.526  13.813
45658W        W13876  33.095  16.837   1.460
45659W        W13877  34.126  31.464  10.654
45660W        W13878  11.937  18.492   1.839
45661W        W13879  11.214  22.071  13.788
45662W        W13880   9.170  35.526  12.839
45663W        W13881   3.262  33.666   1.769
45664W        W13882  37.875  18.979  12.319
45665W        W13883  38.653  31.108   1.461
45666W        W13884   5.211  39.465   2.083
45667W        W13885  12.175  28.183  10.495
45668W        W13886  41.638  31.592   2.343
45669W        W13887  12.122  39.016  12.040
45670W        W13888  28.830   3.942  11.026
45671W        W13889  34.432  22.976   0.326
45672W        W13890  25.762  22.995   4.202
45673W        W13891   1.303  41.941   1.699
45674W        W13892  26.431  10.577   1.718
45675W        W13893   8.467  13.215   2.289
45676W        W13894  26.889  35.938  13.477
45677W        W13895  10.900   0.992   4.141
45678W        W13896  34.050  35.153   0.050
45679W        W13897   9.257  32.831  13.536
45680W        W13898   2.815  15.957  11.234
45681W        W13899  31.118   8.196   4.236
45682W        W13900  22.630  37.828  11.596
45683W        W13901  40.092  14.222  10.460
45684W        W13902  28.214  18.132  10.639
45685W        W13903  41.610   6.640  10.731
45686W        W13904  14.094  33.485  10.923
45687W        W13905  41.018  35.123  12.647
45688W        W13906  36.132  25.139   2.329
45689W        W13907  35.497  41.848   2.261
45690W        W13908  29.445  26.564  12.801
45691W        W13909   7.228  43.888  10.185
45692W        W13910  26.616  32.984   4.380
45693W        W13911  11.210  38.816   4.898
45694W        W13912  22.162  20.513  10.895
45695W        W13913  21.472  32.440   3.554
45696W        W13914  35.426   3.644  13.789
45697W        W13915  18.901  18.566  14.387
45698W        W13916   8.265   9.704   0.004
45699W        W13917  33.554  22.680   4.084
45700W        W13918  11.235  12.409  14.847
45701W        W13919  26.235  28.912  11.586
45702W        W13920  30.059  36.635  12.658
45703W        W13921  17.172  25.561  14.422
45704W        W13922  36.533  24.943  12.334
45705W        W13923  34.916  23.355   2.025
45706W        W13924  12.738   6.795   1.727
45707W        W13925  14.827   7.708   3.326
45708W        W13926  28.667   1.898   0.961
45709W        W13927  41.467  38.889   4.545
45710W        W13928   8.907  41.369  10.718
45711W        W13929  27.088  17.651  14.228
45712W        W13930  43.784  25.141  11.947
45713W        W13931  14.633  33.580  11.630
45714W        W13932  39.797  14.089   1.306
45715W        W13933   1.405  16.169   1.980
45716W        W13934  11.337  32.213  12.501
45717W        W13935  14.010  19.679  14.247
45718W        W13936   3.923  21.436   1.648
45719W        W13937  34.922  24.514   2.321
45720W        W13938  12.555   3.038   4.745
45721W        W13939  24.067  36.489   1.900
45722W        W13940  40.908  42.737   0.317
45723W        W13941  13.813  42.011  11.118
45724W        W13942  22.406  42.063  12.452
45725W        W13943  20.985   1.681   2.842
45726W        W13944   7.873  35.810   0.217
45727W        W13945  20.785  27.471  11.222
45728W        W13946  27.966  16.079   4.069
45729W        W13947  39.351   7.771   2.381
45730W        W13948  43.864  15.675  14.772
45731W        W13949  19.610  29.238   3.234
45732W        W13950   3.704  35.977  12.881
45733W        W13951  25.107  38.913  12.471
45734W        W13952  24.765  23.590   3.557
45735W        W13953   6.102  44.987   5.016
45736W        W13954  31.434  29.937  13.323
45737W        W13955  21.149  17.784   0.307
45738W        W13956   5.608  21.021   2.364
45739W        W13957  20.322  15.080   5.526
45740W        W13958   4.366   5.753  13.634
45741W        W13959  35.121  31.185   1.778
45742W        W13960  26.041   2.242  14.346
45743W        W13961  44.968   7.376  12.939
45744W        W13962  29.693  18.033  13.871
45745W        W13963   9.189  28.705   3.581
45746W        W13964   4.148  11.189   2.779
45747W        W13965  23.438  21.725   3.630
45748W        W13966  17.768  28.949   1.647
45749W        W13967  15.784  20.556  13.048
45750W        W13968   8.866   8.824   3.671
45751W        W13969   1.003  33.525   2.564
45752W        W13970  18.624  34.750   2.594
45753W        W13971  33.875  10.904   2.916
45754W        W13972  26.628  35.564   3.794
45755W        W13973  38.004  22.156   2.737
45756W        W13974  35.424   9.312   3.301
45757W        W13975   3.499   7.884   2.945
45758W        W13976   1.841   2.239  10.728
45759W        W13977   9.462  31.819   2.413
45760W        W13978   8.727   4.477   2.727
45761W        W13979  13.173  13.603   3.823
45762W        W13980  15.291   4.732  11.067
45763W        W13981  37.556   6.782  12.474
45764W        W13982  13.807   6.196   3.189
45765W        W13983  42.131  43.479  12.388
45766W        W13984  13.214  20.056  14.871
45767W        W13985   6.472  22.602  12.025
45768W        W13986  17.177  19.225  12.802
45769W        W13987  10.875  38.388  12.424
45770W        W13988   9.245  24.642  12.061
45771W        W13989  30.006  33.845  11.563
45772W        W13990  41.924  25.770  11.459
45773W        W13991  24.804  39.276  10.949
45774W        W13992  36.887  10.653  11.932
45775W        W13993  16.935  35.664   1.842
45776W        W13994  10.236  35.206   1.781
45777W        W13995   1.368  30.781   2.468
45778W        W13996   0.002  21.766  14.042
45779W        W13997  19.341  23.530  11.094
45780W        W13998  20.115  21.333  12.923
45781W        W13999  17.982  34.709  12.646
45782W        W14000   5.826  31.646   0.741
45783W        W14001   7.979  10.803   4.120
45784W        W14002   7.198  17.167  11.385
45785W        W14003  14.159  34.562  12.108
45786W        W14004  38.846   0.212   3.145
45787W        W14005  34.546   2.462  11.546
45788W        W14006   3.067   4.701  14.447
45789W        W14007  44.459  44.413  11.171
45790W        W14008  22.839  11.295   3.257
45791W        W14009  21.976  14.652  12.170
45792W        W14010   3.817  13.252  12.107
45793W        W14011  20.276  38.002   4.894
45794W        W14012  34.040  33.452  12.072
45795W        W14013  27.280  26.922   2.315
45796W        W14014  20.816   3.915   0.024
45797W        W14015  35.976  34.985  11.501
45798W        W14016  26.034  14.712   0.546
45799W        W14017   1.514   3.204   1.819
45800W        W14018   2.390   3.791   0.877
45801W        W14019  40.458  44.535   4.465
45802W        W14020  22.398   3.541  11.570
45803W        W14021  25.027  26.588  14.267
45804W        W14022  38.999   3.278   0.268
45805W        W14023  38.186  36.817  13.810
45806W        W14024  23.392   0.271   2.383
45807W        W14025   4.138  25.084  10.342
45808W        W14026  21.997   1.852  13.313
45809W        W14027   7.089  12.645   3.309
45810W        W14028  39.803  25.047   0.945
45811W        W14029  11.663   8.049  13.868
45812W        W14030  18.574  23.289  12.344
45813W        W14031  24.003  35.945   3.596
45814W        W14032   2.271  39.096   1.828
45815W        W14033  42.039  31.655  11.944
45816W        W14034  13.488  27.774  10.473
45817W        W14035  12.384  30.377   1.888
45818W        W14036  40.112  15.662  13.382
45819W        W14037  15.194  28.444  12.536
45820W        W14038  18.640  21.608   0.941
45821W        W14039  30.614  29.932  11.315
45822W        W14040  17.050  28.114   3.718
45823W        W14041   2.340  20.061  11.604
45824W        W14042  37.480   6.373  12.187
45825W        W14043  20.023  23.847   1.639
45826W        W14044   2.771  40.641  14.684
45827W        W14045  11.100   0.919   0.260
45828W        W14046  20.570  31.443   2.853
45829W        W14047  32.793  25.970  10.891
45830W        W14048  23.705  10.369  14.536
45831W        W14049  39.281   5.356   2.919
45832W        W14050  40.763  29.044   0.815
45833W        W14051  18.219  16.317  13.004
45834W        W14052  30.744  11.406  13.376
45835W        W14053  34.363  24.621  10.724
45836W        W14054   1.926  39.520   2.846
45837W        W14055  15.162  17.985  12.049
45838W        W14056  42.819  12.455   4.118
45839W        W14057  36.432  20.885   4.598
45840W        W14058  17.823  21.631  11.377
45841W        W14059  12.456  37.364  12.484
45842W        W14060  37.296  23.184  11.966
45843W        W14061  36.388  39.067  14.968
45844W        W14062   0.872  34.794   0.409
45845W        W14063  22.023  15.685   0.053
45846W        W14064  33.832   5.139  11.831
45847W        W14065  13.308  28.947  12.153
45848W        W14066  25.917  21.745  12.472
45849W        W14067  22.023  21.167  11.881
45850W        W14068  16.773  37.735  11.012
45851W        W14069  43.558  36.218   0.213
45852W        W14070  18.005  34.877  12.165
45853W        W14071   0.456  13.911   0.184
45854W        W14072   5.622  14.062  14.527
45855W        W14073  33.478  37.704  11.981
45856W        W14074  16.049  38.985  14.946
45857W        W14075   3.002  29.589   2.837
45858W        W14076  39.377   6.774   0.808
45859W        W14077  18.299  40.275   1.957
45860W        W14078  43.790   7.551  14.160
45861W        W14079  35.066   8.168  11.547
45862W        W14080  23.423   9.229   4.592
45863W        W14081  26.809  40.752   4.617
45864W        W14082  11.582  35.277   0.396
45865W        W14083   0.818  35.923  12.900
45866W        W14084  23.583  41.855  14.951
45867W        W14085  24.706  12.320  14.794
45868W        W14086  28.723  17.438   0.260
45869W        W14087  25.250  15.807   1.228
45870W        W14088   5.113  30.519   4.394
45871W        W14089  40.893  28.265  14.435
45872W        W14090   0.684  26.017  10.675
45873W        W14091  25.147  18.113  14.859
45874W        W14092   5.900  14.175  14.036
45875W        W14093  29.646  18.346   3.568
45876W        W14094  39.541  34.022   3.761
45877W        W14095   3.244  14.674  12.854
45878W        W14096   4.774   6.951   3.196
45879W        W14097  16.306  43.051  11.670
45880W        W14098  14.213  22.767  13.108
45881W        W14099  31.412   7.191   2.386
45882W        W14100   1.010  39.603   2.815
45883W        W14101  17.478  21.683  10.423
45884W        W14102  27.366  37.421   5.024
45885W        W14103  40.033   8.388   3.184
45886W        W14104   0.763  21.621   4.534
45887W        W14105  32.970  13.896   4.531
45888W        W14106   5.506   1.017   0.346
45889W        W14107  40.851  21.761  12.036
45890W        W14108  27.315  39.449  12.858
45891W        W14109  11.885  24.035   3.460
45892W        W14110  26.986  35.786  11.699
45893W        W14111  19.013  37.003   1.876
45894W        W14112  38.993  37.110  11.400
45895W        W14113  30.799  32.602   0.784
45896W        W14114  40.668  17.811   2.592
45897W        W14115  40.994  28.518  14.886
45898W        W14116  30.883  35.831   2.779
45899W        W14117  40.820  23.770   2.865
45900W        W14118   1.404   2.642  11.559
45901W        W14119  27.528  25.741  12.121
45902W        W14120  23.602  14.870   2.223
45903W        W14121  39.297  18.326  14.869
45904W        W14122  37.406   5.941   2.158
45905W        W14123  33.784  16.305   3.750
45906W        W14124  26.637  12.607  13.070
45907W        W14125  23.021  35.838   2.388
45908W        W14126   0.676  24.803  14.292
45909W        W14127   3.295  11.692   1.128
45910W        W14128  41.012  24.116   1.419
45911W        W14129  32.417  33.624  11.218
45912W        W14130   5.771  11.077   1.526
45913W        W14131  13.931  36.319   2.680
45914W        W14132  30.587  22.221   0.234
45915W        W14133  16.005  22.153   0.794
45916W        W14134  14.662  31.523   3.369
45917W        W14135  19.849  13.230   1.750
45918W        W14136  32.837   3.246   4.886
45919W        W14137  35.082  40.951  11.973
45920W        W14138  15.790  19.599  14.833
45921W        W14139  33.558  33.675   2.745
45922W        W14140  38.413  44.878  10.462
45923W        W14141   0.499  43.490  11.911
45924W        W14142  32.082   0.221  10.773
45925W        W14143  11.586  44.126   5.513
45926W        W14144   3.387  25.460   3.121
45927W        W14145  31.879  23.530  11.069
45928W        W14146   8.308  41.498  13.778
45929W        W14147   7.899  17.940  12.404
45930W        W14148  31.305  28.287  10.005
45931W        W14149  33.335  10.374  13.132
45932W        W14150  18.663  16.375  10.122
45933W        W14151  11.674   2.258  14.423
45934W        W14152  41.280  31.883  14.686
45935W        W14153  16.743   9.219   0.008
45936W        W14154  44.867   3.509  11.379
45937W        W14155   9.106  17.205  12.029
45938W        W14156  17.470  42.455  13.111
45939W        W14157  26.067   6.202  13.361
45940W        W14158  13.917  36.503  13.156
45941W        W14159   2.478  19.119   1.264
45942W        W14160  17.627  31.812   0.173
45943W        W14161   7.289  13.311   1.310
45944W        W14162  39.337   0.179   1.424
45945W        W14163  33.521  29.427  13.595
45946W        W14164  14.800  44.588  12.939
45947W        W14165  30.433  41.963  14.531
45948W        W14166  25.588  38.004  14.459
45949W        W14167  42.565   1.724  10.716
45950W        W14168  44.263  37.608  11.212
45951W        W14169  10.354  39.398  11.935
45952W        W14170  31.976  21.169  12.973
45953W        W14171  44.925  36.787  12.526
45954W        W14172   7.870  14.313  12.572
45955W        W14173  17.361  42.746  13.533
45956W        W14174  19.617   3.493  14.089
45957W        W14175   2.799  20.531   2.317
45958W        W14176  11.435  33.074  11.099
45959W        W14177  22.583  38.525   3.387
45960W        W14178   9.873  10.161   0.309
45961W        W14179   8.091  25.541  10.643
45962W        W14180  33.202  20.043   2.345
45963W        W14181  35.880  12.842   4.248
45964W        W14182  26.015  43.379   4.258
45965W        W14183   3.517   4.853  14.285
45966W        W14184   7.743   5.262   1.464
45967W        W14185  43.341  44.965  11.954
45968W        W14186  11.243  19.794  12.525
45969W        W14187  30.706   6.845   0.734
45970W        W14188  18.178   8.164  12.609
45971W        W14189  16.203   2.468  14.887
45972W        W14190  34.365   8.419   2.718
45973W        W14191  10.796  38.915  13.134
45974W        W14192  27.006  13.363   3.488
45975W        W14193  13.918  44.891   1.440
45976W        W14194  22.317  44.318   3.271
45977W        W14195  27.926  19.790   1.456
45978W        W14196  14.596  37.465   2.864
45979W        W14197  21.196  36.962  14.803
45980W        W14198  24.216  14.220   5.047
45981W        W14199   1.500  35.852  14.356
45982W        W14200   7.914  26.771  11.615
45983W        W14201  15.835  27.886  12.825
45984W        W14202   9.278  32.915  10.705
45985W        W14203  31.353   3.340  13.383
45986W        W14204   5.186  18.691  14.144
45987W        W14205  14.500  19.781  10.323
45988W        W14206  39.246  34.557  10.890
45989W        W14207  27.146  32.582  12.061
45990W        W14208   5.301  31.397  10.713
45991W        W14209  21.719   5.789  13.052
45992W        W14210  22.575   9.805   1.805
45993W        W14211  27.197  30.072   1.498
45994W        W14212   5.261  32.326   3.392
45995W        W14213   9.763  12.329   4.482
45996W        W14214  34.220  24.846  11.683
45997W        W14215  26.363  15.236   4.209
45998W        W14216   9.404  27.166  12.018
45999W        W14217  35.112  16.184   2.620
46000W        W14218  21.097   1.260  12.426
46001W        W14219  27.899  24.597   1.508
46002W        W14220  31.963  11.314  12.198
46003W        W14221  41.088  40.933   1.056
46004W        W14222   0.864  42.394   2.641
46005W        W14223  22.506  38.678   1.509
46006W        W14224  28.462  14.658  13.291
46007W        W14225  41.911  13.242  14.768
46008W        W14226  41.832  12.342  12.434
46009W        W14227  21.296  40.498  13.069
46010W        W14228  25.283  37.898  12.096
46011W        W14229   3.447  37.534   1.926
46012W        W14230  25.134  39.517  11.314
46013W        W14231  12.294  15.368  12.133
46014W        W14232   0.400   2.927   2.640
46015W        W14233  33.192  28.953   1.407
46016W        W14234  17.335  43.211   1.139
46017W        W14235  36.341  22.173  13.577
46018W        W14236  36.397  13.242  10.687
46019W        W14237   5.152  33.936   0.484
46020W        W14238  30.960  26.117   3.536
46021W        W14239  10.754  42.393  11.976
46022W        W14240   3.718   8.781  13.880
46023W        W14241  21.174   0.266   2.122
46024W        W14242   3.534   1.202   2.668
46025W        W14243  21.707  10.216   1.451
46026W        W14244  20.142  15.293   2.324
46027W        W14245   3.288   3.011   4.740
46028W        W14246  17.128  21.418   4.633
46029W        W14247  28.673  23.770  12.551
46030W        W14248  26.120  27.245   1.296
46031W        W14249  24.994   3.268   3.728
46032W        W14250   1.952  26.431  14.416
46033W        W14251  42.099  42.613  12.452
46034W        W14252  31.042  31.509  14.032
46035W        W14253  18.354  26.188  11.037
46036W        W14254  12.104  38.509   2.406
46037W        W14255  26.697  32.098   2.484
46038W        W14256   9.566  39.370   4.419
46039W        W14257   6.370  12.241   2.263
46040W        W14258  41.850   6.920   3.842
46041W        W14259   3.910  39.398   1.469
46042W        W14260  24.234  17.618  13.354
46043W        W14261  16.068  20.534  12.578
46044W        W14262  23.284   4.727   4.106
46045W        W14263  20.774   4.443  13.982
46046W        W14264  16.709  35.896   0.757
46047W        W14265  43.347  27.188  13.436
46048W        W14266  18.855  17.101  12.119
46049W        W14267   3.850  37.376   3.565
46050W        W14268  35.654  23.077   3.157
46051W        W14269  22.810  26.621   2.530
46052W        W14270   6.743  35.381   1.010
46053W        W14271  24.151  11.832  12.445
46054W        W14272  30.158  25.147   0.458
46055W        W14273  34.573  26.532  13.810
46056W        W14274  21.202  39.142   1.299
46057W        W14275  27.119  38.356   1.798
46058W        W14276  33.634   3.540   0.277
46059W        W14277   8.583  15.066  11.234
46060W        W14278  28.285  13.204   5.030
46061W        W14279   0.341  21.846   2.281
46062W        W14280   7.181  39.367   2.452
46063W        W14281  14.062  11.158  13.429
46064W        W14282   3.729   4.985  13.843
46065W        W14283  39.965  30.629   1.845
46066W        W14284  17.604  35.588  12.480
46067W        W14285  27.771  30.548  11.925
46068W        W14286  14.435  15.097  13.316
46069W        W14287  11.602  16.201   2.227
46070W        W14288  41.265  24.145  13.614
46071W        W14289  32.565   6.343   2.963
46072W        W14290  13.265  13.782   2.400
46073W        W14291  13.570  40.987  14.780
46074W        W14292  29.470  39.370   0.203
46075W        W14293  13.798  38.407  10.987
46076W        W14294  30.255  14.166   0.457
46077W        W14295  35.590  28.063   2.668
46078W        W14296  17.321  33.470   4.560
46079W        W14297  23.882  28.514  14.523
46080W        W14298  19.795  11.188   4.760
46081W        W14299  15.563  34.896   1.793
46082W        W14300  39.377   2.951   4.113
46083W        W14301   5.831  20.763  11.107
46084W        W14302   3.666  43.909   2.659
46085W        W14303  34.068  29.002  12.515
46086W        W14304   7.736   9.199   2.377
46087W        W14305  25.843   7.006   5.013
46088W        W14306  32.949   3.254  14.861
46089W        W14307  44.607  16.199   2.541
46090W        W14308  28.083  10.442   3.763
46091W        W14309  21.554  21.526  14.494
46092W        W14310  23.553  23.690   4.217
46093W        W14311  16.633  39.236  11.049
46094W        W14312  40.537  21.078   4.791
46095W        W14313  13.282  30.068   3.121
46096W        W14314  42.538  14.800  12.518
46097W        W14315   4.211   0.241   1.349
46098W        W14316  22.560   2.051  10.729
46099W        W14317  30.996  36.712   2.294
46100W        W14318  34.474   1.810  13.419
46101W        W14319  21.271  13.159   3.157
46102W        W14320   0.887  30.979  12.110
46103W        W14321  42.219  11.514   2.708
46104W        W14322  29.026  33.954   0.898
46105W        W14323  36.936  31.412   0.976
46106W        W14324  27.421  40.231  11.558
46107W        W14325  21.223  37.794  11.457
46108W        W14326  19.746   8.668  12.545
46109W        W14327  23.560   2.353  12.167
46110W        W14328  22.469  15.274   4.338
46111W        W14329  20.333  28.489   3.778
46112W        W14330  34.935  11.085  12.685
46113W        W14331  43.293  38.494  11.220
46114W        W14332  21.267   9.718  11.114
46115W        W14333  31.391   1.526  11.148
46116W        W14334   2.152  30.862   1.371
46117W        W14335  33.075  18.050   2.700
46118W        W14336  22.939  32.868   3.103
46119W        W14337   2.198  37.076  11.101
46120W        W14338  21.675  32.763   4.360
46121W        W14339   3.428  43.655  14.468
46122W        W14340  35.858   6.932   2.698
46123W        W14341   5.417  17.859  11.881
46124W        W14342  21.664  22.590  12.501
46125W        W14343  42.432  44.223  12.847
46126W        W14344  31.151  35.333  12.523
46127W        W14345  40.785  39.308   3.942
46128W        W14346  25.087  37.777  14.363
46129W        W14347   8.013  44.996   2.247
46130W        W14348  13.851   3.000   4.016
46131W        W14349  10.651  24.021  12.341
46132W        W14350  15.221  33.862  13.467
46133W        W14351  17.216   6.478   0.921
46134W        W14352  16.552  17.667   0.277
46135W        W14353  19.504   3.324  12.055
46136W        W14354  14.120  35.906  14.000
46137W        W14355   3.938  18.010  12.773
46138W        W14356  38.532   8.896   4.628
46139W        W14357   1.633  12.150  10.992
46140W        W14358  11.870   4.229   1.286
46141W        W14359   2.639  33.566  12.224
46142W        W14360  14.202   2.609  14.205
46143W        W14361  18.015   9.828  13.786
46144W        W14362  36.911   9.774   0.394
46145W        W14363  23.527   8.160  12.295
46146W        W14364  21.516  10.027  13.985
46147W        W14365  35.394  27.507  14.864
46148W        W14366  41.887  32.955   2.709
46149W        W14367  19.739  24.584  11.896
46150W        W14368  38.982   1.976  11.375
46151W        W14369   5.372  33.686   3.779
46152W        W14370   7.521  25.155  12.542
46153W        W14371  41.497  41.855  11.484
46154W        W14372  31.292  29.141   0.325
46155W        W14373  40.486  33.657  14.004
46156W        W14374  31.335   1.849  10.766
46157W        W14375  41.421  25.613  14.934
46158W        W14376  43.834  33.102   1.185
46159W        W14377  19.825  23.665  11.178
46160W        W14378  11.667  43.855   3.073
46161W        W14379  41.381  39.029  10.789
46162W        W14380  10.818  10.867  12.373
46163W        W14381  15.787  19.378  10.406
46164W        W14382  30.908  14.198   4.881
46165W        W14383  39.780  16.319  14.457
46166W        W14384   7.939  13.925  11.627
46167W        W14385  26.079  10.690  10.640
46168W        W14386  41.468  14.552   2.378
46169W        W14387   0.347   7.668  10.578
46170W        W14388  10.366  21.023  13.709
46171W        W14389  33.207   8.129   0.945
46172W        W14390  11.081  24.272   3.627
46173W        W14391  41.738  23.101   0.334
46174W        W14392  31.682  18.245  10.346
46175W        W14393  36.434  15.553   4.580
46176W        W14394  35.940  43.351   3.249
46177W        W14395  15.052  27.109   3.465
46178W        W14396  36.337  36.897   1.703
46179W        W14397  29.442   0.037  13.282
46180W        W14398  29.898   5.106  12.916
46181W        W14399  23.427  36.102   1.129
46182W        W14400  36.367   3.914  12.399
46183W        W14401   5.422  37.086   4.532
46184W        W14402   1.941  22.191  14.933
46185W        W14403  27.349   7.333  13.026
46186W        W14404  27.331  44.088  11.157
46187W        W14405  17.485  18.686  11.107
46188W        W14406  36.005  26.835  12.202
46189W        W14407  23.199  14.408  12.650
46190W        W14408  39.889  41.748  11.076
46191W        W14409  30.493  22.190   1.770
46192W        W14410  39.744  39.074  13.120
46193W        W14411  36.560  10.427  10.994
46194W        W14412   0.726  14.322  13.455
46195W        W14413  37.747  34.390  10.892
46196W        W14414  12.182   9.739   1.331
46197W        W14415  35.620  38.295  12.010
46198W        W14416  25.946  17.328  11.592
46199W        W14417   1.375  19.745  14.890
46200W        W14418   0.890  10.953   2.714
46201W        W14419   0.736   0.268  10.221
46202W        W14420  19.586  19.204  12.610
46203W        W14421   9.674  32.622  13.774
46204W        W14422  20.706   5.922   4.683
46205W        W14423  11.439  32.564   4.628
46206W        W14424  20.794  14.809  13.007
46207W        W14425  27.410  30.878  12.111
46208W        W14426  16.735  37.961  11.473
46209W        W14427  25.163  40.815   3.790
46210W        W14428  35.984  20.601  13.994
46211W        W14429  38.032  12.350   3.188
46212W        W14430  35.117  29.139  10.743
46213W        W14431  44.062  22.097  13.932
46214W        W14432  24.548  28.684  10.976
46215W        W14433  21.162  33.538   0.553
46216W        W14434  26.625   9.269  10.567
46217W        W14435  38.419  39.899  14.825
46218W        W14436  15.701   7.372   1.698
46219W        W14437  21.500  33.093   0.515
46220W        W14438  15.267  19.586   2.309
46221W        W14439  18.594  44.209   4.105
46222W        W14440  18.722  18.079   3.971
46223W        W14441  26.099  29.311   1.922
46224W        W14442  44.179   3.110   4.155
46225W        W14443  41.892  39.767  10.827
46226W        W14444  11.378   4.236   4.868
46227W        W14445   7.776  26.519  12.798
46228W        W14446  25.062  35.146   0.040
46229W        W14447  27.614   5.459   3.211
46230W        W14448  10.683  21.191  12.941
46231W        W14449  31.260  31.183   4.344
46232W        W14450   8.788   3.910   3.831
46233W        W14451   8.131  11.762   1.295
46234W        W14452   9.573  30.591   4.834
46235W        W14453  43.762  19.170  10.944
46236W        W14454  39.859   5.051  12.806
46237W        W14455  43.905  33.905   2.220
46238W        W14456   0.058  29.721   2.823
46239W        W14457  20.733  13.508   1.721
46240W        W14458   5.165  25.678   4.267
46241W        W14459  16.038  17.334   4.082
46242W        W14460  32.680  23.084  12.129
46243W        W14461  14.323   7.177  12.956
46244W        W14462  31.339   7.265  14.803
46245W        W14463  44.730  42.954  11.509
46246W        W14464  19.164   3.801   2.378
46247W        W14465   2.932  43.956   3.715
46248W        W14466  43.098  23.082  12.983
46249W        W14467  25.488  21.147  13.206
46250W        W14468   1.159  15.601  11.896
46251W        W14469   0.810  43.559   4.027
46252W        W14470  24.455  20.541  13.907
46253W        W14471  35.877   3.340  10.122
46254W        W14472   6.795  39.757   1.317
46255W        W14473   8.250  17.073  10.773
46256W        W14474  18.900  10.190  13.838
46257W        W14475  41.368   2.901   5.287
46258W        W14476  15.159   3.769  10.877
46259W        W14477   8.229  39.286   3.582
46260W        W14478  12.108   7.448  11.167
46261W        W14479  13.172  30.212  10.804
46262W        W14480  13.416  34.728   2.143
46263W        W14481  36.913  36.615   4.339
46264W        W14482  16.379   0.975  13.894
46265W        W14483   3.633  31.678   2.219
46266W        W14484  35.083  16.521  10.804
46267W        W14485  12.228  42.280   3.255
46268W        W14486   7.650  41.797  11.986
46269W        W14487  41.000  17.130  11.119
46270W        W14488  37.198  27.486  12.813
46271W        W14489  43.493  44.535  11.126
46272W        W14490   8.710  28.540  10.421
46273W        W14491  19.997  19.448  13.487
46274W        W14492  33.643   7.832  10.530
46275W        W14493  26.516   0.892   4.221
46276W        W14494  40.357  43.106   3.568
46277W        W14495  19.068  15.103  12.962
46278W        W14496  27.840  43.723  12.046
46279W        W14497  23.834  28.898  13.334
46280W        W14498  14.782  42.751  10.466
46281W        W14499  10.613  38.764  12.153
46282W        W14500  36.845   9.349   3.263
46283W        W14501  36.029  38.637  12.194
46284W        W14502   8.179  37.532  14.813
46285W        W14503  13.760   1.959   0.753
46286W        W14504  21.569  16.295  13.012
46287W        W14505   4.374   8.882   2.414
46288W        W14506  21.408  43.757   1.892
46289W        W14507  38.521   3.913  12.403
46290W        W14508  19.863  27.665  12.973
46291W        W14509  43.269   4.176  11.169
46292W        W14510   2.646  23.647  14.462
46293W        W14511  40.345  20.938   1.201
46294W        W14512   7.671  13.199  11.084
46295W        W14513  26.660   3.300   4.244
46296W        W14514  27.499  13.244  14.837
46297W        W14515  22.431   2.782   3.784
46298W        W14516  33.434   9.807  11.326
46299W        W14517  44.122  31.656   0.465
46300W        W14518  30.586  12.731   2.323
46301W        W14519  14.636  38.322   3.249
46302W        W14520   1.279  10.417   2.342
46303W        W14521   3.510  20.049  14.156
46304W        W14522   9.049   7.183   4.265
46305W        W14523  14.376  14.640  12.606
46306W        W14524  33.398  42.777   2.165
46307W        W14525  31.447  12.361   2.435
46308W        W14526   2.622  26.544   0.382
46309W        W14527  24.547  41.081  13.084
46310W        W14528  40.466   7.959  10.886
46311W        W14529  30.360  42.511   4.508
46312W        W14530  30.702   9.402  12.962
46313W        W14531  21.150  14.687  13.376
46314W        W14532  10.668  15.833  11.883
46315W        W14533   6.522  37.235   0.945
46316W        W14534  35.762  22.588  14.804
46317W        W14535   5.388   6.815   0.513
46318W        W14536   4.862  31.408   1.141
46319W        W14537  30.306  33.888   3.270
46320W        W14538  35.325  37.429  13.875
46321W        W14539  21.684  16.187   4.503
46322W        W14540   8.436   9.376   4.534
46323W        W14541  34.003   2.622  11.530
46324W        W14542  43.846  27.123   2.127
46325W        W14543  42.073   0.236   4.090
46326W        W14544  13.708  40.614  11.619
46327W        W14545   5.693  39.974  12.428
46328W        W14546  43.825   7.309  13.431
46329W        W14547   8.917   4.745  12.997
46330W        W14548  31.012   4.505   1.902
46331W        W14549   6.415   6.330  13.571
46332W        W14550  19.004   7.430   4.131
46333W        W14551   1.447  24.924  13.013
46334W        W14552  23.760  21.963  12.420
46335W        W14553  43.729  38.414  11.545
46336W        W14554  11.714   7.673  13.474
46337W        W14555  24.135  35.154   1.314
46338W        W14556  35.586  38.348  10.626
46339W        W14557   7.543  27.175  10.923
46340W        W14558  16.159  40.160  12.825
46341W        W14559  42.482  10.689   2.433
46342W        W14560  10.871  13.834   3.463
46343W        W14561  27.565   0.508  11.984
46344W        W14562  24.679   8.101  11.030
46345W        W14563  36.719   8.908   1.862
46346W        W14564  37.872   3.793   2.737
46347W        W14565  24.167  41.870  13.757
46348W        W14566  44.729  42.731   2.278
46349W        W14567  42.040  25.197  10.581
46350W        W14568  25.399  31.888   0.449
46351W        W14569  44.401  37.026  12.024
46352W        W14570  16.194  14.278  11.093
46353W        W14571  44.268  15.839   1.063
46354W        W14572   6.508  25.224  12.566
46355W        W14573  14.066  29.979   0.288
46356W        W14574  27.129  43.062  11.518
46357W        W14575  29.863  22.293  10.455
46358W        W14576  41.079  28.864  11.056
46359W        W14577  17.032  11.059  11.132
46360W        W14578  15.444  28.717   2.152
46361W        W14579  28.424  34.886   3.742
46362W        W14580  12.123  44.451  10.133
46363W        W14581  39.051  33.936  10.785
46364W        W14582   8.178   6.974  13.507
46365W        W14583  32.389  39.032  11.603
46366W        W14584  34.182  31.519  13.085
46367W        W14585  27.103  43.740   4.130
46368W        W14586  18.962  13.618   0.347
46369W        W14587  15.775  15.554   2.842
46370W        W14588  40.508  22.602  14.404
46371W        W14589  38.608   4.991   0.149
46372W        W14590   6.798  23.249   0.863
46373W        W14591  43.049  29.726   4.548
46374W        W14592  39.020  40.819  12.620
46375W        W14593   2.139  35.484  13.420
46376W        W14594  42.900  39.397  13.641
46377W        W14595   1.223   4.977   1.314
46378W        W14596  21.246  28.481   1.240
46379W        W14597  43.318  27.700  13.413
46380W        W14598  24.496  39.974   1.808
46381W        W14599  27.935  21.236   1.432
46382W        W14600  12.099  44.181   3.063
46383W        W14601  34.934  29.222  12.962
46384W        W14602  40.773   5.237   0.991
46385W        W14603  35.887  19.237  12.759
46386W        W14604   3.372   5.576  11.612
46387W        W14605   4.458  11.345   2.350
46388W        W14606  17.408   0.259   1.932
46389W        W14607   8.101   5.652   4.208
46390W        W14608   9.825  26.931  11.131
46391W        W14609  31.633  38.932   3.266
46392W        W14610   6.124   2.015   1.311
46393W        W14611  17.083  27.451  12.574
46394W        W14612  29.686  35.965  10.900
46395W        W14613  28.546   3.216  11.594
46396W        W14614  31.950  35.049  11.990
46397W        W14615  16.017   3.386  13.795
46398W        W14616   1.523  10.718  14.239
46399W        W14617  19.688  27.534   4.608
46400W        W14618   1.909  27.599   2.914
46401W        W14619  15.181  13.710   0.282
46402W        W14620   7.452  36.145   1.876
46403W        W14621  43.930   6.759  13.907
46404W        W14622  11.298  28.797  11.527
46405W        W14623  24.723  29.363   0.435
46406W        W14624  25.500  36.895  11.887
46407W        W14625  17.149  17.272   3.255
46408W        W14626  44.599  31.028  12.476
46409W        W14627  38.845  10.917   4.100
46410W        W14628   2.288  16.531  11.849
46411W        W14629   6.289   7.203  12.509
46412W        W14630  25.600  35.821  14.956
46413W        W14631  37.297  27.235  13.387
46414W        W14632   0.415  43.242   4.165
46415W        W14633  33.088   3.013   2.410
46416W        W14634  28.457  19.293  12.806
46417W        W14635   8.616   0.439  10.578
46418W        W14636  17.577  26.720   4.525
46419W        W14637  44.686  41.543   4.103
46420W        W14638  44.495  13.856  14.025
46421W        W14639  32.521   1.659   2.905
46422W        W14640  37.085  29.572   3.098
46423W        W14641   7.811  35.308   2.961
46424W        W14642  20.763  31.467  14.339
46425W        W14643  26.496   4.339  14.257
46426W        W14644  10.569  34.477  10.531
46427W        W14645  28.626  33.618   0.955
46428W        W14646   1.506  37.537  10.598
46429W        W14647  30.516  22.415   3.484
46430W        W14648  23.652   6.322  14.634
46431W        W14649  16.346  13.766   2.736
46432W        W14650  29.163  30.120  11.549
46433W        W14651   0.583   4.955  11.973
46434W        W14652   7.925  16.100  14.859
46435W        W14653  30.666   2.502   4.566
46436W        W14654  35.549   5.393  13.383
46437W        W14655  33.435  25.963   1.314
46438W        W14656   9.397  18.323   1.449
46439W        W14657  13.134  27.947  12.138
46440W        W14658  15.036   1.317  13.410
46441W        W14659  38.024  21.194  13.505
46442W        W14660   4.134  12.829  14.405
46443W        W14661  20.479  24.567  14.048
46444W        W14662  20.612  33.060   0.921
46445W        W14663  41.840  20.665  12.358
46446W        W14664  19.580  10.204   4.548
46447W        W14665  36.794   3.413  10.346
46448W        W14666  30.177  27.644  11.958
46449W        W14667   5.141  27.164  11.913
46450W        W14668   4.191   7.240   1.390
46451W        W14669  29.137  25.031  13.401
46452W        W14670  37.962  35.967  11.741
46453W        W14671   2.179  22.355  13.994
46454W        W14672  44.480  22.734  13.947
46455W        W14673  28.095  42.406   2.382
46456W        W14674   3.380  44.367  10.732
46457W        W14675  14.844  24.604   0.884
46458W        W14676  36.292  37.501  12.905
46459W        W14677  20.135  44.932  14.205
46460W        W14678  15.066  37.903  10.648
46461W        W14679   3.220  41.674   2.311
46462W        W14680  25.550  29.544  11.681
46463W        W14681  33.386  18.064   4.555
46464W        W14682   4.399  21.772   1.193
46465W        W14683  36.191  25.903   1.906
46466W        W14684  42.312   8.969  13.234
46467W        W14685   2.762  37.795  10.866
46468W        W14686  42.569  27.770   2.161
46469W        W14687   6.376  23.649   3.757
46470W        W14688  24.041  33.623   4.687
46471W        W14689   7.869  10.649  10.722
46472W        W14690   8.324  21.068  14.222
46473W        W14691  15.282  34.468   1.997
46474W        W14692  39.110   2.816  14.414
46475W        W14693  35.279  12.786   4.564
46476W        W14694   4.595  26.613  10.771
46477W        W14695  37.023  19.590   0.580
46478W        W14696  34.034  43.463   4.407
46479W        W14697   9.939   9.077  10.667
46480W        W14698  27.726  35.383   2.175
46481W        W14699  25.535  39.556   4.719
46482W        W14700  21.482  38.350   2.255
46483W        W14701  25.500  29.130   3.634
46484W        W14702   4.714   0.603  11.197
46485W        W14703  41.952  39.321  11.609
46486W        W14704  34.833  28.832  14.862
46487W        W14705  36.961  37.791   3.679
46488W        W14706  29.912  22.672  11.971
46489W        W14707  10.208  33.463   2.884
46490W        W14708   1.351  23.584   1.852
46491W        W14709  17.394  26.063  11.847
46492W        W14710  36.566  39.090  10.982
46493W        W14711  37.584   4.578   3.599
46494W        W14712  13.087  21.857   1.911
46495W        W14713  26.657  34.525   4.921
46496W        W14714  29.750  24.896   3.192
46497W        W14715  12.736  23.988   3.288
46498W        W14716  15.776   7.442  14.735
46499W        W14717  35.289   6.820  13.425
46500W        W14718  35.839   0.446  10.812
46501W        W14719  32.388  39.565   1.339
46502W        W14720  41.226   4.480  10.715
46503W        W14721  16.708  24.083  11.555
46504W        W14722   1.370  31.572  13.482
46505W        W14723  10.618  11.732   2.346
46506W        W14724   8.678  25.945   1.219
46507W        W14725  40.463  25.452  13.925
46508W        W14726  44.518   3.605   1.947
46509W        W14727  37.806  20.141   2.358
46510W        W14728  17.079   6.124   2.291
46511W        W14729   3.947  30.962   4.219
46512W        W14730  29.304  40.794   4.088
46513W        W14731   0.518  19.720   3.722
46514W        W14732   5.728  24.288  14.369
46515W        W14733   6.795  40.579   4.658
46516W        W14734   5.153  27.746  11.022
46517W        W14735  40.814  14.852  11.546
46518W        W14736  42.467  38.974  10.892
46519W        W14737  32.346  43.498   3.285
46520W        W14738   7.366   2.942  11.198
46521W        W14739   9.397   1.161  13.876
46522W        W14740  30.405  24.935   1.291
46523W        W14741   9.835   5.037  11.574
46524W        W14742  25.102  24.474  10.727
46525W        W14743  20.233   3.420  10.794
46526W        W14744  42.404  18.960   2.760
46527W        W14745  11.420  38.366   0.914
46528W        W14746   1.290   8.925   0.275
46529W        W14747  14.833   6.757   3.671
46530W        W14748  38.342  40.811  14.690
46531W        W14749   6.195   2.176   3.661
46532W        W14750  29.061  44.276  11.972
46533W        W14751  27.071  31.350  10.637
46534W        W14752  24.783   0.483  14.406
46535W        W14753  31.520  33.625   3.895
46536W        W14754  37.041  38.518  10.626
46537W        W14755  41.407  35.210   1.527
46538W        W14756  28.886  19.575   1.604
46539W        W14757   5.611  28.003  10.951
46540W        W14758  20.571  30.111   3.957
46541W        W14759   2.221  28.080   0.006
46542W        W14760  42.020  36.395   1.525
46543W        W14761  41.697  34.830   9.775
46544W        W14762   0.379  33.475   4.413
46545W        W14763  13.972   0.604  13.575
46546W        W14764  16.291  11.545  14.608
46547W        W14765  25.354  26.481   0.284
46548W        W14766  38.080   5.332   0.768
46549W        W14767   0.075  22.272  13.964
46550W        W14768  40.417  12.076  14.754
46551W        W14769  34.561  34.805   3.015
46552W        W14770   7.499  11.910   1.598
46553W        W14771   9.632   9.854   2.303
46554W        W14772  26.214  12.429  12.824
46555W        W14773   6.883  44.536   3.677
46556W        W14774  31.629   0.817   4.192
46557W        W14775  17.809   9.705  13.322
46558W        W14776  11.099  38.094   1.918
46559W        W14777   4.163   8.839   2.877
46560W        W14778  13.661  23.969   0.347
46561W        W14779   2.716  20.031   0.007
46562W        W14780  43.729   0.941  12.011
46563W        W14781  33.932  44.547  12.434
46564W        W14782   6.404  35.092  10.722
46565W        W14783  39.265  19.647  10.956
46566W        W14784   6.411  31.863  14.878
46567W        W14785  33.246  39.162  14.957
46568W        W14786  41.296  31.499  12.413
46569W        W14787   0.778   0.856   1.063
46570W        W14788  21.460  13.892   0.366
46571W        W14789   0.261  39.615   1.275
46572W        W14790  30.918  18.958  14.930
46573W        W14791   6.352  44.548   3.708
46574W        W14792  40.523   8.642   3.279
46575W        W14793   6.424  32.192  14.475
46576W        W14794  14.865   5.994   4.184
46577W        W14795  22.466  37.132  10.982
46578W        W14796  13.924  24.715  10.810
46579W        W14797  30.221  15.583   2.356
46580W        W14798   9.262  34.206  13.122
46581W        W14799  35.187  36.883  14.512
46582W        W14800  20.798  36.987  13.567
46583W        W14801   2.870  26.505  14.321
46584W        W14802  22.360  41.240  13.184
46585W        W14803  12.409   4.354   4.741
46586W        W14804  34.358  37.470   0.678
46587W        W14805  11.604  16.557   3.780
46588W        W14806  27.852   4.808   4.921
46589W        W14807  44.424  13.727  12.099
46590W        W14808  12.140  32.341   4.151
46591W        W14809   8.908  28.951  10.690
46592W        W14810  38.039  26.146   0.628
46593W        W14811  26.441  11.403   2.057
46594W        W14812  33.180  22.129   1.701
46595W        W14813  39.281  20.557   4.552
46596W        W14814  15.833  25.243  12.061
46597W        W14815  19.151  33.504  11.546
46598W        W14816  32.741  30.170  13.025
46599W        W14817   7.183  12.528   4.152
46600W        W14818  38.279  25.222   0.898
46601W        W14819  20.132  25.396  14.328
46602W        W14820  16.092  12.888   0.851
46603W        W14821  23.959   3.851   2.309
46604W        W14822  14.355   5.290   2.321
46605W        W14823  39.933   9.158   2.779
46606W        W14824  20.820  33.834  12.301
46607W        W14825  16.842  15.174   4.991
46608W        W14826   2.397  20.730   1.324
46609W        W14827  25.847   9.715  12.831
46610W        W14828  24.474  17.139  10.707
46611W        W14829  28.111  17.511   4.941
46612W        W14830  28.344  35.818  13.266
46613W        W14831  11.403  32.887  11.926
46614W        W14832  34.271  44.521  14.962
46615W        W14833  27.232   3.884   2.189
46616W        W14834  36.421  12.395  13.466
46617W        W14835   0.923   3.230  14.177
46618W        W14836  18.702  13.488   1.217
46619W        W14837  42.126  20.154   4.355
46620W        W14838  25.063  10.660  10.944
46621W        W14839  17.576  42.400  14.372
46622W        W14840   9.814   5.558  14.047
46623W        W14841  19.306  20.775   1.738
46624W        W14842  44.292   7.294  11.209
46625W        W14843  18.822   4.399   4.621
46626W        W14844  44.486   1.683  11.725
46627W        W14845  32.928  42.268  13.953
46628W        W14846  11.913  18.711  14.261
46629W        W14847  36.393  12.515   3.719
46630W        W14848  10.704  12.216  11.870
46631W        W14849  10.230  11.083  11.584
46632W        W14850   4.751  29.720   3.618
46633W        W14851   2.348   0.221   0.940
46634W        W14852  10.215  12.333   0.768
46635W        W14853  36.965  19.560  10.367
46636W        W14854  22.351  22.123   2.596
46637W        W14855   5.270  28.816   1.443
46638W        W14856  27.613  22.103  13.553
46639W        W14857  21.553  34.080  11.060
46640W        W14858  18.278  10.831   0.246
46641W        W14859  20.575  30.385  12.018
46642W        W14860  26.644   2.350   2.965
46643W        W14861  29.829  20.868  14.812
46644W        W14862  40.002  40.781   3.291
46645W        W14863   3.007  30.082   2.974
46646W        W14864  30.741  44.969  10.662
46647W        W14865  20.330  38.807  14.316
46648W        W14866   9.482   0.691   3.819
46649W        W14867  16.647  38.755  12.035
46650W        W14868   1.696   4.099   1.830
46651W        W14869  28.435  13.239   1.780
46652W        W14870  22.027  15.358   4.568
46653W        W14871  41.421  19.555   3.586
46654W        W14872   3.832  19.439   1.758
46655W        W14873  44.576  38.166  14.783
46656W        W14874  35.305   6.228  14.887
46657W        W14875  24.002   0.136   3.776
46658W        W14876  44.889  13.766  11.866
46659W        W14877  37.583   6.411   1.314
46660W        W14878  20.166  31.142   1.776
46661W        W14879  39.098   1.762   0.850
46662W        W14880  22.026  27.708   0.225
46663W        W14881  40.459   4.277   0.737
46664W        W14882  39.075  28.446   4.236
46665W        W14883  27.183  44.113   2.431
46666W        W14884  40.057   6.681  11.668
46667W        W14885  29.909  15.738  14.025
46668W        W14886  13.754  42.873  11.561
46669W        W14887  20.368   7.851  14.359
46670W        W14888  36.891  31.410   0.023
46671W        W14889  37.421  23.505  14.747
46672W        W14890   4.235  43.725   1.806
46673W        W14891  28.904  39.812  13.524
46674W        W14892  35.353   4.515  10.228
46675W        W14893  19.468  37.978  13.672
46676W        W14894  36.627  29.483   1.217
46677W        W14895  37.846   4.860   2.826
46678W        W14896  31.527   8.819   1.936
46679W        W14897  32.091  19.325   0.317
46680W        W14898  11.425   4.752  13.352
46681W        W14899  43.582   7.154  13.858
46682W        W14900  21.144  30.530  11.991
46683W        W14901  20.247  38.640  14.813
46684W        W14902   1.470  34.522   2.834
46685W        W14903  25.325  17.597  12.828
46686W        W14904  13.737   3.363  14.374
46687W        W14905  32.437   7.040   1.250
46688W        W14906  24.552   1.494   0.357
46689W        W14907  18.971  42.388   4.258
46690W        W14908  33.445   1.376  11.017
46691W        W14909   5.908  23.138  10.735
46692W        W14910  18.526  39.160  14.450
46693W        W14911  41.960   0.506   0.287
46694W        W14912   9.913  42.802  10.785
46695W        W14913  41.525  10.449  14.200
46696W        W14914  15.695  13.582  13.124
46697W        W14915  38.494  10.852  11.154
46698W        W14916  25.912  11.827  14.629
46699W        W14917  14.293  35.023  12.942
46700W        W14918  30.545   9.667  10.697
46701W        W14919  36.866   4.288   0.031
46702W        W14920  19.287  34.929   0.212
46703W        W14921  38.915  12.925  13.590
46704W        W14922  11.079  24.739   4.814
46705W        W14923  21.469  11.992   4.982
46706W        W14924  43.300  30.706   1.383
46707W        W14925  14.609   7.640   0.506
46708W        W14926  29.129  23.494  12.678
46709W        W14927  10.361  21.089  11.358
46710W        W14928  27.939  26.827  12.952
46711W        W14929  21.190   4.224  14.787
46712W        W14930   5.997  38.346  13.267
46713W        W14931  20.911  31.143   4.689
46714W        W14932  20.021  37.559   4.784
46715W        W14933  12.811   7.759   4.003
46716W        W14934  13.796   5.241  13.885
46717W        W14935  40.553  31.731  14.493
46718W        W14936  27.609   2.020   0.202
46719W        W14937  27.070  25.412   0.018
46720W        W14938  27.510  15.068  14.407
46721W        W14939   1.817   5.352   1.213
46722W        W14940  44.387   5.041   0.808
46723W        W14941  30.161  40.055   2.343
46724W        W14942  25.364  12.632  10.266
46725W        W14943   9.427  30.338  13.819
46726W        W14944   5.972   7.319  12.107
46727W        W14945  19.103  19.262  11.725
46728W        W14946  11.594  42.909  14.710
46729W        W14947  37.405   5.406   3.089
46730W        W14948  36.330  27.122   5.635
46731W        W14949   0.792  26.237   0.366
46732W        W14950   2.812  33.001   2.781
46733W        W14951  35.764  24.006   0.857
46734W        W14952  32.095   7.621   1.874
46735W        W14953   0.253  16.286  10.970
46736W        W14954   9.669  23.646   1.801
46737W        W14955   5.886  13.199   0.052
46738W        W14956  23.865  44.077   1.946
46739W        W14957  31.547   6.365  11.406
46740W        W14958  22.275   6.874   1.389
46741W        W14959  43.523  33.685   0.033
46742W        W14960   4.369  43.272  11.136
46743W        W14961   1.161   9.742   3.088
46744W        W14962  43.410  36.063  13.427
46745W        W14963  42.768   9.794  11.649
46746W        W14964  38.106  42.890   1.184
46747W        W14965   6.759  40.772   1.332
46748W        W14966   1.640   6.633   2.683
46749W        W14967   0.271  12.785   2.381
46750W        W14968  43.804  12.285  13.458
46751W        W14969  38.869  35.010   1.510
46752W        W14970  20.754  36.255  13.010
46753W        W14971   9.118  44.070   3.688
46754W        W14972  42.104  42.204  11.207
46755W        W14973   2.378  24.048   0.080
46756W        W14974  20.194   0.838  10.626
46757W        W14975  30.167  41.044  12.003
46758W        W14976  30.650  41.746  13.745
46759W        W14977  35.054  26.988  10.245
46760W        W14978   6.242   7.101  13.523
46761W        W14979  29.938   7.346  13.443
46762W        W14980   2.476  42.387   4.489
46763W        W14981  32.250  38.995  10.731
46764W        W14982  31.966  25.176   4.614
46765W        W14983  13.533  25.732   2.606
46766W        W14984  22.624   9.016  11.127
46767W        W14985  31.983  35.633  14.839
46768W        W14986  27.058  39.062   3.012
46769W        W14987  12.579  15.717   3.007
46770W        W14988  24.122  12.881  11.572
46771W        W14989   3.041   8.379  13.489
46772W        W14990  23.735  15.842   0.948
46773W        W14991  20.432  13.966   5.383
46774W        W14992   6.210  28.631  14.782
46775W        W14993  37.887  29.358  12.993
46776W        W14994  31.636  11.873  11.185
46777W        W14995  22.754  40.832   3.788
46778W        W14996  35.304   9.559  11.522
46779W        W14997   7.263  23.080  11.970
46780W        W14998  26.072  20.720  14.297
46781W        W14999  13.423  39.029  12.112
46782W        W15000  19.746  12.682   0.913
46783W        W15001  15.062  33.423  14.894
46784W        W15002  40.760   1.406  12.473
46785W        W15003   2.395  20.296  12.080
46786W        W15004  19.618  41.823  14.582
46787W        W15005  16.743   7.624   4.625
46788W        W15006  26.438  13.847   2.778
46789W        W15007  17.257  29.121  10.381
46790W        W15008   4.933  39.852  14.418
46791W        W15009   2.384  35.557   3.952
46792W        W15010  19.220  15.223  10.368
46793W        W15011   7.339  34.381   1.917
46794W        W15012  15.755  34.414   1.779
46795W        W15013   7.654  17.696   3.349
46796W        W15014  21.365  30.545  12.491
46797W        W15015  32.489  26.132   1.069
46798W        W15016   3.945  14.156  14.982
46799W        W15017  26.403   7.870  13.803
46800W        W15018  31.646  14.889   1.918
46801W        W15019  21.192  44.917   3.854
46802W        W15020  24.131  35.115  14.463
46803W        W15021   5.994  10.682   0.863
46804W        W15022  24.413   3.226   2.320
46805W        W15023  28.578  14.028  12.737
46806W        W15024   1.378  17.194   3.324
46807W        W15025   6.797   6.636   4.593
46808W        W15026   7.380  11.451  12.772
46809W        W15027  28.817   5.353  10.575
46810W        W15028  30.118  14.579  10.567
46811W        W15029  26.643  35.884   4.676
46812W        W15030  36.145  31.194  14.857
46813W        W15031  44.987  42.965  11.967
46814W        W15032  42.605   9.513  12.509
46815W        W15033  40.549   7.684  14.356
46816W        W15034  31.008  18.721  14.244
46817W        W15035  43.063  15.721  10.701
46818W        W15036  22.443  32.552   3.531
46819W        W15037  16.652   3.247  13.547
46820W        W15038  23.120  30.798  13.619
46821W        W15039  17.234  28.369  14.911
46822W        W15040  27.544  22.434  13.958
46823W        W15041  10.907  13.239  14.902
46824W        W15042  17.207   8.300  14.260
46825W        W15043  38.955  20.501   3.174
46826W        W15044  28.597  27.620   0.219
46827W        W15045   4.617  13.331   1.005
46828W        W15046  20.678  19.484   2.477
46829W        W15047  36.922   7.709  12.512
46830W        W15048  43.621   2.054  10.898
46831W        W15049   7.264  17.797  11.956
46832W        W15050  21.075  43.484  14.396
46833W        W15051  42.523  39.605   2.666
46834W        W15052  40.431  14.441  14.311
46835W        W15053  30.699  28.570  11.975
46836W        W15054   8.980   2.934  13.405
46837W        W15055  22.615  38.073  10.924
46838W        W15056  31.160   6.738  12.020
46839W        W15057  24.373  25.484   4.995
46840W        W15058  26.479  41.952  14.073
46841W        W15059  21.183   7.730   2.104
46842W        W15060  35.434  18.664   1.837
46843W        W15061  11.921  27.226  14.702
46844W        W15062  21.795  13.198   2.290
46845W        W15063  22.280   4.045   2.864
46846W        W15064  16.403  24.176  13.801
46847W        W15065  43.552   6.777  12.075
46848W        W15066  19.541  27.910  12.024
46849W        W15067  23.619  41.491   0.942
46850W        W15068  43.759   0.191  11.618
46851W        W15069  39.064  17.221  11.225
46852W        W15070  43.992  41.999   4.174
46853W        W15071  27.665  42.755   3.358
46854W        W15072  23.468  20.249   3.630
46855W        W15073  27.075   1.952   4.801
46856W        W15074  28.235  18.325  14.827
46857W        W15075  43.761  22.197   1.190
46858W        W15076  31.062  12.254   3.587
46859W        W15077  22.540  44.476   1.867
46860W        W15078  23.924  11.725  10.989
46861W        W15079   1.368   7.226   1.970
46862W        W15080  40.150  31.662   0.875
46863W        W15081  42.277  19.203   0.327
46864W        W15082  33.383  28.841  10.323
46865W        W15083   8.949  35.131   2.455
46866W        W15084  33.637  36.895   2.804
46867W        W15085  39.542  25.566  12.196
46868W        W15086   8.722  23.628  14.785
46869W        W15087  27.082  31.712  12.345
46870W        W15088   9.460   7.025  11.966
46871W        W15089  12.262   7.056  13.866
46872W        W15090  25.746   3.430  10.314
46873W        W15091  16.814  32.518   4.267
46874W        W15092  30.613  32.825  14.889
46875W        W15093  35.066  11.879  13.350
46876W        W15094  26.557   8.323   3.928
46877W        W15095  24.116  18.669  11.682
46878W        W15096  42.330  31.984   4.076
46879W        W15097  14.321  44.399   3.642
46880W        W15098  37.903  38.914   0.298
46881W        W15099  14.151   3.096  14.032
46882W        W15100  43.353  25.288   0.674
46883W        W15101  21.241  18.954  13.300
46884W        W15102  10.046  16.062  10.882
46885W        W15103   5.040   9.767  14.949
46886W        W15104  31.176  40.371   1.231
46887W        W15105  28.913  30.322   4.276
46888W        W15106  33.381  10.914   2.756
46889W        W15107  26.939  39.218  12.571
46890W        W15108  30.635  29.255   3.770
46891W        W15109   7.157  20.788  14.946
46892W        W15110  33.582  25.121   1.679
46893W        W15111  20.818  26.045  12.240
46894W        W15112  27.272  17.114  12.910
46895W        W15113  27.482  14.516  13.443
46896W        W15114  39.384  39.458  13.991
46897W        W15115  17.031   9.853   2.023
46898W        W15116   4.258  12.337  14.430
46899W        W15117  25.531  33.995   2.828
46900W        W15118  38.247  36.755   1.156
46901W        W15119  14.551  37.652  14.141
46902W        W15120  17.192   5.191   3.236
46903W        W15121  18.982  21.568   2.744
46904W        W15122  33.657   3.340   2.279
46905W        W15123  20.186  35.065  11.996
46906W        W15124   6.390  32.927   2.432
46907W        W15125  43.967  12.058  13.976
46908W        W15126  18.657  35.297  13.040
46909W        W15127   9.296   6.265  12.365
46910W        W15128  33.208   4.832   1.959
46911W        W15129  32.153   9.431  11.797
46912W        W15130   5.299  30.892  12.486
46913W        W15131  15.303  14.830   1.264
46914W        W15132  43.441  27.481  13.864
46915W        W15133  19.527  37.247  13.329
46916W        W15134   6.943  13.891  14.729
46917W        W15135  44.442  31.880   1.866
46918W        W15136  24.515  40.788   1.321
46919W        W15137  38.922  38.347   0.348
46920W        W15138   7.920  36.489   0.768
46921W        W15139  28.206  32.166  11.022
46922W        W15140  11.794  25.276   5.038
46923W        W15141  11.606  40.487   2.498
46924W        W15142  36.341   2.753  14.352
46925W        W15143   3.327   9.118  14.486
46926W        W15144  20.745  34.310   2.302
46927W        W15145  33.919  26.205  13.483
46928W        W15146   1.337  11.112  11.188
46929W        W15147  12.835  30.511   0.451
46930W        W15148   3.993  29.090  13.806
46931W        W15149  44.089  25.773  11.118
46932W        W15150   6.632  10.579   0.201
46933W        W15151  35.109  33.623   1.004
46934W        W15152  44.801  11.197   1.966
46935W        W15153  43.347  14.965   3.482
46936W        W15154  25.074   8.757  14.903
46937W        W15155  34.408   8.335   3.575
46938W        W15156  31.141  25.547  11.543
46939W        W15157  15.749   0.446   0.684
46940W        W15158  12.726  36.927  12.620
46941W        W15159   8.621  44.738   4.916
46942W        W15160  16.700  10.614  12.926
46943W        W15161  12.141   6.628   4.130
46944W        W15162  35.396  30.610   0.843
46945W        W15163  13.782  28.496   3.410
46946W        W15164  41.274  20.065   1.813
46947W        W15165   2.302   7.857   2.321
46948W        W15166  41.069  34.599  13.643
46949W        W15167  35.489  34.889   4.479
46950W        W15168  34.484  34.020   4.075
46951W        W15169  42.795  16.905  12.964
46952W        W15170  16.551  10.867   4.147
46953W        W15171  17.170  41.340   3.020
46954W        W15172  34.430   4.952   0.378
46955W        W15173  40.560  42.354  11.185
46956W        W15174  26.036  34.084   1.920
46957W        W15175  12.115  29.671   0.706
46958W        W15176  24.780  38.783  13.380
46959W        W15177  37.807  39.050   1.340
46960W        W15178  40.384   7.309   0.439
46961W        W15179   1.896  25.565   1.355
46962W        W15180  12.326  12.626  14.555
46963W        W15181  29.945  21.581   1.729
46964W        W15182   9.218   6.750   4.047
46965W        W15183  20.260  33.060  12.086
46966W        W15184   3.265  39.775   4.753
46967W        W15185   2.393  28.074   1.450
46968W        W15186  12.928  38.789  14.766
46969W        W15187   4.649  10.456   0.481
46970W        W15188  13.253  29.131  10.816
46971W        W15189  27.373   4.979   0.365
46972W        W15190  18.322  39.666  14.031
46973W        W15191  41.356  16.729  11.963
46974W        W15192  37.395  40.990  11.280
46975W        W15193   2.968  16.125  12.894
46976W        W15194  39.099  28.522  13.774
46977W        W15195  30.160   4.336   3.655
46978W        W15196  28.039  41.083  11.548
46979W        W15197  23.985  27.369  12.914
46980W        W15198  38.022  10.648  11.274
46981W        W15199  23.716  42.501  11.006
46982W        W15200  31.287  41.110   3.558
46983W        W15201   4.850  20.035  13.873
46984W        W15202  42.542  37.909   1.268
46985W        W15203  41.228  41.217   2.297
46986W        W15204   0.723   3.986   0.281
46987W        W15205   2.979  20.619  14.295
46988W        W15206   4.778  14.796   4.097
46989W        W15207  21.229  42.756  14.886
46990W        W15208  41.844  43.382  14.290
46991W        W15209  40.417  43.451   4.306
46992W        W15210  43.245  42.365   0.564
46993W        W15211  12.799   8.451  13.834
46994W        W15212  21.123  26.713   2.828
46995W        W15213   3.271  31.456   1.800
46996W        W15214  17.095  42.388   1.789
46997W        W15215   7.224  13.993  12.012
46998W        W15216  22.978  41.920  13.551
46999W        W15217  15.142  22.465  11.182
47000W        W15218  44.005  36.334   2.921
47001W        W15219  17.711   1.994   1.462
47002W        W15220  25.953  40.368   0.361
47003W        W15221  30.370   7.243   2.421
47004W        W15222  38.345  29.250   3.366
47005W        W15223  26.581   9.395  14.983
47006W        W15224  34.767  37.517   2.728
47007W        W15225  11.306  18.155   1.702
47008W        W15226  38.779  13.701   0.249
47009W        W15227  20.052   4.480  13.438
47010W        W15228  44.994  19.143   4.683
47011W        W15229  26.623  30.991   5.027
47012W        W15230   5.470  30.174  12.088
47013W        W15231  44.885  33.572   4.315
47014W        W15232  11.293  39.466   4.140
47015W        W15233  12.385   8.655   4.375
47016W        W15234  17.753   5.144   3.193
47017W        W15235  15.070  35.061  14.185
47018W        W15236   1.799   4.429  10.815
47019W        W15237  14.375  24.740  12.413
47020W        W15238   3.891   6.896  13.167
47021W        W15239  43.417  21.562   4.640
47022W        W15240   1.995  24.049  13.477
47023W        W15241   8.221  19.141  14.809
47024W        W15242  22.976  43.812   3.507
47025W        W15243  19.596  34.080  11.594
47026W        W15244  20.536   2.984  13.037
47027W        W15245  35.833  10.708  11.983
47028W        W15246   9.224   9.806   3.619
47029W        W15247  16.776  29.342  10.777
47030W        W15248   8.257   0.259  13.360
47031W        W15249  35.518  36.313   4.263
47032W        W15250   2.712   6.373  14.776
47033W        W15251  25.518  37.645   2.146
47034W        W15252  26.938  26.243  13.838
47035W        W15253  14.819  22.641   3.576
47036W        W15254  32.633  17.277   3.328
47037W        W15255  16.916  26.110   3.706
47038W        W15256   9.217  30.610   3.064
47039W        W15257  30.259  31.479  11.865
47040W        W15258  12.847  35.491   1.753
47041W        W15259  33.401  20.595   2.799
47042W        W15260  37.997  28.269   0.376
47043W        W15261  33.088  26.972   0.233
47044W        W15262  25.965  27.058   1.750
47045W        W15263  22.069  15.043  13.946
47046W        W15264   8.633  27.065  12.919
47047W        W15265  20.855  33.349  11.172
47048W        W15266  39.393   1.352  12.555
47049W        W15267  14.826   2.547  13.927
47050W        W15268  22.088  37.506   0.890
47051W        W15269  12.723  22.989  10.392
47052W        W15270   9.937  19.263   2.389
47053W        W15271  25.520  38.835  14.705
47054W        W15272   6.709  26.319  12.072
47055W        W15273   1.743   6.198  11.637
47056W        W15274  25.172   1.832  11.516
47057W        W15275  33.428  44.529   4.019
47058W        W15276  12.800   5.703  14.934
47059W        W15277  42.741   3.278  14.451
47060W        W15278  42.228  42.233   0.840
47061W        W15279   2.503  19.541  12.504
47062W        W15280  33.104  42.971  14.972
47063W        W15281  13.519  42.831   0.829
47064W        W15282  27.031  13.309  11.061
47065W        W15283   8.619  43.300  10.600
47066W        W15284  19.123   2.390  10.650
47067W        W15285  28.888  18.813  12.793
47068W        W15286  33.205  15.705  13.858
47069W        W15287  12.722  40.456   2.796
47070W        W15288   6.470  33.918  11.138
47071W        W15289   6.813   1.361   1.278
47072W        W15290  11.907  26.128  11.608
47073W        W15291  30.527  29.599   3.380
47074W        W15292  12.098  27.144  12.451
47075W        W15293  35.266  25.498   4.515
47076W        W15294  25.229  18.960   3.332
47077W        W15295   6.870  25.546  12.283
47078W        W15296  41.075  37.301  11.553
47079W        W15297  44.599  26.015   2.656
47080W        W15298  16.562  35.455  14.977
47081W        W15299  14.742  32.402   2.187
47082W        W15300  34.952  38.590   0.758
47083W        W15301  23.543   5.320  10.747
47084W        W15302   4.292  24.133   1.149
47085W        W15303  21.228  34.583  13.448
47086W        W15304  26.235   4.376   0.648
47087W        W15305  25.051  16.085   3.780
47088W        W15306  12.603  36.495  12.393
47089W        W15307  34.046   4.426  12.864
47090W        W15308  31.513  38.823   3.793
47091W        W15309  30.145  18.190   3.620
47092W        W15310  37.401  25.370   2.810
47093W        W15311   0.044   6.378   3.550
47094W        W15312   0.452  20.475   1.484
47095W        W15313  34.384  16.556  12.650
47096W        W15314  13.009  39.283   4.190
47097W        W15315  25.576  37.503   3.152
47098W        W15316  12.576  23.957  13.508
47099W        W15317  34.718   0.305  12.367
47100W        W15318  22.179  19.668   4.308
47101W        W15319  26.849   1.435   2.002
47102W        W15320  31.575  37.382  11.938
47103W        W15321  22.000  24.886  11.994
47104W        W15322   9.090  21.440   1.207
47105W        W15323  37.209  15.847   1.603
47106W        W15324  43.555  37.033   4.333
47107W        W15325   6.249   6.666  11.127
47108W        W15326  34.407  11.133   2.261
47109W        W15327  12.718  43.407  14.033
47110W        W15328  41.805  27.075  11.675
47111W        W15329  36.103  11.142  11.978
47112W        W15330   3.993   0.504  11.361
47113W        W15331  42.551  44.519  14.360
47114W        W15332  32.770   3.284  11.581
47115W        W15333   2.190  26.212   3.356
47116W        W15334  15.796  31.111   0.585
47117W        W15335  33.370   9.294  10.625
47118W        W15336  31.484  13.851  11.589
47119W        W15337  34.595   8.759   4.484
47120W        W15338  42.936  35.371   2.023
47121W        W15339  38.737   7.649  10.303
47122W        W15340  27.076  22.216  11.495
47123W        W15341  13.854   5.391   4.719
47124W        W15342  38.988  14.362   2.811
47125W        W15343   5.312  44.614  10.181
47126W        W15344  23.121  18.789  10.808
47127W        W15345   8.702   6.608   0.676
47128W        W15346  15.902   6.924  12.593
47129W        W15347  41.302  24.268  10.643
47130W        W15348   0.912   3.401  11.357
47131W        W15349  26.921  18.762   3.740
47132W        W15350   0.903  12.467   2.797
47133W        W15351   4.212  37.129   4.788
47134W        W15352  10.338  44.722   3.310
47135W        W15353   6.243  20.847  14.498
47136W        W15354  43.974   3.253  14.310
47137W        W15355  17.681  43.894  12.017
47138W        W15356   2.143   3.367   4.103
47139W        W15357  26.715  30.937  14.703
47140W        W15358  43.283   2.437  13.345
47141W        W15359  34.374  17.493  14.830
47142W        W15360  39.362   0.859  14.166
47143W        W15361  12.955   5.931  13.238
47144W        W15362   9.224  25.039  10.738
47145W        W15363   3.179  25.121  14.304
47146W        W15364  38.793  34.983   2.927
47147W        W15365   3.010  44.090   1.320
47148W        W15366   2.422  11.810   0.371
47149W        W15367  18.766  35.326  13.998
47150W        W15368  14.610  44.345   0.446
47151W        W15369  26.050  13.104  10.862
47152W        W15370  28.994  34.332   2.797
47153W        W15371  21.657  27.435  14.969
47154W        W15372  13.732  35.975  11.920
47155W        W15373   4.710  44.020  12.851
47156W        W15374  11.279  12.355  10.725
47157W        W15375  22.706  35.619   4.131
47158W        W15376  29.154  19.041  10.677
47159W        W15377  36.231  15.362   0.373
47160W        W15378  24.680  40.980  10.942
47161W        W15379  39.045  18.524   4.247
47162W        W15380  36.115  23.553  14.784
47163W        W15381  26.017  28.018  11.209
47164W        W15382  38.308  18.170  13.970
47165W        W15383  17.328  36.094   4.258
47166W        W15384  25.476   5.343  13.443
47167W        W15385  22.609  44.245  12.614
47168W        W15386  44.953  39.773   2.002
47169W        W15387  21.310   9.235  10.855
47170W        W15388  24.966  39.684   3.195
47171W        W15389   8.002  23.436   3.676
47172W        W15390  35.360   2.921   3.554
47173W        W15391  44.413  21.782  12.093
47174W        W15392  30.142   6.236   2.261
47175W        W15393  31.363  24.089  10.629
47176W        W15394   8.149   7.253  13.946
47177W        W15395  26.557  11.366  14.370
47178W        W15396  11.305  23.383  12.533
47179W        W15397  37.861   0.328   0.789
47180W        W15398  29.933  23.607  10.590
47181W        W15399  28.902  27.167   0.012
47182W        W15400   1.900  23.954  14.932
47183W        W15401  12.106  18.194  11.560
47184W        W15402   5.138  30.119   4.708
47185W        W15403  26.702  33.437  11.061
47186W        W15404  11.400  37.106   4.093
47187W        W15405  37.307  15.153  14.326
47188W        W15406  38.326  35.104   2.723
47189W        W15407  13.749  36.420   2.204
47190W        W15408  19.145  40.041  10.379
47191W        W15409   6.998  38.602   4.075
47192W        W15410  38.912  35.654  14.840
47193W        W15411  25.544  27.336   4.316
47194W        W15412  11.728   9.822  11.153
47195W        W15413   9.271  40.437   0.102
47196W        W15414  13.385  33.965  12.992
47197W        W15415  12.345  29.144  12.495
47198W        W15416  38.748   0.666  13.374
47199W        W15417   9.891  33.600   3.966
47200W        W15418  35.231   6.116   1.756
47201W        W15419  39.391  40.343   2.795
47202W        W15420  12.199   5.008  11.138
47203W        W15421  21.111  37.022   4.548
47204W        W15422   7.821  29.816  14.127
47205W        W15423  34.807  40.024   4.599
47206W        W15424  34.627  29.387   0.442
47207W        W15425  41.360   8.807  11.579
47208W        W15426  28.855   8.126  11.914
47209W        W15427  35.095  37.926   2.427
47210W        W15428  21.312  34.040  12.445
47211W        W15429  12.106  18.620   0.297
47212W        W15430  10.768   0.793   3.142
47213W        W15431  17.191   6.869  10.965
47214W        W15432  19.223  34.779   4.687
47215W        W15433  36.180  26.391  11.935
47216W        W15434  15.910  14.204   2.799
47217W        W15435  10.090  18.114  10.324
47218W        W15436  38.452  30.926   3.767
47219W        W15437  15.263  36.583   4.908
47220W        W15438   2.275  29.184  12.363
47221W        W15439  14.380  33.016   1.969
47222W        W15440   7.817  25.622  14.404
47223W        W15441   1.781   1.426  14.872
47224W        W15442  25.086  31.359  14.447
47225W        W15443  22.380  14.660  10.784
47226W        W15444  43.535  13.810  13.537
47227W        W15445  30.925  27.337   1.483
47228W        W15446  42.471   1.828   3.971
47229W        W15447   7.376  22.442   4.867
47230W        W15448  15.612  24.182   3.699
47231W        W15449  43.995  28.040  13.316
47232W        W15450   6.644  17.435  11.209
47233W        W15451  22.999  34.085  13.444
47234W        W15452  14.485  33.484  14.290
47235W        W15453  33.564  42.322   1.939
47236W        W15454  16.745  20.295  12.543
47237W        W15455   6.665   6.671  11.465
47238W        W15456  28.441   6.274  11.863
47239W        W15457  36.482  34.456   1.845
47240W        W15458  18.438  25.575  13.137
47241W        W15459  11.931  38.400   0.953
47242W        W15460   0.441  16.105  11.598
47243W        W15461  11.164   8.222  10.545
47244W        W15462  41.124  37.550  13.181
47245W        W15463  14.591  32.451   0.837
47246W        W15464   1.023   3.652  10.557
47247W        W15465  17.104   5.464  11.086
47248W        W15466   7.207  40.217   1.875
47249W        W15467  13.583   2.886  10.464
47250W        W15468  32.139  12.819  13.470
47251W        W15469  22.524   7.404   2.829
47252W        W15470   1.714  35.164  10.373
47253W        W15471  27.229  31.833   3.857
47254W        W15472   3.700  12.396   0.306
47255W        W15473  18.052  34.397  13.980
47256W        W15474  13.666  44.770  13.161
47257W        W15475   0.941  39.785  14.410
47258W        W15476  26.410  39.837   2.453
47259W        W15477  27.610  33.544  12.556
47260W        W15478  40.835  38.822   1.366
47261W        W15479  17.267  10.582   1.415
47262W        W15480  17.340  33.755   2.720
47263W        W15481  39.775   7.204  12.904
47264W        W15482   0.332  23.788  14.999
47265W        W15483  25.604   3.204   0.833
47266W        W15484  14.823  11.621  11.271
47267W        W15485  18.540   6.752  11.538
47268W        W15486  14.507  21.237   2.720
47269W        W15487  15.643  28.673  12.381
47270W        W15488  29.370   9.792   1.045
47271W        W15489   2.302   2.335   2.840
47272W        W15490  26.673  22.959   1.875
47273W        W15491   3.852  24.352  14.451
47274W        W15492  32.701  44.835   1.830
47275W        W15493  24.489   3.897   1.317
47276W        W15494  32.900  16.126  14.917
47277W        W15495  10.487   3.261  11.624
47278W        W15496   5.769  17.071  13.508
47279W        W15497  10.910   3.330  14.432
47280W        W15498   3.489  35.429   5.004
47281W        W15499  39.748  24.238  12.996
47282W        W15500  18.383  24.869   0.288
47283W        W15501  26.995  36.718  13.122
47284W        W15502  40.506  38.978  11.187
47285W        W15503  12.361  40.861  11.857
47286W        W15504  25.171  32.399  10.741
47287W        W15505   4.338   4.100  14.947
47288W        W15506   5.128  29.058  10.780
47289W        W15507  25.102  19.003   0.437
47290W        W15508  37.450  11.847   1.271
47291W        W15509  32.907  30.095   4.932
47292W        W15510  16.530   4.789  10.640
47293W        W15511   9.908   4.243  14.922
47294W        W15512   9.994  12.568  13.570
47295W        W15513  38.420  17.038   4.309
47296W        W15514  31.198  27.940  12.472
47297W        W15515  29.417  29.028   2.664
47298W        W15516   6.061   0.970   0.480
47299W        W15517   2.571  13.972   0.442
47300W        W15518  30.105  35.420   3.893
47301W        W15519  11.828  28.075   9.964
47302W        W15520  15.369  33.591  12.186
47303W        W15521  23.176  26.563   3.494
47304W        W15522  21.548  41.791   0.850
47305W        W15523  42.780  43.134  12.867
47306W        W15524   7.933  40.260   1.561
47307W        W15525  22.982  24.063   3.683
47308W        W15526  14.218  21.077   4.432
47309W        W15527   5.861  20.107  13.952
47310W        W15528  10.604  19.650  13.445
47311W        W15529  40.586  31.022  11.953
47312W        W15530   7.854  31.638  12.948
47313W        W15531  26.108   3.523   3.714
47314W        W15532  13.193  21.157   5.088
47315W        W15533  12.639  29.613  14.767
47316W        W15534  27.432  28.931   0.045
47317W        W15535  30.084   9.062  13.862
47318W        W15536  34.451   9.022  11.120
47319W        W15537  20.483  10.873  14.930
47320W        W15538  25.454  40.200   1.608
47321W        W15539  14.386  16.758   1.356
47322W        W15540  25.589  17.567   0.012
47323W        W15541  36.824  13.816   0.891
47324W        W15542  24.653   1.033  10.446
47325W        W15543  39.100  24.678   0.033
47326W        W15544  29.526  21.639   4.101
47327W        W15545  25.121  14.694   0.522
47328W        W15546  31.416   0.622  14.980
47329W        W15547  44.862  20.222  12.896
47330W        W15548  19.761  24.785  14.824
47331W        W15549  37.569  20.854   0.430
47332W        W15550  18.617  10.118  14.770
47333W        W15551  40.046   7.107  10.854
47334W        W15552   7.932   7.446   2.159
47335W        W15553  21.045  34.114  14.353
47336W        W15554   4.591  22.536   3.145
47337W        W15555   6.717  37.197  12.241
47338W        W15556   6.902  13.081  13.714
47339W        W15557   2.436  37.043  13.770
47340W        W15558   4.411  15.408  14.679
47341W        W15559   8.153  23.746  12.958
47342W        W15560  21.312  32.544   2.694
47343W        W15561  36.984  32.144  13.766
47344W        W15562  32.144  42.968  13.043
47345W        W15563  17.373  16.131  10.544
47346W        W15564  44.844  36.362   4.962
47347W        W15565  25.881  35.167   4.766
47348W        W15566   7.906  21.126   0.223
47349W        W15567  40.892  22.990  11.702
47350W        W15568   9.542   5.435  12.541
47351W        W15569  18.962  42.440   0.535
47352W        W15570  26.002  33.266   2.433
47353W        W15571  24.735  30.160  14.388
47354W        W15572  39.928  24.211  14.034
47355W        W15573  34.438  11.356  10.375
47356W        W15574  40.165  14.279  14.745
47357W        W15575   8.352  19.698  10.793
47358W        W15576   3.469  40.631  12.910
47359W        W15577  12.878   3.448  12.865
47360W        W15578  22.320  24.144  14.902
47361W        W15579  30.861  34.822  14.393
47362W        W15580  28.240   3.673   3.281
47363W        W15581  18.271  36.616  12.910
47364W        W15582  29.906  23.579  13.982
47365W        W15583  29.454  14.758   4.101
47366W        W15584  12.292  35.240  12.333
47367W        W15585  18.785  25.220   3.764
47368W        W15586   8.193  31.587  13.350
47369W        W15587   2.370   3.433   0.282
47370W        W15588  44.241   2.506  12.037
47371W        W15589   9.252  31.943  12.261
47372W        W15590  26.170  41.296  14.897
47373W        W15591   7.973  11.386  13.510
47374W        W15592  39.468  38.015   3.294
47375W        W15593   6.456  22.529   3.679
47376W        W15594  29.271  24.793  14.758
47377W        W15595  26.233  12.183   3.781
47378W        W15596  40.138  11.201   4.906
47379W        W15597   6.459  22.700  14.493
47380W        W15598  33.972  39.286  13.944
47381W        W15599  44.975  32.152  12.830
47382W        W15600   6.413  29.059  14.960
47383W        W15601   2.867  42.085   0.220
47384W        W15602  25.085  15.739  12.992
47385W        W15603  23.223  18.206   3.127
47386W        W15604   6.083   5.913  12.663
47387W        W15605  18.256  44.439  11.693
47388W        W15606  38.368  17.309  12.190
47389W        W15607  15.621  23.200   1.386
47390W        W15608  31.554  22.037   0.453
47391W        W15609  41.073  44.796   0.415
47392W        W15610  19.581   9.302   1.182
47393W        W15611  26.159  14.179  12.267
47394W        W15612  13.417  22.495  10.847
47395W        W15613   7.296  15.347   0.455
47396W        W15614  36.649  27.615  14.471
47397W        W15615  20.988  21.489   4.890
47398W        W15616  38.472  32.641  14.896
47399W        W15617  34.046  28.930   2.824
47400W        W15618  23.340  21.173   4.488
47401W        W15619  44.709   5.147  14.428
47402W        W15620  32.633  34.755   3.671
47403W        W15621  37.926   3.912   0.821
47404W        W15622  24.630  32.399  11.548
47405W        W15623   6.927   3.914   2.628
47406W        W15624  14.025  21.523   3.982
47407W        W15625  14.342  23.430   4.170
47408W        W15626  23.040  31.095  12.842
47409W        W15627  33.407  21.785  11.161
47410W        W15628  43.446  36.282  10.847
47411W        W15629  21.160  19.898  12.433
47412W        W15630  35.012  28.909   3.674
47413W        W15631  35.425  30.959  13.556
47414W        W15632  23.073  34.352   4.613
47415W        W15633  28.012   4.815  13.429
47416W        W15634  21.527  38.539   0.077
47417W        W15635   6.814  23.703   3.150
47418W        W15636  15.648  23.257  11.220
47419W        W15637  19.812  28.076   4.500
47420W        W15638  42.482  35.692  14.324
47421W        W15639  17.308  24.432  10.794
47422W        W15640  11.676   8.374   1.203
47423W        W15641  29.224   7.875  14.427
47424W        W15642  31.663  20.719   0.006
47425W        W15643  37.527   0.714   3.319
47426W        W15644  30.944  17.765   4.601
47427W        W15645   1.581   5.314  11.841
47428W        W15646   5.367  25.275  12.011
47429W        W15647  27.754  26.682   2.295
47430W        W15648   4.486   6.306  11.362
47431W        W15649  17.456  36.475  14.820
47432W        W15650  29.662   5.247   0.915
47433W        W15651  16.929  37.552  11.707
47434W        W15652  11.913  43.951  13.027
47435W        W15653  14.068  16.617   2.674
47436W        W15654  41.713   4.526  12.465
47437W        W15655  36.413  41.399  10.633
47438W        W15656  24.602  19.714  13.328
47439W        W15657  40.033  29.216   3.653
47440W        W15658  35.122  23.926  11.653
47441W        W15659  37.228  26.645   2.300
47442W        W15660  32.101  42.446  13.038
47443W        W15661  35.817  38.057   4.556
47444W        W15662  29.890   9.858   0.969
47445W        W15663  22.814  19.981  12.022
47446W        W15664  32.430  17.928  11.269
47447W        W15665  12.302   8.348   0.046
47448W        W15666  21.883  23.200   3.192
47449W        W15667  31.635   6.830  14.872
47450W        W15668  20.388  36.570  10.417
47451W        W15669  42.994  32.037   0.864
47452W        W15670  26.508  32.454  13.585
47453W        W15671  19.039  36.393  13.384
47454W        W15672  21.751   2.294   0.478
47455W        W15673  41.554  11.664  11.427
47456W        W15674  25.939  35.756   0.952
47457W        W15675   4.347  21.314   1.936
47458W        W15676  11.757  13.307   1.875
47459W        W15677  40.810  40.857   2.748
47460W        W15678  43.084  37.018   4.069
47461W        W15679  41.903   9.600  10.622
47462W        W15680  40.045  24.630  12.497
47463W        W15681   7.973  25.659   3.438
47464W        W15682  25.431  25.829   4.405
47465W        W15683  36.603   0.920   4.079
47466W        W15684   9.116  34.316  14.447
47467W        W15685   8.377  20.956   0.134
47468W        W15686   7.192  25.985  14.573
47469W        W15687  42.444  23.619  10.409
47470W        W15688  35.174   7.946   1.840
47471W        W15689   7.669   5.195  13.186
47472W        W15690  40.931  23.432  13.043
47473W        W15691  16.292   1.930   2.322
47474W        W15692  20.268  39.587   4.606
47475W        W15693  16.263  13.766   1.354
47476W        W15694  42.784  17.647   3.404
47477W        W15695  31.538   7.967   3.116
47478W        W15696  28.563   2.316   4.345
47479W        W15697  33.042  30.671   1.675
47480W        W15698  26.923  22.765  14.496
47481W        W15699  30.450   7.601  14.994
47482W        W15700  15.417   5.447   0.503
47483W        W15701  39.058  18.186   3.863
47484W        W15702   6.805  23.562  14.396
47485W        W15703   7.276  22.282  10.662
47486W        W15704   6.230   6.695   1.527
47487W        W15705  17.092  25.919  14.845
47488W        W15706  11.399   7.395   2.077
47489W        W15707   5.390  33.131   0.463
47490W        W15708  33.216  38.345   4.117
47491W        W15709  34.896  22.476  14.894
47492W        W15710  15.486  23.356   4.188
47493W        W15711  16.794  19.821   0.762
47494W        W15712  24.669  14.801   0.303
47495W        W15713   8.371  18.659  12.841
47496W        W15714   9.496  29.082  13.404
47497W        W15715  12.104  39.049   2.782
47498W        W15716   7.696  24.970   4.121
47499W        W15717  35.444  27.429  13.462
47500W        W15718  38.522   2.443   3.813
47501W        W15719   4.494  13.334   1.905
47502W        W15720  29.464   0.110  12.520
47503W        W15721   0.447  17.259   2.420
47504W        W15722  12.711  28.697  13.799
47505W        W15723  39.598  34.645   3.186
47506W        W15724  18.104  38.663   4.079
47507W        W15725   6.384   1.190  11.691
47508W        W15726  37.035  21.080  11.570
47509W        W15727  43.676  20.830  11.396
47510W        W15728   8.183  22.249   1.611
47511W        W15729   4.321   9.336   3.781
47512W        W15730   1.270  37.778   0.006
47513W        W15731  42.823  11.790  14.265
47514W        W15732  41.515  20.595  14.276
47515W        W15733  34.484   1.720   1.521
47516W        W15734  43.660  12.564   3.608
47517W        W15735  32.168  43.623   1.595
47518W        W15736   3.806  19.576  12.448
47519W        W15737  12.811  16.192  11.566
47520W        W15738   1.176  18.615   4.232
47521W        W15739   2.762  19.983  11.887
47522W        W15740   0.305  37.169  11.191
47523W        W15741  14.606  26.186   2.868
47524W        W15742  16.618  21.155  11.148
47525W        W15743  23.207  43.315  13.055
47526W        W15744   0.935  17.218  13.248
47527W        W15745   1.855   4.757  14.951
47528W        W15746  19.099  11.389   0.866
47529W        W15747  24.043  33.971  12.541
47530W        W15748  29.404  10.106  12.476
47531W        W15749  42.373  11.357  14.889
47532W        W15750   3.986   7.125   2.715
47533W        W15751   3.409   1.718   4.188
47534W        W15752  14.345  37.022  14.776
47535W        W15753   2.375  35.912  12.572
47536W        W15754  17.757  35.026  13.588
47537W        W15755   0.767  18.218  12.276
47538W        W15756  14.315   7.254   1.576
47539W        W15757  12.770   8.147  14.873
47540W        W15758  25.009  22.089  14.372
47541W        W15759  30.994  33.189  12.082
47542W        W15760   5.648  25.920   2.510
47543W        W15761  42.515  18.228   3.418
47544W        W15762  44.720   9.708  12.660
47545W        W15763  42.795  35.069   1.221
47546W        W15764  36.036   2.361   2.200
47547W        W15765  22.517  32.433  13.078
47548W        W15766  28.707   4.524   1.478
47549W        W15767  44.797  14.102   2.307
47550W        W15768  33.491   0.687  10.832
47551W        W15769  18.984  38.554   4.421
47552W        W15770  35.059  25.479  12.851
47553W        W15771   3.506  23.929  12.630
47554W        W15772  19.556  40.656   4.984
47555W        W15773  28.852  42.508   2.776
47556W        W15774  38.050  24.877  12.299
47557W        W15775  22.253   0.873   2.808
47558W        W15776  20.827  35.958  14.886
47559W        W15777  35.687  15.430   0.033
47560W        W15778  38.990  20.118   4.579
47561W        W15779  11.216  10.157   1.568
47562W        W15780   8.061  13.498  12.830
47563W        W15781   1.387  31.744   3.287
47564W        W15782  35.881  40.952   4.516
47565W        W15783  21.786  19.575   1.695
47566W        W15784  31.420   4.874   1.229
47567W        W15785  40.743   2.429   0.049
47568W        W15786  32.245  13.374  11.081
47569W        W15787  39.300   5.661  11.996
47570W        W15788  12.147  25.722  13.387
47571W        W15789  43.881  24.000   4.162
47572W        W15790  21.671  21.578  11.821
47573W        W15791  39.316   8.662   1.293
47574W        W15792  13.685  35.696  10.601
47575W        W15793   2.382  28.116  10.979
47576W        W15794  40.624   7.678   0.763
47577W        W15795   1.885   6.143   3.260
47578W        W15796   5.460  18.751   3.439
47579W        W15797  28.173   8.074   2.320
47580W        W15798  37.084  14.548  12.061
47581W        W15799  16.772   3.395   4.901
47582W        W15800  34.142  38.077  11.177
47583W        W15801  40.371  12.842   4.004
47584W        W15802   1.370  30.191   2.422
47585W        W15803  15.280   8.310  11.556
47586W        W15804  15.070  22.488  12.972
47587W        W15805   1.392  17.568  11.747
47588W        W15806  13.234  25.428  12.100
47589W        W15807   4.968  43.786   0.217
47590W        W15808  29.342  28.411   2.280
47591W        W15809  10.483   8.988   0.490
47592W        W15810   5.994  37.926  14.463
47593W        W15811  40.554   9.616   4.158
47594W        W15812  42.941  30.374  12.526
47595W        W15813  35.116  23.786   0.256
47596W        W15814  43.499  18.168   1.830
47597W        W15815  43.525  28.952   1.739
47598W        W15816  32.619   7.031  11.171
47599W        W15817  41.001  15.869  10.660
47600W        W15818  34.049  34.466  14.797
47601W        W15819  39.114   2.615  12.155
47602W        W15820  11.594   8.285   2.240
47603W        W15821  33.873  27.998   1.833
47604W        W15822   2.704  44.872  12.466
47605W        W15823  20.005  32.363  11.960
47606W        W15824  44.661  32.548   4.198
47607W        W15825  25.771  13.893  11.891
47608W        W15826  39.296   3.613  14.995
47609W        W15827  19.826   9.644   3.272
47610W        W15828  20.257   4.591  14.765
47611W        W15829  32.631   3.959   1.827
47612W        W15830  26.437   6.012   3.759
47613W        W15831   8.195  43.927  11.135
47614W        W15832  24.145  17.072  10.303
47615W        W15833  36.826  19.634   3.702
47616W        W15834  31.035  39.749  12.559
47617W        W15835  26.408  33.827  13.121
47618W        W15836  26.212  44.468   0.269
47619W        W15837  29.069   3.461  14.612
47620W        W15838  43.764  19.306  13.041
47621W        W15839   1.189  20.894   3.284
47622W        W15840  33.205  14.694  14.318
47623W        W15841  28.018  11.229  11.629
47624W        W15842  12.761  43.355   3.267
47625W        W15843  40.883  12.465   1.438
47626W        W15844  38.921   3.845   2.419
47627W        W15845  30.947   2.293   3.247
47628W        W15846   5.689  40.985  13.995
47629W        W15847  15.720   3.364   0.346
47630W        W15848  10.253  36.394  12.363
47631W        W15849  14.170  25.556   3.689
47632W        W15850  14.532   9.356  10.605
47633W        W15851   3.794  18.061   3.400
47634W        W15852  11.789  31.637  13.995
47635W        W15853   8.053  44.540   4.243
47636W        W15854  19.999  39.025   0.703
47637W        W15855  24.574  42.835   1.397
47638W        W15856  26.579  33.012   2.987
47639W        W15857  14.328  42.406   1.103
47640W        W15858  15.362  32.997   0.052
47641W        W15859  19.731   9.055  14.884
47642W        W15860  39.327  28.685   0.265
47643W        W15861  30.740  31.993  11.096
47644W        W15862  18.068   8.855  11.130
47645W        W15863   3.600  41.011   2.900
47646W        W15864   1.870  28.883   3.234
47647W        W15865  42.276  41.246   3.249
47648W        W15866  41.059  20.828  14.484
47649W        W15867  38.315  26.488   1.446
47650W        W15868  44.397   1.461   4.614
47651W        W15869  42.164  28.034   1.988
47652W        W15870   3.153   8.696   4.265
47653W        W15871  21.464   1.863   4.483
47654W        W15872  24.628  34.791   3.580
47655W        W15873  14.544  14.107   4.110
47656W        W15874   0.882   1.976   3.146
47657W        W15875  43.913   5.567   0.184
47658W        W15876  17.956  30.597   0.864
47659W        W15877   4.533  32.496   1.377
47660W        W15878  16.470  22.171   4.270
47661W        W15879   6.380   2.186   0.080
47662W        W15880  21.950   1.320   2.877
47663W        W15881  43.848  12.173   0.037
47664W        W15882  19.159  20.732  10.948
47665W        W15883   4.427   8.884   4.601
47666W        W15884  24.194  23.796   3.270
47667W        W15885  19.208  37.962   0.900
47668W        W15886  40.306  23.521   1.781
47669W        W15887   3.248  21.257  10.758
47670W        W15888  19.869   8.660   3.711
47671W        W15889  30.538  15.455  13.015
47672W        W15890  13.169  29.133   0.488
47673W        W15891   0.864  40.110  10.380
47674W        W15892   8.775  33.599  11.071
47675W        W15893  17.296  15.781  14.789
47676W        W15894   1.997  29.747  11.595
47677W        W15895  21.705  36.156  14.721
47678W        W15896  31.642   2.663  11.652
47679W        W15897   6.855  20.223   3.830
47680W        W15898  39.425   5.575  10.050
47681W        W15899  41.421   5.028  12.226
47682W        W15900   1.019  42.571  13.019
47683W        W15901  12.619  15.376  13.935
47684W        W15902  40.251  32.703  14.418
47685W        W15903  30.169  27.107   0.337
47686W        W15904   7.297  39.517  10.862
47687W        W15905   3.932  24.532   0.489
47688W        W15906  13.837   5.969  13.361
47689W        W15907  29.204  13.103  11.182
47690W        W15908   2.234   6.916   5.120
47691W        W15909  14.814   5.300  12.973
47692W        W15910   8.482  29.088   0.836
47693W        W15911  23.362  16.774  11.461
47694W        W15912  35.919  40.275   2.218
47695W        W15913  12.097  38.029  10.611
47696W        W15914  20.783  37.891  13.966
47697W        W15915   1.544  28.409   2.772
47698W        W15916  15.889   1.225   1.826
47699W        W15917  16.295  35.020  12.994
47700W        W15918  32.867  36.766  10.606
47701W        W15919  16.586  17.570  12.577
47702W        W15920   5.476  27.463  12.138
47703W        W15921  28.406  33.082  14.933
47704W        W15922   9.684  32.624   0.303
47705W        W15923  30.965   5.758   4.066
47706W        W15924   2.890  42.498   2.773
47707W        W15925   3.954   7.109   1.876
47708W        W15926   8.440  44.622  13.967
47709W        W15927   3.134  30.579  14.490
47710W        W15928  16.104  15.074  10.334
47711W        W15929  39.048  22.089   4.717
47712W        W15930  19.703   5.912  14.747
47713W        W15931  10.111  31.324   0.760
47714W        W15932  10.198  10.470  14.010
47715W        W15933  14.765   3.731  11.197
47716W        W15934  28.487  44.971   4.761
47717W        W15935  34.442  29.838   2.878
47718W        W15936  12.365  43.553   1.774
47719W        W15937  21.901  20.935   3.155
47720W        W15938  43.824  18.411   3.224
47721W        W15939  11.106  36.028   0.094
47722W        W15940   1.457  22.136  14.772
47723W        W15941  20.434  27.127   1.714
47724W        W15942  43.929  19.116   0.785
47725W        W15943  10.559   2.485  11.225
47726W        W15944  13.242  16.289   4.333
47727W        W15945  40.887  29.607   1.329
47728W        W15946  40.360   7.058   4.069
47729W        W15947   7.353   0.772  14.983
47730W        W15948  34.509  37.093   4.512
47731W        W15949  42.463  25.545  13.637
47732W        W15950  19.298  41.342   1.098
47733W        W15951  26.511  19.031   4.445
47734W        W15952  41.838  15.309  12.957
47735W        W15953  29.223  24.465   5.494
47736W        W15954  18.306  32.327   4.851
47737W        W15955  13.822  37.670  11.526
47738W        W15956  15.221  21.172  12.618
47739W        W15957  18.010   1.225   5.071
47740W        W15958  25.921  42.318   3.797
47741W        W15959   7.008  41.579   0.365
47742W        W15960   9.764  24.156  11.162
47743W        W15961   3.241   0.176  11.853
47744W        W15962   1.813  41.264   1.217
47745W        W15963  30.999   0.686  14.312
47746W        W15964  32.991  30.212  10.943
47747W        W15965   8.115  36.567   2.884
47748W        W15966  41.374  38.047  12.527
47749W        W15967  33.696  44.964   4.177
47750W        W15968  37.245   6.245   3.472
47751W        W15969  25.650   8.862  13.573
47752W        W15970  13.684  10.567  13.283
47753W        W15971  14.607  17.634  11.082
47754W        W15972   9.244   4.868  14.918
47755W        W15973  23.453   1.239  13.060
47756W        W15974   1.277  14.670   0.815
47757W        W15975   3.946  16.172  13.040
47758W        W15976  37.143  15.899   4.974
47759W        W15977   7.753  21.003  11.367
47760W        W15978  14.167  40.127   1.474
47761W        W15979  38.269   1.362  13.547
47762W        W15980  13.914  32.143   1.364
47763W        W15981  42.037  27.016  10.737
47764W        W15982  41.766  21.200   3.132
47765W        W15983  33.126  21.796  12.130
47766W        W15984  44.430   5.310  14.860
47767W        W15985  24.472  21.987   4.524
47768W        W15986  36.506  10.864   1.711
47769W        W15987  25.730  28.340   1.996
47770W        W15988  11.288   2.999  10.716
47771W        W15989   6.788  36.701  12.123
47772W        W15990   5.583   6.709  10.701
47773W        W15991  42.990  16.802  11.561
47774W        W15992  19.091  11.849  11.148
47775W        W15993   6.815  41.385  12.633
47776W        W15994  34.952  22.227  10.724
47777W        W15995  40.015  24.099  10.489
47778W        W15996   2.831  36.535  10.679
47779W        W15997  12.711   4.474   2.627
47780W        W15998  22.753  43.459   2.006
47781W        W15999   2.564  18.883  10.711
47782W        W16000  14.600  44.102  11.527
47783W        W16001  33.614  31.757   4.105
47784W        W16002   1.766  38.995   0.874
47785W        W16003  13.384   4.299   1.265
47786W        W16004  23.299  41.040  12.359
47787W        W16005   9.718  32.302  12.786
47788W        W16006  12.239   9.349  12.244
47789W        W16007  27.535  29.579  14.386
47790W        W16008  25.968  17.311  10.740
47791W        W16009  41.039  37.303   1.243
47792W        W16010  30.587   3.458  12.097
47793W        W16011   4.183  41.567   4.516
47794W        W16012   7.639   5.561   1.881
47795W        W16013   5.840  41.372   3.271
47796W        W16014  32.610  39.392  14.334
47797W        W16015  18.193  31.361  12.577
47798W        W16016  43.026  32.281   5.131
47799W        W16017  11.791  40.060  10.955
47800W        W16018  42.813   8.644  13.906
47801W        W16019  27.087  21.674   0.736
47802W        W16020   9.507  38.061  14.086
47803W        W16021   5.276   1.216  13.328
47804W        W16022  17.285  27.295  13.466
47805W        W16023  18.519  19.875   0.352
47806W        W16024  31.788  25.908   5.089
47807W        W16025  29.372  35.005  14.946
47808W        W16026  28.374  27.470  12.517
47809W        W16027   6.861  28.355  12.679
47810W        W16028  16.754   0.281  13.988
47811W        W16029  29.911  40.799  11.623
47812W        W16030   1.807  34.812  11.510
47813W        W16031   5.819  21.156   1.055
47814W        W16032  29.655  11.313  14.224
47815W        W16033  20.971  44.051  13.016
47816W        W16034  31.464   3.474  11.456
47817W        W16035  12.352  38.057   2.223
47818W        W16036  18.787  21.190   4.316
47819W        W16037   4.709  32.441   1.927
47820W        W16038  21.301  30.607   2.514
47821W        W16039  28.940  29.082   1.740
47822W        W16040  10.006   2.414  13.991
47823W        W16041  27.916   7.654   2.130
47824W        W16042   2.464  27.487   3.849
47825W        W16043  15.297  13.650  14.393
47826W        W16044   2.013  41.490  13.806
47827W        W16045  35.657  44.297  13.851
47828W        W16046  38.995  21.685   0.414
47829W        W16047  18.185  20.318   3.346
47830W        W16048  44.919  35.072   0.382
47831W        W16049  25.343   7.950   2.036
47832W        W16050   2.677  32.586  10.923
47833W        W16051  44.794  21.139   1.254
47834W        W16052  28.069  10.452   2.819
47835W        W16053  39.822  26.882  11.228
47836W        W16054   4.285  16.829   0.451
47837W        W16055  36.328  32.903   4.802
47838W        W16056  16.171  31.895   5.099
47839W        W16057  26.780  36.315  12.863
47840W        W16058  15.670   5.253   0.933
47841W        W16059  36.561  38.795   4.397
47842W        W16060  26.055  36.816   0.777
47843W        W16061  11.594  25.951   1.980
47844W        W16062  39.777  10.925   0.373
47845W        W16063  42.074  28.151   4.112
47846W        W16064  44.391   9.344  12.529
47847W        W16065   9.130  19.580  11.117
47848W        W16066  29.659  27.958  12.922
47849W        W16067  31.026  17.266   1.723
47850W        W16068   5.892   0.958   0.006
47851W        W16069   5.127  13.752  12.465
47852W        W16070  33.876  22.596  14.843
47853W        W16071  38.554  44.076  11.080
47854W        W16072  18.548   1.543   0.286
47855W        W16073  16.127  23.157   1.495
47856W        W16074  22.146  26.879  12.417
47857W        W16075  41.128   0.081  11.544
47858W        W16076  15.910  22.658   5.048
47859W        W16077  36.739  35.142   1.265
47860W        W16078   6.470  41.372   3.697
47861W        W16079   8.841  17.030  10.168
47862W        W16080   7.151  12.973  11.708
47863W        W16081  35.989  43.985   3.839
47864W        W16082   0.003  34.251   2.752
47865W        W16083  34.272  37.303  12.140
47866W        W16084  10.895  12.069   1.969
47867W        W16085  29.658  16.556  10.347
47868W        W16086  21.663   7.717   2.988
47869W        W16087  37.390  25.524   0.981
47870W        W16088  34.449  11.580  13.451
47871W        W16089  23.184  13.109  10.853
47872W        W16090   6.579  18.012  10.701
47873W        W16091  39.928  15.197   3.374
47874W        W16092   2.492  38.771   3.357
47875W        W16093  26.022  20.280  12.479
47876W        W16094  10.664  25.184   3.291
47877W        W16095  24.111  31.135   0.053
47878W        W16096  26.562  29.509   4.034
47879W        W16097   5.110  24.169   1.072
47880W        W16098  24.387  28.522  14.487
47881W        W16099  34.384  21.126  11.990
47882W        W16100  33.855  33.727   3.687
47883W        W16101  14.956   3.754   0.647
47884W        W16102  38.107  23.277  12.327
47885W        W16103  22.357  27.380  12.444
47886W        W16104  34.717  27.649   1.822
47887W        W16105  23.850  35.474   4.835
47888W        W16106  15.099  24.932  12.321
47889W        W16107  40.589   8.467   2.256
47890W        W16108  14.144  37.200  12.216
47891W        W16109  19.380   2.267  11.072
47892W        W16110  20.549  33.484   5.127
47893W        W16111  15.192  10.138  14.727
47894W        W16112  43.132   0.898   4.914
47895W        W16113  33.705  11.682  12.099
47896W        W16114  17.655   1.209  10.698
47897W        W16115  19.670  42.867  14.825
47898W        W16116  32.510  23.096  13.104
47899W        W16117  14.817  44.679   1.430
47900W        W16118  24.568  32.898  11.445
47901W        W16119  29.694  41.643   0.460
47902W        W16120  23.923  29.472  13.356
47903W        W16121  16.852  37.503   3.866
47904W        W16122  23.990   1.571   2.630
47905W        W16123   3.666   4.367  14.453
47906W        W16124  19.739  18.181   2.147
47907W        W16125  23.297  33.085   2.711
47908W        W16126  25.684  18.069  11.154
47909W        W16127  12.654  18.136  11.154
47910W        W16128  38.815  20.329  10.699
47911W        W16129  32.304  28.532   3.518
47912W        W16130  21.175  44.788   2.359
47913W        W16131  20.406   8.807   2.305
47914W        W16132  43.190  10.828  13.917
47915W        W16133  30.167  32.144   2.296
47916W        W16134  39.915  38.210   1.258
47917W        W16135  36.737   0.253  14.262
47918W        W16136  24.691   9.132  14.093
47919W        W16137  32.008  40.898  14.877
47920W        W16138   8.886  40.326  10.742
47921W        W16139  24.957  24.299   4.478
47922W        W16140   1.360  35.993   3.139
47923W        W16141  15.501  35.081   1.296
47924W        W16142  10.199   6.770  10.676
47925W        W16143  22.402  21.044   3.218
47926W        W16144  26.433  43.985  13.530
47927W        W16145  23.231   1.163   2.356
47928W        W16146  34.173  44.263   3.686
47929W        W16147   6.786  11.429  12.950
47930W        W16148   7.306   0.958   0.482
47931W        W16149  44.295  40.018   3.170
47932W        W16150  16.351  10.299   0.446
47933W        W16151  33.667  23.505  10.548
47934W        W16152  22.296  40.688   4.544
47935W        W16153   1.837   2.796   1.735
47936W        W16154   9.584  14.504   1.210
47937W        W16155  10.549  20.035   2.709
47938W        W16156  39.859  10.703  13.014
47939W        W16157   5.288  35.109   1.903
47940W        W16158   2.267   0.351   4.942
47941W        W16159  13.277  29.914  11.223
47942W        W16160   1.267  21.576   4.073
47943W        W16161  35.850  26.472   1.372
47944W        W16162  16.165   3.991   3.588
47945W        W16163  10.695  24.747   1.564
47946W        W16164  39.507  31.109   3.162
47947W        W16165   6.828  18.605  13.165
47948W        W16166  27.258  37.603   3.664
47949W        W16167  44.845  18.586   4.764
47950W        W16168   8.167  33.144   0.913
47951W        W16169  28.818   6.945  14.555
47952W        W16170  14.551  40.274   0.625
47953W        W16171   3.409   7.161   3.334
47954W        W16172  39.114  32.054   3.176
47955W        W16173  20.508  14.601   2.293
47956W        W16174  40.396  19.303  11.906
47957W        W16175   6.253  12.160   4.837
47958W        W16176   7.910  13.355  11.579
47959W        W16177  37.971   1.800   2.331
47960W        W16178  19.618  42.340   3.633
47961W        W16179  20.124   1.021  13.817
47962W        W16180  31.881  32.465   2.832
47963W        W16181  44.818  11.515   2.373
47964W        W16182   7.300  39.336   4.981
47965W        W16183  26.528  14.721   1.795
47966W        W16184  24.709  10.273  14.704
47967W        W16185  29.020   3.274   0.655
47968W        W16186  19.934  43.993  14.996
47969W        W16187  23.943   8.898  11.210
47970W        W16188  38.362   6.346  11.541
47971W        W16189  14.795  35.036   0.717
47972W        W16190   8.465   3.457  12.835
47973W        W16191   9.161  25.909   2.229
47974W        W16192  22.398   3.448   0.752
47975W        W16193  12.693  36.870  13.128
47976W        W16194  13.261  28.437  12.151
47977W        W16195  44.264  30.436  11.219
47978W        W16196   5.231  28.133  12.822
47979W        W16197  35.486  33.390  12.321
47980W        W16198   4.618   2.761  13.503
47981W        W16199  43.414  42.410  10.532
47982W        W16200  41.036   0.462  12.904
47983W        W16201  32.679   3.775   2.306
47984W        W16202   3.290   1.478  13.386
47985W        W16203  27.137   1.974  13.931
47986W        W16204  15.608   4.064   4.704
47987W        W16205  29.488  43.347   0.960
47988W        W16206  18.096   2.821   0.484
47989W        W16207  24.267  39.357   0.225
47990W        W16208  35.504  26.910   4.616
47991W        W16209  38.755  12.431   0.342
47992W        W16210  13.181  41.678   2.158
47993W        W16211  34.221   4.825   1.764
47994W        W16212   9.645   4.723  14.245
47995W        W16213  11.111  27.156  13.560
47996W        W16214  34.734  25.528   4.532
47997W        W16215  32.388  39.930   2.773
47998W        W16216  43.807  33.188   0.179
47999W        W16217  31.066   7.448   3.635
48000W        W16218  37.011  26.738  12.314
48001W        W16219  19.783  15.113   4.090
48002W        W16220  43.731   3.332   4.566
48003W        W16221  23.556   5.237   0.463
48004W        W16222   0.051   0.347   0.978
48005W        W16223   8.068  39.227   4.505
48006W        W16224   5.490   5.629  10.760
48007W        W16225  15.002  30.703   4.966
48008W        W16226   0.520   6.331  10.382
48009W        W16227  11.433  18.691   1.783
48010W        W16228  32.405  24.075  10.732
48011W        W16229  16.725  20.956  13.964
48012W        W16230  21.054  15.108  12.108
48013W        W16231   4.274  14.197   1.399
48014W        W16232  37.475  19.345   3.684
48015W        W16233  17.023  33.549   2.346
48016W        W16234   5.825  34.899  12.289
48017W        W16235  21.145  22.170   2.720
48018W        W16236   7.427  32.502   2.514
48019W        W16237   0.307  33.960  14.526
48020W        W16238  29.914   6.438  11.932
48021W        W16239  23.753   7.865  13.353
48022W        W16240  16.505   3.383  14.838
48023W        W16241   2.384  30.403   3.714
48024W        W16242  42.256  37.986  14.345
48025W        W16243  24.980  10.670  12.478
48026W        W16244  12.360  14.214   5.072
48027W        W16245  42.325  15.178   4.577
48028W        W16246  32.740  30.769   4.588
48029W        W16247  43.781  39.963   3.165
48030W        W16248  35.943  25.229  12.930
48031W        W16249  40.882  10.024   2.797
48032W        W16250  12.866  31.784  11.297
48033W        W16251  16.879   0.749   4.209
48034W        W16252  27.064  42.371  14.807
48035W        W16253   1.384  12.275  14.347
48036W        W16254  38.082  27.342  12.906
48037W        W16255  19.792   8.746   2.453
48038W        W16256  31.210  20.911  14.847
48039W        W16257  38.599  19.888   5.077
48040W        W16258  12.558  38.501  11.119
48041W        W16259  37.387  31.023  14.347
48042W        W16260  26.944  32.862   3.979
48043W        W16261   2.899  29.895  11.708
48044W        W16262   8.321  10.249   2.886
48045W        W16263   7.916  31.918  11.670
48046W        W16264  42.782   3.978  11.898
48047W        W16265  23.605  11.794   2.951
48048W        W16266  39.052   3.460  11.174
48049W        W16267  14.814  12.598   4.028
48050W        W16268  27.046  21.726   2.584
48051W        W16269  37.102  26.995  13.862
48052W        W16270  35.413  33.320   2.378
48053W        W16271   3.017  41.549  11.403
48054W        W16272   3.741  23.346   3.588
48055W        W16273  21.621  26.442   0.386
48056W        W16274  23.100   3.248  10.713
48057W        W16275  10.617  31.424   0.776
48058W        W16276   0.377  19.972   4.189
48059W        W16277  27.149  24.535  11.694
48060W        W16278  30.874   2.067  10.683
48061W        W16279  16.659  30.854  11.441
48062W        W16280  16.080  39.317   4.296
48063W        W16281  41.401  32.618   0.213
48064W        W16282  43.525  33.275  11.441
48065W        W16283  20.611  21.539  13.009
48066W        W16284  18.581  18.246   0.848
48067W        W16285  27.981  39.425  14.295
48068W        W16286  43.199  20.314   1.238
48069W        W16287  29.980   2.483  14.256
48070W        W16288  11.659  26.733   1.528
48071W        W16289  44.279  29.564   2.594
48072W        W16290  29.490  14.071   4.887
48073W        W16291  20.668  42.544  11.643
48074W        W16292  27.392  24.803  14.433
48075W        W16293  11.907   2.394   3.769
48076W        W16294  43.429  14.172   3.957
48077W        W16295   9.114  42.926  11.926
48078W        W16296  40.453   4.683  11.639
48079W        W16297   1.396  26.877  14.025
48080W        W16298  26.506  34.889   1.710
48081W        W16299  41.715  21.155   1.347
48082W        W16300   8.854  37.056   3.191
48083W        W16301  37.938   2.408   0.714
48084W        W16302  28.482  33.333  13.839
48085W        W16303  43.035  13.686   3.162
48086W        W16304   8.316   2.696   1.436
48087W        W16305  26.382   3.459   5.223
48088W        W16306  11.279   6.747  13.201
48089W        W16307  23.585   5.307   3.254
48090W        W16308  42.416  33.962   1.453
48091W        W16309  29.086   6.926  10.649
48092W        W16310  15.802  20.800   3.598
48093W        W16311   4.232  41.337  10.247
48094W        W16312  38.351   3.552   4.583
48095W        W16313  27.638  26.977  12.555
48096W        W16314  11.224  17.613   4.085
48097W        W16315  16.230   3.035  10.453
48098W        W16316   9.314  19.141  10.899
48099W        W16317  38.589  20.669  11.971
48100W        W16318  38.761  19.755  10.955
48101W        W16319  28.524   6.193  10.482
48102W        W16320  22.015  29.218  13.445
48103W        W16321   3.769   7.145  12.350
48104W        W16322  31.547  23.483  12.782
48105W        W16323   8.860  20.004   3.162
48106W        W16324  14.192  23.998  10.746
48107W        W16325  15.816  13.269   3.873
48108W        W16326   6.968  28.419  10.734
48109W        W16327  24.612  26.731   2.032
48110W        W16328  14.067  20.067  10.531
48111W        W16329  11.668  15.736   1.500
48112W        W16330  34.069  13.865   0.520
48113W        W16331  30.653  10.750  12.447
48114W        W16332  44.054  35.003   1.329
48115W        W16333  13.845  19.703  12.003
48116W        W16334  37.267  29.788  13.588
48117W        W16335  28.022  39.729  13.646
48118W        W16336  42.337  41.564  14.410
48119W        W16337   7.115  32.526  12.968
48120W        W16338   1.431  22.972   0.407
48121W        W16339  44.054   8.376   2.315
48122W        W16340  17.763  37.433   3.305
48123W        W16341  33.651  26.922  12.345
48124W        W16342   8.824   3.742   3.327
48125W        W16343  24.471  40.022   2.653
48126W        W16344   9.702  13.410   1.860
48127W        W16345  16.141   9.904  12.011
48128W        W16346  33.181  27.711   1.365
48129W        W16347  36.286  32.636  11.096
48130W        W16348  37.806  44.842   3.842
48131W        W16349  31.894  31.833   1.681
48132W        W16350  14.084  18.711   2.363
48133W        W16351  11.181  41.900   4.852
48134W        W16352  14.837  20.193   1.384
48135W        W16353  27.353  43.739   2.128
48136W        W16354  15.090  34.145  11.530
48137W        W16355  35.965  19.155   3.054
48138W        W16356  42.848   6.827   3.767
48139W        W16357  25.585  43.373   1.014
48140W        W16358  21.527  37.497  11.122
48141W        W16359   2.763  14.747   4.067
48142W        W16360   6.162  20.806  11.492
48143W        W16361  43.527  34.568  10.241
48144W        W16362  15.176  42.544  13.911
48145W        W16363   4.246  22.692   1.294
48146W        W16364  22.675  24.959  13.457
48147W        W16365   2.934   8.876  14.863
48148W        W16366  28.176  42.835   1.772
48149W        W16367  26.917  10.150  13.331
48150W        W16368  37.177  24.113   2.226
48151W        W16369  17.702  31.101   2.810
48152W        W16370  26.695  41.569   1.315
48153W        W16371  11.088  15.239   0.011
48154W        W16372  13.364   8.108   1.629
48155W        W16373  10.444  25.419  10.848
48156W        W16374   6.751  25.120   2.198
48157W        W16375  24.666  26.602  12.390
48158W        W16376  24.530  36.491  10.710
48159W        W16377  28.041  28.711  13.098
48160W        W16378   3.054  15.161  12.804
48161W        W16379  31.801  13.610  12.276
48162W        W16380  41.865   0.582   1.342
48163W        W16381   7.057  35.972   2.859
48164W        W16382  27.739  34.546  10.694
48165W        W16383  14.322   5.284   3.373
48166W        W16384  35.440   2.055  10.409
48167W        W16385  12.608   1.889   3.519
48168W        W16386  41.040  36.907   1.874
48169W        W16387  30.340   2.800  14.563
48170W        W16388   9.205  13.726   2.210
48171W        W16389  15.477  38.734  11.453
48172W        W16390  44.170  32.748  11.589
48173W        W16391  34.294  43.543   3.596
48174W        W16392  14.963  15.760   3.671
48175W        W16393  33.593  14.087   2.162
48176W        W16394  28.943  37.475   0.136
48177W        W16395  24.251  43.355   3.445
48178W        W16396  35.988  31.320  13.513
48179W        W16397  31.626  30.471   0.636
48180W        W16398  14.545  17.144   1.686
48181W        W16399  30.109  18.882   3.089
48182W        W16400  19.966  19.111  14.866
48183W        W16401   0.515  18.627  12.525
48184W        W16402  35.714  19.067   1.263
48185W        W16403  34.512  13.098   1.309
48186W        W16404  22.604  24.008  11.138
48187W        W16405  27.928  15.850   1.266
48188W        W16406   5.884  12.523  12.077
48189W        W16407  35.116  18.864   0.497
48190W        W16408  14.317   7.939   3.265
48191W        W16409  20.541   4.797  12.095
48192W        W16410   3.417  37.622  10.917
48193W        W16411  30.650  27.260  10.711
48194W        W16412  31.228  18.670  11.428
48195W        W16413  10.209  10.696   1.932
48196W        W16414   6.317  33.938   4.105
48197W        W16415  26.113  14.940  14.525
48198W        W16416  29.659  34.468   3.225
48199W        W16417  31.978  38.529   3.728
48200W        W16418  36.467  43.271   3.235
48201W        W16419  40.334   6.367   0.857
48202W        W16420  21.147  34.891   2.299
48203W        W16421  33.026  31.460  11.174
48204W        W16422  41.487   0.236  11.969
48205W        W16423  36.580   4.836  11.432
48206W        W16424  25.838  12.273  13.761
48207W        W16425  13.904  25.778  12.948
48208W        W16426  27.525  19.166   4.077
48209W        W16427  27.136  14.403   3.228
48210W        W16428  16.814  10.097  10.700
48211W        W16429   4.324  41.778  12.342
48212W        W16430  25.476   2.418  11.763
48213W        W16431  30.734   8.383   1.671
48214W        W16432   7.806  15.801   0.776
48215W        W16433  20.479  24.186   4.683
48216W        W16434  30.636  40.870   2.438
48217W        W16435   8.865  38.840  11.608
48218W        W16436  36.550  12.753  12.106
48219W        W16437  44.248  18.784   1.008
48220W        W16438  20.438   8.126  13.003
48221W        W16439   8.151  33.203   2.680
48222W        W16440  27.451   9.460   3.440
48223W        W16441  21.868  33.919   0.369
48224W        W16442  35.864  40.780   3.119
48225W        W16443  25.443  27.502   3.460
48226W        W16444  42.390  27.628  13.927
48227W        W16445  29.919  32.953   0.224
48228W        W16446  10.244  21.104  10.849
48229W        W16447   2.890  19.094  14.393
48230W        W16448   5.466  30.613   2.476
48231W        W16449  17.192  38.847   5.034
48232W        W16450  24.588   5.187  10.990
48233W        W16451  12.422  19.654   2.387
48234W        W16452  25.766  33.939  10.788
48235W        W16453  26.783   1.232  11.507
48236W        W16454  42.475  27.545  12.537
48237W        W16455  29.973   7.284  14.327
48238W        W16456  34.892  24.679   0.685
48239W        W16457   0.502   0.545   3.942
48240W        W16458  35.078  14.734  11.529
48241W        W16459  30.438  10.142   3.750
48242W        W16460   9.313  10.862  12.896
48243W        W16461  39.442  38.415   0.555
48244W        W16462   8.398  36.419   1.909
48245W        W16463  41.393   6.395  11.169
48246W        W16464  37.340  29.903  12.561
48247W        W16465  28.777  34.612  13.446
48248W        W16466  23.556  19.539  10.657
48249W        W16467  23.497   8.882   1.256
48250W        W16468   1.266  15.942   3.990
48251W        W16469   7.245  30.558  12.450
48252W        W16470   7.308  24.633  11.948
48253W        W16471  32.305  42.827  12.596
48254W        W16472  14.586  26.756  12.386
48255W        W16473  30.074  22.979   2.914
48256W        W16474   2.325   2.305  14.781
48257W        W16475  38.081  14.792   0.994
48258W        W16476  26.678  24.299  11.629
48259W        W16477   6.634  28.073  12.326
48260W        W16478  44.710  23.485  10.694
48261W        W16479  13.153   5.725  12.146
48262W        W16480  24.392  30.075   2.893
48263W        W16481   6.287  21.773   4.492
48264W        W16482  16.811  13.647   3.656
48265W        W16483   8.254  28.448   1.570
48266W        W16484  12.752  26.549   1.788
48267W        W16485  15.697  34.904   0.840
48268W        W16486  23.218  30.540   4.899
48269W        W16487  20.766  14.143  10.118
48270W        W16488  14.829  40.608  12.814
48271W        W16489  14.666  11.419  13.491
48272W        W16490   2.231  44.399  10.032
48273W        W16491  17.853  16.720   9.984
48274W        W16492  35.529   9.298   1.370
48275W        W16493  23.473  11.372  14.319
48276W        W16494  34.686  36.488   0.740
48277W        W16495  43.578  27.173  12.159
48278W        W16496   4.012  27.681  14.926
48279W        W16497  23.079  33.656  13.810
48280W        W16498  34.817  32.520   2.287
48281W        W16499   0.383  25.412   4.178
48282W        W16500  40.302  42.514  14.092
48283W        W16501  27.533  12.491   0.838
48284W        W16502  37.471  38.902   2.853
48285W        W16503  43.003   7.015   0.688
48286W        W16504  34.896   3.197  10.128
48287W        W16505  16.573   8.748  12.948
48288W        W16506   9.845  12.786   2.791
48289W        W16507  43.952  17.039  14.981
48290W        W16508  31.667  25.661  14.446
48291W        W16509  30.436  12.596  12.095
48292W        W16510  41.844  23.744   0.993
48293W        W16511  36.987   5.788   0.203
48294W        W16512  40.373   0.070  14.066
48295W        W16513  43.682  35.077  10.383
48296W        W16514  15.763  35.869   0.104
48297W        W16515  18.725  44.116  13.244
48298W        W16516  24.846   3.450   4.591
48299W        W16517  30.234   8.968  12.560
48300W        W16518   3.249  41.834   3.303
48301W        W16519  12.724  21.696   3.721
48302W        W16520  26.577  17.839  14.114
48303W        W16521  10.586   8.840  11.188
48304W        W16522  41.052   1.713   2.285
48305W        W16523   3.312  27.015   4.130
48306W        W16524  33.423  39.907   2.769
48307W        W16525   6.855   7.884   3.945
48308W        W16526  21.132   8.483  10.462
48309W        W16527  17.183  36.078   0.911
48310W        W16528  21.064   3.914   2.408
48311W        W16529  19.494  40.948   0.550
48312W        W16530  44.077  37.077  14.938
48313W        W16531  38.607  13.598  11.598
48314W        W16532  28.486  43.502  12.835
48315W        W16533  27.875  39.946   0.921
48316W        W16534  37.101  42.259   2.756
48317W        W16535  10.222   7.621   0.025
48318W        W16536   2.618  33.630  14.793
48319W        W16537  21.806  14.371   0.268
48320W        W16538  11.877   9.666   0.241
48321W        W16539  14.275  21.007   1.897
48322W        W16540   6.844  22.129  13.130
48323W        W16541   4.133  40.286  11.053
48324W        W16542  32.450  40.175  14.975
48325W        W16543  17.323  10.334  12.825
48326W        W16544   0.196  32.109   2.431
48327W        W16545  22.132  43.935  14.021
48328W        W16546   7.773  18.982  10.596
48329W        W16547   8.829  21.647  11.209
48330W        W16548  40.282   6.389   2.507
48331W        W16549  18.632  40.755   3.736
48332W        W16550  14.522  38.412  11.618
48333W        W16551   6.545   4.835   3.666
48334W        W16552  44.932   1.453  13.808
48335W        W16553  23.995   3.109   3.594
48336W        W16554  26.219  26.756   0.481
48337W        W16555  14.735  43.293   9.813
48338W        W16556  40.841  10.283   9.958
48339W        W16557  15.344  23.414  13.200
48340W        W16558  14.958  25.562  14.251
48341W        W16559  20.617  22.114   3.123
48342W        W16560  41.640  44.060  14.468
48343W        W16561  22.614  19.292   0.213
48344W        W16562   1.392  19.335  12.077
48345W        W16563  22.305  44.514  12.958
48346W        W16564  11.628  21.314   3.155
48347W        W16565  25.998  18.868  13.028
48348W        W16566  24.908  33.816  12.142
48349W        W16567   5.970  19.103  14.287
48350W        W16568  23.547  34.551  10.217
48351W        W16569  34.933   3.169   2.843
48352W        W16570  32.637  12.348   4.245
48353W        W16571  35.609  32.405  10.550
48354W        W16572  44.829  13.994  11.119
48355W        W16573  14.566  21.526  14.385
48356W        W16574   0.941  25.943  11.974
48357W        W16575   1.699  15.748   1.871
48358W        W16576   1.890  44.333   2.367
48359W        W16577  21.423  33.133  13.445
48360W        W16578  35.010  41.308  13.607
48361W        W16579  40.442  29.938   3.195
48362W        W16580  27.508  24.281   0.936
48363W        W16581  29.652  21.194   0.672
48364W        W16582  10.648  36.038  11.136
48365W        W16583  31.173  11.330  10.586
48366W        W16584  44.577   8.093  12.820
48367W        W16585  32.456  22.084   4.166
48368W        W16586   8.891  30.961   2.847
48369W        W16587   4.411  24.520   2.243
48370W        W16588  18.683  32.524  10.502
48371W        W16589  21.787  35.062  11.646
48372W        W16590  16.631   3.710  14.445
48373W        W16591  12.691  11.714   0.201
48374W        W16592  36.315  29.986   3.179
48375W        W16593  17.366  22.045  13.507
48376W        W16594  13.936  43.746   2.676
48377W        W16595  41.075  44.411   1.812
48378W        W16596   0.065  23.600   0.457
48379W        W16597   8.775  44.324   1.983
48380W        W16598  36.007   4.702  12.932
48381W        W16599  36.461  17.396   0.790
48382W        W16600  33.449  21.836   3.782
48383W        W16601  11.777  20.112  12.012
48384W        W16602   3.777  31.536  11.111
48385W        W16603   7.373   5.912  11.647
48386W        W16604  41.887  27.860   3.751
48387W        W16605  12.284  30.580  12.885
48388W        W16606  38.765  27.940   2.418
48389W        W16607   0.063  30.570  11.534
48390W        W16608   1.297  31.037  14.844
48391W        W16609  44.202   8.890  13.415
48392W        W16610   2.062  18.056  14.681
48393W        W16611   4.227  29.970   4.575
48394W        W16612  12.648   0.505  13.556
48395W        W16613  24.911  44.534  11.367
48396W        W16614  42.064  22.467   2.330
48397W        W16615  26.157  10.859   2.403
48398W        W16616  38.550  29.571   3.729
48399W        W16617  36.789  29.419  11.057
48400W        W16618   6.160  37.866  13.129
48401W        W16619   6.694  22.763  14.014
48402W        W16620   0.463  10.265  10.476
48403W        W16621   9.138  33.233  13.130
48404W        W16622  22.036  18.053   3.617
48405W        W16623  14.404  13.652   3.681
48406W        W16624  18.396  38.000  14.899
48407W        W16625  38.524  29.248  12.618
48408W        W16626  36.164  23.871   0.549
48409W        W16627  11.696  22.539   3.765
48410W        W16628  27.672  16.993   3.180
48411W        W16629  41.216   8.303  14.790
48412W        W16630  26.391  37.926   2.784
48413W        W16631  25.536  29.682  10.738
48414W        W16632   9.137  29.899  14.439
48415W        W16633  12.048  38.373  11.030
48416W        W16634  17.096   5.898   0.954
48417W        W16635  30.387  21.796   0.424
48418W        W16636  44.059  22.724   1.289
48419W        W16637  43.017  32.108   4.643
48420W        W16638  21.109   5.277  13.340
48421W        W16639   0.675   7.733   0.416
48422W        W16640  18.223  38.573  10.599
48423W        W16641   3.840  21.146  14.958
48424W        W16642  19.538  38.074  11.512
48425W        W16643  28.833  26.670  12.845
48426W        W16644  15.631  40.499   0.422
48427W        W16645  26.501  13.944  11.479
48428W        W16646  35.005  20.844   1.007
48429W        W16647  14.661   6.718  12.949
48430W        W16648  13.439  13.686  13.805
48431W        W16649  10.425   2.693  13.403
48432W        W16650  39.103   5.222  10.871
48433W        W16651  39.887  31.417   4.332
48434W        W16652  21.635   0.077   3.237
48435W        W16653  13.197  28.957  13.052
48436W        W16654   0.997  17.401   0.806
48437W        W16655   9.202  23.557  13.920
48438W        W16656  13.493  28.204  10.781
48439W        W16657   1.991  40.980   0.818
48440W        W16658   2.700  42.459  14.477
48441W        W16659  33.533   8.741  10.922
48442W        W16660  43.366  26.686  13.416
48443W        W16661  27.041  23.454   3.685
48444W        W16662  15.268  14.227  10.639
48445W        W16663  44.710  42.879  10.069
48446W        W16664  31.704  41.017   3.855
48447W        W16665  19.812  12.770   1.987
48448W        W16666   4.941  26.488  11.163
48449W        W16667  33.382  33.958  13.042
48450W        W16668  44.853   8.267   4.907
48451W        W16669  42.448  24.123  14.202
48452W        W16670  28.193  19.796   4.533
48453W        W16671  14.890  27.725   1.950
48454W        W16672  12.336  30.839   1.036
48455W        W16673  18.919  18.964   1.339
48456W        W16674  17.261  11.209   2.862
48457W        W16675   9.915  44.337  14.401
48458W        W16676  40.243  25.270  12.806
48459W        W16677  12.175  24.268  10.878
48460W        W16678  44.950  17.526  12.577
48461W        W16679  39.068   8.402   4.048
48462W        W16680  29.643  26.615  10.282
48463W        W16681  42.697  29.097  12.830
48464W        W16682  38.997  42.784  10.705
48465W        W16683  12.698  11.574  10.593
48466W        W16684  33.941  27.031  14.383
48467W        W16685   0.190  10.396   2.873
48468W        W16686   6.902  11.607  11.605
48469W        W16687  40.434  19.768  12.162
48470W        W16688  12.477  10.265  12.073
48471W        W16689  36.334  14.016   0.250
48472W        W16690   6.020  29.616   4.941
48473W        W16691  24.995  23.058  12.881
48474W        W16692   2.782  35.505  14.558
48475W        W16693  14.124  41.075  12.416
48476W        W16694  27.033   7.725  12.920
48477W        W16695   3.620   0.912  14.256
48478W        W16696  23.164  26.222   0.432
48479W        W16697  30.073  19.041  14.542
48480W        W16698  17.752   1.559   0.767
48481W        W16699   4.428  12.393   2.277
48482W        W16700  21.538   6.211  12.492
48483W        W16701  32.610  13.733  10.977
48484W        W16702  31.204   5.750   0.287
48485W        W16703  11.227  16.566  14.366
48486W        W16704  33.589  42.489   1.421
48487W        W16705  43.048  11.096   0.282
48488W        W16706  11.804  43.827   0.376
48489W        W16707  39.576   3.000  14.550
48490W        W16708  11.199  42.838  13.508
48491W        W16709  39.041   7.755  13.425
48492W        W16710   6.824  42.300   4.217
48493W        W16711   0.072  37.456   3.462
48494W        W16712  28.279  13.846  11.911
48495W        W16713  25.602  12.184   4.758
48496W        W16714  21.005   1.714  14.008
48497W        W16715  15.259   2.865  13.892
48498W        W16716  17.350  19.984   3.132
48499W        W16717  36.468  16.081  10.828
48500W        W16718  14.309  21.214   1.254
48501W        W16719  35.456  30.416  14.399
48502W        W16720  16.720  25.119   0.040
48503W        W16721  33.621  23.912  11.415
48504W        W16722  32.112  42.568   1.257
48505W        W16723   0.105   2.917   4.214
48506W        W16724  22.627  36.351   2.925
48507W        W16725  30.377  34.613   0.354
48508W        W16726  15.615  44.569  14.860
48509W        W16727  35.131  39.268  10.711
48510W        W16728  43.195  15.205  14.417
48511W        W16729  26.355  34.527  10.483
48512W        W16730  32.846   5.978  13.035
48513W        W16731   8.746  28.632  14.712
48514W        W16732  18.193   9.509   4.584
48515W        W16733   8.193  30.081   0.497
48516W        W16734  27.060  14.274  13.601
48517W        W16735  38.771  29.998  13.794
48518W        W16736  26.113  28.978  14.285
48519W        W16737  40.388  27.132   3.325
48520W        W16738  33.934  14.289  11.507
48521W        W16739   3.211   3.750   0.259
48522W        W16740  14.851  22.641   1.234
48523W        W16741  18.681  44.503  14.217
48524W        W16742   6.708  41.996   1.227
48525W        W16743  41.368  10.659   0.311
48526W        W16744  11.843  37.048   2.829
48527W        W16745   4.331   3.784  14.546
48528W        W16746  27.425  24.111   2.781
48529W        W16747   2.916  36.788  13.548
48530W        W16748   1.879   8.219  10.769
48531W        W16749  21.119  39.367   3.601
48532W        W16750  21.264   4.166   0.308
48533W        W16751  25.502   5.963   2.659
48534W        W16752  12.650  26.960  13.487
48535W        W16753  37.612  29.106  14.426
48536W        W16754   1.035  37.662  13.510
48537W        W16755  16.578  39.054  12.452
48538W        W16756  25.969  27.976   1.673
48539W        W16757   0.255  15.750   2.700
48540W        W16758   2.342  25.184  10.690
48541W        W16759   6.289  26.981  14.697
48542W        W16760  44.536  32.583  11.262
48543W        W16761  17.871  12.904   2.306
48544W        W16762  21.744   9.230   3.219
48545W        W16763   5.981  39.641  11.646
48546W        W16764  22.176  34.151  13.765
48547W        W16765  35.540  24.485   0.771
48548W        W16766  15.081  34.452  12.090
48549W        W16767  44.652  20.777   4.133
48550W        W16768  37.632  17.636  14.370
48551W        W16769  31.419  11.827  10.680
48552W        W16770  42.990   2.275  11.464
48553W        W16771   1.011  30.231  14.853
48554W        W16772  38.529  39.563   2.302
48555W        W16773  29.149   2.309  10.989
48556W        W16774  14.834  44.317   2.213
48557W        W16775  21.170  38.321  11.405
48558W        W16776   2.783  32.430  14.448
48559W        W16777  42.707  39.464  14.678
48560W        W16778  15.547  16.682  14.534
48561W        W16779  43.308  38.053  12.079
48562W        W16780  11.730  20.052  14.938
48563W        W16781  24.650  19.768   2.890
48564W        W16782  25.944  24.749   2.209
48565W        W16783  10.247  23.839   3.556
48566W        W16784  15.187  34.984  11.397
48567W        W16785   0.362  28.185  10.615
48568W        W16786  11.156  22.402  13.373
48569W        W16787  17.054  11.704  13.558
48570W        W16788   4.396  25.620   0.945
48571W        W16789  38.493  40.755  10.647
48572W        W16790  44.249  34.806  11.555
48573W        W16791  13.768  24.229   1.807
48574W        W16792  18.806  25.979   1.215
48575W        W16793  41.124  39.859  14.570
48576W        W16794  33.548   5.898   4.388
48577W        W16795  18.218  16.022   3.615
48578W        W16796  43.234  40.260  14.021
48579W        W16797   0.462  38.004   2.188
48580W        W16798  42.026   1.776  13.362
48581W        W16799   7.929  38.005  10.634
48582W        W16800  43.812  39.523  12.642
48583W        W16801   6.658  33.607  14.322
48584W        W16802  28.482  11.101   1.452
48585W        W16803  43.145  28.933  14.236
48586W        W16804  24.410  19.765   0.853
48587W        W16805  31.235   2.421   3.684
48588W        W16806  36.435  24.448   2.855
48589W        W16807  34.853  30.551   3.626
48590W        W16808  40.869   5.844  12.362
48591W        W16809   6.321  16.036  11.583
48592W        W16810  20.221  38.379   4.093
48593W        W16811   6.693  32.121   4.121
48594W        W16812  21.631  20.638  14.495
48595W        W16813   9.695  31.175  11.929
48596W        W16814  15.178  41.072  10.946
48597W        W16815  30.101   5.945   3.390
48598W        W16816  27.177  18.193  12.975
48599W        W16817  35.356  29.281  11.585
48600W        W16818  32.652  24.191   2.260
48601W        W16819  40.525  28.628  14.715
48602W        W16820  31.962  44.431  10.869
48603W        W16821  17.159   4.667  14.394
48604W        W16822  10.127  39.007   3.776
48605W        W16823  15.088  40.601  12.225
48606W        W16824   3.979  15.745  11.438
48607W        W16825   7.112  25.054   3.294
48608W        W16826  12.809  26.188   4.559
48609W        W16827   7.129  14.371   0.497
48610W        W16828  10.164  31.798   2.710
48611W        W16829   8.089  19.082  11.924
48612W        W16830  17.179  38.398   2.305
48613W        W16831  19.089  42.460   1.373
48614W        W16832   7.595  41.348  14.330
48615W        W16833   8.178   2.405  12.581
48616W        W16834  12.741  38.383  14.513
48617W        W16835  33.427   5.678  11.044
48618W        W16836  12.395  33.606  11.080
48619W        W16837  21.204  24.681   1.869
48620W        W16838  17.983  33.451  13.344
48621W        W16839  25.546   3.804  12.481
48622W        W16840  40.840  18.351  11.671
48623W        W16841  28.763   9.349   4.409
48624W        W16842  43.858   0.420  10.709
48625W        W16843  10.148  26.054   4.585
48626W        W16844  35.017  28.380  13.387
48627W        W16845   2.779  20.088   4.639
48628W        W16846  31.715  13.565   1.927
48629W        W16847  23.522  15.610   2.924
48630W        W16848  23.692  20.603  12.118
48631W        W16849  29.200  43.762  10.723
48632W        W16850  25.909  17.188   2.767
48633W        W16851  30.241  41.974   0.519
48634W        W16852  17.121  11.731   0.123
48635W        W16853  43.250  14.916   0.442
48636W        W16854  25.296   9.839   1.399
48637W        W16855  23.768   7.654   4.363
48638W        W16856  20.088  43.962  11.291
48639W        W16857  15.622  10.497  11.527
48640W        W16858  35.869  36.076   2.705
48641W        W16859  20.405  43.800  14.881
48642W        W16860  27.174  26.082  10.960
48643W        W16861  41.436  23.694   2.697
48644W        W16862  19.357  33.369   1.899
48645W        W16863  43.905  21.876  14.411
48646W        W16864  22.656  39.289   3.756
48647W        W16865  19.251  22.556  13.478
48648W        W16866  21.133   6.200   4.539
48649W        W16867  34.121  23.826  11.652
48650W        W16868  17.593  24.591  12.867
48651W        W16869  19.462  13.892   2.306
48652W        W16870  40.907   8.871   2.337
48653W        W16871  35.107  27.408  13.840
48654W        W16872  40.291   4.139  10.725
48655W        W16873  34.027  17.117   2.284
48656W        W16874  33.569  11.965   3.630
48657W        W16875  41.934  29.103   4.231
48658W        W16876  37.332  13.743   1.485
48659W        W16877  16.880  10.640   3.787
48660W        W16878  32.478   2.799   2.169
48661W        W16879   5.830  44.150   0.305
48662W        W16880  34.157  17.681  12.834
48663W        W16881  14.204  23.804  14.300
48664W        W16882  31.859  23.610   0.758
48665W        W16883  10.915  24.950  12.438
48666W        W16884  22.167  37.705  12.935
48667W        W16885  35.577  29.548   0.065
48668W        W16886  12.283   1.374  11.664
48669W        W16887  39.696  34.091  14.436
48670W        W16888   5.182  11.107   2.782
48671W        W16889  27.121  32.586  13.919
48672W        W16890   2.956  27.527  11.840
48673W        W16891  38.608  17.772  12.284
48674W        W16892  21.314  32.948  10.603
48675W        W16893   6.440  26.410  14.026
48676W        W16894   3.398  29.917   2.680
48677W        W16895  12.657  34.470   1.494
48678W        W16896  14.315  15.584   5.049
48679W        W16897  18.976  18.073  13.004
48680W        W16898  40.267  33.419  11.051
48681W        W16899  23.684  32.156   3.294
48682W        W16900  21.659  36.690   5.412
48683W        W16901   3.504  43.719   0.483
48684W        W16902  17.240  44.181  11.969
48685W        W16903  41.818  42.795   1.419
48686W        W16904  31.963  10.139  14.859
48687W        W16905  28.010  22.336   1.856
48688W        W16906  31.486  22.808  11.699
48689W        W16907  43.820  32.039  11.908
48690W        W16908   8.192  36.330  14.011
48691W        W16909  16.225  36.737   3.593
48692W        W16910  35.790  32.134  13.970
48693W        W16911  20.764  28.858  11.207
48694W        W16912  40.451  42.573   2.706
48695W        W16913   0.218  30.795  13.781
48696W        W16914   3.465  22.150  11.952
48697W        W16915  18.528  37.381   1.054
48698W        W16916  30.582  30.746   0.678
48699W        W16917  14.526  33.026  14.037
48700W        W16918  33.437  11.892   0.288
48701W        W16919  32.859  43.484   3.212
48702W        W16920  36.852   7.147  11.779
48703W        W16921  15.603  15.275  11.130
48704W        W16922  16.591  43.537   3.874
48705W        W16923   1.751  22.173  13.802
48706W        W16924  27.747  10.082  11.813
48707W        W16925  41.487  39.025   0.829
48708W        W16926  37.560  10.571  12.483
48709W        W16927  41.342   3.572  10.631
48710W        W16928  36.936  44.627  10.720
48711W        W16929  40.067  20.673  13.016
48712W        W16930  24.952  13.389   0.744
48713W        W16931   0.487  41.603   0.734
48714W        W16932  22.437  20.131   3.890
48715W        W16933  22.269   5.790   3.165
48716W        W16934  19.763   6.462   4.533
48717W        W16935  30.023  27.486   1.979
48718W        W16936  20.117   8.728   1.477
48719W        W16937  27.460  33.011  10.896
48720W        W16938  24.404  32.953   9.916
48721W        W16939   4.589  44.477  11.109
48722W        W16940  15.641  41.292  10.079
48723W        W16941  22.547  15.201   0.446
48724W        W16942   0.415   6.421   0.380
48725W        W16943   5.970  36.598  13.824
48726W        W16944  43.511  29.902  14.460
48727W        W16945  24.043  41.796   0.216
48728W        W16946  40.975  19.148   4.814
48729W        W16947   0.864  17.085  11.074
48730W        W16948   4.740  44.823  13.850
48731W        W16949   6.295  26.513   9.969
48732W        W16950  19.060  15.318  12.469
48733W        W16951  25.636  21.892   2.286
48734W        W16952   8.438  38.111  13.370
48735W        W16953  26.950  36.428  14.379
48736W        W16954   0.114  31.171  11.184
48737W        W16955  42.074   7.352   3.099
48738W        W16956  20.976  12.788   3.351
48739W        W16957   5.404  24.171  11.178
48740W        W16958   8.328  31.801  12.856
48741W        W16959   7.311  19.751  14.000
48742W        W16960  25.460  24.959  11.125
48743W        W16961   2.304  42.879   4.465
48744W        W16962  10.775   0.763  13.784
48745W        W16963   6.430  32.178   4.544
48746W        W16964  10.940   8.775  12.117
48747W        W16965  38.999  15.204  13.770
48748W        W16966  43.009   2.495   1.796
48749W        W16967  12.239  13.833  14.539
48750W        W16968   5.888  28.213   4.021
48751W        W16969  43.295  21.456   0.942
48752W        W16970  13.852   3.294  10.666
48753W        W16971  30.213  18.658   1.783
48754W        W16972  10.172  34.622   4.404
48755W        W16973   8.327  21.495   0.513
48756W        W16974  21.257  31.992   5.050
48757W        W16975  28.847  28.462   2.343
48758W        W16976   5.431  43.719   3.230
48759W        W16977  30.232   8.137   2.779
48760W        W16978  39.503  14.037   0.375
48761W        W16979  28.488  17.380  13.594
48762W        W16980  17.147  24.932  14.790
48763W        W16981   1.284  14.304  14.294
48764W        W16982  44.801  38.487   4.210
48765W        W16983   1.274  16.730  12.995
48766W        W16984  28.642  18.864   0.455
48767W        W16985  33.964  33.794  11.105
48768W        W16986   7.359  18.004  12.401
48769W        W16987  35.922  24.096   3.080
48770W        W16988   2.447  12.287   1.823
48771W        W16989  35.600  34.173  10.796
48772W        W16990  23.727  21.550   4.046
48773W        W16991  33.654  24.837   0.850
48774W        W16992  11.604  37.572  13.924
48775W        W16993  22.077  31.611  13.987
48776W        W16994  26.446   8.147   0.762
48777W        W16995   0.939   7.878   3.738
48778W        W16996  23.235  41.874  10.823
48779W        W16997  33.406  30.378  10.208
48780W        W16998  32.940  12.630   0.446
48781W        W16999  42.055  33.894   0.704
48782W        W17000  40.491   5.957  13.783
48783W        W17001  14.177  43.399   3.611
48784W        W17002  41.721   9.724   1.594
48785W        W17003  37.868   9.951   0.790
48786W        W17004   1.647  43.448   3.660
48787W        W17005  14.186   3.951   1.513
48788W        W17006   7.461  10.294  13.080
48789W        W17007  17.050  11.632  12.330
48790W        W17008  28.168  15.010   4.020
48791W        W17009  40.032  22.742   3.149
48792W        W17010  20.334  41.384  14.580
48793W        W17011   7.145  40.509   0.955
48794W        W17012  21.576  28.100   3.346
48795W        W17013  19.190  15.138   5.464
48796W        W17014  10.678  41.421   4.484
48797W        W17015  34.397   4.938  11.434
48798W        W17016  29.662   0.809  14.724
48799W        W17017  23.978   5.216  14.347
48800W        W17018   0.663  17.892  10.449
48801W        W17019   8.377  11.586   1.778
48802W        W17020  38.459   5.299   4.089
48803W        W17021  26.958  40.546   0.159
48804W        W17022   4.317  15.512  13.343
48805W        W17023  33.147  29.631   3.311
48806W        W17024  18.616   6.324   5.023
48807W        W17025  11.209  30.415  11.042
48808W        W17026  14.693   4.603   1.929
48809W        W17027  32.532  14.933   3.207
48810W        W17028  36.211   9.867   1.417
48811W        W17029  25.593   8.990  12.023
48812W        W17030  27.966  41.460  10.706
48813W        W17031  17.951  35.376   1.877
48814W        W17032   7.085  30.690   2.831
48815W        W17033  42.425   3.312   3.557
48816W        W17034   2.544  25.018   4.669
48817W        W17035   8.417  33.823  10.723
48818W        W17036  20.633  38.000   0.449
48819W        W17037  36.063  38.890   4.564
48820W        W17038   4.398  36.867  11.140
48821W        W17039  42.358  22.378  13.461
48822W        W17040  15.308  29.180   1.375
48823W        W17041  12.977  17.774   4.373
48824W        W17042   7.298  23.514   1.733
48825W        W17043  15.120   6.404   3.389
48826W        W17044   5.727   5.438   4.161
48827W        W17045  22.703  14.082  11.560
48828W        W17046  21.720  38.909  14.734
48829W        W17047  22.568  30.065  11.046
48830W        W17048  31.456  11.250  13.660
48831W        W17049   2.911   4.197  11.609
48832W        W17050  27.929  44.444  11.637
48833W        W17051  16.376   5.474   1.218
48834W        W17052  36.002   5.178   3.947
48835W        W17053  44.804  42.914   1.779
48836W        W17054  14.095  14.929  12.952
48837W        W17055   1.294   5.772   2.809
48838W        W17056  27.335  13.675   2.193
48839W        W17057  22.260  20.292   2.741
48840W        W17058   2.382  14.624   0.009
48841W        W17059  33.264  12.652   2.290
48842W        W17060  21.135  28.405   0.739
48843W        W17061  11.281   6.210  11.995
48844W        W17062  43.801  11.807  11.949
48845W        W17063  12.241  41.298  13.611
48846W        W17064  40.649  37.065  11.698
48847W        W17065  15.733  14.616   4.586
48848W        W17066  14.855  39.552   2.822
48849W        W17067   2.211  41.426   0.672
48850W        W17068   6.480  40.233  12.388
48851W        W17069   4.320  16.193   4.502
48852W        W17070  17.674  11.616  13.975
48853W        W17071  38.496  40.200  11.191
48854W        W17072  44.809  15.540   2.234
48855W        W17073   3.126  34.589  13.567
48856W        W17074  25.014  11.652   3.709
48857W        W17075   0.443  14.406  13.009
48858W        W17076  17.078  44.003  14.875
48859W        W17077   3.688  34.338   0.046
48860W        W17078  27.577   8.807   2.250
48861W        W17079   6.589  44.925   1.357
48862W        W17080  27.910  20.710   0.235
48863W        W17081  11.848  22.749   4.346
48864W        W17082  41.260   3.183   3.590
48865W        W17083   4.268  11.172   3.632
48866W        W17084  17.012  28.267   0.679
48867W        W17085  25.014  28.864   0.930
48868W        W17086  11.668   5.462  14.471
48869W        W17087  43.993  12.335   1.769
48870W        W17088  38.890  30.124  12.921
48871W        W17089  25.499   2.305  12.266
48872W        W17090   3.270  23.530  12.400
48873W        W17091  39.975  24.778   0.003
48874W        W17092  16.242  29.187   4.793
48875W        W17093  26.950  44.290  10.345
48876W        W17094   4.882  20.432   2.739
48877W        W17095  42.035  44.232   2.205
48878W        W17096  33.413  42.017   3.237
48879W        W17097  35.624   0.970  11.698
48880W        W17098   2.995  33.905  11.484
48881W        W17099  35.859  27.988   2.239
48882W        W17100  27.742  30.220   3.744
48883W        W17101  41.335   9.605  11.194
48884W        W17102  24.594  11.933  13.841
48885W        W17103  17.315  41.115  10.514
48886W        W17104  26.980   8.704   3.105
48887W        W17105  29.986   2.773  12.868
48888W        W17106  24.162  42.492  11.241
48889W        W17107  20.746   7.268   1.398
48890W        W17108  26.491  35.818   2.836
48891W        W17109  11.274  19.576   3.100
48892W        W17110  29.969  35.274   1.860
48893W        W17111  20.948  40.464  12.695
48894W        W17112  18.145  13.610  11.864
48895W        W17113  30.795   6.880  13.413
48896W        W17114   8.239  43.814   1.915
48897W        W17115  37.468   1.253  11.034
48898W        W17116  23.055  16.630  13.838
48899W        W17117  37.158  19.041   1.368
48900W        W17118   2.463  21.266  13.123
48901W        W17119  26.025  30.220  12.832
48902W        W17120  38.872  36.670   3.687
48903W        W17121  20.314  43.196  12.312
48904W        W17122   8.254  36.891  12.405
48905W        W17123  12.143   9.509  12.725
48906W        W17124  40.868  24.274   4.299
48907W        W17125  19.796  13.492   2.651
48908W        W17126  13.505  39.353   4.361
48909W        W17127  26.977   5.574   2.757
48910W        W17128  14.742  38.879  10.200
48911W        W17129  31.217  14.661  11.104
48912W        W17130  27.930  21.398  12.088
48913W        W17131   6.637   4.724   1.288
48914W        W17132   8.206  28.725   2.130
48915W        W17133  16.844  35.855   3.412
48916W        W17134   9.243   5.648  13.581
48917W        W17135  43.099  38.180   3.651
48918W        W17136   4.767  16.133   4.723
48919W        W17137  43.407   7.392   0.716
48920W        W17138  15.248   2.492  11.973
48921W        W17139  35.577  17.741  14.051
48922W        W17140   7.207   0.747  11.574
48923W        W17141  25.704   5.000   2.677
48924W        W17142  14.878  27.244   1.268
48925W        W17143  19.813   2.739  14.002
48926W        W17144  15.966  15.558   2.362
48927W        W17145  18.285   7.365  13.918
48928W        W17146   3.276  35.332   4.454
48929W        W17147  33.932  38.421  10.454
48930W        W17148  42.375  20.244  13.860
48931W        W17149  44.727  38.357  12.453
48932W        W17150  34.902  21.824   2.126
48933W        W17151  16.302  28.047   0.365
48934W        W17152   0.454  39.476  13.818
48935W        W17153  42.360  41.942   2.291
48936W        W17154  41.185  19.997   3.696
48937W        W17155   0.721  24.291  14.340
48938W        W17156  17.715  43.927   9.694
48939W        W17157  11.765  12.520   1.517
48940W        W17158   4.290   3.758  10.742
48941W        W17159  13.310  27.118  13.818
48942W        W17160  33.031  19.090  10.522
48943W        W17161  14.188  11.206   2.292
48944W        W17162  18.000  37.945   1.512
48945W        W17163   5.425   3.551  10.970
48946W        W17164   5.839   1.997  13.391
48947W        W17165  38.113  19.604   4.175
48948W        W17166   7.849  11.531   1.661
48949W        W17167  16.264  44.518  10.948
48950W        W17168  41.679  32.284  11.294
48951W        W17169  39.946  13.599  12.543
48952W        W17170  44.512  20.276   4.143
48953W        W17171  13.453  22.780  11.437
48954W        W17172  43.445  14.837   2.269
48955W        W17173  29.880  13.341  14.014
48956W        W17174  15.614  32.387   2.750
48957W        W17175  12.829   6.829   3.704
48958W        W17176  14.173  37.903   3.501
48959W        W17177  18.544  36.053  12.512
48960W        W17178  37.981  11.351  11.467
48961W        W17179  43.283  28.188  10.434
48962W        W17180  43.998  40.457   3.291
48963W        W17181   5.739   3.963   3.193
48964W        W17182  40.279  13.335   0.873
48965W        W17183  34.397  14.772  12.078
48966W        W17184  24.170  15.674   0.180
48967W        W17185  16.523  39.375   4.566
48968W        W17186  33.624  17.243  14.450
48969W        W17187  23.948  25.121   0.865
48970W        W17188  32.748  19.001  13.022
48971W        W17189  16.087  39.016  14.029
48972W        W17190  29.617   2.741   1.163
48973W        W17191  19.969  13.307  14.026
48974W        W17192  28.196   9.841   0.385
48975W        W17193   0.486   3.501  10.586
48976W        W17194   9.410  40.116  14.379
48977W        W17195   1.469  20.325  12.942
48978W        W17196  37.754  26.505   4.221
48979W        W17197   6.830  12.304  12.520
48980W        W17198  27.187  19.736  14.701
48981W        W17199  12.311  40.774   2.703
48982W        W17200   0.092  16.708   1.219
48983W        W17201  42.926  44.631   1.211
48984W        W17202   6.386  14.330  14.217
48985W        W17203  27.565   3.174   4.205
48986W        W17204  25.959   5.534  12.525
48987W        W17205  29.960  43.985  11.094
48988W        W17206  17.480   7.519  12.450
48989W        W17207  23.881  25.563   2.656
48990W        W17208  16.055  16.875   4.334
48991W        W17209  27.453  34.015   0.436
48992W        W17210   9.741  21.939   1.690
48993W        W17211  23.991  27.116  14.983
48994W        W17212  40.261   9.412   2.454
48995W        W17213   0.815  16.886  10.595
48996W        W17214   0.861  31.921  13.299
48997W        W17215   9.895  28.512  12.630
48998W        W17216  41.244  16.760   4.090
48999W        W17217  14.678   2.605   3.492
49000W        W17218  17.266   7.779  14.536
49001W        W17219  12.912   4.768  12.471
49002W        W17220  27.626  24.747   0.623
49003W        W17221  23.184  24.234  13.458
49004W        W17222   6.957  43.160   2.704
49005W        W17223  22.968   8.192   1.195
49006W        W17224  22.456  38.249  14.694
49007W        W17225   1.883  24.968  12.066
49008W        W17226  40.615  29.581  11.233
49009W        W17227  10.872   2.294  14.952
49010W        W17228  17.724  29.860  14.225
49011W        W17229  22.450   0.610  11.895
49012W        W17230   0.914  31.743   2.000
49013W        W17231  35.886   3.913  13.404
49014W        W17232   3.129   0.295   0.312
49015W        W17233  16.988  19.538  11.255
49016W        W17234   3.503  39.023   4.599
49017W        W17235  35.068  27.862  14.090
49018W        W17236   6.308   1.686  12.598
49019W        W17237  22.309  18.796  13.391
49020W        W17238  41.301  37.932   3.614
49021W        W17239  44.513  42.490   3.560
49022W        W17240  39.924  23.922  10.968
49023W        W17241  37.308   7.784  13.371
49024W        W17242  13.640  13.634   4.224
49025W        W17243  14.414   8.897   0.146
49026W        W17244  15.318  27.993   4.573
49027W        W17245  44.177   6.213   3.962
49028W        W17246  23.728  10.780  11.748
49029W        W17247  24.052  35.133   2.334
49030W        W17248  35.267   2.915   4.887
49031W        W17249  38.383  17.853   0.571
49032W        W17250  18.068   0.240  11.245
49033W        W17251  12.683   7.687   3.521
49034W        W17252  44.335  17.177  11.619
49035W        W17253  22.728   1.353   1.304
49036W        W17254  17.724  12.167  10.186
49037W        W17255   6.923  23.442  13.458
49038W        W17256  44.005  32.995  14.358
49039W        W17257  11.735   2.461  12.829
49040W        W17258  12.361   2.935   2.772
49041W        W17259   2.981   3.954  11.164
49042W        W17260   1.232  22.349   3.430
49043W        W17261  34.523  34.874  13.907
49044W        W17262   9.980  30.514   4.501
49045W        W17263   3.193  26.610  13.043
49046W        W17264  19.693  11.349  12.701
49047W        W17265  10.308  14.352   4.693
49048W        W17266  42.801  44.809  13.081
49049W        W17267  32.558  39.460   2.637
49050W        W17268  32.124  40.336  11.745
49051W        W17269   9.577   0.401  14.375
49052W        W17270  13.593  41.651  13.098
49053W        W17271  43.286  22.519  13.446
49054W        W17272  28.678  22.252  12.279
49055W        W17273  11.337   1.626   3.823
49056W        W17274   2.390  12.176   3.282
49057W        W17275  19.206   4.973  13.213
49058W        W17276  36.936  32.937   4.118
49059W        W17277   9.880  16.154  13.856
49060W        W17278  43.942   0.911   4.551
49061W        W17279  15.032  31.826   4.977
49062W        W17280  10.181  38.379  14.781
49063W        W17281  18.276  35.155  11.848
49064W        W17282  11.328   6.141   2.355
49065W        W17283  42.873   7.079   0.175
49066W        W17284   6.640  32.421  13.497
49067W        W17285  32.426  24.445  14.946
49068W        W17286  10.876  17.447  14.484
49069W        W17287  43.065  33.527  13.587
49070W        W17288  15.593  41.582   1.384
49071W        W17289  13.358  39.129  11.102
49072W        W17290  36.679  30.931   3.236
49073W        W17291  14.561   9.738  11.359
49074W        W17292  39.444   4.214  13.077
49075W        W17293  10.839  28.148   2.870
49076W        W17294  13.594  35.580  12.230
49077W        W17295  36.105  10.831   4.414
49078W        W17296  34.816   8.776   0.488
49079W        W17297  25.218  16.186   5.139
49080W        W17298  30.271  34.945   3.680
49081W        W17299  32.005  40.374   1.846
49082W        W17300  29.924  14.397   3.360
49083W        W17301   1.800  27.647   1.471
49084W        W17302  11.615  18.223  11.718
49085W        W17303  39.390  31.887  13.947
49086W        W17304  14.783  44.820   4.947
49087W        W17305  15.328  36.094  14.336
49088W        W17306  18.682  17.590  12.165
49089W        W17307  19.083  17.367   0.443
49090W        W17308  17.867   1.224   1.795
49091W        W17309  17.093   9.735  12.039
49092W        W17310  38.790   1.814   1.465
49093W        W17311  30.896  38.957   0.969
49094W        W17312  16.871  33.847   1.946
49095W        W17313  14.154   8.857   1.691
49096W        W17314   7.557  24.223  14.421
49097W        W17315  33.315  18.791   3.321
49098W        W17316  30.103  14.159  13.058
49099W        W17317   3.824  39.877   2.282
49100W        W17318  37.761  42.415   1.325
49101W        W17319  35.563  29.113  10.239
49102W        W17320   7.603  11.868   2.079
49103W        W17321  38.689  11.698   1.379
49104W        W17322   7.413   6.149  12.929
49105W        W17323  11.273  44.462  12.577
49106W        W17324  15.714   4.219  14.256
49107W        W17325  22.787  28.414   1.071
49108W        W17326  19.446  38.328   0.469
49109W        W17327  16.678   0.829   4.692
49110W        W17328   3.431  21.630  12.536
49111W        W17329   6.475   7.860   0.384
49112W        W17330  41.346  30.924   0.821
49113W        W17331  38.820  29.249  13.086
49114W        W17332  12.842   1.945  11.429
49115W        W17333   4.443   7.409  12.025
49116W        W17334   6.240  25.107   4.412
49117W        W17335  40.017   4.067  12.888
49118W        W17336  44.356  32.675  13.275
49119W        W17337  35.967  40.690  14.899
49120W        W17338   1.969  19.629  13.428
49121W        W17339  12.932  21.496   0.028
49122W        W17340  44.103  17.358   1.738
49123W        W17341  26.463   8.374  11.539
49124W        W17342   3.009  41.501  13.983
49125W        W17343  21.488  11.840   3.243
49126W        W17344  34.144  41.233   2.741
49127W        W17345  11.085   0.873  11.505
49128W        W17346  14.853  21.062   3.080
49129W        W17347  18.016  12.264  12.100
49130W        W17348  14.946  25.973  12.659
49131W        W17349  14.476  29.476   4.267
49132W        W17350  33.492  26.746   3.116
49133W        W17351  32.609  21.022  10.543
49134W        W17352   0.337  42.257  10.624
49135W        W17353  44.584  31.567   1.102
49136W        W17354  33.065  34.961   4.550
49137W        W17355  20.166  44.892   0.687
49138W        W17356   5.082  32.267   4.704
49139W        W17357  24.263  24.176   2.376
49140W        W17358  27.570  40.073   4.383
49141W        W17359  13.643  42.139  12.953
49142W        W17360  26.740  26.297   2.708
49143W        W17361  26.083  18.881   4.681
49144W        W17362   9.889  17.050   2.418
49145W        W17363  26.296  37.653  12.405
49146W        W17364  14.804  33.019  13.606
49147W        W17365   4.464  12.834   1.934
49148W        W17366  17.931   1.523  14.306
49149W        W17367  21.741  18.827  12.959
49150W        W17368  28.953   0.103   1.416
49151W        W17369  42.087  37.553  11.107
49152W        W17370  44.504  19.315  13.268
49153W        W17371  16.056  21.140  10.592
49154W        W17372  20.474  30.876   2.131
49155W        W17373  15.833  38.006  11.201
49156W        W17374  40.625  35.612   2.195
49157W        W17375  10.342  41.034   1.380
49158W        W17376   5.863   0.827   2.161
49159W        W17377  21.038  15.578   1.287
49160W        W17378  35.890  17.319   4.559
49161W        W17379  37.132  35.493   4.227
49162W        W17380  25.765  29.355   3.232
49163W        W17381  18.098  11.674  13.382
49164W        W17382  24.966   2.801   0.414
49165W        W17383  33.172  38.608  13.750
49166W        W17384  21.159  40.090  11.206
49167W        W17385  12.739  11.884   3.223
49168W        W17386  28.994  24.087   5.230
49169W        W17387   2.747  31.372  14.419
49170W        W17388   4.699   8.913  11.047
49171W        W17389   9.631  15.373   3.616
49172W        W17390  21.783   3.142   4.228
49173W        W17391  44.314  29.013  14.759
49174W        W17392  31.423  33.446  11.851
49175W        W17393  29.473  12.266   3.181
49176W        W17394  11.680  37.393   3.192
49177W        W17395   3.751  43.997  14.221
49178W        W17396  25.949  21.785   3.113
49179W        W17397  33.513  38.642   2.294
49180W        W17398  20.439  40.945   4.571
49181W        W17399  34.122  24.947   0.041
49182W        W17400  25.625  17.598  12.044
49183W        W17401  31.032  11.892   1.337
49184W        W17402   7.087   6.418   3.112
49185W        W17403  41.057  18.402   0.730
49186W        W17404  39.941  13.045   4.201
49187W        W17405  38.316  14.153   0.805
49188W        W17406  24.287  31.498  14.013
49189W        W17407  40.931  32.823   4.518
49190W        W17408  17.683  20.363   3.189
49191W        W17409  33.478  29.943  13.489
49192W        W17410  15.766  35.207   3.862
49193W        W17411  10.060  29.022  12.612
49194W        W17412  15.473  20.679   0.939
49195W        W17413  30.105  40.339  13.906
49196W        W17414  13.334  26.095  11.688
49197W        W17415  17.908  15.031   2.734
49198W        W17416   5.280   7.743   0.740
49199W        W17417  29.434  14.046  14.263
49200W        W17418  11.179   0.460   2.522
49201W        W17419   0.403  28.659  12.399
49202W        W17420  10.794  42.383   4.799
49203W        W17421   4.322  12.414  12.187
49204W        W17422  11.965  10.732   5.412
49205W        W17423  33.033   0.791  11.154
49206W        W17424  27.114  40.058   0.208
49207W        W17425  19.713  29.073  13.834
49208W        W17426  20.457  12.236   2.191
49209W        W17427  41.211  13.739  14.506
49210W        W17428  40.695  40.359   2.842
49211W        W17429  25.618  24.875   1.291
49212W        W17430   1.915  14.489   3.673
49213W        W17431   9.835  29.467   0.821
49214W        W17432  10.489  18.999   1.230
49215W        W17433  28.934  36.129  12.102
49216W        W17434   5.463  14.626  11.965
49217W        W17435   9.698   3.112   1.926
49218W        W17436  20.940  22.505   1.910
49219W        W17437  25.161  21.631   1.376
49220W        W17438  34.834  44.842  10.638
49221W        W17439  30.388  40.932  11.517
49222W        W17440   0.388  17.688  11.672
49223W        W17441  20.022  34.069   1.916
49224W        W17442  20.198   0.295   1.502
49225W        W17443  14.033  18.812  14.770
49226W        W17444  42.793  33.074  10.321
49227W        W17445  41.609  21.233  11.561
49228W        W17446  20.086  16.581   1.332
49229W        W17447  10.248  28.236   4.541
49230W        W17448  20.678  10.246  13.776
49231W        W17449  15.915   4.376   0.339
49232W        W17450   2.054  39.796   1.347
49233W        W17451   2.717  18.514   2.094
49234W        W17452  28.678  12.634  14.991
49235W        W17453   0.451  43.952  12.175
49236W        W17454  16.479  36.383   0.824
49237W        W17455  39.530  38.504   4.886
49238W        W17456  25.557   2.332  12.815
49239W        W17457   0.859  32.628   1.131
49240W        W17458  36.010  37.912   3.735
49241W        W17459  10.713  26.153  14.777
49242W        W17460  32.376  28.758  12.643
49243W        W17461  19.561   2.848   2.715
49244W        W17462  23.010  13.034  11.593
49245W        W17463  30.180   3.355  12.957
49246W        W17464   6.309   3.074  14.019
49247W        W17465  30.946  23.714   3.618
49248W        W17466  25.081   9.725  11.440
49249W        W17467  12.359  10.908   2.376
49250W        W17468  13.165  33.516  12.869
49251W        W17469   3.389  39.577   0.824
49252W        W17470  43.712  20.073  13.889
49253W        W17471  17.071   2.993  11.453
49254W        W17472  14.193  28.582   3.079
49255W        W17473  34.111  24.172  10.706
49256W        W17474  15.767  35.548  12.011
49257W        W17475  37.129  14.318  10.534
49258W        W17476  21.750  16.449   0.130
49259W        W17477   5.980  36.472   3.880
49260W        W17478  34.894   5.381  14.932
49261W        W17479  19.959  14.167  11.866
49262W        W17480   6.201  11.403   3.661
49263W        W17481  33.429  33.673   4.558
49264W        W17482   0.409  24.660   2.956
49265W        W17483  12.120  21.585   0.802
49266W        W17484  20.118   2.811   4.849
49267W        W17485  15.820  34.061   0.755
49268W        W17486  19.511  40.021  14.596
49269W        W17487  21.623  42.106  11.470
49270W        W17488  13.527  13.358  10.762
49271W        W17489   9.936  11.880  14.943
49272W        W17490   1.884   0.236   3.771
49273W        W17491  39.042  33.307  13.494
49274W        W17492  44.076  10.533   1.722
49275W        W17493  13.879  19.973  12.827
49276W        W17494  35.381   3.778   1.217
49277W        W17495  30.065  26.679   0.073
49278W        W17496  25.708  23.244   2.200
49279W        W17497   8.891  37.909  13.487
49280W        W17498  37.440  39.395   5.092
49281W        W17499  40.247  30.375   1.484
49282W        W17500   1.499  19.295  14.386
49283W        W17501   5.306  32.280  12.519
49284W        W17502   5.944  23.915  13.472
49285W        W17503  11.890  28.568   2.044
49286W        W17504  32.615  36.802   3.782
49287W        W17505  30.420  18.782   2.245
49288W        W17506  28.428  24.735   4.521
49289W        W17507  43.394  42.902   1.358
49290W        W17508  14.164  11.077   1.274
49291W        W17509  34.776  44.548   5.081
49292W        W17510  34.372  41.715  13.114
49293W        W17511   9.533  41.143   5.360
49294W        W17512  31.016  44.421   0.794
49295W        W17513   8.700  37.410  11.163
49296W        W17514  35.337  22.286  12.410
49297W        W17515   4.820  30.123   2.837
49298W        W17516  12.092  11.050  13.557
49299W        W17517  22.556   8.291  13.992
49300W        W17518  43.054   4.187   2.289
49301W        W17519  40.755  14.374  14.717
49302W        W17520   9.389  28.602  11.660
49303W        W17521  40.507  29.525   1.950
49304W        W17522  33.123  37.437  13.158
49305W        W17523  24.652  35.446  10.579
49306W        W17524  24.435   5.861   1.728
49307W        W17525  32.429  26.609   0.868
49308W        W17526  27.383  31.807  14.949
49309W        W17527   6.741  14.580  13.901
49310W        W17528  39.575  12.865   1.972
49311W        W17529  12.381  32.516   3.150
49312W        W17530  32.493  10.311   4.540
49313W        W17531  38.262  43.330  10.396
49314W        W17532  41.287  35.070  14.405
49315W        W17533   2.150  38.078   1.713
49316W        W17534  34.280  35.493  12.850
49317W        W17535  23.900  12.116   0.349
49318W        W17536  26.159  40.557  12.347
49319W        W17537   3.304  16.658  11.003
49320W        W17538   5.354  14.338   1.737
49321W        W17539   7.855  24.566   2.393
49322W        W17540  25.787  23.963  12.557
49323W        W17541   6.249   3.617  14.836
49324W        W17542  17.748  30.441   0.412
49325W        W17543  26.042  37.437   4.483
49326W        W17544  21.046  36.003   0.821
49327W        W17545  28.970  13.895   3.888
49328W        W17546  40.227  24.722   1.162
49329W        W17547  35.163  39.815   1.699
49330W        W17548  19.101  13.556  12.083
49331W        W17549   4.756  13.903  11.537
49332W        W17550  19.803  22.447  14.383
49333W        W17551  24.650  29.029  13.349
49334W        W17552   7.857  26.757   4.095
49335W        W17553   8.202   3.237   2.874
49336W        W17554  29.504   9.281   3.853
49337W        W17555  35.899  34.590   1.492
49338W        W17556   5.910  44.837   4.567
49339W        W17557  30.795  14.059  10.335
49340W        W17558  29.564  26.665   0.214
49341W        W17559  42.339  22.655  11.896
49342W        W17560  40.471   4.918  11.201
49343W        W17561   7.296   0.803  10.713
49344W        W17562  41.470  23.276   1.830
49345W        W17563   0.905  31.138  14.333
49346W        W17564  28.214  41.061   1.417
49347W        W17565  27.079  36.419  13.543
49348W        W17566  20.737  25.485   0.665
49349W        W17567  31.474  44.975   3.872
49350W        W17568  10.230  44.151   2.473
49351W        W17569   8.092  34.255  12.919
49352W        W17570  42.421  41.447   4.657
49353W        W17571  29.755  26.668  10.803
49354W        W17572  28.291   6.620  10.746
49355W        W17573  15.512   5.180  10.670
49356W        W17574  43.866   4.853   2.809
49357W        W17575  26.900  43.781  11.082
49358W        W17576  13.656   7.312   1.715
49359W        W17577   3.022   5.280   3.251
49360W        W17578  24.008  24.592  14.783
49361W        W17579  32.789  37.979  14.358
49362W        W17580   2.636  28.004  12.913
49363W        W17581  40.715  39.401   5.014
49364W        W17582  13.383  43.544  12.816
49365W        W17583   8.381  23.044   0.376
49366W        W17584   9.466   4.025   0.274
49367W        W17585  31.325  44.988  12.308
49368W        W17586   5.113  29.171   1.813
49369W        W17587  41.749   8.661   2.858
49370W        W17588  35.430  18.349   0.858
49371W        W17589  26.713  14.753  11.916
49372W        W17590  16.169  11.669  11.857
49373W        W17591  16.979  14.628   2.669
49374W        W17592  38.124  35.850  12.228
49375W        W17593  44.487  35.441  14.305
49376W        W17594  16.960  18.700  11.185
49377W        W17595  39.795  36.955  12.410
49378W        W17596  12.166  18.628  12.832
49379W        W17597   7.264  18.366   3.793
49380W        W17598  41.796   2.042  11.182
49381W        W17599   7.231   6.544   0.163
49382W        W17600   5.343  37.016  14.761
49383W        W17601  26.679   2.106  11.974
49384W        W17602  21.802  15.600   1.881
49385W        W17603  30.087  43.472   0.281
49386W        W17604  11.076   4.844   4.520
49387W        W17605  34.893  22.074   1.666
49388W        W17606   2.300   6.184   4.642
49389W        W17607  22.608  34.962  14.857
49390W        W17608  30.131  10.239  13.075
49391W        W17609  15.128  22.515   1.655
49392W        W17610  17.557  17.134  10.091
49393W        W17611  25.128  14.502   5.269
49394W        W17612  31.640  18.423  11.265
49395W        W17613  24.497  43.633   0.260
49396W        W17614   6.673  22.731  12.645
49397W        W17615  40.548  18.325  12.102
49398W        W17616  24.721  17.317   4.418
49399W        W17617  39.433   3.697  13.982
49400W        W17618  17.735  43.338  12.239
49401W        W17619  12.630  37.086   1.276
49402W        W17620  19.084  24.198   0.036
49403W        W17621   2.200  12.164  11.896
49404W        W17622  26.975  35.879   5.073
49405W        W17623  41.053  32.422  14.809
49406W        W17624  33.977  21.221   4.169
49407W        W17625  23.691   6.409   3.809
49408W        W17626  34.057   3.545  12.588
49409W        W17627  15.782   3.724  14.087
49410W        W17628  22.440  25.436   1.328
49411W        W17629  40.160  12.598   0.461
49412W        W17630  24.102  29.431   2.871
49413W        W17631  30.524  41.006  10.617
49414W        W17632  31.943  15.705   3.710
49415W        W17633  24.473   2.906   3.129
49416W        W17634   0.344  14.095  12.547
49417W        W17635  10.396  20.056  11.589
49418W        W17636   1.214   9.122  11.152
49419W        W17637  41.751  23.150  14.298
49420W        W17638  38.265  35.988  10.695
49421W        W17639  15.821  40.962   3.288
49422W        W17640   6.832  12.585  13.864
49423W        W17641  26.181  29.144   0.573
49424W        W17642  14.914  13.906   2.848
49425W        W17643  34.605   8.350  13.445
49426W        W17644  40.566  13.147   3.647
49427W        W17645  31.154  30.955  14.898
49428W        W17646  39.487  13.375  12.607
49429W        W17647  20.712  33.493  12.965
49430W        W17648  35.398  10.588  14.458
49431W        W17649  43.392  14.744  12.063
49432W        W17650   4.335   1.988   2.330
49433W        W17651   7.935  16.153  13.957
49434W        W17652  39.357   1.487  14.354
49435W        W17653  33.232  35.857   9.953
49436W        W17654   5.273  35.826  14.790
49437W        W17655  37.369  41.244   1.211
49438W        W17656  23.227  24.488  10.835
49439W        W17657  16.800  34.736  11.416
49440W        W17658  16.015  11.786  14.963
49441W        W17659  26.376  20.931   2.735
49442W        W17660  40.543  36.892  14.127
49443W        W17661  34.102   8.318  13.525
49444W        W17662  11.187   7.397  11.962
49445W        W17663  30.334  29.228   0.884
49446W        W17664  18.273  15.758   3.139
49447W        W17665  34.982   2.501  11.886
49448W        W17666  12.038   7.874  14.837
49449W        W17667  23.063  37.236   3.732
49450W        W17668   3.686   3.698   0.526
49451W        W17669   6.436  34.704   0.135
49452W        W17670  35.786  37.519   4.520
49453W        W17671  31.981  28.332  12.611
49454W        W17672  13.229  42.482  12.351
49455W        W17673  24.492  23.783  14.444
49456W        W17674   3.175   2.215   0.414
49457W        W17675  35.060  17.678  14.792
49458W        W17676  18.433  33.632   5.144
49459W        W17677  40.950  13.061  11.091
49460W        W17678  25.445  22.662  12.358
49461W        W17679  21.564  21.244   2.855
49462W        W17680   8.136  43.459  13.926
49463W        W17681  17.343   9.670  11.602
49464W        W17682  27.987  19.631   0.541
49465W        W17683  33.963   7.220   1.726
49466W        W17684  18.773  25.603   0.825
49467W        W17685  23.052  18.040  12.827
49468W        W17686  43.071  38.432  13.007
49469W        W17687  27.173  36.304  11.927
49470W        W17688  38.342  15.732  11.443
49471W        W17689  18.196   8.165   1.409
49472W        W17690  40.132  39.983  10.415
49473W        W17691  13.713   7.685   2.445
49474W        W17692  28.850  42.740   0.183
49475W        W17693   3.541  36.122  11.300
49476W        W17694   6.985  41.453  14.070
49477W        W17695  23.080   7.460   1.696
49478W        W17696  10.608  42.544  10.529
49479W        W17697  39.066  31.960  10.648
49480W        W17698   4.000  25.079  12.429
49481W        W17699  32.902  37.820   2.053
49482W        W17700  33.107   6.776  12.031
49483W        W17701  26.453  43.911  14.469
49484W        W17702  43.404  26.145  14.545
49485W        W17703  17.714  10.858  13.058
49486W        W17704  23.159  27.504   3.955
49487W        W17705  21.446   9.398   2.781
49488W        W17706   0.980  44.931   0.819
49489W        W17707  39.762   8.165  14.349
49490W        W17708  18.158   9.960  11.994
49491W        W17709  26.313  43.494  13.952
49492W        W17710  19.053  30.529   3.010
49493W        W17711  14.131  15.151   0.370
49494W        W17712  19.713  36.641   2.720
49495W        W17713  21.981  38.507   4.601
49496W        W17714  39.935  31.850   2.600
49497W        W17715  36.831  24.768   3.734
49498W        W17716   7.927   9.393   3.651
49499W        W17717  30.637  19.949   3.021
49500W        W17718  23.715  10.407   4.050
49501W        W17719  11.607  18.971   3.672
49502W        W17720   2.508  10.909  11.381
49503W        W17721  13.951  13.730  13.856
49504W        W17722  25.496  16.261  10.702
49505W        W17723  15.712  39.999  13.590
49506W        W17724   7.601  16.071  14.338
49507W        W17725   4.344  44.292   0.744
49508W        W17726  40.855  40.271  14.328
49509W        W17727  30.213  31.958  11.098
49510W        W17728  24.518  41.834  11.554
49511W        W17729  35.516  43.144  12.984
49512W        W17730  31.009   3.758  14.508
49513W        W17731  30.050  38.090  10.647
49514W        W17732   5.495  25.201   1.829
49515W        W17733   4.597  29.104   1.953
49516W        W17734   9.410  31.714  14.937
49517W        W17735  35.811   6.411  14.982
49518W        W17736  19.204  42.133   1.786
49519W        W17737  13.652  36.802   0.318
49520W        W17738  41.553  42.086  14.385
49521W        W17739  31.089  25.096   1.896
49522W        W17740  22.026  18.063  12.090
49523W        W17741  10.846   1.263  13.878
49524W        W17742  19.825   6.339   3.686
49525W        W17743  41.065  31.813   3.196
49526W        W17744   6.378  33.004  12.051
49527W        W17745  22.756  16.148  14.038
49528W        W17746   7.804   6.055   1.878
49529W        W17747  17.028  21.920  12.569
49530W        W17748   0.244  17.713   3.811
49531W        W17749  36.044   3.382  10.636
49532W        W17750   6.320  28.103   0.804
49533W        W17751  32.638  22.632  14.450
49534W        W17752  18.696   9.468   2.946
49535W        W17753  10.944  19.370   4.968
49536W        W17754  31.463  30.373   4.581
49537W        W17755  26.166   2.771   1.653
49538W        W17756   9.309  38.859  12.545
49539W        W17757   4.364  43.533  14.049
49540W        W17758  10.181   9.924  12.096
49541W        W17759  42.108  43.009  11.506
49542W        W17760  13.095   7.674   3.201
49543W        W17761  10.924  31.928  14.479
49544W        W17762  29.126  10.662  12.035
49545W        W17763  30.156  19.390   3.074
49546W        W17764  15.133   4.377   1.752
49547W        W17765  35.315  10.715  12.869
49548W        W17766  19.764  34.716   1.418
49549W        W17767  41.011  25.714  11.164
49550W        W17768  17.179  24.357   1.124
49551W        W17769  19.848  40.865   1.488
49552W        W17770  33.520  17.548  14.005
49553W        W17771   6.638  41.870   3.706
49554W        W17772  21.635  20.287  10.706
49555W        W17773  18.029  14.091  13.076
49556W        W17774  12.308   1.367   0.515
49557W        W17775  21.540  10.370  14.410
49558W        W17776  41.897  35.023  12.874
49559W        W17777  21.004  11.049   0.387
49560W        W17778  38.458   5.839  10.437
49561W        W17779  37.615  39.270  11.590
49562W        W17780  14.256  34.820   2.562
49563W        W17781   0.799  29.505  12.606
49564W        W17782  29.704   7.000  14.682
49565W        W17783   3.437  11.372  12.471
49566W        W17784  15.191  35.402  11.703
49567W        W17785  22.501  18.720   1.397
49568W        W17786  17.636   7.485   4.830
49569W        W17787  23.576  14.105   0.667
49570W        W17788  39.027   6.150   2.908
49571W        W17789  30.451   6.623   0.290
49572W        W17790  30.726  14.103  12.770
49573W        W17791  30.077  16.043   3.819
49574W        W17792  39.859   7.904   3.105
49575W        W17793  15.528  18.354   0.684
49576W        W17794  24.923  24.754   0.275
49577W        W17795  38.320  33.139  13.934
49578W        W17796  11.732  32.517  10.681
49579W        W17797  10.912   8.261  14.546
49580W        W17798  21.572  35.517   0.364
49581W        W17799  10.030  22.621   1.755
49582W        W17800  20.195  23.298  11.096
49583W        W17801  32.200  11.733   4.994
49584W        W17802  34.388  35.335  10.648
49585W        W17803   4.407   8.286  13.968
49586W        W17804  43.494  38.953   3.315
49587W        W17805  15.686  38.555   3.131
49588W        W17806  36.492  26.122   4.630
49589W        W17807  15.217  44.515   3.674
49590W        W17808  23.048  19.490   0.500
49591W        W17809   1.871  34.382  13.884
49592W        W17810  11.681  34.911   4.624
49593W        W17811  24.493   8.615  11.708
49594W        W17812  43.172   3.269  12.912
49595W        W17813  33.103   1.443  12.971
49596W        W17814  18.022  23.955  11.082
49597W        W17815  16.726  43.477  14.352
49598W        W17816  16.458  37.431   2.358
49599W        W17817   8.028  17.242   1.339
49600W        W17818  39.382  23.687  14.482
49601W        W17819  44.797  21.708   4.911
49602W        W17820  39.401  44.869   2.686
49603W        W17821  31.604  21.595  12.395
49604W        W17822  15.111   2.385   2.569
49605W        W17823  37.261  44.846  14.738
49606W        W17824  40.163  29.051  13.092
49607W        W17825   4.870  19.588   1.314
49608W        W17826  25.850  13.188  11.769
49609W        W17827  23.632  20.070  10.645
49610W        W17828  17.110  29.198   0.316
49611W        W17829  30.587  22.366  14.307
49612W        W17830  39.042  25.489   2.137
49613W        W17831   9.586  36.233  14.531
49614W        W17832   8.248   0.887  11.487
49615W        W17833  14.826   8.299   4.949
49616W        W17834  18.971  21.447  14.756
49617W        W17835   6.075   4.375   3.234
49618W        W17836  22.696   7.811   4.028
49619W        W17837   1.864  35.384   4.618
49620W        W17838  14.032  13.865  11.598
49621W        W17839   8.420  31.014   1.148
49622W        W17840   5.989  13.234  14.540
49623W        W17841   5.644  24.941  10.708
49624W        W17842  15.552  28.615   0.276
49625W        W17843   5.322   4.486   0.756
49626W        W17844  34.057  14.536   4.892
49627W        W17845  42.425  21.177   1.876
49628W        W17846  22.683   2.266   3.744
49629W        W17847  40.545  43.900   4.713
49630W        W17848  15.678  42.280  11.139
49631W        W17849  11.386  24.535   0.820
49632W        W17850  34.345  41.791  11.066
49633W        W17851  14.163  16.100  13.392
49634W        W17852  14.070  14.859  14.015
49635W        W17853  20.277  29.515   1.440
49636W        W17854  35.343  41.815   3.641
49637W        W17855  14.197   2.903  10.252
49638W        W17856   8.390  37.107  13.406
49639W        W17857   1.438  37.409   4.310
49640W        W17858   2.023  41.492   1.637
49641W        W17859  23.759  22.038  10.709
49642W        W17860   4.087  25.546  14.409
49643W        W17861  37.894  16.788   0.827
49644W        W17862  43.277  19.997   0.752
49645W        W17863   0.523  27.454  14.671
49646W        W17864  18.987  31.216  11.321
49647W        W17865  14.864  34.534  14.845
49648W        W17866  30.422  30.052  13.462
49649W        W17867  26.740  30.079   3.573
49650W        W17868  35.313  17.812  10.809
49651W        W17869  24.933  43.351   1.720
49652W        W17870  38.555   4.742   3.314
49653W        W17871  15.114  10.390  11.558
49654W        W17872  22.034  43.428   1.311
49655W        W17873  32.440  16.681  12.479
49656W        W17874  43.230  20.257  13.864
49657W        W17875  25.976  36.884  13.008
49658W        W17876  14.751   1.552  10.266
49659W        W17877  38.840  39.542  14.024
49660W        W17878   2.161   6.429   4.197
49661W        W17879   2.035  32.773   0.907
49662W        W17880  33.206  27.935  11.410
49663W        W17881  14.932  21.635   0.939
49664W        W17882  12.111  41.068   1.833
49665W        W17883  17.020  10.246   4.104
49666W        W17884  24.607   4.760   1.506
49667W        W17885  21.290  41.063   1.314
49668W        W17886  39.745  22.760   0.618
49669W        W17887   8.921  15.811  11.787
49670W        W17888  11.627  18.539   2.267
49671W        W17889  42.309  11.849  14.150
49672W        W17890  36.504  36.982  13.219
49673W        W17891  32.933  30.328   2.630
49674W        W17892  38.327  29.982   0.707
49675W        W17893  39.770  11.262   3.906
49676W        W17894  26.305   9.321   0.865
49677W        W17895  33.953  18.215  14.489
49678W        W17896  30.133  34.418   1.374
49679W        W17897  36.792  20.088  11.654
49680W        W17898  43.139  19.258   2.786
49681W        W17899  36.306  22.507  13.210
49682W        W17900  16.342  32.676   2.293
49683W        W17901  41.275  35.030   4.264
49684W        W17902  30.197  33.708  14.795
49685W        W17903  40.094  16.614  12.384
49686W        W17904  14.344   9.669   3.101
49687W        W17905  41.392   4.289   2.734
49688W        W17906  23.528  27.166  12.608
49689W        W17907  35.361  15.648   3.100
49690W        W17908  16.913   9.695  14.853
49691W        W17909   0.875   4.750   3.697
49692W        W17910   5.773   7.754   4.185
49693W        W17911  22.192  27.106   3.693
49694W        W17912   9.109  20.702  14.502
49695W        W17913  19.620  31.969   3.085
49696W        W17914  31.457   4.202  14.731
49697W        W17915  34.893  43.449   4.436
49698W        W17916  21.919  27.511   3.231
49699W        W17917  41.884  42.379   0.262
49700W        W17918  11.706  37.877   0.755
49701W        W17919  35.593  10.506  11.560
49702W        W17920  15.586  32.528  13.828
49703W        W17921  40.026  44.033  10.856
49704W        W17922   2.857  22.909  12.023
49705W        W17923  38.119  19.150  10.660
49706W        W17924  39.180  12.472  13.406
49707W        W17925  18.790   5.890   1.369
49708W        W17926  33.957  20.988   2.241
49709W        W17927  37.329  20.175   1.352
49710W        W17928  14.762   4.189  10.953
49711W        W17929  29.172  31.269  14.270
49712W        W17930  24.127  14.308  10.655
49713W        W17931  14.132  28.408  11.177
49714W        W17932   7.851   3.637  11.380
49715W        W17933  27.528   8.324   4.883
49716W        W17934   1.233   1.285   4.236
49717W        W17935  15.111  41.916   0.881
49718W        W17936  31.138  38.413  11.891
49719W        W17937  14.624  17.208  11.555
49720W        W17938   6.246  29.700  11.017
49721W        W17939  18.385  15.807   2.633
49722W        W17940   7.241  39.648  10.368
49723W        W17941  20.709  44.717   3.694
49724W        W17942  37.804  33.630   4.688
49725W        W17943   1.269  25.107   3.837
49726W        W17944  27.990  35.607  12.894
49727W        W17945   3.453  13.269  14.754
49728W        W17946  20.626  39.567  12.502
49729W        W17947   5.919  21.288   2.718
49730W        W17948   5.478  19.300  11.213
49731W        W17949  21.364   3.066  14.946
49732W        W17950  20.668  38.482  11.569
49733W        W17951  21.321   6.469   3.527
49734W        W17952  16.761  35.029  14.083
49735W        W17953  40.457  21.144   1.714
49736W        W17954  16.134  27.654  10.469
49737W        W17955  34.368  36.817   3.271
49738W        W17956   1.226   4.761  14.938
49739W        W17957  15.027  12.912   3.080
49740W        W17958  18.580  26.217  10.582
49741W        W17959  16.572  29.312   2.454
49742W        W17960  27.596  19.890  13.541
49743W        W17961   8.746   1.874  13.060
49744W        W17962  38.114  19.820  11.871
49745W        W17963  20.487  41.549   5.153
49746W        W17964  28.587  10.838   4.164
49747W        W17965   6.258  30.764  11.070
49748W        W17966  40.289  17.118  10.668
49749W        W17967   6.255  33.103   3.689
49750W        W17968  34.327  33.431  11.066
49751W        W17969   2.964   4.357   4.438
49752W        W17970  35.646  26.766  13.065
49753W        W17971   4.134  20.161   0.442
49754W        W17972   8.136  23.274  11.744
49755W        W17973   3.372  29.075   9.897
49756W        W17974  11.204  26.069   4.237
49757W        W17975  32.606  25.612  12.161
49758W        W17976  34.014  34.537  10.660
49759W        W17977  37.630  37.397   1.871
49760W        W17978   1.697  25.629   2.841
49761W        W17979  34.936  24.394  11.826
49762W        W17980  23.489  11.770  11.903
49763W        W17981  29.626   5.093   3.188
49764W        W17982   7.610   4.044  14.927
49765W        W17983  14.901  18.618   3.677
49766W        W17984  17.759  33.347   0.414
49767W        W17985  12.521  10.297   5.005
49768W        W17986   2.333  29.771  11.192
49769W        W17987  12.796  33.535  12.085
49770W        W17988  44.807  26.106  10.992
49771W        W17989  41.420  40.785   4.815
49772W        W17990  42.412   9.791   4.565
49773W        W17991  30.636  16.377   0.873
49774W        W17992  17.994   7.615  12.458
49775W        W17993  12.544   9.452  13.064
49776W        W17994  19.030  11.563  10.283
49777W        W17995  20.296  19.043  13.644
49778W        W17996  22.266  29.641  11.061
49779W        W17997  25.491  33.498  11.565
49780W        W17998  26.858  30.621  11.619
49781W        W17999  40.132  18.793  10.595
49782W        W18000  30.142  25.972  10.700
49783W        W18001  42.515  14.139  14.494
49784W        W18002   9.088  36.087   0.648
49785W        W18003   2.510  44.102   1.221
49786W        W18004   0.199  19.796  11.162
49787W        W18005  17.252   5.782  13.889
49788W        W18006  35.431  26.963  11.511
49789W        W18007   8.740  21.466   4.089
49790W        W18008  22.977  28.295  14.857
49791W        W18009   2.726  39.723   0.035
49792W        W18010  14.588   4.289   3.642
49793W        W18011  11.803   5.929   2.341
49794W        W18012  18.985  13.146   2.201
49795W        W18013  38.335  30.393   3.931
49796W        W18014  43.079   7.237  14.727
49797W        W18015  30.080  44.446  10.829
49798W        W18016  44.953  33.693  11.120
49799W        W18017   7.410  15.598  12.891
49800W        W18018  34.068  32.930  11.320
49801W        W18019  19.003   1.913   3.697
49802W        W18020  33.455  12.690   4.064
49803W        W18021  16.198  15.361  12.574
49804W        W18022  41.407  19.742   3.090
49805W        W18023   8.225  25.296  12.118
49806W        W18024  36.245  12.762  10.782
49807W        W18025  30.964  27.943   0.016
49808W        W18026  15.087  43.004   0.745
49809W        W18027  10.679   6.447   4.108
49810W        W18028  26.174  35.759  12.013
49811W        W18029  36.593  35.539   2.265
49812W        W18030   0.828  24.077   1.621
49813W        W18031  41.930  10.547   4.544
49814W        W18032  27.246   9.281   0.849
49815W        W18033  16.057  27.039  13.843
49816W        W18034  22.790   0.257  12.083
49817W        W18035  15.282  39.561   1.814
49818W        W18036  11.405   4.932   0.860
49819W        W18037  17.044  12.045   1.386
49820W        W18038  37.895  26.075  13.391
49821W        W18039  36.360   0.004  12.474
49822W        W18040  22.550   3.303  11.993
49823W        W18041  44.983  37.326  13.338
49824W        W18042   4.002  43.515   4.189
49825W        W18043  38.034  24.462  11.959
49826W        W18044   8.217  14.115  11.230
49827W        W18045   9.588  11.773   2.329
49828W        W18046  25.493  38.788   4.319
49829W        W18047   5.330  21.326   4.456
49830W        W18048  30.161  33.092   3.695
49831W        W18049  35.523   2.187  14.903
49832W        W18050  28.469   5.715  10.672
49833W        W18051  21.041  23.521   3.268
49834W        W18052  33.391   9.133   4.900
49835W        W18053  42.927   0.551   4.483
49836W        W18054  39.821   6.041   0.924
49837W        W18055  41.267   3.366   4.570
49838W        W18056   5.417  36.608  11.205
49839W        W18057  15.630  43.046   4.286
49840W        W18058  27.892  41.604   3.674
49841W        W18059  16.225  20.770   0.436
49842W        W18060  15.063   8.937   3.560
49843W        W18061  23.991   3.945   1.354
49844W        W18062  10.691  27.960  14.991
49845W        W18063  18.946  31.137   2.304
49846W        W18064  42.644   3.200  13.074
49847W        W18065  29.283   5.990   0.805
49848W        W18066  43.496  22.198   3.597
49849W        W18067  42.321  36.393  13.527
49850W        W18068  10.674   4.114  10.846
49851W        W18069  25.078  34.949  11.207
49852W        W18070  20.708  24.976  14.354
49853W        W18071  14.619   3.397   4.598
49854W        W18072  11.835  31.345  14.995
49855W        W18073  37.334  27.992   4.237
49856W        W18074  29.212  38.383  13.327
49857W        W18075   7.774  38.466  10.477
49858W        W18076  42.863  38.808   1.287
49859W        W18077  33.121  12.812   3.614
49860W        W18078  13.586  25.093  14.758
49861W        W18079  11.571  27.046   0.606
49862W        W18080  32.429  33.916   3.097
49863W        W18081  36.315   3.018  11.373
49864W        W18082  43.874  42.394   1.880
49865W        W18083   2.313  39.342   1.339
49866W        W18084   0.494   3.370   5.053
49867W        W18085  42.905   9.355  12.890
49868W        W18086  18.721   8.663   4.602
49869W        W18087  30.463  19.192  13.838
49870W        W18088  41.423  16.045  11.360
49871W        W18089  26.454   2.832   0.356
49872W        W18090  16.604  31.968  11.277
49873W        W18091   0.399  37.478  12.493
49874W        W18092  25.571  11.884  12.483
49875W        W18093  29.287  27.375   3.055
49876W        W18094  41.287  13.214   0.829
49877W        W18095  43.513  35.567  14.379
49878W        W18096  15.672   6.252   1.257
49879W        W18097   9.207  23.619  10.649
49880W        W18098  27.245   2.733  11.122
49881W        W18099   2.919  44.998  14.940
49882W        W18100  14.480  27.395  10.179
49883W        W18101  19.450  13.458   2.050
49884W        W18102  31.314  27.776   9.894
49885W        W18103  41.306  42.639   1.179
49886W        W18104   8.870  20.598   0.902
49887W        W18105  42.809  13.667   2.282
49888W        W18106  17.027  28.589  14.456
49889W        W18107  27.361  10.252  13.560
49890W        W18108  41.420  11.019  12.984
49891W        W18109  12.126  41.498  10.610
49892W        W18110  31.214  28.188  10.653
49893W        W18111  21.068  21.886  11.102
49894W        W18112   6.293   2.804   4.719
49895W        W18113  12.171   3.730   3.658
49896W        W18114  22.689  32.103   1.302
49897W        W18115   4.729  39.517   1.874
49898W        W18116  12.817  32.546  10.750
49899W        W18117  35.114   7.960  12.953
49900W        W18118  43.369   9.959   5.050
49901W        W18119  17.544  22.052   4.201
49902W        W18120  18.227  17.143  10.624
49903W        W18121  34.058  12.236  13.815
49904W        W18122  29.496  28.491   3.848
49905W        W18123  25.943   4.848  10.827
49906W        W18124  39.073   4.605  14.899
49907W        W18125  12.749  37.550   2.893
49908W        W18126  10.588  14.797   9.891
49909W        W18127   0.815  20.006   3.377
49910W        W18128  21.987  40.628  14.315
49911W        W18129  10.615  26.556  12.004
49912W        W18130  19.484   2.474   2.224
49913W        W18131  27.444   0.383   3.238
49914W        W18132  26.591  41.578   4.825
49915W        W18133  14.963  27.030  10.545
49916W        W18134  13.048   1.749   5.031
49917W        W18135  19.575  28.474  11.283
49918W        W18136   7.857  14.798  11.040
49919W        W18137  19.934  17.451  11.548
49920W        W18138  34.529  23.144   2.283
49921W        W18139  32.099  42.847  13.904
49922W        W18140  28.742   1.072   1.071
49923W        W18141  41.822   2.557  12.205
49924W        W18142  35.265   3.394   1.571
49925W        W18143  19.080  42.127   0.953
49926W        W18144  22.301   1.902   2.294
49927W        W18145  27.461  26.649   3.181
49928W        W18146  42.550  43.700   4.799
49929W        W18147  24.399  36.026   1.480
49930W        W18148  16.096  20.130  13.150
49931W        W18149  42.143   6.465   4.201
49932W        W18150  28.949  36.388   2.184
49933W        W18151  25.454  40.745   1.456
49934W        W18152  35.573  25.768   4.168
49935W        W18153  41.289  24.940  12.307
49936W        W18154  12.486  13.332   0.372
49937W        W18155   8.748   3.510   0.480
49938W        W18156  22.561  43.213  10.679
49939W        W18157  30.866  16.523   0.433
49940W        W18158  24.718  25.242   3.602
49941W        W18159  29.879  30.465   2.212
49942W        W18160  26.148  24.451  11.708
49943W        W18161  42.563  42.271   4.091
49944W        W18162  31.631  33.835  14.673
49945W        W18163  38.043  21.127   4.887
49946W        W18164  36.578  39.123  13.809
49947W        W18165  32.380   6.681  13.583
49948W        W18166  23.091  15.446   2.669
49949W        W18167   6.228  39.518  12.975
49950W        W18168   6.032   0.407  14.363
49951W        W18169  31.596  34.417   2.981
49952W        W18170  10.558  22.214  13.021
49953W        W18171  26.098  23.269  14.419
49954W        W18172   9.768  34.938   0.562
49955W        W18173  33.688   4.051  14.429
49956W        W18174  37.793  28.120  13.572
49957W        W18175  30.122  10.648  11.384
49958W        W18176   5.222  40.188  12.559
49959W        W18177   6.141  24.472  12.891
49960W        W18178  44.011  15.973  12.404
49961W        W18179  32.505  33.041  11.946
49962W        W18180  22.002  18.531   5.005
49963W        W18181  37.868   1.221  14.851
49964W        W18182  16.094   8.166  12.503
49965W        W18183  17.596  25.052   1.050
49966W        W18184   1.991  37.480   3.325
49967W        W18185  17.061   1.770  12.794
49968W        W18186  35.450  31.146  13.085
49969W        W18187  29.474  41.791   4.077
49970W        W18188   4.185  30.938   3.759
49971W        W18189  36.680   6.772  12.071
49972W        W18190  29.714  41.056   3.641
49973W        W18191  21.564  16.403  12.105
49974W        W18192   3.942  39.827   4.548
49975W        W18193   5.405  15.760   4.725
49976W        W18194  11.081  39.806   2.621
49977W        W18195   9.732  12.548  13.120
49978W        W18196  41.836  44.472  14.728
49979W        W18197  44.906   9.949   1.373
49980W        W18198  35.986  25.365  11.091
49981W        W18199   2.917  10.956   0.383
49982W        W18200  38.550  31.951   3.693
49983W        W18201   2.944  14.220   1.878
49984W        W18202  10.091   2.288  12.112
49985W        W18203  22.660   8.001  14.883
49986W        W18204  11.468  10.569   1.125
49987W        W18205   9.338   5.138  13.533
49988W        W18206  13.782  28.684  11.485
49989W        W18207  14.607  10.224  14.324
49990W        W18208  39.826  35.328   0.760
49991W        W18209  27.495  28.933   2.708
49992W        W18210  31.941  10.752   1.880
49993W        W18211  12.575  16.704  14.863
49994W        W18212   3.206  44.913   3.663
49995W        W18213  19.885  43.979   2.857
49996W        W18214  25.252   7.254   4.145
49997W        W18215  27.517  22.540   0.343
49998W        W18216  15.994  30.421  10.716
49999W        W18217  28.999  36.568   0.686
50000W        W18218  38.836  18.193   2.977
50001W        W18219  12.118  43.088   2.469
50002W        W18220   7.128  28.404  13.439
50003W        W18221  32.572  15.652  12.451
50004W        W18222  39.390  33.856  11.183
50005W        W18223  21.772   7.313  11.836
50006W        W18224   8.303  36.356   2.419
50007W        W18225  13.471  25.301   1.237
50008W        W18226  43.818  41.689  12.376
50009W        W18227  28.145  28.656   4.196
50010W        W18228  22.651  37.939   0.070
50011W        W18229  42.893   1.753   0.459
50012W        W18230  27.382   3.994   3.089
50013W        W18231  43.435  10.032   3.138
50014W        W18232  41.846  12.762   3.982
50015W        W18233  41.015   1.722   4.666
50016W        W18234  22.097  26.064  13.329
50017W        W18235  18.079   9.264  13.380
50018W        W18236  22.259  14.435   3.794
50019W        W18237  11.424  42.408   4.053
50020W        W18238  42.682  32.492   2.887
50021W        W18239  33.915  14.555  11.972
50022W        W18240  18.970  43.715   2.780
50023W        W18241  25.265  34.303   2.288
50024W        W18242  35.826  22.450  13.395
50025W        W18243  30.718   7.643  11.841
50026W        W18244  29.696   3.244   1.415
50027W        W18245  12.144  21.288   4.984
50028W        W18246  35.491  35.998  13.493
50029W        W18247  41.800   2.420   1.303
50030W        W18248   6.391   4.935   3.165
50031W        W18249  38.806  31.567   0.316
50032W        W18250  30.489  15.284  10.937
50033W        W18251  36.360  28.687   0.856
50034W        W18252  33.162   3.171  14.377
50035W        W18253   2.838  14.058   3.668
50036W        W18254  37.114  39.572   3.157
50037W        W18255   4.158  37.843   3.604
50038W        W18256  40.402  42.601   3.587
50039W        W18257  39.097  21.226   0.693
50040W        W18258  10.380  22.219   2.975
50041W        W18259  12.223   0.983  14.493
50042W        W18260  40.530  26.651   4.580
50043W        W18261   9.128  14.974   9.913
50044W        W18262  11.457  30.553  11.859
50045W        W18263  29.666   7.788  13.482
50046W        W18264   5.609  29.531   2.806
50047W        W18265  16.009  24.114   1.315
50048W        W18266  38.162  43.133   0.725
50049W        W18267  40.231  24.117  14.816
50050W        W18268   2.566  35.936   2.287
50051W        W18269  38.826  22.484  11.220
50052W        W18270  21.625   4.381  14.528
50053W        W18271  20.865  36.362   0.311
50054W        W18272   8.025  34.136  11.543
50055W        W18273  40.653   6.710   2.684
50056W        W18274  43.770  21.204   2.193
50057W        W18275  43.351  37.108  11.949
50058W        W18276   1.938  27.105   4.388
50059W        W18277  25.510  30.923  14.087
50060W        W18278   6.656  21.690  11.060
50061W        W18279  19.572   3.454   0.050
50062W        W18280  34.603   0.970  14.809
50063W        W18281  27.552  40.034  10.669
50064W        W18282   0.705  40.915   3.608
50065W        W18283  37.367  34.376  13.442
50066W        W18284  44.473  24.713  10.621
50067W        W18285  43.364  34.994  11.160
50068W        W18286   0.031  36.086   0.531
50069W        W18287  28.680   9.416  13.585
50070W        W18288  42.077  41.860  14.007
50071W        W18289  44.398  28.878   1.433
50072W        W18290  41.965  12.821  12.149
50073W        W18291  39.365  42.275  13.809
50074W        W18292  44.285  23.243  10.858
50075W        W18293  18.057  33.532   0.865
50076W        W18294  16.008  42.506  12.378
50077W        W18295  17.551  12.775   3.819
50078W        W18296  22.809  24.262  14.780
50079W        W18297  34.954  15.979  12.377
50080W        W18298  42.089   1.133  14.450
50081W        W18299  32.852   8.971  11.213
50082W        W18300  14.728   3.366   2.754
50083W        W18301  21.962   6.899  10.700
50084W        W18302  22.673   5.497  11.104
50085W        W18303  14.326  15.385   3.211
50086W        W18304  27.016  35.427  13.557
50087W        W18305   6.684  17.282  13.162
50088W        W18306   9.271  28.623  13.450
50089W        W18307   8.331  19.188   1.527
50090W        W18308  39.000  24.015  14.360
50091W        W18309  37.816   9.633  10.565
50092W        W18310  33.615  37.271  13.241
50093W        W18311   3.835  21.011  13.456
50094W        W18312  10.722  38.474  14.351
50095W        W18313  22.729  27.368   2.713
50096W        W18314   1.233  20.088  12.499
50097W        W18315  11.198  31.413  11.122
50098W        W18316  19.720  36.876   4.556
50099W        W18317   8.818  32.938   3.278
50100W        W18318  19.743   8.812  14.420
50101W        W18319  13.134  33.283  13.335
50102W        W18320   9.882  26.480  12.533
50103W        W18321  30.419  39.320  13.258
50104W        W18322   9.492  36.319   0.416
50105W        W18323  20.256  38.294  14.429
50106W        W18324  18.579   8.889  14.046
50107W        W18325   3.903  20.094  10.610
50108W        W18326  16.761  36.976   0.281
50109W        W18327  24.125  31.969   2.196
50110W        W18328  17.697   9.786   3.697
50111W        W18329  31.417   5.178  13.940
50112W        W18330  38.513  43.422  13.824
50113W        W18331  38.291  12.659   4.396
50114W        W18332  39.784  16.639   0.225
50115W        W18333   7.640  12.743  14.764
50116W        W18334  27.886   8.683  10.595
50117W        W18335   1.731  29.522  14.762
50118W        W18336  16.295  31.663   2.230
50119W        W18337   3.216  41.332  10.988
50120W        W18338  31.647  13.996  14.795
50121W        W18339  24.296   1.625   3.573
50122W        W18340  27.945  26.563  12.450
50123W        W18341  11.652  19.154  11.067
50124W        W18342  39.394  36.618   3.569
50125W        W18343  43.845   3.480   1.418
50126W        W18344  42.402  43.017  12.526
50127W        W18345  22.492   8.376   1.333
50128W        W18346  28.929  16.624  12.988
50129W        W18347   0.176  25.071   2.258
50130W        W18348  36.066   4.784   4.314
50131W        W18349  21.959  40.413   1.714
50132W        W18350  17.144   7.422  12.847
50133W        W18351  22.449  29.562  12.436
50134W        W18352  42.936   5.780   4.430
50135W        W18353  39.021  27.581  13.527
50136W        W18354  16.197   1.034   5.076
50137W        W18355  13.923  35.885   2.381
50138W        W18356  25.493  14.220  12.165
50139W        W18357  41.876  34.924   2.853
50140W        W18358  11.644   8.469  10.546
50141W        W18359  13.202  31.957  13.980
50142W        W18360   2.894  21.987   4.325
50143W        W18361   6.980  11.793   3.854
50144W        W18362  14.712  19.840  13.386
50145W        W18363  35.153  27.169   2.841
50146W        W18364   1.279  16.886   3.759
50147W        W18365  18.873  26.688   1.880
50148W        W18366  42.170   5.829  11.239
50149W        W18367   4.735  23.089  10.846
50150W        W18368  39.909  42.483   0.876
50151W        W18369  24.957  12.738   4.374
50152W        W18370  20.067  13.426  12.408
50153W        W18371   0.209   5.430   0.331
50154W        W18372  37.871  41.765  11.265
50155W        W18373   6.702  29.403   4.564
50156W        W18374  43.287  31.235   0.769
50157W        W18375  36.121   1.759  12.922
50158W        W18376   8.791  15.735   3.820
50159W        W18377  31.500  12.881  12.819
50160W        W18378   8.173   7.067   4.191
50161W        W18379  17.575  32.508   4.635
50162W        W18380  34.986  12.743  11.282
50163W        W18381  37.826  43.331  11.147
50164W        W18382  28.189  17.618  11.103
50165W        W18383  40.229   6.191  13.366
50166W        W18384  33.938  38.461   4.832
50167W        W18385  10.261   8.953   3.583
50168W        W18386   2.298  17.511  12.609
50169W        W18387   7.890  44.558   1.909
50170W        W18388   5.042  34.402   0.730
50171W        W18389  13.833   6.740   3.599
50172W        W18390  18.198  14.015   4.011
50173W        W18391  44.914  14.798  10.694
50174W        W18392  41.102  20.181   2.356
50175W        W18393  34.412  20.363  14.732
50176W        W18394  33.189  15.296   0.443
50177W        W18395  44.659   8.659  13.471
50178W        W18396  25.660  20.235   1.619
50179W        W18397  43.529  27.750   3.184
50180W        W18398  41.961  36.390  11.591
50181W        W18399  16.777  28.077  11.904
50182W        W18400  11.293  15.166  11.533
50183W        W18401  24.537  36.972   1.997
50184W        W18402  14.372  44.767   1.201
50185W        W18403   1.245   1.512  14.822
50186W        W18404  16.614  16.031  12.422
50187W        W18405  17.798   7.238  14.395
50188W        W18406  12.164  24.723   2.173
50189W        W18407  18.961   5.590   3.133
50190W        W18408  15.286  21.770   2.648
50191W        W18409  36.589  33.784  13.455
50192W        W18410   3.428  34.600  11.011
50193W        W18411   9.710  11.234  11.952
50194W        W18412  14.183  20.822   3.268
50195W        W18413  26.306   7.753   1.775
50196W        W18414  10.647  26.510   5.157
50197W        W18415   9.616  27.543   1.457
50198W        W18416  29.760  37.347  14.828
50199W        W18417  34.047   1.741  10.964
50200W        W18418   9.680  26.981   1.761
50201W        W18419  42.639  21.333  14.826
50202W        W18420  34.094  22.792   1.818
50203W        W18421  30.530  21.281   2.836
50204W        W18422  22.263  37.510  13.452
50205W        W18423  34.696  32.377   1.010
50206W        W18424  19.441  16.085   1.887
50207W        W18425  38.443  11.226   4.202
50208W        W18426  11.690   4.290   4.135
50209W        W18427  22.178  17.864  13.464
50210W        W18428  41.999  30.440   1.865
50211W        W18429  25.023  38.925   2.146
50212W        W18430   1.579  40.039  12.114
50213W        W18431  15.796   1.471  12.985
50214W        W18432  22.809   1.316   4.543
50215W        W18433   9.458  10.106   1.889
50216W        W18434   2.922  12.160  14.962
50217W        W18435   2.207   9.930   2.343
50218W        W18436  15.004  31.159   3.550
50219W        W18437   0.266  20.724  14.517
50220W        W18438  10.567   7.332   1.768
50221W        W18439   8.722  38.833   0.801
50222W        W18440  36.541  35.165  11.131
50223W        W18441  28.655  27.893  11.800
50224W        W18442  40.531  28.383  13.763
50225W        W18443  29.128  10.304  10.703
50226W        W18444  19.856   0.932  11.563
50227W        W18445   3.943  44.047  11.636
50228W        W18446  39.485  43.592   4.353
50229W        W18447   1.892  12.631  13.524
50230W        W18448  11.131  36.065  13.107
50231W        W18449   0.986  19.085   4.243
50232W        W18450   9.595  30.924   3.679
50233W        W18451  37.575   4.962  14.109
50234W        W18452  37.760  37.495  12.971
50235W        W18453   5.802   5.229   0.460
50236W        W18454  35.380  44.853   3.525
50237W        W18455  31.623  20.978  10.002
50238W        W18456   6.158  34.114   1.948
50239W        W18457  33.458  34.919   5.015
50240W        W18458   2.993  12.661  11.072
50241W        W18459  35.660  18.761  12.606
50242W        W18460  13.173  20.334  14.323
50243W        W18461  33.311   5.193  14.792
50244W        W18462  44.837  16.229  13.435
50245W        W18463  31.623   4.586   0.304
50246W        W18464  30.152  28.988   1.331
50247W        W18465   5.640  21.242  11.038
50248W        W18466  37.469   4.061   3.645
50249W        W18467  16.102  11.748   4.885
50250W        W18468  41.779  36.977   4.213
50251W        W18469  24.213  25.576   0.763
50252W        W18470  35.409  11.448  13.343
50253W        W18471  43.924  14.072   4.073
50254W        W18472  33.146  39.291   4.182
50255W        W18473  40.620  33.349  12.145
50256W        W18474   6.226   2.399  13.265
50257W        W18475  18.149   5.245   1.226
50258W        W18476  17.379  30.870  13.887
50259W        W18477  43.113  27.994  14.885
50260W        W18478   3.701  12.706   4.482
50261W        W18479   4.316  35.137   4.701
50262W        W18480   2.495  14.635   3.623
50263W        W18481  25.355  18.489  11.104
50264W        W18482  43.789   9.712   4.607
50265W        W18483  40.025  32.964  13.523
50266W        W18484   7.798  12.740   0.240
50267W        W18485  16.049   6.340  11.047
50268W        W18486  32.133  14.727  13.541
50269W        W18487  36.887   6.945   2.176
50270W        W18488  24.702  13.599  12.836
50271W        W18489  38.869  20.438   2.660
50272W        W18490   0.495   8.052  11.538
50273W        W18491   4.280  22.067  10.435
50274W        W18492  10.895  42.824   2.892
50275W        W18493  25.925  32.578   0.405
50276W        W18494   8.432  13.878  11.682
50277W        W18495  29.121  13.399   3.993
50278W        W18496  32.929  43.386  12.073
50279W        W18497  41.883  36.816   1.849
50280W        W18498  11.533  34.260  11.975
50281W        W18499  30.473  41.807  12.832
50282W        W18500  11.832  13.231  14.573
50283W        W18501  32.801   0.951   2.190
50284W        W18502  35.182  40.994   2.257
50285W        W18503  28.017  19.735  13.196
50286W        W18504  33.601  28.546   4.451
50287W        W18505  26.687  32.935  10.072
50288W        W18506  41.427  36.581   1.770
50289W        W18507  25.195  44.964  13.817
50290W        W18508   2.500  24.471   4.669
50291W        W18509   9.355  29.622  12.450
50292W        W18510  20.257  16.796   0.455
50293W        W18511  10.793  16.767   2.928
50294W        W18512  22.263  44.478   4.570
50295W        W18513   4.510  36.549  12.973
50296W        W18514  29.224  36.012   3.007
50297W        W18515   9.142  39.553   4.079
50298W        W18516   8.684  28.728   2.338
50299W        W18517  31.995   1.349   2.051
50300W        W18518  39.336  33.370   1.793
50301W        W18519  29.181  17.739   4.239
50302W        W18520  24.911  12.426  11.045
50303W        W18521  44.235  24.828   0.825
50304W        W18522  18.158  42.852   4.084
50305W        W18523  20.584  22.774   4.597
50306W        W18524  35.713   9.183   1.895
50307W        W18525  16.617  27.377   2.257
50308W        W18526  36.003   3.344   4.540
50309W        W18527  23.054  37.997  10.683
50310W        W18528  39.104  29.667  13.001
50311W        W18529  32.703   6.206   4.287
50312W        W18530  39.634  28.977  14.466
50313W        W18531  11.697  30.497   4.561
50314W        W18532  34.951  15.275   1.725
50315W        W18533  39.817  27.961   3.223
50316W        W18534  18.672   4.328  14.399
50317W        W18535  33.946  12.356   0.370
50318W        W18536   2.564  31.614  10.371
50319W        W18537  21.506  21.285   1.181
50320W        W18538  34.499   0.280   0.370
50321W        W18539  20.458  28.476  12.413
50322W        W18540  24.688  27.885  12.040
50323W        W18541  33.284  29.585   9.903
50324W        W18542  23.060  14.466   2.845
50325W        W18543  26.178   0.769  14.805
50326W        W18544  25.886  43.932   2.715
50327W        W18545  11.844  39.261   4.211
50328W        W18546  28.126  36.293   1.749
50329W        W18547   5.530  30.186   3.297
50330W        W18548   3.853  28.904   1.207
50331W        W18549   3.651  30.126  13.007
50332W        W18550  26.063  34.179   4.174
50333W        W18551   9.103  39.510  10.763
50334W        W18552  44.747  39.799  11.626
50335W        W18553  44.581  18.117   1.775
50336W        W18554  23.548  24.947   3.094
50337W        W18555  40.892  13.373  13.075
50338W        W18556   9.302  33.218  14.998
50339W        W18557   6.467  40.484   4.266
50340W        W18558  18.135   9.903  12.958
50341W        W18559  37.949  19.319  11.910
50342W        W18560   5.089   1.915  12.860
50343W        W18561   1.774  29.968   0.406
50344W        W18562  16.170  11.632   4.380
50345W        W18563  27.574  12.624  13.020
50346W        W18564   6.308  10.722  13.240
50347W        W18565   4.998  30.517  11.473
50348W        W18566  16.177  18.350  14.043
50349W        W18567  33.362  29.410   0.780
50350W        W18568  30.514   6.441   1.807
50351W        W18569  14.771  40.496   4.125
50352W        W18570  11.839   1.405   2.116
50353W        W18571  21.097  14.222   1.930
50354W        W18572   1.173  43.870  13.028
50355W        W18573  28.637  25.107   1.918
50356W        W18574   9.171  39.025  12.084
50357W        W18575  13.988  42.295  12.011
50358W        W18576  34.603  17.840   4.590
50359W        W18577  35.866  12.516  13.443
50360W        W18578  18.697  18.655   2.688
50361W        W18579  20.172  30.916   3.627
50362W        W18580  33.450   7.667   4.623
50363W        W18581  24.123  39.481   4.566
50364W        W18582  27.765  35.308   0.851
50365W        W18583  38.898  17.268  12.681
50366W        W18584   2.972  20.694   1.412
50367W        W18585   4.028  14.149  14.374
50368W        W18586  10.346  23.055   1.694
50369W        W18587  13.224   0.078   3.635
50370W        W18588   0.374  25.733  13.995
50371W        W18589  11.600   0.477   1.262
50372W        W18590  40.272  36.497  10.759
50373W        W18591  16.680  29.566  14.924
50374W        W18592  42.059  35.377   1.527
50375W        W18593   7.971  41.953   0.540
50376W        W18594   3.890   5.019   3.753
50377W        W18595  27.174   1.959   0.516
50378W        W18596   9.684  25.673  13.598
50379W        W18597  16.618  44.538  13.521
50380W        W18598   0.931  24.111   1.095
50381W        W18599   9.442  15.981   3.210
50382W        W18600   9.885  38.824   1.875
50383W        W18601  44.264  38.818  13.797
50384W        W18602  15.917  40.106   0.588
50385W        W18603  27.972  21.176  11.022
50386W        W18604  12.883  42.785   0.200
50387W        W18605  28.638  13.043  10.219
50388W        W18606  15.670  18.286  13.329
50389W        W18607  18.364  27.895   4.070
50390W        W18608  38.863   5.976   4.104
50391W        W18609  13.178  27.663   2.253
50392W        W18610  31.638   8.123   0.399
50393W        W18611  20.530  43.753   1.487
50394W        W18612  44.423  36.309  13.861
50395W        W18613  34.081  12.535  11.991
50396W        W18614   8.558  32.955   4.062
50397W        W18615  32.405  18.021  14.415
50398W        W18616  26.738  19.929  12.208
50399W        W18617  42.874  41.556  12.348
50400W        W18618  34.375   7.129   2.353
50401W        W18619  25.686   4.429   0.567
50402W        W18620   9.786  25.133   1.250
50403W        W18621   9.648  18.982   2.806
50404W        W18622  25.060  21.038   3.884
50405W        W18623   6.126  32.373  10.429
50406W        W18624  34.445  31.236  13.426
50407W        W18625  38.466  40.106   2.351
50408W        W18626  33.809   5.635   1.974
50409W        W18627  23.233  22.511  14.870
50410W        W18628   6.731  26.400   2.679
50411W        W18629  36.606   1.740  13.102
50412W        W18630   1.527  13.620  13.251
50413W        W18631  20.765  42.095   4.267
50414W        W18632  19.122   1.956   4.241
50415W        W18633  27.480   2.477  10.720
50416W        W18634   1.513  27.993   2.444
50417W        W18635  14.328   9.139  11.643
50418W        W18636   0.032   7.959  14.584
50419W        W18637  13.171  35.920   1.169
50420W        W18638  28.546  25.072  13.026
50421W        W18639   9.735  19.308  13.474
50422W        W18640  31.122  21.407  14.872
50423W        W18641  22.707   5.806  13.042
50424W        W18642  37.591  29.350   2.657
50425W        W18643   0.713   4.924   1.212
50426W        W18644  26.525  22.713   3.657
50427W        W18645  10.691  44.403   1.140
50428W        W18646  18.077  34.715  10.465
50429W        W18647   3.507   9.646   2.890
50430W        W18648  28.647  21.185  14.270
50431W        W18649   2.971  40.882  11.133
50432W        W18650  26.048  11.424  14.341
50433W        W18651   9.437   0.904   1.484
50434W        W18652  36.745  35.752   4.714
50435W        W18653  26.455  21.055  10.638
50436W        W18654  12.225   1.394   1.022
50437W        W18655  34.539  39.511  12.315
50438W        W18656  26.031   7.132  10.580
50439W        W18657  40.972  10.650   1.735
50440W        W18658   7.806   0.826  10.601
50441W        W18659  30.711  16.653   1.294
50442W        W18660  38.430   0.649   4.161
50443W        W18661  36.361  31.940  10.623
50444W        W18662  40.603   3.208   3.074
50445W        W18663  32.177  29.188   4.206
50446W        W18664  41.435  35.908  10.934
50447W        W18665   6.957   7.220   3.675
50448W        W18666  22.209   0.775  14.468
50449W        W18667  43.347   4.533   0.166
50450W        W18668  14.763   1.438  13.847
50451W        W18669  14.568  35.611  14.802
50452W        W18670  38.344   1.283  14.438
50453W        W18671  32.362  44.330  10.263
50454W        W18672  25.241  16.616  13.468
50455W        W18673  43.391  41.053   4.545
50456W        W18674  39.870  41.234  11.721
50457W        W18675  31.587  31.477   0.967
50458W        W18676  10.932  17.574   5.016
50459W        W18677   5.697  32.046  11.131
50460W        W18678  13.804  32.401  13.407
50461W        W18679  35.507   2.192   0.447
50462W        W18680  40.407  24.598  14.711
50463W        W18681   2.026  35.046   0.884
50464W        W18682  29.420  26.066  14.017
50465W        W18683  42.092  34.125   4.747
50466W        W18684  24.181  41.596  11.200
50467W        W18685  37.661   9.068   0.366
50468W        W18686  31.483  32.859   0.153
50469W        W18687  43.314  13.991  13.074
50470W        W18688  21.304  13.151  10.912
50471W        W18689  32.439  42.949  14.306
50472W        W18690   2.918  30.022   0.078
50473W        W18691  13.367  37.972  11.659
50474W        W18692   1.727   0.379  11.668
50475W        W18693   3.923   1.793  14.744
50476W        W18694  15.650  10.926  14.378
50477W        W18695  21.249   0.749   1.683
50478W        W18696  38.822  15.254  14.267
50479W        W18697   7.256   0.731   3.401
50480W        W18698  37.101  11.630   0.039
50481W        W18699  30.557  44.892   0.465
50482W        W18700  13.366  28.131   2.210
50483W        W18701   7.750  35.821  11.704
50484W        W18702  38.429  13.074  10.721
50485W        W18703  39.921  41.839  11.581
50486W        W18704  32.103  16.538   1.308
50487W        W18705   8.660  32.536   4.369
50488W        W18706   8.241  19.303   2.414
50489W        W18707   0.347  28.449   3.272
50490W        W18708  43.549   3.855  14.445
50491W        W18709   5.403  22.887   4.119
50492W        W18710  11.737  30.962  10.536
50493W        W18711  35.813   8.812   0.343
50494W        W18712  12.267   4.671   3.645
50495W        W18713  38.034  26.436  10.712
50496W        W18714  35.496   5.348  10.777
50497W        W18715  40.997  22.611  14.145
50498W        W18716  25.365  23.232  14.850
50499W        W18717  27.331  27.743  10.535
50500W        W18718  34.831   1.104  12.870
50501W        W18719  18.152   9.642   1.472
50502W        W18720  43.096  24.116   1.455
50503W        W18721  14.233  11.291  12.071
50504W        W18722  34.385  12.344  11.550
50505W        W18723  14.848   5.722   1.895
50506W        W18724  33.131  13.107  14.256
50507W        W18725  12.387  10.877  14.916
50508W        W18726   3.040  12.313   4.005
50509W        W18727   9.674   6.879   3.175
50510W        W18728  16.216   4.528  12.192
50511W        W18729  24.983  31.004   3.548
50512W        W18730  27.927  19.945  13.967
50513W        W18731  25.118   6.126   5.137
50514W        W18732  17.503  18.784  14.484
50515W        W18733  23.647  20.531   0.872
50516W        W18734  27.542  12.190  12.763
50517W        W18735   7.164  27.451  14.439
50518W        W18736  38.651  15.768  12.379
50519W        W18737  12.902  20.160   1.531
50520W        W18738  38.251   0.860  13.185
50521W        W18739  41.272   2.008  12.837
50522W        W18740  18.837  41.311   2.810
50523W        W18741   4.454  31.252   0.824
50524W        W18742  33.949   2.869  14.025
50525W        W18743  43.020  10.266  14.296
50526W        W18744  10.752  24.750  11.994
50527W        W18745   3.409  26.102   4.405
50528W        W18746  42.721   4.830  11.578
50529W        W18747   4.695  30.153  11.635
50530W        W18748  41.893  34.482  10.589
50531W        W18749  38.923  20.001  11.520
50532W        W18750  33.151  28.359  11.693
50533W        W18751  37.094   7.543   3.627
50534W        W18752   3.378  44.475   3.887
50535W        W18753  10.428  12.205   2.206
50536W        W18754  43.897   4.475   4.340
50537W        W18755  39.530   5.655  13.753
50538W        W18756  35.861  36.596  13.242
50539W        W18757  21.518  25.115   4.826
50540W        W18758  22.615   5.214   4.744
50541W        W18759   0.262   3.718   2.863
50542W        W18760  16.677  23.229   2.164
50543W        W18761   8.192  37.646   2.682
50544W        W18762   8.252  44.811  11.162
50545W        W18763  44.987  17.454   2.227
50546W        W18764   5.568   3.315  11.401
50547W        W18765  15.816  38.291   0.789
50548W        W18766  15.506  41.911   2.791
50549W        W18767  34.566  44.627  14.539
50550W        W18768   0.469  35.452   2.340
50551W        W18769  26.657  40.282   3.168
50552W        W18770   7.627  41.252  12.052
50553W        W18771   7.428  17.781   3.791
50554W        W18772  18.139  34.280  10.716
50555W        W18773  21.845  36.516   4.365
50556W        W18774  13.333   6.074  11.314
50557W        W18775  44.307  17.181   1.298
50558W        W18776  23.161  35.306  11.870
50559W        W18777   8.751  25.724  14.446
50560W        W18778  10.258  42.259   0.282
50561W        W18779   9.914  28.604  11.648
50562W        W18780  10.290   9.196  11.399
50563W        W18781  11.329  43.381  14.716
50564W        W18782  13.237  31.196  12.597
50565W        W18783  17.313   7.325  13.818
50566W        W18784   0.229   6.370  14.387
50567W        W18785  28.741   6.134  12.536
50568W        W18786   8.365  23.601  13.421
50569W        W18787  25.343   1.989  13.458
50570W        W18788  14.334  28.970   4.646
50571W        W18789   3.292  22.386   3.708
50572W        W18790  40.407  44.514  12.012
50573W        W18791  16.769   7.801  12.040
50574W        W18792   9.983  18.386   4.990
50575W        W18793  43.411  34.717  14.023
50576W        W18794   2.273  38.531   0.416
50577W        W18795  32.057  11.177  13.631
50578W        W18796  21.985  41.873  13.310
50579W        W18797  21.177  38.011   4.801
50580W        W18798  23.779  42.170   0.472
50581W        W18799  15.257  21.145   0.220
50582W        W18800  33.623  16.278   2.354
50583W        W18801  31.651  25.146  13.233
50584W        W18802  22.260   3.133   1.694
50585W        W18803  34.013   8.680  11.660
50586W        W18804   4.173  21.529   2.383
50587W        W18805  38.585  11.860   5.079
50588W        W18806  40.026  42.178   4.130
50589W        W18807   6.188   3.915  11.525
50590W        W18808  16.778  15.769   3.258
50591W        W18809   2.864  41.568  14.996
50592W        W18810  20.192  22.434  10.233
50593W        W18811  32.200   7.723   2.368
50594W        W18812  35.858  37.098   1.485
50595W        W18813  13.452  44.410  12.372
50596W        W18814  31.692   6.146   9.686
50597W        W18815  38.918  38.076  11.782
50598W        W18816  40.572  33.915   2.143
50599W        W18817  24.257   3.431  14.343
50600W        W18818  35.971   4.233   4.546
50601W        W18819  16.794  38.418   2.658
50602W        W18820   0.004  33.002  13.370
50603W        W18821   2.885  38.586   3.693
50604W        W18822   0.779  11.141  10.667
50605W        W18823  31.506  30.095  14.910
50606W        W18824  38.033  16.633   0.344
50607W        W18825  37.571  28.846  12.581
50608W        W18826  10.885   6.634   4.578
50609W        W18827   7.184  25.034  14.737
50610W        W18828   5.881  38.348   1.926
50611W        W18829  34.994   3.830   2.250
50612W        W18830  34.284  44.715   1.249
50613W        W18831  25.834  30.856  14.490
50614W        W18832  22.068  33.993   2.196
50615W        W18833  31.630  29.120   2.815
50616W        W18834  34.629  37.534  12.445
50617W        W18835  22.768  29.452   0.424
50618W        W18836  26.144   9.671  13.554
50619W        W18837  34.182  44.953   4.434
50620W        W18838  24.131  27.083  13.352
50621W        W18839  42.463  33.420   2.196
50622W        W18840   5.440  27.202  13.076
50623W        W18841  38.521   4.825  11.474
50624W        W18842  44.249  35.221  13.881
50625W        W18843  14.786  34.470  13.954
50626W        W18844   4.318  32.038  14.919
50627W        W18845  34.391  23.299  10.652
50628W        W18846   9.070  29.401   4.232
50629W        W18847  13.550  33.126   2.354
50630W        W18848   6.346  30.602   2.157
50631W        W18849  17.718  28.635  11.985
50632W        W18850  34.997  34.062   4.002
50633W        W18851   9.712  22.193  12.000
50634W        W18852  19.418  19.200   2.621
50635W        W18853  15.292   3.202   5.090
50636W        W18854  36.496  35.547  13.885
50637W        W18855  42.398  43.137   3.030
50638W        W18856  19.765  35.392   3.153
50639W        W18857  42.752  26.361   1.375
50640W        W18858  26.442  28.443  11.585
50641W        W18859  33.228  16.547  12.153
50642W        W18860  44.188   8.675  11.519
50643W        W18861  26.854   5.748  10.507
50644W        W18862   5.227  33.081  11.446
50645W        W18863  37.812   1.474  13.821
50646W        W18864   1.276   1.047  12.459
50647W        W18865  28.945  39.978  14.974
50648W        W18866  33.887  10.702   4.919
50649W        W18867  24.573   2.996   4.749
50650W        W18868  29.702  20.654  12.888
50651W        W18869  14.259  10.366  13.966
50652W        W18870  23.983  44.512  12.556
50653W        W18871  29.488  19.023   1.914
50654W        W18872  17.713  19.810  13.832
50655W        W18873  27.894  21.092   2.452
50656W        W18874  39.612   4.814   4.619
50657W        W18875   0.422  35.866   0.275
50658W        W18876  31.966  15.220   0.480
50659W        W18877  32.609  26.508  14.447
50660W        W18878  20.694  20.770  13.839
50661W        W18879   8.651  18.158  12.088
50662W        W18880  33.841  39.398  11.085
50663W        W18881  40.847   2.216  13.627
50664W        W18882  17.172  43.051   5.023
50665W        W18883  11.124  28.139   0.802
50666W        W18884  35.725   0.475  12.447
50667W        W18885  12.842  33.187  14.263
50668W        W18886  20.249  44.587  12.933
50669W        W18887   5.957   0.341  13.308
50670W        W18888  31.051  17.908   0.924
50671W        W18889  44.106  33.789  11.561
50672W        W18890  36.639  37.655  11.165
50673W        W18891  17.667  37.511  10.626
50674W        W18892  25.220  10.597  13.829
50675W        W18893  22.787  29.596  11.076
50676W        W18894  37.809  10.106   3.207
50677W        W18895  32.661  44.746   4.307
50678W        W18896   5.641  39.808  13.480
50679W        W18897  21.533  40.919  11.116
50680W        W18898   2.240  19.792  11.126
50681W        W18899  17.580  25.194  11.003
50682W        W18900  23.018  42.803  13.919
50683W        W18901   0.929  22.179  10.973
50684W        W18902  15.294  31.534   0.406
50685W        W18903  41.792  42.549   3.669
50686W        W18904  35.865  31.149   4.154
50687W        W18905   4.605  27.430  10.265
50688W        W18906  15.840  37.075   0.128
50689W        W18907  39.477  17.998  13.107
50690W        W18908  27.563  10.757  10.666
50691W        W18909  40.232  19.188  13.289
50692W        W18910  38.497  33.390  14.337
50693W        W18911  31.982  12.867   2.655
50694W        W18912  33.371  42.829   0.390
50695W        W18913   3.824  36.144   4.168
50696W        W18914  37.886   0.385   2.870
50697W        W18915   4.909   2.366   1.777
50698W        W18916  38.919  32.475  12.921
50699W        W18917   7.477  23.078  11.107
50700W        W18918  26.664  36.707   2.065
50701W        W18919   1.699   6.708  11.533
50702W        W18920   3.788  41.263  14.999
50703W        W18921  12.399  16.809  10.955
50704W        W18922  35.317  29.980   2.232
50705W        W18923  10.094  26.060  11.686
50706W        W18924  35.654  10.227  11.987
50707W        W18925   5.150   0.241   2.239
50708W        W18926  36.487  43.063  12.025
50709W        W18927  41.322  15.271  12.156
50710W        W18928  35.423  21.598  11.168
50711W        W18929  10.695  26.883  11.612
50712W        W18930  34.508  26.661   4.075
50713W        W18931   2.729   1.997   0.748
50714W        W18932  33.954  20.119   4.398
50715W        W18933  15.518  24.001  13.498
50716W        W18934  33.860  40.519  12.788
50717W        W18935  12.867  21.656  10.620
50718W        W18936   9.205  36.421   2.308
50719W        W18937  43.791  15.042   1.511
50720W        W18938  23.029   2.467  13.546
50721W        W18939  27.988  22.196  11.767
50722W        W18940  19.200  10.564   0.322
50723W        W18941  31.106  34.146   4.621
50724W        W18942  14.244  42.115  10.251
50725W        W18943  36.671  39.241   3.252
50726W        W18944  40.036  35.938  13.384
50727W        W18945  40.579  23.046   1.850
50728W        W18946  15.311   0.518  11.941
50729W        W18947  30.827   1.370   2.317
50730W        W18948  17.670  22.243   2.802
50731W        W18949  14.865  21.397  14.983
50732W        W18950  22.110  19.831  11.528
50733W        W18951  26.988  26.724   0.386
50734W        W18952  39.163  26.834   1.487
50735W        W18953  41.767  17.301   1.864
50736W        W18954  38.452  42.251  14.297
50737W        W18955  42.348  35.009  12.620
50738W        W18956  31.338   3.891  13.525
50739W        W18957  31.311  15.076  13.329
50740W        W18958  40.836  25.520  10.718
50741W        W18959  10.125  32.086   3.152
50742W        W18960  31.600  43.535  13.401
50743W        W18961  30.651  32.311  14.976
50744W        W18962   2.761  37.901   2.966
50745W        W18963  42.611  36.137   0.026
50746W        W18964  13.415  31.069  13.949
50747W        W18965  11.877  44.493  13.662
50748W        W18966  25.009  33.553   0.945
50749W        W18967  39.105  13.050   3.816
50750W        W18968  25.182   6.986  11.095
50751W        W18969  11.152  11.341   3.708
50752W        W18970  34.194  38.968  14.758
50753W        W18971  41.017   0.910  13.414
50754W        W18972  25.633   2.786  13.774
50755W        W18973  17.008  33.538   3.073
50756W        W18974   3.619  41.549  11.877
50757W        W18975  29.282  13.969   2.583
50758W        W18976   5.253  22.254   1.234
50759W        W18977  38.594  39.821  14.361
50760W        W18978   7.962  31.551  13.843
50761W        W18979  21.767  43.467   2.334
50762W        W18980  24.969  44.376  13.727
50763W        W18981  37.504  39.086   2.345
50764W        W18982  24.533  42.333  12.644
50765W        W18983  18.759  34.473  12.471
50766W        W18984  25.028  14.817   4.847
50767W        W18985  27.552  28.056  13.305
50768W        W18986   9.841   7.252  12.702
50769W        W18987  12.372   1.341   1.955
50770W        W18988  20.788  41.038   0.641
50771W        W18989  40.452  39.417   0.441
50772W        W18990   9.211  40.907  14.827
50773W        W18991  11.583  28.399   3.566
50774W        W18992  31.134  22.663  12.949
50775W        W18993   4.728   6.292  13.121
50776W        W18994   0.350  41.395  10.812
50777W        W18995  34.180  30.014  14.754
50778W        W18996   6.336  15.997  12.998
50779W        W18997   4.236   9.191  11.039
50780W        W18998   2.930  41.060  14.941
50781W        W18999  43.306  20.979  12.072
50782W        W19000  41.417   6.620   3.796
50783W        W19001  18.110   8.704   0.850
50784W        W19002   7.194   7.331   0.900
50785W        W19003  17.353  39.404  13.873
50786W        W19004  13.107   0.201  14.902
50787W        W19005   4.941   0.332  11.586
50788W        W19006  32.989  30.029   2.166
50789W        W19007  22.911  41.312  11.128
50790W        W19008   1.263  15.170   1.337
50791W        W19009   4.448  37.016   4.170
50792W        W19010  40.473  34.022  12.739
50793W        W19011  33.573   9.365  11.607
50794W        W19012  27.570  31.478   3.684
50795W        W19013  40.844  44.240  11.919
50796W        W19014  14.081  34.362  10.651
50797W        W19015  15.425  14.047   2.847
50798W        W19016   7.850  36.473   1.711
50799W        W19017  28.390  33.688  13.047
50800W        W19018  12.634  22.732   3.675
50801W        W19019  30.066  20.052   4.836
50802W        W19020  34.591  42.015  13.489
50803W        W19021  20.419  26.563  11.042
50804W        W19022  18.053  34.255  10.170
50805W        W19023  17.096  32.586  12.126
50806W        W19024  31.808   8.874  12.027
50807W        W19025   5.235  16.215  13.306
50808W        W19026  40.842  35.113  12.157
50809W        W19027  33.441  22.611  11.600
50810W        W19028  17.360  12.671  10.804
50811W        W19029  25.665  27.883   0.296
50812W        W19030  41.438   4.370   4.151
50813W        W19031   3.089  20.918  13.867
50814W        W19032   6.080  34.868  11.034
50815W        W19033   1.561  17.071  12.425
50816W        W19034   8.691  44.417   0.702
50817W        W19035  15.180  13.056  11.195
50818W        W19036  29.708  33.066  12.033
50819W        W19037  42.269  35.542  10.551
50820W        W19038  18.275  15.926   4.994
50821W        W19039  42.988  21.126  13.361
50822W        W19040   4.877   4.782  10.811
50823W        W19041  39.630   0.811  13.287
50824W        W19042  14.491  33.332   5.171
50825W        W19043  24.627  26.428   1.004
50826W        W19044  36.044   3.907  10.583
50827W        W19045  15.329  25.520  12.552
50828W        W19046  20.514  12.799   1.351
50829W        W19047  16.669  29.447   4.566
50830W        W19048  34.548  29.551   1.903
50831W        W19049  25.334   1.408  11.240
50832W        W19050  26.648   0.480  10.963
50833W        W19051  26.601  24.758  12.378
50834W        W19052   8.204  43.548  10.802
50835W        W19053  41.014  18.317   0.228
50836W        W19054   5.172   5.459  13.075
50837W        W19055   9.145   4.900  11.201
50838W        W19056  31.515  32.166   2.562
50839W        W19057  33.386   7.481  11.234
50840W        W19058  43.169  30.453   0.314
50841W        W19059  14.659   3.545  12.261
50842W        W19060   7.236  15.701   2.213
50843W        W19061  26.602  27.741  12.054
50844W        W19062  18.634   0.400  12.754
50845W        W19063   8.413  39.773   3.695
50846W        W19064  19.875  36.545   0.337
50847W        W19065  44.923  26.579  11.134
50848W        W19066  33.524  42.357   2.469
50849W        W19067  36.790  37.386  12.946
50850W        W19068   3.979  19.071  14.438
50851W        W19069   6.652  32.596   4.751
50852W        W19070  40.233  20.222   2.748
50853W        W19071  13.822   6.888  13.370
50854W        W19072  34.056  22.963   2.321
50855W        W19073  33.279   8.315  14.741
50856W        W19074  43.361  33.391  11.920
50857W        W19075  42.356  44.203   2.926
50858W        W19076   6.086  20.204   2.195
50859W        W19077  11.278  36.278   1.856
50860W        W19078   9.749  25.954  12.509
50861W        W19079  21.037  24.095  14.775
50862W        W19080  36.552  40.440   2.452
50863W        W19081  30.867  31.605   3.023
50864W        W19082  44.368   7.850   3.091
50865W        W19083  36.522  12.877   1.939
50866W        W19084  22.579  35.581   1.291
50867W        W19085  24.283  13.136  11.133
50868W        W19086  16.706   2.537   0.954
50869W        W19087  13.795  26.253   2.453
50870W        W19088  17.791  27.645  14.786
50871W        W19089   9.011  18.774   4.336
50872W        W19090  43.325  20.047  14.336
50873W        W19091  36.602  42.736  11.631
50874W        W19092  31.637  43.194  13.885
50875W        W19093  26.203  20.772   0.250
50876W        W19094  29.018  12.904  12.201
50877W        W19095  21.248  10.777  11.614
50878W        W19096  16.782  23.354  11.081
50879W        W19097  20.184  12.350   4.218
50880W        W19098   9.214  11.380  12.857
50881W        W19099  42.703  13.284   3.191
50882W        W19100  22.656   2.122  13.410
50883W        W19101   5.952   8.059  13.411
50884W        W19102  32.703  36.586   2.671
50885W        W19103  35.383  11.897   3.708
50886W        W19104  15.985  37.181   4.819
50887W        W19105  10.738   1.449   0.991
50888W        W19106   6.546  35.443   4.281
50889W        W19107  40.343  35.364   3.262
50890W        W19108  34.324  14.672   0.210
50891W        W19109   4.778  25.569  13.771
50892W        W19110   1.145   4.941   4.229
50893W        W19111  13.853  31.005   0.241
50894W        W19112   1.282  20.620  14.452
50895W        W19113  34.290  22.239  14.917
50896W        W19114  43.914  15.110  14.055
50897W        W19115   5.565  18.764  13.771
50898W        W19116  20.792  29.967   2.797
50899W        W19117  24.253   8.941   3.282
50900W        W19118  10.792  41.929  12.974
50901W        W19119  13.643  20.214   1.636
50902W        W19120   4.877  44.766  10.428
50903W        W19121  31.981   9.317   3.612
50904W        W19122  38.340  42.581  12.367
50905W        W19123  31.554  23.541   2.180
50906W        W19124  30.588  34.612   2.223
50907W        W19125   0.183  44.122  14.015
50908W        W19126  12.288   1.924   1.639
50909W        W19127  28.444  16.561  12.492
50910W        W19128  21.506  22.082   4.422
50911W        W19129  41.411  28.164  12.076
50912W        W19130  34.046  19.289  12.094
50913W        W19131   2.243  25.195  11.695
50914W        W19132  42.376   8.933  12.701
50915W        W19133  37.570  31.945   2.182
50916W        W19134  44.885  29.525  11.548
50917W        W19135   4.270  30.651   0.020
50918W        W19136  18.151  10.894  10.463
50919W        W19137  38.991  21.872  14.580
50920W        W19138  29.889  31.086   4.770
50921W        W19139  20.484  11.165  14.078
50922W        W19140  22.281  17.450  11.190
50923W        W19141  36.421   6.622  10.322
50924W        W19142  10.144   4.943   2.204
50925W        W19143  41.761   9.741  11.457
50926W        W19144  22.115  38.793   1.193
50927W        W19145  38.852  33.633  11.178
50928W        W19146   2.571  11.787   5.023
50929W        W19147  44.080   5.363   4.904
50930W        W19148   5.200  38.887  14.509
50931W        W19149  32.089   2.816  11.495
50932W        W19150  35.871  33.498  11.440
50933W        W19151  34.219  19.703   1.363
50934W        W19152  13.832   2.153   1.225
50935W        W19153  24.708   7.832   1.320
50936W        W19154  17.852  34.558  14.438
50937W        W19155  26.701  14.869  12.437
50938W        W19156  26.652   8.976  14.375
50939W        W19157   4.674  13.360   2.867
50940W        W19158   8.381   3.762  13.474
50941W        W19159  42.487  37.093  14.788
50942W        W19160  39.074  42.814   3.877
50943W        W19161  17.050   0.394   2.809
50944W        W19162  32.392  22.988  10.734
50945W        W19163  23.560  30.615  11.534
50946W        W19164   8.297  32.044   2.587
50947W        W19165  13.725  21.985   0.390
50948W        W19166  33.186  43.310   1.474
50949W        W19167  14.583  22.610   2.207
50950W        W19168  12.114   1.026   2.746
50951W        W19169   8.720  25.489  12.193
50952W        W19170  37.457  16.178   3.937
50953W        W19171  24.979  38.382  11.294
50954W        W19172   5.814  16.529   3.629
50955W        W19173  10.181   9.819   2.333
50956W        W19174  15.625   5.078   3.151
50957W        W19175  17.441  39.868   2.235
50958W        W19176  25.105  43.847   4.213
50959W        W19177  23.709  34.070   3.065
50960W        W19178  12.993  35.162   3.146
50961W        W19179  34.950  16.253  14.953
50962W        W19180  35.804  38.651   0.754
50963W        W19181  35.813  41.293  13.439
50964W        W19182  33.163  17.361  12.496
50965W        W19183   7.036  40.305  11.130
50966W        W19184   2.432   5.866   0.623
50967W        W19185  44.960  11.301   3.411
50968W        W19186   6.361  15.262   0.067
50969W        W19187  30.562  17.280   2.498
50970W        W19188  29.766  25.417   4.144
50971W        W19189   4.150   8.417   3.210
50972W        W19190  22.756  22.295  14.783
50973W        W19191  32.491   9.801   1.480
50974W        W19192  12.674  15.650  13.416
50975W        W19193   8.397  18.211   3.168
50976W        W19194  20.444  25.247   4.061
50977W        W19195  21.418  44.483   0.073
50978W        W19196   1.466  20.174   0.251
50979W        W19197   7.271  42.594  11.300
50980W        W19198  18.289  39.309  12.086
50981W        W19199   9.963  24.768  14.056
50982W        W19200   6.184  26.463  13.035
50983W        W19201  30.061  19.664  11.584
50984W        W19202  20.840   1.486  12.025
50985W        W19203  16.132  29.051   3.831
50986W        W19204   5.927   5.730  13.713
50987W        W19205  18.561  33.361  10.689
50988W        W19206  19.316  26.700  11.661
50989W        W19207  26.367  34.950   0.857
50990W        W19208  13.186  34.143   1.625
50991W        W19209  37.332   7.779   4.957
50992W        W19210  42.904  40.263   4.547
50993W        W19211   7.665  23.714   0.466
50994W        W19212  38.629  41.365   0.926
50995W        W19213   8.392  38.127   2.714
50996W        W19214  20.186  43.045  14.780
50997W        W19215  12.375  25.494   4.061
50998W        W19216   2.788  24.682   1.940
50999W        W19217  43.287   8.915  14.023
51000W        W19218  32.614  16.666   4.649
51001W        W19219  24.710  35.060   3.145
51002W        W19220  17.140  41.409   4.048
51003W        W19221  30.540  43.518   2.768
51004W        W19222  42.751  16.220   1.204
51005W        W19223  37.776  15.877  10.582
51006W        W19224  34.797   5.531   0.951
51007W        W19225   1.827   0.940   4.530
51008W        W19226   5.487  31.891   3.586
51009W        W19227  34.899   6.619  12.389
51010W        W19228   8.866  30.527   1.945
51011W        W19229  39.132  40.673  11.443
51012W        W19230  25.796  42.820   3.532
51013W        W19231   0.208  34.008   0.389
51014W        W19232  14.846  15.895  13.947
51015W        W19233  39.571  36.038  13.584
51016W        W19234  36.375  22.963  12.990
51017W        W19235  27.496  10.469  11.082
51018W        W19236  24.748   7.818  12.516
51019W        W19237  44.745  31.918  11.631
51020W        W19238   3.809  27.862   1.674
51021W        W19239   3.720   5.938  11.576
51022W        W19240   9.345  15.547  11.966
51023W        W19241   9.475  15.821  12.385
51024W        W19242  23.113  34.827   1.209
51025W        W19243  23.003  11.457  12.820
51026W        W19244   4.431  41.998  10.890
51027W        W19245  11.608  19.312   1.456
51028W        W19246  26.595  44.573   1.729
51029W        W19247  21.502  35.850  13.440
51030W        W19248   1.302  37.170   1.783
51031W        W19249  42.411  12.527   3.162
51032W        W19250  40.836   3.952   3.516
51033W        W19251  10.854  22.643  10.653
51034W        W19252  38.952  37.116   3.925
51035W        W19253  34.339   3.715  13.006
51036W        W19254  19.399  17.833  13.474
51037W        W19255  30.589  41.526  10.665
51038W        W19256  25.034  24.517   2.164
51039W        W19257  12.203  29.332  14.823
51040W        W19258  36.112  11.328   1.393
51041W        W19259  35.901  38.117   0.688
51042W        W19260  27.558   5.143  12.494
51043W        W19261  41.836  26.713  14.280
51044W        W19262  15.753  36.328  13.398
51045W        W19263  36.336   1.425   4.239
51046W        W19264  41.445  14.328  11.037
51047W        W19265  14.860  18.515  11.173
51048W        W19266  39.343  43.803  13.988
51049W        W19267  18.606  32.679   1.759
51050W        W19268  13.874  27.069   4.457
51051W        W19269   8.723  31.931  13.167
51052W        W19270  16.021  33.661   3.319
51053W        W19271  20.184  33.446   2.687
51054W        W19272   5.285  39.624  12.422
51055W        W19273  24.887  18.716  11.095
51056W        W19274  17.725  38.685  12.617
51057W        W19275  18.015   7.433   3.221
51058W        W19276   1.281   6.176   1.852
51059W        W19277  18.269  22.156  10.652
51060W        W19278  40.017  31.685   1.726
51061W        W19279  22.070  11.928  12.107
51062W        W19280  12.607  22.207   2.775
51063W        W19281   4.117  26.340  13.548
51064W        W19282   8.729  12.885  11.624
51065W        W19283  34.314   4.194   2.212
51066W        W19284  38.265   5.319   2.635
51067W        W19285   7.929  36.596  14.836
51068W        W19286   9.352  13.357  13.858
51069W        W19287  31.424   7.936   1.837
51070W        W19288  31.656   8.289  13.913
51071W        W19289  19.813  38.955   2.142
51072W        W19290  24.478  42.206   1.441
51073W        W19291   4.408  29.561   4.885
51074W        W19292  15.689  44.937  12.586
51075W        W19293  36.285  24.287   2.348
51076W        W19294   3.125  26.604   1.809
51077W        W19295  34.675  43.398  14.537
51078W        W19296  19.872  40.231   3.360
51079W        W19297  20.264  43.299  12.827
51080W        W19298   1.562   2.610   2.362
51081W        W19299   5.877  37.658  10.431
51082W        W19300  36.052  24.421   0.964
51083W        W19301  43.450   7.446   4.615
51084W        W19302   7.850  18.831   4.902
51085W        W19303  37.307  40.908  14.917
51086W        W19304  13.030  34.418  14.444
51087W        W19305  23.767   1.995   2.853
51088W        W19306   4.272   2.270   2.848
51089W        W19307  42.823  11.559   0.492
51090W        W19308   3.804  16.704  14.527
51091W        W19309  42.306  22.945   0.429
51092W        W19310  10.647  17.047  12.688
51093W        W19311  32.347  29.255   5.140
51094W        W19312  11.244  21.961   1.760
51095W        W19313  43.588  31.716  13.784
51096W        W19314  13.976  41.329  13.256
51097W        W19315  42.852   1.901  11.105
51098W        W19316  29.380   3.868  12.897
51099W        W19317  10.651  36.371   4.248
51100W        W19318  32.869  29.669   1.736
51101W        W19319   6.758   5.840   2.097
51102W        W19320  38.332  37.867   3.943
51103W        W19321  44.713  13.302  12.090
51104W        W19322  41.399  36.399  11.533
51105W        W19323  29.149  41.859   1.762
51106W        W19324   4.178   9.848   2.124
51107W        W19325  22.587  10.784  10.598
51108W        W19326  18.713   5.294   4.478
51109W        W19327  33.204  10.729  13.518
51110W        W19328  36.007   0.314  14.916
51111W        W19329  10.876  12.782  13.456
51112W        W19330  21.751  25.990  12.628
51113W        W19331  43.349  12.578  10.999
51114W        W19332  14.651  14.851  11.171
51115W        W19333  26.163   6.273  10.722
51116W        W19334   1.305  36.116  11.560
51117W        W19335  13.226  42.143   4.122
51118W        W19336  42.513  30.245   1.902
51119W        W19337  38.033  33.682  14.398
51120W        W19338  25.099  19.509   0.328
51121W        W19339  43.504  11.580  13.264
51122W        W19340  36.479  24.217   1.440
51123W        W19341  28.995   0.274  14.034
51124W        W19342  18.525   1.151   9.927
51125W        W19343   4.922  32.866   1.410
51126W        W19344   3.056  26.906  12.557
51127W        W19345   6.912   8.179   0.421
51128W        W19346   5.698  30.626  11.937
51129W        W19347   0.344  41.093  11.231
51130W        W19348  19.776  24.645   3.845
51131W        W19349  14.151   7.801   2.223
51132W        W19350   6.961  15.814  13.021
51133W        W19351  39.353  39.431  12.250
51134W        W19352   6.360   9.718  12.490
51135W        W19353  29.878  11.853   4.091
51136W        W19354  19.560  21.988  14.286
51137W        W19355   2.788  14.266  12.252
51138W        W19356   2.422  16.663  13.843
51139W        W19357   9.371  20.353  12.087
51140W        W19358  44.634  36.928  13.791
51141W        W19359   5.299  16.406  14.266
51142W        W19360   4.180  18.650   4.153
51143W        W19361  33.124  32.643   3.198
51144W        W19362  18.328  42.846  11.469
51145W        W19363  40.589  44.582   1.954
51146W        W19364  29.731  40.120   0.287
51147W        W19365  12.397   4.876   2.753
51148W        W19366  26.706  16.215   2.568
51149W        W19367  29.913  39.793   2.760
51150W        W19368  10.581  19.356  10.113
51151W        W19369  31.396  20.518  14.568
51152W        W19370  10.335  24.430   1.733
51153W        W19371  16.860  34.236  11.488
51154W        W19372   3.496  25.598  10.754
51155W        W19373  30.777  24.671   0.969
51156W        W19374  30.081   7.133  11.406
51157W        W19375  32.590  31.384   0.031
51158W        W19376  16.161  17.786  12.337
51159W        W19377  20.520  40.509  13.350
51160W        W19378  42.717  40.774  10.751
51161W        W19379  40.570  30.340  12.393
51162W        W19380  30.450  23.158   2.137
51163W        W19381  31.968  35.469   1.132
51164W        W19382  24.829  39.315  13.026
51165W        W19383  17.685   5.916  12.669
51166W        W19384  24.274  36.492   2.379
51167W        W19385  34.586  29.605   1.342
51168W        W19386   7.230   5.407  14.354
51169W        W19387  20.635  24.493   3.690
51170W        W19388  25.126   7.501   1.364
51171W        W19389  35.253  41.267  13.151
51172W        W19390   0.631  41.537  12.058
51173W        W19391   1.348   3.496  14.363
51174W        W19392  14.567  19.275  11.005
51175W        W19393  35.593  14.398   3.790
51176W        W19394  29.105  12.041  14.340
51177W        W19395  10.789  40.097   0.375
51178W        W19396  43.499  30.470  14.472
51179W        W19397  43.864  36.318  13.403
51180W        W19398  14.833  38.251   1.872
51181W        W19399   6.137  33.457   0.463
51182W        W19400  25.120  18.268   2.851
51183W        W19401  25.858  16.863   5.090
51184W        W19402  27.777  30.636   1.052
51185W        W19403   8.598   2.594   0.398
51186W        W19404  21.883  15.794   4.839
51187W        W19405  19.713  31.984  13.810
51188W        W19406   3.853  16.976   1.354
51189W        W19407  28.959  14.203   2.930
51190W        W19408  37.266  40.297   2.623
51191W        W19409   4.572  16.315   1.300
51192W        W19410  43.159  11.823   0.176
51193W        W19411  11.224  38.455   4.538
51194W        W19412  19.569  29.993  14.177
51195W        W19413   9.166  14.373  11.148
51196W        W19414  13.966  14.228  11.209
51197W        W19415   1.278  23.887   3.547
51198W        W19416  17.889  37.625  11.542
51199W        W19417  34.714  32.475  13.919
51200W        W19418  43.551   0.732   3.631
51201W        W19419  11.189  22.070  14.878
51202W        W19420  28.603  29.464   0.543
51203W        W19421  32.550  43.324   1.356
51204W        W19422  26.142   9.136   3.348
51205W        W19423  12.788  10.616   2.289
51206W        W19424  30.058   1.838   0.560
51207W        W19425  15.643  21.134  12.932
51208W        W19426   4.900  40.818   4.492
51209W        W19427  29.015  24.418   2.956
51210W        W19428  10.342  28.363  14.763
51211W        W19429  18.647  29.872  14.363
51212W        W19430   1.467  24.206  12.458
51213W        W19431  30.101   8.069  14.009
51214W        W19432  32.019  25.392  13.500
51215W        W19433  39.936  33.340  12.783
51216W        W19434   9.974  32.065  14.114
51217W        W19435  42.169  12.800   0.996
51218W        W19436   7.143  35.866  12.531
51219W        W19437  29.494  37.494   1.642
51220W        W19438  35.519  33.193   3.195
51221W        W19439  22.648  26.400  11.533
51222W        W19440  14.301   7.388   2.501
51223W        W19441  40.988  26.113  11.495
51224W        W19442  35.950  14.305   0.708
51225W        W19443  14.807  19.624  10.729
51226W        W19444  40.848  37.940  10.558
51227W        W19445  38.449  28.405  12.013
51228W        W19446   8.224  39.051  13.849
51229W        W19447  31.830  26.378   3.990
51230W        W19448   9.291  14.336   1.941
51231W        W19449  44.837   2.349   1.062
51232W        W19450  32.290  10.235   4.058
51233W        W19451   4.717  10.210   3.691
51234W        W19452  17.605  30.203   3.639
51235W        W19453  35.277  13.238   1.749
51236W        W19454  43.804  41.269  12.697
51237W        W19455  12.836  33.332   3.251
51238W        W19456  20.139  24.502   2.202
51239W        W19457  44.854  21.661   4.377
51240W        W19458   7.302   5.107  10.615
51241W        W19459   7.990  14.813   0.768
51242W        W19460   6.275   9.534  11.160
51243W        W19461  37.881  14.884  14.525
51244W        W19462  43.908  12.595  11.107
51245W        W19463  13.793  28.667   0.768
51246W        W19464  14.358  13.348  14.781
51247W        W19465  24.045  12.800   0.876
51248W        W19466  37.092   4.640  12.635
51249W        W19467  42.815  14.180   2.148
51250W        W19468   3.231   3.870   1.323
51251W        W19469   1.389   0.517  14.949
51252W        W19470  10.667  14.819  10.402
51253W        W19471  23.048  15.661  13.826
51254W        W19472   8.410  42.718  12.377
51255W        W19473   0.198  13.920  14.743
51256W        W19474   1.906  28.467   4.279
51257W        W19475  30.950  41.827   2.197
51258W        W19476  32.666  40.344   2.727
51259W        W19477  15.757  25.636   1.604
51260W        W19478  16.207  36.368  12.499
51261W        W19479  37.435   1.253  10.014
51262W        W19480  25.297   4.679   1.752
51263W        W19481  16.777  19.561  13.435
51264W        W19482  29.761   2.068   9.918
51265W        W19483  35.587   2.471  13.511
51266W        W19484  27.930  44.995   4.692
51267W        W19485  33.942  42.078   1.076
51268W        W19486  17.626  35.069  12.467
51269W        W19487  41.754  22.188  12.698
51270W        W19488  31.640  30.566   1.132
51271W        W19489  16.657  43.434  10.890
51272W        W19490  29.713  41.532   4.475
51273W        W19491  30.399  40.002   1.850
51274W        W19492  12.856  18.302   2.756
51275W        W19493   4.855  31.511  11.923
51276W        W19494  12.722  22.984  11.420
51277W        W19495  31.671  36.458   2.863
51278W        W19496  12.885  30.882   4.736
51279W        W19497   2.093  10.298  10.966
51280W        W19498  40.843   5.201  11.010
51281W        W19499  19.159  42.738  14.858
51282W        W19500  22.208  31.713  12.065
51283W        W19501  42.289  18.983  12.046
51284W        W19502  22.678  24.196  12.844
51285W        W19503  42.968  12.084   2.170
51286W        W19504  10.751   4.401   2.952
51287W        W19505  20.776   4.880   2.397
51288W        W19506  11.253   9.239  12.868
51289W        W19507  36.514  40.214   0.952
51290W        W19508  25.496  20.982   2.248
51291W        W19509  31.047  18.732   4.496
51292W        W19510  15.008  44.476   3.163
51293W        W19511   2.953  28.106   3.761
51294W        W19512   5.604  34.000  12.369
51295W        W19513   8.649  37.007   0.478
51296W        W19514  15.856  40.512   0.929
51297W        W19515  41.599  25.760  11.890
51298W        W19516  30.218  20.237  10.692
51299W        W19517   6.667   2.503   4.509
51300W        W19518  42.845  25.851  13.377
51301W        W19519   5.988  30.716  11.527
51302W        W19520  39.968  41.242  11.215
51303W        W19521   2.412   3.294   4.555
51304W        W19522   4.887  33.874   3.939
51305W        W19523  32.422  14.188  14.754
51306W        W19524  42.034  26.939  13.832
51307W        W19525  31.489  34.468   4.834
51308W        W19526  20.085   8.892   3.305
51309W        W19527  42.795   8.861   0.270
51310W        W19528  42.470  17.817  14.075
51311W        W19529   1.799  37.348   0.386
51312W        W19530  15.675   7.947  14.857
51313W        W19531  30.948  39.482  14.848
51314W        W19532  42.958  22.700  14.590
51315W        W19533  12.666  35.855  12.935
51316W        W19534  14.769  11.857  12.305
51317W        W19535  14.169  32.699  12.866
51318W        W19536   6.868  39.541   4.755
51319W        W19537  18.070  16.162  14.344
51320W        W19538  12.312  10.075  10.600
51321W        W19539   4.656  23.487   2.327
51322W        W19540  25.396   6.734  13.442
51323W        W19541  26.896  14.060   2.919
51324W        W19542   7.319   6.810   0.937
51325W        W19543  21.190  43.305  10.545
51326W        W19544  44.835  19.818   1.581
51327W        W19545   1.564   7.934   0.274
51328W        W19546  16.186  30.713   3.635
51329W        W19547  34.851   2.873  13.981
51330W        W19548  18.490  20.293   3.759
51331W        W19549  27.399   5.645   4.615
51332W        W19550  22.676  37.416   2.923
51333W        W19551  39.869  23.576  12.251
51334W        W19552   8.915   4.873   1.483
51335W        W19553  41.027  33.908  11.517
51336W        W19554  41.668  29.053  10.343
51337W        W19555  20.707   4.266   0.976
51338W        W19556   4.195  31.540   3.747
51339W        W19557  10.115  18.776  14.861
51340W        W19558  11.961  34.311  13.250
51341W        W19559  11.329  28.095  12.049
51342W        W19560  25.139   2.860  13.931
51343W        W19561  25.644  15.072  12.608
51344W        W19562  17.487  17.853  13.155
51345W        W19563   0.224   9.915   2.711
51346W        W19564  38.985  35.032   2.445
51347W        W19565  11.915  38.984  14.768
51348W        W19566  15.227   1.678  10.129
51349W        W19567  33.791   0.890   3.536
51350W        W19568  20.269   0.371   0.454
51351W        W19569  28.029  44.814   0.934
51352W        W19570  39.054  30.687   9.774
51353W        W19571  39.988  25.897   1.419
51354W        W19572  22.786  10.635  11.492
51355W        W19573  32.639  41.512   4.666
51356W        W19574  12.508  36.023   0.898
51357W        W19575   7.434   1.454   3.968
51358W        W19576  17.363   3.893  12.979
51359W        W19577  35.133   8.384  12.008
51360W        W19578  38.380  39.000   2.410
51361W        W19579  39.471  35.171   3.217
51362W        W19580  23.032  23.044  12.599
51363W        W19581  42.480  34.145  14.423
51364W        W19582  35.277  35.542  13.610
51365W        W19583  38.127  25.401  12.236
51366W        W19584  29.926  19.166  11.650
51367W        W19585   4.949  10.105   4.143
51368W        W19586  44.567   9.899  11.091
51369W        W19587  13.697  38.080  13.524
51370W        W19588   7.442  24.722  10.388
51371W        W19589  20.698   9.414  13.445
51372W        W19590   4.708   7.942   0.015
51373W        W19591  33.490  10.965   4.667
51374W        W19592  18.833   6.392   0.732
51375W        W19593  39.425   3.715   3.569
51376W        W19594  30.655  18.342   3.644
51377W        W19595  31.809  39.520   4.930
51378W        W19596  10.560  31.479   1.284
51379W        W19597  13.428  34.685   4.299
51380W        W19598   8.819   2.259   3.004
51381W        W19599  16.416  31.072   2.851
51382W        W19600  37.110  38.774   1.808
51383W        W19601   5.198  24.069   4.841
51384W        W19602  33.556  17.774   3.215
51385W        W19603  17.389  10.286   2.735
51386W        W19604  22.259  43.529   2.174
51387W        W19605   9.606  42.457  13.858
51388W        W19606  19.288   4.267  14.764
51389W        W19607  14.694   6.219   3.671
51390W        W19608  44.366  25.101  12.556
51391W        W19609   9.293  42.684  11.468
51392W        W19610  28.003  30.102  11.963
51393W        W19611   7.121  41.120   1.364
51394W        W19612   2.795   8.046   4.520
51395W        W19613  35.565  20.850   1.313
51396W        W19614  38.306   1.350   1.961
51397W        W19615  17.330  27.020  14.349
51398W        W19616   6.733   6.760   1.686
51399W        W19617  27.064  24.951   2.333
51400W        W19618  10.578  31.989  13.360
51401W        W19619  13.202   6.052   1.443
51402W        W19620   6.863  12.769   3.806
51403W        W19621   3.849   6.250   4.382
51404W        W19622  19.305   2.387   2.732
51405W        W19623   5.363  43.306  14.345
51406W        W19624  18.754  38.985  14.027
51407W        W19625  18.076  42.889  14.786
51408W        W19626   4.664  36.417  10.565
51409W        W19627  25.574  44.201  13.015
51410W        W19628   4.975   1.741   4.140
51411W        W19629  44.536  33.138  10.545
51412W        W19630  43.245  24.684   3.289
51413W        W19631   1.339  13.616   2.242
51414W        W19632  42.517   6.138   1.429
51415W        W19633   5.261  30.018  10.753
51416W        W19634  13.164  44.906   0.937
51417W        W19635   7.634  13.134  13.514
51418W        W19636  42.872  13.174   2.200
51419W        W19637  22.231   2.880  11.942
51420W        W19638  18.008  24.181  14.690
51421W        W19639  38.597  25.108   2.942
51422W        W19640  27.835  28.628   2.444
51423W        W19641  40.476   4.038   1.226
51424W        W19642  20.191  19.852   4.926
51425W        W19643  38.128  29.816   1.938
51426W        W19644  12.830   4.006   4.765
51427W        W19645  15.177  16.650  11.188
51428W        W19646  37.266   8.149  12.506
51429W        W19647  15.337  14.084  11.121
51430W        W19648  11.064  40.261  11.667
51431W        W19649  40.628  35.465  12.487
51432W        W19650   2.273  36.086   1.880
51433W        W19651  30.368  12.117  13.002
51434W        W19652   6.198  42.855   4.081
51435W        W19653  24.741  36.062  13.903
51436W        W19654   2.522  14.594   1.075
51437W        W19655   4.887  40.365  12.189
51438W        W19656  32.123  42.848   3.127
51439W        W19657   9.344  16.752  12.841
51440W        W19658  11.548  31.602   0.960
51441W        W19659  21.277  10.908  13.971
51442W        W19660  10.637  26.537   3.640
51443W        W19661  31.424  31.558  11.470
51444W        W19662  39.471   0.708  10.285
51445W        W19663  39.400  28.249   3.146
51446W        W19664  19.758  40.005   0.944
51447W        W19665  10.563  34.603  14.344
51448W        W19666   6.958  31.844   3.758
51449W        W19667   4.271  18.175  14.592
51450W        W19668  11.177   5.904  14.823
51451W        W19669  19.796   9.679   0.339
51452W        W19670  26.268   4.243  12.986
51453W        W19671  29.088  23.915   2.820
51454W        W19672   5.018   4.411   3.356
51455W        W19673  44.089  14.082   2.606
51456W        W19674  13.309   9.132  13.127
51457W        W19675  24.994  40.047  14.487
51458W        W19676  32.048  38.903  13.900
51459W        W19677   8.974  15.720   1.946
51460W        W19678  20.507  35.992  13.382
51461W        W19679  23.682   0.862  14.558
51462W        W19680  19.426  20.810  12.623
51463W        W19681  26.206  25.483  11.094
51464W        W19682  11.937  31.636  12.244
51465W        W19683  42.590  35.362  13.959
51466W        W19684  12.223  36.888  12.412
51467W        W19685  28.503  43.086   4.050
51468W        W19686  34.409  26.113  14.400
51469W        W19687   8.379  28.825   0.263
51470W        W19688  27.172  30.092   2.399
51471W        W19689  10.289  36.586   2.668
51472W        W19690  29.234  39.972  10.714
51473W        W19691   6.847  25.956   4.574
51474W        W19692   8.166   9.980  12.432
51475W        W19693  23.618  13.097  12.387
51476W        W19694  28.919  37.029  10.705
51477W        W19695  34.461  24.573  12.046
51478W        W19696  12.964  31.565   2.370
51479W        W19697   8.159   0.805  12.557
51480W        W19698  31.490   2.796   5.009
51481W        W19699  22.312   0.271  14.542
51482W        W19700  34.746  17.434   1.879
51483W        W19701  26.010   0.324  13.873
51484W        W19702  36.957  28.000  11.132
51485W        W19703   9.324  22.477   2.355
51486W        W19704  14.609  43.805  13.326
51487W        W19705   2.234  10.908   2.928
51488W        W19706   1.176   4.979  13.537
51489W        W19707  34.464   2.116  12.583
51490W        W19708  32.519  40.806   2.173
51491W        W19709   3.817  21.632  14.286
51492W        W19710  36.627  35.474   4.191
51493W        W19711  16.135  41.728   2.308
51494W        W19712  33.199   2.331  12.060
51495W        W19713  28.107   0.689   0.350
51496W        W19714  38.069  32.927   0.846
51497W        W19715  22.099  15.250   2.340
51498W        W19716  15.799  23.095   4.497
51499W        W19717  24.067  22.560   0.280
51500W        W19718   8.862  41.950   2.300
51501W        W19719  40.001   4.374  12.357
51502W        W19720   4.515  18.852   0.187
51503W        W19721   0.179  20.556  11.821
51504W        W19722  10.667  42.861   4.971
51505W        W19723  16.559   4.463  12.578
51506W        W19724   3.795  36.283   2.725
51507W        W19725   3.098  21.926   3.845
51508W        W19726  35.421  23.595   0.875
51509W        W19727   8.545  34.467   2.722
51510W        W19728  36.073  44.269   0.473
51511W        W19729  39.564  33.132  11.521
51512W        W19730  29.892  16.674  11.593
51513W        W19731   7.749  21.795  12.646
51514W        W19732  28.802  32.025  12.607
51515W        W19733  11.135  13.856  12.848
51516W        W19734  17.994  17.027  12.424
51517W        W19735   5.074  40.660   4.973
51518W        W19736  44.475  23.022   0.682
51519W        W19737  40.768  12.319  11.595
51520W        W19738   4.366   8.383  10.760
51521W        W19739  19.126   3.691  14.904
51522W        W19740  35.571  10.755  11.118
51523W        W19741   3.378  21.688  11.666
51524W        W19742  24.688   9.301   4.240
51525W        W19743   0.025  16.709   0.342
51526W        W19744  14.596   5.777  12.024
51527W        W19745  43.411   0.946  13.814
51528W        W19746  34.864  17.132   2.722
51529W        W19747  28.378   6.820  14.309
51530W        W19748   7.474   1.738  14.897
51531W        W19749  44.879  40.290  11.529
51532W        W19750   6.286  44.017  10.696
51533W        W19751  14.262  44.078   0.712
51534W        W19752  37.474   5.752   1.676
51535W        W19753  22.078  42.236   0.001
51536W        W19754  24.479   1.994   0.187
51537W        W19755  23.973  23.877   4.531
51538W        W19756  13.350  43.049  11.883
51539W        W19757  33.519  13.661  13.456
51540W        W19758  23.659  37.443   0.901
51541W        W19759  30.748  34.829  13.425
51542W        W19760  10.851  35.591   0.834
51543W        W19761   7.286  39.514   4.459
51544W        W19762  39.405  19.547   2.009
51545W        W19763  35.176   3.554  12.036
51546W        W19764  23.756  24.111   2.360
51547W        W19765  10.969  25.316   0.373
51548W        W19766  42.126  31.622   0.274
51549W        W19767  41.771  24.499   1.413
51550W        W19768   7.529  43.929   1.265
51551W        W19769  28.877  28.542   3.653
51552W        W19770  11.888   7.911   2.491
51553W        W19771  11.303  23.967   1.882
51554W        W19772  25.047  29.504   2.726
51555W        W19773   2.376  20.583  13.515
51556W        W19774  39.127  16.757   1.123
51557W        W19775  24.784  36.999   2.896
51558W        W19776  43.406  34.021  12.500
51559W        W19777   7.715  32.435   0.953
51560W        W19778  26.673  36.013   4.187
51561W        W19779  10.012  33.967  11.050
51562W        W19780  43.061  29.392  12.577
51563W        W19781   8.781  41.763  13.850
51564W        W19782  40.312  27.989   1.637
51565W        W19783   6.770  10.141   0.430
51566W        W19784  40.484  22.182   2.917
51567W        W19785   8.340  15.711  10.644
51568W        W19786  16.785  23.283  14.208
51569W        W19787  24.354  23.409   0.838
51570W        W19788   0.518  10.936   3.672
51571W        W19789  39.815  18.286  14.784
51572W        W19790   0.757  20.076   1.351
51573W        W19791  39.411  40.624   2.349
51574W        W19792  27.051  10.794  10.801
51575W        W19793  10.150  10.725   3.405
51576W        W19794  42.847  44.855  12.152
51577W        W19795  22.621  26.895  12.625
51578W        W19796  33.982   0.872  10.917
51579W        W19797   3.737   0.053  12.872
51580W        W19798  35.349  24.598   3.775
51581W        W19799  22.647  29.991  14.916
51582W        W19800  16.545  34.930   4.512
51583W        W19801   5.451  23.122  12.228
51584W        W19802   2.104  44.949   4.693
51585W        W19803  29.184  11.646   0.150
51586W        W19804  40.859  17.941   0.909
51587W        W19805  37.331  33.100   1.221
51588W        W19806  23.620  28.015  13.351
51589W        W19807  28.865   1.334   4.137
51590W        W19808  19.081   0.335  11.249
51591W        W19809   5.456  34.178  14.070
51592W        W19810  23.571  42.690  13.457
51593W        W19811  33.710  31.340  12.290
51594W        W19812  33.507  27.636   3.177
51595W        W19813  34.233  12.857  11.589
51596W        W19814  44.796  14.507  11.130
51597W        W19815  28.799  20.998  10.734
51598W        W19816  41.880  34.026   3.267
51599W        W19817  37.086  23.016   4.228
51600W        W19818   1.747   6.305   0.034
51601W        W19819  12.129   8.343   2.300
51602W        W19820   4.691  16.737   2.863
51603W        W19821   6.755   3.417   0.835
51604W        W19822   5.859  31.996  12.956
51605W        W19823  30.694  10.893  14.731
51606W        W19824  38.840  32.142  11.073
51607W        W19825  28.584   5.796   3.394
51608W        W19826   2.913  19.243   4.098
51609W        W19827  43.432  38.694  12.707
51610W        W19828  22.377  11.229   4.763
51611W        W19829  14.866  11.063  14.833
51612W        W19830   4.725  37.784   1.164
51613W        W19831  44.416  15.570  11.580
51614W        W19832  42.102   3.446   5.065
51615W        W19833  13.024  16.265  12.811
51616W        W19834  29.351   1.206   4.235
51617W        W19835   0.007   6.888  12.185
51618W        W19836   3.935   9.650   4.593
51619W        W19837  19.564  42.416  13.976
51620W        W19838  11.102  36.857  14.515
51621W        W19839   5.262  15.455   1.857
51622W        W19840   1.024   7.419   2.870
51623W        W19841   5.020  25.160  11.661
51624W        W19842  37.099  39.587   2.171
51625W        W19843  10.666  33.985  11.697
51626W        W19844  26.697  13.091  14.387
51627W        W19845  23.974  30.563  10.025
51628W        W19846  15.328  42.965  11.562
51629W        W19847  21.454  31.467   1.105
51630W        W19848  18.318  37.460   1.526
51631W        W19849  24.734  19.908  11.927
51632W        W19850  23.476  42.714   3.619
51633W        W19851  30.408  22.149  10.576
51634W        W19852  34.544  18.523  13.947
51635W        W19853  31.531  29.570  13.981
51636W        W19854  44.094  38.054  11.466
51637W        W19855  27.174  33.439   4.040
51638W        W19856  10.334  35.584   0.813
51639W        W19857  35.886   3.875   5.272
51640W        W19858   0.996  40.293   0.384
51641W        W19859  30.141   6.895  11.879
51642W        W19860   3.680  15.712   3.485
51643W        W19861   6.666  12.377   1.852
51644W        W19862   5.685  43.328  12.415
51645W        W19863   2.752  43.738   2.299
51646W        W19864  15.297  36.041   4.223
51647W        W19865  15.113  14.489   4.188
51648W        W19866  33.006  17.594  13.223
51649W        W19867  26.466  41.418  10.385
51650W        W19868  35.888  20.277  11.570
51651W        W19869  30.962  28.058  11.106
51652W        W19870   6.764  15.225  10.879
51653W        W19871   4.868   1.746  12.415
51654W        W19872  31.163  21.697  12.907
51655W        W19873  31.869  32.030  13.084
51656W        W19874  25.431  13.311  14.117
51657W        W19875  26.680  35.113   0.432
51658W        W19876   0.845   6.662  12.469
51659W        W19877  39.270  44.867  14.894
51660W        W19878   2.926  12.412   1.644
51661W        W19879   2.954  19.587   3.690
51662W        W19880  21.616  31.937   1.364
51663W        W19881  31.562   5.903   4.096
51664W        W19882   3.280  30.491   3.869
51665W        W19883  26.421   9.074   0.376
51666W        W19884  17.295  13.133   3.142
51667W        W19885  18.595  13.049   0.412
51668W        W19886  39.168   4.621  11.530
51669W        W19887   6.383  42.858   1.745
51670W        W19888   1.458  23.792   2.320
51671W        W19889  26.829   1.075   3.303
51672W        W19890  34.323  10.454  12.666
51673W        W19891   2.864  35.196   1.172
51674W        W19892  15.705   8.671   1.303
51675W        W19893  22.695  27.811   4.602
51676W        W19894  14.826   7.687  11.074
51677W        W19895   9.364  12.401  11.124
51678W        W19896  14.724  23.527   2.303
51679W        W19897   5.270  27.065   2.208
51680W        W19898  25.041  11.798   0.934
51681W        W19899  12.417  35.477  11.383
51682W        W19900  21.437   7.023   3.588
51683W        W19901  11.276  18.608  14.805
51684W        W19902  21.510  25.646  12.337
51685W        W19903  44.920   4.962  11.135
51686W        W19904  15.470  43.952   1.389
51687W        W19905  28.990   5.495   2.089
51688W        W19906   8.087   6.681   1.427
51689W        W19907  44.464  38.434   1.918
51690W        W19908  40.053  32.503  12.514
51691W        W19909  39.063  16.068   2.288
51692W        W19910   0.918  12.924   3.715
51693W        W19911   4.373  10.885   0.615
51694W        W19912  16.664   8.501  10.455
51695W        W19913  36.954  30.429  12.926
51696W        W19914  10.225  28.608  10.758
51697W        W19915  43.811  20.054  14.771
51698W        W19916  20.632  10.727   1.871
51699W        W19917  12.872  41.782   4.243
51700W        W19918  32.677  29.329  10.772
51701W        W19919  35.787  31.542   3.733
51702W        W19920  31.539  37.961  10.726
51703W        W19921  22.458  21.710   2.886
51704W        W19922  37.815  19.116  12.812
51705W        W19923  19.472  35.389   2.715
51706W        W19924  12.668   1.321   3.339
51707W        W19925   5.608  37.772   1.345
51708W        W19926  25.598  16.775   2.936
51709W        W19927  12.082   2.717   9.972
51710W        W19928  14.785  27.005  12.797
51711W        W19929  23.944  40.432   4.508
51712W        W19930  40.415  24.086  13.429
51713W        W19931  37.777  10.261  11.073
51714W        W19932   2.464  42.346  11.673
51715W        W19933   3.795  23.152   0.225
51716W        W19934  41.738  13.285  10.700
51717W        W19935  13.072  11.390   3.830
51718W        W19936  18.981  29.753  12.103
51719W        W19937   0.834   5.055   9.886
51720W        W19938  29.998  33.032   1.789
51721W        W19939  44.544  18.721  12.545
51722W        W19940   3.620  40.311  10.945
51723W        W19941  20.971  36.422  13.939
51724W        W19942   7.875  36.079  14.779
51725W        W19943  21.735  24.416  11.535
51726W        W19944   6.900  27.775   1.695
51727W        W19945  10.825  16.574   4.843
51728W        W19946  25.200  34.813   2.361
51729W        W19947   2.649  30.397   2.646
51730W        W19948  27.064  20.288   2.765
51731W        W19949  15.371  32.166  14.720
51732W        W19950  11.887  42.841  11.041
51733W        W19951   3.570  17.499  11.616
51734W        W19952  13.648  26.387  12.559
51735W        W19953  13.862  10.672   1.353
51736W        W19954  33.649  35.417  14.351
51737W        W19955  32.211  12.133   4.035
51738W        W19956  14.879   4.224   4.088
51739W        W19957  42.746   6.241  14.523
51740W        W19958  43.657  16.536   3.820
51741W        W19959  40.671   5.972  11.497
51742W        W19960  34.178  26.664  13.492
51743W        W19961  24.407   8.705   1.294
51744W        W19962  32.536  10.640   2.900
51745W        W19963  28.957  27.076   4.191
51746W        W19964  22.955   9.746   1.280
51747W        W19965   4.483  11.780   0.323
51748W        W19966  16.682  42.486  12.457
51749W        W19967  34.381  11.344  11.678
51750W        W19968  42.416  35.021   4.126
51751W        W19969  40.067   2.024  11.189
51752W        W19970  28.757  25.844   2.776
51753W        W19971  20.908  20.800   0.507
51754W        W19972   5.338  42.667   5.450
51755W        W19973  19.828  33.625   4.629
51756W        W19974  37.588  33.206  13.130
51757W        W19975  20.620  21.140   3.241
51758W        W19976  23.875  36.137   2.323
51759W        W19977   2.862   7.165  11.980
51760W        W19978   7.257   5.929  14.324
51761W        W19979  16.202   6.874   4.630
51762W        W19980  15.686  19.474  11.614
51763W        W19981  42.390  14.109  13.039
51764W        W19982  16.740  14.771  13.008
51765W        W19983  44.024  39.482  14.765
51766W        W19984  28.173   4.923   3.545
51767W        W19985  16.602  44.334   4.077
51768W        W19986  41.595  23.999   3.710
51769W        W19987  35.874  42.579  14.976
51770W        W19988  26.874  16.498  12.859
51771W        W19989  42.316  16.608  11.217
51772W        W19990  22.300  12.319   3.315
51773W        W19991   0.950  10.805   3.922
51774W        W19992  40.530  34.952  12.617
51775W        W19993  32.075   1.241   0.701
51776W        W19994  21.016  16.569   3.840
51777W        W19995  12.862  28.689  11.953
51778W        W19996  35.082  41.576   4.189
51779W        W19997  32.086  18.288   1.152
51780W        W19998  22.107  40.381  12.512
51781W        W19999  13.127  41.009   1.623
51782W        W20000   2.467  39.318  13.509
51783W        W20001   5.228  19.218   3.423
51784W        W20002  33.565  19.233  11.153
51785W        W20003  38.313   8.822  13.806
51786W        W20004  13.381   3.462   2.768
51787W        W20005  12.035  36.071  10.812
51788W        W20006  38.602  12.126   3.179
51789W        W20007  36.413  20.193  12.032
51790W        W20008  10.817  34.426  11.463
51791W        W20009   1.682  44.554   2.793
51792W        W20010  42.818  20.438   1.870
51793W        W20011  11.005  13.280   4.558
51794W        W20012  38.509  30.997   0.963
51795W        W20013  34.952  12.101   4.560
51796W        W20014  35.340   5.135  13.803
51797W        W20015  32.449  22.935   2.929
51798W        W20016  28.102   5.288  13.246
51799W        W20017  35.340  13.869  13.564
51800W        W20018  12.371  34.724  14.060
51801W        W20019  33.680  18.137  14.921
51802W        W20020  12.602  38.064  10.739
51803W        W20021  31.527   0.749   0.925
51804W        W20022  42.462  44.413   3.859
51805W        W20023   3.421  19.699   1.484
51806W        W20024   3.564  31.063   2.694
51807W        W20025  35.954  19.005   3.634
51808W        W20026  23.620   0.566  14.102
51809W        W20027  21.193  25.817   1.866
51810W        W20028  15.264   2.843   4.731
51811W        W20029  26.443  29.034   1.023
51812W        W20030   9.403   4.456   3.565
51813W        W20031  20.726  25.081  10.708
51814W        W20032   3.793   6.140   1.896
51815W        W20033  35.172   0.319  10.679
51816W        W20034  32.847  12.013   3.213
51817W        W20035  26.007  34.979  11.666
51818W        W20036  32.635  17.464  14.535
51819W        W20037   3.156  33.399   2.642
51820W        W20038  19.136  17.150  14.723
51821W        W20039  29.446  10.220   1.844
51822W        W20040  21.324  17.144   2.225
51823W        W20041  40.079  29.711   3.497
51824W        W20042  18.588   7.434  14.969
51825W        W20043  10.715  14.790   4.074
51826W        W20044  34.558  10.159  13.008
51827W        W20045   7.932  38.913  11.226
51828W        W20046  38.519   2.660   4.264
51829W        W20047  26.976  31.849  11.363
51830W        W20048  13.569  34.232   1.297
51831W        W20049  11.648  40.066  11.995
51832W        W20050  33.518  43.256  10.392
51833W        W20051   8.007  43.944   1.103
51834W        W20052  26.027  27.785  12.701
51835W        W20053  20.469  23.056   3.595
51836W        W20054  37.285  31.418  14.033
51837W        W20055  27.590  21.962  12.518
51838W        W20056  42.233   6.341   2.359
51839W        W20057   5.607   9.132  10.934
51840W        W20058  44.262  30.755  11.675
51841W        W20059  39.047  43.354  13.561
51842W        W20060  41.577  17.477  10.719
51843W        W20061  31.324  15.675  14.396
51844W        W20062  35.835  31.847  13.536
51845W        W20063  36.408  44.547  14.935
51846W        W20064  38.398  20.270   1.401
51847W        W20065   0.516  40.055  13.056
51848W        W20066  18.086  17.188  10.113
51849W        W20067  20.613  29.915   0.822
51850W        W20068  31.318  17.979  13.612
51851W        W20069  44.942  30.643   1.379
51852W        W20070  32.535  17.995  11.766
51853W        W20071   8.659   5.314   0.283
51854W        W20072  15.326  18.774   1.004
51855W        W20073   3.681  44.938  14.305
51856W        W20074  28.197   9.429  10.976
51857W        W20075  22.412  38.314   3.829
51858W        W20076  19.264  44.321   2.267
51859W        W20077  38.453  34.415   2.820
51860W        W20078  42.808  32.977  11.964
51861W        W20079  26.330  33.297  13.164
51862W        W20080   8.451  19.655  11.696
51863W        W20081  30.443  35.069   0.870
51864W        W20082  13.769  19.643  10.514
51865W        W20083   7.434   2.297   3.621
51866W        W20084  12.602  25.834   2.837
51867W        W20085  22.291  43.822  11.983
51868W        W20086  13.430  37.642  12.517
51869W        W20087   7.407  11.354  14.284
51870W        W20088  33.488  39.895   3.647
51871W        W20089  35.726  44.439   3.434
51872W        W20090  22.097  13.125   0.932
51873W        W20091   8.723   9.776   1.756
51874W        W20092  28.585  21.386   4.948
51875W        W20093   8.763  32.698   4.872
51876W        W20094  37.764   6.242  10.896
51877W        W20095  36.532   7.253   0.751
51878W        W20096  35.791   7.437   4.617
51879W        W20097   0.175  35.567  13.644
51880W        W20098  30.095   3.990   1.859
51881W        W20099  42.057  15.334   1.326
51882W        W20100  10.545  44.219  11.984
51883W        W20101  13.808  20.947   0.356
51884W        W20102  44.337   9.227   0.955
51885W        W20103   1.889  38.877  10.688
51886W        W20104  23.647  20.684   4.556
51887W        W20105  18.139  39.791   3.160
51888W        W20106  29.890  22.162   4.494
51889W        W20107  44.936  17.266  14.873
51890W        W20108  26.955   1.486   0.352
51891W        W20109   2.930   5.918  14.834
51892W        W20110  20.515  23.007  10.805
51893W        W20111  17.338  34.135  13.883
51894W        W20112  12.525   2.780   0.392
51895W        W20113  13.088  19.595  12.719
51896W        W20114  10.739  33.313   1.901
51897W        W20115  41.324  14.051   0.470
51898W        W20116  17.819  16.776   2.199
51899W        W20117  37.823  19.293  13.312
51900W        W20118  20.520  27.217   2.254
51901W        W20119  21.513  12.409  10.421
51902W        W20120  16.923  22.328  13.456
51903W        W20121   3.230  16.293  13.924
51904W        W20122  33.059  32.414  12.626
51905W        W20123  19.679  44.775  14.559
51906W        W20124  27.391  24.564   1.580
51907W        W20125  25.726   3.477  14.820
51908W        W20126  33.829  11.924  14.939
51909W        W20127  37.359  23.911   5.047
51910W        W20128  44.251   7.982   4.521
51911W        W20129   6.175  14.781  14.892
51912W        W20130  40.894  18.020   1.827
51913W        W20131  44.509  37.913   4.123
51914W        W20132  27.277  35.811  12.126
51915W        W20133  21.480  22.494  11.875
51916W        W20134  35.720  41.301   1.396
51917W        W20135  23.266  26.921  14.326
51918W        W20136   7.387  19.053   2.786
51919W        W20137   5.186  13.824  10.432
51920W        W20138  20.032   1.062   4.091
51921W        W20139  12.825   6.456  12.009
51922W        W20140  38.811  30.115   0.817
51923W        W20141  34.901  23.810   1.732
51924W        W20142  42.355  39.839  10.640
51925W        W20143  37.598  39.799  14.155
51926W        W20144  28.497   1.702  13.952
51927W        W20145  37.764  14.653   0.556
51928W        W20146  34.197  34.465  13.863
51929W        W20147  28.619   4.041   1.359
51930W        W20148   0.284  28.679  10.713
51931W        W20149  15.120  31.617   2.711
51932W        W20150  13.181  41.030  11.174
51933W        W20151  32.224  23.037  12.653
51934W        W20152  23.336  41.397  14.767
51935W        W20153  22.164  16.795   2.361
51936W        W20154  41.583  41.282  13.918
51937W        W20155   1.454  17.383  13.265
51938W        W20156  26.713  30.560   1.444
51939W        W20157  35.070   9.204   0.325
51940W        W20158   8.663  28.057  11.048
51941W        W20159  41.535  19.588  12.534
51942W        W20160  24.206  26.446  12.664
51943W        W20161  22.790  15.292   3.944
51944W        W20162  44.974  25.619  10.947
51945W        W20163  33.561  32.295  12.531
51946W        W20164  38.309   7.579   1.166
51947W        W20165  12.674   0.498  12.617
51948W        W20166  10.647   4.614  10.969
51949W        W20167   3.995  35.588   2.191
51950W        W20168   0.337   0.340   3.497
51951W        W20169   8.691  43.109   3.430
51952W        W20170  39.055  41.797   4.556
51953W        W20171  20.083  35.799  10.189
51954W        W20172  25.126  15.956  12.506
51955W        W20173   5.516  40.304   3.161
51956W        W20174   5.659   1.841   3.279
51957W        W20175  27.172  36.027  13.048
51958W        W20176  35.567   3.606  11.501
51959W        W20177   7.153  16.016   1.399
51960W        W20178  19.849  26.491   1.989
51961W        W20179  21.695  13.729   2.714
51962W        W20180   4.747  44.204  14.961
51963W        W20181   1.824  37.683  14.045
51964W        W20182  40.568  24.454  11.620
51965W        W20183  42.739  38.317   0.320
51966W        W20184   7.755   2.758   0.262
51967W        W20185  37.890  34.079  11.975
51968W        W20186  24.280   8.171   1.314
51969W        W20187  12.322  35.361   4.015
51970W        W20188  33.477  31.075   5.520
51971W        W20189  18.741  31.557  13.432
51972W        W20190  39.472  18.239   3.142
51973W        W20191  22.307   4.415   4.453
51974W        W20192   1.216  25.569   1.810
51975W        W20193  42.036  15.844  12.401
51976W        W20194  29.907  26.627  12.608
51977W        W20195  39.420  37.397  12.171
51978W        W20196  40.309  28.605  12.904
51979W        W20197  25.468  32.184   5.003
51980W        W20198  35.942  43.307  13.704
51981W        W20199  28.390  21.181   2.344
51982W        W20200  38.995   4.755  13.458
51983W        W20201  31.690  38.396   1.035
51984W        W20202  24.283  22.162  10.758
51985W        W20203   7.231   5.960   3.291
51986W        W20204  43.272   6.372  14.546
51987W        W20205   3.925   6.598   2.797
51988W        W20206  27.339   6.157   3.673
51989W        W20207  20.187  30.406   3.569
51990W        W20208  28.960  22.600   0.493
51991W        W20209   5.621  29.547  14.800
51992W        W20210  14.334  28.918  12.069
51993W        W20211   0.422  21.511  11.982
51994W        W20212  33.138   5.634   0.510
51995W        W20213  35.541  37.067   4.630
51996W        W20214  26.753  33.140  12.319
51997W        W20215   2.745  15.302  13.766
51998W        W20216  42.013  12.466   0.263
51999W        W20217  16.638  34.813  12.294
52000W        W20218  12.257  16.986   4.504
52001W        W20219  34.034  31.688  14.544
52002W        W20220   6.578  16.230   4.070
52003W        W20221   9.205   7.096  14.301
52004W        W20222  23.518   9.881  13.405
52005W        W20223  36.014  36.335   3.673
52006W        W20224  19.209  32.278  10.293
52007W        W20225   0.809  41.322  11.102
52008W        W20226  21.643  30.173   0.988
52009W        W20227   5.842  43.684   5.260
52010W        W20228   8.298  13.860  14.390
52011W        W20229  30.258   1.803   4.164
52012W        W20230  20.094  26.655   3.813
52013W        W20231  40.561   3.427  10.293
52014W        W20232  11.016  43.000   3.545
52015W        W20233  31.963  43.017   4.049
52016W        W20234  27.267  36.457   0.256
52017W        W20235   3.074   7.484   0.345
52018W        W20236  27.965  43.668  14.333
52019W        W20237  27.947   2.860   1.404
52020W        W20238  19.846  30.224  11.464
52021W        W20239  43.740  14.270  12.997
52022W        W20240  30.185  15.616   0.997
52023W        W20241  26.539  23.057  13.397
52024W        W20242   8.147   3.904   0.785
52025W        W20243  42.110  37.668  10.605
52026W        W20244   2.690  39.211   3.137
52027W        W20245  38.573  19.134   1.248
52028W        W20246   8.246  36.766  11.161
52029W        W20247  42.108  18.293   3.732
52030W        W20248  18.319  11.145   2.393
52031W        W20249  30.221  11.155   4.551
52032W        W20250   8.918   2.957   3.800
52033W        W20251   0.490  17.411  13.495
52034W        W20252   5.437   1.407   1.898
52035W        W20253  17.598   0.992  11.158
52036W        W20254   7.106  35.596   2.488
52037W        W20255  39.416  31.795  12.682
52038W        W20256  43.931  29.358  10.557
52039W        W20257   4.309  12.747  14.898
52040W        W20258  37.341  12.768  13.818
52041W        W20259  25.673   1.886  14.221
52042W        W20260  37.248  23.507   4.190
52043W        W20261  25.093  35.335   1.446
52044W        W20262  41.526  39.626  11.606
52045W        W20263  12.917  15.811  13.863
52046W        W20264  34.951  19.425  14.264
52047W        W20265   6.970  21.042  13.958
52048W        W20266   3.938  37.748  13.104
52049W        W20267   5.661  34.095   0.248
52050W        W20268  32.380  10.235  10.638
52051W        W20269  27.477  37.548  13.043
52052W        W20270  11.798  43.339  10.639
52053W        W20271  38.701  27.026   1.657
52054W        W20272   9.663  15.221   1.768
52055W        W20273  22.331  42.776   4.846
52056W        W20274  22.983  23.209   3.689
52057W        W20275  35.962  32.592   4.594
52058W        W20276  41.509  43.814   1.812
52059W        W20277  11.627   7.906  12.478
52060W        W20278   2.358  23.131  14.499
52061W        W20279  10.967   2.025   2.637
52062W        W20280   2.708  19.115  12.999
52063W        W20281  17.068  42.522  14.501
52064W        W20282  14.607   2.927  14.229
52065W        W20283  17.897  27.638   4.793
52066W        W20284  27.608  34.404  14.839
52067W        W20285   1.259  13.839   0.100
52068W        W20286   7.204  41.858  10.818
52069W        W20287  13.707  19.701   4.450
52070W        W20288  30.932  29.063   1.704
52071W        W20289   7.797  10.422   2.254
52072W        W20290  25.569  18.493  12.872
52073W        W20291   4.220  13.645  14.304
52074W        W20292   0.834  38.304   4.683
52075W        W20293  26.973   5.840   2.306
52076W        W20294  16.748  30.879  14.985
52077W        W20295  32.939  41.420   3.163
52078W        W20296  13.274  30.471   4.157
52079W        W20297  41.730  17.486  11.530
52080W        W20298  15.205   6.371   4.397
52081W        W20299  23.747  28.462   0.877
52082W        W20300  20.181  26.618  13.086
52083W        W20301  15.583  12.771   2.609
52084W        W20302  35.136   3.332   2.393
52085W        W20303  27.079  13.034  10.617
52086W        W20304  35.258  11.702   3.218
52087W        W20305   2.217  19.158   3.675
52088W        W20306   5.318   5.654  14.744
52089W        W20307  22.563  23.045  14.510
52090W        W20308  19.216   3.475  12.984
52091W        W20309  19.663  19.310  13.102
52092W        W20310  24.143  22.415  11.619
52093W        W20311  43.474  11.349   0.432
52094W        W20312   4.959  20.035   5.139
52095W        W20313  13.320   3.981   2.811
52096W        W20314  38.728   7.396   3.335
52097W        W20315   0.666  35.496  13.598
52098W        W20316  26.227  33.040   3.367
52099W        W20317  28.980   1.341  12.487
52100W        W20318  33.165  17.482  14.541
52101W        W20319  34.345  22.103   3.340
52102W        W20320   5.889   9.188  11.392
52103W        W20321  18.260  36.512  13.993
52104W        W20322  28.544   2.656  11.510
52105W        W20323  14.421  12.557   3.666
52106W        W20324  29.642  19.579   2.208
52107W        W20325  25.007  37.503   0.438
52108W        W20326  10.372  31.546  12.635
52109W        W20327  21.464  31.423  12.090
52110W        W20328  24.443  33.431   4.113
52111W        W20329   1.739  31.923  12.555
52112W        W20330  39.919  20.634   0.331
52113W        W20331  13.482  41.132  13.050
52114W        W20332  20.224  31.125  10.946
52115W        W20333  31.071  21.195   2.293
52116W        W20334  38.453  12.216  14.062
52117W        W20335   9.456  15.699   1.747
52118W        W20336  34.196   2.685   4.236
52119W        W20337   8.325  23.010   2.397
52120W        W20338  25.222  19.026  10.498
52121W        W20339  13.259  21.247  13.197
52122W        W20340  36.882  16.519   3.220
52123W        W20341   0.735  37.395  13.849
52124W        W20342   5.162  29.657   3.303
52125W        W20343  36.374  19.978   2.095
52126W        W20344   5.459  41.465  13.925
52127W        W20345  12.590   6.382   3.901
52128W        W20346  40.252  40.536   0.823
52129W        W20347  33.630   6.614   1.273
52130W        W20348  15.206  20.560   1.367
52131W        W20349   6.652   3.900  10.902
52132W        W20350  18.231  11.508   4.626
52133W        W20351   1.411  31.564  14.836
52134W        W20352  33.465   5.914   5.405
52135W        W20353  22.046   2.720  11.491
52136W        W20354  22.762  13.357   0.346
52137W        W20355  31.514  10.438   1.657
52138W        W20356  10.131  40.302  12.515
52139W        W20357  35.504   4.874  12.533
52140W        W20358  36.544  42.450   2.735
52141W        W20359  31.755  34.846   0.414
52142W        W20360  27.245  28.690  11.941
52143W        W20361   5.324  18.602  14.662
52144W        W20362  26.860  18.609  12.998
52145W        W20363   3.690  22.975  14.747
52146W        W20364  11.698  18.997  10.147
52147W        W20365  38.831  32.580   1.856
52148W        W20366   2.715  28.054  14.651
52149W        W20367  13.625  44.512   4.110
52150W        W20368   0.394  12.401  11.377
52151W        W20369  21.899   1.424   0.437
52152W        W20370  13.682  18.415   4.122
52153W        W20371  33.676   7.848  11.037
52154W        W20372  44.392   5.946   0.897
52155W        W20373  41.471  30.692   4.566
52156W        W20374  31.248  23.794   1.364
52157W        W20375  41.372  18.517  14.495
52158W        W20376   9.219  43.294   9.784
52159W        W20377   5.111   3.696   1.692
52160W        W20378  12.236   9.889  12.369
52161W        W20379  27.809   4.086   1.727
52162W        W20380  44.847  36.117   2.614
52163W        W20381  40.481  31.474   1.832
52164W        W20382  27.504  38.124  12.163
52165W        W20383  27.690  42.903  14.595
52166W        W20384  25.691  28.145   5.148
52167W        W20385  35.907   1.585   4.588
52168W        W20386  21.215  41.919  12.873
52169W        W20387  24.030  17.603  11.541
52170W        W20388  36.817   8.837   0.292
52171W        W20389  24.249   2.470   1.329
52172W        W20390   2.272  30.774   2.681
52173W        W20391  44.346  30.476  14.100
52174W        W20392  24.508  18.291   4.631
52175W        W20393  27.971   4.417  12.657
52176W        W20394  20.826  32.411   0.461
52177W        W20395  16.048  41.965   2.803
52178W        W20396   7.124  37.345   3.359
52179W        W20397  17.801  25.606   1.973
52180W        W20398  40.800  21.414  11.648
52181W        W20399   8.274  34.561   4.509
52182W        W20400  21.197  22.991   1.886
52183W        W20401  24.772   4.211   0.389
52184W        W20402   5.589   8.221  13.078
52185W        W20403   4.408  44.330   3.122
52186W        W20404  16.273  16.716   0.747
52187W        W20405   4.315  22.943   0.263
52188W        W20406   0.021  20.357   4.162
52189W        W20407   4.767   1.362   1.315
52190W        W20408  13.814  25.424  11.590
52191W        W20409   3.961  11.792  11.297
52192W        W20410  16.320   1.254   0.578
52193W        W20411   6.286  39.734  14.358
52194W        W20412  43.486  23.638   1.280
52195W        W20413  24.116  44.875  14.377
52196W        W20414  12.756  17.549  13.449
52197W        W20415  29.897   0.299  13.408
52198W        W20416  28.953  42.473   3.666
52199W        W20417  36.006  30.714  12.367
52200W        W20418   8.390  35.308   4.839
52201W        W20419  31.906  33.396  14.562
52202W        W20420   8.362  35.424  14.396
52203W        W20421   6.187  13.649   2.799
52204W        W20422   6.298  42.049  12.258
52205W        W20423  14.732  17.570   0.777
52206W        W20424   7.842  37.464   5.009
52207W        W20425   9.724  34.079   2.369
52208W        W20426   5.309  38.445   2.290
52209W        W20427  16.948   3.085  13.952
52210W        W20428  25.031  29.821  10.749
52211W        W20429   2.935  23.446   3.122
52212W        W20430  26.513  29.037  14.598
52213W        W20431  10.482  27.285   3.180
52214W        W20432  20.990  38.312   0.230
52215W        W20433   0.700  27.454  10.755
52216W        W20434  21.052   0.768   2.204
52217W        W20435   3.388   2.179   2.955
52218W        W20436  36.469  35.536   3.638
52219W        W20437  27.178  42.793   2.224
52220W        W20438   8.729  36.474   0.524
52221W        W20439   1.668  25.101  14.332
52222W        W20440  10.856  21.481  14.324
52223W        W20441  27.927  26.775   3.353
52224W        W20442  16.777  17.186  11.443
52225W        W20443  30.844  23.100  12.928
52226W        W20444   0.624  39.759  12.632
52227W        W20445  23.097  21.484  12.983
52228W        W20446  25.179  24.713  14.265
52229W        W20447  29.003   8.892   4.560
52230W        W20448  25.376  21.491  13.581
52231W        W20449  20.281  30.033   4.863
52232W        W20450   2.317  10.151   5.162
52233W        W20451   3.716  31.087   0.809
52234W        W20452  36.023  39.511  10.582
52235W        W20453   8.341  17.141  12.582
52236W        W20454  40.325  13.276  13.816
52237W        W20455  44.013  32.685   0.914
52238W        W20456   3.466  41.753  11.219
52239W        W20457  15.949  35.791   3.745
52240W        W20458  44.132  30.934   2.335
52241W        W20459  25.135  29.671   0.447
52242W        W20460   7.715  27.045  12.801
52243W        W20461  25.577  22.015  14.737
52244W        W20462  18.249  39.196  14.875
52245W        W20463  22.296  16.724  10.333
52246W        W20464  14.293   8.461   3.475
52247W        W20465  39.250  33.988  11.655
52248W        W20466  43.534  28.469   3.941
52249W        W20467  12.318  24.135  12.065
52250W        W20468  42.514   3.791  11.021
52251W        W20469   5.005  15.255  13.586
52252W        W20470  37.254  37.643  12.913
52253W        W20471  35.406  38.310   0.812
52254W        W20472   6.889  26.929   0.900
52255W        W20473  31.967  23.444  12.459
52256W        W20474  28.102  22.419  13.047
52257W        W20475  23.999  28.257   3.140
52258W        W20476  34.838  38.342   0.296
52259W        W20477   7.127  20.131  11.932
52260W        W20478  44.732  38.571  13.795
52261W        W20479  35.215  26.475  10.290
52262W        W20480  20.083  40.428   2.540
52263W        W20481  24.199   3.859   1.833
52264W        W20482  32.989   6.165   2.679
52265W        W20483  13.214   8.432   3.577
52266W        W20484  22.860  23.239  13.890
52267W        W20485  17.227   3.774  10.594
52268W        W20486  28.138   8.274   1.845
52269W        W20487  26.531  43.247  10.373
52270W        W20488  18.039   1.262  11.071
52271W        W20489  29.184  18.573   1.866
52272W        W20490  22.033  38.538   3.558
52273W        W20491   5.418  25.418  10.609
52274W        W20492  18.519   9.353  14.306
52275W        W20493  26.575  42.119   1.417
52276W        W20494  12.686   1.084   4.785
52277W        W20495  40.825   4.742   0.298
52278W        W20496   7.315  33.212  14.739
52279W        W20497   2.220   3.860  13.913
52280W        W20498  43.027   4.411  11.546
52281W        W20499  14.100  19.999   1.788
52282W        W20500  32.598  21.296  11.971
52283W        W20501   3.327  11.259   1.441
52284W        W20502   9.247  44.636  14.929
52285W        W20503  22.071  35.925   2.913
52286W        W20504  11.255  10.426   2.624
52287W        W20505  19.416  12.258   0.903
52288W        W20506  18.140  31.034  12.172
52289W        W20507   7.624   7.099   4.346
52290W        W20508  11.136   4.749   1.307
52291W        W20509   7.472  21.774  13.343
52292W        W20510  18.242   7.681  14.668
52293W        W20511  39.237  21.246  13.097
52294W        W20512  27.095  33.092  11.930
52295W        W20513  36.268  28.141   0.897
52296W        W20514  40.652   9.857   4.610
52297W        W20515  34.021  40.537  11.800
52298W        W20516  15.838  18.710   0.917
52299W        W20517  23.626  13.223   4.249
52300W        W20518  33.622  28.190  13.149
52301W        W20519  29.943  17.711  12.522
52302W        W20520   6.277  37.955   0.355
52303W        W20521  15.030   5.827   3.703
52304W        W20522  39.490  40.007   0.990
52305W        W20523   8.042   9.721   4.511
52306W        W20524  35.068  22.712  14.441
52307W        W20525  21.755  16.065   3.175
52308W        W20526  36.799   3.967  13.876
52309W        W20527   7.072  34.060  14.560
52310W        W20528  29.426  30.889   0.357
52311W        W20529  37.108  11.289  12.767
52312W        W20530  25.097  32.337  13.460
52313W        W20531  26.145  36.779  11.220
52314W        W20532  43.967  35.954   0.415
52315W        W20533  12.224  31.907  11.788
52316W        W20534   9.568  22.430   1.888
52317W        W20535  10.786   3.245   3.830
52318W        W20536  22.124   9.619  13.703
52319W        W20537  25.136  33.593   4.813
52320W        W20538   9.567  16.847   3.696
52321W        W20539   5.720  13.208  13.121
52322W        W20540  43.477  23.619   3.982
52323W        W20541  26.970  14.642  14.924
52324W        W20542  38.853  32.468  13.790
52325W        W20543  38.300  28.518   1.258
52326W        W20544  12.324  15.796   3.543
52327W        W20545   1.404  44.372   3.845
52328W        W20546  25.461   8.848   2.317
52329W        W20547  32.841  33.311  11.121
52330W        W20548  26.188   6.144   1.767
52331W        W20549  16.571  20.101   2.109
52332W        W20550  25.940  40.459   4.267
52333W        W20551  38.530   2.954   3.808
52334W        W20552   9.199  28.682  11.173
52335W        W20553  39.662   4.013   4.518
52336W        W20554  25.871   9.472  11.017
52337W        W20555  27.678  24.032  13.474
52338W        W20556  38.393  19.130   2.654
52339W        W20557  18.220  15.503   3.582
52340W        W20558  36.317  30.392   1.369
52341W        W20559  38.582  31.160   4.232
52342W        W20560   5.852   2.905  11.194
52343W        W20561  33.935  22.025   3.716
52344W        W20562  40.535   5.807   4.532
52345W        W20563  40.501   1.928   4.182
52346W        W20564  27.719  38.401   1.549
52347W        W20565  31.307  35.012  14.534
52348W        W20566   5.352   8.134   1.873
52349W        W20567  43.321  43.711  14.808
52350W        W20568  16.502  34.596  13.336
52351W        W20569  34.410  34.860  14.809
52352W        W20570   4.702  11.059  14.425
52353W        W20571  11.330  28.150  13.037
52354W        W20572  33.861  43.408   3.325
52355W        W20573   0.760  12.716  11.606
52356W        W20574  20.611  12.692   2.853
52357W        W20575  23.519   5.417  13.438
52358W        W20576  19.241  42.679   0.904
52359W        W20577  44.352  10.332   2.125
52360W        W20578  17.016  29.584   4.150
52361W        W20579  41.234   7.668  12.960
52362W        W20580  31.527   9.185   4.637
52363W        W20581  12.872   4.257   2.182
52364W        W20582   4.104  10.178   1.713
52365W        W20583  39.024  23.572   2.200
52366W        W20584  43.875  30.184  14.202
52367W        W20585   8.081  20.562   0.336
52368W        W20586   9.215  12.081  13.614
52369W        W20587  11.275  44.417   1.909
52370W        W20588  33.177  13.853   1.902
52371W        W20589  15.228  41.452  11.270
52372W        W20590  16.620  40.108  12.580
52373W        W20591   7.313  26.653   1.002
52374W        W20592  35.549  30.710  11.512
52375W        W20593  36.056  29.986  11.461
52376W        W20594  30.151  33.095  14.262
52377W        W20595   7.372   9.855   2.546
52378W        W20596   8.352  26.220   0.831
52379W        W20597  39.652  13.822   1.746
52380W        W20598  28.675  38.068  11.255
52381W        W20599   1.329  36.049  13.357
52382W        W20600  30.907   5.286  14.031
52383W        W20601  41.097   2.934   3.991
52384W        W20602  33.479   1.524  13.354
52385W        W20603  18.721  21.631  14.331
52386W        W20604   7.765   5.336   3.915
52387W        W20605  17.190  34.010  11.859
52388W        W20606  42.061   6.983   4.312
52389W        W20607  34.665  33.523   1.914
52390W        W20608  32.488   8.162   2.298
52391W        W20609  17.901  42.389  14.785
52392W        W20610  28.235   0.449  14.058
52393W        W20611  22.747   1.973  12.077
52394W        W20612  33.218  19.318  12.500
52395W        W20613  18.325  19.587  10.958
52396W        W20614  36.439  30.435  12.464
52397W        W20615  25.141  31.989   4.654
52398W        W20616   9.583   2.317  12.019
52399W        W20617  23.425  36.437   0.064
52400W        W20618  29.478   2.758   4.176
52401W        W20619  26.920  32.431  10.034
52402W        W20620  35.551  23.525   4.706
52403W        W20621  23.764   7.186  11.015
52404W        W20622  38.341  23.991  13.073
52405W        W20623  15.316  41.521   5.003
52406W        W20624  38.851  33.001  14.155
52407W        W20625  23.681  30.018  10.297
52408W        W20626  35.279  37.499   2.676
52409W        W20627  11.914  19.255  13.526
52410W        W20628  21.075  27.718   3.816
52411W        W20629  42.445   9.710   2.189
52412W        W20630   5.928  40.528   5.532
52413W        W20631  23.086  39.453   0.835
52414W        W20632  15.098  10.872  10.866
52415W        W20633  41.278  34.514   0.232
52416W        W20634  20.426  27.128  12.497
52417W        W20635  44.800   3.988  13.784
52418W        W20636   3.375  44.544  10.174
52419W        W20637  41.521  24.735   1.832
52420W        W20638  41.493  26.579   1.484
52421W        W20639  19.085  21.791   0.196
52422W        W20640  36.045  25.665   2.369
52423W        W20641  13.321  13.855   0.208
52424W        W20642  31.899  38.523   4.561
52425W        W20643  14.437   0.807   4.112
52426W        W20644  11.765  43.998   3.550
52427W        W20645  22.761  15.965   1.061
52428W        W20646  21.382  36.904   5.012
52429W        W20647  13.873  37.870  11.049
52430W        W20648  28.954   8.400   4.734
52431W        W20649  12.561   7.251   1.579
52432W        W20650   5.068  22.557   3.912
52433W        W20651  28.950  23.698  12.122
52434W        W20652   2.811  24.464   2.410
52435W        W20653   3.569  25.576  11.644
52436W        W20654   3.979  39.256  12.660
52437W        W20655  26.480  14.725  14.824
52438W        W20656  35.925  28.867   3.800
52439W        W20657  38.165  27.664   0.787
52440W        W20658  15.118  34.967   2.117
52441W        W20659   4.910  43.763   3.359
52442W        W20660  34.885  27.619  12.372
52443W        W20661  24.159  33.092  13.032
52444W        W20662  17.624  15.376   3.091
52445W        W20663  18.340  39.404  11.581
52446W        W20664  32.096  34.179   4.072
52447W        W20665  43.314  16.964   3.982
52448W        W20666  11.887  43.987  13.850
52449W        W20667  20.950   6.786   1.485
52450W        W20668  31.205  42.967   2.947
52451W        W20669   6.147  21.733  10.991
52452W        W20670  19.977  34.440  11.567
52453W        W20671  38.091  21.064   3.874
52454W        W20672   2.027  18.798  12.521
52455W        W20673  17.609  38.140   0.362
52456W        W20674  25.981  22.162  12.921
52457W        W20675  20.335  20.772  14.283
52458W        W20676   8.310  31.075   3.815
52459W        W20677  34.129  21.426  13.413
52460W        W20678  19.284  27.448  12.133
52461W        W20679  42.481   2.947   1.057
52462W        W20680  39.800  19.516   0.484
52463W        W20681  15.195  21.350  13.884
52464W        W20682   9.295  14.997   0.995
52465W        W20683  13.382  37.784  11.196
52466W        W20684  39.125  36.574   0.721
52467W        W20685  39.944   3.839  13.351
52468W        W20686   7.127   8.295   3.107
52469W        W20687  33.011  32.022   2.412
52470W        W20688  19.460  29.465   4.068
52471W        W20689   3.470  18.168   4.630
52472W        W20690  37.416  10.890  10.638
52473W        W20691  24.688  27.625  12.498
52474W        W20692  18.855  18.742  14.882
52475W        W20693  26.705   5.765   5.017
52476W        W20694  15.286  42.901  10.577
52477W        W20695  26.947  42.407   4.635
52478W        W20696  20.242   8.750  14.534
52479W        W20697  37.560  19.817   2.742
52480W        W20698  11.069  40.671  11.999
52481W        W20699  26.535  24.280  12.166
52482W        W20700  37.097  17.488  12.782
52483W        W20701  13.004  17.975  10.817
52484W        W20702  22.153  22.125   3.087
52485W        W20703  35.123  37.106   4.984
52486W        W20704  27.642  11.330  12.556
52487W        W20705  26.237  29.326   0.094
52488W        W20706  41.870  26.388  11.252
52489W        W20707  31.209  44.682   1.215
52490W        W20708  32.513   0.832  13.660
52491W        W20709  36.914   1.452   2.396
52492W        W20710  13.744  42.830  10.633
52493W        W20711  21.077  34.924   3.247
52494W        W20712   8.041  37.410   4.532
52495W        W20713   6.771   4.868  14.031
52496W        W20714  35.456  29.045   0.148
52497W        W20715  43.572   9.257   0.526
52498W        W20716  35.764   7.577  13.849
52499W        W20717  38.978  11.637  12.986
52500W        W20718   6.439  11.391   0.538
52501W        W20719  40.527  11.876   4.401
52502W        W20720  24.173  19.408   0.322
52503W        W20721  36.724  39.523  13.394
52504W        W20722  44.852  18.736   1.622
52505W        W20723  25.777  27.853   4.327
52506W        W20724  32.950  33.439   4.576
52507W        W20725  43.777  29.244  12.970
52508W        W20726  10.464  33.314  12.459
52509W        W20727  19.540  44.528   1.865
52510W        W20728   4.708   2.417  10.474
52511W        W20729  15.823  37.404   3.147
52512W        W20730  13.094  44.003  11.640
52513W        W20731   7.439   3.989  12.030
52514W        W20732  40.980  18.871  10.731
52515W        W20733  34.130  18.123  12.529
52516W        W20734  27.649  43.942  11.568
52517W        W20735  22.237  15.895   1.738
52518W        W20736   5.696  27.605   2.867
52519W        W20737  17.740   0.200  11.667
52520W        W20738   4.763  36.793   0.429
52521W        W20739   1.644   6.558  12.036
52522W        W20740  15.822  24.444   4.128
52523W        W20741   9.090  32.815  11.656
52524W        W20742  35.828   3.763   4.770
52525W        W20743  36.752  23.429   4.200
52526W        W20744  10.919  36.643   1.899
52527W        W20745  32.325   6.174   3.892
52528W        W20746  31.907   4.472   1.922
52529W        W20747  13.607  20.156   0.834
52530W        W20748  30.505  34.102   2.811
52531W        W20749   5.303  13.276  12.071
52532W        W20750  44.124  41.281   2.810
52533W        W20751   2.350   9.700   4.590
52534W        W20752   8.611   2.431  12.298
52535W        W20753  37.503  26.128  12.857
52536W        W20754  31.149  21.729   2.327
52537W        W20755  19.022  19.213   3.253
52538W        W20756  32.973  32.514  14.003
52539W        W20757  24.035  43.330  10.598
52540W        W20758  12.329  26.180   0.924
52541W        W20759  27.270   7.882   4.736
52542W        W20760  17.575  36.060   0.571
52543W        W20761  33.336  28.519  13.471
52544W        W20762   0.841   0.470  11.684
52545W        W20763  34.950  25.269   0.551
52546W        W20764   8.803  38.971  12.490
52547W        W20765  35.956   1.876   0.077
52548W        W20766  37.937  44.555  10.238
52549W        W20767  14.313  38.676   3.062
52550W        W20768  40.932   1.481   1.816
52551W        W20769   7.675  24.603   0.415
52552W        W20770  35.935  44.907   2.693
52553W        W20771   5.442  40.444  12.108
52554W        W20772  34.972  27.866   1.306
52555W        W20773   7.440  20.001   1.227
52556W        W20774  20.771   8.816  11.336
52557W        W20775  23.730  15.191  13.611
52558W        W20776  23.600  14.375   2.816
52559W        W20777  10.183  34.557  13.994
52560W        W20778   2.230  20.518   4.804
52561W        W20779  34.372  16.676   4.143
52562W        W20780  40.173  39.780   2.804
52563W        W20781  37.356  37.573   4.989
52564W        W20782  35.106  10.959   0.745
52565W        W20783  28.992  34.633  14.652
52566W        W20784  26.231  19.782  13.525
52567W        W20785  27.762  31.150   4.053
52568W        W20786  39.424  28.082   4.074
52569W        W20787  39.691  26.945   4.486
52570W        W20788   1.228  43.163   3.178
52571W        W20789  13.260  37.301   2.268
52572W        W20790  30.307  30.118   0.448
52573W        W20791  21.909  32.295   4.369
52574W        W20792  27.113   3.864   1.271
52575W        W20793  28.835  31.048  12.807
52576W        W20794  40.909  13.840  12.499
52577W        W20795  21.730   6.315  12.950
52578W        W20796  20.501  40.688  12.874
52579W        W20797  24.660  32.369   3.131
52580W        W20798   0.749  38.929  14.930
52581W        W20799  40.290  26.449   4.108
52582W        W20800  29.076  13.489  13.871
52583W        W20801   6.550   9.408  14.896
52584W        W20802  21.731   3.917  13.167
52585W        W20803  27.019  28.688  13.764
52586W        W20804   4.897  17.451   2.705
52587W        W20805  18.647  18.576  11.757
52588W        W20806  34.257  38.407   2.727
52589W        W20807  18.024  18.595  11.054
52590W        W20808   4.544  17.080   3.460
52591W        W20809  14.735  31.334   2.901
52592W        W20810  23.491  40.029   2.486
52593W        W20811  25.157  25.651   0.773
52594W        W20812  29.221  22.194   2.337
52595W        W20813  40.078  44.928  13.372
52596W        W20814  11.658  36.873  12.556
52597W        W20815  25.667  43.911   1.682
52598W        W20816  32.707  35.114   0.197
52599W        W20817  35.322  20.332  14.825
52600W        W20818  15.897  19.763  11.138
52601W        W20819   1.252   8.785  12.603
52602W        W20820  11.855  32.742  11.140
52603W        W20821  29.651  35.602  14.883
52604W        W20822   3.386   9.456  11.505
52605W        W20823  32.689  35.381  10.460
52606W        W20824  18.152  37.661  11.095
52607W        W20825  26.149   6.037  12.468
52608W        W20826  30.754   4.830   2.231
52609W        W20827   4.114  37.189   2.873
52610W        W20828  18.504  31.808  12.519
52611W        W20829  17.293  30.994  12.466
52612W        W20830  19.656  27.188   2.291
52613W        W20831  24.640  35.358   3.851
52614W        W20832  11.816  30.657   1.766
52615W        W20833  23.283  10.969   3.548
52616W        W20834   7.371  34.017   4.612
52617W        W20835  13.887   6.256  14.798
52618W        W20836  40.843  14.161   0.303
52619W        W20837  14.081   1.301   2.253
52620W        W20838  22.284  38.229  12.932
52621W        W20839  16.826  38.152  13.438
52622W        W20840   4.419  34.546   1.778
52623W        W20841  44.341  10.601   4.840
52624W        W20842  12.593  21.673   1.913
52625W        W20843  20.590  39.954  11.549
52626W        W20844   0.808  28.015   4.105
52627W        W20845  28.419   6.261   4.555
52628W        W20846  26.503  28.499  13.313
52629W        W20847  15.585  20.612   3.188
52630W        W20848  31.134  30.124  10.980
52631W        W20849  19.920  39.594   4.196
52632W        W20850  27.774  24.609   2.014
52633W        W20851  38.399  23.273   0.830
52634W        W20852  34.182  20.281  12.042
52635W        W20853   7.579  18.778  13.932
52636W        W20854  40.878   3.919  11.461
52637W        W20855  36.936  20.578  11.640
52638W        W20856  22.539   5.754  14.437
52639W        W20857  38.595  40.551  12.562
52640W        W20858  34.731  22.643  10.484
52641W        W20859   6.159  20.215   4.361
52642W        W20860  13.176  14.343   3.285
52643W        W20861   7.755  28.890  13.853
52644W        W20862  24.255   7.284   4.222
52645W        W20863  37.529   8.626   3.037
52646W        W20864  15.257  30.004   3.662
52647W        W20865  34.551  40.429   0.072
52648W        W20866   9.365  35.823  13.774
52649W        W20867   3.412  29.597   3.787
52650W        W20868  27.612  44.603   4.495
52651W        W20869   1.540  21.509   1.897
52652W        W20870  15.453  20.725  11.101
52653W        W20871   1.312  35.103  13.481
52654W        W20872  10.890   8.246   3.078
52655W        W20873  18.345   9.805  11.498
52656W        W20874  34.766  25.802   2.828
52657W        W20875  13.667   3.654  14.810
52658W        W20876  40.904  12.092   2.273
52659W        W20877   0.104  36.187   3.048
52660W        W20878   1.817  30.454   0.668
52661W        W20879  19.955  41.360  13.036
52662W        W20880  11.691   1.682  12.370
52663W        W20881  13.975  17.627  13.279
52664W        W20882  20.105  20.820   1.228
52665W        W20883   3.845  41.266   1.755
52666W        W20884  30.460  29.717   0.765
52667W        W20885   4.268  26.203  10.802
52668W        W20886  27.872  41.945   3.222
52669W        W20887  34.229  36.163   1.025
52670W        W20888  26.467   5.543   1.742
52671W        W20889  12.345  20.675  13.365
52672W        W20890   9.768  20.476   0.883
52673W        W20891  41.815  21.942  11.164
52674W        W20892  16.152  28.993  13.278
52675W        W20893   4.577  20.422   0.444
52676W        W20894  40.201  27.069   4.662
52677W        W20895   4.937  31.021  12.099
52678W        W20896  42.314  12.607  12.508
52679W        W20897  18.602  15.098  13.173
52680W        W20898  25.982  13.435  14.931
52681W        W20899  18.712  15.539  11.925
52682W        W20900  19.523  42.048   4.912
52683W        W20901   4.037   2.678  11.642
52684W        W20902  44.206  19.028  12.324
52685W        W20903   6.401  34.871   5.097
52686W        W20904   3.334  15.915   4.179
52687W        W20905  31.653   2.685  14.579
52688W        W20906   2.225  17.092   2.004
52689W        W20907  43.893  27.409   4.502
52690W        W20908  13.982  40.469  12.470
52691W        W20909  16.328  20.333  14.762
52692W        W20910  11.739   7.021  13.846
52693W        W20911  20.271  13.795  12.077
52694W        W20912  35.907  32.623  13.138
52695W        W20913  35.990  36.124  13.434
52696W        W20914   8.198  43.825   2.437
52697W        W20915  37.932  22.824  12.426
52698W        W20916  27.432  42.033  14.305
52699W        W20917  14.007  30.647  10.700
52700W        W20918  30.441  32.794  13.944
52701W        W20919  30.119   6.087  11.602
52702W        W20920   0.913  33.077  13.302
52703W        W20921  44.080   0.017   4.058
52704W        W20922  23.232   1.532   1.358
52705W        W20923  15.602  32.099   3.848
52706W        W20924  12.648  20.403  11.762
52707W        W20925   8.009   0.963   4.671
52708W        W20926  11.318  10.987  14.852
52709W        W20927   6.351  21.818  14.815
52710W        W20928   2.910   2.225  13.376
52711W        W20929  28.446   4.327   4.154
52712W        W20930  17.498  39.245   4.649
52713W        W20931  36.418  30.190  11.159
52714W        W20932  26.216  24.612  14.835
52715W        W20933  19.573   7.402  13.414
52716W        W20934  27.606   9.142   4.870
52717W        W20935  30.087  36.270  11.685
52718W        W20936  30.029  31.138  10.619
52719W        W20937  15.889   1.488   0.845
52720W        W20938   1.804  15.504  12.878
52721W        W20939  24.070  40.318   0.311
52722W        W20940  24.723  19.191  14.085
52723W        W20941  23.534  32.511   3.697
52724W        W20942   0.275  16.561  11.398
52725W        W20943  21.232   7.302   3.198
52726W        W20944  40.420  35.957  13.744
52727W        W20945  11.421  44.738   2.677
52728W        W20946  24.026  19.524  11.425
52729W        W20947  18.704  26.137   2.761
52730W        W20948  43.883  25.658   1.167
52731W        W20949  13.186  25.766   1.231
52732W        W20950  23.655  14.615  12.433
52733W        W20951  29.570  39.726   1.475
52734W        W20952   8.707  22.044  13.096
52735W        W20953  29.392   2.274   3.355
52736W        W20954  43.094   7.817   4.773
52737W        W20955  31.982   7.167  12.888
52738W        W20956  40.070  33.393   3.249
52739W        W20957  29.228  26.787  14.143
52740W        W20958  23.626   8.729  14.724
52741W        W20959  36.469  23.973   3.806
52742W        W20960   2.664  26.458   4.119
52743W        W20961  21.540   9.191   4.626
52744W        W20962  18.010  34.529   4.218
52745W        W20963   3.262   8.835  10.584
52746W        W20964  27.532  16.092   0.507
52747W        W20965  30.798  28.139   4.105
52748W        W20966  21.620  43.462  11.414
52749W        W20967  41.996   3.834  10.957
52750W        W20968  18.212  35.016   2.263
52751W        W20969  35.990   3.210  13.147
52752W        W20970   5.324  20.282  13.956
52753W        W20971   7.903  31.105   3.178
52754W        W20972   0.106  24.349   2.213
52755W        W20973   7.977  19.618   1.649
52756W        W20974  23.408  41.913  12.173
52757W        W20975  25.431   2.331   1.886
52758W        W20976   4.963  39.349  14.596
52759W        W20977  31.091   4.439   0.953
52760W        W20978  44.559   6.891   1.920
52761W        W20979  21.058  32.466  12.868
52762W        W20980   5.042  38.043   0.335
52763W        W20981  19.054   4.788   0.444
52764W        W20982  17.600  14.790  11.420
52765W        W20983   7.838  36.330   0.286
52766W        W20984  17.710  37.362  11.131
52767W        W20985   1.175  28.035   2.876
52768W        W20986   4.230  32.850  13.930
52769W        W20987   6.237  27.122  12.472
52770W        W20988  19.822  17.553   3.234
52771W        W20989  21.446  35.927  12.015
52772W        W20990  27.535   0.545  13.309
52773W        W20991  19.656  33.245  10.381
52774W        W20992   0.178  40.628   1.806
52775W        W20993   9.349  37.771   0.055
52776W        W20994  11.666  26.463  14.378
52777W        W20995   8.087  19.326  14.338
52778W        W20996  37.823   7.111   3.136
52779W        W20997  26.870  38.793   1.740
52780W        W20998  26.767  21.025  14.981
52781W        W20999  26.649   3.040   4.994
52782W        W21000  17.715  22.569  11.694
52783W        W21001  44.415   9.190  10.615
52784W        W21002  18.020  35.562  11.628
52785W        W21003  32.013  38.606  14.332
52786W        W21004   2.767  14.060   4.522
52787W        W21005  17.520  42.912   0.671
52788W        W21006  14.821  13.766   0.641
52789W        W21007   8.374  38.143  14.265
52790W        W21008  44.821   3.722  14.236
52791W        W21009  14.344   2.975   4.709
52792W        W21010  24.478  39.949  12.325
52793W        W21011  36.961  32.044  12.331
52794W        W21012  21.760  17.279   4.643
52795W        W21013  21.083  25.252  13.317
52796W        W21014  21.821  38.479  11.798
52797W        W21015  36.325   7.828   2.690
52798W        W21016  38.906  38.109   1.226
52799W        W21017  21.031  29.870   3.268
52800W        W21018  14.739  41.272   0.513
52801W        W21019  25.961  41.929   4.324
52802W        W21020  19.683  28.639  14.542
52803W        W21021  42.915   7.718  12.693
52804W        W21022  35.161  19.624   1.768
52805W        W21023  44.738  34.050   1.320
52806W        W21024  43.330  29.555  13.007
52807W        W21025  43.541  13.290  12.591
52808W        W21026  38.127  40.866  13.788
52809W        W21027  20.804  16.687   0.889
52810W        W21028  21.548  12.132   4.002
52811W        W21029  33.064  33.925   2.567
52812W        W21030  31.542   7.714  11.427
52813W        W21031  10.602  39.223   3.705
52814W        W21032  13.573  36.804  12.363
52815W        W21033  25.023  25.655  14.715
52816W        W21034  30.031   1.305   1.787
52817W        W21035  36.021  39.950  13.012
52818W        W21036  16.723  17.137   3.623
52819W        W21037  15.598  32.825  11.094
52820W        W21038  23.980  39.404  14.792
52821W        W21039   0.680  36.421  13.589
52822W        W21040  17.372  33.577  12.572
52823W        W21041  43.796  13.781  10.641
52824W        W21042  11.580   5.911   4.166
52825W        W21043  16.255  34.543  10.644
52826W        W21044  31.983  31.145   3.074
52827W        W21045  19.179  30.530  12.587
52828W        W21046  10.536  41.008   4.167
52829W        W21047  20.319  30.026   1.309
52830W        W21048   8.721   8.521   4.073
52831W        W21049  35.189  34.208  12.830
52832W        W21050  40.070   3.266   1.878
52833W        W21051   2.195  21.539  12.660
52834W        W21052  37.379  31.653   4.325
52835W        W21053   7.338  41.013  13.337
52836W        W21054  32.033  18.014   2.690
52837W        W21055   3.315   6.428  11.047
52838W        W21056  12.850  30.992  12.335
52839W        W21057  26.189  12.927  12.102
52840W        W21058  12.640  10.264  11.198
52841W        W21059   5.897  16.217  14.866
52842W        W21060  15.097   0.685   0.417
52843W        W21061  29.159  31.238   0.638
52844W        W21062  43.509   6.691  11.200
52845W        W21063  36.392  21.028   1.225
52846W        W21064   6.845  13.885   1.919
52847W        W21065  42.385  18.682  11.484
52848W        W21066  28.597  36.839   0.493
52849W        W21067  35.873  39.658  14.798
52850W        W21068  30.924  26.432   1.709
52851W        W21069   2.211  33.481  11.702
52852W        W21070  14.243  35.889  12.122
52853W        W21071  24.916  28.031   1.094
52854W        W21072   7.296   5.652  13.893
52855W        W21073  42.869  30.930   0.621
52856W        W21074  15.574  43.847   1.907
52857W        W21075  29.941  16.838   4.328
52858W        W21076  42.504   3.357   0.736
52859W        W21077  35.763  26.506   0.862
52860W        W21078   8.604   0.602  11.681
52861W        W21079  38.636  11.750  13.968
52862W        W21080   3.880   5.436  11.539
52863W        W21081  13.742  10.346   4.226
52864W        W21082   0.212   0.347   1.494
52865W        W21083  25.187  12.769  11.298
52866W        W21084  34.073  19.344  11.177
52867W        W21085   0.683  42.375   1.735
52868W        W21086  31.546  12.728  11.202
52869W        W21087  13.127  30.448   1.729
52870W        W21088  12.442  21.693  14.882
52871W        W21089   9.735  44.033   1.220
52872W        W21090   7.070  34.078   3.136
52873W        W21091   9.317  21.907   1.307
52874W        W21092  26.463  16.256  13.068
52875W        W21093  41.382  34.893  12.932
52876W        W21094  36.793  19.263   4.194
52877W        W21095   8.903  20.508   4.146
52878W        W21096  39.643  39.624   2.340
52879W        W21097  42.286  28.440   1.448
52880W        W21098  35.070   8.103   0.823
52881W        W21099  23.346  36.852  10.338
52882W        W21100  29.654  43.407  12.163
52883W        W21101   6.797  25.158   1.180
52884W        W21102  13.300  39.707  10.288
52885W        W21103   8.159  25.943   0.327
52886W        W21104   1.458   7.699   3.768
52887W        W21105  20.062  35.842   2.306
52888W        W21106  14.793  19.758  11.884
52889W        W21107  23.963  22.240   0.694
52890W        W21108  17.854  40.169  11.625
52891W        W21109  39.861  37.359  13.910
52892W        W21110  23.668  25.481  13.552
52893W        W21111  39.809   0.545  10.759
52894W        W21112  23.995  40.396   3.193
52895W        W21113  21.574  30.943  11.229
52896W        W21114  40.607   9.235   1.585
52897W        W21115  23.444  25.240   0.963
52898W        W21116   8.919  44.566  14.303
52899W        W21117  44.442  40.302  12.556
52900W        W21118  21.658  31.907   1.890
52901W        W21119   8.963  24.934  12.550
52902W        W21120   1.479  29.041  14.665
52903W        W21121  32.920  18.666  10.784
52904W        W21122  31.900  44.792  12.889
52905W        W21123  33.810   3.715  12.997
52906W        W21124  26.567  17.453   3.591
52907W        W21125   2.731  18.771   4.343
52908W        W21126  28.947   3.910  13.351
52909W        W21127  37.615  22.447   1.998
52910W        W21128   5.364  32.124  13.056
52911W        W21129  14.502  24.972  10.566
52912W        W21130   4.271  34.764  14.055
52913W        W21131  38.091  17.253   4.688
52914W        W21132  39.931  35.771  14.776
52915W        W21133  34.276  37.393  13.804
52916W        W21134  37.471  25.540  14.463
52917W        W21135  38.348  32.405  14.009
52918W        W21136  14.350  43.429   0.048
52919W        W21137  40.765  38.271   1.261
52920W        W21138   0.248  29.609   2.313
52921W        W21139  25.555   6.446   2.908
52922W        W21140   3.353  37.651  11.424
52923W        W21141  16.172  43.514   0.736
52924W        W21142   6.354  27.607   0.986
52925W        W21143  13.578  40.971   0.759
52926W        W21144   1.272   6.197   0.696
52927W        W21145  33.137  17.849  13.700
52928W        W21146  26.969  33.578   2.210
52929W        W21147  23.200  44.772  14.868
52930W        W21148   9.087  37.019  12.895
52931W        W21149  16.320  24.880   5.016
52932W        W21150  35.614  28.131  13.378
52933W        W21151  22.052  17.673   1.222
52934W        W21152   0.388  22.560  12.764
52935W        W21153  22.011  37.384  10.935
52936W        W21154  33.768  42.957  10.993
52937W        W21155  32.148  15.759  11.545
52938W        W21156   7.992  28.135  12.397
52939W        W21157  17.340  24.459  11.572
52940W        W21158  29.804  42.078  13.001
52941W        W21159   4.174  23.418  14.318
52942W        W21160  15.727   1.347   4.058
52943W        W21161  32.496   5.549   2.261
52944W        W21162   0.800   5.350   4.858
52945W        W21163  35.127   2.975   0.572
52946W        W21164  19.618   4.457   2.381
52947W        W21165  21.979   1.884  13.844
52948W        W21166  36.828   7.135  12.503
52949W        W21167  19.408  28.011   0.408
52950W        W21168  33.986  12.658   3.887
52951W        W21169  10.319   5.968   0.261
52952W        W21170  39.439  20.628  11.902
52953W        W21171  33.920  39.242  12.552
52954W        W21172  28.174  14.255   0.372
52955W        W21173  20.588  28.954   0.739
52956W        W21174  29.082  37.889   1.712
52957W        W21175  37.246  12.444   1.832
52958W        W21176   6.446  26.529   5.036
52959W        W21177  27.690   6.012  13.524
52960W        W21178   3.418  10.311   4.232
52961W        W21179  16.082  29.902   1.504
52962W        W21180   7.365  36.388   2.780
52963W        W21181  13.637  16.868   1.835
52964W        W21182   3.305  16.599  14.430
52965W        W21183  31.731  44.549   0.355
52966W        W21184  22.018   3.229  11.464
52967W        W21185   1.995  32.174  13.825
52968W        W21186  17.312   8.770  13.472
52969W        W21187  39.889  11.498   1.301
52970W        W21188  28.947  22.449   4.310
52971W        W21189  30.664  35.210  10.640
52972W        W21190  44.269   5.342  13.093
52973W        W21191  41.062  20.557   1.790
52974W        W21192   1.394  18.102  12.488
52975W        W21193  11.210  41.688   1.324
52976W        W21194  39.881  21.604   2.700
52977W        W21195   1.209  11.546  14.859
52978W        W21196  15.623  34.104  11.504
52979W        W21197  21.212  43.096   1.357
52980W        W21198  44.771   4.794   1.330
52981W        W21199  18.068   1.670   2.753
52982W        W21200   5.609  42.542   1.935
52983W        W21201  36.313  15.439  13.432
52984W        W21202  23.163   5.610  10.983
52985W        W21203   8.097   1.688  12.998
52986W        W21204  26.178  11.087   1.386
52987W        W21205   3.884  10.387   4.052
52988W        W21206   1.011  43.955  10.419
52989W        W21207  28.528   2.348  12.303
52990W        W21208  17.387   1.056   1.800
52991W        W21209  28.999  17.067  10.744
52992W        W21210   3.800   6.334   2.373
52993W        W21211  26.038   6.532  12.398
52994W        W21212  19.054  43.029  10.710
52995W        W21213  16.768  31.961   2.352
52996W        W21214  10.040  30.558  14.379
52997W        W21215  11.799  28.892  11.573
52998W        W21216  35.808   1.155   2.328
52999W        W21217  42.094  43.318   1.314
53000W        W21218  13.342  19.168  14.462
53001W        W21219  38.632  42.840   4.594
53002W        W21220   2.424  16.307   2.435
53003W        W21221  34.595   3.288  14.275
53004W        W21222  28.244  20.341  13.877
53005W        W21223   8.935  28.467  13.857
53006W        W21224   3.799   8.137   0.410
53007W        W21225   6.988  44.545  12.856
53008W        W21226  19.035   1.954   1.120
53009W        W21227   4.331  10.463  14.095
53010W        W21228   6.881  33.094   2.402
53011W        W21229  11.721  11.687  12.962
53012W        W21230  17.070  33.799   4.863
53013W        W21231   6.803  24.757   4.993
53014W        W21232  38.472  10.511   1.695
53015W        W21233  28.696  42.840   2.390
53016W        W21234  25.187  19.279   0.876
53017W        W21235   3.637  27.915   2.646
53018W        W21236  34.539  29.609  11.982
53019W        W21237  11.482  15.255  14.686
53020W        W21238  18.200  40.544  11.602
53021W        W21239   0.449  33.227   3.621
53022W        W21240  21.026  39.341   0.840
53023W        W21241  38.942  33.190   3.737
53024W        W21242   5.285  11.275  12.324
53025W        W21243  17.219   6.146  14.478
53026W        W21244  27.585  12.604  13.550
53027W        W21245   8.600  28.736  14.207
53028W        W21246  15.834  27.618  13.282
53029W        W21247  18.533  26.986  12.656
53030W        W21248  35.827  21.388  12.986
53031W        W21249  37.340  26.015   3.253
53032W        W21250   1.050   0.261  14.120
53033W        W21251  19.756  24.181   4.087
53034W        W21252  43.848  41.147  13.993
53035W        W21253  38.563  28.481  13.906
53036W        W21254  12.150   0.198  11.063
53037W        W21255  10.249  38.585   4.108
53038W        W21256  36.237  23.717  10.571
53039W        W21257  26.757  44.829   0.720
53040W        W21258  30.100   8.655   2.621
53041W        W21259  36.981  32.897  12.496
53042W        W21260  11.508  36.498  11.521
53043W        W21261  35.403  20.219  13.438
53044W        W21262  34.436   3.087   9.541
53045W        W21263  26.065  31.153   0.242
53046W        W21264   3.894  15.206   3.293
53047W        W21265  42.894  29.992   3.062
53048W        W21266  35.417   7.780   4.054
53049W        W21267   2.064  18.747  10.656
53050W        W21268  22.446  19.023  14.241
53051W        W21269  22.472  30.471   0.838
53052W        W21270  16.818  23.097  12.958
53053W        W21271  37.018  30.998   2.850
53054W        W21272  44.815  29.283  12.924
53055W        W21273  41.767   6.749  11.203
53056W        W21274  16.159  12.046  13.810
53057W        W21275  35.424  27.724   0.353
53058W        W21276  20.045  43.570  12.078
53059W        W21277  39.129  11.711  13.825
53060W        W21278   0.729  17.611   2.686
53061W        W21279  37.059  28.837   9.986
53062W        W21280  37.642   6.461   0.417
53063W        W21281   9.177   9.811  12.636
53064W        W21282  19.495  37.965  11.005
53065W        W21283  27.439  32.629   2.345
53066W        W21284  39.557  10.907   2.688
53067W        W21285  17.863  14.872   2.217
53068W        W21286   8.338  25.700  12.488
53069W        W21287  33.994  42.325  11.557
53070W        W21288  41.040   5.644  12.981
53071W        W21289  27.907   6.766  14.554
53072W        W21290  35.236  15.531   1.301
53073W        W21291  17.302  35.568   2.211
53074W        W21292  38.057  35.281   1.340
53075W        W21293  12.212   6.225   0.637
53076W        W21294  20.735  20.851   2.811
53077W        W21295  10.390  16.705  11.550
53078W        W21296  16.468  35.861   4.706
53079W        W21297   6.872   6.860  13.851
53080W        W21298   3.153  14.990   0.352
53081W        W21299  33.581   6.324  10.499
53082W        W21300   2.286   8.203  13.015
53083W        W21301  39.817  25.201  13.135
53084W        W21302   1.832  21.855  11.536
53085W        W21303   3.687  12.861   1.257
53086W        W21304   8.892  28.675  12.320
53087W        W21305  38.963  37.433   1.890
53088W        W21306  20.789  17.102   1.827
53089W        W21307  26.079  44.694   3.299
53090W        W21308   1.318  29.695   5.066
53091W        W21309  19.291  27.612   1.407
53092W        W21310  22.655  16.083  10.970
53093W        W21311  28.043  10.127   2.404
53094W        W21312  20.071   7.223   3.231
53095W        W21313  38.443  14.719   4.702
53096W        W21314   0.075   4.871  12.038
53097W        W21315  28.764   7.216   4.299
53098W        W21316  39.223  29.059   3.408
53099W        W21317  42.337   6.758   3.793
53100W        W21318  41.364   8.205   3.763
53101W        W21319  29.818  30.567  12.108
53102W        W21320  28.428  41.712  12.414
53103W        W21321   8.414  44.504   3.339
53104W        W21322   9.270  29.302   2.933
53105W        W21323  42.056  27.403  12.978
53106W        W21324   5.084  29.636  11.982
53107W        W21325  32.958  29.742  10.674
53108W        W21326  20.245   0.367  14.434
53109W        W21327  37.820  14.318  13.340
53110W        W21328  30.033   5.321   2.319
53111W        W21329   9.788  26.061  10.806
53112W        W21330  18.599   3.779  11.231
53113W        W21331  10.654   6.296  12.594
53114W        W21332  14.711   6.303  10.687
53115W        W21333  44.697  14.762  12.464
53116W        W21334  17.693  36.399   4.480
53117W        W21335  14.797  15.689   4.909
53118W        W21336  11.881   4.121  14.093
53119W        W21337  18.141  13.261   0.515
53120W        W21338  17.321  34.059  12.354
53121W        W21339  34.797  20.083   3.092
53122W        W21340   4.186   1.921   4.569
53123W        W21341  35.989   7.756   1.240
53124W        W21342   8.510  34.973  14.724
53125W        W21343  23.436  20.130   2.260
53126W        W21344  12.865  10.390   0.788
53127W        W21345   9.773  10.460   1.653
53128W        W21346  36.527  44.514  14.421
53129W        W21347  11.134  17.752   4.565
53130W        W21348  30.726  37.735  13.013
53131W        W21349  21.503  30.497   1.454
53132W        W21350  42.169  41.352  11.876
53133W        W21351  15.897  36.882   3.210
53134W        W21352   5.522  17.852   3.277
53135W        W21353  44.899  35.712   3.749
53136W        W21354  39.826  39.125   1.404
53137W        W21355  16.999  20.025  13.455
53138W        W21356  16.114  28.681   1.168
53139W        W21357  12.830   4.178  13.509
53140W        W21358  19.426  38.279  14.107
53141W        W21359  12.411  43.311  14.809
53142W        W21360  20.185  32.414  13.288
53143W        W21361  42.870  42.381   4.521
53144W        W21362  15.526  29.261   4.857
53145W        W21363  38.126  18.279  11.200
53146W        W21364  17.753   3.420   3.594
53147W        W21365   7.404   5.730  12.591
53148W        W21366  25.928  20.181   4.543
53149W        W21367   7.630   0.317   4.146
53150W        W21368   6.088  18.111   3.110
53151W        W21369   0.712  14.636  11.020
53152W        W21370  38.032   8.621  10.755
53153W        W21371  14.114   2.861  13.092
53154W        W21372  21.313  25.732  10.686
53155W        W21373  34.974  18.234  12.430
53156W        W21374   9.030  30.577  12.413
53157W        W21375   7.503  15.683  11.250
53158W        W21376   6.373  20.839   0.449
53159W        W21377  31.526  28.359   2.433
53160W        W21378  12.501  13.749  14.985
53161W        W21379  39.618   9.659  14.272
53162W        W21380  43.863  25.268   1.521
53163W        W21381  20.253  31.458  14.271
53164W        W21382  20.507  17.322  14.846
53165W        W21383  10.152  35.634   3.158
53166W        W21384  44.424  34.399   3.346
53167W        W21385  32.142  35.045  12.481
53168W        W21386  12.005  40.000  12.826
53169W        W21387   9.204  31.600   3.371
53170W        W21388  29.938  28.557  11.502
53171W        W21389  31.625  12.176   4.815
53172W        W21390  12.555  18.091  14.455
53173W        W21391  15.558   2.758  13.462
53174W        W21392   0.248  29.009  14.285
53175W        W21393   1.377   7.194   4.884
53176W        W21394  28.174   2.691   0.959
53177W        W21395  28.907  19.852   0.171
53178W        W21396  22.176  26.203  12.839
53179W        W21397  23.749   5.794   3.276
53180W        W21398   5.157  23.676   0.442
53181W        W21399  26.879  30.033  13.354
53182W        W21400   9.156  40.464   3.142
53183W        W21401  25.738   4.223   3.074
53184W        W21402   9.449  34.128   0.285
53185W        W21403  11.799  10.887   3.034
53186W        W21404   4.384  32.381   0.897
53187W        W21405   3.179  21.244   1.229
53188W        W21406  35.919  22.676  12.937
53189W        W21407  20.701  44.338  10.838
53190W        W21408  18.091  20.721   2.214
53191W        W21409   8.273  38.756   3.594
53192W        W21410  42.870  17.787   3.882
53193W        W21411  38.568  43.685   0.874
53194W        W21412  24.470  39.077  13.911
53195W        W21413  10.798  10.984  14.754
53196W        W21414   2.317  27.877   4.734
53197W        W21415  22.245   3.063   2.902
53198W        W21416  20.270  23.433   0.282
53199W        W21417  22.559  12.060   1.473
53200W        W21418  11.842  36.130   2.364
53201W        W21419  36.094  41.783   4.130
53202W        W21420  20.641   6.727  10.751
53203W        W21421  23.694  29.370  12.899
53204W        W21422  18.487   0.267  12.236
53205W        W21423   0.291  42.762  10.676
53206W        W21424  14.478  10.126   4.885
53207W        W21425   3.674   9.626   2.271
53208W        W21426  14.133  27.430   2.396
53209W        W21427  40.003   6.407   3.309
53210W        W21428   8.914  36.329  12.391
53211W        W21429  41.543  21.602   0.435
53212W        W21430  23.939   0.823  11.524
53213W        W21431  36.494  44.897  11.424
53214W        W21432   0.989  19.739  10.807
53215W        W21433  10.224  41.309   0.565
53216W        W21434  15.693  23.539  11.735
53217W        W21435  26.035  29.396   3.698
53218W        W21436  30.177   1.823  10.055
53219W        W21437  11.614  14.601   0.557
53220W        W21438  22.094  24.247   3.040
53221W        W21439  26.100  37.939   2.340
53222W        W21440  28.538  22.864   1.349
53223W        W21441  30.945  24.888  10.512
53224W        W21442  38.988  25.456   1.216
53225W        W21443  19.464  22.291  12.951
53226W        W21444  20.054  20.304   1.291
53227W        W21445  33.825  28.426   3.626
53228W        W21446  17.681  13.463   0.501
53229W        W21447   5.748  28.503  14.004
53230W        W21448  10.881  43.806  11.969
53231W        W21449   5.676  20.649  14.097
53232W        W21450  26.265  12.627   3.200
53233W        W21451  44.291  27.524  11.470
53234W        W21452   9.345  36.377  10.358
53235W        W21453  32.446  23.905   3.628
53236W        W21454   3.233   7.704   4.622
53237W        W21455  22.013  10.250  12.855
53238W        W21456  39.450  21.683  11.738
53239W        W21457  35.453  29.727  13.612
53240W        W21458  36.792   3.840   2.331
53241W        W21459  33.933  23.040  10.495
53242W        W21460  23.759  12.522  11.502
53243W        W21461   5.994  15.778  13.889
53244W        W21462  40.430  11.373  10.497
53245W        W21463  15.698  23.644  14.096
53246W        W21464  16.642  22.754  13.347
53247W        W21465  36.454  13.944   2.176
53248W        W21466   2.967   4.994   0.830
53249W        W21467  18.005  29.830   1.644
53250W        W21468  33.674  16.564   0.098
53251W        W21469  15.311  16.290   4.431
53252W        W21470   8.241   3.880  13.948
53253W        W21471  29.172   4.337  12.045
53254W        W21472  41.855  38.421   2.275
53255W        W21473   4.981  21.539   4.125
53256W        W21474  34.673   6.329   0.306
53257W        W21475  40.941  14.983  13.938
53258W        W21476  31.234  27.487  13.803
53259W        W21477  29.865   3.316  10.003
53260W        W21478  29.434  15.248  12.371
53261W        W21479  19.695  10.032   2.130
53262W        W21480  30.513  34.490   1.729
53263W        W21481  37.545  30.879   2.781
53264W        W21482   0.081  33.566  13.412
53265W        W21483  41.185  43.374   4.215
53266W        W21484  38.037  27.642   2.050
53267W        W21485  29.934  16.932  12.463
53268W        W21486   1.029  30.811   3.152
53269W        W21487  23.483   9.886  14.435
53270W        W21488  43.992  32.149   3.745
53271W        W21489  29.942  35.109   0.839
53272W        W21490   2.830  18.126   2.481
53273W        W21491  23.368  29.029   3.553
53274W        W21492  39.415  34.977   4.102
53275W        W21493   5.742   2.800   3.263
53276W        W21494  21.207  26.070  13.780
53277W        W21495  34.962  30.523  14.886
53278W        W21496  32.397   9.820  12.038
53279W        W21497  13.845  37.585  10.608
53280W        W21498  37.078   3.582  12.911
53281W        W21499   9.165  36.751   0.340
53282W        W21500  13.816   9.387   1.038
53283W        W21501  20.978  14.636  12.479
53284W        W21502  40.553  27.968  14.193
53285W        W21503   7.117  15.723  12.495
53286W        W21504  17.073  37.327  14.513
53287W        W21505  37.908  27.457   2.504
53288W        W21506  43.083  32.535  11.993
53289W        W21507  21.377  11.488   0.380
53290W        W21508  30.361  16.752  10.152
53291W        W21509  17.292  21.739  11.180
53292W        W21510  38.539  17.935  11.022
53293W        W21511  39.412  16.700  13.344
53294W        W21512   9.374   5.962  10.904
53295W        W21513  33.467  21.022  10.750
53296W        W21514  34.481  20.697   2.699
53297W        W21515   6.661  20.120   4.322
53298W        W21516  13.621   7.640   3.337
53299W        W21517  24.793   9.757   1.347
53300W        W21518   3.083  12.185   1.208
53301W        W21519   6.925   0.090   4.603
53302W        W21520  27.622   3.918   1.274
53303W        W21521   8.317  11.193  14.806
53304W        W21522  39.527  43.020  14.475
53305W        W21523  31.080  19.787  10.392
53306W        W21524  23.177  25.961   2.348
53307W        W21525  26.843   4.702   0.286
53308W        W21526   2.767  31.978  12.586
53309W        W21527  42.388  22.647  10.398
53310W        W21528  22.798  44.461   0.018
53311W        W21529   7.652  27.219  14.407
53312W        W21530  38.554  34.851  10.637
53313W        W21531   1.209  22.814  14.076
53314W        W21532  27.427  25.278  11.850
53315W        W21533   8.169   6.896  14.345
53316W        W21534  20.810  32.757   4.036
53317W        W21535  40.262  36.865   1.384
53318W        W21536  41.298  22.106  12.911
53319W        W21537  28.406  42.588   0.924
53320W        W21538  15.817   6.421   0.783
53321W        W21539   9.698  37.889   0.906
53322W        W21540  15.316   9.353   3.800
53323W        W21541  43.958  44.001   3.411
53324W        W21542   7.914   4.155   2.390
53325W        W21543  12.201  32.022  13.980
53326W        W21544   8.203   4.887  14.850
53327W        W21545   7.967  10.402   0.079
53328W        W21546  26.288  15.214  14.955
53329W        W21547   5.454   2.049  11.199
53330W        W21548  44.008  32.226   2.072
53331W        W21549  11.112  24.093   2.737
53332W        W21550  32.523  24.410   3.648
53333W        W21551  21.315  21.970  11.956
53334W        W21552  36.498  20.572   1.441
53335W        W21553   6.827  40.819   0.423
53336W        W21554  36.431  33.149  14.758
53337W        W21555  18.486  28.997  13.063
53338W        W21556  44.141  14.470  13.293
53339W        W21557  26.735  30.960  11.218
53340W        W21558  25.694  34.457  10.761
53341W        W21559   3.159  29.008   1.786
53342W        W21560  11.826  33.577  10.440
53343W        W21561  41.427  33.388  10.651
53344W        W21562  14.383  21.700   3.619
53345W        W21563  22.621  37.829   1.106
53346W        W21564  30.712  35.143   2.161
53347W        W21565   1.773  33.235   0.878
53348W        W21566  22.265  42.764   1.456
53349W        W21567  21.250   4.433  10.614
53350W        W21568  12.391  35.921  13.406
53351W        W21569  40.304   5.674   4.045
53352W        W21570  35.875  31.919   1.008
53353W        W21571  20.670  15.223   3.855
53354W        W21572  29.410  11.842   1.821
53355W        W21573  15.125  29.651   1.514
53356W        W21574  43.717   5.287   0.581
53357W        W21575  25.917   4.312   1.043
53358W        W21576  21.967  42.405  11.220
53359W        W21577  22.791  33.604   1.246
53360W        W21578  31.502   7.512   3.395
53361W        W21579  22.680   3.305  13.358
53362W        W21580  13.841   8.601   3.200
53363W        W21581  19.857   7.673  14.381
53364W        W21582  37.052  31.405  13.062
53365W        W21583  21.338  19.687  14.861
53366W        W21584  24.482  40.729  11.913
53367W        W21585   7.493  21.435   4.158
53368W        W21586  32.486   9.462  10.473
53369W        W21587  21.792  44.929  11.256
53370W        W21588  31.696  12.121  12.094
53371W        W21589  37.580   2.105   0.923
53372W        W21590  35.845   2.910  13.524
53373W        W21591   8.315  12.021   0.389
53374W        W21592   9.729  24.822  12.040
53375W        W21593  22.022  35.937  14.314
53376W        W21594   7.263  22.745   2.205
53377W        W21595   5.398   3.639  11.774
53378W        W21596  16.758  22.087   1.278
53379W        W21597  19.328   6.299   2.805
53380W        W21598  42.611  43.016  11.650
53381W        W21599  13.802  40.394   1.888
53382W        W21600  39.430  11.887  12.164
53383W        W21601  42.040  33.969  14.695
53384W        W21602  17.557  43.343   2.889
53385W        W21603  30.493  20.607  12.438
53386W        W21604  32.492  43.104   4.627
53387W        W21605  13.006  13.579  14.906
53388W        W21606  34.838   5.955  13.023
53389W        W21607   4.720  41.167  10.965
53390W        W21608  43.709   8.891   2.835
53391W        W21609   6.263  35.582   0.291
53392W        W21610  28.674  14.186  11.122
53393W        W21611  13.891  27.284  11.291
53394W        W21612  41.958  32.112  10.651
53395W        W21613  36.015  28.892  10.071
53396W        W21614  25.522  43.642   2.936
53397W        W21615  42.392  36.946  13.780
53398W        W21616  16.729  25.046   4.711
53399W        W21617  34.034  14.883  13.310
53400W        W21618  32.537  44.097   4.570
53401W        W21619  39.436  15.542   1.380
53402W        W21620  26.955  27.683   4.644
53403W        W21621  23.053   9.814   2.266
53404W        W21622   6.692  24.716   3.317
53405W        W21623  16.169   5.121   0.884
53406W        W21624  40.550  37.318   1.442
53407W        W21625  14.121  30.887  14.298
53408W        W21626   3.786  15.793  10.959
53409W        W21627   7.118  39.822   5.099
53410W        W21628  14.689   3.350  14.539
53411W        W21629  39.946  26.211   2.283
53412W        W21630   5.466   7.854   3.196
53413W        W21631  35.997  20.492  11.089
53414W        W21632  20.699  25.436  11.110
53415W        W21633   5.387  16.190  12.346
53416W        W21634  21.617  18.666   2.630
53417W        W21635  29.886   3.462  13.612
53418W        W21636  37.517   3.291  12.246
53419W        W21637   7.587  28.961   1.822
53420W        W21638  27.695  36.114   1.391
53421W        W21639  32.127  14.776  12.459
53422W        W21640  36.831   1.720   1.456
53423W        W21641  13.428  43.563   5.222
53424W        W21642  16.308  10.249   2.701
53425W        W21643  39.007   7.651  14.384
53426W        W21644   5.347   8.614   2.799
53427W        W21645  29.097  25.476  10.365
53428W        W21646  29.556  24.257  10.741
53429W        W21647  21.986  35.834   3.565
53430W        W21648   9.877  26.485   4.728
53431W        W21649  17.051  11.034  11.937
53432W        W21650  10.974  26.166  11.919
53433W        W21651   0.774   7.459  13.373
53434W        W21652   1.039   5.877   4.222
53435W        W21653   4.383  44.564  11.580
53436W        W21654  17.588  44.552   3.241
53437W        W21655  17.967   2.281  11.212
53438W        W21656  17.517  20.111  13.462
53439W        W21657  17.847  23.133  12.867
53440W        W21658  39.015   3.373   3.348
53441W        W21659  14.882   5.332  12.100
53442W        W21660  14.119  42.575  12.443
53443W        W21661  29.685  15.854   4.094
53444W        W21662  23.937  26.871   1.282
53445W        W21663  39.041  37.408   3.478
53446W        W21664  24.838  34.540  11.035
53447W        W21665  43.538  21.102  10.682
53448W        W21666  28.625  33.377   3.701
53449W        W21667  19.004  11.588   4.231
53450W        W21668  37.953  28.888  12.011
53451W        W21669  44.324  27.076   9.913
53452W        W21670  40.248  14.597   2.195
53453W        W21671  26.044  39.432  10.695
53454W        W21672  27.099   9.300  10.765
53455W        W21673   4.769  40.303  13.199
53456W        W21674  22.634  42.364   4.745
53457W        W21675  28.805  21.493  11.033
53458W        W21676  16.845   8.964  13.408
53459W        W21677  34.933  25.121  13.192
53460W        W21678   2.219  17.848  13.017
53461W        W21679   9.175  10.104  14.200
53462W        W21680  28.223   0.425   4.695
53463W        W21681   3.468  31.982   2.727
53464W        W21682  43.019  15.013  10.965
53465W        W21683   4.265  13.164   0.631
53466W        W21684   2.501  10.840  11.894
53467W        W21685  17.413  18.910   2.257
53468W        W21686  16.816  13.174   5.430
53469W        W21687  19.825  16.603   3.216
53470W        W21688  39.829   1.288  10.133
53471W        W21689  13.680  13.638  14.903
53472W        W21690  31.089  44.013  10.059
53473W        W21691  44.298  33.996   5.415
53474W        W21692  41.857  38.031  12.110
53475W        W21693  37.921  16.809   4.487
53476W        W21694  27.663   1.390  11.982
53477W        W21695  19.157  19.115  13.122
53478W        W21696  41.943  39.427  12.982
53479W        W21697  26.206  41.496   4.488
53480W        W21698  23.988  23.453   1.221
53481W        W21699  20.100  21.834   1.335
53482W        W21700  43.026   3.894   1.283
53483W        W21701   9.659   3.574   3.815
53484W        W21702  13.678  27.641   0.735
53485W        W21703  41.400   3.150  13.324
53486W        W21704   0.317  30.677  10.613
53487W        W21705  11.651   1.246   2.695
53488W        W21706  14.039  29.622   4.027
53489W        W21707  14.484  29.203  12.506
53490W        W21708  34.363  13.412  11.536
53491W        W21709  14.125  14.103  10.710
53492W        W21710   1.240   5.280   2.605
53493W        W21711   5.593  44.214  11.057
53494W        W21712  17.012  36.577   3.131
53495W        W21713  37.265  32.933  11.198
53496W        W21714  33.564   3.209  10.978
53497W        W21715  11.339  16.733   1.684
53498W        W21716  18.586   9.725  11.057
53499W        W21717  44.890   5.521   3.415
53500W        W21718  12.640  20.284  10.834
53501W        W21719  17.176  18.798   4.062
53502W        W21720  22.295  23.605   0.873
53503W        W21721  39.356  39.786   1.918
53504W        W21722   4.948  44.002  12.391
53505W        W21723  19.969  39.012  11.610
53506W        W21724  30.064  31.370  12.331
53507W        W21725  37.580  28.906   0.422
53508W        W21726  10.121  21.878  10.047
53509W        W21727  37.500  34.833   1.848
53510W        W21728  22.512  36.109   4.096
53511W        W21729  11.634   0.345   4.649
53512W        W21730  19.813  39.371   4.720
53513W        W21731  36.472  44.691   4.535
53514W        W21732   8.807   6.418   4.120
53515W        W21733  11.902  19.182  12.194
53516W        W21734  25.645  12.848   1.419
53517W        W21735  12.014  25.876  12.034
53518W        W21736  40.090  41.543  13.981
53519W        W21737   8.825  44.346  13.809
53520W        W21738  19.812  38.390   1.907
53521W        W21739   4.711  34.434   2.194
53522W        W21740   6.256  21.067   4.019
53523W        W21741  13.288  28.396  14.968
53524W        W21742  41.469  10.247   4.621
53525W        W21743  28.069  16.343   3.610
53526W        W21744  29.465  22.978   4.099
53527W        W21745  37.662  28.642   3.158
53528W        W21746  29.485  39.895   4.573
53529W        W21747  41.453  27.549  14.514
53530W        W21748   5.438  42.701  11.035
53531W        W21749  20.971   2.828   1.431
53532W        W21750  30.600  30.221   0.896
53533W        W21751  27.646   6.734  11.803
53534W        W21752   0.793  13.946   3.546
53535W        W21753  20.938  35.333  13.039
53536W        W21754  27.932  13.190  10.782
53537W        W21755   7.121   2.234  12.522
53538W        W21756  21.286  24.339   2.916
53539W        W21757  34.540   5.590   2.257
53540W        W21758  18.771  33.005   4.064
53541W        W21759   4.293  33.350  14.043
53542W        W21760   9.943  14.727   4.622
53543W        W21761  34.870   9.227  13.484
53544W        W21762  35.808  30.002   3.116
53545W        W21763   0.011  10.222  12.247
53546W        W21764  39.828  24.672   2.945
53547W        W21765  44.873   0.783  10.324
53548W        W21766  22.033  44.483  14.253
53549W        W21767  38.418   8.573   3.262
53550W        W21768  32.958   1.878  14.212
53551W        W21769  37.612  40.963  12.164
53552W        W21770  32.173  42.040   1.226
53553W        W21771  25.698  21.094  14.796
53554W        W21772  38.667  41.460   4.835
53555W        W21773   1.242  32.872   0.390
53556W        W21774  19.712   2.628  11.722
53557W        W21775  41.728  31.617  14.293
53558W        W21776  25.956  42.527  10.773
53559W        W21777   0.463  32.164   4.356
53560W        W21778   0.456  11.606  13.062
53561W        W21779  18.548  42.053   3.428
53562W        W21780  24.543  20.672  10.687
53563W        W21781  38.599  25.747   2.105
53564W        W21782   3.662  24.088   0.537
53565W        W21783  26.886  12.216   2.343
53566W        W21784  25.251  11.696  10.661
53567W        W21785  24.917  36.892  12.933
53568W        W21786  18.934   1.555  10.409
53569W        W21787  12.768  14.019   3.162
53570W        W21788  21.217   7.762  13.051
53571W        W21789  17.847  10.620  13.896
53572W        W21790   6.787  31.142   1.206
53573W        W21791  18.984   9.813   0.814
53574W        W21792  15.828  22.544   1.315
53575W        W21793  34.474  42.920   5.027
53576W        W21794  21.763  40.369  12.104
53577W        W21795  10.371  44.918  14.089
53578W        W21796  11.389  27.159  13.088
53579W        W21797  31.167  34.188  14.976
53580W        W21798  12.397  27.992  13.834
53581W        W21799   2.889  21.432  13.983
53582W        W21800  21.782   2.477   1.354
53583W        W21801  19.969  38.936   3.340
53584W        W21802   6.295   5.721   9.575
53585W        W21803   3.275  30.833  14.072
53586W        W21804  30.546  30.565   0.192
53587W        W21805   9.318  37.095  14.275
53588W        W21806  26.800  17.168   4.591
53589W        W21807  10.854  23.114  10.412
53590W        W21808  44.636  33.927   4.865
53591W        W21809  30.560  15.282   4.147
53592W        W21810   4.953   6.910  13.884
53593W        W21811   7.794  15.286   0.622
53594W        W21812  24.765  34.103   0.848
53595W        W21813  12.794  27.452   1.718
53596W        W21814  17.301  35.328  10.764
53597W        W21815   6.368  16.551  12.987
53598W        W21816  32.970  18.830   4.851
53599W        W21817  36.811  26.653  11.832
53600W        W21818  20.751  31.961   0.206
53601W        W21819  20.049  28.391   1.804
53602W        W21820  24.062  34.525   3.771
53603W        W21821  36.999  30.210  11.598
53604W        W21822   1.467  43.386   1.900
53605W        W21823  43.026  27.134   2.817
53606W        W21824  36.098  33.375   1.644
53607W        W21825  35.298  39.336  12.959
53608W        W21826  29.611  16.236   1.245
53609W        W21827  33.674  38.406  13.816
53610W        W21828  25.656  37.339  11.644
53611W        W21829  29.038  20.889   3.153
53612W        W21830  16.285  17.257  12.293
53613W        W21831  23.223  39.726   1.755
53614W        W21832   9.245  39.900  12.893
53615W        W21833   1.008  38.908   1.369
53616W        W21834  24.542  43.452   2.553
53617W        W21835  20.538  26.982  14.179
53618W        W21836  35.479  36.601  12.680
53619W        W21837  11.065  29.570   3.368
53620W        W21838   6.772  36.842  12.624
53621W        W21839  38.537  37.907   4.417
53622W        W21840  30.597  27.013  14.238
53623W        W21841  24.467  34.548   0.824
53624W        W21842  36.057   4.426  10.773
53625W        W21843  17.566  39.090   0.916
53626W        W21844  28.551  37.589   3.085
53627W        W21845  24.244  12.519  13.468
53628W        W21846  42.529   8.108  14.484
53629W        W21847  41.263  24.573   1.406
53630W        W21848  40.041   2.649  12.113
53631W        W21849  25.562  24.388  14.392
53632W        W21850  17.472  30.076   0.135
53633W        W21851  20.545  13.118   0.702
53634W        W21852   3.710  29.380   1.388
53635W        W21853  31.690  31.946   2.134
53636W        W21854  37.610  32.114   4.561
53637W        W21855  37.582  16.699  12.507
53638W        W21856  40.167  28.781   0.504
53639W        W21857  17.130  11.325  12.800
53640W        W21858  42.529  16.775   0.102
53641W        W21859  32.306  41.754   4.255
53642W        W21860  34.995  37.034   0.839
53643W        W21861  14.299   0.317   4.272
53644W        W21862   8.155  34.578  13.299
53645W        W21863  34.472  25.571  11.970
53646W        W21864  24.156   4.492  13.426
53647W        W21865  32.556  19.873   0.073
53648W        W21866   6.051  21.778   2.670
53649W        W21867  36.687  13.280  11.105
53650W        W21868  24.743   7.793   4.678
53651W        W21869  23.867  27.608  14.438
53652W        W21870   2.669  41.858  12.530
53653W        W21871  30.803  20.690   3.508
53654W        W21872  29.353   5.516  14.977
53655W        W21873  12.146  42.735  13.489
53656W        W21874  24.048  10.956   3.279
53657W        W21875  33.643  16.644   4.630
53658W        W21876   1.979  14.818   2.861
53659W        W21877  34.456   7.924  14.584
53660W        W21878  42.714  21.800  14.132
53661W        W21879  36.992  26.194   0.522
53662W        W21880   9.709  18.676  12.475
53663W        W21881  35.340  12.390  13.387
53664W        W21882  11.855  23.736   0.779
53665W        W21883   2.917  14.699   2.161
53666W        W21884   3.396  14.300  14.980
53667W        W21885  11.588   2.861   4.401
53668W        W21886  23.111  15.565   4.261
53669W        W21887  29.701   8.678  12.467
53670W        W21888  36.561  36.095  13.158
53671W        W21889  41.556  26.471   1.992
53672W        W21890   6.317  23.226  11.013
53673W        W21891  30.617   5.619  10.573
53674W        W21892  35.536  19.596  12.010
53675W        W21893  34.118   2.238   2.292
53676W        W21894  39.405  30.432   4.554
53677W        W21895   9.234  23.862  11.112
53678W        W21896  36.607  15.325   4.084
53679W        W21897  24.885  26.671   0.147
53680W        W21898  20.533  38.072   3.260
53681W        W21899  42.683  18.359   4.861
53682W        W21900  41.599  35.435  11.658
53683W        W21901   1.750  10.845   2.677
53684W        W21902  34.963  30.866   1.413
53685W        W21903  41.080   6.868  10.698
53686W        W21904  12.274  43.495   0.881
53687W        W21905  27.546  15.630   2.379
53688W        W21906   2.662   8.854   0.331
53689W        W21907  30.475  40.096  14.296
53690W        W21908   1.484  19.502   3.918
53691W        W21909  28.947   6.355   4.598
53692W        W21910  21.296  36.005   1.935
53693W        W21911  40.845  33.831   0.850
53694W        W21912  24.603  16.972   0.945
53695W        W21913  14.570  15.663  11.549
53696W        W21914  28.171  43.906   3.985
53697W        W21915  14.715  30.460  12.651
53698W        W21916   4.893  32.091  12.023
53699W        W21917  31.575  15.942   4.825
53700W        W21918  40.583  12.191   2.682
53701W        W21919  39.045  27.765  12.995
53702W        W21920  17.497  33.467   3.582
53703W        W21921  31.897   7.913   1.508
53704W        W21922  40.741  17.365  10.741
53705W        W21923  24.493  37.826   1.409
53706W        W21924  10.671  13.689  14.827
53707W        W21925  42.931  22.331   4.598
53708W        W21926   4.415   4.219   1.196
53709W        W21927  40.857  31.357  12.644
53710W        W21928   2.257  18.782   2.166
53711W        W21929  25.516  27.461   2.953
53712W        W21930  32.497  30.355  13.446
53713W        W21931  27.872  29.226   4.998
53714W        W21932  23.653  25.458   3.140
53715W        W21933   2.839   1.398   0.917
53716W        W21934  43.416  35.393  11.787
53717W        W21935  11.662  10.210   1.810
53718W        W21936  21.832  43.517  13.874
53719W        W21937  33.567   4.555  11.195
53720W        W21938   1.760  24.523  13.477
53721W        W21939   9.416  35.388  12.406
53722W        W21940  25.187  24.603   3.980
53723W        W21941  17.630  13.343  11.067
53724W        W21942  42.466  12.464  10.605
53725W        W21943  16.097  24.126   2.289
53726W        W21944   3.270  44.866  12.809
53727W        W21945  39.008  38.494   3.561
53728W        W21946  16.832  24.627  10.758
53729W        W21947  40.439   3.152  10.950
53730W        W21948  35.874  28.509  12.558
53731W        W21949  18.320  22.699  11.610
53732W        W21950  38.050  20.571  11.272
53733W        W21951   5.474  33.396   3.332
53734W        W21952  22.953   3.536  11.590
53735W        W21953  14.205  43.302   2.654
53736W        W21954  35.850  34.790   3.657
53737W        W21955  41.321  24.173  11.657
53738W        W21956  34.920  20.247  12.024
53739W        W21957  15.583   0.364  13.837
53740W        W21958  31.932   2.357  10.171
53741W        W21959  40.498   9.896   1.029
53742W        W21960  10.054  19.030   3.746
53743W        W21961  15.296  13.649  13.488
53744W        W21962  12.146  18.125  13.582
53745W        W21963  11.831  18.138   2.760
53746W        W21964  13.151  16.796   4.450
53747W        W21965   8.780  34.811   0.237
53748W        W21966  43.492  27.182   4.240
53749W        W21967  36.590  40.037   2.793
53750W        W21968  31.010  40.592   2.651
53751W        W21969  31.436  27.633  13.340
53752W        W21970  14.728  31.094  14.069
53753W        W21971  22.588   2.809   4.588
53754W        W21972  33.959  36.923  13.013
53755W        W21973  25.365   8.339   5.020
53756W        W21974  19.226  25.495   3.813
53757W        W21975  23.225  16.195   4.624
53758W        W21976  20.633  17.412   1.427
53759W        W21977  34.573  15.264  12.854
53760W        W21978  27.030  10.303  13.969
53761W        W21979  36.532  14.082   3.565
53762W        W21980  10.764   4.940  14.794
53763W        W21981  35.350  14.068   4.202
53764W        W21982  41.347  25.104  11.435
53765W        W21983  30.981  30.443  14.945
53766W        W21984  42.860  27.696   0.932
53767W        W21985  31.764  16.179   3.570
53768W        W21986  25.198  43.672   0.816
53769W        W21987  18.553  20.189   2.491
53770W        W21988  26.136  39.373  13.566
53771W        W21989  30.702  29.066  10.695
53772W        W21990  29.492  36.372   0.562
53773W        W21991  36.059  36.656   1.319
53774W        W21992  16.018  18.535  14.485
53775W        W21993  33.971  36.082  10.783
53776W        W21994  15.800  14.706   1.337
53777W        W21995  29.479  13.201   3.675
53778W        W21996  33.312  12.673  10.764
53779W        W21997  10.408  30.605  10.713
53780W        W21998  24.419  22.911   4.524
53781W        W21999  15.005  29.023  11.263
53782W        W22000  32.604  26.473  10.716
53783W        W22001  31.074  38.140   0.301
53784W        W22002   3.946   0.376   4.619
53785W        W22003  11.203  43.353   2.784
53786W        W22004  36.082  11.855   1.444
53787W        W22005  37.913  31.699   4.686
53788W        W22006  29.534  40.341  13.879
53789W        W22007  10.851  44.843   0.311
53790W        W22008   6.382  12.156   3.164
53791W        W22009   8.790  27.006   1.734
53792W        W22010  36.020  10.658  13.520
53793W        W22011  44.305  28.018   3.758
53794W        W22012  44.328  39.064  14.917
53795W        W22013   3.036  24.126  12.649
53796W        W22014  32.199  36.494   2.000
53797W        W22015  13.154  31.841   4.490
53798W        W22016  33.809   0.921  14.411
53799W        W22017   0.153  31.171  12.965
53800W        W22018  21.927  31.622  10.767
53801W        W22019  38.914   4.857  10.525
53802W        W22020   2.245  15.278  10.608
53803W        W22021  21.731  31.802   5.079
53804W        W22022  36.530   1.218  13.119
53805W        W22023  13.722  43.078   1.244
53806W        W22024  44.819  20.565   3.692
53807W        W22025  40.264  24.340   0.745
53808W        W22026  43.172  11.266  11.663
53809W        W22027  32.285   3.825  11.105
53810W        W22028  21.042  27.503   3.291
53811W        W22029  17.582  32.095  12.916
53812W        W22030  17.732   0.713  10.710
53813W        W22031  14.008  29.216  14.889
53814W        W22032   4.475   1.300  11.606
53815W        W22033   4.218  29.778   2.211
53816W        W22034   2.422  10.699  13.689
53817W        W22035  25.973  13.059   3.288
53818W        W22036  29.510  18.526   4.089
53819W        W22037  18.500  21.172  10.864
53820W        W22038  13.897  23.131  12.957
53821W        W22039  10.321  44.926  13.056
53822W        W22040   1.452  24.078   1.872
53823W        W22041  29.597  26.232  12.444
53824W        W22042   7.416   3.496   4.535
53825W        W22043  30.205  10.611   2.862
53826W        W22044  25.714   7.377   3.585
53827W        W22045  27.519  41.910  13.295
53828W        W22046  34.981  38.886  11.653
53829W        W22047  41.603   9.929  10.880
53830W        W22048  20.775   0.193   0.430
53831W        W22049  39.544  21.608   1.287
53832W        W22050  44.465  27.493  11.996
53833W        W22051  18.655  29.765   4.320
53834W        W22052  22.671  38.590  13.564
53835W        W22053  32.191  32.814   3.664
53836W        W22054  43.313  10.719  10.479
53837W        W22055  17.761  42.281  12.150
53838W        W22056   1.384  14.522   3.706
53839W        W22057  41.947  44.531   1.587
53840W        W22058  22.054  15.558  14.042
53841W        W22059  21.677   0.617   3.416
53842W        W22060  23.090   3.150  14.986
53843W        W22061  21.245  22.709  11.430
53844W        W22062  40.383  16.358  13.559
53845W        W22063  40.726  34.799   1.968
53846W        W22064  10.232   7.205  11.428
53847W        W22065  24.169  24.332  10.675
53848W        W22066  19.661   0.308   1.410
53849W        W22067  33.376  42.320   0.478
53850W        W22068  31.343  31.974   0.326
53851W        W22069  13.851  22.628  11.102
53852W        W22070  14.344  37.096  13.986
53853W        W22071  24.541  32.360  13.062
53854W        W22072  11.515  22.895   0.041
53855W        W22073   4.697  40.489   0.299
53856W        W22074  44.004  17.356  10.674
53857W        W22075  36.041   8.789   1.156
53858W        W22076  33.573  24.563   2.881
53859W        W22077  44.200  13.555   1.252
53860W        W22078  27.766  22.053   3.068
53861W        W22079  36.029  36.577   3.108
53862W        W22080  30.839  27.377   3.802
53863W        W22081  18.236  42.920   2.692
53864W        W22082  15.618  38.843  10.782
53865W        W22083  21.614  18.285   4.360
53866W        W22084   2.997  38.896   4.075
53867W        W22085  39.300  27.883  10.712
53868W        W22086  28.028  38.348   4.121
53869W        W22087  14.763   0.414   1.693
53870W        W22088  18.086  27.696   3.468
53871W        W22089   7.600   5.341   2.912
53872W        W22090  23.607  37.757   1.329
53873W        W22091   7.951   3.902   1.730
53874W        W22092   9.744  11.898  11.531
53875W        W22093   4.936  33.104   0.834
53876W        W22094  31.092  15.934   1.719
53877W        W22095  15.696   3.763   3.649
53878W        W22096  28.604  20.996  12.113
53879W        W22097  20.080  22.863   2.684
53880W        W22098  26.976  13.594  12.432
53881W        W22099  24.968  27.940   1.608
53882W        W22100  25.483  39.146  11.558
53883W        W22101  32.083  43.322  12.670
53884W        W22102  20.073  14.392  12.790
53885W        W22103  16.142  11.109  14.008
53886W        W22104  10.833  29.461   0.569
53887W        W22105   8.243  11.661   3.222
53888W        W22106  16.792  10.331  14.087
53889W        W22107  14.750  23.116   4.273
53890W        W22108   6.022   8.649   0.510
53891W        W22109  15.328   2.201   0.248
53892W        W22110  22.175  36.038   1.905
53893W        W22111  43.523  26.913  12.988
53894W        W22112  19.037  10.765  13.558
53895W        W22113  27.582   5.243  14.972
53896W        W22114  22.048  33.438  14.066
53897W        W22115   5.344  38.981   2.178
53898W        W22116  25.613   9.964  12.415
53899W        W22117  16.056  10.170   2.205
53900W        W22118   0.362  25.516  11.314
53901W        W22119  17.559  26.148  13.959
53902W        W22120  38.618  30.661   2.398
53903W        W22121   1.689  39.487  12.013
53904W        W22122  26.181  44.274  12.435
53905W        W22123  38.064   1.486   1.527
53906W        W22124  26.903  25.862  13.030
53907W        W22125  38.507  37.417  11.942
53908W        W22126   5.659   9.728   3.581
53909W        W22127  10.706  23.544  10.680
53910W        W22128  12.164  10.991  10.938
53911W        W22129  13.213   1.012  10.379
53912W        W22130  42.847  16.544  11.106
53913W        W22131  29.166  19.800  12.870
53914W        W22132  10.324  19.080   0.251
53915W        W22133   0.852  31.457  13.544
53916W        W22134  44.325  24.248  14.399
53917W        W22135  39.976  36.859  10.537
53918W        W22136  27.451  11.063   0.344
53919W        W22137  26.220  25.692   3.120
53920W        W22138  19.733  25.384  10.945
53921W        W22139  24.110  38.594   4.132
53922W        W22140  33.180  33.734   3.147
53923W        W22141   0.327  41.630  11.287
53924W        W22142  21.751  36.350   1.989
53925W        W22143  11.617  12.700   0.274
53926W        W22144  18.606  13.304  13.094
53927W        W22145  19.682  36.849  14.702
53928W        W22146  13.807   1.106  13.600
53929W        W22147  36.537   8.419   0.137
53930W        W22148  24.821  29.535   2.227
53931W        W22149  39.529  23.899  14.036
53932W        W22150  16.560   2.162  13.499
53933W        W22151  41.341  41.219   1.447
53934W        W22152   9.723  21.372   3.175
53935W        W22153   2.320  19.628   1.400
53936W        W22154  26.906   7.775  13.776
53937W        W22155  29.890  15.071  12.201
53938W        W22156  44.455  26.444  14.988
53939W        W22157  11.884  23.690  14.964
53940W        W22158  27.956  13.886  12.753
53941W        W22159   2.390  21.106   1.697
53942W        W22160   8.702  25.682   2.759
53943W        W22161  27.123  44.982  14.968
53944W        W22162  39.944  12.699   4.606
53945W        W22163  21.756   1.461  11.246
53946W        W22164   8.408  16.189   4.965
53947W        W22165  32.945  22.744  14.859
53948W        W22166   7.772  33.601   2.016
53949W        W22167  15.872   5.141   4.499
53950W        W22168  16.826   8.788  14.357
53951W        W22169  40.065  22.499   0.921
53952W        W22170  41.900  10.917  11.138
53953W        W22171  25.162   1.786   4.420
53954W        W22172  22.677  22.012  14.332
53955W        W22173   8.857  39.333   0.915
53956W        W22174  32.418  19.729  14.594
53957W        W22175  29.639  40.383   4.030
53958W        W22176  30.306  19.962   0.402
53959W        W22177  44.940  38.126   3.846
53960W        W22178   4.734  22.632   0.461
53961W        W22179  20.514  39.017  13.423
53962W        W22180   2.479   5.885  10.707
53963W        W22181   0.839  13.910   2.948
53964W        W22182  26.919  33.863   1.430
53965W        W22183  17.259   3.381   4.724
53966W        W22184  36.117  30.401  13.315
53967W        W22185  39.963  33.180   2.155
53968W        W22186  13.788  13.306   2.429
53969W        W22187  30.229  39.860  12.092
53970W        W22188  17.289  16.098  11.955
53971W        W22189  26.861  31.472   4.105
53972W        W22190   1.276   8.854   1.220
53973W        W22191  42.943   5.286  11.574
53974W        W22192   1.964   7.451   3.591
53975W        W22193   0.311   4.987   2.647
53976W        W22194  41.880  12.762   3.478
53977W        W22195  35.834  43.243   2.250
53978W        W22196   6.208  26.409   4.539
53979W        W22197   5.157  40.985   3.533
53980W        W22198  21.305  28.781  12.515
53981W        W22199  14.065  34.555  13.160
53982W        W22200  20.790  44.552  13.050
53983W        W22201  36.306  31.865   0.686
53984W        W22202  20.046  19.167   0.926
53985W        W22203  23.943   1.430  12.187
53986W        W22204  10.123  27.574   3.729
53987W        W22205  14.951   1.013  10.830
53988W        W22206  27.225  27.458   1.743
53989W        W22207   0.922  17.392   3.124
53990W        W22208  27.187   1.810  11.440
53991W        W22209  27.376  31.424   1.326
53992W        W22210  19.044  43.487   1.206
53993W        W22211  15.642  33.117  10.218
53994W        W22212  25.065  12.125   1.740
53995W        W22213  12.788  30.016  12.412
53996W        W22214  32.364  18.107   4.780
53997W        W22215   0.731  18.967  13.654
53998W        W22216   9.234  39.477  13.163
53999W        W22217  28.476  34.960   1.907
54000W        W22218  16.769  23.882   4.120
54001W        W22219   9.646  29.560   2.317
54002W        W22220  15.408  26.331   2.859
54003W        W22221  25.454  24.190   2.676
54004W        W22222  36.534  32.941   0.824
54005W        W22223  36.490  16.885  13.019
54006W        W22224   0.785  10.999   1.726
54007W        W22225  20.631  40.767  11.184
54008W        W22226  17.893  26.196  11.927
54009W        W22227  23.513  41.530   4.754
54010W        W22228  10.901  37.447  14.257
54011W        W22229  10.421   7.761  13.921
54012W        W22230  39.027   8.074   2.737
54013W        W22231  22.665  17.546  13.521
54014W        W22232  28.971   7.749   0.366
54015W        W22233   0.855  21.038  12.588
54016W        W22234  33.152  42.586  12.656
54017W        W22235  33.892   5.326   3.693
54018W        W22236  38.603  38.797   4.834
54019W        W22237  25.599   5.525   1.256
54020W        W22238  30.892  18.071   2.311
54021W        W22239   2.306   4.277  10.768
54022W        W22240  43.209  13.974   5.133
54023W        W22241  44.524  10.737   3.383
54024W        W22242  18.324  15.615  14.828
54025W        W22243   4.829  16.694  12.871
54026W        W22244  40.489  38.500  14.302
54027W        W22245  17.661  24.557   1.207
54028W        W22246  43.292   7.123   2.128
54029W        W22247   9.843   3.123  12.211
54030W        W22248  21.274  18.107  11.666
54031W        W22249  30.021  18.106   1.875
54032W        W22250   1.253  16.734   2.741
54033W        W22251  24.512  36.845   4.944
54034W        W22252  25.822   8.570   3.713
54035W        W22253   1.315   5.618  14.823
54036W        W22254  36.445   6.330   1.136
54037W        W22255   9.790   8.953  14.560
54038W        W22256  15.832  38.412  10.600
54039W        W22257   6.519  26.230  11.247
54040W        W22258   7.697  14.803  14.797
54041W        W22259  21.057   8.567   1.474
54042W        W22260  23.302  32.707   0.898
54043W        W22261  32.024  34.486   0.155
54044W        W22262   7.221  10.255  13.527
54045W        W22263   5.358  43.070   4.673
54046W        W22264  24.690  17.037   1.918
54047W        W22265  15.563  21.780   1.624
54048W        W22266  43.707   1.028   2.291
54049W        W22267  40.590  41.469  13.889
54050W        W22268  23.551  16.271   1.318
54051W        W22269   5.953  18.572  10.232
54052W        W22270  44.009  22.896   4.058
54053W        W22271   3.604  40.496   1.066
54054W        W22272  43.018  37.078  14.806
54055W        W22273   0.295  17.567   4.326
54056W        W22274  18.065  23.982  12.826
54057W        W22275  40.085  13.295  11.862
54058W        W22276  42.551  17.471  11.921
54059W        W22277  39.261   6.335  12.971
54060W        W22278  15.635   4.260  12.792
54061W        W22279  43.860  25.130   1.006
54062W        W22280  22.115  36.002  12.576
54063W        W22281  44.834  28.402  10.629
54064W        W22282  32.309  11.934  12.549
54065W        W22283  28.925  24.983   0.604
54066W        W22284  22.155  21.996  14.118
54067W        W22285  38.378  24.169   3.603
54068W        W22286  31.378  16.301  13.922
54069W        W22287   1.040  16.183   3.158
54070W        W22288  40.383  39.586   3.703
54071W        W22289  14.326  27.860  14.589
54072W        W22290  42.240  30.643   4.151
54073W        W22291  11.819  15.263   4.180
54074W        W22292   0.425  17.152  13.058
54075W        W22293  27.242  12.439   1.481
54076W        W22294  39.858  31.659  14.882
54077W        W22295   6.559  21.353  14.874
54078W        W22296  23.574  22.712   1.901
54079W        W22297  19.400  13.458  11.672
54080W        W22298  35.110  11.069  13.183
54081W        W22299   7.418  18.736   0.784
54082W        W22300  25.795   1.502   2.295
54083W        W22301  25.648  36.986   0.511
54084W        W22302  21.612  10.611  12.126
54085W        W22303  20.226  16.159  12.029
54086W        W22304   9.784  44.318  12.510
54087W        W22305  36.931  12.630   2.204
54088W        W22306  36.954   0.468   0.752
54089W        W22307  38.355  38.457   2.331
54090W        W22308  34.856  39.226  12.028
54091W        W22309  29.741   9.239   1.952
54092W        W22310  15.134   1.156  10.165
54093W        W22311  16.408  21.236   4.258
54094W        W22312  22.227  18.466  11.274
54095W        W22313  29.572  42.596   1.599
54096W        W22314   3.121  16.364   4.273
54097W        W22315  22.972  25.326  11.157
54098W        W22316   1.253  11.692   2.959
54099W        W22317  14.337  28.253   0.780
54100W        W22318  43.586  31.598  11.040
54101W        W22319  32.643  32.429  14.849
54102W        W22320  16.909  28.553   3.971
54103W        W22321  43.229  23.479   1.705
54104W        W22322  17.065   9.606  11.148
54105W        W22323  11.266   6.988  11.037
54106W        W22324  24.227  42.822  14.267
54107W        W22325  19.739   5.318   0.479
54108W        W22326   3.687  22.363   3.399
54109W        W22327  15.135   2.813   2.187
54110W        W22328  36.959   9.119  12.714
54111W        W22329  19.218  12.709  11.127
54112W        W22330   5.277  11.587   4.541
54113W        W22331  16.930  28.413  11.549
54114W        W22332  43.564  16.772  12.418
54115W        W22333  10.657   7.242   0.870
54116W        W22334   2.401   0.314   1.446
54117W        W22335  22.539  19.818  12.504
54118W        W22336  31.924  38.333  13.881
54119W        W22337  11.549   5.484   0.845
54120W        W22338  41.606   5.232   2.711
54121W        W22339   9.641  18.131   4.518
54122W        W22340  19.835  42.737   3.289
54123W        W22341  24.526   4.732  11.233
54124W        W22342  31.690  12.697   1.493
54125W        W22343  26.422   6.119   1.304
54126W        W22344  27.146  29.644  13.574
54127W        W22345  35.473  31.884   2.837
54128W        W22346  43.772  38.451   3.175
54129W        W22347  24.100  43.588  14.909
54130W        W22348  39.683  37.962   0.399
54131W        W22349  29.572   5.380  11.289
54132W        W22350  32.538  14.447  13.326
54133W        W22351  25.483  15.769   2.851
54134W        W22352  43.835  24.943  13.412
54135W        W22353  10.272  44.436   2.891
54136W        W22354  36.954  33.478   4.397
54137W        W22355  34.838  29.921  13.864
54138W        W22356  35.396  35.109   3.658
54139W        W22357  24.510  34.654   2.922
54140W        W22358   5.061  20.593   0.013
54141W        W22359  38.144   6.789  12.196
54142W        W22360  36.796  23.167  12.066
54143W        W22361   4.775  14.179   3.539
54144W        W22362   1.455  13.819  14.202
54145W        W22363  42.448  43.951  12.410
54146W        W22364  12.142  11.220  14.466
54147W        W22365  10.088  35.949  13.116
54148W        W22366   6.335  44.228   3.309
54149W        W22367  11.616  27.680   4.215
54150W        W22368  21.973  15.604   1.373
54151W        W22369  29.619  37.036   1.371
54152W        W22370  29.226   9.656  12.614
54153W        W22371  25.123  29.642  11.340
54154W        W22372  21.123  26.409  14.152
54155W        W22373  19.658   3.960  11.994
54156W        W22374  25.507   5.195  10.673
54157W        W22375  31.524  24.679  11.602
54158W        W22376  43.350  40.836  10.360
54159W        W22377  41.619   7.251   1.355
54160W        W22378   1.324  24.793  14.984
54161W        W22379   2.579  21.800   3.906
54162W        W22380  34.226  24.277  14.498
54163W        W22381  40.041   1.755  13.391
54164W        W22382  39.139  11.441  12.152
54165W        W22383  41.343  15.324   3.692
54166W        W22384  23.124  18.314  10.583
54167W        W22385  16.082  14.829   3.472
54168W        W22386   6.864  13.545   1.116
54169W        W22387   7.675   7.807   4.798
54170W        W22388  28.926   1.473  14.805
54171W        W22389  26.510   9.119  12.923
54172W        W22390  31.058  25.613   2.395
54173W        W22391  35.206  11.865   1.298
54174W        W22392  29.448  14.512   3.642
54175W        W22393  42.549  27.233  12.965
54176W        W22394  26.643  20.870   0.993
54177W        W22395  21.250  19.792  12.968
54178W        W22396  16.562   5.848  10.738
54179W        W22397   1.286  15.573   2.708
54180W        W22398  16.743   8.493   4.604
54181W        W22399  28.640  34.874   1.400
54182W        W22400  40.817  36.074   4.133
54183W        W22401  14.122  33.531   1.498
54184W        W22402   9.573  40.226   3.370
54185W        W22403  11.540  29.445   2.454
54186W        W22404   9.163  23.601   0.351
54187W        W22405  26.527  15.897   4.306
54188W        W22406  23.027   9.393  12.003
54189W        W22407   4.847  22.235  12.526
54190W        W22408  22.673   6.393   3.825
54191W        W22409  23.016   5.226  14.715
54192W        W22410  40.879  18.299   3.274
54193W        W22411  39.395  29.698   3.184
54194W        W22412  42.410  38.085  10.691
54195W        W22413  33.161  42.227  14.434
54196W        W22414  43.006  25.893  11.516
54197W        W22415   5.496   4.869   2.074
54198W        W22416  29.494   5.437  12.262
54199W        W22417  17.781  10.298   3.799
54200W        W22418  27.972  13.163   1.977
54201W        W22419  29.668  21.786  12.349
54202W        W22420  28.135  43.758   0.420
54203W        W22421  17.849  20.664  14.836
54204W        W22422   4.850  26.794  11.652
54205W        W22423   1.087  21.739   1.794
54206W        W22424   1.413  20.544   0.880
54207W        W22425  15.157  11.322  14.053
54208W        W22426  23.453   4.696   0.373
54209W        W22427  18.769  15.318   1.805
54210W        W22428  18.672  13.290   3.681
54211W        W22429   2.980  36.046  10.608
54212W        W22430  17.136   6.455   3.207
54213W        W22431  28.091   1.758  11.531
54214W        W22432  43.536  14.620   1.800
54215W        W22433  29.975  18.656  10.462
54216W        W22434   4.849  35.989  10.901
54217W        W22435  12.110  33.355  11.414
54218W        W22436   9.196  31.017  13.126
54219W        W22437   3.408  27.733  11.973
54220W        W22438  15.902  30.584   2.252
54221W        W22439  14.217  17.251  14.527
54222W        W22440  41.433  15.254  10.789
54223W        W22441  44.811   6.422  10.045
54224W        W22442  23.533  34.427   3.743
54225W        W22443  19.143   8.517   3.790
54226W        W22444  10.492  19.457  10.776
54227W        W22445  31.842  22.688  11.347
54228W        W22446  23.975  16.850  14.229
54229W        W22447   5.837  32.275   3.642
54230W        W22448  44.013  13.740   0.404
54231W        W22449  31.986  26.381   4.918
54232W        W22450  37.538  15.219   2.888
54233W        W22451   0.749  28.912  14.470
54234W        W22452  29.852  40.257   4.474
54235W        W22453  17.294  10.164   3.666
54236W        W22454  22.507  42.389  10.320
54237W        W22455   0.475  29.903   4.474
54238W        W22456  28.384   4.190   3.252
54239W        W22457  21.196  18.802   0.202
54240W        W22458   5.315  12.754  12.067
54241W        W22459  41.065   3.015   0.853
54242W        W22460  29.654  29.064  12.567
54243W        W22461  25.182  24.350   4.926
54244W        W22462  35.416  22.018  11.458
54245W        W22463  19.673   8.723   2.945
54246W        W22464  11.784  35.065   2.997
54247W        W22465  32.920  22.024   0.524
54248W        W22466   8.634  17.383  12.965
54249W        W22467  38.596  21.096   3.609
54250W        W22468  29.620  36.030  12.512
54251W        W22469   2.240  13.236   4.664
54252W        W22470  28.803  15.817  10.726
54253W        W22471  43.237   6.192   0.974
54254W        W22472   5.849   2.039  10.890
54255W        W22473   2.389  24.458   1.672
54256W        W22474   9.940   0.803  10.648
54257W        W22475  21.267  27.192  13.021
54258W        W22476  25.121  44.203   2.176
54259W        W22477  22.236  12.440  14.750
54260W        W22478  10.889   0.143  14.782
54261W        W22479  40.038  43.606  13.367
54262W        W22480   4.491  36.123  10.119
54263W        W22481  20.293  19.320   2.195
54264W        W22482  11.305  16.319  13.910
54265W        W22483   5.630  34.863  10.759
54266W        W22484  15.326  32.483  11.439
54267W        W22485   0.515  18.734   3.684
54268W        W22486  36.066   4.667   2.020
54269W        W22487  27.710   5.960   3.325
54270W        W22488  27.127  25.026   1.455
54271W        W22489  27.983   0.841  14.526
54272W        W22490   2.276  31.971   1.244
54273W        W22491   5.300  40.204   0.854
54274W        W22492   0.620   9.738  11.691
54275W        W22493  12.585  21.428   2.382
54276W        W22494   1.772   7.779  13.626
54277W        W22495  36.918  21.488   0.890
54278W        W22496  29.988  14.687  12.986
54279W        W22497  13.862  21.216   1.644
54280W        W22498  29.090  30.199   0.771
54281W        W22499   1.836  19.769   0.854
54282W        W22500  23.774   5.962   4.604
54283W        W22501  20.797  26.714   0.010
54284W        W22502  20.567  17.766   4.158
54285W        W22503  41.989  27.220  14.271
54286W        W22504  36.008  31.225  12.980
54287W        W22505  19.578  34.534   0.442
54288W        W22506   5.939  10.990  13.511
54289W        W22507  31.041  10.705   0.948
54290W        W22508  34.336  39.940  12.132
54291W        W22509  29.197  27.162  12.442
54292W        W22510   5.109  14.527   4.451
54293W        W22511  42.573  29.105   0.365
54294W        W22512   6.660  41.237  13.333
54295W        W22513   7.314  31.732  10.773
54296W        W22514  38.294  33.563  12.630
54297W        W22515  24.168   8.826  12.083
54298W        W22516  35.184   1.099   1.571
54299W        W22517  33.465   6.462  11.010
54300W        W22518  34.321  11.044  13.443
54301W        W22519  33.821  13.631  13.882
54302W        W22520  27.515  38.516   0.756
54303W        W22521  42.918  38.032  11.601
54304W        W22522  37.510  36.530   2.394
54305W        W22523  11.722  21.508   4.725
54306W        W22524  25.910  16.408  14.330
54307W        W22525  24.001  33.022  11.494
54308W        W22526  42.589  10.176  11.950
54309W        W22527   8.622  25.235   0.825
54310W        W22528  40.600  32.610   2.389
54311W        W22529  27.970  27.219   4.163
54312W        W22530  30.711  10.084   3.305
54313W        W22531  24.633  12.424   1.621
54314W        W22532  20.019   0.909  12.040
54315W        W22533  33.112  17.715   0.382
54316W        W22534  11.098   2.160   4.777
54317W        W22535  25.167  20.610   1.759
54318W        W22536  24.237  18.878   1.836
54319W        W22537   0.961  34.462   3.036
54320W        W22538  13.813  33.942  14.881
54321W        W22539   0.571  31.516  13.047
54322W        W22540  25.230  39.221   4.444
54323W        W22541  31.978  29.672  11.352
54324W        W22542  37.428  18.997  14.450
54325W        W22543  13.582   4.763   0.483
54326W        W22544  13.344  20.312  12.030
54327W        W22545  24.858  35.070  14.037
54328W        W22546  18.985  24.977  11.208
54329W        W22547  32.180  22.488  13.830
54330W        W22548  10.323   4.753   4.016
54331W        W22549  20.323   7.822   1.685
54332W        W22550   5.657  31.725  12.419
54333W        W22551  21.486   6.464  11.299
54334W        W22552   6.728   8.736   1.439
54335W        W22553  13.456  12.714   3.870
54336W        W22554  15.221  16.801   4.395
54337W        W22555   6.663  16.635  12.443
54338W        W22556  27.965  11.806  14.337
54339W        W22557  14.998  42.388  14.389
54340W        W22558  32.474  26.120  12.853
54341W        W22559   0.646   2.035   0.006
54342W        W22560   1.745   5.859   1.213
54343W        W22561  23.772  38.910   3.792
54344W        W22562  12.326  24.501   4.159
54345W        W22563  18.958  15.205   2.834
54346W        W22564  20.243  40.939  14.279
54347W        W22565  22.790  44.567   3.229
54348W        W22566  13.391  41.864   3.718
54349W        W22567  18.574  12.118  14.720
54350W        W22568  26.712  32.792   0.918
54351W        W22569  16.068  19.544  14.381
54352W        W22570  35.006  39.191   4.281
54353W        W22571  42.285  31.120   3.446
54354W        W22572  44.449  18.773  13.359
54355W        W22573  18.096  12.338  12.989
54356W        W22574   0.835   2.250   0.461
54357W        W22575   6.818  37.753   3.272
54358W        W22576   9.405  37.588   0.599
54359W        W22577  29.232  41.011  12.127
54360W        W22578  29.225   0.464   4.179
54361W        W22579  26.286  20.245   1.600
54362W        W22580  18.088  18.199  10.659
54363W        W22581  39.398  10.209   0.040
54364W        W22582   6.444  29.887  10.565
54365W        W22583   7.542  13.673   3.630
54366W        W22584   2.926  35.094   3.681
54367W        W22585  31.442   3.383  10.931
54368W        W22586  34.530  17.904   2.060
54369W        W22587  31.064  37.222   2.158
54370W        W22588  28.803  36.282  11.105
54371W        W22589   0.485   8.840   1.989
54372W        W22590  24.932   4.762  13.967
54373W        W22591  27.980   0.468   2.922
54374W        W22592   5.657   3.902   0.061
54375W        W22593  13.689  26.993  11.718
54376W        W22594  14.702  40.761   0.555
54377W        W22595   7.974  38.473  11.472
54378W        W22596  18.134  33.068   0.663
54379W        W22597  40.013   7.354   3.793
54380W        W22598   7.419  21.768  11.494
54381W        W22599   0.109  10.843   0.696
54382W        W22600   9.801  37.161   3.850
54383W        W22601  24.956  11.315  14.306
54384W        W22602  26.224   6.809  11.399
54385W        W22603  16.560   3.388  12.063
54386W        W22604   2.430   5.643   3.864
54387W        W22605  40.942   9.195  13.117
54388W        W22606  40.858  12.401   0.902
54389W        W22607  35.775  43.513   3.731
54390W        W22608  23.043  21.850  11.764
54391W        W22609  40.155   1.733  14.453
54392W        W22610   4.994  15.580  13.973
54393W        W22611   8.173  16.932  12.095
54394W        W22612  25.461  32.163  13.794
54395W        W22613  16.639  11.090   3.694
54396W        W22614  25.147  32.925  12.147
54397W        W22615   8.317  31.353   3.376
54398W        W22616  17.295  41.066   4.900
54399W        W22617  34.074   2.324  14.731
54400W        W22618   3.709  13.763   1.653
54401W        W22619  44.810   3.880   0.285
54402W        W22620  41.031  34.455   3.144
54403W        W22621  32.476  43.360   0.230
54404W        W22622  43.138  15.239  10.512
54405W        W22623  19.167  37.931   2.804
54406W        W22624  10.659  10.057  13.007
54407W        W22625  30.695  32.074   2.275
54408W        W22626  32.019   8.213  14.329
54409W        W22627  21.283  17.746  14.781
54410W        W22628   4.725  12.241   0.395
54411W        W22629  40.974  11.997   1.244
54412W        W22630  17.607  43.447   3.388
54413W        W22631   5.954  10.190   0.728
54414W        W22632   2.372  31.357  14.890
54415W        W22633  34.220   9.138   1.306
54416W        W22634  26.740  21.650  11.003
54417W        W22635  32.365  21.004   1.881
54418W        W22636  29.396   4.880  12.981
54419W        W22637   7.805  17.864  14.077
54420W        W22638   1.985  20.516  10.418
54421W        W22639  42.612  24.327   4.500
54422W        W22640  28.985  25.640   0.893
54423W        W22641  42.310  43.527  13.623
54424W        W22642  44.365   1.852   2.300
54425W        W22643  17.023  24.011   1.502
54426W        W22644  36.645  28.600   3.153
54427W        W22645  44.015  11.386   4.533
54428W        W22646  23.614  27.476   4.704
54429W        W22647   1.363  12.241  13.826
54430W        W22648  14.644  20.165   4.718
54431W        W22649   3.977  26.670  11.568
54432W        W22650   8.970   5.747   1.380
54433W        W22651  19.320  31.966  14.140
54434W        W22652  25.924  10.383  12.442
54435W        W22653  28.177  44.832   2.774
54436W        W22654   0.359   0.878  12.550
54437W        W22655   7.185  12.261   1.874
54438W        W22656  28.745  39.531  12.949
54439W        W22657  23.624  36.307   3.600
54440W        W22658  21.072   4.947  10.683
54441W        W22659  31.688  23.014  12.596
54442W        W22660  34.893  33.416   2.382
54443W        W22661  23.703  26.621  11.940
54444W        W22662  14.290  24.678  13.846
54445W        W22663  36.398  22.366  10.530
54446W        W22664  31.676  13.115  12.384
54447W        W22665  25.283  37.161   2.809
54448W        W22666  31.166  19.334   0.777
54449W        W22667  26.973  42.791   5.001
54450W        W22668  39.409  31.703  10.317
54451W        W22669  12.889  24.664   0.009
54452W        W22670  23.149  27.039   3.722
54453W        W22671  42.053  29.491  12.553
54454W        W22672  32.161  23.032  12.134
54455W        W22673  28.455  12.392   0.917
54456W        W22674   6.326  14.333  13.722
54457W        W22675  44.949  38.832  12.456
54458W        W22676  25.983   2.435   2.311
54459W        W22677  10.189  36.415   1.236
54460W        W22678  26.042  23.477   2.936
54461W        W22679  28.181   6.297   2.182
54462W        W22680   4.458  13.208   9.856
54463W        W22681  16.830  19.222   3.194
54464W        W22682   7.375   7.955   4.012
54465W        W22683   1.977  13.203   1.950
54466W        W22684  25.540  19.616  12.173
54467W        W22685  12.992  31.238  10.450
54468W        W22686   0.439   1.777  13.175
54469W        W22687  30.259  24.880   3.136
54470W        W22688  13.776  25.007   0.270
54471W        W22689  11.669  32.157   3.636
54472W        W22690   6.386   6.722  13.976
54473W        W22691  19.678  31.174  12.525
54474W        W22692  42.884   1.820   2.972
54475W        W22693  39.350   9.726   0.286
54476W        W22694  15.161   1.274   4.722
54477W        W22695  30.121  32.041   3.629
54478W        W22696  23.158   1.783  10.555
54479W        W22697  40.161  16.797  13.764
54480W        W22698  10.187  14.232  11.295
54481W        W22699  11.522  29.076   3.178
54482W        W22700  27.481  35.651  11.543
54483W        W22701  38.054  24.529   2.354
54484W        W22702  10.941  31.890  12.424
54485W        W22703   5.809  35.401   0.111
54486W        W22704   8.348   6.453   2.797
54487W        W22705  23.907   1.986  11.052
54488W        W22706  38.514  19.254  13.901
54489W        W22707   5.220  26.211  12.150
54490W        W22708  15.939  26.983  11.595
54491W        W22709  20.458  13.166  13.859
54492W        W22710  16.235  40.661  12.905
54493W        W22711   6.831   5.181   3.368
54494W        W22712   4.971  19.237  14.831
54495W        W22713  35.556  36.743   2.244
54496W        W22714  35.009  12.406   0.445
54497W        W22715   4.882  29.581   0.641
54498W        W22716  34.306  18.688   2.749
54499W        W22717  18.055  26.157  10.619
54500W        W22718  39.950   4.179  11.095
54501W        W22719   2.436   8.785   2.570
54502W        W22720  31.037  28.922   1.221
54503W        W22721  13.807   3.374  11.181
54504W        W22722  15.556   4.183  11.549
54505W        W22723   6.595  40.191   9.699
54506W        W22724  20.512  20.479   0.418
54507W        W22725  18.871  10.319   0.867
54508W        W22726  44.926  20.268  10.754
54509W        W22727  28.138  13.634   4.759
54510W        W22728  42.839  19.575   1.832
54511W        W22729   1.820  30.916  14.452
54512W        W22730  21.814   3.965  14.145
54513W        W22731  41.293  37.774  11.221
54514W        W22732  14.892  25.416  12.316
54515W        W22733   2.670   9.382   3.155
54516W        W22734  11.101  24.458   1.299
54517W        W22735   6.058   9.482   0.824
54518W        W22736  24.058  44.423  10.791
54519W        W22737  12.078   6.175  11.573
54520W        W22738  12.076  40.961  11.082
54521W        W22739  36.536  11.941   0.764
54522W        W22740  17.758  20.055  12.497
54523W        W22741  27.905   0.373   1.198
54524W        W22742  22.718   4.188   1.385
54525W        W22743  13.880  28.658  13.932
54526W        W22744  38.854  13.104  14.695
54527W        W22745   0.059  37.845  11.640
54528W        W22746  44.384   1.502  13.553
54529W        W22747  42.178  20.334  12.586
54530W        W22748  29.948  31.029   1.245
54531W        W22749  10.690  32.461   2.485
54532W        W22750  25.061  21.528   3.635
54533W        W22751   6.959  11.896   2.729
54534W        W22752  19.734  16.898   0.403
54535W        W22753  13.097  36.492  13.387
54536W        W22754  19.057  28.224   3.763
54537W        W22755   1.311  10.551  12.889
54538W        W22756  37.796  25.684   4.128
54539W        W22757   2.803  28.175  11.281
54540W        W22758   4.158   7.262   4.559
54541W        W22759   5.212   6.661   1.395
54542W        W22760   0.765  18.772   4.604
54543W        W22761  13.631  43.594   1.270
54544W        W22762  16.982   8.190   1.327
54545W        W22763  19.249  17.583  14.402
54546W        W22764  35.429  29.061  11.135
54547W        W22765   3.430  34.877  13.929
54548W        W22766   3.425  36.550   1.470
54549W        W22767  38.881   6.688  12.349
54550W        W22768  33.634  11.844   2.268
54551W        W22769  20.284  11.237  10.727
54552W        W22770  33.929  29.396   5.429
54553W        W22771   2.897  13.370   2.379
54554W        W22772   5.275  20.498  12.438
54555W        W22773   9.182  12.785   4.039
54556W        W22774  24.961  14.797  11.975
54557W        W22775  13.340   1.247  13.316
54558W        W22776  34.824   7.437  13.796
54559W        W22777  14.212  15.887  12.024
54560W        W22778  35.917  11.595   1.859
54561W        W22779  34.556  19.411  11.950
54562W        W22780  16.042   2.468  14.390
54563W        W22781  10.868  20.692  10.331
54564W        W22782  12.261  44.065   4.632
54565W        W22783  38.017   3.324  12.081
54566W        W22784  39.114  14.802   0.913
54567W        W22785  12.038  44.850  12.489
54568W        W22786  28.943  27.935   0.457
54569W        W22787  17.662  12.381   1.238
54570W        W22788  34.481  38.090   4.294
54571W        W22789  19.467  27.376  14.722
54572W        W22790  19.446  32.840   1.981
54573W        W22791  18.150  27.079  11.943
54574W        W22792   0.779  29.044   3.580
54575W        W22793  37.612  21.704   0.274
54576W        W22794  31.977  24.938  10.800
54577W        W22795  30.560  21.552   0.935
54578W        W22796  25.061   6.311  13.641
54579W        W22797   1.913  20.236   4.473
54580W        W22798  41.870   2.946  14.418
54581W        W22799  35.437  15.630   4.058
54582W        W22800  42.966  23.646   1.224
54583W        W22801  33.338  11.850   0.859
54584W        W22802  30.473  31.636   0.181
54585W        W22803  11.649  25.972   0.426
54586W        W22804  31.454  29.463   5.075
54587W        W22805  21.435   2.736   3.328
54588W        W22806  22.215  12.608  11.557
54589W        W22807  16.902   4.578   1.485
54590W        W22808  22.834  33.457   0.746
54591W        W22809  42.707  21.995   1.720
54592W        W22810   7.311  39.518  13.979
54593W        W22811  10.603  38.772  13.606
54594W        W22812  20.637   2.398   1.379
54595W        W22813  28.762  31.699  11.952
54596W        W22814   2.034  35.136  14.922
54597W        W22815  26.186  38.591  14.358
54598W        W22816  40.560  34.355  10.739
54599W        W22817   3.763  35.566   3.519
54600W        W22818  12.849  20.767   4.537
54601W        W22819   6.330  32.441   2.305
54602W        W22820  31.693  38.881   2.310
54603W        W22821  22.604   4.698   0.505
54604W        W22822  29.382  16.737   2.170
54605W        W22823  19.074  21.240  12.631
54606W        W22824  18.854  39.878   2.657
54607W        W22825   9.453  14.826   2.215
54608W        W22826   3.999  34.302  12.113
54609W        W22827  42.291  44.713  14.862
54610W        W22828   5.582   0.484   2.455
54611W        W22829   7.032  32.322  12.467
54612W        W22830  42.067  11.826   2.201
54613W        W22831   3.249  15.881   0.862
54614W        W22832   0.904   0.425  13.152
54615W        W22833  40.191  42.451   3.141
54616W        W22834  25.254  10.166  10.766
54617W        W22835  19.385  22.411  14.028
54618W        W22836  43.499  23.029   2.650
54619W        W22837   5.861   5.226   3.710
54620W        W22838   1.376  26.604   1.745
54621W        W22839   0.857  28.032  13.525
54622W        W22840  11.907  42.478  13.882
54623W        W22841  19.158   6.139   4.458
54624W        W22842   6.823  31.534   2.354
54625W        W22843  12.818   6.736   0.230
54626W        W22844  23.189  36.572   1.901
54627W        W22845  32.617  33.829  10.784
54628W        W22846  21.959  25.020   0.839
54629W        W22847  27.596  43.834   3.156
54630W        W22848   6.090  43.968   4.272
54631W        W22849  24.427   8.449   4.157
54632W        W22850  19.531  39.050  12.564
54633W        W22851  25.484  40.892  14.616
54634W        W22852  40.208  30.716  14.901
54635W        W22853  42.259   4.902   4.231
54636W        W22854   7.618  26.538   2.799
54637W        W22855  33.195  39.987  13.265
54638W        W22856  16.166  15.878   2.967
54639W        W22857  31.454   0.308  11.901
54640W        W22858   9.263   3.397  10.919
54641W        W22859   0.087   0.283   4.643
54642W        W22860  40.289  16.791   0.235
54643W        W22861   4.302  40.410   2.834
54644W        W22862  23.548  30.042   4.353
54645W        W22863   7.261   3.191  13.501
54646W        W22864   5.409   2.251  12.691
54647W        W22865  44.443   8.621   3.738
54648W        W22866  23.492   2.948  14.314
54649W        W22867  40.525  29.275  13.494
54650W        W22868  34.258   9.615   0.265
54651W        W22869  33.678  30.578   2.288
54652W        W22870   5.260  22.213  14.750
54653W        W22871  10.201  29.031   3.140
54654W        W22872  41.540  40.038   1.066
54655W        W22873  12.863  26.229  11.890
54656W        W22874  41.943  41.289  10.689
54657W        W22875  12.181   0.067  11.893
54658W        W22876   0.805  43.884   4.435
54659W        W22877  36.802  43.804  12.402
54660W        W22878  35.956  15.589   4.761
54661W        W22879   8.306  41.552   0.935
54662W        W22880   5.315  28.520  14.268
54663W        W22881   6.623  40.909  10.842
54664W        W22882  16.267  11.439  13.632
54665W        W22883  43.899   2.934   1.496
54666W        W22884  38.099  34.333   1.240
54667W        W22885  18.233  42.453   0.926
54668W        W22886  18.075  17.238   2.160
54669W        W22887  17.996   6.066  11.482
54670W        W22888  25.433   8.735  11.612
54671W        W22889   1.867  39.297  11.461
54672W        W22890   7.642  24.254   4.185
54673W        W22891  39.171  37.700   1.363
54674W        W22892   4.427   0.350   4.423
54675W        W22893  18.108  38.937  12.862
54676W        W22894  32.267  26.800   1.721
54677W        W22895  29.386  22.234   3.805
54678W        W22896  41.407  37.808   2.637
54679W        W22897   4.793  37.291   0.320
54680W        W22898  40.876  18.824   3.229
54681W        W22899  29.002  23.185  13.936
54682W        W22900   9.398  31.235   1.799
54683W        W22901  16.681  22.694   4.953
54684W        W22902  19.727  26.034   3.854
54685W        W22903  11.187  20.976  11.133
54686W        W22904  23.115   6.923   3.215
54687W        W22905  15.078  36.137  11.846
54688W        W22906  19.402  41.304   1.617
54689W        W22907  31.928   8.878   1.050
54690W        W22908   2.518  41.215  12.028
54691W        W22909  18.607   5.334  14.574
54692W        W22910   4.879  15.220   0.772
54693W        W22911  20.971  39.823   3.792
54694W        W22912  32.735  29.573   4.975
54695W        W22913  14.030  11.901   2.971
54696W        W22914  14.137  35.474   4.420
54697W        W22915  41.451   9.179   0.322
54698W        W22916  21.347  36.604   4.302
54699W        W22917   3.175  41.295   0.849
54700W        W22918   3.258  24.221   0.229
54701W        W22919  38.483  13.534   4.586
54702W        W22920  44.924  34.814   0.857
54703W        W22921   5.836  18.630  11.605
54704W        W22922  27.696  25.118   3.344
54705W        W22923  37.709  26.004   2.886
54706W        W22924  29.577   9.040   9.837
54707W        W22925   5.045  26.900   5.070
54708W        W22926   5.801  13.530  11.946
54709W        W22927  30.992   4.915  14.782
54710W        W22928  24.668  20.681   3.377
54711W        W22929  11.599   3.755   2.372
54712W        W22930  35.193  39.955  14.315
54713W        W22931  30.939  33.111   0.776
54714W        W22932  31.058  41.277  10.664
54715W        W22933  43.545  22.527  10.930
54716W        W22934  15.206  13.906  13.945
54717W        W22935   3.532  31.422  12.813
54718W        W22936  40.265   2.892   3.634
54719W        W22937   5.703  38.878  10.566
54720W        W22938   7.813   8.660  14.213
54721W        W22939  34.632  30.501  12.958
54722W        W22940  31.875  22.374   5.223
54723W        W22941  35.388  25.381  11.044
54724W        W22942  15.618  28.094  13.271
54725W        W22943  27.283   6.825  11.014
54726W        W22944  14.768   8.609   3.827
54727W        W22945  31.114   3.863  12.016
54728W        W22946  27.644  38.619   4.336
54729W        W22947   1.611  16.568   3.515
54730W        W22948  39.391  35.055  14.132
54731W        W22949  44.047  18.653   0.522
54732W        W22950  37.274  27.703   4.697
54733W        W22951   1.185  26.120   0.032
54734W        W22952   0.919  18.686   1.819
54735W        W22953   3.785  34.997  14.352
54736W        W22954  28.152  42.961  10.650
54737W        W22955  41.954  23.765  12.518
54738W        W22956  33.999  27.747   2.273
54739W        W22957  27.514  10.592   4.413
54740W        W22958  13.891  12.848  13.913
54741W        W22959  40.460  44.558  13.981
54742W        W22960  40.766  26.662  13.966
54743W        W22961  20.599   1.991  13.850
54744W        W22962  14.025  25.478   0.330
54745W        W22963  27.437  32.560   0.318
54746W        W22964  42.716  37.579  14.034
54747W        W22965  19.346  30.368  11.183
54748W        W22966  27.543  29.036   3.592
54749W        W22967  29.181  11.214   0.874
54750W        W22968  11.183   9.470   2.265
54751W        W22969  11.183  27.000   1.637
54752W        W22970  24.674  19.274   0.541
54753W        W22971  13.302  31.242   1.384
54754W        W22972  36.087  38.582   1.189
54755W        W22973  14.957   7.787  14.566
54756W        W22974  21.565  28.548   0.360
54757W        W22975  42.340  12.622   4.250
54758W        W22976  38.843  17.452   4.303
54759W        W22977  23.979  18.494  11.224
54760W        W22978  12.781  16.780   1.757
54761W        W22979   3.786  26.777  14.859
54762W        W22980  35.636  37.466   1.757
54763W        W22981  19.755  24.510  14.380
54764W        W22982  35.124   2.323   1.988
54765W        W22983  22.269  30.877  10.821
54766W        W22984   0.721  21.006   3.076
54767W        W22985   0.362  23.337   4.293
54768W        W22986  17.384  19.658  12.575
54769W        W22987   5.718  32.885  10.736
54770W        W22988  39.859   2.712   0.296
54771W        W22989   9.251   3.164   0.179
54772W        W22990  18.799  26.208   3.699
54773W        W22991  23.323  35.653  14.774
54774W        W22992  14.792  26.263   4.311
54775W        W22993  27.824  40.309  11.892
54776W        W22994  14.341  42.666  13.321
54777W        W22995   3.013  32.379  12.869
54778W        W22996  17.198  12.692   9.941
54779W        W22997  23.571   3.248   3.876
54780W        W22998  18.321   3.474  11.540
54781W        W22999  15.779   3.507   9.875
54782W        W23000   0.475  18.160  14.939
54783W        W23001  30.038  29.733   4.152
54784W        W23002   1.586  40.924  14.328
54785W        W23003  21.791  26.020   4.211
54786W        W23004  42.207   2.492   2.264
54787W        W23005  19.472  25.046  12.069
54788W        W23006  12.243  31.414   0.311
54789W        W23007  27.502  22.125  10.053
54790W        W23008  13.514  11.822   0.978
54791W        W23009  15.276  23.517   4.686
54792W        W23010  36.510  26.219  13.284
54793W        W23011  37.276  26.557   4.038
54794W        W23012  12.546  33.527  13.598
54795W        W23013  40.398  39.559  14.931
54796W        W23014  33.320  44.306  14.670
54797W        W23015  14.302  44.953  11.183
54798W        W23016   8.833  37.790   3.710
54799W        W23017  23.582  16.841  14.935
54800W        W23018   5.670  31.045  13.045
54801W        W23019  40.496  19.077   0.696
54802W        W23020   4.626  33.727   4.960
54803W        W23021   6.227  40.220  14.515
54804W        W23022  32.074   9.258  12.765
54805W        W23023  21.311  32.916   2.297
54806W        W23024   3.261  24.161   4.499
54807W        W23025  22.028  13.187   1.822
54808W        W23026  33.436  15.207   0.913
54809W        W23027  41.937  20.483   0.887
54810W        W23028  15.284  19.759   0.654
54811W        W23029  30.613  23.563  12.952
54812W        W23030  18.439   8.283   0.937
54813W        W23031  15.561  30.518   4.332
54814W        W23032  18.174  37.256   4.632
54815W        W23033  11.050  41.827  11.190
54816W        W23034   7.654  15.843  11.842
54817W        W23035  10.596  38.316   2.435
54818W        W23036  39.954  24.988  11.657
54819W        W23037  13.645  30.934   0.703
54820W        W23038  44.547  29.084  13.322
54821W        W23039  18.882  15.670   2.633
54822W        W23040  10.887  30.813   4.933
54823W        W23041  21.793  15.548   0.868
54824W        W23042  24.102  12.348  10.743
54825W        W23043  39.798  37.169  13.425
54826W        W23044  39.008  14.092  10.625
54827W        W23045   6.301  25.342   1.210
54828W        W23046  44.195  14.946  12.377
54829W        W23047  16.893  13.736  12.462
54830W        W23048  13.627  26.064   1.997
54831W        W23049   1.845  27.175   4.935
54832W        W23050  23.586  31.187   2.406
54833W        W23051  41.245  26.992  11.565
54834W        W23052  42.106  31.915   1.748
54835W        W23053  23.031  42.969   3.688
54836W        W23054  38.077  24.219   1.839
54837W        W23055  12.695  15.755  14.795
54838W        W23056  19.242   2.871   0.387
54839W        W23057   4.696   1.575  12.880
54840W        W23058   9.937  37.106   2.295
54841W        W23059  35.081   9.820  11.112
54842W        W23060   1.910   4.953  10.829
54843W        W23061  43.089  44.401  12.033
54844W        W23062   1.342  21.685  14.487
54845W        W23063  43.017   9.150   2.772
54846W        W23064  22.614   4.278  13.214
54847W        W23065   7.387  16.125  13.054
54848W        W23066  25.618  24.620   4.910
54849W        W23067  41.858  44.335   5.068
54850W        W23068   7.108  17.391   3.559
54851W        W23069  35.079   0.257  13.271
54852W        W23070  30.897   1.698  11.033
54853W        W23071  24.320   1.894  12.856
54854W        W23072  30.116  14.773  14.929
54855W        W23073  28.347   5.146   1.012
54856W        W23074   7.374  24.827   4.936
54857W        W23075  40.026  27.392  12.455
54858W        W23076   8.723  23.074  12.862
54859W        W23077  21.324   0.094  11.087
54860W        W23078  30.594  24.245  11.078
54861W        W23079  43.064   3.894  14.275
54862W        W23080  13.051  28.406  10.972
54863W        W23081  39.339  13.610   2.350
54864W        W23082  31.980   1.665   5.414
54865W        W23083  23.147  21.253  13.456
54866W        W23084  30.465  36.340   0.477
54867W        W23085   7.830   2.501   1.901
54868W        W23086   3.357  20.735  10.737
54869W        W23087  19.807  36.891   2.262
54870W        W23088  39.546  34.346  11.876
54871W        W23089  27.473  26.661  13.161
54872W        W23090  25.991   6.741  10.921
54873W        W23091  28.179  23.150  14.775
54874W        W23092  38.983  18.025   0.901
54875W        W23093   9.758   8.764  14.089
54876W        W23094  30.167   0.856   2.968
54877W        W23095  21.549   5.063   2.987
54878W        W23096  32.307   8.983  12.031
54879W        W23097   1.684  28.326  13.095
54880W        W23098   5.426   4.331  11.316
54881W        W23099  42.858  33.432   2.580
54882W        W23100  25.640   6.993   1.817
54883W        W23101  29.233  32.262  10.766
54884W        W23102   3.866  40.093  11.444
54885W        W23103  42.897  35.384   2.858
54886W        W23104  26.982   2.855   0.403
54887W        W23105  23.224  38.873  14.332
54888W        W23106   8.377  40.903   4.970
54889W        W23107  19.490  18.000   1.731
54890W        W23108  21.311  27.611  13.759
54891W        W23109   3.360  10.656   2.751
54892W        W23110  30.840   7.219  11.180
54893W        W23111  15.152  22.952  11.012
54894W        W23112  44.582   5.839  11.220
54895W        W23113  17.071  10.829  13.485
54896W        W23114  41.605   0.398   1.759
54897W        W23115  16.614  28.841  13.520
54898W        W23116  41.843  26.869   3.734
54899W        W23117  38.478  41.771  10.728
54900W        W23118  21.553  29.993  14.473
54901W        W23119  43.010  43.315  14.723
54902W        W23120   5.895  16.347  13.030
54903W        W23121   9.777  42.875   4.257
54904W        W23122  13.344  10.272  14.893
54905W        W23123  36.509   7.296  12.122
54906W        W23124  40.913  28.034  11.977
54907W        W23125  41.373  35.445   0.092
54908W        W23126  17.624  41.850   1.421
54909W        W23127  35.265  43.275   4.733
54910W        W23128  32.627  24.583  10.688
54911W        W23129  27.024  26.912   3.177
54912W        W23130   0.917  43.410  14.810
54913W        W23131  29.357   2.402  13.395
54914W        W23132  34.959   3.887  14.055
54915W        W23133  14.206  40.773  11.156
54916W        W23134  32.466  34.968  12.068
54917W        W23135  33.669  30.447   0.282
54918W        W23136  24.568  29.644   0.859
54919W        W23137  17.197   8.803   4.680
54920W        W23138  39.237  33.489  13.944
54921W        W23139  33.389  19.123   0.409
54922W        W23140  16.852  16.310   4.019
54923W        W23141   6.699  41.497   1.989
54924W        W23142  13.703  40.662   4.271
54925W        W23143  25.638  23.461  12.310
54926W        W23144   2.963   2.487   3.224
54927W        W23145  24.486  27.987   4.530
54928W        W23146  34.411  17.157  12.049
54929W        W23147   8.930  15.073   4.947
54930W        W23148  42.914  44.838   3.281
54931W        W23149  25.652  16.342  13.825
54932W        W23150  27.019  10.300   2.276
54933W        W23151   9.401  42.892  14.086
54934W        W23152  41.786  21.078   0.470
54935W        W23153  34.436   2.063  11.139
54936W        W23154  23.194  14.345   0.369
54937W        W23155   8.111  36.664   1.273
54938W        W23156   7.385  13.196   4.945
54939W        W23157  14.251   6.429  11.010
54940W        W23158  14.826  40.540   1.898
54941W        W23159  44.023   6.131   2.677
54942W        W23160  15.529  24.302   0.409
54943W        W23161   0.463   9.177   3.552
54944W        W23162   4.684  32.181  10.752
54945W        W23163  27.132  11.758   2.265
54946W        W23164   7.232   4.930   0.299
54947W        W23165  28.664  27.480  12.098
54948W        W23166  24.058  33.623  11.304
54949W        W23167   6.348  25.951  13.046
54950W        W23168   6.637  28.638  13.467
54951W        W23169  27.631   6.948  13.200
54952W        W23170  26.226  38.896   0.712
54953W        W23171  19.416  12.525   2.759
54954W        W23172   9.194  44.302   0.864
54955W        W23173  43.257  38.853   4.695
54956W        W23174  34.374   7.026  11.994
54957W        W23175  11.854  25.014  12.950
54958W        W23176  32.910  23.039  10.713
54959W        W23177   7.884   8.686  11.664
54960W        W23178  40.440  30.108  10.589
54961W        W23179   5.385  22.002  14.285
54962W        W23180   6.409  23.197   0.279
54963W        W23181  43.762  18.328  10.686
54964W        W23182  22.794  36.552   4.045
54965W        W23183  15.679  32.396   4.618
54966W        W23184  35.693  25.881   2.053
54967W        W23185  12.946  38.997  12.326
54968W        W23186  36.449   5.307  11.221
54969W        W23187  14.886  38.512   0.953
54970W        W23188  34.575   0.273   2.399
54971W        W23189  37.266   6.364  10.772
54972W        W23190  10.299  38.580  10.920
54973W        W23191  24.520  13.055   0.781
54974W        W23192  14.223  42.001  10.739
54975W        W23193  37.395  16.188  11.269
54976W        W23194  28.723  13.675  14.837
54977W        W23195  31.897   7.493   4.052
54978W        W23196  31.635  25.224  12.726
54979W        W23197  37.464  36.557  10.940
54980W        W23198  33.977  36.338  11.248
54981W        W23199  14.886  35.880  14.474
54982W        W23200  41.659  27.923  13.827
54983W        W23201   8.705  18.150   2.737
54984W        W23202  22.982  13.436   3.721
54985W        W23203  36.369  19.237  13.031
54986W        W23204  18.975  20.040   2.765
54987W        W23205  26.700  29.167   1.460
54988W        W23206  31.743  14.734   0.310
54989W        W23207  20.505  36.354  14.934
54990W        W23208   2.343  13.239  13.465
54991W        W23209  35.903  33.761   3.604
54992W        W23210  31.177   1.779   1.427
54993W        W23211   5.978  41.268   3.761
54994W        W23212   5.061  18.098  13.913
54995W        W23213  35.473   3.328   2.819
54996W        W23214  36.424   5.495  12.602
54997W        W23215  35.843   9.203   0.871
54998W        W23216   3.716  34.323   0.927
54999W        W23217  22.825  13.204   2.250
55000W        W23218  26.670  33.309  14.116
55001W        W23219  28.250  32.027  14.949
55002W        W23220  28.748  11.712   2.838
55003W        W23221  16.307  35.423   0.914
55004W        W23222  25.313  14.891  10.637
55005W        W23223  31.540  43.730  14.794
55006W        W23224  39.146  22.133   0.014
55007W        W23225  30.533  11.391  14.773
55008W        W23226  22.170  37.559   1.973
55009W        W23227  29.778   6.850  14.174
55010W        W23228   0.906   4.239  12.217
55011W        W23229  20.074  12.090   3.163
55012W        W23230  39.309   9.732  11.623
55013W        W23231  43.255  41.557   4.777
55014W        W23232   0.797  32.269   2.796
55015W        W23233  23.520  42.259   1.354
55016W        W23234  23.429  23.631  11.974
55017W        W23235  27.685   6.207  14.012
55018W        W23236   5.653  33.236  11.669
55019W        W23237  24.483  30.322   0.183
55020W        W23238   1.106  21.427  14.094
55021W        W23239  30.001  33.426   0.462
55022W        W23240  15.377   4.450  11.982
55023W        W23241  20.151  35.013  14.414
55024W        W23242  31.083   9.858  11.538
55025W        W23243  30.898   6.155   0.450
55026W        W23244  38.193  34.953   0.218
55027W        W23245  20.225  40.050   2.201
55028W        W23246  33.105  19.513   2.266
55029W        W23247  25.464  31.162   3.683
55030W        W23248  23.041  15.619   3.179
55031W        W23249  31.209  30.732  11.192
55032W        W23250  24.487  26.702  10.830
55033W        W23251  15.279   8.846   0.344
55034W        W23252  12.760  30.501   1.022
55035W        W23253  10.182  43.829   1.082
55036W        W23254  44.386  26.986  12.092
55037W        W23255  34.545  37.060   2.767
55038W        W23256  10.437  21.785   2.693
55039W        W23257  27.210   6.683   3.707
55040W        W23258   2.748  40.501  11.424
55041W        W23259   3.849  38.368  11.442
55042W        W23260  37.958  29.067   2.891
55043W        W23261  38.280  36.378  11.667
55044W        W23262  16.409  30.433   0.849
55045W        W23263   4.696  31.309   4.531
55046W        W23264   6.720  16.948  13.543
55047W        W23265  32.671  33.273  10.638
55048W        W23266  16.159  34.925   2.584
55049W        W23267  15.569   9.261  14.946
55050W        W23268  41.748  18.029   2.385
55051W        W23269  29.133  18.191   2.752
55052W        W23270   6.084  31.145   4.192
55053W        W23271  39.156  13.834   1.894
55054W        W23272  34.618  24.673   0.224
55055W        W23273  15.277  36.736   3.664
55056W        W23274  43.392  15.269  11.172
55057W        W23275   9.170  42.976  12.864
55058W        W23276   3.932  34.882  13.368
55059W        W23277  32.941  13.078   3.210
55060W        W23278  39.072  40.866   1.402
55061W        W23279  29.766  22.208  13.020
55062W        W23280  35.898   5.424   1.487
55063W        W23281  18.580  12.560  11.399
55064W        W23282  20.513  26.260  14.944
55065W        W23283  15.304   2.047   3.750
55066W        W23284   9.846   1.037  13.645
55067W        W23285  33.055   3.159   5.355
55068W        W23286   1.524  35.555   3.807
55069W        W23287  35.046  12.383   2.317
55070W        W23288  34.574   2.470  12.210
55071W        W23289  11.271  16.264  11.885
55072W        W23290  38.096  10.565  12.487
55073W        W23291  32.125   9.885   9.887
55074W        W23292  33.874   6.788   4.781
55075W        W23293  23.637  41.737   3.117
55076W        W23294  22.742  30.736  11.010
55077W        W23295   5.403   6.613  13.842
55078W        W23296  33.505  13.281   0.855
55079W        W23297   6.869  16.138   5.037
55080W        W23298   9.196  41.474   2.432
55081W        W23299  24.762  44.772   1.106
55082W        W23300   1.677  42.055  13.929
55083W        W23301  26.354  21.216   2.295
55084W        W23302   1.276  26.277   4.609
55085W        W23303  25.766  29.902   0.291
55086W        W23304  11.367   6.933   1.772
55087W        W23305  27.944  17.544  13.465
55088W        W23306   0.487  38.570  12.025
55089W        W23307  12.676  15.307   0.726
55090W        W23308   1.356  32.367  10.730
55091W        W23309  14.778  10.119  12.000
55092W        W23310  40.076  26.431  11.299
55093W        W23311  25.479  28.058  14.730
55094W        W23312  40.725  27.540   3.392
55095W        W23313   9.212  41.858   4.168
55096W        W23314  19.502  33.465  14.503
55097W        W23315  22.471   7.076   2.400
55098W        W23316   6.712  10.703  14.709
55099W        W23317   4.001  35.317   1.729
55100W        W23318  35.038  37.839   0.261
55101W        W23319  17.570  24.035   0.909
55102W        W23320   9.272  17.527  14.341
55103W        W23321   5.475  28.460   1.855
55104W        W23322   8.755  40.865   4.578
55105W        W23323  29.580  11.335  10.348
55106W        W23324  10.211  10.668   4.902
55107W        W23325  21.627   5.435  14.385
55108W        W23326  14.080  33.841  10.554
55109W        W23327  35.195  21.299   2.858
55110W        W23328  10.759   4.458  14.976
55111W        W23329  16.864  31.389   0.900
55112W        W23330   3.319  17.606   0.464
55113W        W23331  14.071  32.549   0.761
55114W        W23332  11.687  29.384   0.444
55115W        W23333  43.172  37.537   2.328
55116W        W23334  20.439   3.823  13.508
55117W        W23335  30.797  40.752   1.256
55118W        W23336  30.576  17.529  10.666
55119W        W23337  36.973  17.306   0.569
55120W        W23338  10.781  14.792   0.913
55121W        W23339  16.605   1.241   3.918
55122W        W23340  24.021  40.066  12.125
55123W        W23341  44.383   6.369  14.899
55124W        W23342  14.591  35.449  11.126
55125W        W23343   6.665  13.361  12.320
55126W        W23344  15.373  27.445  13.494
55127W        W23345   8.622   9.309  13.772
55128W        W23346   2.121  35.669   2.212
55129W        W23347   4.909   5.746   1.121
55130W        W23348  35.381   5.349  12.444
55131W        W23349   3.365  44.424   1.504
55132W        W23350  38.112  44.759   1.408
55133W        W23351   4.614  28.717   3.600
55134W        W23352  38.237  12.563   0.352
55135W        W23353  39.914  21.587  11.504
55136W        W23354  24.220   9.938   0.870
55137W        W23355  20.778   8.732   0.282
55138W        W23356   1.461  28.103   1.395
55139W        W23357  29.835  20.029   2.398
55140W        W23358  15.882   5.680  12.465
55141W        W23359  43.369  33.883  14.562
55142W        W23360  40.289   7.191   3.209
55143W        W23361   8.730  38.432   4.303
55144W        W23362  33.909  19.149  13.541
55145W        W23363  44.567  22.979   2.001
55146W        W23364  14.358  44.964  13.405
55147W        W23365  33.918   6.927  12.373
55148W        W23366  26.666  35.343  13.176
55149W        W23367  40.314  21.907   4.280
55150W        W23368  33.184  36.662  12.445
55151W        W23369  18.776  22.040   2.834
55152W        W23370  15.315  34.538   1.488
55153W        W23371  23.762   6.782   0.371
55154W        W23372   5.873  21.656  12.218
55155W        W23373  25.465  10.131  11.512
55156W        W23374  44.404  29.493   4.628
55157W        W23375  11.094  38.990   3.180
55158W        W23376  23.682  15.829  14.960
55159W        W23377  13.376  41.961   4.578
55160W        W23378  24.597  28.699  10.469
55161W        W23379  28.123  20.166  11.423
55162W        W23380  19.883  16.622  14.775
55163W        W23381  26.705  35.622   0.430
55164W        W23382  31.976  27.428  12.475
55165W        W23383  21.105  43.003   0.319
55166W        W23384   5.679  27.690   0.430
55167W        W23385  21.977  25.628  13.559
55168W        W23386  44.694   0.789  11.983
55169W        W23387   3.147  24.097   2.553
55170W        W23388  11.282  24.602  14.441
55171W        W23389  38.988  12.117  14.143
55172W        W23390  36.444  29.383  12.450
55173W        W23391  16.847  40.939   4.648
55174W        W23392   3.655  32.943  13.266
55175W        W23393   3.352  33.282  12.998
55176W        W23394  36.491   0.508  12.034
55177W        W23395  11.270  13.244   4.129
55178W        W23396  31.144  20.417   3.821
55179W        W23397  33.660  15.716  14.804
55180W        W23398  33.755  21.475   1.421
55181W        W23399  32.903  37.502   3.939
55182W        W23400  33.504  34.867  12.525
55183W        W23401  19.709  23.083   2.264
55184W        W23402  11.228  20.009  12.032
55185W        W23403  14.057   4.204   3.852
55186W        W23404  24.613  29.622   3.026
55187W        W23405   9.328   1.318   3.129
55188W        W23406  43.246   1.279  11.859
55189W        W23407  37.084  13.350   0.506
55190W        W23408   6.983  13.734  12.522
55191W        W23409  19.463   8.713   3.407
55192W        W23410  24.923  32.417   1.212
55193W        W23411  31.015  27.930  13.559
55194W        W23412  17.535   2.766   1.962
55195W        W23413  10.734  40.650   1.997
55196W        W23414  39.786  31.984   4.476
55197W        W23415  28.520  16.751   9.710
55198W        W23416  14.384   4.138   0.377
55199W        W23417  20.990  18.267  10.741
55200W        W23418  18.596  22.837   0.943
55201W        W23419   8.902  41.211  13.001
55202W        W23420  13.782   1.204  13.048
55203W        W23421  14.770  26.960   0.817
55204W        W23422  12.814   8.421  11.119
55205W        W23423   1.457  18.497  14.058
55206W        W23424   0.539  39.753  11.132
55207W        W23425   4.285  39.197   2.784
55208W        W23426  14.503  44.588  11.676
55209W        W23427   4.012  11.139  10.997
55210W        W23428  23.589  26.463   0.386
55211W        W23429  34.572   9.748   2.428
55212W        W23430  30.954   0.175  14.228
55213W        W23431   2.496  36.528  13.882
55214W        W23432  13.883  28.980   3.216
55215W        W23433  15.859   9.902  12.491
55216W        W23434   1.695  28.045   0.849
55217W        W23435  36.959   9.205   4.181
55218W        W23436   7.400  21.537  14.488
55219W        W23437  24.766  19.211   3.265
55220W        W23438  19.921  16.623  13.438
55221W        W23439  17.527  13.505   4.328
55222W        W23440  42.170  22.301  14.841
55223W        W23441   6.871   5.637   2.642
55224W        W23442  19.046   1.793  12.104
55225W        W23443   5.656  11.318  10.521
55226W        W23444  33.497  21.155   3.637
55227W        W23445  37.648  44.280  11.589
55228W        W23446  14.735  11.133  11.107
55229W        W23447  38.316  31.895  11.983
55230W        W23448  32.007  43.620  14.549
55231W        W23449   8.618  19.825  14.841
55232W        W23450  23.000  24.580   4.154
55233W        W23451  12.815  32.957  14.741
55234W        W23452  25.018   5.681  13.923
55235W        W23453  28.164  43.996  11.558
55236W        W23454   8.186  21.880   1.272
55237W        W23455  31.736  28.504  11.220
55238W        W23456  40.941   3.736  12.923
55239W        W23457   2.225  35.151  14.408
55240W        W23458  35.995   4.798   3.272
55241W        W23459  28.413   2.370  14.753
55242W        W23460  43.384  12.344   4.972
55243W        W23461  21.965  34.018  13.216
55244W        W23462  34.016  31.361  11.666
55245W        W23463  10.365  34.791  11.130
55246W        W23464  37.112  28.189  10.689
55247W        W23465  39.433  34.808   0.556
55248W        W23466  25.500  11.847  13.833
55249W        W23467  24.618   7.162  10.444
55250W        W23468  28.991  40.978  12.892
55251W        W23469  28.553  40.959   0.901
55252W        W23470  14.631  14.799  14.643
55253W        W23471  25.204  11.405   0.582
55254W        W23472  22.149  39.543   2.218
55255W        W23473  17.850  17.659   0.676
55256W        W23474  10.191  12.696   2.021
55257W        W23475  17.071  38.900  12.309
55258W        W23476   9.321  40.748  12.344
55259W        W23477  13.682   8.895   4.406
55260W        W23478  34.014  20.135   1.157
55261W        W23479  30.563  29.673   0.254
55262W        W23480   8.193  12.896  11.536
55263W        W23481  39.777  20.570   4.745
55264W        W23482  33.102  10.563   4.346
55265W        W23483  30.293   4.667   0.310
55266W        W23484  12.040  42.779  10.165
55267W        W23485  15.565  31.912   3.374
55268W        W23486  13.094  30.582   3.229
55269W        W23487  40.775  35.620   2.690
55270W        W23488  18.622   0.733  14.874
55271W        W23489  41.857  26.451  13.841
55272W        W23490  34.157  32.621  13.116
55273W        W23491  32.910  16.224   0.847
55274W        W23492  42.757  43.710  13.907
55275W        W23493  15.724  44.413  13.895
55276W        W23494  19.116  28.176  12.857
55277W        W23495   6.325  32.107  13.224
55278W        W23496   2.276  12.700  10.638
55279W        W23497   5.378  19.822   4.930
55280W        W23498  44.098  26.776  14.824
55281W        W23499  31.051   7.634  14.088
55282W        W23500   5.621  43.276  11.557
55283W        W23501  30.176  25.470  10.797
55284W        W23502   8.253   0.258   1.328
55285W        W23503  41.346  11.413   2.401
55286W        W23504  19.178  41.424   3.187
55287W        W23505  21.168  20.496   4.608
55288W        W23506  12.311  23.161  12.670
55289W        W23507   4.714   0.307   1.259
55290W        W23508  22.067  33.412   0.451
55291W        W23509  32.834  25.196   0.012
55292W        W23510  39.881  12.878  11.578
55293W        W23511  10.066   0.263  14.329
55294W        W23512  13.937  36.186  13.561
55295W        W23513   1.375  40.239   1.030
55296W        W23514  25.158  12.059  14.966
55297W        W23515   9.865  20.081  12.374
55298W        W23516  29.209  23.137   0.836
55299W        W23517  20.214  15.568  12.844
55300W        W23518  16.479   1.659  12.833
55301W        W23519  44.296  12.143  14.781
55302W        W23520   4.203  25.193  11.224
55303W        W23521   0.777   0.417   2.249
55304W        W23522  33.371   2.495   2.391
55305W        W23523  41.361  38.212  13.400
55306W        W23524   9.819  19.595  13.955
55307W        W23525  30.077  17.448  10.725
55308W        W23526  22.633  37.782   2.074
55309W        W23527  31.640  28.111   4.477
55310W        W23528  40.227  43.273   1.652
55311W        W23529  27.013   0.760   4.286
55312W        W23530  21.749  37.894   1.997
55313W        W23531  43.265  35.300   1.190
55314W        W23532  39.389   3.679   5.457
55315W        W23533  33.051  30.990   9.743
55316W        W23534  36.019   0.689  13.603
55317W        W23535  38.374  23.814  14.431
55318W        W23536   9.470  30.098   0.364
55319W        W23537   9.327  29.571  13.406
55320W        W23538  10.155  42.870  13.618
55321W        W23539   3.450  37.996  14.860
55322W        W23540  31.555  43.984  10.308
55323W        W23541  36.440  12.738   1.433
55324W        W23542  36.991  28.475   0.032
55325W        W23543  35.069   6.888   4.152
55326W        W23544   1.980  34.918   4.801
55327W        W23545  30.833  42.295   4.631
55328W        W23546   2.414  11.775   1.835
55329W        W23547   2.327   6.400   1.791
55330W        W23548  16.311  18.786  13.815
55331W        W23549  30.967  34.343  13.551
55332W        W23550  44.840  21.654   3.282
55333W        W23551  13.428  23.738  14.932
55334W        W23552  44.647  19.710  12.084
55335W        W23553  43.372  19.806  12.574
55336W        W23554  42.053  14.860  12.730
55337W        W23555  16.009  31.443  14.352
55338W        W23556   0.040   0.987   0.464
55339W        W23557  11.152  34.037  13.311
55340W        W23558  31.818  20.255  11.502
55341W        W23559  19.939   1.432   4.460
55342W        W23560   3.472  13.766   4.561
55343W        W23561  42.467   6.593  13.476
55344W        W23562  26.723  23.209  11.004
55345W        W23563  24.424  28.952   2.934
55346W        W23564  23.722  27.980  11.787
55347W        W23565   6.232  19.791  13.296
55348W        W23566  23.471   5.920   3.715
55349W        W23567  17.977   1.535   1.353
55350W        W23568  39.312  26.714  14.530
55351W        W23569  43.278  28.517  12.150
55352W        W23570   6.487  32.145  10.734
55353W        W23571   3.994  10.195   4.521
55354W        W23572  24.196  15.228   1.876
55355W        W23573  31.283  41.428   2.219
55356W        W23574  42.786  12.384  14.207
55357W        W23575  25.619  28.645   4.890
55358W        W23576  27.113  16.370  14.536
55359W        W23577  39.850  18.270   1.404
55360W        W23578  40.262   6.451  13.820
55361W        W23579  30.914  39.477   3.299
55362W        W23580  17.419  27.306  14.895
55363W        W23581  15.797  39.400  13.073
55364W        W23582  15.343  25.731  13.940
55365W        W23583   1.764  19.690  12.076
55366W        W23584  30.577  39.996  12.502
55367W        W23585  44.341  43.270   0.928
55368W        W23586  22.547  28.105   3.275
55369W        W23587  29.258   6.541  10.300
55370W        W23588   4.442   4.113   1.698
55371W        W23589   4.533  15.040  11.913
55372W        W23590  42.920  30.002   0.455
55373W        W23591   3.732   9.666  11.832
55374W        W23592  44.059   8.759   1.810
55375W        W23593  18.473  36.824   3.986
55376W        W23594  41.618  19.261   3.175
55377W        W23595  17.508  12.606  13.430
55378W        W23596  38.117   5.739  13.123
55379W        W23597  31.858  34.733   4.478
55380W        W23598  34.775  22.232   0.727
55381W        W23599  31.093  42.392   3.227
55382W        W23600  44.176  35.837  10.920
55383W        W23601  19.112   2.355   0.338
55384W        W23602   9.889  41.373  12.451
55385W        W23603  24.125   8.613   4.547
55386W        W23604  17.137   1.766  11.135
55387W        W23605  23.062   6.428   0.830
55388W        W23606  21.758  39.533   0.363
55389W        W23607  32.859  24.957   1.487
55390W        W23608  14.434  36.197  13.694
55391W        W23609  29.251  36.531  11.976
55392W        W23610  18.334  28.003   4.949
55393W        W23611   0.795  44.814  12.859
55394W        W23612  18.506  14.275  10.744
55395W        W23613  11.640  16.692  13.447
55396W        W23614   9.294  26.554   3.568
55397W        W23615  14.727  44.689  11.225
55398W        W23616  21.227  44.250  10.726
55399W        W23617  14.769  23.990  11.676
55400W        W23618  17.675   1.490   0.252
55401W        W23619  24.074  19.944  14.374
55402W        W23620  27.918  19.713  11.807
55403W        W23621  43.392  10.830   2.441
55404W        W23622  34.846  26.210   2.106
55405W        W23623  36.662   3.714   3.275
55406W        W23624  40.741  14.320  11.565
55407W        W23625  30.142  24.193  14.462
55408W        W23626  34.834  25.801   1.806
55409W        W23627  38.545  12.147  12.583
55410W        W23628  34.182  16.642  13.917
55411W        W23629  21.438  37.568   2.681
55412W        W23630  23.799  36.708   0.352
55413W        W23631  18.580  42.812  14.255
55414W        W23632  26.548  38.380   1.909
55415W        W23633  35.955  11.515   0.495
55416W        W23634  16.442  38.406  14.434
55417W        W23635   3.413  22.752   2.635
55418W        W23636  38.992  28.037   5.077
55419W        W23637  40.210  33.173   2.754
55420W        W23638  20.245  19.588   0.669
55421W        W23639  29.696   7.643   1.355
55422W        W23640   8.814  21.236  10.440
55423W        W23641   8.075  33.312  13.827
55424W        W23642  30.632   2.001  10.233
55425W        W23643  38.024  31.202   3.820
55426W        W23644  23.419  44.239   2.310
55427W        W23645  15.490  44.045  13.177
55428W        W23646  43.837  15.408   4.263
55429W        W23647  37.538  44.341  12.461
55430W        W23648  16.558   9.399   4.362
55431W        W23649  15.278   2.975   4.251
55432W        W23650  39.136  23.244  11.091
55433W        W23651  42.474  31.262  14.886
55434W        W23652  23.223  25.610  14.814
55435W        W23653  34.040  41.485  11.356
55436W        W23654  20.960  13.217  12.497
55437W        W23655   9.353  34.198   3.233
55438W        W23656   6.506  44.948  12.084
55439W        W23657   0.281   6.888  14.455
55440W        W23658  41.537  18.244   4.126
55441W        W23659  19.732  20.256   0.002
55442W        W23660  13.341  11.328   0.233
55443W        W23661  33.959   7.699  13.438
55444W        W23662   7.219  33.174   0.713
55445W        W23663  25.308  39.902  11.716
55446W        W23664  26.483  19.622   3.295
55447W        W23665  17.399  28.664  11.548
55448W        W23666  12.382  22.610   4.370
55449W        W23667  13.292  16.180   2.298
55450W        W23668   6.771   9.410  11.116
55451W        W23669  21.333  27.517   1.290
55452W        W23670  11.174  28.854   1.729
55453W        W23671  18.531   7.376   3.183
55454W        W23672   0.239  44.954  11.590
55455W        W23673  27.349  18.105   1.387
55456W        W23674  25.527  40.432   3.925
55457W        W23675  37.746   1.856  12.584
55458W        W23676  21.601  11.131  12.045
55459W        W23677  17.163  39.123  10.875
55460W        W23678  31.536  10.628   1.181
55461W        W23679   1.537  24.603  14.470
55462W        W23680  21.628  32.061  14.296
55463W        W23681  23.424  15.981  12.032
55464W        W23682   6.238   2.398   0.527
55465W        W23683  28.547  33.302   2.341
55466W        W23684   9.919   8.623   2.711
55467W        W23685  36.503   6.669  12.526
55468W        W23686  23.067   8.371  14.066
55469W        W23687  11.147   6.805   2.243
55470W        W23688  33.147  22.544   2.006
55471W        W23689  15.320   3.200   9.891
55472W        W23690  40.412  20.581   4.275
55473W        W23691  12.243  25.775  14.358
55474W        W23692  18.202  17.235  13.467
55475W        W23693  28.313  39.205  12.829
55476W        W23694  35.480  35.929   3.642
55477W        W23695   5.126  38.127   3.728
55478W        W23696  22.498  15.259  13.020
55479W        W23697  35.612  27.132  12.000
55480W        W23698   2.795  19.519  13.936
55481W        W23699  21.059   8.963   3.760
55482W        W23700   3.067  42.325   5.117
55483W        W23701  32.924  43.051   1.889
55484W        W23702  21.097  43.763   3.317
55485W        W23703   0.478  12.725  13.873
55486W        W23704  11.306  11.289   2.046
55487W        W23705  20.206  20.304   2.224
55488W        W23706  38.695  16.811   1.424
55489W        W23707  19.976  34.486   2.794
55490W        W23708  36.897   9.876   3.187
55491W        W23709  17.761  20.272  11.077
55492W        W23710  23.554  33.353  10.572
55493W        W23711   6.225  40.843   3.574
55494W        W23712  15.669  39.591  11.123
55495W        W23713  30.231  38.071  13.273
55496W        W23714  35.579  32.814   3.570
55497W        W23715   6.389  33.547  12.931
55498W        W23716  37.732  22.348  12.496
55499W        W23717  18.093  13.103  11.166
55500W        W23718   9.732  41.094  14.769
55501W        W23719   5.304  41.764   4.072
55502W        W23720   9.858  21.294  14.401
55503W        W23721  30.056  38.558   0.451
55504W        W23722   9.130   6.324   0.804
55505W        W23723   8.662  31.449  13.470
55506W        W23724   0.866  22.132   4.651
55507W        W23725   5.401  14.681   0.764
55508W        W23726  43.806  30.492   4.136
55509W        W23727  38.451  38.103   1.459
55510W        W23728  42.031  40.388  13.191
55511W        W23729  37.520   6.110  11.728
55512W        W23730   3.807  14.666   4.983
55513W        W23731  30.102  26.151  12.564
55514W        W23732  37.009  12.374  13.936
55515W        W23733  41.492  37.074   2.092
55516W        W23734  25.621  17.678   1.585
55517W        W23735   6.240  24.193   4.603
55518W        W23736  24.228  44.352  12.131
55519W        W23737  36.065  15.155   3.341
55520W        W23738  37.083  30.988   4.723
55521W        W23739  38.691  20.612   1.776
55522W        W23740  22.519  20.878  10.185
55523W        W23741   7.419  24.594   2.659
55524W        W23742  12.851  18.154   0.010
55525W        W23743   4.681   9.286   3.125
55526W        W23744  38.569  24.309  14.422
55527W        W23745  38.916  26.741  12.980
55528W        W23746  36.845  34.722  12.281
55529W        W23747  13.223   8.889   3.772
55530W        W23748  32.380  25.873  10.070
55531W        W23749  29.123   9.354   0.228
55532W        W23750  23.404  35.354   4.619
55533W        W23751   5.863  20.988  10.639
55534W        W23752   0.324  24.173   4.763
55535W        W23753  44.184  10.581   0.906
55536W        W23754  33.019  23.416   3.265
55537W        W23755  15.712  27.026   2.196
55538W        W23756   1.069  23.751   0.257
55539W        W23757  12.197  40.567   1.800
55540W        W23758  12.457  31.361   2.867
55541W        W23759  12.985   0.994   3.662
55542W        W23760   2.524   4.785   3.731
55543W        W23761  20.367  11.685   0.406
55544W        W23762   1.281  16.241   4.428
55545W        W23763   9.829  20.060   3.669
55546W        W23764  42.842  31.628   4.753
55547W        W23765  42.713   8.853  11.473
55548W        W23766  18.511  35.672  10.306
55549W        W23767  27.226  28.379   1.764
55550W        W23768  44.328  44.247  13.063
55551W        W23769  25.393  12.160   2.662
55552W        W23770   9.244  42.446   9.957
55553W        W23771  33.442  27.949  14.181
55554W        W23772  35.061  10.622  12.434
55555W        W23773  32.636  12.688   1.922
55556W        W23774  29.449  34.442  12.639
55557W        W23775  44.848  23.588  12.196
55558W        W23776  16.928   2.249   1.346
55559W        W23777  44.936  25.186   2.707
55560W        W23778  35.381   9.739  14.350
55561W        W23779  29.475  38.891  14.789
55562W        W23780  30.094  32.359   1.337
55563W        W23781  43.441   4.919  14.815
55564W        W23782  40.970  12.066   0.276
55565W        W23783  20.903  27.236   1.925
55566W        W23784  19.182  16.893  10.609
55567W        W23785   7.836  15.324   4.964
55568W        W23786  30.061  10.560  14.003
55569W        W23787  27.797  40.231   4.917
55570W        W23788  33.915  41.657   1.403
55571W        W23789  23.652  22.292  10.274
55572W        W23790   4.732  16.597   0.338
55573W        W23791  26.033  18.221  11.605
55574W        W23792  41.391  24.703  14.460
55575W        W23793  17.724  22.760  13.736
55576W        W23794  24.155  35.969  10.678
55577W        W23795  16.233  32.526  14.227
55578W        W23796  36.748  41.060  14.643
55579W        W23797   9.175  15.088   0.518
55580W        W23798  19.303  22.724   3.384
55581W        W23799  11.094  21.743   2.209
55582W        W23800  26.956  31.065   1.383
55583W        W23801  38.510  27.543   0.002
55584W        W23802  20.120  16.078   1.330
55585W        W23803  29.009   1.558   1.141
55586W        W23804  22.376  35.892  13.017
55587W        W23805  13.667   0.273  13.305
55588W        W23806   3.877  22.340  10.175
55589W        W23807  14.748  15.354  10.476
55590W        W23808  23.750  35.879  14.270
55591W        W23809  34.456  30.678  12.498
55592W        W23810  20.271   7.871   0.780
55593W        W23811  40.268  37.837   2.838
55594W        W23812  26.622  16.508  12.031
55595W        W23813  21.273   1.887  12.417
55596W        W23814  35.370  12.032   0.343
55597W        W23815  30.395  16.160   4.271
55598W        W23816  34.455   6.054   3.166
55599W        W23817   2.196  44.492   0.299
55600W        W23818   6.734  31.444   0.760
55601W        W23819  33.973  13.354  13.467
55602W        W23820  18.150  38.182  14.492
55603W        W23821  33.905  10.299  12.417
55604W        W23822  29.362  25.654  14.365
55605W        W23823   2.620  24.485   0.256
55606W        W23824  16.590  40.327  13.077
55607W        W23825  20.065   3.827   2.922
55608W        W23826  16.114  16.743  14.073
55609W        W23827  24.990  39.808  13.115
55610W        W23828   7.668  27.164  11.403
55611W        W23829  32.299  12.331   2.366
55612W        W23830  21.494  33.096  11.622
55613W        W23831  35.462  33.392   0.704
55614W        W23832  18.659   2.510  13.457
55615W        W23833  26.431  42.958   1.667
55616W        W23834  34.773  44.892   1.271
55617W        W23835  38.797  28.338  13.359
55618W        W23836  17.149  10.248  11.847
55619W        W23837  31.984   0.767   3.638
55620W        W23838  13.872  44.937  13.640
55621W        W23839  27.813  40.452   4.076
55622W        W23840   7.227  40.198  10.306
55623W        W23841  24.664  25.595   1.035
55624W        W23842  22.504  43.766   3.236
55625W        W23843   8.418  33.979   2.568
55626W        W23844   1.585  16.987   1.413
55627W        W23845  25.013  10.725  14.766
55628W        W23846   6.539   8.807   3.193
55629W        W23847  38.880  40.129  12.932
55630W        W23848  15.216  13.368  13.924
55631W        W23849  34.429  30.104  10.739
55632W        W23850  37.837  30.357   4.083
55633W        W23851  33.368  44.172  11.008
55634W        W23852  39.283   4.214  13.949
55635W        W23853  38.100   0.840  12.505
55636W        W23854  19.544   6.835   1.403
55637W        W23855  41.077  23.079   3.746
55638W        W23856  23.171  21.808   0.841
55639W        W23857  30.004  27.602   0.453
55640W        W23858   8.728  29.372   3.271
55641W        W23859  25.457   0.974  12.517
55642W        W23860  18.634  33.974  12.476
55643W        W23861  12.695  24.026   4.174
55644W        W23862   0.872   2.277   4.122
55645W        W23863   7.097  31.105   2.509
55646W        W23864  10.654  39.496   2.571
55647W        W23865  17.089  22.455  12.599
55648W        W23866  18.645   9.907  13.051
55649W        W23867  40.598  14.631  10.275
55650W        W23868  30.128   3.242  11.952
55651W        W23869  18.099  22.634  10.732
55652W        W23870  43.093  36.984   0.810
55653W        W23871   9.191  25.129  13.981
55654W        W23872  11.814  40.816  14.262
55655W        W23873  18.520  31.421   2.358
55656W        W23874  16.678  42.979   3.191
55657W        W23875  19.073   8.790  11.926
55658W        W23876  39.054   4.848   0.369
55659W        W23877   3.392  18.291   1.379
55660W        W23878  40.849  12.913   3.271
55661W        W23879  38.321  44.206   3.254
55662W        W23880   2.300  29.742  13.896
55663W        W23881  40.002  41.318  13.036
55664W        W23882   9.627   6.217   1.041
55665W        W23883  35.080  16.063   4.186
55666W        W23884   3.180  31.123  10.640
55667W        W23885  29.660  19.657   2.760
55668W        W23886   4.896  33.007   4.396
55669W        W23887  10.757  18.035  12.518
55670W        W23888  35.560  13.989  13.102
55671W        W23889  39.805  35.554   0.266
55672W        W23890   8.946  36.478   1.849
55673W        W23891  39.241  24.646   1.709
55674W        W23892  28.429  30.911   0.340
55675W        W23893  26.269   6.455  13.791
55676W        W23894   7.822  42.371   4.134
55677W        W23895  33.234  42.998   4.948
55678W        W23896  28.099  42.956   3.590
55679W        W23897   3.954  10.151  10.696
55680W        W23898  43.495  10.179   0.533
55681W        W23899  16.280  13.305  13.443
55682W        W23900  29.978   6.374   0.184
55683W        W23901  31.075  23.201  11.849
55684W        W23902  31.459  27.214   1.496
55685W        W23903   1.815  11.604   4.178
55686W        W23904   9.325  23.980  14.320
55687W        W23905  19.113  33.617   2.266
55688W        W23906  43.226  13.706  14.915
55689W        W23907  15.800   3.673   4.994
55690W        W23908  23.562  10.774   2.118
55691W        W23909  40.454  36.447   3.895
55692W        W23910   8.616  26.441   0.396
55693W        W23911  11.703  16.210   4.152
55694W        W23912  18.590  20.315   4.252
55695W        W23913   0.767  29.147   1.782
55696W        W23914   3.213  16.279  14.825
55697W        W23915   7.651  17.035  12.130
55698W        W23916  32.431  34.756  14.956
55699W        W23917  18.134  16.146  10.946
55700W        W23918  27.200  42.186  12.093
55701W        W23919  12.344  19.700   3.203
55702W        W23920  42.676  40.664   2.398
55703W        W23921  13.084  32.137   4.081
55704W        W23922  16.763   7.882   3.347
55705W        W23923   7.352  28.505   1.607
55706W        W23924  27.525   3.824   2.597
55707W        W23925  22.616  21.944  12.009
55708W        W23926  16.265   4.819  10.128
55709W        W23927   0.006  44.291  11.726
55710W        W23928  22.760  33.844  11.650
55711W        W23929  38.013  19.093  13.801
55712W        W23930  15.048  30.967  12.850
55713W        W23931  10.867   4.247   1.314
55714W        W23932   2.407  15.027   0.788
55715W        W23933  32.723  36.288   3.106
55716W        W23934  38.363  11.143  12.518
55717W        W23935  41.478  19.093  12.681
55718W        W23936  30.965   6.365  13.412
55719W        W23937   6.472  20.830  10.029
55720W        W23938   7.209  36.684  13.780
55721W        W23939   3.958  14.408  13.556
55722W        W23940  42.998  12.543  14.719
55723W        W23941  17.150   1.772   0.365
55724W        W23942  18.106  43.562  11.920
55725W        W23943  28.622  41.700   2.779
55726W        W23944   9.760  18.133   4.028
55727W        W23945  29.199  14.479  11.959
55728W        W23946   9.681  29.322   0.346
55729W        W23947  14.030  35.007   4.663
55730W        W23948  17.063  16.368   3.547
55731W        W23949  38.622  24.006  13.988
55732W        W23950   8.678  25.029   1.382
55733W        W23951  41.791  29.722  14.366
55734W        W23952  15.056  16.073  11.981
55735W        W23953  36.566  33.841  12.369
55736W        W23954  22.580  42.897  12.266
55737W        W23955  26.561   1.852  13.365
55738W        W23956  28.116  39.073  11.535
55739W        W23957  44.460  39.395   3.913
55740W        W23958  23.226  33.894   3.848
55741W        W23959   4.925  15.689   4.503
55742W        W23960  26.611  15.738  13.768
55743W        W23961   8.813  34.253  14.021
55744W        W23962  21.088  31.041   3.786
55745W        W23963   1.764  13.652   0.393
55746W        W23964  24.103  17.109   1.135
55747W        W23965  41.851  20.812  10.449
55748W        W23966  21.268   2.312   4.994
55749W        W23967  29.547  15.787   3.592
55750W        W23968  20.453   4.746  13.261
55751W        W23969  15.381  11.140  14.985
55752W        W23970   8.033  30.019   0.974
55753W        W23971  40.272  28.007   2.191
55754W        W23972  34.193   0.262   2.764
55755W        W23973   1.449  23.135   4.216
55756W        W23974  32.121  34.518   2.618
55757W        W23975  41.245   3.286  11.059
55758W        W23976  34.580  27.044  11.949
55759W        W23977  43.089  28.156  12.853
55760W        W23978  21.688  35.991   1.150
55761W        W23979   0.927  12.464  14.014
55762W        W23980  38.970  22.091   3.711
55763W        W23981   1.826  10.250   1.376
55764W        W23982  16.340   8.250  12.975
55765W        W23983  11.819  36.104  12.092
55766W        W23984  11.128   8.319  12.037
55767W        W23985   0.187  30.890  14.897
55768W        W23986  25.933  10.863  11.099
55769W        W23987  24.119  26.390   1.226
55770W        W23988  31.512  22.245  14.464
55771W        W23989  23.980  21.641   1.536
55772W        W23990   1.960  20.026   4.026
55773W        W23991  12.097  42.963  14.612
55774W        W23992  25.194   6.706   1.786
55775W        W23993  25.976  15.638  12.016
55776W        W23994   3.273   7.287  14.793
55777W        W23995   1.388  29.372   0.511
55778W        W23996  24.982   6.912   3.529
55779W        W23997   5.977  13.816  11.548
55780W        W23998  33.143  29.353  13.241
55781W        W23999  19.051  15.645   1.256
55782W        W24000  14.026  20.149  14.030
55783W        W24001  16.269  15.976   1.178
55784W        W24002  33.318  28.475   2.718
55785W        W24003  12.704  40.448   4.847
55786W        W24004  44.898  39.293  11.660
55787W        W24005  29.052  24.806   2.605
55788W        W24006  21.776  37.469   2.317
55789W        W24007  40.650  40.919  13.331
55790W        W24008  27.129  23.745   1.785
55791W        W24009  34.062   9.608  11.711
55792W        W24010  32.190  44.554   4.503
55793W        W24011   3.998  44.194  13.316
55794W        W24012   1.996  11.656  11.881
55795W        W24013   4.432  14.641   1.205
55796W        W24014  24.224  11.366  10.760
55797W        W24015  19.802   4.236  12.888
55798W        W24016   5.698   7.205   0.140
55799W        W24017  26.010  26.126  11.675
55800W        W24018   3.285  26.160   0.531
55801W        W24019  38.949  10.834   0.920
55802W        W24020  35.618  44.893   0.944
55803W        W24021  24.444  41.818   2.705
55804W        W24022  43.047  17.268   1.896
55805W        W24023   0.279  18.104   0.437
55806W        W24024  11.269  33.610  13.599
55807W        W24025  14.847  39.612  13.062
55808W        W24026   5.769  10.654   2.290
55809W        W24027  37.461  34.939  13.456
55810W        W24028  43.762   0.499  13.494
55811W        W24029  25.256  11.803   2.300
55812W        W24030  35.163  23.603  10.848
55813W        W24031  20.937  21.165  10.668
55814W        W24032  32.651  11.249   0.970
55815W        W24033  17.333   4.690  12.547
55816W        W24034  10.221  36.922  12.423
55817W        W24035  38.514  21.545  10.894
55818W        W24036  44.275  15.698   0.076
55819W        W24037  26.489  24.903  10.354
55820W        W24038  12.541  12.175  10.571
55821W        W24039  25.132  42.011   2.261
55822W        W24040  36.602  14.137  14.028
55823W        W24041  40.621  36.546   2.200
55824W        W24042  14.746  23.440   0.275
55825W        W24043  40.861  31.124   4.648
55826W        W24044   5.811  35.294   3.882
55827W        W24045  20.035  38.015   3.100
55828W        W24046  32.604  21.095  13.436
55829W        W24047  28.621   7.432  14.613
55830W        W24048  12.694   1.007  12.579
55831W        W24049   9.193  35.051   1.266
55832W        W24050  36.506   7.128  14.748
55833W        W24051  43.304  30.627   4.110
55834W        W24052  32.698   7.755   2.543
55835W        W24053  14.601  25.641  13.296
55836W        W24054   9.180  22.980  13.135
55837W        W24055  28.643  33.202   4.197
55838W        W24056  27.147  37.506  10.452
55839W        W24057  40.028  36.360  10.312
55840W        W24058   8.923   0.991   1.395
55841W        W24059  13.694  30.110  10.818
55842W        W24060  14.791  16.652  12.797
55843W        W24061  32.878  41.499  10.381
55844W        W24062  11.548  23.213   2.484
55845W        W24063  43.338   1.466   0.458
55846W        W24064  27.927  14.081   0.819
55847W        W24065  40.558   6.058   1.238
55848W        W24066  35.328  31.978  10.676
55849W        W24067  40.436  19.939   3.155
55850W        W24068   5.475  44.561   1.842
55851W        W24069   3.031  27.532   0.838
55852W        W24070  18.674   2.151   4.042
55853W        W24071  18.361  33.416  12.977
55854W        W24072  42.826  40.037   3.973
55855W        W24073  33.094  23.515  12.490
55856W        W24074  42.834  23.937   2.786
55857W        W24075   3.176  42.882  10.703
55858W        W24076  18.198   6.966   3.136
55859W        W24077  42.345  24.596  12.448
55860W        W24078   8.384  30.619   2.329
55861W        W24079  22.018   7.290  13.979
55862W        W24080  44.614  18.568   3.878
55863W        W24081  33.586  17.625   1.848
55864W        W24082  33.082  43.239   3.655
55865W        W24083   7.663   5.152  14.511
55866W        W24084  17.599  25.961   4.211
55867W        W24085   9.343  13.166  11.546
55868W        W24086   4.883  31.469   0.614
55869W        W24087  33.229  15.057  13.595
55870W        W24088   9.619  24.239  11.982
55871W        W24089  14.612  29.043  14.993
55872W        W24090   0.386  36.412   2.653
55873W        W24091  28.379  17.187   3.685
55874W        W24092  17.683  16.067   1.357
55875W        W24093  41.598  29.002   2.720
55876W        W24094   6.785  43.072   0.267
55877W        W24095  39.312   4.039   3.175
55878W        W24096  17.578   1.538  11.977
55879W        W24097   6.825  18.572  12.658
55880W        W24098   8.400  15.031   0.968
55881W        W24099  32.562  36.931   1.352
55882W        W24100  38.371  22.705  12.122
55883W        W24101  37.357  19.487  11.073
55884W        W24102  23.019   7.123  13.420
55885W        W24103   5.827  19.005   4.717
55886W        W24104  29.147   8.729   2.158
55887W        W24105  36.994   1.773   9.802
55888W        W24106  25.654   7.428  11.969
55889W        W24107  36.037  19.478   5.031
55890W        W24108  41.805  25.529   0.815
55891W        W24109  39.063  41.141   1.847
55892W        W24110  39.957  36.358  14.748
55893W        W24111  22.824  30.104   1.047
55894W        W24112  23.581  36.215  12.410
55895W        W24113   3.445  28.205   1.417
55896W        W24114   2.412  35.915  13.432
55897W        W24115  35.600  18.364  14.860
55898W        W24116  16.312  35.839   3.347
55899W        W24117  12.802  34.873  14.365
55900W        W24118  33.532   7.679   2.291
55901W        W24119  31.142  38.840  12.714
55902W        W24120  41.491   7.691   3.710
55903W        W24121  38.788  37.932  14.282
55904W        W24122  33.067  25.654  11.941
55905W        W24123  23.572  27.139  12.058
55906W        W24124  18.506   6.387   4.022
55907W        W24125  18.956  11.638  11.594
55908W        W24126  12.683  27.450   2.226
55909W        W24127  28.714  31.447   1.847
55910W        W24128  17.327   8.438   3.887
55911W        W24129  11.094  20.830   4.238
55912W        W24130  16.066  31.983   2.602
55913W        W24131  35.818   2.920   2.841
55914W        W24132   2.372  25.099  12.191
55915W        W24133   1.794  33.440  14.527
55916W        W24134  31.371  37.118   0.883
55917W        W24135   7.255   9.441   0.488
55918W        W24136  31.573  23.529  13.288
55919W        W24137  13.672  12.757  10.467
55920W        W24138  40.570   2.448   2.914
55921W        W24139  42.717  17.657   0.784
55922W        W24140  34.518  33.159   0.719
55923W        W24141  10.264  40.388   4.341
55924W        W24142  28.630  19.532  14.889
55925W        W24143  24.182  12.749  12.975
55926W        W24144  16.509  14.331  13.876
55927W        W24145  39.426  43.503   0.352
55928W        W24146  34.933  13.797   3.884
55929W        W24147  44.768   8.811   2.854
55930W        W24148  33.067  24.372  10.875
55931W        W24149  35.048  24.191   3.599
55932W        W24150  39.465  29.851  11.627
55933W        W24151   8.211  17.781   1.312
55934W        W24152  43.059  40.435  10.556
55935W        W24153  15.043   9.866   0.306
55936W        W24154  31.835  21.331   4.094
55937W        W24155  36.766  26.954  10.126
55938W        W24156   7.727  24.574   1.890
55939W        W24157  32.402  40.473   0.417
55940W        W24158  43.902  44.084   0.376
55941W        W24159  41.997   4.678   0.847
55942W        W24160   9.710   6.319   3.200
55943W        W24161  44.720   2.350   0.011
55944W        W24162   7.740   8.729  12.930
55945W        W24163  42.386  38.341  13.524
55946W        W24164  15.096  17.868  11.158
55947W        W24165  36.671  37.508   2.921
55948W        W24166  33.567   3.936   2.852
55949W        W24167  14.513  17.302  14.934
55950W        W24168  28.558  11.548  10.659
55951W        W24169   3.221  24.060   3.564
55952W        W24170   3.219  32.061   4.883
55953W        W24171   8.212  14.330  14.223
55954W        W24172  10.482  26.747  14.269
55955W        W24173  22.016  38.033   4.335
55956W        W24174  41.744  23.029  13.326
55957W        W24175  18.541   4.185   2.823
55958W        W24176  28.610  32.691   4.305
55959W        W24177  37.119  11.096  11.034
55960W        W24178  11.194  30.502  12.295
55961W        W24179  41.691  25.140  12.556
55962W        W24180  37.489  43.706   4.869
55963W        W24181   5.383  31.009   0.178
55964W        W24182  27.911  25.795   4.145
55965W        W24183   4.955  23.623   2.726
55966W        W24184  42.800  30.754  11.237
55967W        W24185   4.339  27.492  11.417
55968W        W24186  17.760  40.200   3.906
55969W        W24187  15.701  18.735   4.598
55970W        W24188  18.285  30.796  11.256
55971W        W24189  25.117  14.764   1.976
55972W        W24190  22.659   7.883   0.859
55973W        W24191   4.449  21.775   1.726
55974W        W24192  15.591  37.452   0.440
55975W        W24193  24.432  14.099   0.719
55976W        W24194  24.869  12.733   3.829
55977W        W24195  13.134   7.134   4.125
55978W        W24196  38.849  22.600   3.873
55979W        W24197   2.826  43.827   3.212
55980W        W24198  36.690  36.437  14.974
55981W        W24199  43.018  12.644  13.195
55982W        W24200  10.656  39.434  14.242
55983W        W24201  33.912   9.241  12.500
55984W        W24202  12.302  30.974  14.808
55985W        W24203  42.132  19.064   3.833
55986W        W24204   0.713  36.381  14.520
55987W        W24205   1.913   9.911   2.844
55988W        W24206  23.517  12.243  13.755
55989W        W24207  10.054  40.575  13.865
55990W        W24208   4.447   0.568  10.745
55991W        W24209  37.974  43.371  13.003
55992W        W24210   5.572   8.839   4.096
55993W        W24211  28.092  40.907  14.020
55994W        W24212  30.955  17.389  12.193
55995W        W24213  39.881  29.530  11.826
55996W        W24214  19.967   6.399  12.587
55997W        W24215  21.774  13.650   4.099
55998W        W24216  14.680  38.824   0.575
55999W        W24217  32.471  18.428   1.646
56000W        W24218   0.988  40.964  12.999
56001W        W24219  24.107  13.587  13.490
56002W        W24220  26.422   7.899  12.199
56003W        W24221  30.662   4.747  12.819
56004W        W24222   4.707  24.425  14.802
56005W        W24223  12.797  38.980   0.688
56006W        W24224   0.776  42.566   3.124
56007W        W24225  44.900  26.556   4.512
56008W        W24226  14.273  28.230  10.707
56009W        W24227  18.094   6.983  11.307
56010W        W24228  14.637   9.536   1.501
56011W        W24229  37.009  21.861   3.749
56012W        W24230  40.887   4.191  11.930
56013W        W24231   6.669  12.715  14.334
56014W        W24232  29.420   9.524  14.788
56015W        W24233  22.153  20.077  14.032
56016W        W24234   9.756   3.001   4.535
56017W        W24235  28.219  13.490  10.124
56018W        W24236  31.618  14.353   3.472
56019W        W24237  26.621  29.442  14.310
56020W        W24238   7.640  18.377   5.115
56021W        W24239   4.750  28.798  11.538
56022W        W24240   3.162  25.620   2.006
56023W        W24241  28.081  33.291  12.621
56024W        W24242  34.312  22.767  13.742
56025W        W24243  27.089  35.533  10.841
56026W        W24244  39.269   7.735   1.245
56027W        W24245  26.445  28.586  14.343
56028W        W24246  27.681  36.975   1.296
56029W        W24247  11.612  24.562  12.836
56030W        W24248  43.287  38.353   4.109
56031W        W24249  26.116  29.212  13.829
56032W        W24250  30.339  43.527  13.955
56033W        W24251  23.870  18.042   0.494
56034W        W24252  19.638  16.573  11.486
56035W        W24253   4.435   9.101  13.462
56036W        W24254   3.147  24.987   2.166
56037W        W24255  37.036   3.355   2.219
56038W        W24256   7.255  40.588   2.223
56039W        W24257   0.458  27.986   1.399
56040W        W24258  25.049  43.367  10.606
56041W        W24259  36.880  32.645  12.933
56042W        W24260  35.300  33.032  13.879
56043W        W24261  17.578   3.714   1.863
56044W        W24262  42.014   4.860  13.855
56045W        W24263  42.041  18.308   2.717
56046W        W24264  24.874  20.279  13.289
56047W        W24265  13.216  14.650   1.225
56048W        W24266   4.207  28.105  13.031
56049W        W24267  35.615  41.479  11.297
56050W        W24268  23.223  36.512   4.365
56051W        W24269   9.190  40.414   3.660
56052W        W24270  22.217  10.909   1.266
56053W        W24271  37.641  13.894   4.277
56054W        W24272  37.117  28.827  13.537
56055W        W24273  30.109  25.085   4.396
56056W        W24274  41.277   5.348  14.051
56057W        W24275  43.252   3.740   0.844
56058W        W24276  19.120  16.255  14.863
56059W        W24277  12.690  10.824   2.776
56060W        W24278  16.725  31.434   4.550
56061W        W24279  23.453  40.440  13.366
56062W        W24280  38.704  38.896  10.087
56063W        W24281  13.244   3.918  14.976
56064W        W24282  21.252   0.811   0.285
56065W        W24283  13.301   0.964   3.248
56066W        W24284  43.030  17.236   3.143
56067W        W24285  29.890  13.055  10.705
56068W        W24286  44.525  26.639   4.842
56069W        W24287  11.055  41.443  14.894
56070W        W24288   7.426  39.945   3.654
56071W        W24289   2.319  38.560  10.742
56072W        W24290   5.474  26.411   1.055
56073W        W24291  26.788   5.748   0.434
56074W        W24292   3.877  10.747  12.864
56075W        W24293  24.269  35.964   0.042
56076W        W24294  15.575   0.838   3.340
56077W        W24295  18.045  22.018   4.121
56078W        W24296  13.349  32.562  10.594
56079W        W24297  15.069   4.096  11.676
56080W        W24298  15.302  32.481  10.742
56081W        W24299  25.175  37.081   0.194
56082W        W24300  42.121  30.499  11.054
56083W        W24301   5.079  38.161  12.557
56084W        W24302  28.508  19.020   1.763
56085W        W24303  22.554  41.362  10.725
56086W        W24304  26.957  24.003  11.986
56087W        W24305  15.144   9.585  14.811
56088W        W24306  37.715   8.674  12.873
56089W        W24307  29.068   4.929   4.650
56090W        W24308  29.587  38.021  12.444
56091W        W24309  43.963  44.288  11.177
56092W        W24310  31.670  31.480  11.011
56093W        W24311  32.005  13.814  13.653
56094W        W24312  22.057  16.148   0.439
56095W        W24313  42.138  26.592   4.054
56096W        W24314  36.920  15.282  10.671
56097W        W24315  34.188  13.785   2.323
56098W        W24316  10.163  38.530   1.420
56099W        W24317  16.333  32.597  12.765
56100W        W24318  34.395  30.930   3.195
56101W        W24319  11.559   0.254   1.742
56102W        W24320  20.723  40.890   3.618
56103W        W24321  30.873  38.479   2.236
56104W        W24322  44.150  13.742  10.255
56105W        W24323  25.532   6.514   0.506
56106W        W24324  13.267  24.025   0.829
56107W        W24325  31.355   1.297   4.176
56108W        W24326  18.358  32.557   2.252
56109W        W24327   1.479  22.182  10.756
56110W        W24328   3.538  31.781   4.574
56111W        W24329  23.671  32.788  13.828
56112W        W24330  21.384  17.788  12.795
56113W        W24331   0.793  31.020   1.051
56114W        W24332  19.962  19.543   2.621
56115W        W24333  24.195  18.561  14.587
56116W        W24334   8.154  23.710  13.890
56117W        W24335  34.860  14.775  13.550
56118W        W24336  36.470   9.657  14.258
56119W        W24337  19.292   7.239  13.826
56120W        W24338  15.486   8.742   2.680
56121W        W24339   8.389  22.743  14.135
56122W        W24340  23.268  36.895   4.719
56123W        W24341   6.876  28.214   4.137
56124W        W24342  14.564  38.479   4.119
56125W        W24343  31.573   1.860  14.146
56126W        W24344  19.916  21.085  14.791
56127W        W24345  17.911  13.126   4.371
56128W        W24346   0.297  13.535  13.372
56129W        W24347  36.912  18.614   1.629
56130W        W24348  26.424  17.542   4.804
56131W        W24349   1.910  28.114  10.726
56132W        W24350   7.181  38.830   2.399
56133W        W24351  11.712  10.131   3.670
56134W        W24352  12.804  40.427   0.389
56135W        W24353  30.506  13.869  11.478
56136W        W24354  43.581  24.654  12.035
56137W        W24355  25.910  23.613  11.124
56138W        W24356   0.591   7.113  12.415
56139W        W24357  33.273  42.852  11.170
56140W        W24358  38.325   8.370   3.743
56141W        W24359  43.874  35.558   4.578
56142W        W24360  26.141  25.266   5.181
56143W        W24361  33.079   6.752  14.775
56144W        W24362  26.476   1.951   4.136
56145W        W24363   7.409   9.981   3.026
56146W        W24364  38.951   5.258  13.617
56147W        W24365  21.013  31.087   0.312
56148W        W24366  35.022  42.965   3.540
56149W        W24367  25.627  20.608  12.338
56150W        W24368  12.358  34.120  11.088
56151W        W24369  22.258  10.452  14.910
56152W        W24370  25.507  23.445  12.800
56153W        W24371  35.631  31.104  14.008
56154W        W24372  32.220   5.801   0.334
56155W        W24373   3.815  41.963   2.196
56156W        W24374  20.693  18.249  12.169
56157W        W24375   6.686  12.375   4.588
56158W        W24376   6.191  19.544   9.773
56159W        W24377  21.153   5.751   0.492
56160W        W24378  22.724  18.279   4.060
56161W        W24379  38.082   0.414   5.506
56162W        W24380  10.679  21.037  12.404
56163W        W24381  24.101  23.053   1.540
56164W        W24382  36.407  14.083   0.784
56165W        W24383  38.045  35.870  13.192
56166W        W24384  32.997   6.232  11.153
56167W        W24385  26.064   8.283  14.491
56168W        W24386  40.069  28.285   0.621
56169W        W24387   7.386   6.834   2.407
56170W        W24388  41.308  39.437  14.819
56171W        W24389  27.048   3.090   2.755
56172W        W24390  30.737  31.571  12.005
56173W        W24391  13.591   1.453   4.168
56174W        W24392  40.724   6.268   4.377
56175W        W24393  17.154  37.405  12.573
56176W        W24394  29.667  19.778  13.851
56177W        W24395  31.848   7.849   3.565
56178W        W24396   9.871  19.706  13.041
56179W        W24397   8.397   8.633   3.665
56180W        W24398  30.992  36.952  13.510
56181W        W24399  29.046  44.288   4.177
56182W        W24400  41.874   3.847   2.234
56183W        W24401  16.587  42.798   5.090
56184W        W24402  41.059   2.842  14.961
56185W        W24403   2.024  25.683   5.177
56186W        W24404  34.561  13.407   0.886
56187W        W24405   8.296  26.043  10.666
56188W        W24406  22.772   6.923   2.834
56189W        W24407  29.336  19.597  10.751
56190W        W24408  18.202   7.694   1.162
56191W        W24409   9.708   7.419  12.223
56192W        W24410  37.941   1.989  12.136
56193W        W24411  14.274  29.680  14.895
56194W        W24412  34.857  31.911  11.562
56195W        W24413  23.277  20.063   3.156
56196W        W24414  29.451  35.017   0.841
56197W        W24415  24.733   7.714   0.813
56198W        W24416  31.438  23.509   3.645
56199W        W24417  23.451  17.265   2.630
56200W        W24418  29.664  41.987  10.730
56201W        W24419  30.230  40.966   0.358
56202W        W24420  11.304  16.760  12.575
56203W        W24421   5.717  31.073  10.712
56204W        W24422  14.752  43.941  13.794
56205W        W24423  11.308   3.621   1.703
56206W        W24424   3.923   7.507  11.460
56207W        W24425   7.823  40.879   3.220
56208W        W24426  11.307   0.211   2.958
56209W        W24427  20.113   9.251   1.361
56210W        W24428  31.756  10.181   3.159
56211W        W24429  40.988  31.534   0.600
56212W        W24430   9.604  37.238  10.242
56213W        W24431  21.065  32.669   4.485
56214W        W24432  14.644  40.513  11.926
56215W        W24433   7.900  31.142  11.164
56216W        W24434  44.187   6.951  13.404
56217W        W24435  28.390  14.232  11.562
56218W        W24436  42.339  44.080   0.752
56219W        W24437  16.336  28.276   3.226
56220W        W24438  28.477  41.971  11.962
56221W        W24439  43.237  27.723  11.147
56222W        W24440  29.880  40.748   0.652
56223W        W24441  11.114  23.436  13.423
56224W        W24442  30.225   5.270  10.701
56225W        W24443  39.282  30.037  14.526
56226W        W24444  28.647   8.783  11.691
56227W        W24445  43.499   8.111   2.154
56228W        W24446   4.348  40.014  13.105
56229W        W24447  32.641   4.098  12.529
56230W        W24448   3.436  22.557   1.686
56231W        W24449  31.185  14.350  12.663
56232W        W24450  43.519  41.911  11.928
56233W        W24451  29.405  19.694   0.241
56234W        W24452   2.848   1.327  14.093
56235W        W24453   3.906  22.546  10.676
56236W        W24454  42.257  19.075   4.392
56237W        W24455  28.147  18.643   1.688
56238W        W24456  28.866  19.332   0.381
56239W        W24457   7.723  23.453  13.003
56240W        W24458  36.471  27.157   2.399
56241W        W24459  33.530  37.337  14.590
56242W        W24460   6.498   3.947  11.944
56243W        W24461  21.192  37.490  10.717
56244W        W24462  32.099  21.029   0.017
56245W        W24463  41.280  27.654  12.082
56246W        W24464   3.697  23.494   0.616
56247W        W24465   0.348  23.253  14.965
56248W        W24466  13.002  19.097  10.488
56249W        W24467  34.625  26.625   1.824
56250W        W24468  43.203  14.374   9.910
56251W        W24469  36.670  15.192  11.971
56252W        W24470  10.746  25.196  14.843
56253W        W24471  25.545  27.544  12.825
56254W        W24472  31.814  19.476  11.075
56255W        W24473  42.712  31.398   3.326
56256W        W24474  36.284   3.234  14.528
56257W        W24475   8.373  32.190   3.065
56258W        W24476   1.471   3.994  14.343
56259W        W24477  39.587  35.212  11.573
56260W        W24478   0.280  26.357  13.329
56261W        W24479  44.630  39.162  11.236
56262W        W24480   5.276  31.387  11.622
56263W        W24481  15.733   2.713   4.568
56264W        W24482   3.899   2.721   2.335
56265W        W24483   1.510  34.379  14.395
56266W        W24484  27.232  12.121   0.548
56267W        W24485  25.554   6.919  12.067
56268W        W24486  41.276  30.835   3.220
56269W        W24487   4.448  38.343  12.020
56270W        W24488  15.749  36.484   3.599
56271W        W24489  18.119   3.713   5.144
56272W        W24490   7.410   1.495  12.089
56273W        W24491   2.881  40.754   2.283
56274W        W24492  26.361  30.569  11.497
56275W        W24493  10.595  17.269  13.194
56276W        W24494  30.611  42.698  13.956
56277W        W24495  21.296  36.875   0.880
56278W        W24496  38.011  36.731  10.723
56279W        W24497   5.859   1.431   1.597
56280W        W24498   3.503  11.072  11.000
56281W        W24499  15.786  32.905   3.359
56282W        W24500  23.698  17.081   3.347
56283W        W24501   2.392  40.080   4.414
56284W        W24502  42.934  37.497   3.853
56285W        W24503  27.136  44.739   4.311
56286W        W24504  15.770  36.131  12.674
56287W        W24505  26.462   9.412   2.416
56288W        W24506  10.615  44.322   4.185
56289W        W24507  34.792  10.254  11.752
56290W        W24508   3.222   7.349  10.632
56291W        W24509   5.782   1.405  13.376
56292W        W24510  19.215   0.972   0.831
56293W        W24511   5.021   3.535  12.094
56294W        W24512  20.489   6.759   0.580
56295W        W24513   8.536  37.567   4.527
56296W        W24514   0.928  23.404  12.428
56297W        W24515  13.305   2.003  13.489
56298W        W24516   3.964   7.255  11.894
56299W        W24517  43.473   5.212   2.864
56300W        W24518  28.001  44.765   0.407
56301W        W24519  33.976  37.824  14.039
56302W        W24520  17.219  18.061  12.287
56303W        W24521  25.421  38.976   2.947
56304W        W24522  18.603  21.203   0.018
56305W        W24523  14.633   7.191   0.767
56306W        W24524  19.813   2.266  14.534
56307W        W24525   5.600   6.548  13.340
56308W        W24526  23.628   8.278   3.234
56309W        W24527   3.440  17.980   1.773
56310W        W24528  11.571  14.898  11.910
56311W        W24529  26.708   2.005  12.849
56312W        W24530  39.096  20.514  13.962
56313W        W24531  36.605   7.800  11.995
56314W        W24532  11.343  24.450  14.940
56315W        W24533   6.076  33.808   2.426
56316W        W24534  27.970  38.754   1.878
56317W        W24535  25.217  19.967   1.724
56318W        W24536  25.497  33.046  11.359
56319W        W24537   5.736   7.709   0.004
56320W        W24538  12.102   5.932   3.408
56321W        W24539  43.805  20.150  10.768
56322W        W24540  39.317  16.539   0.392
56323W        W24541  31.125  19.138   1.266
56324W        W24542  31.366  28.006  13.969
56325W        W24543   8.864  24.450   3.718
56326W        W24544  32.450   9.469  13.500
56327W        W24545  24.770   3.268  10.678
56328W        W24546  10.419   8.030   0.353
56329W        W24547  36.474  11.117  11.523
56330W        W24548   2.281  22.705   2.694
56331W        W24549  34.402  24.561  13.870
56332W        W24550  11.146  24.955   2.117
56333W        W24551  17.367   0.823   1.332
56334W        W24552  11.992  14.698  12.491
56335W        W24553  43.998  29.193  11.142
56336W        W24554  41.424  37.292  11.191
56337W        W24555   2.722  17.800  12.001
56338W        W24556  27.693  17.752   1.705
56339W        W24557  31.615  25.151  14.306
56340W        W24558  33.558   0.420   3.883
56341W        W24559  12.760  37.560   4.722
56342W        W24560  43.088  34.548   2.993
56343W        W24561   0.681  12.792   1.421
56344W        W24562  26.100  10.590   1.294
56345W        W24563  12.893  20.268   2.756
56346W        W24564   4.834  15.505  13.169
56347W        W24565  16.505   1.973  12.006
56348W        W24566  44.035   4.908  11.167
56349W        W24567  24.226   5.311  14.799
56350W        W24568  15.217  10.594   4.560
56351W        W24569  44.924  26.098   0.595
56352W        W24570   5.927  32.256  11.589
56353W        W24571  37.902   9.468   0.592
56354W        W24572  33.529  25.426  12.720
56355W        W24573   3.533  10.021   0.050
56356W        W24574  15.261   5.407   3.372
56357W        W24575  32.461  19.596  13.366
56358W        W24576   3.641  29.449  14.049
56359W        W24577  30.379  25.530  14.282
56360W        W24578  44.598  44.402  12.044
56361W        W24579  33.423  44.843   1.295
56362W        W24580  43.505  37.613  10.519
56363W        W24581  19.363  34.350  14.517
56364W        W24582  26.752  40.404  12.916
56365W        W24583  42.301  37.833  12.680
56366W        W24584  14.815   0.494  10.752
56367W        W24585  19.248  25.012   1.386
56368W        W24586  25.437  14.404  10.661
56369W        W24587  29.025  36.510   1.243
56370W        W24588  42.472  24.727   2.697
56371W        W24589  24.369  16.633  11.531
56372W        W24590  25.474  41.303   1.439
56373W        W24591   8.333  24.108   1.701
56374W        W24592  27.112  22.419   3.660
56375W        W24593   7.175  41.029  11.465
56376W        W24594  23.860  23.197   9.862
56377W        W24595  19.135   5.099   3.104
56378W        W24596  21.541   9.819   3.940
56379W        W24597  12.408  30.104   1.026
56380W        W24598  30.517   8.297  13.796
56381W        W24599  36.202  32.202  10.154
56382W        W24600  25.023  34.611  13.286
56383W        W24601  34.376  33.025  10.767
56384W        W24602   0.314  12.335  12.360
56385W        W24603  26.740  38.360   1.412
56386W        W24604   1.507  34.767  13.855
56387W        W24605   9.243  28.089   4.827
56388W        W24606  19.659   2.829   4.580
56389W        W24607  42.258  12.303  14.391
56390W        W24608  22.609   1.383   0.783
56391W        W24609  34.987  14.032  14.528
56392W        W24610  24.764  10.679   4.511
56393W        W24611  33.882  36.639   3.787
56394W        W24612   4.205  31.057  10.742
56395W        W24613  23.784  29.495   4.729
56396W        W24614  43.399  24.563  11.549
56397W        W24615  12.565   7.188  11.085
56398W        W24616  39.405  39.466   1.006
56399W        W24617  25.494  14.669   4.954
56400W        W24618  12.736  13.187  12.358
56401W        W24619   2.968  21.502   4.167
56402W        W24620  26.265   2.451  11.070
56403W        W24621  19.622   9.943  12.841
56404W        W24622  41.373  25.593  13.946
56405W        W24623  23.559  36.845   0.789
56406W        W24624  12.924  44.487  11.515
56407W        W24625  34.604  11.125  10.800
56408W        W24626   4.992  25.590   1.432
56409W        W24627   4.671  29.470  12.269
56410W        W24628   6.289   9.249   1.211
56411W        W24629   0.282  16.616   3.102
56412W        W24630  13.088  32.213   0.775
56413W        W24631  42.296  43.757   0.010
56414W        W24632  43.686  12.293   4.559
56415W        W24633   3.322  40.521  13.813
56416W        W24634  23.674  31.694   2.332
56417W        W24635  20.360  15.614  13.354
56418W        W24636  35.331  11.702  10.661
56419W        W24637   4.686   0.955  14.325
56420W        W24638  37.490  11.196   4.155
56421W        W24639  21.607  10.662   2.379
56422W        W24640  11.244  16.049  14.411
56423W        W24641  20.096  22.486   4.748
56424W        W24642  37.780  29.576   4.165
56425W        W24643  13.159  29.653  11.668
56426W        W24644  33.575  32.095   4.534
56427W        W24645  39.004  39.525   3.415
56428W        W24646  26.400  23.150  12.872
56429W        W24647   6.392  39.073  13.173
56430W        W24648   1.921  19.271   2.754
56431W        W24649  11.718  23.220   3.194
56432W        W24650  12.154  11.551   0.314
56433W        W24651   4.531  23.745   3.414
56434W        W24652  43.945   3.258  12.455
56435W        W24653  43.139  14.171   4.680
56436W        W24654  32.309  13.231   4.558
56437W        W24655  32.193  13.424   1.273
56438W        W24656  23.646  35.139   5.149
56439W        W24657  19.212  23.658   3.276
56440W        W24658  20.056  12.751  14.080
56441W        W24659  28.720  26.150  11.799
56442W        W24660  16.050  15.971   3.742
56443W        W24661  41.834  15.734  10.191
56444W        W24662  19.567  19.127  14.516
56445W        W24663  24.034   7.324   0.534
56446W        W24664  41.922  32.581   3.353
56447W        W24665   0.273  21.672   0.350
56448W        W24666   8.205  14.071  12.094
56449W        W24667   7.641  32.577  12.972
56450W        W24668  17.648  22.430   0.932
56451W        W24669  37.380  18.137   1.498
56452W        W24670  10.177  20.330  12.021
56453W        W24671  34.434   5.540   4.402
56454W        W24672  36.582  39.836   1.788
56455W        W24673   3.900  34.432   1.838
56456W        W24674  33.790  42.073  13.858
56457W        W24675  39.888   2.264   1.170
56458W        W24676  14.737  27.496  10.614
56459W        W24677  30.487  44.851   4.767
56460W        W24678  41.860  39.826  12.617
56461W        W24679  19.727   8.359  11.147
56462W        W24680  34.969   4.180   3.679
56463W        W24681  19.935  15.283   0.065
56464W        W24682  27.624  28.663  12.770
56465W        W24683  17.482  18.073   2.326
56466W        W24684  30.891  17.229   2.911
56467W        W24685  27.512  39.933  12.824
56468W        W24686  26.547  18.688  10.544
56469W        W24687   2.770  30.566   2.167
56470W        W24688  43.463  15.659  13.313
56471W        W24689  43.350  14.318   2.174
56472W        W24690   9.380  17.127  11.574
56473W        W24691   3.264  35.155  11.127
56474W        W24692   1.737  12.477  11.783
56475W        W24693  28.998   9.737  11.499
56476W        W24694  44.904  20.141  12.071
56477W        W24695  35.348  35.907   0.192
56478W        W24696   8.640  35.857   3.801
56479W        W24697  27.575  23.704  14.447
56480W        W24698  42.290  43.491  11.633
56481W        W24699   4.746  31.943  12.539
56482W        W24700  28.499   9.975  14.962
56483W        W24701  37.359  10.433   0.184
56484W        W24702  36.614  23.595   1.320
56485W        W24703   3.077   5.638  12.644
56486W        W24704  16.057  33.655   4.811
56487W        W24705   5.492  35.613  13.398
56488W        W24706  14.893  11.212   3.024
56489W        W24707  25.294  31.403  13.960
56490W        W24708  24.605  14.340  10.847
56491W        W24709  28.557  15.755  11.181
56492W        W24710  13.649  28.639  14.400
56493W        W24711   2.845  33.716  13.919
56494W        W24712   3.474  39.250   1.243
56495W        W24713   9.340  26.713  11.121
56496W        W24714   1.967  15.008   2.279
56497W        W24715   9.205  29.715   1.487
56498W        W24716   7.064  36.083   3.826
56499W        W24717  32.120  16.655  10.746
56500W        W24718  21.529  29.135  10.705
56501W        W24719  40.783   9.818  12.466
56502W        W24720  43.491  41.381   3.700
56503W        W24721   6.624   6.844  10.827
56504W        W24722  25.768  21.811   4.896
56505W        W24723   3.234  38.641   2.127
56506W        W24724  23.124  33.963  12.536
56507W        W24725  20.674  33.012   1.450
56508W        W24726   1.055  32.988  10.366
56509W        W24727   4.150  30.772   2.322
56510W        W24728   2.069   6.902   2.674
56511W        W24729  12.066   8.779  10.415
56512W        W24730  29.587  36.511   1.416
56513W        W24731  32.528  36.322  12.999
56514W        W24732   6.435  13.710   0.861
56515W        W24733  44.228  39.329   0.367
56516W        W24734  24.216  35.021   3.800
56517W        W24735  24.177   4.430  10.629
56518W        W24736   6.768  32.173  12.022
56519W        W24737   2.373  36.400  11.940
56520W        W24738  31.122  16.869   3.306
56521W        W24739  38.328  16.414  13.465
56522W        W24740   5.628  40.446  11.215
56523W        W24741   3.208  10.308  13.634
56524W        W24742   0.757  10.357   4.128
56525W        W24743  29.039   7.400  14.308
56526W        W24744  23.585   4.968   4.475
56527W        W24745   1.135  41.744  12.029
56528W        W24746  41.891  11.413  11.133
56529W        W24747  11.328  36.982  11.440
56530W        W24748   8.938  28.611   4.856
56531W        W24749  44.494  20.982   1.667
56532W        W24750   8.280  12.341  13.344
56533W        W24751   1.248   6.508  11.385
56534W        W24752   5.766  12.739   4.849
56535W        W24753  34.915  43.724  13.421
56536W        W24754  10.048   8.176   0.012
56537W        W24755   6.367  26.775   0.961
56538W        W24756   2.284  12.857   1.376
56539W        W24757  12.051   4.519  12.183
56540W        W24758  23.221  24.615  11.459
56541W        W24759  15.628   8.344  11.133
56542W        W24760  19.825   0.714   0.425
56543W        W24761  11.802   1.055  10.011
56544W        W24762  10.575  40.476  13.900
56545W        W24763  22.040  41.767   2.743
56546W        W24764   4.126   2.369   1.886
56547W        W24765  37.037  37.993  10.546
56548W        W24766  38.526  34.911   3.666
56549W        W24767  14.172  35.904  10.582
56550W        W24768   1.932   7.725  10.729
56551W        W24769  14.707   0.913  13.409
56552W        W24770  15.417   6.699  11.588
56553W        W24771   8.155   7.821  10.576
56554W        W24772  35.853  18.716   2.781
56555W        W24773   0.317  26.483  12.371
56556W        W24774  40.357  30.033   2.167
56557W        W24775  19.705  20.696  12.148
56558W        W24776   2.378  10.391  11.692
56559W        W24777  24.554   4.302  14.824
56560W        W24778  31.508   2.845   1.057
56561W        W24779  18.594  36.051   1.826
56562W        W24780  31.842  14.048   1.866
56563W        W24781  34.961  43.460   0.979
56564W        W24782  14.139   7.070   4.390
56565W        W24783   4.703  24.465   1.222
56566W        W24784  27.973   5.579  10.753
56567W        W24785  32.093  37.177   1.360
56568W        W24786  36.774  28.433  12.753
56569W        W24787  10.613   2.807   2.582
56570W        W24788  20.035  36.815  14.326
56571W        W24789  23.012  27.038  14.764
56572W        W24790  24.724  42.879  10.728
56573W        W24791  14.289  14.719   1.373
56574W        W24792  41.852  40.883  13.088
56575W        W24793   7.400  14.206   0.009
56576W        W24794  40.090  19.563  12.530
56577W        W24795   1.721  25.214  11.629
56578W        W24796  28.728   0.398  11.010
56579W        W24797   4.606  18.852   0.870
56580W        W24798   0.898  27.434   1.830
56581W        W24799   0.321  12.178   1.359
56582W        W24800   3.887   5.175  13.381
56583W        W24801   7.901   9.628  12.081
56584W        W24802  25.232  39.061   0.252
56585W        W24803  31.659  15.667   3.300
56586W        W24804   6.344  12.852   1.144
56587W        W24805  40.244  20.960   9.751
56588W        W24806  25.588  44.226  12.457
56589W        W24807  32.745   0.095  12.547
56590W        W24808  19.797  19.842   1.417
56591W        W24809   8.174  32.074  14.338
56592W        W24810  10.219  22.216  12.150
56593W        W24811   2.649  13.635  14.842
56594W        W24812  26.607  25.505   5.093
56595W        W24813  16.846  35.308   1.470
56596W        W24814  18.227  29.667  14.100
56597W        W24815  37.489  41.446   3.774
56598W        W24816  17.038  23.491  13.239
56599W        W24817  18.667  40.251  10.383
56600W        W24818  40.922  26.033  10.626
56601W        W24819  20.627  24.039  14.194
56602W        W24820  43.254  17.676   0.782
56603W        W24821  15.859  38.379   3.614
56604W        W24822   9.844  38.829   2.641
56605W        W24823  27.590  14.132   2.259
56606W        W24824  37.857  14.646   2.432
56607W        W24825  35.650  14.690   3.234
56608W        W24826   6.220  11.752   4.025
56609W        W24827  32.847   3.992  13.063
56610W        W24828  18.615   3.795  14.410
56611W        W24829  18.702  24.622  14.329
56612W        W24830  25.630  31.117   3.173
56613W        W24831   7.021   1.475   3.079
56614W        W24832  15.013   3.552  13.758
56615W        W24833  21.501   6.761   4.035
56616W        W24834  16.265  15.264  13.388
56617W        W24835  40.534  18.266   0.013
56618W        W24836  13.245  31.735   0.912
56619W        W24837   4.197   1.507  14.388
56620W        W24838  20.824  25.108   3.277
56621W        W24839  19.100  16.593   3.663
56622W        W24840  26.433  32.845   3.867
56623W        W24841  12.701  22.284   4.616
56624W        W24842  14.085  44.506  13.440
56625W        W24843  23.123  20.708   4.359
56626W        W24844  28.468  14.443  14.470
56627W        W24845  24.443  25.621  10.709
56628W        W24846  23.865  41.901   3.596
56629W        W24847  12.375  24.683   0.030
56630W        W24848   0.312  41.318  11.703
56631W        W24849   3.899  43.064  12.716
56632W        W24850  29.013  15.379  10.954
56633W        W24851  40.892   2.005  11.741
56634W        W24852  38.917  15.025   0.131
56635W        W24853  12.141  34.400   0.453
56636W        W24854  37.388  26.124   0.176
56637W        W24855  23.578  21.647   1.862
56638W        W24856   8.717  30.167   2.810
56639W        W24857   3.272  34.584   1.935
56640W        W24858  17.744   3.921   2.361
56641W        W24859  30.613  30.356  10.434
56642W        W24860  13.130   6.195   2.475
56643W        W24861  27.343  39.962  11.979
56644W        W24862  25.393  24.399  13.572
56645W        W24863   4.269  13.676   0.785
56646W        W24864  29.507  37.528  10.242
56647W        W24865  28.939  42.383  10.587
56648W        W24866  32.520  40.313   1.816
56649W        W24867   9.181  19.471  13.453
56650W        W24868  44.746  32.869   3.809
56651W        W24869  26.538  11.236  10.690
56652W        W24870   6.864  38.948  12.974
56653W        W24871  18.518  12.204   4.034
56654W        W24872  20.730  24.457  14.514
56655W        W24873   3.753  11.560  10.881
56656W        W24874  39.428  41.420  11.898
56657W        W24875  28.995   9.034   3.199
56658W        W24876  40.803   8.013  12.543
56659W        W24877  26.893  41.624   5.236
56660W        W24878   8.015  25.576   4.759
56661W        W24879  27.061   0.185   0.981
56662W        W24880  12.172  25.086   4.733
56663W        W24881  17.031  32.371  14.765
56664W        W24882  31.961  28.803   1.380
56665W        W24883  44.687  20.124   2.817
56666W        W24884   6.794  14.065  13.789
56667W        W24885  15.304  43.492   0.826
56668W        W24886  10.264  22.840   2.157
56669W        W24887  20.766  35.932  13.841
56670W        W24888  21.187  33.257  13.959
56671W        W24889   6.878  38.119   4.168
56672W        W24890  30.719  43.198  13.880
56673W        W24891  28.632  20.246   3.630
56674W        W24892  38.657  13.568  10.764
56675W        W24893   4.414  35.376   2.388
56676W        W24894  13.142  26.290   4.154
56677W        W24895   4.710  20.844   0.952
56678W        W24896   7.697  36.296  11.884
56679W        W24897   0.902   7.600  13.846
56680W        W24898  23.477  17.281  13.046
56681W        W24899  31.599  39.512  14.028
56682W        W24900  29.344  37.942   2.898
56683W        W24901  40.865   3.718   0.228
56684W        W24902  21.018  40.017  14.840
56685W        W24903  15.119  38.740  11.043
56686W        W24904  34.840  38.448   3.642
56687W        W24905  38.760  24.586   1.367
56688W        W24906   6.659  38.844   3.162
56689W        W24907  38.993  31.057  13.100
56690W        W24908   9.790  19.231   3.300
56691W        W24909   6.235  33.065  10.635
56692W        W24910  40.793  41.267  12.973
56693W        W24911  43.793  27.998   4.650
56694W        W24912  37.626  38.075  12.021
56695W        W24913   5.031   9.730  11.953
56696W        W24914  15.585  39.861   1.511
56697W        W24915  24.230  20.666   2.626
56698W        W24916  15.632   8.737   1.810
56699W        W24917  41.427  10.387   1.585
56700W        W24918  25.708  20.206  12.887
56701W        W24919  36.773   4.523  13.957
56702W        W24920  23.336  29.224  14.054
56703W        W24921  15.739   2.799   4.063
56704W        W24922  34.568  35.038  11.057
56705W        W24923  27.396  40.974   2.427
56706W        W24924   5.335  23.735  10.453
56707W        W24925  42.780  14.564   4.641
56708W        W24926   3.509  40.062   0.404
56709W        W24927   1.526   8.392  12.304
56710W        W24928   3.767  27.415  12.654
56711W        W24929  29.923  29.452  14.915
56712W        W24930  10.560  44.500  13.783
56713W        W24931  35.125  35.545   3.786
56714W        W24932   3.912   4.116  11.396
56715W        W24933  25.453  32.487   1.724
56716W        W24934  27.587  18.860  14.432
56717W        W24935   7.790  28.678   2.418
56718W        W24936  14.192  15.212  14.823
56719W        W24937  11.919  22.095  10.168
56720W        W24938   2.309  13.162   0.622
56721W        W24939  28.164  15.390  11.239
56722W        W24940  41.243   6.375   0.533
56723W        W24941  11.436   7.328   0.357
56724W        W24942  17.829   4.370  11.186
56725W        W24943   2.723  22.638  13.422
56726W        W24944  31.007  31.191   3.877
56727W        W24945   6.464  28.802  12.989
56728W        W24946  29.543  35.263   4.079
56729W        W24947  37.107  20.773   0.194
56730W        W24948  23.890   0.790  13.710
56731W        W24949  16.001  26.597  11.911
56732W        W24950  37.518   9.348   1.356
56733W        W24951  19.068  30.113  11.510
56734W        W24952  16.266  44.354   4.466
56735W        W24953  23.444   7.316   3.269
56736W        W24954   0.255  43.466  12.373
56737W        W24955  26.732  19.158   2.265
56738W        W24956  41.069  14.336   2.101
56739W        W24957  17.229  18.109  13.989
56740W        W24958  14.064   7.716   1.661
56741W        W24959  11.608   7.973  14.535
56742W        W24960  44.060  36.029  12.058
56743W        W24961  34.081  28.409   1.171
56744W        W24962  37.821  15.803   0.929
56745W        W24963   6.306  20.639   2.309
56746W        W24964  28.376  17.255  11.993
56747W        W24965  34.537  28.394  12.058
56748W        W24966   4.825   8.381   0.267
56749W        W24967  10.874   9.045   3.324
56750W        W24968  21.451  32.495   4.770
56751W        W24969  19.933  42.493  10.685
56752W        W24970  11.384  44.356  11.713
56753W        W24971  29.605  42.494   2.116
56754W        W24972  32.397  10.662  12.410
56755W        W24973  28.097  28.944   3.654
56756W        W24974  40.510  14.146   1.995
56757W        W24975  43.037  35.738   4.373
56758W        W24976   5.910   5.719  14.223
56759W        W24977  34.549  39.221   1.225
56760W        W24978  25.870  26.122  12.172
56761W        W24979   1.004   1.752   4.140
56762W        W24980  20.565  20.218  10.655
56763W        W24981  22.436  23.733  12.900
56764W        W24982  38.756  17.987   3.440
56765W        W24983  14.223  37.708  12.147
56766W        W24984  36.726  25.195   5.001
56767W        W24985   7.781   4.893  12.423
56768W        W24986  27.058  36.694  11.589
56769W        W24987   8.388  21.771   1.763
56770W        W24988  27.535   7.095  13.826
56771W        W24989  40.243  27.675   3.281
56772W        W24990  25.661  22.557  12.855
56773W        W24991  17.855   7.270   0.762
56774W        W24992  34.059  24.045  13.162
56775W        W24993  39.434   5.235   0.911
56776W        W24994  26.887   4.330  11.660
56777W        W24995   2.831  39.611  12.859
56778W        W24996  34.500  18.566  10.697
56779W        W24997  29.021  24.530   3.459
56780W        W24998   3.284   3.244   2.903
56781W        W24999  16.619   7.041  14.826
56782W        W25000  38.936  34.145  11.236
56783W        W25001  40.319  25.187  11.085
56784W        W25002   7.728  26.033  11.994
56785W        W25003  13.299  13.963  14.696
56786W        W25004   1.110  43.909   3.125
56787W        W25005  24.110  37.831   2.313
56788W        W25006  43.801  18.145  13.863
56789W        W25007  37.299  22.582  11.341
56790W        W25008  38.318  23.970  10.960
56791W        W25009  12.178  17.055   1.874
56792W        W25010  18.651  36.872   3.177
56793W        W25011  30.600   5.423  12.576
56794W        W25012  34.771  37.851  14.414
56795W        W25013  25.679  14.553   3.095
56796W        W25014  31.391   3.714   0.554
56797W        W25015   2.679  14.129  13.550
56798W        W25016  23.955  31.117   0.588
56799W        W25017  10.998  41.772   3.648
56800W        W25018   9.443  25.688   4.062
56801W        W25019  11.819  14.156   5.052
56802W        W25020  11.640  26.983  11.565
56803W        W25021  31.199  31.909   2.254
56804W        W25022  36.679  12.120  14.296
56805W        W25023  25.968  25.579   1.677
56806W        W25024  37.832  38.971  13.001
56807W        W25025  14.942  13.714   1.953
56808W        W25026  29.125  17.668  11.946
56809W        W25027  44.590  11.827  10.905
56810W        W25028  41.262  44.854  12.228
56811W        W25029  11.901  40.469  11.258
56812W        W25030   3.420  42.457  10.062
56813W        W25031   6.490  42.244  10.754
56814W        W25032  44.828   1.149  14.308
56815W        W25033  16.308  24.443  11.630
56816W        W25034  31.296   2.910  14.204
56817W        W25035  25.439  10.963  11.182
56818W        W25036  36.808  44.948   3.780
56819W        W25037  18.195  30.623  14.476
56820W        W25038  19.725  37.541   2.445
56821W        W25039  42.317  14.387   3.804
56822W        W25040  29.323  29.730   1.768
56823W        W25041  32.785  32.841  10.918
56824W        W25042   9.659  37.551   2.296
56825W        W25043   1.710  19.170   1.761
56826W        W25044  41.153  21.129  11.379
56827W        W25045  41.969  21.246  13.088
56828W        W25046  14.724   9.138   3.025
56829W        W25047  44.845  30.106  14.459
56830W        W25048  27.375   3.797   1.709
56831W        W25049  44.575  30.422   4.585
56832W        W25050   8.155  40.260   0.648
56833W        W25051  20.485  38.355  13.074
56834W        W25052   7.649  23.680  11.254
56835W        W25053  20.772  11.136  10.891
56836W        W25054  22.708  41.482   1.492
56837W        W25055  12.630   7.087  12.580
56838W        W25056   9.708  17.146   0.926
56839W        W25057  12.837   0.466  11.702
56840W        W25058  23.798  35.403   3.869
56841W        W25059  20.985  24.108  11.128
56842W        W25060  21.659  18.003  12.424
56843W        W25061   9.968  38.366  11.482
56844W        W25062  28.068   4.924  14.793
56845W        W25063   8.270  39.336  12.229
56846W        W25064  13.510   2.800   3.090
56847W        W25065   1.617  41.934   3.167
56848W        W25066  44.926   0.443  11.642
56849W        W25067   1.850  15.674   2.774
56850W        W25068   3.875  41.423   2.709
56851W        W25069  13.801  13.285   0.818
56852W        W25070  39.331  44.492  11.131
56853W        W25071  18.700  21.192   3.322
56854W        W25072  41.515  23.598   0.258
56855W        W25073  41.596   3.366  11.447
56856W        W25074  16.102   7.902   4.645
56857W        W25075   0.792  26.239   3.273
56858W        W25076  40.409  28.085   3.547
56859W        W25077   5.427  20.174  12.935
56860W        W25078  25.293   4.315   1.363
56861W        W25079   5.528  33.528   2.354
56862W        W25080  42.273   0.933  10.581
56863W        W25081  39.946  37.146  10.963
56864W        W25082  22.520  14.883   3.710
56865W        W25083  36.972  10.180  10.811
56866W        W25084  24.642  29.731   1.751
56867W        W25085   6.902  20.176  14.257
56868W        W25086  38.097  27.039   2.275
56869W        W25087  15.563   7.163  13.515
56870W        W25088   9.064   0.384   2.927
56871W        W25089  28.899  29.371  10.458
56872W        W25090  32.466  38.061  10.657
56873W        W25091  12.886   3.152   4.114
56874W        W25092  17.780   5.520   0.350
56875W        W25093  36.411  11.408   2.209
56876W        W25094  14.153  27.728   0.888
56877W        W25095  41.923   6.121  11.560
56878W        W25096  15.446  13.646   1.636
56879W        W25097  37.611   5.615   0.870
56880W        W25098  27.108  22.337   4.561
56881W        W25099   5.854  10.316  11.955
56882W        W25100   6.875  34.436  14.913
56883W        W25101   9.897  28.707  14.850
56884W        W25102  34.368  25.051   1.022
56885W        W25103  31.091   5.254   2.265
56886W        W25104   4.888  20.013   3.985
56887W        W25105  28.373  22.294   3.710
56888W        W25106  32.526  10.806   0.248
56889W        W25107  23.234  42.570  14.341
56890W        W25108  32.429  17.114   4.792
56891W        W25109   6.167   7.441   0.397
56892W        W25110  33.920  29.583  14.838
56893W        W25111  24.234  25.006   3.777
56894W        W25112  39.142  34.514  13.234
56895W        W25113   6.477  14.398  10.493
56896W        W25114  29.184  24.122   0.491
56897W        W25115  35.815  19.508   3.687
56898W        W25116  37.258  25.398  12.480
56899W        W25117   9.727  22.659  10.682
56900W        W25118  38.560  13.168  13.202
56901W        W25119  32.587  16.090   4.156
56902W        W25120  25.578  14.784   0.309
56903W        W25121  36.808  29.155   1.712
56904W        W25122  26.269  38.884  13.707
56905W        W25123   9.692   5.382   3.535
56906W        W25124  15.698  30.210   1.338
56907W        W25125  35.827  20.079  13.776
56908W        W25126  27.107  41.679  12.025
56909W        W25127  33.352  28.021  10.898
56910W        W25128  15.833  42.924  13.399
56911W        W25129  35.754  27.949   0.870
56912W        W25130   4.692  39.110   3.682
56913W        W25131   6.491  35.295  11.186
56914W        W25132   5.728   1.856   1.879
56915W        W25133  35.091  34.546   0.843
56916W        W25134  42.798  41.009  13.136
56917W        W25135   2.994  23.967   4.048
56918W        W25136  10.225  36.944   1.171
56919W        W25137  44.527  26.987   0.065
56920W        W25138   7.701  16.844   0.801
56921W        W25139  32.438  43.232  13.390
56922W        W25140  16.477   6.662   1.713
56923W        W25141  11.682  16.549  14.819
56924W        W25142  24.043  16.205   4.313
56925W        W25143  39.310  37.494  10.785
56926W        W25144  44.831  43.258  14.306
56927W        W25145  40.872  39.453   3.445
56928W        W25146  33.044  11.299  14.257
56929W        W25147  44.711  44.471  14.312
56930W        W25148  35.122  18.984   3.229
56931W        W25149  17.198  27.216   3.225
56932W        W25150  27.588  42.062  12.800
56933W        W25151  19.271  29.447   3.574
56934W        W25152   4.760  33.814   1.770
56935W        W25153  17.897  38.466  12.157
56936W        W25154  23.719  33.860  12.922
56937W        W25155   8.799  10.623  11.536
56938W        W25156  11.305  14.185  12.458
56939W        W25157   6.546  33.995   2.323
56940W        W25158  18.365   3.272  11.079
56941W        W25159  42.302  43.023   2.256
56942W        W25160  29.188  25.032   2.127
56943W        W25161  31.548  21.432   2.241
56944W        W25162   6.407  44.700   1.830
56945W        W25163  30.327  23.814  11.214
56946W        W25164  16.267  16.943   3.855
56947W        W25165  21.408   1.485   4.829
56948W        W25166  31.621  41.599  14.506
56949W        W25167  42.366  39.529  13.845
56950W        W25168  32.140  42.357   2.052
56951W        W25169  10.336  41.598   1.593
56952W        W25170   0.848  29.741  14.762
56953W        W25171  43.001  17.251   3.688
56954W        W25172  10.399  44.566  11.053
56955W        W25173  41.502  27.172   4.184
56956W        W25174  38.335  33.805  11.932
56957W        W25175  14.290  20.950  14.900
56958W        W25176  15.188  28.192  13.892
56959W        W25177   1.900   3.246  10.939
56960W        W25178  21.244  41.587   1.231
56961W        W25179  14.160  31.781   3.346
56962W        W25180  31.084  26.497  10.303
56963W        W25181   3.598   0.281  10.384
56964W        W25182   7.793  18.514   4.094
56965W        W25183  27.201  43.876  13.978
56966W        W25184  31.566  43.486  14.319
56967W        W25185  40.498  29.620  13.030
56968W        W25186  24.075  44.001  12.545
56969W        W25187  37.846   8.671   4.830
56970W        W25188  29.476   8.209   4.737
56971W        W25189  32.949  31.556  13.736
56972W        W25190   9.820  20.268   4.636
56973W        W25191   6.262   9.518   1.697
56974W        W25192  28.201  25.277   3.271
56975W        W25193  26.703  44.362  14.312
56976W        W25194  21.307  39.755   0.217
56977W        W25195  27.480  27.910   1.690
56978W        W25196   9.589  42.330   1.996
56979W        W25197  19.357  15.581  10.694
56980W        W25198  37.543  28.192  11.075
56981W        W25199   5.897  17.737   5.478
56982W        W25200  34.973  18.462   2.493
56983W        W25201   8.260   3.793   2.189
56984W        W25202  23.767  44.639   2.434
56985W        W25203  26.251  38.628   3.819
56986W        W25204  26.175  13.692   3.709
56987W        W25205  34.574  44.473  11.708
56988W        W25206  29.591  26.170  13.422
56989W        W25207   4.771   6.753  10.135
56990W        W25208  31.462   7.709  10.918
56991W        W25209  29.975  12.378   4.074
56992W        W25210  14.556  29.072   3.968
56993W        W25211  20.381   3.274   4.575
56994W        W25212  21.500  33.563  11.867
56995W        W25213  10.705   3.953   4.234
56996W        W25214   7.244  15.374  10.697
56997W        W25215   2.783   1.407  14.586
56998W        W25216  29.211  19.225   0.770
56999W        W25217   1.337  23.579   4.433
57000W        W25218  11.706  20.727   1.854
57001W        W25219  17.687  17.804  13.953
57002W        W25220  42.450  23.116  12.644
57003W        W25221  18.689  40.139  14.905
57004W        W25222  28.915   7.199  11.109
57005W        W25223   3.457  42.758   0.772
57006W        W25224  31.204  36.704   4.333
57007W        W25225  20.260  39.890   3.347
57008W        W25226   3.755  21.319   4.840
57009W        W25227   3.415  43.755  12.539
57010W        W25228  38.805  44.284  13.527
57011W        W25229  15.370  16.474   1.221
57012W        W25230  23.513  31.607  11.563
57013W        W25231  12.306  19.128  12.565
57014W        W25232   9.559  22.565   4.446
57015W        W25233   9.943  25.798   4.973
57016W        W25234  35.072  29.134  14.238
57017W        W25235   4.908   6.765   4.279
57018W        W25236  22.049  18.130   4.600
57019W        W25237  28.585   6.410  14.028
57020W        W25238  18.182   7.916   3.252
57021W        W25239  35.021   5.798   1.337
57022W        W25240   7.757  42.007   2.420
57023W        W25241  44.332   2.135   2.785
57024W        W25242   6.391  10.692  14.255
57025W        W25243  10.701   8.714  14.346
57026W        W25244  11.619  16.660  12.032
57027W        W25245  21.201   0.603  10.288
57028W        W25246  37.038  13.501  14.999
57029W        W25247  15.210  26.583   4.257
57030W        W25248   7.982   8.321  10.592
57031W        W25249  17.225  19.059   4.511
57032W        W25250   2.383   6.175  14.388
57033W        W25251  37.026  33.321  14.361
57034W        W25252   2.682  30.811  11.265
57035W        W25253  10.747  22.218   2.617
57036W        W25254  42.089  13.653  13.030
57037W        W25255  16.276   7.933  11.890
57038W        W25256  26.041  42.151   2.197
57039W        W25257  12.165  43.328  10.191
57040W        W25258  39.195   6.603  11.086
57041W        W25259  13.624  22.147  11.175
57042W        W25260  15.585  35.571  11.007
57043W        W25261  25.340   9.784   2.842
57044W        W25262  43.774   5.174  12.417
57045W        W25263  37.228  25.130   5.096
57046W        W25264  43.960  31.699   1.960
57047W        W25265  39.311  29.411  14.327
57048W        W25266  43.234  38.931   1.751
57049W        W25267  24.414  27.654  14.394
57050W        W25268  22.143  25.608   3.400
57051W        W25269  19.707   2.873  12.166
57052W        W25270  22.235  36.664   4.721
57053W        W25271  38.330  14.698   4.204
57054W        W25272  44.304  30.678   4.181
57055W        W25273  23.686  11.562  12.378
57056W        W25274  14.444  30.548  13.085
57057W        W25275   7.347   9.035  14.285
57058W        W25276  38.296  44.925  13.274
57059W        W25277  36.076  43.529   1.878
57060W        W25278  19.162   9.967  13.129
57061W        W25279  33.527  17.294   2.270
57062W        W25280   0.439  36.464  14.057
57063W        W25281   5.842  11.337   2.862
57064W        W25282  27.167  25.271  14.005
57065W        W25283  30.226  11.794  11.926
57066W        W25284  17.206  37.059  14.983
57067W        W25285   4.239  33.570   2.867
57068W        W25286   4.007  33.538   2.262
57069W        W25287  24.655   2.970  13.747
57070W        W25288  21.711  33.592  10.966
57071W        W25289  30.488  37.861   4.653
57072W        W25290  35.065   8.342   2.215
57073W        W25291  28.017  43.712  11.150
57074W        W25292  19.558  12.990  14.808
57075W        W25293   6.757   0.296  11.790
57076W        W25294  32.367  25.932   1.515
57077W        W25295  27.112  44.792   3.793
57078W        W25296  38.400  11.573   0.413
57079W        W25297  13.180   7.703  13.174
57080W        W25298   9.878  29.972   2.853
57081W        W25299  16.945  17.698  13.873
57082W        W25300  33.584  19.822   4.157
57083W        W25301   0.500  43.726  14.949
57084W        W25302  10.698   7.921  10.533
57085W        W25303  24.474  25.139   0.828
57086W        W25304  24.697  11.168  14.772
57087W        W25305   0.583   9.966   0.854
57088W        W25306  36.083  22.616   1.667
57089W        W25307   4.821  10.168   0.891
57090W        W25308  31.898  14.425   2.712
57091W        W25309  41.462   2.228  12.373
57092W        W25310   4.483  38.921   0.181
57093W        W25311  16.118  37.581  13.387
57094W        W25312  14.367   3.546   1.280
57095W        W25313  42.020  21.095  10.861
57096W        W25314  25.573  16.583  11.998
57097W        W25315  31.728  34.846   2.700
57098W        W25316  26.285   9.356  14.515
57099W        W25317  30.476  31.832   2.744
57100W        W25318  19.204  35.306  14.260
57101W        W25319  24.106  10.182  14.171
57102W        W25320  42.225   4.727  11.660
57103W        W25321   3.841  36.649   2.358
57104W        W25322  12.126  31.009  13.081
57105W        W25323  35.082  17.701  13.787
57106W        W25324  24.516  30.506  11.830
57107W        W25325  31.105   6.750   4.971
57108W        W25326  32.167  37.106  14.395
57109W        W25327   1.060  14.747  11.382
57110W        W25328  26.303  34.004  11.955
57111W        W25329   1.245   3.279  13.373
57112W        W25330   9.799   7.439   4.247
57113W        W25331  38.340  31.673   2.341
57114W        W25332  10.987  36.503   0.282
57115W        W25333  35.073  14.806  13.091
57116W        W25334   1.473  16.042   2.885
57117W        W25335   2.370   0.658  11.088
57118W        W25336  35.077  40.260  10.773
57119W        W25337   8.727  43.008   2.469
57120W        W25338  32.870  39.017  11.799
57121W        W25339  35.041  12.136  10.732
57122W        W25340  44.783  18.827   4.291
57123W        W25341  18.736  24.049  14.387
57124W        W25342  22.444  18.288  13.329
57125W        W25343  40.499  43.859   2.886
57126W        W25344   2.472   9.569   1.437
57127W        W25345   3.711  32.292  11.630
57128W        W25346  23.606  30.902  13.437
57129W        W25347  31.365  30.631   3.610
57130W        W25348   1.554  34.339   0.227
57131W        W25349   9.785  35.397   2.881
57132W        W25350  13.372  31.509   3.151
57133W        W25351   1.195  20.624   0.325
57134W        W25352  43.336  39.567  12.359
57135W        W25353  35.035  38.486  11.333
57136W        W25354  42.770  23.557  14.851
57137W        W25355  12.690  25.982  10.584
57138W        W25356  32.566  40.064  11.582
57139W        W25357  41.441  36.434   4.095
57140W        W25358  44.380  35.331   4.285
57141W        W25359  36.538  26.970  12.156
57142W        W25360  21.255   7.025   2.771
57143W        W25361  35.823  37.465   3.532
57144W        W25362  16.797  25.668   2.057
57145W        W25363  35.024  41.478   0.941
57146W        W25364  14.328  38.521  12.550
57147W        W25365  30.386   2.287   2.617
57148W        W25366  24.203  28.226   0.797
57149W        W25367  17.621  20.503   1.353
57150W        W25368  24.613  44.297   0.010
57151W        W25369  11.832  37.600  12.034
57152W        W25370  16.877  42.329  11.982
57153W        W25371   1.865  16.285   3.150
57154W        W25372  23.051  33.610   4.241
57155W        W25373  36.973  44.881  11.170
57156W        W25374  36.998  27.140   2.305
57157W        W25375  12.853  37.522  11.883
57158W        W25376  25.369   7.953   1.512
57159W        W25377  38.253  38.021  12.534
57160W        W25378  13.652  42.303   2.955
57161W        W25379  12.068   4.234  14.600
57162W        W25380   8.781  37.477   1.348
57163W        W25381  27.990  32.750  11.813
57164W        W25382  17.597  44.464   1.194
57165W        W25383   9.339  39.308  13.998
57166W        W25384  17.173   4.426   2.938
57167W        W25385  40.352  41.560  11.299
57168W        W25386  33.790   1.346  10.645
57169W        W25387  12.377   3.245   3.555
57170W        W25388   3.689  31.174   4.613
57171W        W25389  15.490   4.160  10.756
57172W        W25390  25.487  16.596   0.190
57173W        W25391  27.370  43.092   4.800
57174W        W25392  34.100  29.606   2.230
57175W        W25393  11.404  37.255  14.316
57176W        W25394  37.087  43.941  13.928
57177W        W25395  32.171  22.510  10.979
57178W        W25396  26.954  34.554   1.730
57179W        W25397   2.370  20.681   2.735
57180W        W25398  25.032  11.777  14.083
57181W        W25399  19.310  24.767  14.511
57182W        W25400  17.235   7.872   4.566
57183W        W25401  22.664  19.985  14.335
57184W        W25402  41.104   7.387  10.751
57185W        W25403  11.834   4.790  11.726
57186W        W25404  20.774  21.522   2.187
57187W        W25405  13.282  23.675  13.324
57188W        W25406  16.335  40.278   4.149
57189W        W25407   7.063  44.119   5.179
57190W        W25408  17.970  15.597   4.327
57191W        W25409  15.864  24.489  14.454
57192W        W25410   4.995  10.251   3.244
57193W        W25411   6.278   1.306   4.416
57194W        W25412  36.710  37.049   0.432
57195W        W25413  12.183  39.753   4.171
57196W        W25414  24.196  42.291  14.269
57197W        W25415  10.694  29.950  11.854
57198W        W25416  10.826  11.716  11.743
57199W        W25417  39.864  16.653  12.844
57200W        W25418  39.635  27.696  14.798
57201W        W25419  29.621  17.717  11.955
57202W        W25420  18.474  37.900   1.765
57203W        W25421  18.732  36.340  12.927
57204W        W25422  43.332  12.852   5.034
57205W        W25423  20.629  11.661  13.909
57206W        W25424   1.776  41.412  14.254
57207W        W25425   4.887   1.693   3.638
57208W        W25426  15.539  23.243   3.205
57209W        W25427  11.180  30.684   1.265
57210W        W25428   4.260  20.783  11.350
57211W        W25429   4.220  41.022   4.545
57212W        W25430  22.228  18.725  10.833
57213W        W25431  13.720  22.906   1.831
57214W        W25432   5.353  36.291   0.450
57215W        W25433   8.130  14.559   2.270
57216W        W25434   8.408  24.567  13.147
57217W        W25435  36.641  14.531   3.261
57218W        W25436  30.714  22.543  10.723
57219W        W25437  38.143   3.622   5.064
57220W        W25438  44.926  14.399  14.803
57221W        W25439  30.340   8.484   2.001
57222W        W25440  35.144   4.852   2.075
57223W        W25441   8.912  29.376   0.705
57224W        W25442  33.570  24.665   2.392
57225W        W25443  22.055   0.456   3.707
57226W        W25444  37.791  21.688   4.308
57227W        W25445   2.356  19.375  10.647
57228W        W25446  21.759  40.766   1.020
57229W        W25447  11.916  42.245  12.441
57230W        W25448   4.185  44.211   5.017
57231W        W25449  38.306  38.020  14.474
57232W        W25450   2.739  23.831  13.983
57233W        W25451  43.757  33.117   4.801
57234W        W25452  20.909  29.455   2.869
57235W        W25453  16.512  22.059   0.825
57236W        W25454  11.800  28.996   2.346
57237W        W25455  44.700  37.938  10.822
57238W        W25456  14.324  12.120   2.181
57239W        W25457  43.677  35.405  13.120
57240W        W25458  26.948  39.429   3.376
57241W        W25459   2.332  25.003   2.879
57242W        W25460  25.261   3.585  11.395
57243W        W25461  15.301  13.560   2.743
57244W        W25462  18.775  39.916   1.620
57245W        W25463  44.158  12.182  10.827
57246W        W25464   2.164  16.231  13.955
57247W        W25465  44.853  31.194  12.034
57248W        W25466  42.030  23.647   4.036
57249W        W25467  31.926  36.985  13.536
57250W        W25468  11.924  10.504  13.590
57251W        W25469  28.062  35.989  14.439
57252W        W25470  21.752  16.576   0.666
57253W        W25471  28.658  44.038   3.948
57254W        W25472  30.958  31.983   1.314
57255W        W25473  14.801  29.155  12.115
57256W        W25474  10.751  43.071   1.858
57257W        W25475  30.870   0.905  10.666
57258W        W25476  38.439  34.315  11.237
57259W        W25477  19.517  17.096  11.472
57260W        W25478   1.361  32.685   4.590
57261W        W25479  35.497   8.731   2.857
57262W        W25480  23.941   7.418   3.263
57263W        W25481  17.682   8.203   4.184
57264W        W25482  24.116  31.335   3.295
57265W        W25483  20.060   3.207  11.991
57266W        W25484  10.359   8.152  13.527
57267W        W25485  13.171  26.039   0.707
57268W        W25486  39.284  29.221  12.836
57269W        W25487  18.099  24.479   3.683
57270W        W25488  22.164  30.431  11.690
57271W        W25489   6.007  40.357   2.947
57272W        W25490  11.852  23.218   0.833
57273W        W25491   3.078  39.511  14.683
57274W        W25492  10.874  18.080   5.142
57275W        W25493  32.510  23.293   3.340
57276W        W25494  26.163  19.051  11.941
57277W        W25495  10.907  32.448   2.011
57278W        W25496  40.931  35.081  13.475
57279W        W25497   5.125  28.457  11.560
57280W        W25498  41.352   2.235  13.816
57281W        W25499  26.183   3.227  12.941
57282W        W25500  26.538   3.748  14.860
57283W        W25501  18.955  33.061   1.839
57284W        W25502  14.590   0.788   0.418
57285W        W25503  26.153  12.651  11.064
57286W        W25504  34.495  40.059  14.005
57287W        W25505  36.757  12.311   2.814
57288W        W25506  37.155  31.044  11.165
57289W        W25507  41.989   1.539   1.765
57290W        W25508  28.586  35.781  11.947
57291W        W25509  23.061  10.801   2.298
57292W        W25510  43.799  20.805  10.354
57293W        W25511   1.447  43.471   1.010
57294W        W25512  33.419  36.487   1.078
57295W        W25513   8.906  39.026   0.317
57296W        W25514   9.579  35.885  13.106
57297W        W25515  24.203  25.870   1.186
57298W        W25516  18.745   0.860   3.547
57299W        W25517   3.234  27.597  10.612
57300W        W25518   1.394  10.937  13.770
57301W        W25519  44.955  21.174  13.105
57302W        W25520  27.933  32.917   2.713
57303W        W25521  24.549  29.626  10.571
57304W        W25522  20.035  25.613   0.359
57305W        W25523  18.665  28.604  10.863
57306W        W25524  24.610  24.462  12.885
57307W        W25525  37.493  41.542  14.206
57308W        W25526  15.834  24.131  13.906
57309W        W25527  16.166   1.735   0.455
57310W        W25528  33.898  10.003   0.210
57311W        W25529  44.536  25.264  13.018
57312W        W25530  22.719   3.575  10.734
57313W        W25531  13.391  42.069  14.081
57314W        W25532  15.224  11.334   3.873
57315W        W25533  24.502   1.437  11.470
57316W        W25534   3.614  25.149   1.289
57317W        W25535  29.853  39.366  14.768
57318W        W25536  12.930   8.756  11.555
57319W        W25537  20.540  32.022   0.718
57320W        W25538  23.483  44.462  11.475
57321W        W25539  36.995  41.871   2.417
57322W        W25540   6.434  13.773  12.520
57323W        W25541  18.266  15.656  14.295
57324W        W25542  20.349  42.780  12.930
57325W        W25543  30.351  44.803  12.893
57326W        W25544  43.993  29.665  14.308
57327W        W25545  25.818  10.941   3.568
57328W        W25546   7.261  23.778  11.555
57329W        W25547  20.014  24.002  14.821
57330W        W25548  43.703  13.205   2.766
57331W        W25549  22.219  28.104  10.524
57332W        W25550  35.201  43.974  14.753
57333W        W25551  36.810  25.730  10.729
57334W        W25552  13.148  35.087   3.642
57335W        W25553  13.298   5.459  13.867
57336W        W25554  27.743  27.052  10.440
57337W        W25555  44.381  26.564  12.367
57338W        W25556  28.403  21.635  14.387
57339W        W25557  31.896  25.232  11.230
57340W        W25558  12.708  16.585  11.866
57341W        W25559  25.068  34.522   4.731
57342W        W25560  30.601  23.184   0.071
57343W        W25561  32.687  19.721   4.344
57344W        W25562  41.507  29.201   0.377
57345W        W25563  20.126  26.202   4.637
57346W        W25564  33.387   2.386  13.904
57347W        W25565  33.327  32.005   3.729
57348W        W25566  23.187   7.323   0.765
57349W        W25567  19.161  16.106  12.931
57350W        W25568  23.571   9.663  10.994
57351W        W25569   8.494   6.799   4.538
57352W        W25570  35.927  17.279   3.618
57353W        W25571  37.459  41.059   2.223
57354W        W25572   9.852  30.975  12.365
57355W        W25573  11.340   1.996  14.859
57356W        W25574  38.076  13.383   3.758
57357W        W25575  29.361  13.653  11.662
57358W        W25576  17.954  42.431   2.095
57359W        W25577   0.510  28.952   3.108
57360W        W25578  23.093  30.235  13.377
57361W        W25579  36.656  32.971  13.478
57362W        W25580  43.978  43.315  14.776
57363W        W25581  20.784   9.591  12.944
57364W        W25582  29.562   5.571  14.135
57365W        W25583  43.547  11.802  14.736
57366W        W25584  42.891  21.367  12.924
57367W        W25585  15.203   3.217  11.116
57368W        W25586  33.200   5.895   3.551
57369W        W25587   9.723  23.431  11.465
57370W        W25588   5.851  16.127  12.555
57371W        W25589  27.877   6.962   1.306
57372W        W25590  37.646  10.166  11.584
57373W        W25591  13.750  37.922  11.992
57374W        W25592  36.737  42.857   4.188
57375W        W25593   6.671  32.014  13.846
57376W        W25594   8.462   5.661   1.423
57377W        W25595  23.819  33.028   4.797
57378W        W25596  31.396  21.717  14.377
57379W        W25597   9.810  14.611   4.101
57380W        W25598  23.736  40.015  13.328
57381W        W25599  16.537  21.574  13.234
57382W        W25600   1.811  33.906   4.734
57383W        W25601  16.066  10.925  13.514
57384W        W25602  25.404  17.080  14.972
57385W        W25603  27.045  29.468  11.253
57386W        W25604  15.345  16.173  10.664
57387W        W25605  36.471  32.851   2.739
57388W        W25606  43.281  34.869   3.786
57389W        W25607   9.632  33.414  14.290
57390W        W25608  35.102  19.000  14.015
57391W        W25609  27.834  20.624  11.656
57392W        W25610  17.815  31.398  11.990
57393W        W25611  14.105  39.962   1.965
57394W        W25612  26.006  42.510  13.470
57395W        W25613   6.775  12.262  14.554
57396W        W25614  40.931   6.407   4.840
57397W        W25615  14.226  18.076   1.443
57398W        W25616  11.367   2.460   0.465
57399W        W25617  24.748  31.892  11.645
57400W        W25618  25.827  11.401   4.339
57401W        W25619  32.102  20.182   0.064
57402W        W25620  17.779  21.275  12.584
57403W        W25621  39.838   6.755  11.202
57404W        W25622  12.129  33.635  13.292
57405W        W25623   6.372  13.423  11.512
57406W        W25624  27.437   6.142   4.495
57407W        W25625  31.597  31.458  12.446
57408W        W25626  35.424  34.000   0.067
57409W        W25627   5.900   5.404   2.363
57410W        W25628  14.405  44.361  12.666
57411W        W25629  40.785   5.632   1.613
57412W        W25630  34.041  42.020  10.723
57413W        W25631  42.510  30.993  13.392
57414W        W25632  13.613   7.735   1.383
57415W        W25633   1.486  19.239   3.132
57416W        W25634  37.370  25.038  10.982
57417W        W25635   4.874   4.050  11.991
57418W        W25636  27.679   8.170  11.117
57419W        W25637  24.135  38.349  13.388
57420W        W25638  13.006  38.557  14.095
57421W        W25639  34.124  15.645  12.137
57422W        W25640  30.596  14.045   2.833
57423W        W25641  23.123   4.632  11.231
57424W        W25642  17.325  10.856  14.997
57425W        W25643  30.428  37.858  11.984
57426W        W25644  33.657  42.833   2.618
57427W        W25645  39.877  34.372   4.130
57428W        W25646  28.035  27.964   3.242
57429W        W25647  37.126  32.331  11.519
57430W        W25648   7.252  27.022   3.360
57431W        W25649  44.945  16.902  14.197
57432W        W25650   0.324  16.308  12.510
57433W        W25651  43.577  33.567   4.151
57434W        W25652   3.737  42.338  13.155
57435W        W25653  37.659  15.558  10.193
57436W        W25654  31.668  17.857  11.867
57437W        W25655  43.698  27.619   4.983
57438W        W25656  40.774  27.905  11.059
57439W        W25657  22.254  16.831   3.152
57440W        W25658  23.987  19.447  14.403
57441W        W25659  27.457  32.844   3.216
57442W        W25660   7.321  22.636   3.714
57443W        W25661  29.940   8.593  12.909
57444W        W25662  28.613  13.627   5.052
57445W        W25663  44.833  21.321  11.100
57446W        W25664  41.981  27.679   0.242
57447W        W25665  25.922  33.337   0.961
57448W        W25666  33.087  17.685   3.587
57449W        W25667  21.095  17.988  11.188
57450W        W25668  13.830   5.244   3.146
57451W        W25669  24.745  42.284  11.356
57452W        W25670  39.035  17.783  14.384
57453W        W25671  34.608   7.602   3.226
57454W        W25672  25.499  43.805  14.621
57455W        W25673  12.006  44.304   1.278
57456W        W25674  34.740   3.312   0.799
57457W        W25675  41.611  44.803   3.750
57458W        W25676  44.753  12.171   0.165
57459W        W25677  24.905   5.867  12.543
57460W        W25678  44.920  36.963  14.286
57461W        W25679  29.682  34.995   0.375
57462W        W25680  15.122  23.040   1.636
57463W        W25681  25.976  11.842   4.114
57464W        W25682  30.876  25.254  12.033
57465W        W25683  23.579  22.456   2.373
57466W        W25684  18.452  23.625  11.949
57467W        W25685  35.964  36.192  10.511
57468W        W25686  14.479  10.475   1.907
57469W        W25687   4.840  26.223  12.530
57470W        W25688  36.694  28.780   2.677
57471W        W25689  18.041   8.460   1.820
57472W        W25690   4.879  17.359   5.028
57473W        W25691  14.258  19.594  13.349
57474W        W25692  44.006  11.384   0.372
57475W        W25693  23.895  12.664   3.553
57476W        W25694  19.417  13.863   2.820
57477W        W25695  11.081  14.115   1.730
57478W        W25696  19.082  30.744   4.292
57479W        W25697  42.331  22.057   0.306
57480W        W25698   9.967  39.705  14.808
57481W        W25699  11.189  28.421   1.298
57482W        W25700  11.952  27.632  12.710
57483W        W25701   9.868  33.146   4.235
57484W        W25702  18.345  41.436   2.834
57485W        W25703  37.795  24.489   2.810
57486W        W25704  21.711  20.619   1.889
57487W        W25705  21.053  30.126   3.755
57488W        W25706  36.396  20.407  11.540
57489W        W25707  39.640  42.422   1.862
57490W        W25708   2.696   9.706   2.358
57491W        W25709  43.768  44.987  12.314
57492W        W25710   1.381  34.054   3.742
57493W        W25711  18.785  26.670   2.784
57494W        W25712  25.629  14.582  13.387
57495W        W25713  41.618  12.811  14.934
57496W        W25714  36.289  32.112  11.112
57497W        W25715  15.622  38.514   1.240
57498W        W25716   3.922  13.056  13.985
57499W        W25717  44.255  14.994   2.962
57500W        W25718  28.196   4.770   4.032
57501W        W25719  40.969   5.740  11.871
57502W        W25720  10.180  10.178   0.721
57503W        W25721  24.223  26.260  14.773
57504W        W25722  12.721  13.257   3.825
57505W        W25723  29.174   2.520   3.805
57506W        W25724   5.660  42.666  13.153
57507W        W25725  39.621  44.783   1.219
57508W        W25726  17.106  40.283   1.333
57509W        W25727  20.490  35.146  11.176
57510W        W25728  22.027  12.167  13.937
57511W        W25729  13.543  21.706   4.069
57512W        W25730   7.175   3.724   0.844
57513W        W25731  22.423  18.046   4.945
57514W        W25732  11.771   4.032  14.969
57515W        W25733  15.201  16.572  13.243
57516W        W25734  29.143  34.879   4.431
57517W        W25735  15.662  22.529  14.945
57518W        W25736  21.661  19.262  13.967
57519W        W25737   6.666   0.319   2.651
57520W        W25738  16.350  27.632  13.752
57521W        W25739  40.961  43.440   0.923
57522W        W25740   1.292  14.106  10.616
57523W        W25741  38.841  12.517  14.469
57524W        W25742  19.882   5.934  10.743
57525W        W25743  17.207  38.020  11.241
57526W        W25744  37.483  27.230   4.763
57527W        W25745  29.215  18.157  12.053
57528W        W25746  38.322  42.789  11.879
57529W        W25747  15.678  39.068  12.382
57530W        W25748  36.450  28.152  13.830
57531W        W25749   0.870   1.864   3.655
57532W        W25750  41.765  18.768   2.965
57533W        W25751  40.522  21.750   0.877
57534W        W25752   3.940  36.015  11.000
57535W        W25753  18.926  29.214  14.927
57536W        W25754  24.040  33.620  14.436
57537W        W25755  25.269  30.525  11.463
57538W        W25756   7.203  20.594  10.715
57539W        W25757  34.541   3.373  12.672
57540W        W25758   1.659   1.651  11.632
57541W        W25759  29.013  20.644  14.519
57542W        W25760  32.108  41.393   4.559
57543W        W25761   2.058  20.189  14.378
57544W        W25762  17.218  23.462  12.419
57545W        W25763  13.844  13.519   1.349
57546W        W25764  26.444  32.983   2.483
57547W        W25765  38.845   6.517  11.870
57548W        W25766   1.754  32.080  14.979
57549W        W25767  22.829  44.064   1.095
57550W        W25768  22.270  14.497   1.968
57551W        W25769   9.261  33.419  10.898
57552W        W25770  19.070  35.342  13.384
57553W        W25771  33.887  11.623   0.930
57554W        W25772  19.061   5.661   0.363
57555W        W25773  10.660  17.849   0.198
57556W        W25774  33.002   7.677  11.606
57557W        W25775  14.775   5.044  12.536
57558W        W25776  38.783   9.632  10.809
57559W        W25777  30.036  42.539  12.862
57560W        W25778  30.410  27.482  12.404
57561W        W25779   1.864  16.237   1.730
57562W        W25780  44.759  34.037   3.176
57563W        W25781   2.345  38.752   2.835
57564W        W25782  21.139  24.454   4.292
57565W        W25783  11.602  38.766  13.461
57566W        W25784  35.591   8.231   1.994
57567W        W25785  15.412  17.475  11.547
57568W        W25786   4.713   8.113  11.537
57569W        W25787   1.001   4.690   2.328
57570W        W25788  25.176   1.535  14.987
57571W        W25789  34.518   4.400   1.773
57572W        W25790  21.613  21.879   3.460
57573W        W25791  42.354  44.535  13.834
57574W        W25792   7.916  19.332   2.811
57575W        W25793   8.878  23.014   0.911
57576W        W25794  20.134   2.701  12.875
57577W        W25795  31.651  40.775   3.391
57578W        W25796   1.021  29.506   3.675
57579W        W25797   2.284  40.763  14.892
57580W        W25798   7.656  23.051  14.176
57581W        W25799  36.582  15.726  11.194
57582W        W25800  14.103   7.771   5.006
57583W        W25801  13.758  39.582  14.068
57584W        W25802  30.611  32.938   3.499
57585W        W25803  32.024   4.235   0.366
57586W        W25804  31.115  37.065   3.233
57587W        W25805  29.776  22.557  13.791
57588W        W25806  25.139  29.423  12.915
57589W        W25807  13.646  25.731  11.983
57590W        W25808  33.830  27.133  13.385
57591W        W25809  30.056  30.020  14.813
57592W        W25810  11.733  38.574   3.793
57593W        W25811  34.282  40.524  13.823
57594W        W25812  30.914  16.657  11.591
57595W        W25813  23.208  21.494  14.836
57596W        W25814  12.696  40.061   3.173
57597W        W25815   7.963  18.007   4.112
57598W        W25816  15.196   9.617  13.053
57599W        W25817  35.353  19.068  13.454
57600W        W25818  42.132   1.779  13.867
57601W        W25819  16.755  14.266   1.720
57602W        W25820   1.585  23.184  12.341
57603W        W25821  28.162  28.991  10.486
57604W        W25822  38.638  18.697   3.206
57605W        W25823  15.665   3.169   1.341
57606W        W25824  31.549  35.458   3.915
57607W        W25825  34.258  41.496   2.306
57608W        W25826  29.781  28.220  12.499
57609W        W25827  27.023  35.067   1.701
57610W        W25828  13.309  39.887  14.012
57611W        W25829   1.418   9.721   1.775
57612W        W25830  29.421   4.569  10.350
57613W        W25831  11.811  29.356   3.730
57614W        W25832  43.250   0.053  13.028
57615W        W25833  44.958  35.436  10.541
57616W        W25834  18.478  11.698   3.299
57617W        W25835  10.813  36.912  13.569
57618W        W25836  10.119  21.010  10.361
57619W        W25837  14.094  38.959   2.675
57620W        W25838  34.376  30.028  12.228
57621W        W25839  13.915  38.862   3.694
57622W        W25840  13.624  12.385  13.904
57623W        W25841   4.841  21.964   1.409
57624W        W25842  28.509  18.620   3.109
57625W        W25843  23.143  39.654  12.492
57626W        W25844  44.502   1.698   3.695
57627W        W25845  27.548  29.918   4.562
57628W        W25846  25.904  41.787   3.824
57629W        W25847  41.850   6.648   4.724
57630W        W25848  11.423  12.886  14.789
57631W        W25849  10.266  14.645  14.941
57632W        W25850  28.425  12.663  12.579
57633W        W25851  25.941  19.868   1.393
57634W        W25852   9.838  34.814  14.331
57635W        W25853  29.209  44.462  11.124
57636W        W25854  29.678  28.934  14.379
57637W        W25855  27.944  13.720   2.160
57638W        W25856  15.322  28.966   4.448
57639W        W25857  10.315  32.984   2.283
57640W        W25858  29.320  29.666   0.782
57641W        W25859  10.264   2.848  12.353
57642W        W25860  40.491   3.040   4.520
57643W        W25861  42.893  19.625   3.563
57644W        W25862  41.267   0.841  14.873
57645W        W25863  36.094  20.666   3.311
57646W        W25864  41.024  13.174   2.842
57647W        W25865  38.965   8.630   4.501
57648W        W25866   6.809  16.905  14.970
57649W        W25867  17.815  23.665   1.499
57650W        W25868   0.547  40.388   3.170
57651W        W25869  21.099  23.326   1.483
57652W        W25870  23.566  34.952   3.220
57653W        W25871  10.295  26.453  14.899
57654W        W25872  28.929  29.199  12.064
57655W        W25873  38.454   8.282  11.078
57656W        W25874  44.647  12.491   4.905
57657W        W25875  35.372  27.116  10.646
57658W        W25876  44.959   4.981  14.008
57659W        W25877  11.314  14.401  10.731
57660W        W25878  27.076  31.057   0.059
57661W        W25879  14.547  36.141   3.836
57662W        W25880  34.875  15.671  12.796
57663W        W25881  43.286  31.384  12.600
57664W        W25882  19.045  11.848   2.352
57665W        W25883  25.917  26.964   4.250
57666W        W25884   4.499  41.954  12.815
57667W        W25885  16.320  25.972   0.329
57668W        W25886   3.260  23.125   3.658
57669W        W25887  16.650  14.830   5.411
57670W        W25888  24.554   1.311  10.882
57671W        W25889  38.776  21.563  13.079
57672W        W25890  14.016  24.884  10.344
57673W        W25891   2.296  37.279   3.700
57674W        W25892   2.929  28.378  13.113
57675W        W25893   9.522  43.764  14.783
57676W        W25894  21.156  22.522  12.695
57677W        W25895  13.029  37.874   0.106
57678W        W25896  22.451  35.157   4.051
57679W        W25897  16.028  33.951   4.094
57680W        W25898  37.743  36.964   3.027
57681W        W25899  26.416  43.088  14.823
57682W        W25900  11.636   1.983   3.495
57683W        W25901  38.893  29.903   1.287
57684W        W25902   1.325  41.739   4.176
57685W        W25903  38.968   2.730  10.858
57686W        W25904  18.644  16.971  14.617
57687W        W25905   7.448   7.615   2.143
57688W        W25906  21.203  34.558   1.421
57689W        W25907  25.207  21.296  11.643
57690W        W25908   3.032  23.419  13.929
57691W        W25909  18.048  24.990  11.166
57692W        W25910  23.165   6.011  12.963
57693W        W25911  25.646   0.999   2.254
57694W        W25912  19.637  30.743  12.862
57695W        W25913   5.493  24.663  11.129
57696W        W25914   2.216   7.877   0.420
57697W        W25915  17.650  32.642  14.456
57698W        W25916  27.877  27.161  11.186
57699W        W25917  10.246  16.702   3.688
57700W        W25918  12.367  21.280   2.839
57701W        W25919  28.014   7.128   3.783
57702W        W25920   1.127  41.787   3.225
57703W        W25921  30.848  31.605   2.463
57704W        W25922   3.849  36.087   3.639
57705W        W25923  22.089  23.286  11.630
57706W        W25924  12.151  29.115   1.969
57707W        W25925  26.437   0.018  11.034
57708W        W25926  35.311  11.397  14.848
57709W        W25927  18.111   1.849  12.368
57710W        W25928  21.784   2.936   1.670
57711W        W25929  28.755  37.225   3.908
57712W        W25930  32.636   3.677   4.226
57713W        W25931  29.982  31.852   3.171
57714W        W25932  25.736  11.163  13.007
57715W        W25933  22.013  38.487   4.089
57716W        W25934   2.317  33.206  12.978
57717W        W25935  23.214  13.912  13.908
57718W        W25936  18.874  27.008  13.448
57719W        W25937   0.814  28.141  14.036
57720W        W25938  38.881  11.203   3.682
57721W        W25939  17.376   6.321  12.973
57722W        W25940  28.379  11.279   2.788
57723W        W25941  20.312  37.945  12.147
57724W        W25942  11.681  21.279  13.853
57725W        W25943  40.911  38.909   4.282
57726W        W25944   5.426  30.718  13.379
57727W        W25945  23.516  24.135   4.559
57728W        W25946  24.189  28.379  11.199
57729W        W25947  10.731  14.738  13.411
57730W        W25948  20.051  10.047  10.790
57731W        W25949   4.898  19.865  13.385
57732W        W25950  36.573   2.301  14.406
57733W        W25951   0.795   6.177   2.427
57734W        W25952   1.000  21.896  14.839
57735W        W25953  26.651  22.072  11.274
57736W        W25954   2.651  10.481   1.254
57737W        W25955  37.835  29.108   3.392
57738W        W25956   2.877   5.895  13.889
57739W        W25957  15.069  17.213   1.639
57740W        W25958  43.277  19.213  13.940
57741W        W25959  18.174  42.516  11.962
57742W        W25960  34.444   5.475   0.280
57743W        W25961  43.523   2.917  13.142
57744W        W25962  22.805  28.301   4.433
57745W        W25963  31.542  27.962   0.863
57746W        W25964  20.074   5.199  10.053
57747W        W25965   3.246  18.047  14.853
57748W        W25966  39.346  42.434   3.422
57749W        W25967  19.801  31.419  11.636
57750W        W25968   3.505  12.811   3.319
57751W        W25969  44.033   5.808   1.294
57752W        W25970   5.464  23.495   1.765
57753W        W25971  24.973  13.732   2.737
57754W        W25972   6.251  34.483   4.808
57755W        W25973  29.680  28.535  11.966
57756W        W25974  19.482  41.139  11.945
57757W        W25975  33.604  40.269  10.126
57758W        W25976  10.197  25.967   1.849
57759W        W25977   5.089  12.055  11.959
57760W        W25978  27.966  38.580  11.499
57761W        W25979  23.007  33.345   3.317
57762W        W25980  19.559   2.675   1.325
57763W        W25981   6.726  27.172  14.462
57764W        W25982  20.067   1.920   4.581
57765W        W25983   3.295  28.602  14.500
57766W        W25984  26.022  34.834  10.870
57767W        W25985  21.171   4.245  12.329
57768W        W25986   4.702  20.529   4.082
57769W        W25987   6.048  25.984  12.066
57770W        W25988  34.853  19.674  13.770
57771W        W25989  17.126  12.815  12.005
57772W        W25990  27.093  13.610   4.654
57773W        W25991  40.916  43.867  13.324
57774W        W25992  39.822   0.752   4.739
57775W        W25993  34.397  19.850  12.830
57776W        W25994   7.208  15.668   3.752
57777W        W25995  21.273   7.110   0.277
57778W        W25996  17.952   4.693  12.010
57779W        W25997  25.097  18.586   2.425
57780W        W25998  25.803  40.859   3.151
57781W        W25999  39.570  16.021   2.169
57782W        W26000  16.321  28.012   4.502
57783W        W26001  31.238  11.325   4.589
57784W        W26002  36.390  29.876   1.474
57785W        W26003   0.165  44.489  14.553
57786W        W26004  11.539  30.617   0.898
57787W        W26005   2.437   1.928  10.325
57788W        W26006  30.016   2.219   0.223
57789W        W26007  34.436  22.269  12.667
57790W        W26008  32.657  17.552  11.541
57791W        W26009  22.493   6.347  13.546
57792W        W26010  13.285  11.254  14.738
57793W        W26011  33.507   9.283  14.390
57794W        W26012  20.935  17.311   2.503
57795W        W26013  16.850   6.858   1.412
57796W        W26014  38.192  18.833   1.478
57797W        W26015  36.118  19.264  14.921
57798W        W26016  38.758  14.844  13.486
57799W        W26017  36.412  36.012   3.817
57800W        W26018  11.358  26.957  13.970
57801W        W26019  20.076  29.329  10.699
57802W        W26020  24.923   5.296   2.708
57803W        W26021  18.044  12.526   5.673
57804W        W26022  26.335  35.339  12.264
57805W        W26023  17.304  35.168  13.355
57806W        W26024  41.962  36.024  14.806
57807W        W26025  20.582  15.352   1.399
57808W        W26026  11.130   9.659   2.777
57809W        W26027  44.899  38.048   2.830
57810W        W26028  29.383  43.655   1.356
57811W        W26029  16.218  10.107   3.859
57812W        W26030  43.521   0.263   2.631
57813W        W26031   2.057   6.310   3.711
57814W        W26032  17.340  23.021   0.666
57815W        W26033   7.556  21.273   5.042
57816W        W26034  30.383  11.792  10.715
57817W        W26035  20.639  38.275  14.815
57818W        W26036  21.523  17.066   3.224
57819W        W26037  13.291  14.674   2.245
57820W        W26038   0.474  34.848   0.778
57821W        W26039  37.913  25.637  11.287
57822W        W26040  44.900  42.743   1.285
57823W        W26041  12.023  26.431   1.289
57824W        W26042  11.253  39.803   3.630
57825W        W26043  21.464   7.438  11.445
57826W        W26044  34.418  32.583  11.113
57827W        W26045  39.957   7.303   1.878
57828W        W26046  37.769   1.568   3.386
57829W        W26047  40.903  32.035   4.626
57830W        W26048  44.949  37.174   2.600
57831W        W26049  32.319  14.690   2.796
57832W        W26050  10.721   3.540  10.660
57833W        W26051  13.905  10.887  12.922
57834W        W26052  36.512  30.154   3.695
57835W        W26053  15.962   9.487   3.237
57836W        W26054  33.526  15.347   3.391
57837W        W26055   5.646  42.979   3.404
57838W        W26056  18.539  21.624  13.823
57839W        W26057  13.300  19.463   1.842
57840W        W26058  29.552  18.464  11.223
57841W        W26059  36.322  36.580  12.947
57842W        W26060  36.539  28.744   1.902
57843W        W26061  43.984  33.033   2.655
57844W        W26062  27.666  12.724   1.304
57845W        W26063  31.379  39.319   0.916
57846W        W26064  32.803  40.863  14.550
57847W        W26065  20.782  34.847   1.317
57848W        W26066  43.344  12.361  12.481
57849W        W26067   6.955  15.541   1.294
57850W        W26068  24.064  30.974  12.939
57851W        W26069  11.755  10.328   4.152
57852W        W26070   6.749   6.056  13.276
57853W        W26071  15.836  25.510  12.505
57854W        W26072  19.821   4.254  14.840
57855W        W26073  14.559   6.962   4.076
57856W        W26074  36.079   6.800  14.766
57857W        W26075  37.645  27.385   1.820
57858W        W26076  16.406  37.748   3.165
57859W        W26077  40.932  44.483  13.752
57860W        W26078  19.086  30.637  14.337
57861W        W26079  32.729  18.287  11.054
57862W        W26080  27.400  34.663  13.399
57863W        W26081   5.090  24.187  10.280
57864W        W26082   8.110  40.044  10.759
57865W        W26083  28.679  21.603  13.931
57866W        W26084  30.668  43.468   0.437
57867W        W26085  43.835  15.079  12.043
57868W        W26086  41.021  20.577  13.035
57869W        W26087  27.210  40.729  11.599
57870W        W26088  18.019   8.659   3.703
57871W        W26089   5.798  32.321   2.023
57872W        W26090   6.559  21.464   4.184
57873W        W26091  28.640  42.350   3.242
57874W        W26092  26.471  33.575  12.203
57875W        W26093  38.638  13.761   1.760
57876W        W26094   1.288  38.581  12.433
57877W        W26095   6.962   8.440   0.883
57878W        W26096  27.488  21.985   4.525
57879W        W26097  27.723  40.241  14.782
57880W        W26098  41.038  14.284  10.731
57881W        W26099  18.653  40.492  13.920
57882W        W26100   2.187  14.512   3.227
57883W        W26101  12.291  16.049  11.454
57884W        W26102   9.640  21.783   3.970
57885W        W26103  40.785  30.853   3.360
57886W        W26104  37.942  40.796  13.297
57887W        W26105   7.348  10.267  11.963
57888W        W26106  31.820  11.274  14.095
57889W        W26107  29.584   6.697  10.685
57890W        W26108  12.093  16.001   2.223
57891W        W26109  25.835  42.843   4.042
57892W        W26110   2.174  21.204   1.234
57893W        W26111   2.466  17.356  14.410
57894W        W26112   8.403  23.309   2.845
57895W        W26113   6.179  44.074   3.790
57896W        W26114  42.444   8.399   1.143
57897W        W26115  35.464  40.044  11.240
57898W        W26116  43.553  31.642  12.080
57899W        W26117  28.977   1.335   0.296
57900W        W26118  32.592   2.597   3.129
57901W        W26119  22.995  26.529   3.976
57902W        W26120  20.637   6.739   0.066
57903W        W26121  41.852  40.909  14.935
57904W        W26122  14.807  27.885  11.572
57905W        W26123  19.068  31.663  11.552
57906W        W26124  24.225   6.306  13.891
57907W        W26125   0.383  25.105  12.167
57908W        W26126  41.407  12.803   2.006
57909W        W26127  40.615  11.208   4.169
57910W        W26128  36.574  30.050  14.994
57911W        W26129  20.658  10.181  14.301
57912W        W26130  39.464   2.764  13.092
57913W        W26131  32.116  40.020   4.540
57914W        W26132   9.149   0.068  11.210
57915W        W26133  18.639   0.514   3.158
57916W        W26134  38.536   9.440  14.339
57917W        W26135  18.785  31.672   3.174
57918W        W26136   0.721  11.633  11.589
57919W        W26137   4.450   0.470  11.642
57920W        W26138  31.097   6.794  14.795
57921W        W26139  26.014  41.522   0.849
57922W        W26140  15.286  21.690   4.101
57923W        W26141  25.470  41.788   4.194
57924W        W26142   8.826   4.942  11.596
57925W        W26143  20.080  28.573  11.134
57926W        W26144  18.326  24.192  12.421
57927W        W26145  20.944  37.266   9.926
57928W        W26146  31.410   0.725   1.916
57929W        W26147  31.378  17.735  12.282
57930W        W26148  41.525   0.910  13.563
57931W        W26149  10.822  26.989   3.919
57932W        W26150  24.549  11.785   3.960
57933W        W26151  16.779  31.171   1.384
57934W        W26152  41.013  18.158   2.786
57935W        W26153  10.103  18.329   4.372
57936W        W26154  24.464  33.369   0.221
57937W        W26155  33.538  26.903   2.233
57938W        W26156  15.420  32.586  12.357
57939W        W26157  39.375   6.892   1.337
57940W        W26158  41.230  24.456   2.207
57941W        W26159   7.578  27.720  14.590
57942W        W26160   9.406  35.474   2.513
57943W        W26161   1.896  26.705   4.715
57944W        W26162  19.588  20.408   4.024
57945W        W26163  24.035  32.613   4.599
57946W        W26164  43.561  42.747  13.815
57947W        W26165  17.274  23.344  14.378
57948W        W26166  16.180  43.060   2.681
57949W        W26167   0.796   8.099   1.277
57950W        W26168  22.511  21.756   3.800
57951W        W26169  23.571   6.279   3.340
57952W        W26170   9.305  14.538   4.099
57953W        W26171  36.414  33.533   0.993
57954W        W26172  19.080  14.692   3.698
57955W        W26173  27.583  34.620   3.792
57956W        W26174  11.092   4.433  10.698
57957W        W26175  10.305  43.199   0.216
57958W        W26176  26.256  38.598   1.262
57959W        W26177   9.741  35.363   1.851
57960W        W26178  14.243  30.661  11.463
57961W        W26179  37.435  26.294  13.337
57962W        W26180  24.150   9.444   3.276
57963W        W26181  10.201   4.769  13.580
57964W        W26182  18.294  25.416   3.731
57965W        W26183  10.932  16.765   4.358
57966W        W26184  10.362  18.532  14.463
57967W        W26185   6.226   2.941   4.116
57968W        W26186  22.489  38.113  13.740
57969W        W26187  39.097  10.240  12.943
57970W        W26188   2.048  11.046  10.650
57971W        W26189   1.295   2.096   3.886
57972W        W26190  36.415  44.367   0.823
57973W        W26191   4.408  38.256  11.176
57974W        W26192  44.821   7.225   2.228
57975W        W26193  24.516   3.430  13.901
57976W        W26194  42.532  33.352  10.891
57977W        W26195  32.042   8.124   3.175
57978W        W26196  16.453  21.021   3.067
57979W        W26197  25.889   4.793   3.738
57980W        W26198  14.869  10.295  10.698
57981W        W26199   1.250  29.597   4.119
57982W        W26200   6.124   6.643  13.282
57983W        W26201   9.781  22.189  10.389
57984W        W26202  44.945  23.368   1.310
57985W        W26203  38.639  15.525   0.291
57986W        W26204  10.744  16.565  12.574
57987W        W26205  16.705  21.568   1.408
57988W        W26206   1.667  11.306  12.665
57989W        W26207   5.796  22.979  12.595
57990W        W26208   8.147  24.260  12.821
57991W        W26209  29.079  35.030  13.478
57992W        W26210  13.524  27.932   1.741
57993W        W26211   9.826  20.901   4.167
57994W        W26212   0.104  27.947   4.797
57995W        W26213  22.501  26.916  14.787
57996W        W26214  18.324   6.164  14.950
57997W        W26215  44.801  10.813   4.754
57998W        W26216  21.208  33.534  12.542
57999W        W26217  36.308   6.526   3.713
58000W        W26218  32.309   0.931   1.966
58001W        W26219  39.641   4.829  11.535
58002W        W26220  31.649  29.059  10.501
58003W        W26221   4.641  31.003  13.040
58004W        W26222  37.590  39.271   3.230
58005W        W26223  30.598  12.760   4.906
58006W        W26224  12.056  10.638   3.844
58007W        W26225   8.195  15.445   2.300
58008W        W26226   6.743  13.692   4.665
58009W        W26227   1.896  24.170  13.958
58010W        W26228   5.409  12.110   4.524
58011W        W26229  28.454   8.160   4.575
58012W        W26230   3.511  43.528   3.432
58013W        W26231  28.454  26.682  13.327
58014W        W26232  21.480  34.863   3.619
58015W        W26233  28.531  13.853   0.315
58016W        W26234  27.045   8.387  13.589
58017W        W26235  12.807  30.598  11.627
58018W        W26236  42.017  29.053   1.425
58019W        W26237   4.880  40.931   3.115
58020W        W26238  12.414  29.048   4.720
58021W        W26239  21.621  26.787   4.573
58022W        W26240   3.830  27.964   4.685
58023W        W26241  34.057  37.454  14.712
58024W        W26242  23.682  36.608   2.306
58025W        W26243  12.622  31.137   4.306
58026W        W26244   8.732  18.584   0.214
58027W        W26245  15.099  42.490  10.821
58028W        W26246  25.892   2.833   3.273
58029W        W26247  20.179  37.466   1.716
58030W        W26248  11.615  21.530   0.763
58031W        W26249  26.580  43.138  11.640
58032W        W26250  34.507  36.917   1.025
58033W        W26251  19.126   3.446   1.276
58034W        W26252   1.943   9.866  11.340
58035W        W26253  28.913  20.533  11.631
58036W        W26254  42.348  35.273   4.581
58037W        W26255   4.567  38.948   2.027
58038W        W26256  37.996   5.802   1.688
58039W        W26257  35.508  18.636   4.291
58040W        W26258  44.191   9.755  13.905
58041W        W26259  19.073  25.957  12.136
58042W        W26260  32.362   2.705   4.466
58043W        W26261  36.276  38.980  11.406
58044W        W26262  22.043  38.895   1.687
58045W        W26263  37.450  19.857  14.104
58046W        W26264   0.315  43.912   2.222
58047W        W26265  20.849  20.807   3.588
58048W        W26266  31.656  30.957  11.128
58049W        W26267  18.673  41.524   3.297
58050W        W26268  23.510  37.543  13.908
58051W        W26269  18.499   8.746   3.079
58052W        W26270  40.279  18.681   3.726
58053W        W26271  39.744  30.012  11.126
58054W        W26272  17.388  27.735   2.171
58055W        W26273   3.794   2.549  10.501
58056W        W26274  37.740  13.395   4.136
58057W        W26275   6.262  33.175   2.849
58058W        W26276  37.958   3.630  14.454
58059W        W26277   4.195  23.600   3.791
58060W        W26278  44.069  38.480   3.683
58061W        W26279  28.055  12.305  11.045
58062W        W26280  18.067   6.077   1.333
58063W        W26281  27.750  26.157  13.411
58064W        W26282  25.571  31.921  11.184
58065W        W26283  36.426  23.030   2.464
58066W        W26284  26.577  29.485  13.803
58067W        W26285  23.257  12.273  13.319
58068W        W26286  12.317  11.829   1.792
58069W        W26287   7.775   2.920  12.029
58070W        W26288  39.166   1.986  14.347
58071W        W26289  28.879  17.228  12.026
58072W        W26290   3.214  36.808   2.307
58073W        W26291  40.432  42.846   0.489
58074W        W26292  25.607  15.658   1.782
58075W        W26293   6.171   6.249   2.426
58076W        W26294   0.295  21.194   4.987
58077W        W26295  40.184   1.038  13.929
58078W        W26296  28.685  44.504  14.437
58079W        W26297  36.898  31.895   4.153
58080W        W26298  34.365  33.015   3.067
58081W        W26299  23.981  29.637  14.842
58082W        W26300   3.454  42.790  13.332
58083W        W26301  32.086  19.929  11.142
58084W        W26302  21.198  17.088  12.132
58085W        W26303  11.858   3.293   1.285
58086W        W26304  37.443  35.141   2.809
58087W        W26305   1.031  18.529  12.580
58088W        W26306   0.806  42.888  12.295
58089W        W26307  33.128  24.095   4.905
58090W        W26308  38.052  34.767   0.725
58091W        W26309  10.241  37.902  11.499
58092W        W26310   1.307  16.601  11.404
58093W        W26311  27.536  37.274   3.387
58094W        W26312   5.940   0.270  11.396
58095W        W26313  21.085   5.256   1.863
58096W        W26314  36.124  16.387   0.936
58097W        W26315  18.796  25.549  10.704
58098W        W26316  31.665  17.659  13.869
58099W        W26317  20.206  37.068  12.953
58100W        W26318  41.933  38.226   4.540
58101W        W26319  15.536  21.335   0.686
58102W        W26320  12.438  34.705   0.108
58103W        W26321  17.257  24.246  14.168
58104W        W26322  33.711  16.326  12.863
58105W        W26323  15.827  44.387  14.416
58106W        W26324  30.372   5.213   1.385
58107W        W26325  18.494  44.785  10.903
58108W        W26326  20.765  19.998  13.117
58109W        W26327  28.666  12.770   1.856
58110W        W26328  21.205   3.209   3.533
58111W        W26329   4.255   4.219  10.515
58112W        W26330   4.295  23.597  12.963
58113W        W26331  36.013   8.569  14.036
58114W        W26332  10.858   1.815  13.721
58115W        W26333  19.198  38.918  12.982
58116W        W26334   7.654  39.059  11.613
58117W        W26335   4.226  17.864   3.687
58118W        W26336  15.407  43.448   3.540
58119W        W26337  20.861  12.282  13.140
58120W        W26338   6.213   5.786   3.295
58121W        W26339  16.708  18.075   1.666
58122W        W26340   4.302  39.914   4.124
58123W        W26341  20.227  37.449  10.641
58124W        W26342  20.992  13.830   2.304
58125W        W26343  29.573   4.657   1.756
58126W        W26344   9.904  42.085  12.001
58127W        W26345  30.103  24.646  11.554
58128W        W26346  34.177   8.312  12.027
58129W        W26347   7.803  37.603   2.341
58130W        W26348  19.700  25.599   3.585
58131W        W26349  26.202   6.374   4.462
58132W        W26350  24.833  20.980   1.586
58133W        W26351  22.458   5.892   2.704
58134W        W26352  37.251  34.386   3.188
58135W        W26353  40.765  32.642  14.363
58136W        W26354   4.685  17.860  14.831
58137W        W26355  43.694  34.654   1.174
58138W        W26356  17.675   8.626   3.106
58139W        W26357  37.269  12.354   2.821
58140W        W26358  44.894  37.613  12.913
58141W        W26359  38.059  42.043   3.708
58142W        W26360   7.665  21.307   3.209
58143W        W26361  18.632  44.294  11.064
58144W        W26362  40.275  39.641   5.157
58145W        W26363  43.243   9.175   4.278
58146W        W26364  33.223  12.132   2.384
58147W        W26365  10.508  33.898   0.049
58148W        W26366   7.847  18.819   2.771
58149W        W26367  35.898   9.070   3.410
58150W        W26368  28.716  44.526   4.497
58151W        W26369   0.500  40.534   1.400
58152W        W26370  21.420   1.776   1.846
58153W        W26371  21.322  25.979   3.245
58154W        W26372   6.608  13.683  14.389
58155W        W26373   1.628   2.863  11.149
58156W        W26374  21.646   3.472  14.232
58157W        W26375  23.068   9.288  13.050
58158W        W26376  38.356  28.718  11.613
58159W        W26377  38.523   5.702  14.953
58160W        W26378   2.424  25.711   4.205
58161W        W26379  25.029  36.157  11.143
58162W        W26380  37.451  27.608  14.250
58163W        W26381  15.591  14.665   0.860
58164W        W26382  38.000  36.542   3.172
58165W        W26383   2.863  24.260  14.870
58166W        W26384  42.512   9.204   0.510
58167W        W26385  20.283   2.292   2.749
58168W        W26386  41.916  35.911  10.702
58169W        W26387  10.913  34.860  12.938
58170W        W26388  42.609   3.494  11.739
58171W        W26389  22.400  10.819   3.117
58172W        W26390  19.617  40.429   1.252
58173W        W26391   9.866  24.559  14.981
58174W        W26392  12.975   6.906  12.230
58175W        W26393  42.051   4.792  14.821
58176W        W26394  26.417   6.686   2.487
58177W        W26395  18.559  40.077   3.080
58178W        W26396  18.830  13.243  13.558
58179W        W26397  42.426  34.347  14.929
58180W        W26398  31.074  37.084  12.441
58181W        W26399  29.490   9.053   0.000
58182W        W26400  31.924   6.807   4.378
58183W        W26401   9.610   1.216   2.635
58184W        W26402  32.220  30.663  14.556
58185W        W26403  39.302  12.107   3.704
58186W        W26404  22.745  33.343  12.986
58187W        W26405   2.063  10.817  11.602
58188W        W26406  44.360  24.281   4.079
58189W        W26407  38.991  18.304   2.488
58190W        W26408   4.712  21.536   0.320
58191W        W26409  34.664  16.080   3.402
58192W        W26410  40.213  35.715  10.598
58193W        W26411  43.140  41.321   0.309
58194W        W26412  28.543  44.957   0.695
58195W        W26413  35.228  36.572   0.792
58196W        W26414  16.094  24.331  11.128
58197W        W26415  17.035  34.525   3.333
58198W        W26416  20.619  24.834  14.863
58199W        W26417  26.977  16.216  13.272
58200W        W26418  34.074  20.850  12.892
58201W        W26419  36.571  28.000  12.999
58202W        W26420  28.222  38.331  13.779
58203W        W26421  27.532  34.643   4.412
58204W        W26422   2.729   0.384   3.226
58205W        W26423  29.902  18.174   4.074
58206W        W26424   4.012  39.068  14.904
58207W        W26425   1.550  44.980  14.840
58208W        W26426  43.510  11.420   1.482
58209W        W26427   5.450  28.548   3.719
58210W        W26428   8.084  38.962   3.159
58211W        W26429  32.873   2.305  13.917
58212W        W26430  44.385  37.811  13.939
58213W        W26431   7.317  33.760  13.816
58214W        W26432  15.120  15.037  11.087
58215W        W26433   9.038   5.877   2.239
58216W        W26434  10.804   8.870  13.493
58217W        W26435  42.462  44.030   1.995
58218W        W26436  31.764  39.125   4.584
58219W        W26437  21.171  15.167  13.084
58220W        W26438   9.306   0.643  13.956
58221W        W26439  28.385  37.526   1.929
58222W        W26440  28.091  28.126   2.189
58223W        W26441  21.522  28.122  14.331
58224W        W26442  14.806  28.572   4.077
58225W        W26443  21.005  22.563   2.404
58226W        W26444  20.684   4.309  12.150
58227W        W26445  36.516  36.500   3.627
58228W        W26446  28.275  35.547  14.260
58229W        W26447  43.524  32.742  12.968
58230W        W26448  10.261  16.900  13.384
58231W        W26449  12.076  29.517   3.267
58232W        W26450  27.934  22.411   9.890
58233W        W26451   2.770  41.209   0.444
58234W        W26452   0.959  13.681  14.311
58235W        W26453  37.069  37.383  11.600
58236W        W26454  12.730  29.366   2.764
58237W        W26455  20.114   8.347   4.668
58238W        W26456   0.232  38.556  11.172
58239W        W26457  42.717  36.772  11.229
58240W        W26458  29.987  33.336  11.420
58241W        W26459  16.545  40.192   3.236
58242W        W26460   3.776   1.762   3.227
58243W        W26461  18.166  18.103   2.692
58244W        W26462  18.802  22.094  10.636
58245W        W26463   5.912  23.028   4.194
58246W        W26464  22.924  31.503   4.992
58247W        W26465  41.050  39.571  10.673
58248W        W26466  44.936  37.656   1.431
58249W        W26467  42.226  42.095  13.324
58250W        W26468  19.842  41.799   2.325
58251W        W26469  38.816  23.530  14.468
58252W        W26470  10.723  31.849  12.885
58253W        W26471   9.795   9.422  12.570
58254W        W26472  29.811  26.458   4.083
58255W        W26473  32.467  13.349   4.093
58256W        W26474   0.313  15.299  13.030
58257W        W26475  30.980   7.407   2.694
58258W        W26476  22.428  14.071  13.314
58259W        W26477  18.554  32.724   3.115
58260W        W26478  24.371  42.315  13.598
58261W        W26479   0.972  16.316  11.705
58262W        W26480   1.379   5.413  12.809
58263W        W26481  35.373  22.521   2.324
58264W        W26482  24.093  22.615   1.912
58265W        W26483  17.569  38.506  11.308
58266W        W26484  41.109  26.669  14.963
58267W        W26485  44.372  27.191  14.601
58268W        W26486  39.903   0.022  12.857
58269W        W26487   7.960   2.879  13.379
58270W        W26488  41.444  17.224   0.708
58271W        W26489  29.177  41.424  14.574
58272W        W26490  42.931  30.428  13.939
58273W        W26491  30.535  39.130  12.787
58274W        W26492  11.920   1.945  11.937
58275W        W26493  41.582   4.935   2.162
58276W        W26494   3.956   2.016   3.671
58277W        W26495  35.296  31.654  11.673
58278W        W26496  36.485  26.515  14.618
58279W        W26497  21.467  16.663   4.580
58280W        W26498  31.253  11.554  12.605
58281W        W26499  32.780  31.481   2.776
58282W        W26500  19.581  39.182   4.127
58283W        W26501  28.465  15.679   4.502
58284W        W26502  35.855  27.934  11.002
58285W        W26503   0.041  41.718   2.346
58286W        W26504  26.846   9.256   4.097
58287W        W26505   5.880  14.520   2.433
58288W        W26506   1.363  15.054  11.074
58289W        W26507   1.807  31.344   0.737
58290W        W26508  17.273  42.129  10.600
58291W        W26509   4.975   3.307  14.727
58292W        W26510  25.626  19.763   3.723
58293W        W26511   0.509  14.708  13.791
58294W        W26512   5.062  27.484   3.032
58295W        W26513   1.230   0.383   1.961
58296W        W26514  15.288  32.828   3.201
58297W        W26515  23.003  16.999  12.893
58298W        W26516  41.242  23.004  12.968
58299W        W26517  37.092  23.546  11.176
58300W        W26518  43.830  13.387   3.239
58301W        W26519  36.075  10.667   3.420
58302W        W26520   1.166  36.766   1.040
58303W        W26521  15.976  32.912  13.992
58304W        W26522  23.968  15.634   2.197
58305W        W26523  20.551  35.852   3.717
58306W        W26524  41.801  30.887   3.258
58307W        W26525  13.231  44.496  13.842
58308W        W26526  30.676  40.337  10.766
58309W        W26527  10.252  20.986  12.710
58310W        W26528  24.518  23.602  12.893
58311W        W26529  37.260   7.902   0.003
58312W        W26530   3.854  22.540  12.139
58313W        W26531  32.153  27.887   1.758
58314W        W26532  39.941  21.926  14.700
58315W        W26533  14.682  13.189   0.618
58316W        W26534  33.121   3.648   0.188
58317W        W26535  34.624  44.890  12.005
58318W        W26536  29.016  30.450   3.375
58319W        W26537   2.559   6.724   2.881
58320W        W26538  29.677  33.663  14.476
58321W        W26539  44.844  12.419   1.377
58322W        W26540   2.432  31.923  12.977
58323W        W26541  38.563   1.242  13.963
58324W        W26542  44.083  16.067   3.286
58325W        W26543  18.061  32.938   3.092
58326W        W26544   8.412   9.181  12.867
58327W        W26545  28.925  10.811  12.976
58328W        W26546  25.515  16.267   1.098
58329W        W26547   9.738  28.806  11.178
58330W        W26548  43.367   6.855   0.022
58331W        W26549  30.609  28.219  12.799
58332W        W26550  38.289   6.280  10.609
58333W        W26551  22.293  34.573   2.261
58334W        W26552  40.230   5.734  14.270
58335W        W26553  29.981  36.374   0.167
58336W        W26554  16.843  43.495   4.305
58337W        W26555  36.431  17.771   3.306
58338W        W26556  28.857  16.802   5.028
58339W        W26557  19.928  32.975   2.897
58340W        W26558  28.474  21.988   4.124
58341W        W26559  37.780  44.417  11.125
58342W        W26560  16.359  44.319  14.472
58343W        W26561  17.077  36.116   1.648
58344W        W26562  23.303  30.179  11.663
58345W        W26563   3.263   1.811  10.724
58346W        W26564  28.124  31.269   3.730
58347W        W26565   2.364   0.660   0.667
58348W        W26566  34.635   5.057   4.322
58349W        W26567  11.291   1.294   1.991
58350W        W26568  40.112  29.426  10.958
58351W        W26569  34.989   0.329   2.103
58352W        W26570   1.116  44.350   3.388
58353W        W26571  36.976  18.714  13.457
58354W        W26572  23.222   6.170   2.745
58355W        W26573  25.784   5.415  14.726
58356W        W26574  13.931  25.528  12.481
58357W        W26575  29.656  36.576   2.645
58358W        W26576   2.519  34.888  12.345
58359W        W26577  29.067  14.066  10.791
58360W        W26578  20.497  32.466  12.024
58361W        W26579  21.325  22.494   4.133
58362W        W26580   0.224   0.860   3.607
58363W        W26581  42.918  21.437  10.242
58364W        W26582  44.838   4.268  14.838
58365W        W26583  38.427   1.244  12.569
58366W        W26584  20.225   5.231   2.906
58367W        W26585  24.969  13.317  13.868
58368W        W26586  36.421  32.882  11.532
58369W        W26587  15.077  38.180   2.369
58370W        W26588  34.543  37.453  10.397
58371W        W26589  30.631  26.012  13.384
58372W        W26590  16.201  30.619   2.713
58373W        W26591  24.892  14.412   0.909
58374W        W26592  41.255  22.394   1.766
58375W        W26593  29.641  12.813   1.717
58376W        W26594  36.436  14.603   2.768
58377W        W26595  39.007  15.077  10.537
58378W        W26596   4.932  41.291   2.653
58379W        W26597  25.640  30.931  12.155
58380W        W26598  20.178  19.783  10.471
58381W        W26599  32.412   8.432  14.861
58382W        W26600   7.651  20.187   0.290
58383W        W26601   3.369  34.517   0.471
58384W        W26602  19.551  37.738  11.922
58385W        W26603  35.890  29.940  10.087
58386W        W26604  17.198  12.664   0.445
58387W        W26605   2.526  41.949  14.362
58388W        W26606   1.343  36.972  14.440
58389W        W26607   4.779   9.658   2.130
58390W        W26608  41.084  13.855  12.983
58391W        W26609  44.583  33.906   1.782
58392W        W26610  44.647   5.540  13.423
58393W        W26611  38.822   9.119   2.695
58394W        W26612   5.770  35.794  12.917
58395W        W26613  28.129   9.774   4.569
58396W        W26614  15.072  27.440  12.652
58397W        W26615   6.452  17.738   5.425
58398W        W26616  25.609  34.417  14.497
58399W        W26617  19.196  11.915  14.990
58400W        W26618  32.819  28.459  13.540
58401W        W26619  18.351  28.045   3.098
58402W        W26620  29.557  38.075  11.105
58403W        W26621  37.456  35.500   0.977
58404W        W26622  30.593  19.484   2.811
58405W        W26623   8.655  39.331  11.518
58406W        W26624  10.199  34.906  12.533
58407W        W26625  32.308  18.077   2.152
58408W        W26626  19.604  22.311   1.707
58409W        W26627  19.182  24.499   4.551
58410W        W26628  42.890  22.314  12.046
58411W        W26629  28.192  12.405   2.710
58412W        W26630  12.811  43.287  13.552
58413W        W26631  25.523   5.319  14.303
58414W        W26632   1.743   1.717   0.765
58415W        W26633  33.527  11.452   0.584
58416W        W26634  13.718  34.378  12.335
58417W        W26635  41.484  23.776  10.545
58418W        W26636  36.495  29.906  10.722
58419W        W26637  10.285  20.642  11.111
58420W        W26638   8.236   0.329   4.643
58421W        W26639  26.721  38.272   4.455
58422W        W26640  33.074   5.724  11.406
58423W        W26641  43.057  34.289  14.252
58424W        W26642  34.293  29.894   0.750
58425W        W26643   6.159  35.527   2.171
58426W        W26644  27.263   1.150  14.316
58427W        W26645  13.070  26.408  14.366
58428W        W26646  40.882   4.700  11.911
58429W        W26647   0.336  28.199  13.336
58430W        W26648  13.739  14.595   1.344
58431W        W26649  41.739  38.519   4.165
58432W        W26650  17.010  42.416  10.944
58433W        W26651  25.928  21.830   1.267
58434W        W26652   6.802   2.876   4.877
58435W        W26653   3.217  19.755   4.099
58436W        W26654  27.055  30.489  12.098
58437W        W26655   9.141   7.367  13.869
58438W        W26656  28.447  15.403   3.667
58439W        W26657  10.386  10.314  13.400
58440W        W26658  18.321  36.038   0.840
58441W        W26659  16.854  14.724   0.295
58442W        W26660  39.536  17.634   1.454
58443W        W26661  28.198  26.076  13.112
58444W        W26662  36.169  15.783  13.067
58445W        W26663  27.785  35.032  13.971
58446W        W26664  29.367  24.607  14.257
58447W        W26665  21.330  29.884  14.004
58448W        W26666  35.167  11.149   2.783
58449W        W26667  12.876   3.825   1.879
58450W        W26668  12.057  11.462   3.690
58451W        W26669  16.044   9.111   1.248
58452W        W26670  29.291  26.358  14.471
58453W        W26671  29.508  17.981  14.833
58454W        W26672  41.422   5.931   2.248
58455W        W26673  42.525  32.495   3.861
58456W        W26674  24.131  21.665  12.127
58457W        W26675  33.040   3.717  11.659
58458W        W26676  18.499  13.942  14.519
58459W        W26677  30.962  12.557  10.375
58460W        W26678   0.324  42.942   0.355
58461W        W26679  11.909   4.581  11.267
58462W        W26680   3.714  33.015  14.418
58463W        W26681  37.752  22.569   2.489
58464W        W26682  44.132  18.524  14.075
58465W        W26683  26.225  23.218  10.860
58466W        W26684  21.455  31.778  10.818
58467W        W26685   3.897  15.179   2.781
58468W        W26686  41.966  38.071   0.766
58469W        W26687  29.459  13.839   0.757
58470W        W26688   7.160  28.137   1.271
58471W        W26689  12.326  28.925  12.982
58472W        W26690  20.886  13.693   5.461
58473W        W26691  12.588  31.297   4.805
58474W        W26692  36.858  40.996   3.553
58475W        W26693  25.041  15.415   3.147
58476W        W26694  20.194   7.662  12.181
58477W        W26695  32.575  11.199  13.515
58478W        W26696  17.391  33.497  12.017
58479W        W26697  16.633   5.199  13.836
58480W        W26698   0.207  35.408   0.082
58481W        W26699  34.500   7.861   3.778
58482W        W26700  35.852  19.108  13.258
58483W        W26701  25.001  37.679   1.976
58484W        W26702  30.957   9.166   3.423
58485W        W26703  13.509  18.967   2.828
58486W        W26704  21.609   4.679   2.521
58487W        W26705   9.201  29.514  11.474
58488W        W26706  35.184  11.538   0.861
58489W        W26707  43.537  33.609  13.392
58490W        W26708  18.838  22.564   4.429
58491W        W26709  36.903   5.794   2.191
58492W        W26710  16.899  36.329  12.948
58493W        W26711  18.019  19.828   0.218
58494W        W26712   7.903  21.245  10.940
58495W        W26713   8.713   0.345   3.285
58496W        W26714  28.533   4.904   0.108
58497W        W26715  10.294  34.814   0.414
58498W        W26716  25.430  42.946   0.068
58499W        W26717   6.876  14.713  14.374
58500W        W26718  11.967   6.772  10.625
58501W        W26719  28.206  11.223   1.880
58502W        W26720  14.549  32.153  12.150
58503W        W26721  12.327  38.403  13.476
58504W        W26722  35.697  43.426   2.725
58505W        W26723  41.791  39.044   2.882
58506W        W26724  13.661  41.148   2.263
58507W        W26725   8.937  20.666  11.124
58508W        W26726  37.523  33.487  11.993
58509W        W26727  19.279   8.379  11.688
58510W        W26728  44.666   7.889   2.675
58511W        W26729  15.595  10.716   4.932
58512W        W26730   9.687  38.959  14.130
58513W        W26731  41.891  43.449  14.832
58514W        W26732  26.543   7.426  12.013
58515W        W26733  16.207  29.665  14.700
58516W        W26734  32.821  39.863  12.424
58517W        W26735  38.837  23.150   3.117
58518W        W26736  22.518  20.714  11.520
58519W        W26737  15.326  16.765   1.694
58520W        W26738  39.102   6.694   2.830
58521W        W26739  41.243  39.088  14.440
58522W        W26740  33.464  10.625   1.802
58523W        W26741  27.724   6.906   2.853
58524W        W26742  38.600  36.980   2.758
58525W        W26743   9.096  29.740   3.265
58526W        W26744  41.649  30.688  13.413
58527W        W26745   1.393  39.077  11.544
58528W        W26746  13.803  39.782   4.451
58529W        W26747  42.564   6.632   2.859
58530W        W26748  18.100   3.706  11.092
58531W        W26749  20.771  22.203   0.699
58532W        W26750  12.773   3.606   4.367
58533W        W26751  35.954  21.516  11.097
58534W        W26752  20.326  19.966  13.845
58535W        W26753  40.476   3.909  13.071
58536W        W26754  32.811  40.295  13.086
58537W        W26755  44.482  38.423  10.700
58538W        W26756   6.628   7.320   2.234
58539W        W26757  29.337  28.590   3.361
58540W        W26758   0.369  41.264  12.503
58541W        W26759   4.522  19.818   1.656
58542W        W26760  38.525  24.814   2.379
58543W        W26761  16.064  16.729  13.010
58544W        W26762   0.719  13.208   4.838
58545W        W26763   3.745  29.186   3.767
58546W        W26764  44.503  23.774  11.882
58547W        W26765   8.778  40.871   1.278
58548W        W26766   3.169  33.774  13.073
58549W        W26767  25.098   7.831   4.281
58550W        W26768  31.578   9.688  11.581
58551W        W26769   3.698  35.816   4.547
58552W        W26770  10.219  32.479  12.555
58553W        W26771  44.764  33.501   3.207
58554W        W26772  32.966  12.641  11.193
58555W        W26773  42.983   7.433   2.921
58556W        W26774  15.104  40.965   1.804
58557W        W26775  10.176   4.820  14.110
58558W        W26776  22.464  43.393  12.400
58559W        W26777  12.103  14.058  11.625
58560W        W26778  25.536  29.596   0.781
58561W        W26779  21.179   4.221  14.256
58562W        W26780  24.867  13.887   0.863
58563W        W26781  21.166  18.813   4.785
58564W        W26782  35.172  18.288   0.107
58565W        W26783  20.946  11.247   0.863
58566W        W26784   4.267  19.182   1.050
58567W        W26785  19.625   4.411   2.902
58568W        W26786  18.167  32.713  11.392
58569W        W26787   9.957  15.513   0.514
58570W        W26788  38.490   6.901  11.838
58571W        W26789  27.234   4.321   4.952
58572W        W26790  39.309  12.296  14.553
58573W        W26791   3.613  18.992   1.883
58574W        W26792   4.971  24.522   4.822
58575W        W26793  43.276  36.794  13.927
58576W        W26794   7.752  28.052  13.755
58577W        W26795  35.880  20.284   0.871
58578W        W26796   0.591  32.046   4.857
58579W        W26797  25.067  43.379   0.308
58580W        W26798  38.851  23.019   0.563
58581W        W26799  32.664  41.084  11.501
58582W        W26800  11.431  33.978  12.856
58583W        W26801  27.566   7.255  11.555
58584W        W26802  35.906  20.503  14.495
58585W        W26803  29.779  42.137   0.334
58586W        W26804  38.155  25.567   2.308
58587W        W26805  22.555  19.141  10.829
58588W        W26806  27.058  15.863   0.395
58589W        W26807  16.228  43.577   2.615
58590W        W26808   5.398  39.259  14.873
58591W        W26809  33.705  40.647   1.374
58592W        W26810  33.246  13.146   3.987
58593W        W26811  27.431   5.323  14.063
58594W        W26812  12.202  37.510   2.316
58595W        W26813  39.852  32.442   3.208
58596W        W26814  24.859  25.662  14.209
58597W        W26815  19.090  21.278   0.243
58598W        W26816   0.941  23.266   4.193
58599W        W26817  31.948  32.407  13.691
58600W        W26818  11.626  15.220   3.550
58601W        W26819  14.875   8.030   4.005
58602W        W26820  20.631  22.147  12.574
58603W        W26821   6.633  23.467  12.997
58604W        W26822  18.148  27.674  13.490
58605W        W26823  44.932   4.189  10.495
58606W        W26824  35.563  33.567   4.699
58607W        W26825  32.485  21.719   3.197
58608W        W26826   9.905  40.261  10.934
58609W        W26827  17.344   2.882  11.868
58610W        W26828  32.723  26.039  11.815
58611W        W26829  38.685  24.056   4.401
58612W        W26830   6.301  37.006   1.797
58613W        W26831  19.568  16.778   1.262
58614W        W26832   8.042  33.629  11.588
58615W        W26833  31.177  22.103   3.485
58616W        W26834  41.108  33.512   4.214
58617W        W26835  23.229  44.942   1.886
58618W        W26836   2.250  42.509  13.359
58619W        W26837  40.391  21.267   0.805
58620W        W26838  18.080  34.144   4.566
58621W        W26839  13.205  24.578  11.492
58622W        W26840  14.484  19.773   1.386
58623W        W26841  36.564   5.491  13.430
58624W        W26842   2.011  33.062   3.995
58625W        W26843  10.179  44.340   0.968
58626W        W26844  21.048  42.594  11.233
58627W        W26845  27.374   9.858   3.745
58628W        W26846  27.904  20.802   2.884
58629W        W26847  23.621  20.265  13.408
58630W        W26848  13.824  22.216  12.742
58631W        W26849  30.068  39.046   3.769
58632W        W26850  33.007  28.037   1.922
58633W        W26851  20.311  35.680  10.641
58634W        W26852  41.937  26.147  10.344
58635W        W26853  12.488  23.166  13.135
58636W        W26854  34.501   1.905  13.971
58637W        W26855  11.319  15.646  12.504
58638W        W26856  39.093  18.289  14.403
58639W        W26857   7.392   6.390   2.145
58640W        W26858   9.338  21.986  10.592
58641W        W26859   0.906   2.367  12.587
58642W        W26860   6.225  41.520  13.439
58643W        W26861  34.191  44.706   3.428
58644W        W26862  33.036  21.518   2.339
58645W        W26863  38.117  43.506  12.517
58646W        W26864  17.523  33.609  13.543
58647W        W26865  33.497  24.541  10.604
58648W        W26866  15.309   4.450   3.860
58649W        W26867  16.861  42.083   2.156
58650W        W26868  24.172  37.408   2.010
58651W        W26869  23.166   3.437   3.189
58652W        W26870   9.406   7.967  11.689
58653W        W26871  11.846  28.343  11.519
58654W        W26872   6.625  14.223  13.323
58655W        W26873  21.957   9.929  13.245
58656W        W26874  31.894   1.966   4.985
58657W        W26875  22.293  12.759   1.952
58658W        W26876  14.301  21.998  12.762
58659W        W26877  40.858  14.740  13.414
58660W        W26878  31.379  18.558   4.142
58661W        W26879   2.849  23.940  12.194
58662W        W26880  30.684  18.013   1.633
58663W        W26881  33.962   6.916   2.149
58664W        W26882  25.283  29.225   3.144
58665W        W26883   3.935  13.103   3.316
58666W        W26884  10.390   8.370  11.197
58667W        W26885  21.574  43.692  14.322
58668W        W26886   3.300  15.567   1.814
58669W        W26887  25.374  16.237   4.162
58670W        W26888  21.753   4.965   0.781
58671W        W26889  22.252  15.607  12.059
58672W        W26890  24.541  42.409  10.893
58673W        W26891  28.055  25.255   4.201
58674W        W26892  43.710  37.065  10.780
58675W        W26893  33.872  17.326   4.620
58676W        W26894  12.407  22.023  12.267
58677W        W26895  21.269  21.520   3.383
58678W        W26896  40.064  24.938   1.840
58679W        W26897  20.497  44.504  12.365
58680W        W26898   8.848   9.171   3.268
58681W        W26899   9.554   5.953   2.240
58682W        W26900   4.361  35.136   0.009
58683W        W26901   8.861  31.243  10.752
58684W        W26902   9.360  14.605   3.245
58685W        W26903  11.661  37.493   2.272
58686W        W26904  17.269  17.556  10.503
58687W        W26905  38.504  36.888  12.799
58688W        W26906  25.991  20.987   3.082
58689W        W26907  37.337  33.368   1.669
58690W        W26908  43.247   9.845   2.665
58691W        W26909   9.597  38.150  11.776
58692W        W26910  36.695   3.020   1.950
58693W        W26911  34.031  28.145  13.499
58694W        W26912  23.139  32.756  11.119
58695W        W26913  17.345  28.047   3.283
58696W        W26914  24.787  33.029  13.906
58697W        W26915  37.023  23.120   3.134
58698W        W26916  23.522  43.346  10.488
58699W        W26917  32.123  18.310  14.815
58700W        W26918  36.859  24.563  10.719
58701W        W26919  26.350   5.831  11.651
58702W        W26920  33.408  16.258   3.191
58703W        W26921  38.317  10.824  12.074
58704W        W26922  29.474  13.200  13.721
58705W        W26923   3.826  27.282  13.152
58706W        W26924   7.309  22.279  13.295
58707W        W26925  23.178  28.483  12.160
58708W        W26926  36.473   7.830  10.718
58709W        W26927   2.241   0.940   4.233
58710W        W26928  33.644  38.064  12.752
58711W        W26929  29.652  32.576  10.713
58712W        W26930  33.160  42.363  11.288
58713W        W26931  14.246  42.329  13.713
58714W        W26932  26.719  22.996   3.275
58715W        W26933   9.769  23.928   3.306
58716W        W26934  19.367  39.508   4.955
58717W        W26935   7.744  23.185  14.677
58718W        W26936  22.907  13.802  10.663
58719W        W26937  22.721   2.925  13.704
58720W        W26938   8.113  23.357   1.359
58721W        W26939  26.557  14.658  12.903
58722W        W26940   7.587  19.097  13.000
58723W        W26941  39.150  18.557  12.096
58724W        W26942  24.735  23.331  14.526
58725W        W26943  38.435  20.537   3.844
58726W        W26944  21.279  25.409   4.494
58727W        W26945  43.466  20.767   2.229
58728W        W26946   3.732   6.967   1.409
58729W        W26947  44.359  12.682   0.686
58730W        W26948  14.066  34.109   1.429
58731W        W26949   2.789   9.129   3.618
58732W        W26950  26.903   3.480   5.142
58733W        W26951  42.710  18.101   1.364
58734W        W26952  41.983   4.713   1.921
58735W        W26953   6.339  23.523   5.118
58736W        W26954  25.970  42.834  11.177
58737W        W26955  37.969  30.901  12.107
58738W        W26956  27.818  42.324  11.035
58739W        W26957  11.296   9.593  13.768
58740W        W26958  32.428  37.275   3.922
58741W        W26959  23.998  36.664   2.757
58742W        W26960  17.779  22.331   0.088
58743W        W26961  19.109   5.327  11.688
58744W        W26962  34.508  26.015   3.663
58745W        W26963  22.179  43.971  11.137
58746W        W26964   3.325  11.284   4.038
58747W        W26965   9.630  11.652  12.647
58748W        W26966  12.168  10.281   1.774
58749W        W26967  28.135  41.394  14.339
58750W        W26968  27.338  20.246  14.583
58751W        W26969   2.865   5.339   1.211
58752W        W26970   2.786  13.349  13.001
58753W        W26971   2.709   7.017   4.570
58754W        W26972  17.376  44.510  12.367
58755W        W26973  23.462  37.267   1.355
58756W        W26974  43.927  44.511   3.555
58757W        W26975  37.075  33.692  14.799
58758W        W26976  26.433  41.256   0.347
58759W        W26977   3.174  38.991  14.731
58760W        W26978  13.783  36.033  12.989
58761W        W26979  36.090  43.072  14.740
58762W        W26980  19.698  31.475  10.762
58763W        W26981   7.585   9.145  13.834
58764W        W26982   1.710  29.825  12.047
58765W        W26983  25.243   4.908   2.896
58766W        W26984  20.368  26.385  11.617
58767W        W26985   7.847   6.507   2.366
58768W        W26986  20.835   6.315   3.608
58769W        W26987  44.025  15.141  14.934
58770W        W26988  41.457  12.174  12.729
58771W        W26989  23.698   1.770  10.613
58772W        W26990  36.872  31.771   1.353
58773W        W26991   3.096  18.845  13.242
58774W        W26992  22.958   2.277   2.841
58775W        W26993  39.906   9.873  12.089
58776W        W26994  10.536  38.830   5.390
58777W        W26995  37.367   5.239  14.988
58778W        W26996  39.264   2.754  12.625
58779W        W26997  14.520  22.467   0.870
58780W        W26998   0.978   0.908  12.889
58781W        W26999  27.957  34.062   0.420
58782W        W27000  11.048  38.121   4.164
58783W        W27001   5.224  36.680  11.714
58784W        W27002  36.850   6.016  14.736
58785W        W27003  14.429  18.522  13.021
58786W        W27004  16.299  43.905   5.055
58787W        W27005  29.022  42.488  12.505
58788W        W27006  33.611  24.827  13.406
58789W        W27007  37.837  36.817  12.527
58790W        W27008  40.603  16.650  13.952
58791W        W27009   3.032   4.350   3.147
58792W        W27010   3.480  33.632   2.261
58793W        W27011  11.819  31.423  13.038
58794W        W27012  17.599  42.084  11.023
58795W        W27013  26.228  35.558   4.749
58796W        W27014   9.049  26.514  14.507
58797W        W27015   1.787  20.630  14.250
58798W        W27016  36.833  27.053  11.456
58799W        W27017  43.028  44.796  14.452
58800W        W27018  19.119  30.428   0.993
58801W        W27019  34.068  39.281   2.783
58802W        W27020  29.283  30.663   2.617
58803W        W27021  18.978  33.040   4.513
58804W        W27022   9.307   1.636   2.711
58805W        W27023  12.169  37.672  10.224
58806W        W27024   9.698  12.706  13.979
58807W        W27025  19.714  31.611   2.737
58808W        W27026  19.703  13.065   3.865
58809W        W27027  27.890   7.379  12.999
58810W        W27028  40.118   2.762   4.246
58811W        W27029  39.343  26.595  10.677
58812W        W27030   6.265  27.054  10.585
58813W        W27031  14.810  16.702   0.426
58814W        W27032  24.456   0.817  11.024
58815W        W27033  33.379  23.984  14.856
58816W        W27034  42.045  34.057   2.410
58817W        W27035  24.668  14.109  13.021
58818W        W27036  38.934   3.745  13.609
58819W        W27037   4.494   2.197   4.892
58820W        W27038  14.867  29.920  13.910
58821W        W27039  34.008  11.814   2.754
58822W        W27040  22.100  43.269  13.446
58823W        W27041  35.524  15.856   0.874
58824W        W27042  20.557   1.657  11.626
58825W        W27043  26.278  12.272  14.059
58826W        W27044  35.457  32.220   3.247
58827W        W27045   9.456  28.507   0.785
58828W        W27046  40.455  32.241  14.556
58829W        W27047  13.860  41.367   0.894
58830W        W27048  12.380  39.364  13.894
58831W        W27049  19.659  41.785  11.150
58832W        W27050  18.761   7.498   2.715
58833W        W27051  37.830  40.829   3.281
58834W        W27052  22.093  38.518   2.470
58835W        W27053  13.608  10.655  14.659
58836W        W27054  30.015  18.257  11.399
58837W        W27055  29.543  35.085  13.260
58838W        W27056   7.827   5.174  10.667
58839W        W27057  30.024  23.089   0.323
58840W        W27058   0.969  24.529  10.543
58841W        W27059   3.739  11.708   0.769
58842W        W27060   3.393  32.857   1.768
58843W        W27061  14.648  14.801   2.746
58844W        W27062  30.396   8.998  13.046
58845W        W27063  12.423  41.409   0.390
58846W        W27064  36.132   2.471  13.598
58847W        W27065  25.924  14.398  11.890
58848W        W27066  14.659  42.984   2.669
58849W        W27067  29.009  15.305  14.438
58850W        W27068  26.224   5.483   3.117
58851W        W27069  18.885  43.347  13.582
58852W        W27070   8.384  44.283   1.207
58853W        W27071   7.590   6.340   3.200
58854W        W27072  36.026  29.940  12.892
58855W        W27073  44.402  19.718  10.792
58856W        W27074  41.402  12.278   4.072
58857W        W27075  38.106  36.067  11.255
58858W        W27076  22.260  24.425  12.406
58859W        W27077  36.643  43.756   4.564
58860W        W27078  28.158  36.656   4.922
58861W        W27079  16.546  16.619  14.385
58862W        W27080   0.235  20.327  11.176
58863W        W27081   3.435  22.795   4.021
58864W        W27082   5.220  29.164   4.718
58865W        W27083  30.502   8.653  13.415
58866W        W27084  14.556   3.839  14.681
58867W        W27085  33.671  30.682  13.872
58868W        W27086  39.004  17.724  11.043
58869W        W27087  15.834  34.586   0.017
58870W        W27088  43.536  24.874  12.971
58871W        W27089  19.718  31.935  11.029
58872W        W27090  38.900  30.689   1.638
58873W        W27091  12.672  26.544   2.332
58874W        W27092  40.378  10.811   0.926
58875W        W27093   6.808  18.422  13.644
58876W        W27094  10.828  18.530  12.379
58877W        W27095  27.550   4.645  12.374
58878W        W27096  33.102  29.982   4.119
58879W        W27097  28.464  32.444   3.882
58880W        W27098   2.311  35.558   1.745
58881W        W27099  13.244  34.847  11.638
58882W        W27100  22.576  44.751  13.553
58883W        W27101  43.438   0.725   4.530
58884W        W27102  10.073  17.311  13.848
58885W        W27103  31.524  42.424   4.149
58886W        W27104   7.165   0.326  10.812
58887W        W27105   9.936  24.368  13.736
58888W        W27106  42.078   1.566   2.330
58889W        W27107  35.957  21.182   3.329
58890W        W27108   9.053   8.731  12.600
58891W        W27109  26.961  42.489   1.309
58892W        W27110  23.998  39.782   1.885
58893W        W27111  39.310  39.806  11.876
58894W        W27112  14.205  36.688   3.111
58895W        W27113  25.936  31.177   4.268
58896W        W27114  44.415  42.929   0.483
58897W        W27115   6.892  42.813   1.872
58898W        W27116   5.673  34.103   1.746
58899W        W27117  27.283  13.673   2.903
58900W        W27118  34.581  16.068   1.898
58901W        W27119  38.470  44.481  12.051
58902W        W27120  17.356  12.594  13.959
58903W        W27121  13.811  15.529   3.184
58904W        W27122  33.861  18.648  10.640
58905W        W27123   8.775  22.741  14.524
58906W        W27124  16.309  27.921  12.636
58907W        W27125  10.685  12.145  13.426
58908W        W27126  25.588  16.080   2.142
58909W        W27127  33.640  34.395  12.143
58910W        W27128   4.060  12.791  11.211
58911W        W27129   8.258  42.405   1.821
58912W        W27130  16.876  41.521   0.938
58913W        W27131  15.482  12.068  12.926
58914W        W27132  43.000  34.407  11.112
58915W        W27133  41.845  15.784  14.414
58916W        W27134  12.015  30.172  14.338
58917W        W27135  43.311   5.123  13.567
58918W        W27136  33.156   6.962  12.892
58919W        W27137  44.637  25.224   2.282
58920W        W27138  22.789   1.501   3.213
58921W        W27139   7.546  35.920   5.183
58922W        W27140   2.918   6.153  14.360
58923W        W27141   9.612  32.403  13.287
58924W        W27142   3.243  22.019  11.251
58925W        W27143  10.370  44.537   4.583
58926W        W27144  26.532  21.641  10.038
58927W        W27145  44.804  19.831   4.095
58928W        W27146   5.017   6.329   1.741
58929W        W27147  10.098  32.532   4.032
58930W        W27148  37.408  10.070   0.577
58931W        W27149   1.341  19.829  12.957
58932W        W27150  43.879  27.386  10.572
58933W        W27151   3.270  23.881  11.450
58934W        W27152  15.288  38.357  12.848
58935W        W27153  18.598  12.317   1.864
58936W        W27154  21.796  16.828  14.790
58937W        W27155  13.124  14.185  12.928
58938W        W27156   2.496  36.946   1.194
58939W        W27157   9.206  42.914   2.301
58940W        W27158  15.670  33.390   3.006
58941W        W27159  32.838   5.264   1.290
58942W        W27160  26.104  21.651   2.157
58943W        W27161  18.118  41.116   0.918
58944W        W27162  33.911  26.114  14.247
58945W        W27163  34.624  10.293  14.521
58946W        W27164  37.362   5.072   2.681
58947W        W27165   8.200  39.537  14.132
58948W        W27166  36.852  15.880  13.742
58949W        W27167  22.003   5.301  11.503
58950W        W27168  40.702   4.733   4.192
58951W        W27169  16.858  43.902  11.054
58952W        W27170  43.782  14.541   1.348
58953W        W27171  10.156  33.472   2.375
58954W        W27172  18.110  43.362  11.422
58955W        W27173  30.860  12.337  11.696
58956W        W27174  13.299  34.000   2.832
58957W        W27175  38.952   1.735   0.330
58958W        W27176  11.772  12.187  10.600
58959W        W27177  18.738  28.113  13.473
58960W        W27178  44.924  15.238   4.622
58961W        W27179  35.723   4.796   2.818
58962W        W27180  18.255  37.125  12.912
58963W        W27181  27.994  16.366   1.254
58964W        W27182  23.774  23.395   4.575
58965W        W27183  15.715  19.942   0.412
58966W        W27184   2.940  33.489  13.467
58967W        W27185  31.915  21.326   2.608
58968W        W27186  18.559  37.766   0.331
58969W        W27187  42.471   6.729   0.042
58970W        W27188  32.677  35.657   4.081
58971W        W27189  26.693  12.318  14.421
58972W        W27190  44.751   3.624   0.757
58973W        W27191  44.496   1.243   0.965
58974W        W27192  11.468  30.634   2.155
58975W        W27193  11.821  24.482   3.237
58976W        W27194  35.171  25.726   0.451
58977W        W27195  24.725  32.539  14.788
58978W        W27196  17.284  35.071  13.884
58979W        W27197  31.446  26.824  14.980
58980W        W27198  38.807  25.417  12.421
58981W        W27199  23.993   2.004   1.828
58982W        W27200  13.732  38.383  12.546
58983W        W27201  23.153   9.202  10.720
58984W        W27202   8.686  12.837  13.766
58985W        W27203  31.714   6.396  12.276
58986W        W27204  29.911  10.486   4.561
58987W        W27205  25.517  29.976   1.131
58988W        W27206   5.837  19.357  12.855
58989W        W27207  26.135  20.349   5.024
58990W        W27208  17.055  23.874   0.961
58991W        W27209  44.148  31.928  14.980
58992W        W27210  30.876  33.436  12.546
58993W        W27211  43.356  33.276  10.422
58994W        W27212   5.641  34.095  11.467
58995W        W27213  29.060  41.490  13.480
58996W        W27214  38.519   6.225   2.815
58997W        W27215  36.032  11.801  13.051
58998W        W27216  35.255   4.918   1.577
58999W        W27217  25.728  32.802   0.849
59000W        W27218  40.411   3.655  13.531
59001W        W27219  39.528  42.675   4.120
59002W        W27220  14.782  10.333   4.518
59003W        W27221  33.442  25.060   2.799
59004W        W27222  17.788   3.233   1.687
59005W        W27223   5.022  32.408  14.413
59006W        W27224  21.806  32.357   0.685
59007W        W27225  32.172  38.746   2.245
59008W        W27226  14.136  35.948   1.371
59009W        W27227  35.931  44.784   1.349
59010W        W27228  12.239  39.440   0.330
59011W        W27229  12.138  19.743  13.462
59012W        W27230  24.748   0.785  13.449
59013W        W27231  26.179  29.663   0.478
59014W        W27232  38.134   4.355   0.618
59015W        W27233  25.130  16.942   3.144
59016W        W27234   7.386  10.882  14.537
59017W        W27235  11.879  38.557  12.162
59018W        W27236   7.201  30.382   1.712
59019W        W27237  40.926  25.747   2.417
59020W        W27238  36.386  38.965   2.904
59021W        W27239  32.024  30.339   1.748
59022W        W27240  27.979   3.743  13.485
59023W        W27241  18.639  11.552   2.411
59024W        W27242  21.988  32.465  14.346
59025W        W27243  36.792   6.256  12.635
59026W        W27244  23.331  44.369   1.280
59027W        W27245  16.641  37.910   3.621
59028W        W27246  17.202  30.380   2.704
59029W        W27247  35.372  34.883  12.186
59030W        W27248  26.765   8.722  12.341
59031W        W27249   6.314  37.929  10.621
59032W        W27250  18.583  17.502  11.684
59033W        W27251  37.028  32.987   2.584
59034W        W27252  24.287   7.326  13.040
59035W        W27253  42.803  15.584   2.446
59036W        W27254   7.125  15.263  13.146
59037W        W27255  26.765  20.262  14.521
59038W        W27256   3.225  14.251   3.273
59039W        W27257   0.476  14.211  13.925
59040W        W27258  10.542  18.304   2.160
59041W        W27259   4.960  12.174  11.478
59042W        W27260  36.352  40.542   2.907
59043W        W27261  34.593  12.220  14.678
59044W        W27262   6.227  39.812   5.455
59045W        W27263  28.132  33.664  11.325
59046W        W27264  37.618  38.387  13.125
59047W        W27265  44.199  34.306  11.568
59048W        W27266  31.073  10.214   1.886
59049W        W27267  33.635  35.773   0.743
59050W        W27268  33.969  19.821  14.009
59051W        W27269  36.753  32.735  14.855
59052W        W27270  38.797  26.250   1.075
59053W        W27271  41.410  29.470  11.563
59054W        W27272   3.792  12.706  14.846
59055W        W27273  25.486  25.703  12.416
59056W        W27274  12.362  28.708   2.197
59057W        W27275  40.933   2.902   1.710
59058W        W27276  38.045  20.818  13.049
59059W        W27277  15.095  22.715  14.736
59060W        W27278  34.850   8.406  12.998
59061W        W27279  37.771  12.354   2.733
59062W        W27280  23.186   8.566   1.863
59063W        W27281   8.174  24.762  11.982
59064W        W27282  29.485  25.262   5.001
59065W        W27283   0.777  22.408  14.015
59066W        W27284   9.866  11.628  13.130
59067W        W27285   4.440  19.564   3.263
59068W        W27286  27.661   9.804  13.538
59069W        W27287  35.559  39.564  14.366
59070W        W27288  30.003  31.894  11.587
59071W        W27289  34.577  33.070   2.159
59072W        W27290  18.702  14.582   2.200
59073W        W27291  24.232  43.335   3.959
59074W        W27292  44.464  28.434   1.204
59075W        W27293  40.312  28.042  10.837
59076W        W27294  42.064  42.580  13.351
59077W        W27295  30.091  13.024  12.136
59078W        W27296   9.655   5.946  13.487
59079W        W27297  10.376  17.641  10.291
59080W        W27298  34.885   0.481  11.065
59081W        W27299  37.417  27.815   2.736
59082W        W27300  44.520  17.474   2.448
59083W        W27301  21.804  25.066   3.383
59084W        W27302  22.626  36.886   2.203
59085W        W27303  14.397  16.379  10.800
59086W        W27304  23.642  19.956   0.094
59087W        W27305  32.312  16.060   3.703
59088W        W27306  15.176  19.695  11.536
59089W        W27307  23.254  24.334  14.513
59090W        W27308  29.557  34.224   0.221
59091W        W27309   1.401  14.175  13.811
59092W        W27310   3.924  30.701   2.783
59093W        W27311   2.772  36.600  11.688
59094W        W27312   4.391  19.455  12.880
59095W        W27313  13.562   0.847  13.978
59096W        W27314  23.489   7.186  11.437
59097W        W27315   5.487  38.939  11.410
59098W        W27316  15.682  41.636  11.481
59099W        W27317  24.405  38.620  13.714
59100W        W27318  32.411  11.684  14.872
59101W        W27319  35.523   6.645  10.712
59102W        W27320   0.462  31.779   0.105
59103W        W27321  37.226   8.415   2.428
59104W        W27322  34.052  16.803  10.664
59105W        W27323  10.281   7.415   5.050
59106W        W27324  19.653  12.688   5.088
59107W        W27325  37.559  23.216   3.059
59108W        W27326  43.746  12.435  10.646
59109W        W27327  30.451  12.708  10.446
59110W        W27328  23.679   8.656   0.784
59111W        W27329  24.091  30.454   3.861
59112W        W27330  40.447  24.096   1.908
59113W        W27331   4.351   3.150   1.402
59114W        W27332   6.609  13.337   2.818
59115W        W27333   1.209  43.342   1.454
59116W        W27334   4.733  17.682  13.031
59117W        W27335  17.326   8.845   2.251
59118W        W27336  42.495  22.662   1.376
59119W        W27337  42.960   0.179   0.378
59120W        W27338  44.399  19.828   3.277
59121W        W27339  44.223  34.071   1.438
59122W        W27340   6.910  11.231   0.725
59123W        W27341  35.415   4.635  13.870
59124W        W27342   7.242   2.753  14.264
59125W        W27343  21.267  16.685  13.424
59126W        W27344  24.223  28.059   2.720
59127W        W27345   7.625   7.044   2.003
59128W        W27346   9.179  40.362  12.646
59129W        W27347   4.500  24.622  13.867
59130W        W27348  16.871  19.581  12.170
59131W        W27349  27.339  16.642  12.695
59132W        W27350  32.085  28.578   0.319
59133W        W27351  25.138  34.620  11.591
59134W        W27352   0.064   4.714   4.580
59135W        W27353   5.724  44.913  10.288
59136W        W27354   1.919  42.936  11.939
59137W        W27355  26.509  21.533  14.907
59138W        W27356  37.702  20.711   1.738
59139W        W27357  37.783  34.949   4.555
59140W        W27358   0.407  19.272  14.353
59141W        W27359  26.313  27.080  14.332
59142W        W27360  20.678  24.201   0.538
59143W        W27361  44.269  28.545   0.018
59144W        W27362  44.015   8.884  10.692
59145W        W27363  13.497   7.119  11.114
59146W        W27364  14.194  34.424   2.231
59147W        W27365  14.096  31.495  11.065
59148W        W27366  24.220   9.732   3.693
59149W        W27367  27.612  14.297   0.480
59150W        W27368   5.395  31.593   0.396
59151W        W27369   7.917   3.972  11.000
59152W        W27370  19.525   5.665   0.155
59153W        W27371  10.887  15.352   3.047
59154W        W27372  33.560  32.887  11.065
59155W        W27373  10.611  21.249   1.407
59156W        W27374   9.975  35.018  13.861
59157W        W27375  35.533  18.344  10.653
59158W        W27376  44.519  36.115  12.896
59159W        W27377  31.220   8.756  10.054
59160W        W27378   1.536  25.799  10.802
59161W        W27379  31.229   2.728   3.245
59162W        W27380  27.335  28.462   2.515
59163W        W27381   2.471  20.048  13.870
59164W        W27382  33.355  19.194  11.611
59165W        W27383  36.854  21.185   3.597
59166W        W27384   3.928  23.195  11.429
59167W        W27385   9.727  33.412   3.099
59168W        W27386   8.369  32.414   2.235
59169W        W27387   8.684  28.498   3.345
59170W        W27388  26.542   2.519   4.882
59171W        W27389  17.119  20.280   4.180
59172W        W27390  19.313  31.373   3.058
59173W        W27391  37.480  35.026   2.318
59174W        W27392  35.040  39.981  12.980
59175W        W27393   4.822  29.141   0.934
59176W        W27394  11.747  15.717   0.998
59177W        W27395  24.604  28.465   2.819
59178W        W27396  13.068  39.055  14.346
59179W        W27397   8.409   0.114  13.851
59180W        W27398   5.503   0.051   2.761
59181W        W27399   6.221  35.565  12.818
59182W        W27400  17.688   0.969   0.159
59183W        W27401  43.531   6.692   1.947
59184W        W27402   0.249  44.976  13.767
59185W        W27403   5.752  28.590   4.838
59186W        W27404  29.697   3.374   2.821
59187W        W27405  23.120  25.108   3.426
59188W        W27406   6.535   1.958   9.854
59189W        W27407  39.005  40.958   3.182
59190W        W27408   8.944   5.988  11.170
59191W        W27409  32.378  15.749   1.137
59192W        W27410  12.863   8.627   4.107
59193W        W27411  44.700  30.967  11.558
59194W        W27412  19.847  10.091   0.910
59195W        W27413   2.156  37.579   1.447
59196W        W27414   5.346  32.252  13.567
59197W        W27415  13.672  35.166  10.555
59198W        W27416   5.849  13.656   3.211
59199W        W27417  24.547  11.090  13.491
59200W        W27418  21.572  35.419  11.960
59201W        W27419   2.188  17.224  13.026
59202W        W27420  44.203  15.265  14.466
59203W        W27421  38.977  30.742  10.452
59204W        W27422  31.934  32.566  10.704
59205W        W27423  39.381  11.160  13.809
59206W        W27424  20.861  15.759  11.582
59207W        W27425  44.380  27.538   4.677
59208W        W27426  11.217  39.927   3.110
59209W        W27427   3.473  34.854  11.934
59210W        W27428  16.264  14.155   2.406
59211W        W27429   3.943  18.108   1.697
59212W        W27430  10.843  27.627   0.864
59213W        W27431  24.472  27.610  12.985
59214W        W27432  25.068  32.879  13.489
59215W        W27433   6.783   8.911  11.113
59216W        W27434  44.442  32.188  13.462
59217W        W27435  12.368  26.175  13.549
59218W        W27436  38.814  41.841   0.838
59219W        W27437  34.200   5.942   0.427
59220W        W27438  39.254  44.008  12.624
59221W        W27439  18.605   9.372   2.418
59222W        W27440   1.743  21.032   3.247
59223W        W27441  37.676  23.631  11.440
59224W        W27442  31.859   1.076   1.154
59225W        W27443   8.264  36.836   2.233
59226W        W27444  10.797  34.530   3.701
59227W        W27445  10.831  42.839   2.352
59228W        W27446   4.760   1.280   3.959
59229W        W27447  42.812  43.987  14.812
59230W        W27448  21.855  44.024  12.142
59231W        W27449  15.254   5.388   1.877
59232W        W27450   8.295   6.196   1.452
59233W        W27451   7.838  21.764  11.043
59234W        W27452  15.395   3.910   0.396
59235W        W27453  40.134  40.997  13.392
59236W        W27454   9.892  21.207  13.496
59237W        W27455  30.591  19.731  14.775
59238W        W27456  30.592  26.249   4.247
59239W        W27457  30.604  19.054   1.437
59240W        W27458   7.708   0.403  12.110
59241W        W27459   2.913  43.077   3.757
59242W        W27460  21.304   2.332   3.639
59243W        W27461   5.565  22.321   4.659
59244W        W27462  31.383   4.243   2.288
59245W        W27463   4.161  33.390   4.132
59246W        W27464  23.159  28.227  13.497
59247W        W27465  11.084   0.645  11.032
59248W        W27466  25.066  40.457   0.186
59249W        W27467   0.767  33.529   4.024
59250W        W27468  35.195  12.618  10.823
59251W        W27469  14.223  13.075   4.667
59252W        W27470  25.714  44.903  13.894
59253W        W27471  28.953  10.870   4.593
59254W        W27472   4.965  25.033   2.690
59255W        W27473  43.327  29.870  11.083
59256W        W27474   3.796  13.060  10.452
59257W        W27475  41.744  38.009   4.997
59258W        W27476  41.004  26.654   4.756
59259W        W27477   8.247  20.930   1.823
59260W        W27478  39.511  37.519   2.585
59261W        W27479  37.389  14.355  13.639
59262W        W27480  22.743  15.094  12.544
59263W        W27481  43.699  30.514  13.814
59264W        W27482  41.469  27.525  13.462
59265W        W27483  21.636  10.540  13.936
59266W        W27484  31.566  24.788  12.431
59267W        W27485  11.259   8.330   0.356
59268W        W27486  24.564  27.069   3.393
59269W        W27487  29.904  27.227  12.047
59270W        W27488  31.099  14.589   3.318
59271W        W27489   8.811  34.790   3.698
59272W        W27490  31.849  41.788  11.132
59273W        W27491  30.639   6.785  11.995
59274W        W27492  19.818  36.485   1.686
59275W        W27493  34.966  25.991   0.825
59276W        W27494   6.664  34.336   4.022
59277W        W27495  35.183  24.594   3.291
59278W        W27496  33.600  40.110   3.197
59279W        W27497  21.462  38.952  12.415
59280W        W27498  31.826  11.770  14.261
59281W        W27499  12.150   1.231   3.318
59282W        W27500  23.817  29.884  13.653
59283W        W27501  39.995  29.839  10.642
59284W        W27502  40.553  37.327   3.801
59285W        W27503  31.400  42.404   1.038
59286W        W27504  42.473   6.094  11.557
59287W        W27505  21.211   1.185   2.488
59288W        W27506  38.949  41.332  13.907
59289W        W27507  25.165  15.218  12.855
59290W        W27508   9.630  28.943   2.773
59291W        W27509  11.181  10.213   0.186
59292W        W27510  16.127  28.262  13.041
59293W        W27511  20.622   0.091   4.723
59294W        W27512  39.597  35.436   1.288
59295W        W27513   3.389  17.690  12.056
59296W        W27514  14.255  12.644  14.264
59297W        W27515  43.648  14.120   4.533
59298W        W27516  41.103  38.338  12.938
59299W        W27517   6.290  28.187   4.987
59300W        W27518  18.682   5.490  13.799
59301W        W27519  27.420  10.935   2.882
59302W        W27520  20.885  15.850   5.189
59303W        W27521  43.205   8.673  14.982
59304W        W27522  18.523  30.640  12.122
59305W        W27523  11.141  17.775   0.784
59306W        W27524   3.431  14.221   4.337
59307W        W27525  12.094  27.675   3.708
59308W        W27526  12.793  27.411  14.316
59309W        W27527  18.813  39.350  11.389
59310W        W27528  11.872  30.371  12.653
59311W        W27529  22.138  20.028   4.699
59312W        W27530  19.083  12.177  14.555
59313W        W27531  32.105  17.665   1.870
59314W        W27532  17.276  41.351  13.843
59315W        W27533  37.899  14.067  14.422
59316W        W27534  20.511  42.557   0.829
59317W        W27535  20.282   1.717  12.607
59318W        W27536  44.865  41.445  12.403
59319W        W27537  29.995  38.614   1.505
59320W        W27538   8.957  33.256  13.622
59321W        W27539   7.644  35.418  11.970
59322W        W27540   1.248  30.559  10.506
59323W        W27541  32.577  44.354   1.633
59324W        W27542  32.451  24.001   4.561
59325W        W27543  23.412  27.727   0.308
59326W        W27544  13.256   6.137  11.886
59327W        W27545  24.732   8.371   0.344
59328W        W27546  33.121  34.473   2.662
59329W        W27547   2.412   3.165   3.201
59330W        W27548  28.750  25.770   4.567
59331W        W27549  35.232  26.480  13.223
59332W        W27550   9.840  23.140  12.392
59333W        W27551   9.621  18.641   0.736
59334W        W27552  21.207  40.508   4.034
59335W        W27553  16.036  10.791  12.359
59336W        W27554  34.466   0.135  14.503
59337W        W27555  22.611   0.282  12.615
59338W        W27556  27.437  36.373   3.362
59339W        W27557  15.690  37.424  12.017
59340W        W27558  23.667  22.712   9.715
59341W        W27559   4.312  39.928   5.630
59342W        W27560  31.535   5.316  11.069
59343W        W27561  10.893  32.983  11.947
59344W        W27562  28.271  37.159   4.048
59345W        W27563   5.644  21.557   0.274
59346W        W27564  17.195  10.843  12.995
59347W        W27565  14.219  43.943  12.411
59348W        W27566  36.945   4.919   4.613
59349W        W27567   6.093  26.741   2.152
59350W        W27568   6.977  39.553  11.628
59351W        W27569  10.725  15.033   4.974
59352W        W27570  37.465  36.078  10.080
59353W        W27571  19.101  24.560   2.344
59354W        W27572   9.424  41.922  11.891
59355W        W27573   1.992  38.536  12.038
59356W        W27574  21.677  32.221  10.666
59357W        W27575  10.959  30.642   1.982
59358W        W27576  12.423   7.249   2.431
59359W        W27577  12.739  16.169   4.161
59360W        W27578  26.703   2.849   4.509
59361W        W27579  17.032  37.935   2.525
59362W        W27580  28.657  23.058  14.543
59363W        W27581  42.777  14.723   0.513
59364W        W27582  16.351   8.208   4.308
59365W        W27583   5.938  12.721   0.233
59366W        W27584  29.094  13.281  10.132
59367W        W27585  26.552  24.489   0.976
59368W        W27586  30.977  26.232  10.748
59369W        W27587   1.252  32.496  12.529
59370W        W27588  40.845  38.819  11.613
59371W        W27589  19.160   0.887   4.189
59372W        W27590   1.779  16.669   2.768
59373W        W27591  14.798   9.302  14.491
59374W        W27592  26.341  41.718   2.204
59375W        W27593  29.251   6.116  12.449
59376W        W27594  20.103  44.203  13.350
59377W        W27595  25.765   7.339   2.738
59378W        W27596  35.776   1.729   0.574
59379W        W27597  32.608  43.246   2.769
59380W        W27598   0.413  17.198   2.937
59381W        W27599  23.030   4.908   4.534
59382W        W27600  26.036   8.089  11.402
59383W        W27601  44.508  22.391  11.148
59384W        W27602  25.010  42.596  11.049
59385W        W27603  29.872  16.996   0.831
59386W        W27604  22.461  11.214   1.984
59387W        W27605  28.013  14.839  12.342
59388W        W27606  26.655  25.130   0.148
59389W        W27607  27.875   7.394   1.688
59390W        W27608  19.458  22.176   0.102
59391W        W27609  28.593  28.931   3.852
59392W        W27610  44.407  40.758  14.324
59393W        W27611   4.907  11.533   2.822
59394W        W27612  42.934  32.276   3.295
59395W        W27613   5.507  32.672   2.339
59396W        W27614   7.153   6.893  13.393
59397W        W27615  24.622  41.312   1.120
59398W        W27616  41.108  31.788  12.898
59399W        W27617  42.349  36.574   1.888
59400W        W27618  36.685   1.407   3.834
59401W        W27619  16.113  31.166  13.776
59402W        W27620  20.314   3.284   0.775
59403W        W27621  35.479   5.384   4.892
59404W        W27622  15.425  12.786  11.592
59405W        W27623  10.592  29.753   3.399
59406W        W27624  24.982   4.505  11.036
59407W        W27625  29.479  32.607   4.179
59408W        W27626  33.176   2.858  12.876
59409W        W27627  14.704  30.445   0.266
59410W        W27628  39.074  39.049  12.456
59411W        W27629   1.652  29.650  10.824
59412W        W27630  32.824  21.491   1.423
59413W        W27631  13.677  36.469   3.249
59414W        W27632  15.791  38.043  13.482
59415W        W27633  14.085   6.290   0.496
59416W        W27634  42.996  24.610  13.765
59417W        W27635  23.284  17.695  11.881
59418W        W27636  28.103  43.542   3.244
59419W        W27637  26.185  29.454  14.588
59420W        W27638  26.404  27.994  14.022
59421W        W27639  32.902  17.192  14.908
59422W        W27640   3.850  10.015   4.976
59423W        W27641  27.567  15.370   0.739
59424W        W27642   1.990  43.855  13.465
59425W        W27643   1.278  36.332   0.458
59426W        W27644  22.755  12.274  12.027
59427W        W27645  35.069  12.351   1.347
59428W        W27646  29.628  24.212  14.545
59429W        W27647   3.205   1.686   1.807
59430W        W27648  17.790   1.578  13.297
59431W        W27649  38.526  16.175   2.403
59432W        W27650   2.461  40.834  11.169
59433W        W27651  38.551  19.187  13.023
59434W        W27652   2.790  22.165   1.649
59435W        W27653  34.548  11.801  14.379
59436W        W27654  10.202  44.989  11.944
59437W        W27655  36.668  17.133   2.854
59438W        W27656  37.091   9.530   2.835
59439W        W27657   1.113  14.075  12.032
59440W        W27658  22.222  17.347   3.203
59441W        W27659   2.743  43.828   0.841
59442W        W27660  27.191   5.872  13.597
59443W        W27661  27.476   2.809   0.052
59444W        W27662  42.538  19.662  11.104
59445W        W27663  11.342  34.087  14.781
59446W        W27664   9.182  11.429   2.253
59447W        W27665  20.323  36.635   4.231
59448W        W27666  35.973  36.730  12.598
59449W        W27667   5.380   0.379  12.819
59450W        W27668  41.070  21.224   4.212
59451W        W27669  35.756  26.690  11.783
59452W        W27670  34.516   5.857   4.010
59453W        W27671  41.344   4.165  13.495
59454W        W27672   1.258  25.586  11.165
59455W        W27673   5.964  13.874  12.322
59456W        W27674   8.955  39.910   2.272
59457W        W27675   6.413  19.769  11.244
59458W        W27676   1.698   0.044  12.068
59459W        W27677  15.804   9.314  13.825
59460W        W27678  24.182   0.816   4.518
59461W        W27679  14.590  38.950   2.559
59462W        W27680  11.317  14.073  13.285
59463W        W27681   2.920   3.188  13.996
59464W        W27682  33.097   3.888  12.144
59465W        W27683  16.285   8.066  14.738
59466W        W27684  43.433   7.831   0.416
59467W        W27685  17.941   9.523  14.973
59468W        W27686  42.465  26.672  14.863
59469W        W27687  14.153  22.170  10.443
59470W        W27688  17.046   6.206  11.583
59471W        W27689  23.232  25.634  13.308
59472W        W27690  19.245  40.908   2.329
59473W        W27691  20.200  43.546   3.771
59474W        W27692  39.360  43.595   2.427
59475W        W27693  10.360   2.629  14.296
59476W        W27694  39.636  20.844   4.296
59477W        W27695   0.435  20.177  10.717
59478W        W27696  40.976   8.677  13.035
59479W        W27697  22.614  18.793   2.289
59480W        W27698  21.711  13.332   4.573
59481W        W27699  26.561   1.062  12.557
59482W        W27700  27.920  10.712   4.744
59483W        W27701   0.121  37.575  12.063
59484W        W27702  12.625   2.605  14.148
59485W        W27703   5.646   1.852   1.373
59486W        W27704  13.330  43.225   3.308
59487W        W27705   4.906  44.516  11.574
59488W        W27706  29.525  18.631   2.273
59489W        W27707  42.019  26.442  14.681
59490W        W27708  20.269  40.463  14.087
59491W        W27709  28.877  12.119   4.118
59492W        W27710  27.246  42.452  13.889
59493W        W27711  18.203   8.399   2.306
59494W        W27712  15.699  36.818   0.661
59495W        W27713   3.624  37.808   3.774
59496W        W27714   3.725  18.854   3.221
59497W        W27715   2.326  40.058  10.733
59498W        W27716  28.441  24.087   2.756
59499W        W27717  27.478  36.869   3.093
59500W        W27718  32.359  13.766  14.044
59501W        W27719  28.426  32.920  10.641
59502W        W27720  11.787   4.579   0.804
59503W        W27721   8.423   6.651   3.639
59504W        W27722  20.159  38.746  13.823
59505W        W27723  17.051  43.661  10.634
59506W        W27724  14.056  35.928   1.877
59507W        W27725  42.352  39.094   2.811
59508W        W27726   3.909  10.151  10.171
59509W        W27727   3.793  31.388   1.810
59510W        W27728  22.146   4.717   3.537
59511W        W27729  18.157  27.036   2.833
59512W        W27730  32.493  31.345   2.367
59513W        W27731  36.464   6.001  14.365
59514W        W27732  43.548  28.036   1.939
59515W        W27733  27.264  15.363  13.778
59516W        W27734  11.299  33.591   3.056
59517W        W27735  16.239  43.278   2.186
59518W        W27736   9.900   0.019   3.319
59519W        W27737  40.498   3.680  12.605
59520W        W27738  28.939  27.648   0.893
59521W        W27739  35.459  23.812   2.827
59522W        W27740  14.036  42.811   0.831
59523W        W27741   3.453   0.292   2.714
59524W        W27742  20.173  41.768   3.204
59525W        W27743  20.780  31.961   3.735
59526W        W27744   3.287  23.660   4.346
59527W        W27745   8.653  14.859   2.775
59528W        W27746  23.210  28.540  11.056
59529W        W27747  34.353  39.045  12.241
59530W        W27748  20.943   3.148  12.785
59531W        W27749  40.270  35.050   0.902
59532W        W27750  12.312  25.614   1.813
59533W        W27751   5.335  10.162  13.425
59534W        W27752   8.278  32.594  14.429
59535W        W27753  19.175   9.956   2.876
59536W        W27754  19.483  16.531   0.131
59537W        W27755  18.531  16.229   4.625
59538W        W27756  42.872  32.128  14.867
59539W        W27757  22.850  41.927   3.403
59540W        W27758  12.137  33.494  13.924
59541W        W27759  38.969  27.920  11.164
59542W        W27760  38.326  28.052   2.168
59543W        W27761  10.876  11.973  14.470
59544W        W27762  18.031  21.025  13.388
59545W        W27763   6.624   6.451   5.085
59546W        W27764   6.052   1.588  11.592
59547W        W27765  14.354  41.413   3.976
59548W        W27766  20.481  33.935  11.890
59549W        W27767   1.807  42.301   0.842
59550W        W27768   1.201  35.351  11.118
59551W        W27769  32.257  39.509   4.659
59552W        W27770  35.269  10.062  11.650
59553W        W27771  32.683  16.428   3.759
59554W        W27772  25.978   4.662  14.742
59555W        W27773  17.751  34.048  14.219
59556W        W27774  37.222   1.844  12.671
59557W        W27775  17.214   1.546  14.019
59558W        W27776  43.527  26.671   4.101
59559W        W27777   0.194  25.358   1.810
59560W        W27778  30.168  11.248  13.004
59561W        W27779  30.267  24.654   0.879
59562W        W27780  32.155   5.285   0.323
59563W        W27781  12.132  29.471  13.938
59564W        W27782  20.483  22.068   4.067
59565W        W27783  31.042  22.547  11.626
59566W        W27784  41.306   7.278  11.674
59567W        W27785  36.687  37.587  14.827
59568W        W27786  36.266  29.363   4.190
59569W        W27787  33.663  32.935   3.881
59570W        W27788  20.907  18.455  11.550
59571W        W27789   0.308  11.163   1.912
59572W        W27790  22.260  31.744  11.177
59573W        W27791  22.640  44.049  13.994
59574W        W27792  41.729  16.322   0.400
59575W        W27793   8.169  41.993   4.222
59576W        W27794  30.141  26.107  13.417
59577W        W27795  11.855  38.974  13.881
59578W        W27796  40.598   7.415   1.457
59579W        W27797   2.985  25.185   0.724
59580W        W27798  14.600  33.841  12.462
59581W        W27799  24.090  38.042   5.022
59582W        W27800  43.863  39.183  13.020
59583W        W27801  42.419  44.500   1.075
59584W        W27802  20.648   7.859  12.293
59585W        W27803  19.086  32.864  13.101
59586W        W27804  40.847  17.920   4.826
59587W        W27805   6.601  37.946  11.045
59588W        W27806   5.122  34.113  11.422
59589W        W27807  37.558  27.164  11.912
59590W        W27808  22.611  35.635  13.578
59591W        W27809  36.129  15.685  12.079
59592W        W27810   6.846  27.615   0.601
59593W        W27811  30.047  14.159  13.562
59594W        W27812  22.790  22.006  10.734
59595W        W27813  38.256  40.836  12.857
59596W        W27814   1.910  36.137   2.289
59597W        W27815  34.436  13.906   0.879
59598W        W27816  17.678  33.882  11.651
59599W        W27817  17.519  21.744   2.727
59600W        W27818  24.765  19.562   2.417
59601W        W27819  31.486  33.527  13.681
59602W        W27820  42.957  37.300  13.209
59603W        W27821  32.859  44.379   3.153
59604W        W27822  28.114  41.977  11.613
59605W        W27823  25.518   9.685   4.129
59606W        W27824  28.012  12.867  12.848
59607W        W27825   7.399  11.263   2.849
59608W        W27826  35.698  34.079   1.474
59609W        W27827  40.984  41.515  14.797
59610W        W27828   2.778  31.837   1.183
59611W        W27829   5.193  26.140   0.694
59612W        W27830  13.591  28.910  14.847
59613W        W27831   4.255  19.587  14.326
59614W        W27832   2.474  22.638   0.257
59615W        W27833  25.936  32.207  14.006
59616W        W27834  43.866  37.573  14.945
59617W        W27835   6.952  23.752   0.832
59618W        W27836  36.539  30.044   1.013
59619W        W27837  26.671  34.820  12.979
59620W        W27838   0.260  39.834  11.561
59621W        W27839  35.439  33.687   3.342
59622W        W27840  19.094  43.618   1.682
59623W        W27841  34.210  28.962  13.544
59624W        W27842  35.881  14.582   1.795
59625W        W27843  38.055   9.219   3.007
59626W        W27844  31.108  11.702  13.597
59627W        W27845  35.710  17.072   2.397
59628W        W27846  41.352   4.695  11.212
59629W        W27847   4.775  38.208   2.346
59630W        W27848   3.306   8.226  13.052
59631W        W27849  13.034  43.145   4.079
59632W        W27850  14.729  36.302  12.466
59633W        W27851  33.593  11.424   2.693
59634W        W27852  40.849  19.051   0.022
59635W        W27853  34.829   3.283  11.533
59636W        W27854   9.598  42.589  14.774
59637W        W27855   3.743  13.356   3.800
59638W        W27856  26.436  28.619  12.433
59639W        W27857  33.451  41.814   0.357
59640W        W27858  22.935   5.757   2.826
59641W        W27859  17.148  38.664  14.948
59642W        W27860  39.113  22.030  11.530
59643W        W27861   6.464   3.418  14.388
59644W        W27862  19.092  15.296   0.433
59645W        W27863  43.853  26.181  13.869
59646W        W27864   5.958  22.088   0.997
59647W        W27865   4.341  39.087  12.990
59648W        W27866  31.350   7.018   3.352
59649W        W27867  17.983  29.195   2.330
59650W        W27868  18.342   1.400   1.691
59651W        W27869  39.457  18.590   1.254
59652W        W27870  38.407  27.667   3.373
59653W        W27871  18.241  32.826   4.089
59654W        W27872  16.632  33.499  10.792
59655W        W27873  37.051  18.075   4.904
59656W        W27874  33.957  16.287  12.420
59657W        W27875   6.398  44.765   5.417
59658W        W27876  14.335  36.885   4.249
59659W        W27877  15.548  14.920   1.734
59660W        W27878  30.704  43.820  14.247
59661W        W27879  32.999  25.011   4.621
59662W        W27880  34.973   4.457  14.215
59663W        W27881  42.305  39.450   2.234
59664W        W27882  12.261  43.338  14.263
59665W        W27883  40.937  27.707   3.832
59666W        W27884  18.597  38.932  10.657
59667W        W27885  18.468  21.137  10.358
59668W        W27886  38.890  13.896  11.920
59669W        W27887  42.970  26.940  10.657
59670W        W27888  16.777  12.738   3.144
59671W        W27889   5.429  29.524  10.650
59672W        W27890  42.876  38.538   0.820
59673W        W27891   6.811   4.930  10.636
59674W        W27892  38.277  33.561   1.831
59675W        W27893  12.663  41.868   2.178
59676W        W27894  30.140   0.715   3.486
59677W        W27895  44.887   1.985   1.438
59678W        W27896   6.861  38.015  10.565
59679W        W27897  17.571  16.344   2.299
59680W        W27898  29.334  14.314  11.141
59681W        W27899  37.748  20.221   3.775
59682W        W27900  32.940  42.360   3.657
59683W        W27901  18.610   6.544   0.276
59684W        W27902  34.924  11.865   1.747
59685W        W27903  33.169  37.314  14.983
59686W        W27904   8.774  23.193  10.936
59687W        W27905  12.727  35.137   0.847
59688W        W27906  38.231  13.203   2.497
59689W        W27907  21.425   5.336  12.934
59690W        W27908  33.599  36.434   2.580
59691W        W27909   8.840  12.133   0.462
59692W        W27910   4.670  34.413  13.990
59693W        W27911   5.735  31.501   1.238
59694W        W27912  43.250   0.592   0.352
59695W        W27913  33.904  25.158   4.885
59696W        W27914  28.859  16.834   2.285
59697W        W27915  42.830  44.502  13.513
59698W        W27916   9.626   7.089   0.790
59699W        W27917  21.853   2.075  14.308
59700W        W27918   9.005  25.460   3.131
59701W        W27919  15.813   1.708  14.376
59702W        W27920  42.331   4.385   1.157
59703W        W27921   5.203   3.432  13.483
59704W        W27922  35.411  33.274   3.712
59705W        W27923   7.179  17.228   0.424
59706W        W27924  43.995  26.669  12.977
59707W        W27925  22.088  21.688  14.544
59708W        W27926   7.643  40.794   4.228
59709W        W27927  21.064  17.244  10.622
59710W        W27928   2.933  13.156   5.119
59711W        W27929  18.253  22.409  14.390
59712W        W27930  31.075   0.977  14.788
59713W        W27931   2.375  20.595  11.662
59714W        W27932  22.247  16.366   0.898
59715W        W27933  33.665   3.008  11.439
59716W        W27934   8.186  25.519  12.965
59717W        W27935  41.468  16.290   1.797
59718W        W27936  32.426  28.709   1.657
59719W        W27937  30.784   5.673  11.694
59720W        W27938  35.979   5.417  10.563
59721W        W27939  41.098  15.827  13.364
59722W        W27940   0.447  25.459   1.348
59723W        W27941   2.198  26.729   1.806
59724W        W27942  27.462  32.007  11.381
59725W        W27943  16.279  19.000  10.567
59726W        W27944  27.922  30.981  12.312
59727W        W27945  14.608  41.784   3.219
59728W        W27946   8.668  32.832  12.378
59729W        W27947  37.881   7.666   2.705
59730W        W27948  11.124  35.844  13.989
59731W        W27949   9.774  13.906  10.571
59732W        W27950  28.428   2.205   3.416
59733W        W27951  30.191  15.656   4.148
59734W        W27952  10.475  32.926   1.280
59735W        W27953  41.381  14.249  12.086
59736W        W27954  41.692  36.491  14.930
59737W        W27955  33.808  16.556   3.322
59738W        W27956  19.302   5.659  12.464
59739W        W27957  34.450  30.057   4.334
59740W        W27958  33.477   0.686   4.851
59741W        W27959  17.337   8.391   5.010
59742W        W27960  18.237  20.756  10.692
59743W        W27961  23.015  22.338   0.801
59744W        W27962  35.169  41.629  10.441
59745W        W27963   0.911  20.922  13.493
59746W        W27964  19.642   0.711  14.523
59747W        W27965  14.299   9.233   3.899
59748W        W27966  32.635  37.596  10.519
59749W        W27967   6.366  32.589   4.245
59750W        W27968   5.237   8.696  13.854
59751W        W27969   5.617  12.658  12.497
59752W        W27970  15.745  43.765   0.897
59753W        W27971  11.374  26.591   4.297
59754W        W27972   6.046  26.643  13.813
59755W        W27973   7.664   6.390   0.864
59756W        W27974  43.916  10.206   4.389
59757W        W27975  26.198  38.118   3.239
59758W        W27976  36.427  10.000  12.457
59759W        W27977  32.096  11.875   2.731
59760W        W27978  34.617  30.409  13.847
59761W        W27979   1.274  10.876  10.693
59762W        W27980  13.891   3.929   1.919
59763W        W27981  30.003  16.297   2.809
59764W        W27982   6.903  43.847  14.731
59765W        W27983  34.936  42.482  12.868
59766W        W27984  10.375  39.954   4.629
59767W        W27985  14.875   4.206  13.889
59768W        W27986  29.085  17.103   0.462
59769W        W27987  38.932  18.728   2.171
59770W        W27988  17.030  35.758   1.289
59771W        W27989  18.290  24.272  10.682
59772W        W27990   6.157  36.192  10.722
59773W        W27991  10.667  29.416  13.048
59774W        W27992  31.187  38.301   1.874
59775W        W27993  11.735  44.800  14.961
59776W        W27994  25.074   8.909   2.658
59777W        W27995   4.838   5.416   3.785
59778W        W27996  13.617   6.840   1.468
59779W        W27997  12.323  20.063  12.167
59780W        W27998   6.044  13.221  13.521
59781W        W27999  38.519  23.874   1.249
59782W        W28000  31.821  15.076  13.305
59783W        W28001  32.325  32.115   1.678
59784W        W28002   7.601   5.274   0.450
59785W        W28003  13.111  30.682  12.651
59786W        W28004   3.331  12.076  14.429
59787W        W28005  39.394  29.093  14.920
59788W        W28006   5.391  12.761  12.990
59789W        W28007  14.577  25.972   0.030
59790W        W28008  30.165  33.510  13.786
59791W        W28009  35.168  16.953  10.261
59792W        W28010  13.881   2.796   2.695
59793W        W28011  16.590  43.317  12.969
59794W        W28012   9.701  11.244   2.366
59795W        W28013  41.515  18.695  12.356
59796W        W28014  29.210  26.090  11.669
59797W        W28015  44.818   1.690   4.174
59798W        W28016  17.234   3.299  10.098
59799W        W28017  31.547   4.284   1.198
59800W        W28018   3.645  29.790  11.289
59801W        W28019  31.004   3.471  11.193
59802W        W28020  17.230   3.939   0.695
59803W        W28021  30.077  18.323   4.538
59804W        W28022  22.153  25.243  11.362
59805W        W28023  38.879  31.109   0.551
59806W        W28024   5.882   9.597   1.325
59807W        W28025  16.240  34.144  11.049
59808W        W28026  21.603  39.911  11.038
59809W        W28027  21.702  31.499   2.717
59810W        W28028  20.511  33.037   1.933
59811W        W28029   6.497  18.324  10.278
59812W        W28030  26.521  26.588  13.622
59813W        W28031  36.395  38.021  14.922
59814W        W28032   9.319  10.587  11.532
59815W        W28033  28.074  25.815   3.286
59816W        W28034  12.381  26.003   1.401
59817W        W28035  42.519  38.146  13.038
59818W        W28036  41.037  36.395  11.969
59819W        W28037  28.630  29.626   4.474
59820W        W28038  13.770  29.625   0.572
59821W        W28039  31.183  32.008   4.384
59822W        W28040  12.870  31.959  13.560
59823W        W28041  19.533  15.638  14.240
59824W        W28042  26.231  36.427  13.910
59825W        W28043  29.691  19.269  12.423
59826W        W28044  43.665  31.770  14.868
59827W        W28045  10.273   3.895  12.078
59828W        W28046   8.940   2.212   0.478
59829W        W28047  15.080  22.181   4.676
59830W        W28048   6.918  19.673   1.363
59831W        W28049   8.674  26.189   4.245
59832W        W28050  30.840  32.526   3.662
59833W        W28051   0.759  23.955   3.585
59834W        W28052  44.178  24.990  11.557
59835W        W28053  40.605  16.496  14.877
59836W        W28054  13.536  34.339  10.123
59837W        W28055  39.397   2.405   0.330
59838W        W28056   8.777  13.754   3.208
59839W        W28057   0.875  25.523   0.389
59840W        W28058  32.475  18.519   0.253
59841W        W28059  15.148   6.404   4.926
59842W        W28060  23.138  13.706  13.442
59843W        W28061  37.739  26.635   2.348
59844W        W28062  39.441  24.696  11.028
59845W        W28063   2.692  10.842   2.126
59846W        W28064  34.075  29.446   1.731
59847W        W28065  32.669  31.904  13.453
59848W        W28066  44.518   4.020   0.978
59849W        W28067  25.494  10.263  14.437
59850W        W28068   8.666  34.841  12.448
59851W        W28069  18.772   0.982   4.520
59852W        W28070   5.750   8.173   2.354
59853W        W28071   9.790  24.478  12.406
59854W        W28072  10.801  24.524   3.977
59855W        W28073  23.633  21.250   3.621
59856W        W28074  40.762  33.188   1.851
59857W        W28075  36.906  42.951   1.563
59858W        W28076  27.504   3.527  13.406
59859W        W28077   8.389   4.652  12.946
59860W        W28078  43.257  33.136   4.132
59861W        W28079  15.650  22.484  12.565
59862W        W28080  40.863  11.302  12.481
59863W        W28081  41.994  24.663  10.615
59864W        W28082  16.129  17.250   2.610
59865W        W28083  15.508   9.660   3.420
59866W        W28084  42.218   4.835   0.377
59867W        W28085  12.138   3.213   0.847
59868W        W28086  26.359   5.736  14.198
59869W        W28087  41.417  17.804   2.716
59870W        W28088  34.378  36.570   3.734
59871W        W28089  41.419  14.271  12.997
59872W        W28090  23.490  35.922  11.088
59873W        W28091  29.493  31.741  13.555
59874W        W28092  42.964  44.446   2.600
59875W        W28093  18.739   2.364  14.946
59876W        W28094   9.210   9.959  13.190
59877W        W28095   1.352   8.316   2.147
59878W        W28096  17.130  19.156   3.677
59879W        W28097  13.167  32.178   1.698
59880W        W28098  37.465  23.598   1.046
59881W        W28099   6.106  43.319  13.742
59882W        W28100   6.486   5.737  12.956
59883W        W28101  42.478  15.064   3.225
59884W        W28102  22.564   1.232  13.603
59885W        W28103  35.654  21.230  14.515
59886W        W28104  38.502  42.081  12.398
59887W        W28105  19.048  42.504   3.722
59888W        W28106  10.781  28.732   1.418
59889W        W28107  10.786   9.852  10.386
59890W        W28108  31.966  41.416   1.654
59891W        W28109  33.070  25.509  11.036
59892W        W28110  41.117   8.400   2.234
59893W        W28111   4.169  28.043   2.463
59894W        W28112  28.187   2.688  11.129
59895W        W28113   8.446   9.787   4.855
59896W        W28114  19.257   8.543   1.290
59897W        W28115  23.970   1.031  12.957
59898W        W28116   7.708  35.892   4.676
59899W        W28117  10.352  37.949   2.178
59900W        W28118  27.131  21.674  11.905
59901W        W28119  30.130  18.295  14.043
59902W        W28120  22.612   4.177   4.792
59903W        W28121   0.350   9.734   1.246
59904W        W28122  29.606  19.531   4.162
59905W        W28123   2.418  36.577   3.252
59906W        W28124  27.398   4.571  11.084
59907W        W28125   7.361  28.448   4.129
59908W        W28126  14.620  39.970  11.159
59909W        W28127  13.676   2.973  11.492
59910W        W28128   3.416  34.958   4.773
59911W        W28129  36.474  41.712   0.926
59912W        W28130  14.136  40.459  13.874
59913W        W28131  21.001  22.037   4.258
59914W        W28132  23.114  35.519   3.286
59915W        W28133  29.572  14.898   1.352
59916W        W28134   1.417  20.934  13.718
59917W        W28135  14.689  43.346  12.089
59918W        W28136  44.517  15.279   2.588
59919W        W28137  25.094  19.087  13.273
59920W        W28138  29.096  10.693  14.898
59921W        W28139  24.553   5.147   1.137
59922W        W28140  37.730  32.322   1.016
59923W        W28141  13.892  27.919  12.605
59924W        W28142   0.403  33.575  11.319
59925W        W28143   1.199  15.036   1.855
59926W        W28144   3.748  44.293  12.055
59927W        W28145  35.967  19.019   4.553
59928W        W28146  14.104   4.768  12.200
59929W        W28147   7.901  34.026   2.825
59930W        W28148  23.655  13.291   4.770
59931W        W28149  14.286  39.284  11.310
59932W        W28150  11.738  14.084   2.759
59933W        W28151  30.437  43.543  11.762
59934W        W28152  16.647   2.202   4.147
59935W        W28153  21.223  13.553   2.801
59936W        W28154  11.656  31.224  10.985
59937W        W28155  17.454   8.176   1.089
59938W        W28156  20.715  20.729   4.507
59939W        W28157  26.644  34.525  11.450
59940W        W28158  33.114  42.840  13.897
59941W        W28159  33.573   9.120  12.105
59942W        W28160  31.224   6.868   2.748
59943W        W28161  36.900  32.786   1.201
59944W        W28162  13.079  13.012  13.297
59945W        W28163  21.987  36.985   4.123
59946W        W28164   6.871  38.074   3.656
59947W        W28165   6.852   5.202   4.360
59948W        W28166  12.880  25.801  11.646
59949W        W28167  17.250   7.118  14.337
59950W        W28168  37.855  42.982  13.995
59951W        W28169  28.896   3.692   3.931
59952W        W28170  36.915  14.738   0.457
59953W        W28171  34.999  28.825  13.820
59954W        W28172  12.304  17.624   1.974
59955W        W28173  30.639  38.333   2.675
59956W        W28174  35.458  42.539   0.311
59957W        W28175  38.399  30.646   1.373
59958W        W28176  44.463  35.581  11.236
59959W        W28177  26.733  34.449   2.200
59960W        W28178  43.484  29.022  10.977
59961W        W28179  21.311  42.729  12.391
59962W        W28180  30.068  41.902   4.340
59963W        W28181  22.690   9.999  11.096
59964W        W28182  33.971  25.037  10.155
59965W        W28183   1.035  32.547  14.073
59966W        W28184   6.853  30.021  14.040
59967W        W28185  21.172  19.395   2.532
59968W        W28186  26.394  42.898   0.799
59969W        W28187   9.999  38.211  13.973
59970W        W28188  21.843  33.018  13.098
59971W        W28189  16.170  23.952   1.794
59972W        W28190   4.563   3.292  11.113
59973W        W28191  36.049  16.280  13.818
59974W        W28192  39.440   0.414  13.833
59975W        W28193   6.779  37.787   0.350
59976W        W28194   7.429  31.039  14.305
59977W        W28195  43.771  25.715   5.063
59978W        W28196  14.015  24.194   4.591
59979W        W28197  16.262  24.998   0.263
59980W        W28198  36.832  33.420  12.475
59981W        W28199  26.678  22.450   1.846
59982W        W28200   0.726  17.680  14.866
59983W        W28201   6.429  37.903  12.687
59984W        W28202  17.742  12.471  14.291
59985W        W28203  18.838   5.926   1.897
59986W        W28204   3.509  43.155  14.358
59987W        W28205  35.094   7.567   0.698
59988W        W28206   3.433  30.920   5.041
59989W        W28207  19.557  42.027   2.707
59990W        W28208  24.987  28.902   1.833
59991W        W28209   7.696  42.335  14.774
59992W        W28210  44.277   7.520  10.484
59993W        W28211  38.428   1.874  11.939
59994W        W28212  14.180   3.170  11.523
59995W        W28213  21.662  36.804   0.520
59996W        W28214  20.236  41.384  14.037
59997W        W28215  33.985  43.262  14.895
59998W        W28216   1.762  43.319   2.328
59999W        W28217   9.278   0.136  14.057
60000W        W28218   9.759   1.568  12.583
60001W        W28219  40.745  20.329   3.295
60002W        W28220   6.327   6.817   4.796
60003W        W28221  35.086  13.276  13.596
60004W        W28222  36.094  24.882  13.869
60005W        W28223  18.628  12.412  12.876
60006W        W28224  14.782   3.302  10.828
60007W        W28225  29.173  39.181   3.523
60008W        W28226  20.280   1.237  13.336
60009W        W28227  35.484  30.066  13.992
60010W        W28228  34.767  37.361   4.123
60011W        W28229   7.748  44.862  12.910
60012W        W28230  25.953  44.782  11.041
60013W        W28231  22.497   9.988   4.181
60014W        W28232  15.001  26.731  10.957
60015W        W28233  42.359  44.575   1.947
60016W        W28234  24.939  18.611   4.543
60017W        W28235   9.348  30.097   3.573
60018W        W28236  20.106  42.079   3.633
60019W        W28237  32.933  44.028  10.716
60020W        W28238  16.236  27.706   4.006
60021W        W28239   8.718  40.887   0.336
60022W        W28240  19.202   6.683  11.564
60023W        W28241  33.253  16.092  13.054
60024W        W28242  23.696   2.904   2.671
60025W        W28243  24.491  41.730  14.965
60026W        W28244  43.185   2.285  11.004
60027W        W28245  37.968  25.558  14.521
60028W        W28246  27.182  16.181   2.230
60029W        W28247  21.133  12.839   2.141
60030W        W28248   7.167  44.020  13.129
60031W        W28249  38.020   3.958   4.530
60032W        W28250  42.417  37.199  11.332
60033W        W28251  38.098  44.927   1.904
60034W        W28252  35.282   1.358  11.664
60035W        W28253   4.547  19.882   4.856
60036W        W28254  14.300  39.989   0.979
60037W        W28255  23.080   7.928  13.765
60038W        W28256  14.641  37.000   1.412
60039W        W28257  34.564  18.953   3.901
60040W        W28258  13.862  16.148  14.774
60041W        W28259  10.021  37.110  11.003
60042W        W28260  22.612   6.846  13.608
60043W        W28261  33.999   7.812  11.871
60044W        W28262   5.748  27.541  11.132
60045W        W28263  29.683  29.227  11.606
60046W        W28264  20.475  25.180   1.489
60047W        W28265  19.194  26.702   3.860
60048W        W28266  20.523  41.876   3.864
60049W        W28267  26.867  41.762   4.398
60050W        W28268  18.688  43.297   0.448
60051W        W28269  14.713  11.617  14.002
60052W        W28270   6.895  36.797   3.127
60053W        W28271  41.017  34.896   3.808
60054W        W28272  43.689  31.739   3.696
60055W        W28273  32.413  13.353   0.421
60056W        W28274   1.784  14.237  12.574
60057W        W28275  17.227  24.136   4.079
60058W        W28276   2.585  37.953  11.940
60059W        W28277  19.570  33.065   1.031
60060W        W28278   5.971  10.124  10.164
60061W        W28279   5.521  11.279   0.699
60062W        W28280  17.568  25.715  14.711
60063W        W28281   8.270   8.048   1.880
60064W        W28282   4.327   1.029  10.520
60065W        W28283  42.022  38.418  14.448
60066W        W28284  14.524  33.170   3.883
60067W        W28285  20.470  27.163   4.911
60068W        W28286  25.671   5.929   1.611
60069W        W28287  27.939   6.770   0.067
60070W        W28288  19.515  10.433   5.037
60071W        W28289  10.365  38.105  13.016
60072W        W28290   8.885  32.022   1.327
60073W        W28291  31.688  42.882   2.675
60074W        W28292  20.553  41.280  11.090
60075W        W28293  32.868  38.858   4.097
60076W        W28294  43.029   3.166  14.030
60077W        W28295  41.440  16.336  13.850
60078W        W28296  20.294  22.409   0.619
60079W        W28297  15.285  21.540   3.568
60080W        W28298  14.742  18.345   2.726
60081W        W28299  24.074  41.330  13.043
60082W        W28300  34.912  21.148  12.950
60083W        W28301  25.244  25.039   2.096
60084W        W28302  39.820  10.153  14.253
60085W        W28303  20.156  42.256   2.273
60086W        W28304  23.959  16.665  13.755
60087W        W28305   4.114   2.796  13.737
60088W        W28306  43.356  36.299   1.926
60089W        W28307   6.146  15.177   2.753
60090W        W28308  38.888  44.979  14.502
60091W        W28309  24.424  28.680  11.525
60092W        W28310  30.568  38.092   3.231
60093W        W28311  22.052  23.800   0.449
60094W        W28312  28.062  20.177  12.429
60095W        W28313  12.424  13.575  12.526
60096W        W28314   6.455  40.123   0.467
60097W        W28315  36.824  34.752  11.001
60098W        W28316  34.491  26.051   1.014
60099W        W28317  18.056  22.708  12.042
60100W        W28318  24.848  24.644   5.195
60101W        W28319  10.198  29.852   0.805
60102W        W28320  31.110  16.405  13.488
60103W        W28321  22.164  30.091   1.731
60104W        W28322  25.879  31.726  11.803
60105W        W28323  24.221   2.922   2.685
60106W        W28324  23.983  42.472  11.993
60107W        W28325  22.646  39.345  14.556
60108W        W28326  21.153  10.757   2.122
60109W        W28327   1.141   6.350   4.069
60110W        W28328  18.665  20.757  13.763
60111W        W28329  24.303   8.180   4.845
60112W        W28330   7.662   2.891  13.809
60113W        W28331  15.234  36.609   0.578
60114W        W28332  40.532  29.495  12.453
60115W        W28333   9.619   4.238  14.474
60116W        W28334  37.794   9.931   4.126
60117W        W28335  42.305  44.587   0.592
60118W        W28336  24.083  22.721   4.131
60119W        W28337  17.505  23.994   2.308
60120W        W28338  16.627  32.988   4.312
60121W        W28339  21.303  37.921  13.921
60122W        W28340   1.543  33.549   3.651
60123W        W28341  19.449   9.111  11.571
60124W        W28342   4.765  16.797  10.468
60125W        W28343   2.696  12.154  13.146
60126W        W28344  28.788  21.660   1.677
60127W        W28345  40.598   0.980   4.541
60128W        W28346   0.619  32.157  10.640
60129W        W28347  25.014  12.917  11.785
60130W        W28348  32.973  44.575  13.442
60131W        W28349   5.782   0.578  11.777
60132W        W28350  23.888  21.131   4.628
60133W        W28351  24.858  40.556   4.680
60134W        W28352  26.775  16.767   3.153
60135W        W28353  40.388  18.004   2.162
60136W        W28354  16.398  36.724   3.086
60137W        W28355  30.154  17.803  13.928
60138W        W28356   4.460  31.090   1.334
60139W        W28357  42.559  37.409  13.567
60140W        W28358  19.182  29.452   3.054
60141W        W28359   8.784  12.166  13.316
60142W        W28360  35.550  17.708  13.537
60143W        W28361  32.050  19.685  14.950
60144W        W28362   4.271  18.774  11.616
60145W        W28363   4.805  41.364   3.976
60146W        W28364   0.785  37.204   9.873
60147W        W28365  20.478  32.317   1.677
60148W        W28366  34.031  39.252   1.268
60149W        W28367  17.256  41.891   1.812
60150W        W28368  39.089  17.546   0.739
60151W        W28369  11.422  13.596  12.465
60152W        W28370  27.127  41.752   0.933
60153W        W28371  26.508   3.383  10.750
60154W        W28372  26.940  28.572  11.545
60155W        W28373  18.708  35.819  12.954
60156W        W28374  25.749  22.136  11.624
60157W        W28375  35.128  22.421  11.197
60158W        W28376  27.197   9.935   2.743
60159W        W28377  17.167  25.742   0.327
60160W        W28378   9.367  37.436   1.098
60161W        W28379  29.569  19.233   1.301
60162W        W28380  18.161  42.012   1.239
60163W        W28381  22.735  23.272   0.853
60164W        W28382  23.148  31.309  14.299
60165W        W28383  16.714  35.851  14.687
60166W        W28384  24.285   9.809  12.932
60167W        W28385  25.951  42.762   1.545
60168W        W28386   4.923  16.312  10.591
60169W        W28387  35.630  28.135  12.849
60170W        W28388   5.318   8.187  14.006
60171W        W28389   8.387  20.737  12.940
60172W        W28390  15.792  39.064   3.237
60173W        W28391  17.933   9.753  12.440
60174W        W28392  42.547  29.868   1.428
60175W        W28393  11.826  41.903  14.963
60176W        W28394  38.570  28.087   3.649
60177W        W28395  23.103  27.464  10.559
60178W        W28396   1.320  34.094  14.807
60179W        W28397  41.496  25.482   2.312
60180W        W28398   1.945  30.851  13.431
60181W        W28399  10.910  34.949  14.187
60182W        W28400  31.383  23.673  11.127
60183W        W28401  23.690  25.938   2.339
60184W        W28402  41.578  16.669  10.619
60185W        W28403  41.855  10.254  10.113
60186W        W28404  34.405   0.536   3.234
60187W        W28405   9.178  10.164  14.753
60188W        W28406  39.808  26.202  13.914
60189W        W28407  24.132   5.435   3.222
60190W        W28408   2.826   3.537   1.183
60191W        W28409  20.193  31.720   4.622
60192W        W28410   4.980  31.344  13.283
60193W        W28411  41.974  33.119   0.522
60194W        W28412  24.669   2.253   2.220
60195W        W28413  21.619  12.240   4.502
60196W        W28414  40.337   1.667  10.768
60197W        W28415  41.990   0.937   5.368
60198W        W28416  31.935   6.823  12.500
60199W        W28417  43.542  35.941   4.734
60200W        W28418  38.456   5.273  11.790
60201W        W28419  21.461  34.947  12.184
60202W        W28420  18.632  27.624  14.927
60203W        W28421  34.138  14.401   1.395
60204W        W28422  11.588  17.500   0.831
60205W        W28423   9.941  31.236   3.895
60206W        W28424  13.101   4.668  10.953
60207W        W28425  24.130  38.158  14.345
60208W        W28426  26.943   3.674  10.854
60209W        W28427   2.598  43.957  13.497
60210W        W28428  12.132  35.111  14.969
60211W        W28429  38.398  40.515  13.469
60212W        W28430   8.210  20.543   0.868
60213W        W28431  11.355  28.638   4.164
60214W        W28432  38.156  17.215  14.975
60215W        W28433  33.503  42.707  11.611
60216W        W28434  32.611  42.958  13.816
60217W        W28435  19.258   0.828   4.689
60218W        W28436   3.386  23.649   3.316
60219W        W28437   2.983  34.111   1.772
60220W        W28438  43.595  10.464  11.733
60221W        W28439  14.535  19.759  14.285
60222W        W28440  41.493  15.282   0.665
60223W        W28441  10.745  12.650   4.663
60224W        W28442  43.011  17.990  12.468
60225W        W28443  41.287  32.886  12.847
60226W        W28444  16.871  10.625   4.467
60227W        W28445   4.043   6.892   0.981
60228W        W28446   6.995   3.363   4.195
60229W        W28447  10.291   2.216  13.559
60230W        W28448   3.028  30.690  13.656
60231W        W28449  23.618  14.645  11.443
60232W        W28450  19.593  39.610  12.168
60233W        W28451  39.286  37.037   3.272
60234W        W28452  42.810  33.025   3.829
60235W        W28453   3.130   2.770   0.250
60236W        W28454   2.401  29.113   1.234
60237W        W28455  23.608  37.252  13.048
60238W        W28456  37.136  11.830   5.124
60239W        W28457  43.995  21.772   2.120
60240W        W28458  18.777  22.951  11.737
60241W        W28459  33.477  38.722   1.345
60242W        W28460  43.345  35.518  13.498
60243W        W28461  28.181  40.551   1.459
60244W        W28462   6.730  11.290  12.007
60245W        W28463  35.121  26.555   3.309
60246W        W28464  26.525   6.529  14.580
60247W        W28465  28.562  13.369   5.485
60248W        W28466   2.807   7.189   0.039
60249W        W28467  43.542  42.399   1.446
60250W        W28468  17.774  33.486   4.797
60251W        W28469  21.091  16.124  12.246
60252W        W28470   1.827  20.776   2.818
60253W        W28471  44.197  28.971   3.773
60254W        W28472  29.679  29.583  12.574
60255W        W28473  37.984  35.367  13.014
60256W        W28474   2.411  35.438   1.235
60257W        W28475  19.042   9.832  14.923
60258W        W28476   6.246  19.274   4.894
60259W        W28477  23.463  33.927   2.155
60260W        W28478  18.976  22.965   1.320
60261W        W28479  41.503  23.471  12.343
60262W        W28480  29.517  38.452   1.739
60263W        W28481  43.327  28.735  13.644
60264W        W28482  28.088  38.552  14.766
60265W        W28483  24.086  30.633   1.384
60266W        W28484  18.832  24.660  14.823
60267W        W28485  22.709  44.949  11.696
60268W        W28486  32.196   9.612   0.181
60269W        W28487  39.202  26.491  13.608
60270W        W28488  40.003  34.861  10.711
60271W        W28489   6.442  14.314  12.546
60272W        W28490  24.655  34.353  11.465
60273W        W28491  13.604   0.258  14.777
60274W        W28492  18.710   6.479  13.954
60275W        W28493  14.157  34.956   1.591
60276W        W28494  33.368  23.317   0.861
60277W        W28495   3.242  14.744  13.884
60278W        W28496   7.617  11.250  12.012
60279W        W28497  38.062  32.940   3.324
60280W        W28498  41.409  39.767  13.289
60281W        W28499  30.498  19.770  11.311
60282W        W28500  21.300  22.262  14.806
60283W        W28501  39.016  35.106   0.488
60284W        W28502  29.253  20.965  11.679
60285W        W28503  37.762  18.608   4.661
60286W        W28504  32.874  42.529   4.145
60287W        W28505  10.631  27.157   1.447
60288W        W28506  10.244  26.019  14.471
60289W        W28507  12.586  40.987  14.529
60290W        W28508  24.541  31.153  12.828
60291W        W28509  33.188   5.516   5.224
60292W        W28510   9.557  10.731  11.971
60293W        W28511  42.149   7.801  12.076
60294W        W28512  12.925   2.545   9.640
60295W        W28513  16.568   3.781   3.825
60296W        W28514  24.143  33.139   3.826
60297W        W28515  23.249  10.464  11.982
60298W        W28516  15.891  36.949  12.041
60299W        W28517  36.165  26.912  14.680
60300W        W28518   8.823  10.412  12.018
60301W        W28519  12.340   0.304   5.070
60302W        W28520  28.086  41.887   0.475
60303W        W28521   7.717  13.726   0.268
60304W        W28522   8.112  25.301  14.872
60305W        W28523  27.910  15.313   1.231
60306W        W28524  35.887  14.623   2.743
60307W        W28525  10.621   5.779   0.690
60308W        W28526   5.506   9.363   2.951
60309W        W28527   9.161  18.276  12.939
60310W        W28528  11.328  12.094   4.255
60311W        W28529  37.400  44.579  11.952
60312W        W28530  11.691  17.303   4.074
60313W        W28531   4.380  21.207   3.598
60314W        W28532   7.915  14.792   1.848
60315W        W28533  16.326  12.107  12.522
60316W        W28534  40.243   5.427  12.923
60317W        W28535   3.259  31.504   2.719
60318W        W28536  40.890  31.376  11.683
60319W        W28537  26.702  31.627  13.924
60320W        W28538  10.378  16.128  14.429
60321W        W28539  19.920  13.351  14.899
60322W        W28540  32.683  24.305   3.160
60323W        W28541  29.548  19.201   0.367
60324W        W28542  11.252  43.808   3.716
60325W        W28543  30.909  20.215   4.274
60326W        W28544   5.722   3.156   3.664
60327W        W28545   7.710  27.732   1.382
60328W        W28546   6.052  31.819   3.619
60329W        W28547  36.806  25.092  13.405
60330W        W28548  21.931  27.060  11.228
60331W        W28549  42.530  23.674   3.788
60332W        W28550  27.902  22.275   3.515
60333W        W28551  26.763  43.837   2.358
60334W        W28552  20.621   3.751   0.918
60335W        W28553  29.197  27.102   2.234
60336W        W28554   7.747  25.035   0.686
60337W        W28555  22.935  34.593  11.398
60338W        W28556  26.100  15.303  10.700
60339W        W28557  40.885  31.907  11.628
60340W        W28558  28.361   8.662   3.702
60341W        W28559  34.973  27.548   3.956
60342W        W28560  38.959  29.858  11.455
60343W        W28561  39.061  17.661   1.248
60344W        W28562  20.495  19.088   0.672
60345W        W28563  38.370  35.048  14.237
60346W        W28564  15.717  42.742   1.009
60347W        W28565  44.240  33.237   2.221
60348W        W28566  18.233  40.758  13.267
60349W        W28567   5.777  17.324   4.164
60350W        W28568  17.700  30.503  11.520
60351W        W28569  34.947   3.697  13.580
60352W        W28570   4.859  42.755   1.375
60353W        W28571  19.561  43.158   0.480
60354W        W28572   6.048  21.075   3.164
60355W        W28573  27.036  12.691   2.441
60356W        W28574  36.886  15.843  11.571
60357W        W28575  16.999  28.657  12.362
60358W        W28576   9.159  33.658   1.818
60359W        W28577   1.031   6.820   4.863
60360W        W28578  32.882  38.068  12.567
60361W        W28579   4.595  38.201  13.324
60362W        W28580  33.959  37.809  13.060
60363W        W28581  18.611  18.149  14.457
60364W        W28582  43.888  40.784  14.380
60365W        W28583  29.394  39.466  10.199
60366W        W28584   6.149  32.440  12.880
60367W        W28585  36.015   7.085  11.694
60368W        W28586   3.453   5.803   3.609
60369W        W28587  29.720  15.320   4.160
60370W        W28588  37.616   2.547  13.034
60371W        W28589  14.590  14.301  10.573
60372W        W28590  15.166   5.733   1.487
60373W        W28591  35.929  27.137  11.517
60374W        W28592  12.660  26.061  14.557
60375W        W28593   6.732  12.265   4.054
60376W        W28594  16.255  22.276  12.155
60377W        W28595   7.583  33.918  14.532
60378W        W28596  38.947  26.272  10.727
60379W        W28597  33.446   8.664   0.079
60380W        W28598   4.363  15.071   0.914
60381W        W28599  30.044   1.975  13.513
60382W        W28600  14.170  11.688  10.716
60383W        W28601  15.585  22.739  11.229
60384W        W28602   5.890  15.101  11.484
60385W        W28603  41.415   9.133  12.953
60386W        W28604  19.327  19.857  12.390
60387W        W28605  15.268  37.737  11.109
60388W        W28606  44.012  23.020  13.184
60389W        W28607  11.645   2.760   2.429
60390W        W28608  18.585  18.120   0.332
60391W        W28609   9.894  25.879   3.918
60392W        W28610  26.535   2.210  13.770
60393W        W28611  39.729  33.559   3.649
60394W        W28612  20.144   6.745   4.742
60395W        W28613  24.868   9.333  13.605
60396W        W28614  22.218  33.224  10.320
60397W        W28615  16.558  13.837  11.181
60398W        W28616  32.747  39.823  14.722
60399W        W28617  29.569   9.216  13.988
60400W        W28618  12.916   4.466   4.562
60401W        W28619  36.770  35.641  13.443
60402W        W28620  41.452  37.309  12.547
60403W        W28621  12.804  24.293  12.103
60404W        W28622  38.102  31.028  14.995
60405W        W28623  32.212  26.944  12.464
60406W        W28624  39.349  23.075  11.995
60407W        W28625   6.741   0.888   1.754
60408W        W28626  34.328  42.021   0.737
60409W        W28627  15.749  29.331   3.624
60410W        W28628  29.591  37.304  11.542
60411W        W28629  23.540  10.098   3.357
60412W        W28630   8.149  31.092   0.685
60413W        W28631   0.376   6.031   1.276
60414W        W28632  31.048  34.876  11.246
60415W        W28633  31.299   6.766  13.413
60416W        W28634  43.672  21.396  14.503
60417W        W28635  20.532  14.838   1.430
60418W        W28636  16.658  25.176   1.985
60419W        W28637   1.091  12.157   3.181
60420W        W28638  23.394  24.863  14.497
60421W        W28639  23.142  16.299   4.120
60422W        W28640   7.746   9.724  12.604
60423W        W28641  37.987  44.939  12.872
60424W        W28642  26.944   6.211   1.313
60425W        W28643  23.730  20.848  11.609
60426W        W28644  26.645   8.020   2.663
60427W        W28645  36.294  31.667  12.002
60428W        W28646  39.462  11.100   4.677
60429W        W28647   2.007  42.383  12.489
60430W        W28648   7.805  21.529   1.295
60431W        W28649  35.329   2.704  10.492
60432W        W28650   7.783  39.568  11.489
60433W        W28651  34.450   7.911  12.170
60434W        W28652  26.657   6.218   4.271
60435W        W28653   2.690  17.006  13.047
60436W        W28654  20.959  20.672  13.102
60437W        W28655  29.413   7.639   3.213
60438W        W28656  13.627   5.987   3.625
60439W        W28657   9.197   7.739  10.761
60440W        W28658  19.273  18.458  14.765
60441W        W28659   5.812   2.784  12.155
60442W        W28660  35.554   7.749   3.219
60443W        W28661  23.285  16.330   3.169
60444W        W28662  31.876  13.674  10.913
60445W        W28663  19.549  11.683   4.188
60446W        W28664   2.114  42.562   0.464
60447W        W28665   2.147  29.209  11.582
60448W        W28666  22.065  24.380  11.928
60449W        W28667  19.168  17.250   4.419
60450W        W28668  35.705   3.698  12.951
60451W        W28669  17.076  44.381  11.484
60452W        W28670  38.052  33.090  11.501
60453W        W28671  27.052   6.694  11.960
60454W        W28672  41.596   3.780  12.493
60455W        W28673   1.650  11.545   0.797
60456W        W28674  35.056  40.663  11.572
60457W        W28675  39.889   6.224   2.809
60458W        W28676  44.829   9.888  13.144
60459W        W28677  15.183  26.087  10.873
60460W        W28678  14.103  36.840   4.793
60461W        W28679   0.128  19.341  12.724
60462W        W28680  16.716  28.542  14.910
60463W        W28681  23.698   5.928  13.427
60464W        W28682  38.039  13.519  12.263
60465W        W28683   4.243   7.301  12.491
60466W        W28684  30.924  23.564   2.762
60467W        W28685  43.941  32.192  13.061
60468W        W28686  20.809  36.888  10.279
60469W        W28687  33.519  28.219   0.454
60470W        W28688  13.299  35.151  11.213
60471W        W28689  32.436  33.422   1.224
60472W        W28690  23.053   9.102  13.544
60473W        W28691  23.638  16.321  14.011
60474W        W28692  27.445  11.957   0.101
60475W        W28693  40.208  29.039   3.182
60476W        W28694  22.608  35.116  13.513
60477W        W28695  37.119  15.045  11.096
60478W        W28696  19.346  24.272  11.666
60479W        W28697   4.908  34.336  14.841
60480W        W28698   3.477  33.495  14.416
60481W        W28699  37.393  14.249  14.516
60482W        W28700  39.413  26.764   3.314
60483W        W28701  21.617  36.480  12.082
60484W        W28702  42.247  16.566  12.137
60485W        W28703   5.993  40.546   4.482
60486W        W28704  22.090  14.073  12.869
60487W        W28705  25.139   1.273   1.019
60488W        W28706  24.460  36.338  13.471
60489W        W28707  39.585  14.060   2.194
60490W        W28708  32.948  28.822   3.135
60491W        W28709  16.013  36.315  14.994
60492W        W28710  38.562   7.407   0.305
60493W        W28711  14.684   0.893  14.478
60494W        W28712  12.993  20.760   0.400
60495W        W28713  17.208  33.931   4.383
60496W        W28714   6.679   3.883  14.046
60497W        W28715   4.793  41.772   2.800
60498W        W28716  29.593  12.666  12.867
60499W        W28717   3.726  30.497  12.023
60500W        W28718   1.778  13.250  12.959
60501W        W28719  43.917   6.110  13.565
60502W        W28720  32.362  22.652  11.417
60503W        W28721  34.765  39.041   1.685
60504W        W28722  38.052  36.980  11.571
60505W        W28723  15.059   9.376  12.609
60506W        W28724  36.859  40.109  14.890
60507W        W28725  23.302  24.347   1.023
60508W        W28726   1.237  36.168   3.624
60509W        W28727  18.685  41.113   2.247
60510W        W28728  14.891  40.119  12.967
60511W        W28729  41.008  14.488  14.116
60512W        W28730   5.891   9.170   0.434
60513W        W28731  19.506  28.971  11.469
60514W        W28732  39.828  33.606   1.852
60515W        W28733   8.302  35.493   3.641
60516W        W28734  42.078   8.137  13.050
60517W        W28735   0.575  34.847  12.980
60518W        W28736  10.225  11.066  10.628
60519W        W28737  43.242  20.175   2.729
60520W        W28738  33.661  24.317  13.474
60521W        W28739  13.576  33.443   1.575
60522W        W28740   2.940   2.219  13.913
60523W        W28741   9.732  42.854   2.152
60524W        W28742  43.589   4.769   1.886
60525W        W28743  17.778  17.384  10.488
60526W        W28744  13.483  17.701   0.206
60527W        W28745  15.794  39.012   1.257
60528W        W28746  20.350  18.764   1.051
60529W        W28747   7.041  22.091   0.415
60530W        W28748  26.361  25.680  14.455
60531W        W28749  32.154   5.664   4.938
60532W        W28750  27.712  19.281   2.306
60533W        W28751  29.334   5.858  11.986
60534W        W28752  34.910  21.406  10.988
60535W        W28753  28.539  26.755   4.632
60536W        W28754  40.109   9.966   4.135
60537W        W28755  31.416  30.693  12.947
60538W        W28756  32.859  32.485   0.350
60539W        W28757  34.052  22.286   1.812
60540W        W28758  20.037  20.215  10.716
60541W        W28759  27.067   4.732   1.224
60542W        W28760  28.917  26.165   0.786
60543W        W28761  30.167  29.982  13.028
60544W        W28762  41.320   5.853   0.808
60545W        W28763   3.755  33.452  10.800
60546W        W28764  19.238  32.929  11.078
60547W        W28765   6.707  40.346  10.200
60548W        W28766   1.409   1.689  12.231
60549W        W28767   9.565   3.486  12.413
60550W        W28768  41.408  26.226  13.659
60551W        W28769  18.626  32.481  14.384
60552W        W28770  40.929  38.018   2.721
60553W        W28771   9.438   2.253   0.433
60554W        W28772  39.270  28.780  11.435
60555W        W28773  22.508  39.550   3.276
60556W        W28774  12.439  16.873   2.266
60557W        W28775  20.096  22.032  14.292
60558W        W28776  31.386   8.260   0.864
60559W        W28777  32.098  18.490   0.640
60560W        W28778  39.512  36.653   0.422
60561W        W28779  23.516  13.703   0.975
60562W        W28780  11.255  40.978   0.031
60563W        W28781  38.552  36.056  13.120
60564W        W28782  24.007  16.762   2.097
60565W        W28783  18.471   2.342  14.503
60566W        W28784  42.726  38.318   9.955
60567W        W28785  38.299  31.487   3.341
60568W        W28786  31.528  30.096  10.212
60569W        W28787  39.261  21.126   2.449
60570W        W28788  21.956  14.228  13.382
60571W        W28789  41.838  25.449   1.345
60572W        W28790  13.303  35.465  11.615
60573W        W28791   1.779   0.961  12.365
60574W        W28792  21.940   6.663  11.148
60575W        W28793  20.051  30.618  12.579
60576W        W28794  16.815  18.591  13.863
60577W        W28795  23.661  34.204  13.307
60578W        W28796  36.595  11.672   3.537
60579W        W28797   8.656  19.748   4.395
60580W        W28798  26.432  11.655   3.670
60581W        W28799  37.342  39.784  12.774
60582W        W28800  33.585  26.175  10.713
60583W        W28801  19.057  12.272   2.067
60584W        W28802  24.411   1.871  11.146
60585W        W28803  26.400  25.120  14.693
60586W        W28804   2.971  15.121  11.111
60587W        W28805  43.542   1.839   4.687
60588W        W28806  43.796  33.178   1.705
60589W        W28807   5.250   1.718   4.592
60590W        W28808  20.665  35.362  10.418
60591W        W28809  39.414  38.611   3.885
60592W        W28810  33.442  25.908   4.589
60593W        W28811  41.036   6.914   2.391
60594W        W28812  26.512  37.045   0.834
60595W        W28813  12.724  33.624  13.134
60596W        W28814  26.912  35.060   3.655
60597W        W28815  38.366  39.169   0.338
60598W        W28816  36.881  22.151   1.693
60599W        W28817  25.268  38.403   0.956
60600W        W28818  27.765   5.040  13.818
60601W        W28819  18.764   6.430   3.564
60602W        W28820  21.321  12.603   1.734
60603W        W28821  13.400   2.302  14.393
60604W        W28822  32.820  31.986   2.901
60605W        W28823  44.771   1.058   1.459
60606W        W28824  44.957  13.671  12.897
60607W        W28825  30.656  25.733  10.735
60608W        W28826  14.196  37.828   0.388
60609W        W28827  10.482  38.365  13.904
60610W        W28828  42.508  17.034  13.608
60611W        W28829  25.668  19.647   2.756
60612W        W28830   9.748  42.880  11.274
60613W        W28831  25.415  17.318   4.380
60614W        W28832  40.943  19.935  10.727
60615W        W28833  15.187  12.836  13.923
60616W        W28834  22.209  37.868  14.106
60617W        W28835  16.103  21.157  11.108
60618W        W28836   0.181  33.103   1.329
60619W        W28837  44.382  18.641   2.866
60620W        W28838   4.752   3.746  10.504
60621W        W28839   7.888  40.947  14.476
60622W        W28840  20.065  38.406  12.751
60623W        W28841  32.611   2.408   0.335
60624W        W28842  18.070  41.595   4.555
60625W        W28843   8.835  28.894   0.495
60626W        W28844  27.691   5.399   0.475
60627W        W28845  32.222  25.519   3.797
60628W        W28846  34.382  12.625   4.257
60629W        W28847  23.661  43.782  10.753
60630W        W28848  24.483  43.262  14.836
60631W        W28849  33.578  13.602  11.977
60632W        W28850  20.611   2.198  13.398
60633W        W28851  13.033  14.230   2.379
60634W        W28852  21.906  15.522  13.557
60635W        W28853  20.697  12.558   9.990
60636W        W28854   5.880  23.502   0.002
60637W        W28855  22.029  34.645  13.867
60638W        W28856  30.951   7.736   4.075
60639W        W28857  14.043  11.860  11.182
60640W        W28858   3.556   0.675  11.168
60641W        W28859  22.967  41.003  14.616
60642W        W28860   5.906   6.368  10.458
60643W        W28861  35.318   6.454   2.147
60644W        W28862  40.800  32.903   0.692
60645W        W28863  15.384   8.256  10.690
60646W        W28864  42.780  33.391  14.011
60647W        W28865  37.962  40.985   4.593
60648W        W28866  13.114  41.759   1.268
60649W        W28867  32.464  24.189   0.875
60650W        W28868  35.158  21.020  12.504
60651W        W28869  36.252  37.900   4.788
60652W        W28870  11.740  11.917   0.973
60653W        W28871  13.398   4.978   4.104
60654W        W28872  33.040  25.888   0.985
60655W        W28873  40.359  26.171  12.275
60656W        W28874  22.521  11.311   3.884
60657W        W28875   9.877  29.955   1.725
60658W        W28876  38.456  20.584   2.409
60659W        W28877  39.381  16.185  12.623
60660W        W28878  18.461  28.215   1.346
60661W        W28879  19.123  12.108  11.817
60662W        W28880   5.392  20.051  13.475
60663W        W28881   2.897  11.791  14.404
60664W        W28882  32.824  12.212  13.374
60665W        W28883  15.205  30.158   1.637
60666W        W28884  12.514  14.830   0.589
60667W        W28885  10.612  34.063  10.853
60668W        W28886  40.520   2.847  12.121
60669W        W28887  31.565   1.444  12.064
60670W        W28888  38.585  27.359  10.419
60671W        W28889  13.581  15.740  14.437
60672W        W28890  23.044  44.525   2.791
60673W        W28891  26.979  13.295   1.153
60674W        W28892  34.488  37.809  14.894
60675W        W28893  32.419   1.861   4.905
60676W        W28894  36.283   0.671  11.141
60677W        W28895  23.517   1.691   4.883
60678W        W28896   8.295   0.956  14.326
60679W        W28897  19.020  44.251   0.834
60680W        W28898  19.042   0.443   0.933
60681W        W28899  44.462  41.669   1.656
60682W        W28900  25.669  11.666   0.557
60683W        W28901   2.863  37.009   4.027
60684W        W28902   7.327  26.792   2.409
60685W        W28903  23.945  41.245   4.774
60686W        W28904  15.207  27.770   2.344
60687W        W28905  27.599  33.990  13.194
60688W        W28906  28.098   6.343  12.844
60689W        W28907  39.937  14.435   4.766
60690W        W28908  30.841  27.832   1.365
60691W        W28909  21.751  17.561  13.487
60692W        W28910  25.652   5.200   4.268
60693W        W28911  40.057  33.459  13.777
60694W        W28912  44.534   1.273   4.147
60695W        W28913  16.025   2.683  11.569
60696W        W28914  38.871  14.873  10.999
60697W        W28915  33.094  13.581  14.459
60698W        W28916  18.145  21.413  12.264
60699W        W28917  26.948  17.561  11.483
60700W        W28918  37.784  35.920  12.657
60701W        W28919  40.622  19.873   0.124
60702W        W28920  38.057  16.713  10.341
60703W        W28921   6.381  41.772   0.693
60704W        W28922   6.792  10.263  14.412
60705W        W28923  39.650  17.077   4.745
60706W        W28924  28.014  44.943   3.667
60707W        W28925   4.266  13.428   2.436
60708W        W28926  25.992  13.208   3.789
60709W        W28927  10.431  43.613  14.728
60710W        W28928  26.559  42.585  14.839
60711W        W28929  22.009  25.055  12.887
60712W        W28930  32.173  10.859  11.153
60713W        W28931   7.271  44.336  13.555
60714W        W28932  32.629  27.434  13.048
60715W        W28933  27.161  26.642   2.736
60716W        W28934   7.501   4.931   0.810
60717W        W28935  31.060  28.562   1.647
60718W        W28936  20.595  25.504   3.060
60719W        W28937  39.922  15.826  14.333
60720W        W28938   6.904  25.651   1.415
60721W        W28939  12.658  17.240  14.863
60722W        W28940  13.152   0.450   4.106
60723W        W28941   1.316  29.142  12.435
60724W        W28942  26.738  24.695  10.774
60725W        W28943  29.786   9.455   4.264
60726W        W28944  18.297  30.000   3.230
60727W        W28945  22.780  10.625   0.315
60728W        W28946  30.510  11.092   4.129
60729W        W28947  17.898   6.581  13.407
60730W        W28948   1.267  13.594   2.773
60731W        W28949  27.437  19.347   4.547
60732W        W28950  20.148  42.994  13.386
60733W        W28951  39.543  40.888  10.530
60734W        W28952  17.028  37.103   2.664
60735W        W28953  36.625  24.093   0.804
60736W        W28954  37.031  32.015   1.776
60737W        W28955  16.824  43.993   0.334
60738W        W28956  29.446  32.435  12.096
60739W        W28957  26.546   8.283   4.452
60740W        W28958  35.081  16.174   0.773
60741W        W28959  16.836  18.502   0.787
60742W        W28960  37.523  26.643  12.959
60743W        W28961  15.831  23.054   2.837
60744W        W28962  23.481   7.597  13.828
60745W        W28963  43.527  39.528  14.853
60746W        W28964   3.453  16.857  12.367
60747W        W28965  33.113  19.804  12.649
60748W        W28966  18.007   5.240  12.027
60749W        W28967  14.346   4.770  12.659
60750W        W28968  43.958  44.367  10.229
60751W        W28969  15.083   2.712  14.363
60752W        W28970  41.208  27.506  14.976
60753W        W28971  42.207  13.757   4.837
60754W        W28972  23.288  27.374   1.968
60755W        W28973  25.624  41.864   2.318
60756W        W28974  44.527  34.988   2.236
60757W        W28975  18.440  18.281   4.966
60758W        W28976  43.182   1.877  10.681
60759W        W28977   4.322  27.164   2.345
60760W        W28978  44.352  32.575   4.642
60761W        W28979   9.931   2.216   0.349
60762W        W28980  35.527  44.350   2.681
60763W        W28981  43.724  15.854   3.745
60764W        W28982  16.994  33.499   4.166
60765W        W28983   6.404  13.717   1.353
60766W        W28984  23.376  17.184   1.651
60767W        W28985  10.281  18.583  10.371
60768W        W28986   9.643  13.794  14.845
60769W        W28987  30.559  20.347   1.917
60770W        W28988   1.469  18.490   3.830
60771W        W28989  14.658   2.296  12.063
60772W        W28990  36.526  20.201   0.600
60773W        W28991  43.828   4.672  12.561
60774W        W28992  29.535  40.736   1.339
60775W        W28993  25.439  24.077  12.929
60776W        W28994  21.107  26.606  12.323
60777W        W28995   9.297  43.288  14.788
60778W        W28996  34.560   0.309  13.270
60779W        W28997  29.567  27.451   2.231
60780W        W28998  43.375   5.991  13.031
60781W        W28999  43.573   3.761  13.483
60782W        W29000   2.317  41.469  14.275
60783W        W29001  43.511  17.786   0.342
60784W        W29002  16.371   7.456  14.058
60785W        W29003  14.032  17.235   4.533
60786W        W29004  22.103  31.949  14.482
60787W        W29005  32.935   3.379  13.938
60788W        W29006  34.307  39.313  11.364
60789W        W29007  42.538   9.282  11.217
60790W        W29008   7.308  40.280  12.811
60791W        W29009  32.754  36.107   0.035
60792W        W29010  14.786  42.844   1.209
60793W        W29011   9.418  14.672   4.581
60794W        W29012  42.467  17.991  11.952
60795W        W29013  26.379  27.600   4.960
60796W        W29014   6.276  42.042   1.514
60797W        W29015  37.577  16.061  12.994
60798W        W29016  32.667  39.488   0.458
60799W        W29017  13.391  19.861  10.795
60800W        W29018  38.919  41.436   2.312
60801W        W29019  12.696   0.463   0.091
60802W        W29020  28.619  17.761  11.933
60803W        W29021  30.935  38.407  14.021
60804W        W29022  19.558  22.606   0.904
60805W        W29023  34.906   4.333   2.147
60806W        W29024  18.842  14.644   1.245
60807W        W29025  40.691  17.096   4.909
60808W        W29026  28.923   0.415  14.900
60809W        W29027  17.731   6.282  11.883
60810W        W29028   0.185  17.612   2.712
60811W        W29029  16.397  28.490  11.565
60812W        W29030  18.098   5.537  13.280
60813W        W29031  15.196  32.195   4.547
60814W        W29032   9.911  14.290  10.891
60815W        W29033  38.052   0.905   2.895
60816W        W29034  25.124  16.253   1.976
60817W        W29035   2.503  26.099   4.498
60818W        W29036  35.699  21.265  13.999
60819W        W29037   4.699  21.699   4.554
60820W        W29038  17.758  21.274   0.930
60821W        W29039  44.506  13.525  12.579
60822W        W29040   0.257  37.837   0.820
60823W        W29041  11.457  26.488   2.721
60824W        W29042   1.186  44.329  13.599
60825W        W29043  12.135  18.133   1.044
60826W        W29044  16.675  22.056  13.057
60827W        W29045   5.952  40.091  10.999
60828W        W29046   2.436  23.072  13.555
60829W        W29047  28.520  30.779  13.988
60830W        W29048   5.302  43.049   3.786
60831W        W29049   2.222  39.855   2.240
60832W        W29050  39.550  15.495   0.491
60833W        W29051  40.044   0.375   4.147
60834W        W29052  27.623  11.664   1.364
60835W        W29053   9.888  27.019   0.209
60836W        W29054  24.490  21.070   3.062
60837W        W29055  11.891  23.936  11.157
60838W        W29056  44.852   0.743  12.476
60839W        W29057   6.290   1.423   1.333
60840W        W29058  28.482  39.017  13.258
60841W        W29059  40.909   8.115   0.773
60842W        W29060  30.739  39.826  11.278
60843W        W29061  25.039   0.030  11.214
60844W        W29062  21.158  23.589   4.647
60845W        W29063   9.676  10.402   0.731
60846W        W29064   2.277  39.933  14.106
60847W        W29065  29.045  23.919   4.256
60848W        W29066  23.725  43.920   2.925
60849W        W29067  15.752  19.954   4.098
60850W        W29068  11.390  26.797   2.104
60851W        W29069  31.515  28.118  13.478
60852W        W29070   8.684   7.594   3.608
60853W        W29071  28.370  25.427  12.069
60854W        W29072   1.190   8.225  11.944
60855W        W29073  16.140  29.089   0.826
60856W        W29074  30.992  20.407   0.756
60857W        W29075  17.466  20.103   0.515
60858W        W29076  25.842   6.626   0.888
60859W        W29077  35.505  33.774  13.643
60860W        W29078  26.960  13.077  11.516
60861W        W29079  13.521  35.200   5.098
60862W        W29080  14.666  15.367  10.990
60863W        W29081  24.997   1.420   2.590
60864W        W29082  36.510  23.476   3.762
60865W        W29083   6.652  14.931  14.786
60866W        W29084  42.796  21.813  11.806
60867W        W29085  23.346  28.877  10.696
60868W        W29086  29.575  35.581   1.669
60869W        W29087   2.710  12.598   1.210
60870W        W29088   3.874   1.265  12.632
60871W        W29089  13.766  24.193   0.825
60872W        W29090  28.089  42.952  11.595
60873W        W29091  35.958  27.458   0.994
60874W        W29092  17.750  28.516  12.867
60875W        W29093  10.579   0.780  11.480
60876W        W29094  15.879  27.493   3.333
60877W        W29095  12.795   5.142   1.395
60878W        W29096  27.288  18.799  11.588
60879W        W29097  27.596  20.075   2.806
60880W        W29098  23.975  18.087  10.363
60881W        W29099  31.653  16.069   4.103
60882W        W29100   7.877  32.961  10.893
60883W        W29101   7.152  41.562   2.272
60884W        W29102  44.691  19.045   1.240
60885W        W29103  21.482  13.620   3.255
60886W        W29104   0.530  24.412   3.723
60887W        W29105  17.729  33.855  13.145
60888W        W29106  25.961  42.832  13.868
60889W        W29107  39.364  14.090  11.966
60890W        W29108  10.413   8.673   4.459
60891W        W29109  36.498  27.154  12.971
60892W        W29110  14.369  26.967   4.603
60893W        W29111  40.914  18.587  14.785
60894W        W29112   5.168   8.798   5.005
60895W        W29113  31.160  14.172   0.965
60896W        W29114  11.219   5.961  12.970
60897W        W29115  13.655  37.920  14.549
60898W        W29116  16.321  33.180   1.305
60899W        W29117  36.423  13.762  10.751
60900W        W29118  11.951   9.299   1.180
60901W        W29119   9.977  23.602  12.113
60902W        W29120  14.060  31.049  14.775
60903W        W29121  40.126  44.900  11.270
60904W        W29122  33.456  13.128  11.786
60905W        W29123  25.751  10.141   4.116
60906W        W29124  32.759   5.397   4.344
60907W        W29125  36.412  19.663   1.328
60908W        W29126  26.746  38.501  13.495
60909W        W29127  37.224   4.258  14.037
60910W        W29128  43.743   8.780   4.964
60911W        W29129  34.743  15.368   1.253
60912W        W29130  32.121   9.726   4.838
60913W        W29131  14.824  18.089   3.189
60914W        W29132  42.163  20.795  13.300
60915W        W29133  41.491   5.919  14.793
60916W        W29134  18.697  44.069  11.540
60917W        W29135  36.167   9.725  13.292
60918W        W29136  24.187  43.389   4.469
60919W        W29137   1.282  23.501   3.888
60920W        W29138  23.950  25.572   4.702
60921W        W29139  36.108  38.575   2.635
60922W        W29140   9.779  37.318  14.421
60923W        W29141  21.062   5.727  14.458
60924W        W29142  32.041   1.855   0.507
60925W        W29143  40.882  25.257   4.633
60926W        W29144  35.348  11.852  12.468
60927W        W29145   7.252  24.875   0.439
60928W        W29146  26.088   3.394   2.390
60929W        W29147  14.292  32.503   1.256
60930W        W29148  37.783   5.314   1.755
60931W        W29149  25.553  36.553   1.294
60932W        W29150  24.485  15.291  14.941
60933W        W29151  20.594   2.947  12.112
60934W        W29152   6.552   2.190  14.571
60935W        W29153  14.183  26.243  11.665
60936W        W29154  14.529  34.426   3.673
60937W        W29155  32.159  40.507   2.741
60938W        W29156   8.722  22.059  13.920
60939W        W29157   0.767  36.587  10.848
60940W        W29158  16.787  14.160   3.786
60941W        W29159  11.785   4.322   3.163
60942W        W29160  13.648  41.456   3.516
60943W        W29161   4.977  15.135  11.084
60944W        W29162  10.337  38.584   2.781
60945W        W29163  11.854   8.373  14.759
60946W        W29164  40.074  20.213   4.504
60947W        W29165  26.368  14.861  10.642
60948W        W29166  32.089  11.349   2.765
60949W        W29167  17.192   2.284   4.946
60950W        W29168  27.983  30.120   2.806
60951W        W29169  42.039  15.981   3.977
60952W        W29170  32.923  39.931  11.915
60953W        W29171  44.026   4.996   3.711
60954W        W29172  18.552  10.734  13.377
60955W        W29173  31.612  26.687  11.234
60956W        W29174   0.509  38.452  12.849
60957W        W29175  32.834  24.566   4.033
60958W        W29176  35.399  39.874  14.770
60959W        W29177  43.372  33.827   1.494
60960W        W29178  23.598  27.162   1.533
60961W        W29179  13.040  44.846  11.156
60962W        W29180  24.112  35.514   9.848
60963W        W29181   3.394  32.311  10.256
60964W        W29182  43.009  14.297   0.789
60965W        W29183  32.710  25.661  10.419
60966W        W29184   6.915  31.228  11.750
60967W        W29185  41.390  18.076   0.942
60968W        W29186  19.025  13.391   1.712
60969W        W29187  27.639  44.225   2.639
60970W        W29188  27.493  33.600   3.643
60971W        W29189  13.750  21.781  14.073
60972W        W29190  43.290  31.191  12.118
60973W        W29191  34.619   5.044   3.140
60974W        W29192  39.770  37.418  10.555
60975W        W29193   9.190  40.319  12.096
60976W        W29194   9.855  15.813   0.953
60977W        W29195  42.807   4.337  13.443
60978W        W29196   0.934  19.506   0.080
60979W        W29197  22.717   4.969   0.963
60980W        W29198   5.372  44.341  14.229
60981W        W29199  35.481  39.097   3.856
60982W        W29200  26.466  18.049   4.765
60983W        W29201  41.558  40.781   3.198
60984W        W29202   3.158  29.234   0.640
60985W        W29203  10.733   6.142   4.621
60986W        W29204  34.644  37.075   1.483
60987W        W29205  42.952   6.425   1.335
60988W        W29206  28.020  36.887  14.592
60989W        W29207  44.681   4.755   0.437
60990W        W29208   8.273  22.797   2.903
60991W        W29209  26.064   2.265   4.893
60992W        W29210  19.368  32.322   5.075
60993W        W29211  40.993  32.859   3.135
60994W        W29212  24.993   9.707   4.119
60995W        W29213  20.664  30.969   3.009
60996W        W29214  44.893  22.522   3.840
60997W        W29215  17.569  17.238   2.242
60998W        W29216  28.050   0.259   0.664
60999W        W29217  33.198  41.436   2.302
61000W        W29218  31.510   0.497   3.795
61001W        W29219  11.151  12.639   2.474
61002W        W29220  24.316  19.199  10.631
61003W        W29221   8.640  23.597  12.972
61004W        W29222  27.066  29.848   1.953
61005W        W29223  25.230  30.556  13.755
61006W        W29224   6.991  27.253   0.221
61007W        W29225  25.654  27.039   3.285
61008W        W29226   3.892   4.996  14.921
61009W        W29227  12.372  20.610  10.516
61010W        W29228  18.883  22.025   2.334
61011W        W29229  39.246  22.581   4.723
61012W        W29230  27.747  28.631  12.110
61013W        W29231   3.281  20.255  12.597
61014W        W29232  44.398   3.728  11.527
61015W        W29233   7.963  21.017  12.852
61016W        W29234  22.209  19.169   3.219
61017W        W29235   9.745   5.536  11.641
61018W        W29236  33.079   3.001   1.698
61019W        W29237  22.008  23.490   2.303
61020W        W29238  21.050   9.107   2.837
61021W        W29239   4.767  16.229   4.183
61022W        W29240  27.158  10.929  14.864
61023W        W29241  26.829  37.597  14.171
61024W        W29242  14.035  15.756   4.181
61025W        W29243  39.460  15.121   3.638
61026W        W29244  44.980   2.653   2.415
61027W        W29245   3.782   9.212  12.388
61028W        W29246  13.702   2.620  12.362
61029W        W29247  25.716  41.374   4.346
61030W        W29248  42.041  17.054  11.289
61031W        W29249  35.877  20.007   3.700
61032W        W29250  29.414   4.199  12.477
61033W        W29251  14.562   0.925   1.818
61034W        W29252  31.899  10.740  10.748
61035W        W29253  27.353  37.405   2.470
61036W        W29254   8.830  42.523  12.114
61037W        W29255  16.146   5.937   1.301
61038W        W29256  17.976  21.109  11.159
61039W        W29257  32.496  38.769   1.010
61040W        W29258  36.912  31.454   4.484
61041W        W29259  21.130  40.567  14.456
61042W        W29260  31.475   2.507   4.142
61043W        W29261   7.835  20.758   2.515
61044W        W29262  39.009  29.433  13.865
61045W        W29263   9.952  36.070  10.148
61046W        W29264  28.945  28.860   3.183
61047W        W29265   4.894   3.391   3.249
61048W        W29266  12.127  11.074   0.783
61049W        W29267  21.824  25.320  14.827
61050W        W29268  11.616   5.825  12.063
61051W        W29269  36.668  32.941  14.352
61052W        W29270   3.623   9.318  11.025
61053W        W29271   9.362  27.932  12.849
61054W        W29272  32.287  44.740  10.616
61055W        W29273  36.751   9.435   1.914
61056W        W29274  12.995  30.977   1.711
61057W        W29275  34.156   2.923   4.746
61058W        W29276  43.277  10.744  10.981
61059W        W29277  42.957  27.345  12.495
61060W        W29278  27.527  17.059   4.148
61061W        W29279  15.979  43.020  12.480
61062W        W29280  18.092   9.267   2.339
61063W        W29281  22.035  11.702  10.785
61064W        W29282  36.502  38.440  14.486
61065W        W29283   7.201  35.977   4.610
61066W        W29284  31.617   3.846  12.188
61067W        W29285   3.757  43.228  13.378
61068W        W29286  19.144  33.061   4.992
61069W        W29287  22.508  12.652   2.906
61070W        W29288  32.649  11.596  13.868
61071W        W29289  33.399  24.243   4.207
61072W        W29290  40.389  24.042   0.314
61073W        W29291  18.951  40.474   4.517
61074W        W29292   6.246  44.486  10.508
61075W        W29293  24.135  38.038  10.843
61076W        W29294  12.061   0.975   1.804
61077W        W29295   5.391  25.260   0.428
61078W        W29296  25.670  39.611   0.404
61079W        W29297  36.979  26.791   2.709
61080W        W29298  42.174  37.356   1.321
61081W        W29299  18.882  12.446  10.546
61082W        W29300  39.381  24.008   4.626
61083W        W29301  20.335  10.310   1.821
61084W        W29302  34.740   7.392  11.925
61085W        W29303  11.726   8.831  12.466
61086W        W29304   0.558  30.474  14.017
61087W        W29305  34.126  19.177   1.396
61088W        W29306  20.735   5.374  10.878
61089W        W29307  30.554   1.485  12.991
61090W        W29308  22.257   8.015  13.392
61091W        W29309  32.848  37.014  13.099
61092W        W29310  33.885  11.090  13.174
61093W        W29311  17.292   5.570   4.088
61094W        W29312  32.002  31.963  13.985
61095W        W29313  29.931  16.504   4.717
61096W        W29314  18.678   7.369   4.538
61097W        W29315  13.868   9.620   0.159
61098W        W29316  24.148  25.546   0.271
61099W        W29317  40.876  29.963  12.558
61100W        W29318  14.118  28.450   3.807
61101W        W29319   9.961  35.665  10.726
61102W        W29320   8.762  34.459  14.838
61103W        W29321  30.643   5.240  14.527
61104W        W29322  26.125  35.558   1.956
61105W        W29323  10.565  25.296   4.217
61106W        W29324  23.127  39.850   4.007
61107W        W29325  21.622   4.402   4.652
61108W        W29326   9.295  26.887  14.762
61109W        W29327  37.866  30.631   1.430
61110W        W29328  33.023  32.977   0.354
61111W        W29329  14.104  13.581   4.542
61112W        W29330  35.444  23.751  13.365
61113W        W29331  13.306   9.888  13.516
61114W        W29332  35.635  10.760   3.163
61115W        W29333  33.084  34.321   0.244
61116W        W29334  14.295  32.461  10.913
61117W        W29335  15.415  25.869   4.711
61118W        W29336  40.329   1.174  12.559
61119W        W29337  39.361  15.816   0.021
61120W        W29338  37.672  18.035  11.349
61121W        W29339  27.658  17.902   0.855
61122W        W29340  31.932  22.650   3.084
61123W        W29341  27.866   2.404  13.363
61124W        W29342  32.331  22.515  14.832
61125W        W29343  37.315   8.747  12.485
61126W        W29344  28.089   2.716   3.119
61127W        W29345  24.141   7.015   2.546
61128W        W29346  26.994  20.026  12.821
61129W        W29347  30.951  27.062   2.369
61130W        W29348   5.755   4.562   2.444
61131W        W29349  38.519  36.004   4.297
61132W        W29350  25.814  24.063   4.237
61133W        W29351  19.640   7.268  11.099
61134W        W29352  12.191  28.422  12.977
61135W        W29353  37.505  23.678   3.775
61136W        W29354  34.027   5.259  10.149
61137W        W29355   1.412  22.448   0.459
61138W        W29356   6.207  28.920  13.427
61139W        W29357   5.980  37.940  12.452
61140W        W29358  29.883  16.271  13.864
61141W        W29359   9.869  40.944  11.509
61142W        W29360  11.803   6.315  12.002
61143W        W29361  21.699  26.433   3.585
61144W        W29362  23.756  10.429   0.448
61145W        W29363  42.039  17.155   5.105
61146W        W29364   0.875   4.474   1.379
61147W        W29365  29.917  38.072   1.512
61148W        W29366  37.903  17.596  11.541
61149W        W29367  41.540  27.210  10.741
61150W        W29368   0.809  16.366   0.869
61151W        W29369  35.935  37.497  14.331
61152W        W29370  11.319  32.044   4.540
61153W        W29371   5.279  15.800   1.432
61154W        W29372  27.106   3.913  13.603
61155W        W29373  17.310   9.301   4.526
61156W        W29374  26.152  35.843  14.252
61157W        W29375  15.130  30.647  12.382
61158W        W29376   0.757  31.545  10.726
61159W        W29377  12.740   5.854   2.122
61160W        W29378  18.692  25.653   4.035
61161W        W29379  13.979  39.292  10.545
61162W        W29380  42.229  17.685   4.631
61163W        W29381  10.699   2.649   0.301
61164W        W29382  19.665  17.533  13.870
61165W        W29383  18.794  26.870   1.386
61166W        W29384  13.186  39.772   4.188
61167W        W29385  35.106  23.755  14.468
61168W        W29386  39.174  22.755  14.274
61169W        W29387   9.204  43.828  10.420
61170W        W29388   8.713  41.264  13.967
61171W        W29389  22.544  43.013  13.742
61172W        W29390  35.003  12.867   1.440
61173W        W29391  21.874  41.574   2.286
61174W        W29392  24.618  40.470   3.933
61175W        W29393  12.418  40.522   2.265
61176W        W29394  19.572  40.378   1.745
61177W        W29395  14.493   1.826   3.278
61178W        W29396  29.961  39.864   4.832
61179W        W29397  28.027  23.557   0.750
61180W        W29398  13.665  11.877  12.971
61181W        W29399   0.758  34.865   3.266
61182W        W29400  30.554   1.335   1.863
61183W        W29401   9.825  20.379   4.119
61184W        W29402   3.967  41.380  14.514
61185W        W29403   2.925  26.119   1.852
61186W        W29404  26.800   2.911  12.916
61187W        W29405  28.990  39.039  11.915
61188W        W29406  39.784   4.355   4.898
61189W        W29407  21.576   5.444   0.614
61190W        W29408  20.705   4.028   4.271
61191W        W29409   0.271   1.991   1.785
61192W        W29410  35.755   7.628   1.883
61193W        W29411  27.571  43.505  13.979
61194W        W29412  18.642  33.487   2.851
61195W        W29413  35.606  26.672  13.988
61196W        W29414  13.732  26.751   2.659
61197W        W29415  23.551  40.862   2.278
61198W        W29416  13.165  36.463  10.722
61199W        W29417   8.139  13.541  14.761
61200W        W29418  18.712  44.749   3.649
61201W        W29419  30.181  44.832   0.063
61202W        W29420  21.165   6.398  11.676
61203W        W29421  42.990  24.609   2.812
61204W        W29422   0.697  35.371   0.980
61205W        W29423  37.892  21.471   2.273
61206W        W29424  16.720  28.464   2.942
61207W        W29425  10.275  12.719   1.503
61208W        W29426  10.778  13.590  14.328
61209W        W29427  10.226  20.369   3.627
61210W        W29428  30.581   5.444   3.222
61211W        W29429  20.358  43.037   2.681
61212W        W29430  13.602  23.472   4.733
61213W        W29431  31.660  14.232  10.340
61214W        W29432  38.281  11.238   3.215
61215W        W29433   8.172  37.888   0.791
61216W        W29434  33.152  32.091  13.469
61217W        W29435   7.369  35.606  10.736
61218W        W29436  10.714  14.493   5.014
61219W        W29437   8.413  27.388   2.287
61220W        W29438  42.719  13.232  11.994
61221W        W29439   2.334  25.420   0.340
61222W        W29440  24.136   8.318   3.349
61223W        W29441  25.183  39.374   1.891
61224W        W29442   2.185  13.016  12.096
61225W        W29443  32.532   5.188   5.263
61226W        W29444  39.577   3.453  13.531
61227W        W29445  29.387  31.768   0.523
61228W        W29446   0.746  19.724  11.997
61229W        W29447  18.974  20.138  12.076
61230W        W29448  37.550  18.484   0.744
61231W        W29449  21.054  26.157  11.476
61232W        W29450  31.561  15.779   2.446
61233W        W29451   4.812   0.290  12.632
61234W        W29452   7.925  29.166   2.205
61235W        W29453  34.332   5.377   3.400
61236W        W29454  39.334   5.898  12.459
61237W        W29455  38.874  33.705   0.928
61238W        W29456  24.481   6.229  10.403
61239W        W29457  44.622  10.953  12.642
61240W        W29458   0.282  16.146   0.878
61241W        W29459  29.200   8.811  11.563
61242W        W29460  12.779  11.126  12.507
61243W        W29461   8.988   9.990   1.262
61244W        W29462  28.094   4.892   2.252
61245W        W29463   5.684  20.563  11.586
61246W        W29464   7.326  20.008  14.477
61247W        W29465   2.515   2.909   0.430
61248W        W29466  39.464  42.921   3.136
61249W        W29467  15.670  36.154   2.424
61250W        W29468  10.598   8.200   4.634
61251W        W29469  22.211  13.258  14.424
61252W        W29470   0.435  42.718   4.103
61253W        W29471  43.521  19.084   1.719
61254W        W29472  39.974   1.131  11.976
61255W        W29473   1.421  30.032   1.936
61256W        W29474   2.818  36.483   1.620
61257W        W29475  10.743   7.411  10.641
61258W        W29476  13.689   4.221  13.999
61259W        W29477  41.369   1.800  14.129
61260W        W29478  32.860   4.350   2.402
61261W        W29479  22.688  16.575   3.203
61262W        W29480   4.445  28.586   1.768
61263W        W29481  10.102   9.344  14.711
61264W        W29482   5.291  35.377   2.339
61265W        W29483  29.281  29.826  14.451
61266W        W29484  21.174  11.290  11.476
61267W        W29485  26.447  13.236  14.805
61268W        W29486  11.293   9.958   2.378
61269W        W29487   4.941   6.460  14.883
61270W        W29488  12.792  41.960  14.026
61271W        W29489  40.319  20.946   0.226
61272W        W29490   4.543  42.361  13.569
61273W        W29491   0.471  29.899  12.788
61274W        W29492  38.503  19.704  13.047
61275W        W29493   2.232  32.199  12.529
61276W        W29494  10.035   4.666   1.307
61277W        W29495  17.195  44.027  12.478
61278W        W29496  17.273  35.122  11.526
61279W        W29497   3.263  14.001  11.171
61280W        W29498   5.319   5.653   3.141
61281W        W29499  37.979  19.636  11.413
61282W        W29500  22.682  26.685  13.868
61283W        W29501  35.560  30.593   4.882
61284W        W29502  25.106   0.565  11.221
61285W        W29503   4.360   4.163  12.053
61286W        W29504  31.687   5.646   9.890
61287W        W29505  25.369   8.905   5.111
61288W        W29506   1.840  21.255  13.851
61289W        W29507  30.177   4.398  14.891
61290W        W29508  39.319  38.812   1.816
61291W        W29509  26.812  10.665   3.787
61292W        W29510   8.454  29.177   2.230
61293W        W29511  34.472  33.887   2.773
61294W        W29512  31.880  24.429  13.294
61295W        W29513  23.749   1.771   3.331
61296W        W29514  42.253   1.023   2.263
61297W        W29515  28.451  10.675   1.176
61298W        W29516  34.812   2.460  11.056
61299W        W29517  37.839  37.543   4.754
61300W        W29518  17.700  10.712  10.658
61301W        W29519  42.461  29.746   3.289
61302W        W29520   3.479  36.925   0.687
61303W        W29521  28.245  36.568  12.582
61304W        W29522  24.505  41.982   0.424
61305W        W29523  40.082  15.633  10.014
61306W        W29524  12.254  23.165   3.767
61307W        W29525  16.076   6.720   4.149
61308W        W29526   6.891   3.209  11.125
61309W        W29527   1.425  44.725   4.235
61310W        W29528   7.848  15.595   4.539
61311W        W29529  10.175  15.288   1.780
61312W        W29530  28.113  34.103  12.962
61313W        W29531  40.096   5.052  11.512
61314W        W29532  23.216  14.931  11.328
61315W        W29533  25.029   5.002  11.122
61316W        W29534   8.296  21.764  11.617
61317W        W29535   0.293   6.199  12.323
61318W        W29536  43.540  39.739   2.761
61319W        W29537   1.457   9.680   2.672
61320W        W29538  21.109  17.683  14.283
61321W        W29539  43.233  18.277  13.533
61322W        W29540  35.962   6.222   4.613
61323W        W29541  32.365  30.358  14.928
61324W        W29542  33.304   3.790  13.011
61325W        W29543  14.467  44.802   4.128
61326W        W29544  22.979  11.395  11.910
61327W        W29545   5.910  16.523   2.880
61328W        W29546   6.804  10.775   1.475
61329W        W29547   6.437   0.811  12.026
61330W        W29548  15.134  36.990  12.957
61331W        W29549  36.579  42.454   3.836
61332W        W29550  10.883   8.879  10.764
61333W        W29551  30.814  18.616   2.608
61334W        W29552  13.761  44.760   2.822
61335W        W29553   2.445   5.367  12.845
61336W        W29554  35.549  28.572  11.113
61337W        W29555  26.152  22.981   3.873
61338W        W29556  30.934   8.887   0.424
61339W        W29557  14.106   0.967  12.666
61340W        W29558  21.722  22.935   4.106
61341W        W29559   5.850   9.423  14.507
61342W        W29560  16.784   0.008   0.325
61343W        W29561  35.078  17.134   1.059
61344W        W29562  20.253  35.358  11.597
61345W        W29563   6.825  34.973  10.438
61346W        W29564  11.320  42.532  14.444
61347W        W29565  37.754  27.595  13.475
61348W        W29566  20.588  32.834  14.525
61349W        W29567  42.125  11.845  13.642
61350W        W29568  25.109  16.317  12.049
61351W        W29569   9.299  28.906  12.065
61352W        W29570   1.910  15.262   1.782
61353W        W29571   2.326  21.074  14.773
61354W        W29572  20.018  27.166  14.016
61355W        W29573  14.860  20.257   4.168
61356W        W29574   6.950  11.186  14.538
61357W        W29575  21.178   0.262   3.083
61358W        W29576  13.675  10.743   3.518
61359W        W29577   6.893  40.311   0.312
61360W        W29578  26.326  37.329  14.264
61361W        W29579   6.304  41.916   1.997
61362W        W29580   6.301  11.754  12.992
61363W        W29581   1.982  11.865   4.584
61364W        W29582  23.261   7.573   4.208
61365W        W29583  22.889  14.925   2.686
61366W        W29584   0.898  40.419   3.594
61367W        W29585   0.544  35.380   4.804
61368W        W29586  31.388   1.113  10.256
61369W        W29587  28.675  31.253  14.053
61370W        W29588   0.724  30.026   3.891
61371W        W29589  25.342   7.291  14.073
61372W        W29590  17.246  38.114  14.986
61373W        W29591  40.805  19.703  11.170
61374W        W29592  15.845  19.199  12.598
61375W        W29593  32.835  23.055   1.378
61376W        W29594   6.459  44.195   1.868
61377W        W29595  25.708   0.918   3.331
61378W        W29596  39.085   3.443  12.803
61379W        W29597  25.387   9.828  11.933
61380W        W29598  42.337   5.754   1.745
61381W        W29599  25.738  38.545  10.533
61382W        W29600  28.994  29.881   1.391
61383W        W29601  24.643  20.663   4.365
61384W        W29602  40.679  29.124  13.024
61385W        W29603   0.324  37.683  11.228
61386W        W29604  32.171  23.789   0.360
61387W        W29605   8.136  38.557  14.036
61388W        W29606  37.794   8.458   0.323
61389W        W29607  20.786  24.675   0.343
61390W        W29608  40.798   8.619  14.837
61391W        W29609  11.195  30.058   4.537
61392W        W29610  30.837  25.474  11.146
61393W        W29611  27.919  42.487   3.719
61394W        W29612  25.032  17.049   4.116
61395W        W29613   8.145  12.814  12.425
61396W        W29614  23.772  42.488   4.308
61397W        W29615   1.903  36.003   4.682
61398W        W29616  20.186   8.421   5.296
61399W        W29617  17.872  23.456  13.582
61400W        W29618  11.257  17.075  14.394
61401W        W29619  29.071  44.736   0.466
61402W        W29620  38.224  33.392  10.246
61403W        W29621  10.546  10.306  11.124
61404W        W29622  39.040  24.501  14.552
61405W        W29623   8.726   8.457  11.178
61406W        W29624  10.581  30.666  11.565
61407W        W29625  35.828   0.303  14.425
61408W        W29626  30.282  40.890   2.832
61409W        W29627  41.051  15.121   4.089
61410W        W29628  15.220  43.803  14.967
61411W        W29629  34.927  10.321   0.400
61412W        W29630   3.853  40.907  14.364
61413W        W29631   6.307  41.992  12.750
61414W        W29632  23.002  33.897   2.416
61415W        W29633  27.580  11.276  10.712
61416W        W29634  21.256  18.694  12.850
61417W        W29635  13.756   8.680   1.397
61418W        W29636  15.317  40.485   4.094
61419W        W29637  18.144  39.568  14.519
61420W        W29638  21.831  35.098   2.842
61421W        W29639  39.507  37.846  14.890
61422W        W29640  11.609   1.555   9.947
61423W        W29641  41.295  14.756  12.159
61424W        W29642  20.083   3.494  12.432
61425W        W29643  19.219  22.215  11.552
61426W        W29644  14.141  26.769  11.673
61427W        W29645  26.178  17.833  10.028
61428W        W29646  14.892  26.138  13.150
61429W        W29647  27.453  25.740   3.896
61430W        W29648  10.515  27.841  11.604
61431W        W29649  26.094  25.202   2.965
61432W        W29650   4.549  14.019  14.271
61433W        W29651  18.276   3.345   0.004
61434W        W29652  42.521   2.788  11.985
61435W        W29653   0.139  14.182  12.072
61436W        W29654  36.879  26.465   3.343
61437W        W29655   4.966  39.471  14.064
61438W        W29656  33.044  10.335  13.912
61439W        W29657   8.445  35.449  11.519
61440W        W29658  21.298  34.126   1.712
61441W        W29659  37.312  33.888   1.708
61442W        W29660   5.406  28.243   9.883
61443W        W29661  44.383  29.196   4.188
61444W        W29662  21.671  23.023  14.732
61445W        W29663  14.849   6.674  13.582
61446W        W29664  38.627  24.645  11.223
61447W        W29665  26.926  43.942   2.846
61448W        W29666  11.401  37.045   3.569
61449W        W29667  27.212   0.049   0.496
61450W        W29668  41.016  28.676  13.887
61451W        W29669  20.283  34.660   1.439
61452W        W29670  16.639  20.170  10.492
61453W        W29671   3.496  11.166   3.136
61454W        W29672   9.748  15.298  13.426
61455W        W29673  44.837  29.021   4.398
61456W        W29674  12.067  30.451  11.102
61457W        W29675  21.689   2.227   1.791
61458W        W29676  28.877  41.979   1.303
61459W        W29677   1.049  26.589  12.555
61460W        W29678  39.466   0.776   0.716
61461W        W29679  22.315  30.570  14.497
61462W        W29680  44.287   3.357   2.341
61463W        W29681  10.124   7.347  13.828
61464W        W29682  26.775  18.298  13.938
61465W        W29683  32.582   9.538   3.531
61466W        W29684  34.945   0.995   2.851
61467W        W29685  16.401   9.824  14.797
61468W        W29686  40.530  33.755  11.800
61469W        W29687  35.113  36.105  11.398
61470W        W29688   5.973   1.459   3.118
61471W        W29689  24.226  31.426  13.148
61472W        W29690   7.807  19.546   0.188
61473W        W29691  41.321  22.079   0.311
61474W        W29692  26.960   6.646  12.471
61475W        W29693  16.302  11.067  10.161
61476W        W29694  36.365   1.648   3.056
61477W        W29695  28.441  22.767  11.432
61478W        W29696  18.029   7.951   2.130
61479W        W29697  36.892  39.366  14.430
61480W        W29698  30.208  26.650  14.565
61481W        W29699   3.714   8.603   2.896
61482W        W29700   3.135  28.971  12.624
61483W        W29701  12.262  33.469  12.822
61484W        W29702  17.880  11.514  14.547
61485W        W29703  16.224   7.123   2.476
61486W        W29704   7.949  34.453   3.140
61487W        W29705   5.740  31.416   3.710
61488W        W29706   5.053  14.215   0.881
61489W        W29707  38.331  11.026   1.770
61490W        W29708  26.182  32.917   1.130
61491W        W29709  18.097  41.697  12.518
61492W        W29710  15.538  19.882   3.658
61493W        W29711  38.717  38.452  12.062
61494W        W29712  31.216  34.844   2.788
61495W        W29713  32.930  31.412   4.539
61496W        W29714  24.640  16.584  12.195
61497W        W29715  10.890  27.617  12.068
61498W        W29716  23.953  27.090   4.552
61499W        W29717  10.198  20.342   1.815
61500W        W29718  12.253  13.092  13.825
61501W        W29719   9.305  25.137   1.478
61502W        W29720  16.667  22.454  13.886
61503W        W29721  20.717  21.733   3.548
61504W        W29722  36.436   6.428  13.029
61505W        W29723  12.342  10.123   3.027
61506W        W29724  16.348   2.237   0.456
61507W        W29725  41.921   3.910   5.257
61508W        W29726  20.035   4.854   4.496
61509W        W29727  15.524  10.978  11.712
61510W        W29728  35.059  42.497   4.878
61511W        W29729  10.242  16.808   2.727
61512W        W29730  32.406  36.420  11.990
61513W        W29731  13.812   7.243  12.958
61514W        W29732   4.289  28.514   2.665
61515W        W29733  21.987  21.426  10.527
61516W        W29734   0.305  16.769   3.598
61517W        W29735  26.603  20.638   4.892
61518W        W29736  24.530   7.188   0.615
61519W        W29737   6.438  42.912   3.637
61520W        W29738  11.494  33.041  12.414
61521W        W29739   4.914  11.593  12.527
61522W        W29740  41.012  20.691   0.508
61523W        W29741  20.829   3.164   2.777
61524W        W29742  34.547  28.562   1.609
61525W        W29743  14.806  35.485  12.943
61526W        W29744   9.253   9.697  11.646
61527W        W29745  33.459  16.817  11.756
61528W        W29746  32.563   2.827  11.665
61529W        W29747  19.416  32.657   1.314
61530W        W29748  19.694   9.172  12.441
61531W        W29749   1.469  27.921   4.908
61532W        W29750  17.403  35.448   1.719
61533W        W29751  22.160   3.304   0.299
61534W        W29752   5.944  34.273  14.311
61535W        W29753  31.159  36.640   0.754
61536W        W29754   4.232   7.284   2.302
61537W        W29755  36.092  13.017   3.822
61538W        W29756  42.615  23.554  11.429
61539W        W29757  37.248   7.422  11.282
61540W        W29758   2.723  27.874  12.144
61541W        W29759  31.329  42.962  11.253
61542W        W29760  36.261  27.738   1.789
61543W        W29761  33.593   0.037  11.617
61544W        W29762  39.439  37.124   3.759
61545W        W29763  41.292  39.305   4.287
61546W        W29764  27.143   2.352   3.222
61547W        W29765  11.688   0.183   0.842
61548W        W29766   2.705  21.857   0.810
61549W        W29767  31.419  30.382  10.634
61550W        W29768  10.859  19.075  12.252
61551W        W29769   7.530  32.497   3.545
61552W        W29770  30.090  33.984  12.523
61553W        W29771  20.470  27.649  14.800
61554W        W29772  17.141   5.924  11.991
61555W        W29773  28.994  35.097  14.446
61556W        W29774  25.715  39.211   0.031
61557W        W29775  19.121   8.773   0.836
61558W        W29776   7.714   0.799  11.569
61559W        W29777  15.632  30.844   4.731
61560W        W29778  39.972  39.808  11.413
61561W        W29779  44.044  35.088   4.736
61562W        W29780  39.550  33.622  12.997
61563W        W29781  27.580   7.212   2.152
61564W        W29782  33.107   8.020  14.340
61565W        W29783  11.441   0.919  10.776
61566W        W29784  30.617  36.940   3.136
61567W        W29785  28.101   3.497   4.069
61568W        W29786   8.395  40.027  12.806
61569W        W29787  44.947  19.163  11.697
61570W        W29788  30.472  13.081   1.950
61571W        W29789  43.196  41.182   1.743
61572W        W29790  42.834  21.450   2.652
61573W        W29791  19.280  27.114   1.075
61574W        W29792  23.332  26.700   2.604
61575W        W29793  35.262  27.164   4.207
61576W        W29794   7.783   6.567   1.838
61577W        W29795  22.618  30.937  13.752
61578W        W29796  14.083  11.589  11.607
61579W        W29797  43.172  24.442   0.224
61580W        W29798  36.367  17.119  10.696
61581W        W29799  12.892  23.481  12.411
61582W        W29800  11.132   7.210  14.392
61583W        W29801  29.542  11.747   3.143
61584W        W29802  37.883   6.007   0.041
61585W        W29803   4.144   0.675   2.206
61586W        W29804   2.023  12.544   3.228
61587W        W29805  14.098  21.067  14.057
61588W        W29806  31.676   6.834  12.003
61589W        W29807   3.229  23.937  13.876
61590W        W29808  27.211  44.702  13.596
61591W        W29809  42.322  39.672  12.520
61592W        W29810  38.976  37.140  10.626
61593W        W29811  19.066   3.772   2.880
61594W        W29812  28.142  21.605   4.271
61595W        W29813  31.533   8.747   0.720
61596W        W29814   6.681  29.639   0.745
61597W        W29815  34.398  16.284  10.542
61598W        W29816  42.057  34.446   1.622
61599W        W29817  31.075   3.902   0.005
61600W        W29818  42.619   5.727  12.444
61601W        W29819  28.672  23.264  12.469
61602W        W29820  35.821  29.099  11.477
61603W        W29821  12.728  11.110   1.350
61604W        W29822  41.078  17.549   1.912
61605W        W29823  44.448  18.079  13.037
61606W        W29824  11.576   4.104   0.884
61607W        W29825  38.819   7.455   0.973
61608W        W29826   7.077   0.355  14.210
61609W        W29827  15.071  32.522   1.798
61610W        W29828   4.327  36.927   0.703
61611W        W29829  33.680  34.540  13.883
61612W        W29830  43.821  16.355   2.906
61613W        W29831  40.919  25.534  14.515
61614W        W29832  27.628  29.461  13.456
61615W        W29833  34.322  35.513   1.718
61616W        W29834  20.158   8.200   0.204
61617W        W29835  16.502  11.166  11.508
61618W        W29836  10.638  29.721  11.395
61619W        W29837  15.991   9.099   1.771
61620W        W29838   4.203  18.093   2.165
61621W        W29839  41.883  41.427  12.792
61622W        W29840  43.401  36.246  10.333
61623W        W29841  15.141  38.811  13.060
61624W        W29842  14.226  42.292   2.852
61625W        W29843  36.113  21.274  12.447
61626W        W29844  42.008  31.062  13.511
61627W        W29845  37.073   9.708  10.992
61628W        W29846   3.799  13.889   3.810
61629W        W29847  19.072  42.936  13.347
61630W        W29848  15.846  29.073  11.117
61631W        W29849  25.674   6.913  13.969
61632W        W29850  17.682  23.171   3.695
61633W        W29851  21.562  33.531   0.241
61634W        W29852  14.707   8.754  11.264
61635W        W29853  35.480  39.680  11.606
61636W        W29854   9.531  17.618  11.687
61637W        W29855  25.971  40.856  13.848
61638W        W29856  34.633   8.409   0.827
61639W        W29857  20.547   3.923   2.306
61640W        W29858  10.141  18.324   0.845
61641W        W29859  27.041  11.150  14.391
61642W        W29860  26.671  27.621  11.087
61643W        W29861   7.287   6.979  14.233
61644W        W29862   4.563  29.166  10.332
61645W        W29863   5.804  26.525  11.090
61646W        W29864  29.285  18.324  14.495
61647W        W29865  12.368  22.680   2.920
61648W        W29866  18.156  12.105   2.097
61649W        W29867  19.778  23.295  12.885
61650W        W29868  19.693  10.654   0.906
61651W        W29869  38.561  40.331  14.400
61652W        W29870  24.045  21.491   0.235
61653W        W29871  19.723  12.618   4.138
61654W        W29872  21.482   7.695  12.115
61655W        W29873   5.200  44.925  11.408
61656W        W29874  18.423  23.059   0.481
61657W        W29875  19.962   8.387   3.205
61658W        W29876   0.088   6.598  11.046
61659W        W29877   4.990  25.722  11.661
61660W        W29878   6.879  25.393  13.382
61661W        W29879  31.199  42.510  14.283
61662W        W29880   8.803  18.200  12.577
61663W        W29881  29.598  10.015  14.734
61664W        W29882  42.976  20.960   4.039
61665W        W29883  27.635  17.116   2.336
61666W        W29884  15.369   2.986   0.694
61667W        W29885  26.334   6.750  13.300
61668W        W29886  29.325  13.689   3.573
61669W        W29887  42.665  18.549   0.878
61670W        W29888   5.406  14.844   3.175
61671W        W29889  34.941  27.437  13.340
61672W        W29890   4.225  44.965   3.726
61673W        W29891   5.746  29.829   0.671
61674W        W29892  34.000  17.513  11.386
61675W        W29893  37.360  40.060   4.896
61676W        W29894   9.347   7.686  11.260
61677W        W29895  20.585  15.873   1.305
61678W        W29896  25.187  32.091   1.988
61679W        W29897   7.187   1.766   0.929
61680W        W29898  26.123  10.144   1.561
61681W        W29899   8.602  27.256  13.404
61682W        W29900  11.789  17.756  11.513
61683W        W29901   2.371  44.672  12.045
61684W        W29902  39.621  42.521  12.324
61685W        W29903   3.854  18.632   0.519
61686W        W29904  40.971  16.319   0.830
61687W        W29905  17.717  12.095   9.674
61688W        W29906  15.009  14.406   2.775
61689W        W29907  26.156  27.464  11.948
61690W        W29908  40.953   1.490   0.972
61691W        W29909  28.640  22.130   0.799
61692W        W29910  38.004   8.810   0.669
61693W        W29911  37.888  13.091   4.530
61694W        W29912  34.597  41.308  11.051
61695W        W29913  28.653  28.037   3.890
61696W        W29914  32.796   8.922   2.228
61697W        W29915  44.082   0.026   2.231
61698W        W29916  29.354  40.547  13.380
61699W        W29917   8.036  34.119   3.773
61700W        W29918  38.286   2.716  11.654
61701W        W29919  13.948  16.851   4.133
61702W        W29920  26.693  39.755   4.214
61703W        W29921  42.993  13.288  10.632
61704W        W29922  25.562   7.470  14.868
61705W        W29923  29.388  44.334   3.817
61706W        W29924  22.088  36.821   1.271
61707W        W29925  17.286  22.711  10.297
61708W        W29926  34.152  37.634   3.157
61709W        W29927  14.581  20.139   0.951
61710W        W29928  44.524   1.956   3.221
61711W        W29929   6.620  33.533   4.557
61712W        W29930  20.553  32.701   3.357
61713W        W29931  17.182   9.146  10.887
61714W        W29932  35.632  14.178  11.175
61715W        W29933  35.346  10.864   2.351
61716W        W29934   8.990  17.646   1.313
61717W        W29935  18.952  16.821  10.104
61718W        W29936  40.426   5.322   4.419
61719W        W29937   0.977  19.921  11.559
61720W        W29938   6.675   1.162  11.236
61721W        W29939  32.786  30.460   3.510
61722W        W29940  24.193   6.209  11.681
61723W        W29941  23.549  33.846  10.664
61724W        W29942  41.672   8.372  12.473
61725W        W29943  41.057  33.132  14.470
61726W        W29944  16.622  23.777  13.536
61727W        W29945  15.236   8.444  14.041
61728W        W29946  39.516   8.821  10.717
61729W        W29947  19.126   6.232  13.790
61730W        W29948  31.966  24.774   4.990
61731W        W29949  35.976  10.179  11.150
61732W        W29950  23.576  14.989  14.429
61733W        W29951  24.197  19.297  12.149
61734W        W29952  38.610  28.587  11.177
61735W        W29953  15.197  37.427   1.765
61736W        W29954   9.385  11.794  13.112
61737W        W29955  23.411  39.925  14.185
61738W        W29956  34.027  38.802   3.025
61739W        W29957  44.226  39.896  13.908
61740W        W29958  28.215  22.835   1.777
61741W        W29959  41.916   3.434  12.240
61742W        W29960  38.126  22.953   2.261
61743W        W29961  37.524  27.168  11.078
61744W        W29962   0.920  20.303   4.645
61745W        W29963  36.878  21.560  13.960
61746W        W29964  28.178  19.206   0.800
61747W        W29965  31.580   6.187   5.550
61748W        W29966  35.125  15.119   2.675
61749W        W29967   1.987   1.938   4.196
61750W        W29968   7.119  13.240  13.267
61751W        W29969   4.674  13.278  10.439
61752W        W29970  33.943   9.659  14.777
61753W        W29971  32.368  38.980  13.419
61754W        W29972   3.123  18.114  12.004
61755W        W29973   7.818  21.534   2.453
61756W        W29974  16.308  15.851  11.378
61757W        W29975  34.647  26.506  11.399
61758W        W29976   0.340  17.216  12.544
61759W        W29977  43.584  30.971  12.472
61760W        W29978   6.760  17.050   3.755
61761W        W29979   0.262   2.758  14.376
61762W        W29980  36.242   2.006   2.676
61763W        W29981  30.191  35.058   2.757
61764W        W29982  25.478   6.988   0.800
61765W        W29983  38.428  31.698  12.885
61766W        W29984  44.989   4.926   1.795
61767W        W29985  39.078  33.402  12.990
61768W        W29986  29.755  17.327   0.440
61769W        W29987  27.835  10.349  13.416
61770W        W29988  30.947  19.975   1.664
61771W        W29989  44.483   5.223  13.948
61772W        W29990   3.992  24.113  12.574
61773W        W29991   4.653  28.182   2.432
61774W        W29992   9.531   0.258  12.528
61775W        W29993  38.970  30.241  10.584
61776W        W29994  42.881   8.659   4.831
61777W        W29995  30.573  19.272  12.521
61778W        W29996  32.692  27.967  12.462
61779W        W29997  16.117  31.188   0.180
61780W        W29998   2.054  10.413   4.703
61781W        W29999  37.329  17.689  14.788
61782W        W30000  27.565  37.317  10.195
61783W        W30001  38.986  31.870   2.274
61784W        W30002  24.793  15.229   2.696
61785W        W30003   4.212  13.117   2.870
61786W        W30004  34.839  19.313   2.308
61787W        W30005  20.548   1.353   2.881
61788W        W30006   3.225   2.206   1.804
61789W        W30007  19.312  13.405  13.535
61790W        W30008   1.752   2.343   4.454
61791W        W30009  28.927  26.527   4.948
61792W        W30010  16.832  11.809   0.960
61793W        W30011  18.534  43.814  10.657
61794W        W30012  39.344  20.299   4.085
61795W        W30013   9.283  35.532   2.002
61796W        W30014   5.433  32.845  11.988
61797W        W30015  21.578  40.335  14.341
61798W        W30016  15.214  10.839   3.082
61799W        W30017   0.309   2.418   2.763
61800W        W30018   9.680  23.031   0.013
61801W        W30019  33.465  21.420   0.962
61802W        W30020  18.759  12.023  10.220
61803W        W30021  15.395  34.438  14.761
61804W        W30022  28.691  22.757   0.029
61805W        W30023  14.034  19.076   2.742
61806W        W30024   3.525  39.997  12.062
61807W        W30025  29.473  12.474   4.106
61808W        W30026   0.705   7.886   2.842
61809W        W30027  24.937  20.554  11.129
61810W        W30028  29.499  23.907  13.746
61811W        W30029  28.416  20.819   1.474
61812W        W30030  37.620   0.980  12.389
61813W        W30031  27.206  35.044  10.773
61814W        W30032  17.214  37.843  14.535
61815W        W30033  32.440  29.946  12.081
61816W        W30034  10.939  41.926  12.134
61817W        W30035  42.478  32.173  12.591
61818W        W30036  19.480   3.931  13.848
61819W        W30037   6.415  43.315   4.078
61820W        W30038   9.587  39.831   4.170
61821W        W30039  34.208  42.369  11.091
61822W        W30040  27.412   3.042  13.580
61823W        W30041  14.291  13.721   0.626
61824W        W30042  34.043  40.279  10.842
61825W        W30043   0.570   4.698   0.750
61826W        W30044  22.550  35.853   0.832
61827W        W30045  13.907  43.539  12.531
61828W        W30046   7.844  12.192  11.622
61829W        W30047  29.438  33.027   0.029
61830W        W30048  35.202  31.817  11.166
61831W        W30049  26.719  21.525   1.686
61832W        W30050  19.436   9.532  13.092
61833W        W30051  13.574  29.107  11.247
61834W        W30052  30.168  40.492   4.101
61835W        W30053  27.695  41.802   0.152
61836W        W30054  41.771   5.168   4.573
61837W        W30055  16.753  30.940  12.363
61838W        W30056  26.752  38.841  11.622
61839W        W30057  29.609  30.109   0.797
61840W        W30058  43.426  24.296   0.668
61841W        W30059  26.496   1.893   4.650
61842W        W30060  36.375  14.342   4.984
61843W        W30061  38.491  24.733  13.509
61844W        W30062  17.278  12.175   9.945
61845W        W30063  41.404  43.665  11.653
61846W        W30064  44.812  43.424  12.115
61847W        W30065  35.805  29.686   0.913
61848W        W30066  27.045  18.640   0.699
61849W        W30067  36.001   4.432  13.483
61850W        W30068  12.113  18.376   3.164
61851W        W30069  24.336   2.184  13.922
61852W        W30070  34.542  43.052   3.673
61853W        W30071  15.726  24.244   1.797
61854W        W30072   5.855   9.074  10.474
61855W        W30073  14.794  33.359  11.182
61856W        W30074  28.501  12.813   2.789
61857W        W30075  39.498   6.752   4.467
61858W        W30076  37.383  26.491   4.575
61859W        W30077  19.695  15.184  10.736
61860W        W30078  43.851  39.369  11.650
61861W        W30079   7.706  42.291   0.874
61862W        W30080  39.871   3.336  14.257
61863W        W30081  11.763   9.162  12.053
61864W        W30082  16.675  42.804  12.989
61865W        W30083  20.729   0.718   0.445
61866W        W30084  15.633  21.990  10.692
61867W        W30085  43.528   5.366  10.654
61868W        W30086  27.847  27.974   1.323
61869W        W30087   3.695   6.559  14.470
61870W        W30088  25.431   6.672  14.416
61871W        W30089  27.358  30.914   2.779
61872W        W30090  25.983  18.218  13.540
61873W        W30091   1.857  22.380   2.653
61874W        W30092  21.802  15.261   2.788
61875W        W30093  16.360  28.153  14.854
61876W        W30094  41.893  13.628   0.657
61877W        W30095  31.651  25.547   0.265
61878W        W30096  26.013   1.879   9.975
61879W        W30097  29.637  10.842  12.089
61880W        W30098  10.868  37.502  12.367
61881W        W30099   4.774  34.903  10.803
61882W        W30100  16.219   9.417  12.142
61883W        W30101  35.861  27.443   0.457
61884W        W30102  39.840   7.970  12.108
61885W        W30103  33.268   0.286  11.902
61886W        W30104  24.662  41.074  13.990
61887W        W30105   3.809  26.400  11.165
61888W        W30106  32.650  15.428   3.180
61889W        W30107   0.096  33.985  10.684
61890W        W30108  29.712  38.113  13.356
61891W        W30109  39.455  33.067  13.269
61892W        W30110  32.623   6.974  12.057
61893W        W30111  33.529  19.243  12.087
61894W        W30112  10.096  27.012  14.480
61895W        W30113  14.229  14.951  12.227
61896W        W30114  37.866  34.972  14.348
61897W        W30115  22.413  40.586   0.902
61898W        W30116  30.474  10.847  13.838
61899W        W30117  13.229  13.321  11.207
61900W        W30118  43.924  42.045  13.771
61901W        W30119  14.162  12.103   0.270
61902W        W30120   5.755  11.810  10.705
61903W        W30121  23.948  44.516  11.287
61904W        W30122  35.057  38.397  12.395
61905W        W30123  37.950  40.779   0.944
61906W        W30124  27.467   2.974   0.556
61907W        W30125  21.146   4.253   1.958
61908W        W30126  32.469   2.289   2.691
61909W        W30127   6.343  22.215   2.537
61910W        W30128  20.545  38.794   1.990
61911W        W30129  16.126  23.727  13.800
61912W        W30130  27.538   8.884  14.872
61913W        W30131  33.095   9.220   2.553
61914W        W30132  40.340  26.749  10.614
61915W        W30133   9.191   8.738   4.097
61916W        W30134  14.126  29.445   3.161
61917W        W30135   3.989  31.429   3.287
61918W        W30136  24.716  15.722  11.566
61919W        W30137  17.338   7.938   0.584
61920W        W30138  33.535  25.633   2.266
61921W        W30139  24.057   4.230   4.547
61922W        W30140  25.991  19.408   1.178
61923W        W30141  41.308   8.880  12.490
61924W        W30142   4.396  19.708   1.121
61925W        W30143   0.132  18.542   4.016
61926W        W30144   8.294  43.023  14.867
61927W        W30145   9.342  24.542  10.623
61928W        W30146  26.064  21.784  10.295
61929W        W30147  29.861  36.447   0.991
61930W        W30148  15.350  37.003   0.286
61931W        W30149  33.916  25.294  13.584
61932W        W30150  35.761  12.597  11.667
61933W        W30151  21.780  32.864  11.966
61934W        W30152  13.958  34.113  11.912
61935W        W30153   3.347  28.027   1.888
61936W        W30154   3.947  13.585  13.863
61937W        W30155  22.952   8.436  14.944
61938W        W30156  17.715   1.096   9.785
61939W        W30157  37.519  34.910   0.861
61940W        W30158   8.678  36.211  13.036
61941W        W30159   9.629   8.181   2.667
61942W        W30160  36.697  28.442   0.516
61943W        W30161  22.992  14.166   4.176
61944W        W30162  17.165  33.140  10.259
61945W        W30163  26.363   8.399   2.462
61946W        W30164   3.006  10.787  14.884
61947W        W30165   8.891   3.737  11.000
61948W        W30166   3.439   4.321  12.064
61949W        W30167  27.960  35.507  13.856
61950W        W30168  40.955  16.064  12.031
61951W        W30169  29.661  30.916   2.369
61952W        W30170  32.597  36.474  11.500
61953W        W30171  14.674  17.238   3.656
61954W        W30172   1.973  43.009  11.439
61955W        W30173  38.325  44.554  11.148
61956W        W30174  27.542  41.091   0.857
61957W        W30175   9.383   3.862  12.049
61958W        W30176   0.809  26.528  10.659
61959W        W30177  44.723  40.978  14.675
61960W        W30178  19.585  21.381  11.544
61961W        W30179   0.392   4.416   1.149
61962W        W30180  43.349  16.285   4.622
61963W        W30181  29.571   4.975   4.083
61964W        W30182  26.386  21.932   1.840
61965W        W30183  44.711  13.731   4.232
61966W        W30184  35.333  41.005   1.671
61967W        W30185   4.518   9.627  13.435
61968W        W30186   1.998  29.612  14.313
61969W        W30187  14.312  10.165   4.378
61970W        W30188  13.781  28.086   3.101
61971W        W30189  25.174  24.348  11.584
61972W        W30190  14.259  14.344   1.817
61973W        W30191  17.748   5.944  13.932
61974W        W30192  19.584  22.222   4.239
61975W        W30193  40.848  34.347   2.215
61976W        W30194   3.153  33.036   2.219
61977W        W30195  23.758  27.971  13.850
61978W        W30196  16.938  35.388   3.651
61979W        W30197  19.758  12.572  10.425
61980W        W30198   1.758  38.412  13.437
61981W        W30199   4.247  35.622   3.702
61982W        W30200  31.613   0.180  11.396
61983W        W30201  37.101   1.569  10.265
61984W        W30202  18.136   2.667  13.107
61985W        W30203  25.117  37.890   2.429
61986W        W30204  32.531  13.865   1.409
61987W        W30205  44.099   4.278   0.809
61988W        W30206  13.372  23.607   2.844
61989W        W30207   3.855  30.347   1.937
61990W        W30208  33.139   2.533   1.480
61991W        W30209  44.868   4.219   4.332
61992W        W30210   8.377  43.735   1.406
61993W        W30211   1.990  16.797   3.247
61994W        W30212  32.442  19.976   3.127
61995W        W30213  23.346  11.904  14.465
61996W        W30214  31.582  33.782  10.993
61997W        W30215  29.984  43.309  13.567
61998W        W30216   3.217  27.551   1.734
61999W        W30217  20.839  41.536  12.885
62000W        W30218   7.463  36.956  14.133
62001W        W30219   4.259   8.803  13.058
62002W        W30220   4.415  24.315   4.238
62003W        W30221  35.259   7.919  11.157
62004W        W30222  30.490   4.945   3.113
62005W        W30223  21.278   4.187  11.073
62006W        W30224  12.528  24.316   1.268
62007W        W30225  16.856  35.411   0.939
62008W        W30226  39.947   4.800   2.117
62009W        W30227  29.759  33.439  14.980
62010W        W30228  12.851  38.031  14.108
62011W        W30229  39.832  29.394   3.150
62012W        W30230  39.962  35.001   3.268
62013W        W30231  39.926   4.369  13.300
62014W        W30232  37.700  31.907   2.719
62015W        W30233   2.836  44.732   2.165
62016W        W30234  43.815  21.558  11.326
62017W        W30235  18.754  19.502  10.674
62018W        W30236   0.894   1.522   2.232
62019W        W30237  29.572  11.884  11.239
62020W        W30238   5.957  10.898  14.497
62021W        W30239  12.857   3.322   0.216
62022W        W30240   9.397  26.629  12.536
62023W        W30241   5.168  14.733  10.600
62024W        W30242  17.193   9.185  14.246
62025W        W30243  37.379  36.978   3.400
62026W        W30244   5.662  21.420   3.197
62027W        W30245  44.916  10.828   3.063
62028W        W30246  26.462  26.648  14.645
62029W        W30247  36.369  29.680  11.176
62030W        W30248  39.869  34.871   4.278
62031W        W30249   6.499  32.379  12.465
62032W        W30250  24.548  19.244   2.772
62033W        W30251   8.454   2.908  13.410
62034W        W30252  10.759  40.005   3.351
62035W        W30253  20.477  22.519  11.029
62036W        W30254  38.975   0.487   4.099
62037W        W30255   5.515  28.599  12.947
62038W        W30256  27.244  14.109  14.054
62039W        W30257  18.541   2.792  11.117
62040W        W30258  41.229  39.559   4.739
62041W        W30259  41.780   3.911  13.959
62042W        W30260  12.737   3.843  14.968
62043W        W30261  19.123  16.267   4.044
62044W        W30262   9.294  41.503   2.939
62045W        W30263  23.204  36.834   1.411
62046W        W30264   8.615  19.096  12.062
62047W        W30265   3.589  26.622   5.101
62048W        W30266  21.005  35.464   5.412
62049W        W30267   2.764  14.880  14.080
62050W        W30268   1.848  28.968  12.590
62051W        W30269  11.623  20.033   2.264
62052W        W30270  29.260  32.612  11.658
62053W        W30271  41.252   0.959   3.120
62054W        W30272  10.234  40.846   4.571
62055W        W30273  24.703  43.563  11.497
62056W        W30274   0.866  44.029   9.575
62057W        W30275  27.316  17.810   4.636
62058W        W30276  34.304  23.571  12.945
62059W        W30277  41.787  11.906   3.397
62060W        W30278   0.313  34.587  11.181
62061W        W30279  12.370  27.766   1.905
62062W        W30280  13.659  39.335   3.847
62063W        W30281  26.576  37.383   4.531
62064W        W30282   0.543  24.238  11.128
62065W        W30283  34.382   9.226   4.510
62066W        W30284  13.920  35.489   4.926
62067W        W30285   5.151   9.820  12.449
62068W        W30286   8.814  12.659   3.685
62069W        W30287  17.842   2.891  11.691
62070W        W30288  25.775  20.700   0.517
62071W        W30289  10.423  12.828  11.050
62072W        W30290  17.300  30.645   3.630
62073W        W30291  32.679  20.711   3.799
62074W        W30292   3.886  40.013   9.994
62075W        W30293  28.128  41.267  10.246
62076W        W30294   6.230   8.322  13.779
62077W        W30295  29.349  24.106  10.269
62078W        W30296   0.993  14.253  11.261
62079W        W30297  21.854  31.343   4.203
62080W        W30298   3.923  11.124  12.479
62081W        W30299  20.635  27.999  12.511
62082W        W30300  32.697  35.183  11.652
62083W        W30301  40.757   9.160  11.197
62084W        W30302   7.868   1.375   3.359
62085W        W30303   6.654  27.929   1.262
62086W        W30304  22.574  31.881   1.793
62087W        W30305  43.569  41.665  11.138
62088W        W30306  43.465  29.761   4.245
62089W        W30307  34.979  24.767   2.838
62090W        W30308  19.779   1.341  13.162
62091W        W30309   6.806  43.563  12.976
62092W        W30310  30.923  10.735  12.912
62093W        W30311  13.581  44.825   1.888
62094W        W30312  18.296   6.274   4.479
62095W        W30313  26.587  43.603  12.838
62096W        W30314   0.995  41.701  13.365
62097W        W30315  38.823  11.675   2.383
62098W        W30316   9.821  35.492   0.790
62099W        W30317  30.777   4.107   4.209
62100W        W30318  35.835   2.966  14.407
62101W        W30319   0.338   1.983  10.607
62102W        W30320  43.537  32.164   4.686
62103W        W30321   4.537   4.517   1.986
62104W        W30322  11.180  19.885  14.327
62105W        W30323  18.068  42.770  12.410
62106W        W30324  30.948  15.905  13.383
62107W        W30325  38.978   4.976   0.873
62108W        W30326  39.396  29.635   1.236
62109W        W30327  44.524  13.072  11.626
62110W        W30328  44.204  23.482   2.783
62111W        W30329  10.561  17.790  14.697
62112W        W30330  19.496  13.529   1.553
62113W        W30331  16.875   6.868   1.950
62114W        W30332  24.762   4.200   2.277
62115W        W30333  35.499   6.394  11.490
62116W        W30334  15.221   6.955   2.296
62117W        W30335  40.556  42.938  14.227
62118W        W30336  28.608  17.623   1.759
62119W        W30337   1.880  11.356  13.773
62120W        W30338  43.030  31.181  14.223
62121W        W30339  14.643   8.857   4.262
62122W        W30340  19.742  40.078   4.273
62123W        W30341   8.645   4.443  11.612
62124W        W30342   5.844  18.761   3.760
62125W        W30343  24.032  17.266  14.526
62126W        W30344  39.242   8.558  11.090
62127W        W30345  30.132  18.144  10.562
62128W        W30346  36.811  25.376  12.199
62129W        W30347   3.319  30.191   0.711
62130W        W30348   9.284  23.161  13.595
62131W        W30349   4.735  10.848   4.520
62132W        W30350  41.255  44.445   0.820
62133W        W30351  14.902   2.160   3.354
62134W        W30352   5.310  20.267   1.179
62135W        W30353  10.023  43.944  14.738
62136W        W30354   3.432  41.697   2.828
62137W        W30355  13.906  31.189  13.954
62138W        W30356  17.135  34.916  12.381
62139W        W30357   5.267  27.948  11.485
62140W        W30358   4.285  39.773  10.236
62141W        W30359  43.873  21.611  11.833
62142W        W30360   6.211  27.519   3.814
62143W        W30361  18.237   7.839   0.671
62144W        W30362  23.192   9.671  12.399
62145W        W30363  11.218  40.841   0.930
62146W        W30364  34.334   7.739  12.684
62147W        W30365  21.103  44.227   2.809
62148W        W30366   7.233  24.092  14.033
62149W        W30367  36.621  39.475  12.435
62150W        W30368  22.146   1.656  14.300
62151W        W30369  12.266  43.235   3.429
62152W        W30370   0.216   0.771   2.236
62153W        W30371  42.916  11.835  10.861
62154W        W30372  34.588  36.322   3.330
62155W        W30373  11.380  20.590  10.793
62156W        W30374  34.091  34.604   2.868
62157W        W30375  26.080   1.058  13.339
62158W        W30376  25.127  25.003  10.737
62159W        W30377  23.818  20.702   1.710
62160W        W30378   7.263  34.494   3.321
62161W        W30379   4.643  43.385   0.506
62162W        W30380  12.704  31.924   1.670
62163W        W30381   8.879  19.193   4.650
62164W        W30382  25.967  29.874  11.578
62165W        W30383  35.385   0.451   0.757
62166W        W30384  42.036  22.058   4.578
62167W        W30385  25.507  33.399  12.927
62168W        W30386  24.192  42.770   2.722
62169W        W30387  24.223  21.959   3.655
62170W        W30388  12.346  42.252  14.100
62171W        W30389  41.089  43.033  14.945
62172W        W30390  25.992  32.442  13.536
62173W        W30391  36.427  12.819   4.132
62174W        W30392  14.374   2.713  13.731
62175W        W30393  30.151   5.450   0.935
62176W        W30394  12.644  21.991   4.144
62177W        W30395  37.907   7.163  10.571
62178W        W30396  30.479  40.722  11.056
62179W        W30397  13.496  17.959  13.219
62180W        W30398  32.722  25.382   3.744
62181W        W30399   7.476  41.337   3.687
62182W        W30400  30.151  39.324   2.818
62183W        W30401   4.168  15.828   3.323
62184W        W30402  28.796   1.314  13.472
62185W        W30403  16.854  27.155   4.150
62186W        W30404  39.332  12.253  11.398
62187W        W30405  34.617  43.782   3.191
62188W        W30406   0.845  32.935   0.729
62189W        W30407  28.207  19.329  12.352
62190W        W30408   2.644  10.893   1.608
62191W        W30409  14.563   7.875   4.755
62192W        W30410   3.845  16.296  14.890
62193W        W30411  41.371   0.287   3.695
62194W        W30412  19.051  18.292  10.681
62195W        W30413  15.167  24.246   2.323
62196W        W30414   2.745  31.519   1.940
62197W        W30415  32.079  23.724   4.248
62198W        W30416  38.474  43.963  11.972
62199W        W30417  35.125  26.019  12.924
62200W        W30418   0.962   4.447   0.448
62201W        W30419  24.623  27.099  11.653
62202W        W30420  34.410  38.313  12.046
62203W        W30421  17.061   6.608  12.443
62204W        W30422   6.981   3.241   1.280
62205W        W30423  12.400  16.265   0.483
62206W        W30424  11.247   2.768  12.697
62207W        W30425  22.499  20.758  12.392
62208W        W30426  16.363  29.524  10.529
62209W        W30427  23.478  19.044   0.381
62210W        W30428  19.376  44.613   0.904
62211W        W30429   9.309  16.027   0.035
62212W        W30430  23.680  26.755   3.662
62213W        W30431  40.234  44.905   4.185
62214W        W30432  19.004   1.331  12.382
62215W        W30433   5.605  26.445  13.998
62216W        W30434  19.767  35.939   1.856
62217W        W30435   6.845  20.170   1.541
62218W        W30436  37.272  41.512   0.730
62219W        W30437   5.675  29.410   4.544
62220W        W30438  15.834  17.475  12.069
62221W        W30439  11.301  10.248  11.458
62222W        W30440  33.694  30.879   4.447
62223W        W30441  27.808  26.428  13.898
62224W        W30442  36.448  30.472   3.215
62225W        W30443  17.729  41.790  10.595
62226W        W30444  44.833  34.064  14.322
62227W        W30445  27.098  31.199  12.449
62228W        W30446  26.636  15.587  14.257
62229W        W30447  21.795  37.315  13.536
62230W        W30448   7.827  33.827   1.386
62231W        W30449   6.758  12.829   4.319
62232W        W30450   6.481  43.389   2.777
62233W        W30451  11.348  29.564   3.796
62234W        W30452  40.067  37.824   1.895
62235W        W30453   9.257  42.938  11.039
62236W        W30454  31.508  14.566  10.698
62237W        W30455  31.421  30.636   4.135
62238W        W30456  42.895  30.939   3.126
62239W        W30457  10.852   4.865   0.864
62240W        W30458   9.294  13.668   3.129
62241W        W30459  13.348  17.548   4.069
62242W        W30460  18.755   3.501   1.670
62243W        W30461   2.037  29.794   2.773
62244W        W30462   4.685  37.190  12.444
62245W        W30463   1.981   2.941  14.437
62246W        W30464  32.828  15.087  10.509
62247W        W30465   8.324  12.581   3.532
62248W        W30466   3.799  17.547   3.538
62249W        W30467  24.013  41.762   4.643
62250W        W30468  38.657  18.660  12.021
62251W        W30469  15.162  23.238   1.169
62252W        W30470  29.084   1.097  14.464
62253W        W30471   1.929  19.703  10.696
62254W        W30472  13.603  13.880  10.714
62255W        W30473  25.209  24.261  14.021
62256W        W30474  31.418  12.739  14.227
62257W        W30475   9.476   8.383   3.133
62258W        W30476  44.151  36.582   2.252
62259W        W30477  17.488  42.681   2.079
62260W        W30478  30.664  23.714   4.345
62261W        W30479   7.839  14.296  10.342
62262W        W30480  35.008   2.270  10.606
62263W        W30481   5.694  21.356   1.522
62264W        W30482  43.947   2.740  14.367
62265W        W30483   4.681   6.194   1.352
62266W        W30484  35.454  40.892  13.454
62267W        W30485  40.051  43.835   4.925
62268W        W30486  17.225   7.792  10.055
62269W        W30487  41.735  10.752   3.146
62270W        W30488  24.889  26.422  10.538
62271W        W30489  27.937  19.958   5.007
62272W        W30490   5.922  29.577   1.195
62273W        W30491  29.643  42.347  14.473
62274W        W30492  32.201  36.835   4.098
62275W        W30493  27.075   8.900  13.644
62276W        W30494  10.063  15.165   3.414
62277W        W30495  27.390  16.185  13.555
62278W        W30496  20.815  36.023   1.705
62279W        W30497   9.361  44.470   0.402
62280W        W30498  36.467  42.374   4.927
62281W        W30499   8.041  34.606  12.539
62282W        W30500   4.994  28.445   3.937
62283W        W30501  43.061  37.538   3.246
62284W        W30502  36.532   3.725  10.682
62285W        W30503  43.321  41.824  12.369
62286W        W30504  33.448   1.605   3.021
62287W        W30505  15.233   0.974   3.692
62288W        W30506  11.709   5.870   4.685
62289W        W30507  34.035   0.835  11.425
62290W        W30508  34.054  21.764  14.702
62291W        W30509  35.823   4.227  13.003
62292W        W30510  31.356  15.542  10.879
62293W        W30511  43.241  23.799   3.140
62294W        W30512   6.902  31.994  13.374
62295W        W30513   4.353  21.836  14.369
62296W        W30514  17.368   4.201  13.388
62297W        W30515  37.047  13.678   3.401
62298W        W30516  23.074  18.283  13.821
62299W        W30517  36.000  24.552   4.354
62300W        W30518  30.834  44.985  12.935
62301W        W30519  23.704  16.558   3.339
62302W        W30520  23.645  20.997   4.102
62303W        W30521   8.985  39.926  11.047
62304W        W30522  26.550  36.518   2.907
62305W        W30523  18.719  19.640  10.170
62306W        W30524  16.790  44.046  13.491
62307W        W30525  28.993  42.349  14.525
62308W        W30526  21.508  15.830   1.260
62309W        W30527  43.930  29.392   2.263
62310W        W30528  39.394  30.122   2.198
62311W        W30529   7.910  33.450  13.190
62312W        W30530  39.610  34.551  12.348
62313W        W30531  27.466   6.732  12.309
62314W        W30532  27.009  24.505  12.196
62315W        W30533  36.011  24.094  12.528
62316W        W30534   3.753  32.159  13.820
62317W        W30535   8.875  11.024   2.986
62318W        W30536  30.298   7.798   3.142
62319W        W30537  14.831  42.765  11.430
62320W        W30538  30.515  11.990   3.053
62321W        W30539   7.742  34.076   1.836
62322W        W30540  40.882  42.662   1.474
62323W        W30541  18.614  27.710   1.788
62324W        W30542   3.448  37.755   2.392
62325W        W30543  22.122   6.137   3.999
62326W        W30544  23.136  35.001  11.164
62327W        W30545   3.906   5.351  12.878
62328W        W30546   1.880   7.237  13.747
62329W        W30547  29.572  22.133  11.185
62330W        W30548   9.177  28.536   1.261
62331W        W30549  15.782   3.790  12.466
62332W        W30550  32.996   2.544  10.518
62333W        W30551  28.246  30.521   1.238
62334W        W30552  15.603  40.872   4.340
62335W        W30553  13.774  31.062   3.728
62336W        W30554  31.603  43.389   0.485
62337W        W30555  44.208  29.886  12.045
62338W        W30556  35.045  12.316   2.840
62339W        W30557  13.312  40.797   2.452
62340W        W30558  11.668  19.711  14.483
62341W        W30559  23.555  36.586  13.658
62342W        W30560  24.614  30.877   0.112
62343W        W30561   0.367  16.193  14.026
62344W        W30562   9.478  19.681   3.615
62345W        W30563  11.281  11.475  13.786
62346W        W30564   3.953  33.381  13.394
62347W        W30565  29.529  42.015  14.884
62348W        W30566  41.560  27.286   2.855
62349W        W30567  30.397   2.367   4.160
62350W        W30568  34.040  26.387   5.077
62351W        W30569  12.090  15.362   3.744
62352W        W30570  13.346  22.341  13.986
62353W        W30571  31.142  10.900   2.837
62354W        W30572   8.958   6.904  11.062
62355W        W30573  35.878  28.505   0.889
62356W        W30574   5.097  43.267  13.410
62357W        W30575  28.030  39.578  11.569
62358W        W30576  10.393  12.143  14.429
62359W        W30577  20.285  20.671  10.738
62360W        W30578  13.368  22.481   4.063
62361W        W30579   9.748  22.239   1.247
62362W        W30580  32.767  23.711   4.859
62363W        W30581  11.270  25.863  13.986
62364W        W30582  14.395   4.352   4.189
62365W        W30583   2.897  21.260   1.731
62366W        W30584  34.855  19.719   0.206
62367W        W30585  23.604  34.146   0.812
62368W        W30586  26.886  26.045   4.599
62369W        W30587  12.789  35.425  11.040
62370W        W30588  24.409   3.277  11.572
62371W        W30589  24.154  20.679  11.925
62372W        W30590   8.356   1.330   4.565
62373W        W30591  18.265  31.970  14.031
62374W        W30592  31.860  25.623   0.800
62375W        W30593  18.706  33.685  14.803
62376W        W30594  42.757  29.001  14.760
62377W        W30595  41.689  16.507   4.082
62378W        W30596  20.983  19.656   3.497
62379W        W30597  12.569  39.318   1.918
62380W        W30598  17.595  11.784  14.906
62381W        W30599  42.737  34.803   2.243
62382W        W30600  42.977  22.973  10.926
62383W        W30601  18.836   4.534   1.866
62384W        W30602   1.466  40.490  11.843
62385W        W30603  43.938  18.791   1.856
62386W        W30604  29.173  27.662  13.755
62387W        W30605  37.266   9.039   2.720
62388W        W30606  15.092  36.532  12.188
62389W        W30607  23.123  28.668   2.794
62390W        W30608  30.742   8.418  10.875
62391W        W30609  38.371  40.479   0.942
62392W        W30610  33.879   5.853   0.017
62393W        W30611  29.130  20.143  11.933
62394W        W30612  27.623  13.740  13.986
62395W        W30613  15.815  39.920  12.044
62396W        W30614  33.093  14.765  14.849
62397W        W30615  37.998  26.284  12.912
62398W        W30616   1.520  29.619   4.578
62399W        W30617   5.722   0.814  10.561
62400W        W30618  31.521  17.619   3.723
62401W        W30619  31.669  32.422   4.719
62402W        W30620   9.042  22.501   1.876
62403W        W30621  42.463  16.293   0.780
62404W        W30622   3.386  13.269  12.418
62405W        W30623  13.596  16.713   0.057
62406W        W30624  17.105  31.222   0.454
62407W        W30625  37.917  36.460   0.840
62408W        W30626  14.107  21.715  11.892
62409W        W30627  17.726   4.121   0.732
62410W        W30628  25.172  25.660  13.805
62411W        W30629  33.992  14.038  11.963
62412W        W30630  32.087   7.899   0.605
62413W        W30631  10.251   4.218  12.517
62414W        W30632  28.002  43.056   3.079
62415W        W30633  30.260   0.914   0.442
62416W        W30634  44.660  11.082   2.605
62417W        W30635  37.616  28.103   4.670
62418W        W30636  24.793  38.791   0.765
62419W        W30637  43.924  34.734   0.689
62420W        W30638  11.631   9.186   2.178
62421W        W30639   3.032   1.750  12.930
62422W        W30640   9.960   5.724  13.132
62423W        W30641  31.933  33.101  10.696
62424W        W30642  11.359   0.902   0.765
62425W        W30643  27.353  14.019   0.825
62426W        W30644  27.485  42.580   1.309
62427W        W30645   2.744  11.020   4.510
62428W        W30646  32.200  39.798   3.280
62429W        W30647  40.609  40.323   0.498
62430W        W30648  28.020  33.351   4.526
62431W        W30649   9.680  12.006   3.124
62432W        W30650  23.970  32.696   0.934
62433W        W30651  32.295  34.060  12.090
62434W        W30652  30.632  22.888   3.599
62435W        W30653  26.021   3.034  13.384
62436W        W30654  19.797  36.024   4.170
62437W        W30655  16.941  24.568  14.459
62438W        W30656  20.781  24.001  12.440
62439W        W30657  28.515  41.714  14.918
62440W        W30658  20.946   5.162   4.211
62441W        W30659  30.222  29.674  12.364
62442W        W30660  22.453  10.276  14.063
62443W        W30661  14.291  30.001  10.958
62444W        W30662  26.970  28.691  13.253
62445W        W30663   6.988  31.929  11.598
62446W        W30664   0.798  29.683  14.178
62447W        W30665  41.502  11.932   2.546
62448W        W30666  39.755  35.169   1.915
62449W        W30667  36.160  13.145  11.152
62450W        W30668  35.122  44.014   2.276
62451W        W30669  37.432   3.796  11.011
62452W        W30670  20.909   7.959   4.993
62453W        W30671   1.023  30.670   0.119
62454W        W30672  33.371  35.634   1.362
62455W        W30673  38.977  15.217   1.364
62456W        W30674  28.267   3.862  12.006
62457W        W30675  29.077   2.980  13.799
62458W        W30676  24.036  32.636   3.736
62459W        W30677  36.277  22.647  14.691
62460W        W30678   1.340   4.504  12.356
62461W        W30679   7.880  13.277  12.399
62462W        W30680   2.707  41.540   0.874
62463W        W30681  29.308  31.424  11.126
62464W        W30682  31.970  19.129   1.800
62465W        W30683  11.100   5.741  12.109
62466W        W30684  22.145  13.597  12.688
62467W        W30685  15.792  19.837  10.658
62468W        W30686   2.390  39.945  12.721
62469W        W30687   5.401  44.616   4.548
62470W        W30688  21.952  19.765  14.386
62471W        W30689  27.513  23.912  13.963
62472W        W30690  29.921  42.823  12.378
62473W        W30691   4.205   2.506  14.619
62474W        W30692  28.012  37.471   3.241
62475W        W30693  36.053  31.011   4.759
62476W        W30694  15.563  34.667  11.184
62477W        W30695  28.389  28.664  13.490
62478W        W30696   5.779  31.643   3.206
62479W        W30697  32.458   0.143  11.120
62480W        W30698  17.139  33.542  10.564
62481W        W30699  42.920   2.263   0.553
62482W        W30700  28.850  14.588  13.650
62483W        W30701  37.474  10.563   0.739
62484W        W30702   3.453  30.940   4.098
62485W        W30703  13.740  27.706  13.046
62486W        W30704  33.599  22.994   1.819
62487W        W30705   5.406  37.456  10.695
62488W        W30706  18.084  24.474  11.103
62489W        W30707  31.345  11.689  14.436
62490W        W30708  20.323   7.299   0.976
62491W        W30709  37.652  13.572  10.656
62492W        W30710  33.506  17.792  11.374
62493W        W30711   1.026  29.962  13.476
62494W        W30712   5.397  36.806   4.115
62495W        W30713   0.356  43.835  13.558
62496W        W30714  33.523  30.131   1.420
62497W        W30715   1.262  25.247   4.759
62498W        W30716  35.976  43.028   1.774
62499W        W30717   2.108  13.097  14.348
62500W        W30718  15.357   1.274   1.691
62501W        W30719  27.159  27.180   2.759
62502W        W30720  11.346   5.822   1.239
62503W        W30721  14.400  41.541  10.757
62504W        W30722  42.731   5.696  10.669
62505W        W30723  37.099  28.035  11.635
62506W        W30724  16.192  35.084   4.158
62507W        W30725  35.945  37.809  14.747
62508W        W30726  33.354  14.816   0.313
62509W        W30727  29.318   0.498   1.394
62510W        W30728  15.874  10.750  14.824
62511W        W30729   4.137  29.372   0.258
62512W        W30730   0.912  17.979  10.889
62513W        W30731  44.019  43.821  10.981
62514W        W30732  22.676  11.660  11.552
62515W        W30733   9.342  20.101   1.724
62516W        W30734  13.545   2.468  13.430
62517W        W30735  20.152   2.978   0.292
62518W        W30736  29.652   4.340  14.890
62519W        W30737  21.014   9.104   1.435
62520W        W30738  16.748  39.824  13.019
62521W        W30739   7.682  14.429  11.614
62522W        W30740   0.843   8.831  13.821
62523W        W30741  42.370   8.926  13.736
62524W        W30742  17.129  22.126   2.872
62525W        W30743  12.733  44.332  13.611
62526W        W30744  28.015  40.004  12.663
62527W        W30745   4.296  19.294  11.599
62528W        W30746  25.562  15.740   3.360
62529W        W30747  14.626   6.314  12.078
62530W        W30748  38.225  14.904  13.440
62531W        W30749   6.302  11.383   1.848
62532W        W30750  31.303  38.116  11.506
62533W        W30751  28.438   2.786  10.653
62534W        W30752  41.417  33.978  12.945
62535W        W30753  29.568   0.931   1.175
62536W        W30754  34.355  33.096   1.689
62537W        W30755  12.682  10.299   2.680
62538W        W30756  19.124  44.308  13.537
62539W        W30757  10.711  34.677  12.470
62540W        W30758  35.082  11.777  11.556
62541W        W30759  19.763  25.036  14.371
62542W        W30760  19.418  25.404  11.357
62543W        W30761  15.085   9.546  11.259
62544W        W30762  26.041  16.696  13.802
62545W        W30763  15.285  18.190   4.104
62546W        W30764   6.241  26.085  10.819
62547W        W30765  30.971  17.203  13.075
62548W        W30766  43.678  20.328  11.258
62549W        W30767  43.074  22.247  13.038
62550W        W30768  36.475  27.128   3.322
62551W        W30769  41.884  15.925  11.894
62552W        W30770  39.529  27.171  12.422
62553W        W30771   8.705  20.691   1.935
62554W        W30772  31.457   9.978  14.845
62555W        W30773  42.830  41.079   1.088
62556W        W30774   6.591  15.132   3.616
62557W        W30775  24.543  37.880  13.028
62558W        W30776  29.226  38.786  11.533
62559W        W30777  40.787  41.872   4.003
62560W        W30778  35.937  14.584  11.167
62561W        W30779   1.835  33.441  11.345
62562W        W30780  11.406  31.525   2.928
62563W        W30781  27.233   6.912   4.924
62564W        W30782   7.279   5.365  13.453
62565W        W30783   0.303  11.858  12.606
62566W        W30784  40.772   6.029  13.319
62567W        W30785  33.158  24.049   1.267
62568W        W30786  35.377   9.182  13.631
62569W        W30787  33.155  44.794  11.724
62570W        W30788  11.205   1.521  14.130
62571W        W30789  13.385  32.633   3.191
62572W        W30790  22.075  38.782   0.330
62573W        W30791  38.760  44.581   5.311
62574W        W30792   7.816   4.483   2.784
62575W        W30793  26.485   4.266   4.232
62576W        W30794  33.212  21.977  13.934
62577W        W30795  34.834  16.687   0.728
62578W        W30796  34.135   7.990  10.529
62579W        W30797   0.558  22.372   1.033
62580W        W30798  21.759   8.193  13.430
62581W        W30799  23.015  25.223  14.521
62582W        W30800  11.890  39.375   3.285
62583W        W30801  42.316  44.958  12.992
62584W        W30802  15.109  17.519   3.647
62585W        W30803  29.387   7.221   1.375
62586W        W30804   7.279  18.630  13.507
62587W        W30805  20.391   6.154   2.311
62588W        W30806   6.045  29.413  11.953
62589W        W30807   4.209  17.674  14.426
62590W        W30808  32.624  41.955   3.844
62591W        W30809  35.705  19.097   1.775
62592W        W30810  19.467  37.164  12.522
62593W        W30811  35.498  41.504   2.863
62594W        W30812  19.244   1.159   3.218
62595W        W30813   5.998  27.445  12.008
62596W        W30814  31.393  43.006  14.355
62597W        W30815  33.125   7.811  13.318
62598W        W30816  23.716   3.785  10.459
62599W        W30817  40.345  12.197   0.738
62600W        W30818  35.075  44.469  11.916
62601W        W30819   9.940  41.897  14.368
62602W        W30820  14.639  22.762  12.821
62603W        W30821  27.073  22.711  13.950
62604W        W30822  42.273  18.593   3.098
62605W        W30823  15.892  39.068  13.542
62606W        W30824  10.371  16.253  14.939
62607W        W30825  13.291  17.765  14.480
62608W        W30826  17.202  11.312  14.799
62609W        W30827  33.857  25.205  14.637
62610W        W30828   3.277  23.725   0.409
62611W        W30829  37.828  10.356   0.434
62612W        W30830  17.783   1.292   3.216
62613W        W30831   4.736   7.448   3.025
62614W        W30832   8.875  29.561  12.213
62615W        W30833  30.708  35.490   0.994
62616W        W30834  18.177  21.654   0.705
62617W        W30835   7.222  37.356  11.005
62618W        W30836  43.083  17.758  10.733
62619W        W30837  29.392  21.280   4.567
62620W        W30838  40.369  17.051  14.231
62621W        W30839  11.901  33.405  14.391
62622W        W30840  41.532  32.888  13.764
62623W        W30841   4.308  29.491  10.699
62624W        W30842  37.913  17.670  13.893
62625W        W30843  12.614  28.441   1.372
62626W        W30844  14.037   2.694  11.686
62627W        W30845  20.846  21.242  11.812
62628W        W30846  14.544   0.512  14.943
62629W        W30847  27.879  21.084   4.252
62630W        W30848  14.195  26.653  10.488
62631W        W30849  18.883  18.642   0.729
62632W        W30850   1.326  19.305  12.991
62633W        W30851  43.928  44.214  14.408
62634W        W30852   9.404  43.051   0.513
62635W        W30853   5.769  15.180  12.875
62636W        W30854  21.619  26.099   1.760
62637W        W30855  43.211  10.782  11.490
62638W        W30856  19.757   4.748  14.698
62639W        W30857  11.976  18.581   3.643
62640W        W30858   7.355  43.713   3.407
62641W        W30859  38.302  14.325  14.242
62642W        W30860   3.982  38.748  13.148
62643W        W30861  31.426  34.049   1.193
62644W        W30862  11.319  41.895  14.876
62645W        W30863  17.817  31.594   3.724
62646W        W30864   9.747   5.390   4.053
62647W        W30865  31.395  11.522   3.228
62648W        W30866  26.670   3.790   2.878
62649W        W30867  11.143   9.293  13.370
62650W        W30868  19.299   6.375   3.617
62651W        W30869  42.417  35.197  14.506
62652W        W30870  44.503  15.102   2.114
62653W        W30871  39.497  38.815   2.313
62654W        W30872  30.032  34.878   3.222
62655W        W30873  10.108   1.745  13.410
62656W        W30874  23.240  18.229  11.971
62657W        W30875  26.998  34.890  13.683
62658W        W30876  14.395  31.998   1.435
62659W        W30877  21.764  21.593   4.286
62660W        W30878  33.531  18.613  13.852
62661W        W30879   7.681  35.657  11.138
62662W        W30880  10.220   7.237  10.471
62663W        W30881  17.547  42.937   3.197
62664W        W30882  27.900  26.985  12.091
62665W        W30883  39.058   6.759  10.587
62666W        W30884  15.568   9.800  13.785
62667W        W30885  41.175  42.440   1.877
62668W        W30886   6.327  42.763  14.939
62669W        W30887  29.167  16.676  14.852
62670W        W30888  34.111  21.645  10.647
62671W        W30889  38.854   9.456  14.858
62672W        W30890   9.688  30.527  14.790
62673W        W30891  31.228  15.782   4.188
62674W        W30892  15.272  11.368   4.798
62675W        W30893  10.008  30.853  13.525
62676W        W30894   4.531  25.138  13.895
62677W        W30895  15.168   0.958   0.856
62678W        W30896   6.563  27.452  10.751
62679W        W30897  10.900   3.377  13.215
62680W        W30898   3.717   9.624  13.875
62681W        W30899  26.585  38.365   2.982
62682W        W30900  42.335  26.187  10.671
62683W        W30901  38.533  39.948  13.867
62684W        W30902   0.383  20.172   4.668
62685W        W30903  27.263  42.828   1.717
62686W        W30904   3.735  20.117  11.481
62687W        W30905   6.170  42.769   3.206
62688W        W30906   7.015   0.295  11.346
62689W        W30907  20.778  15.006  14.937
62690W        W30908  20.566   6.429   1.406
62691W        W30909  37.760  39.806  10.734
62692W        W30910  23.060   2.360   4.142
62693W        W30911  17.653   5.433  12.979
62694W        W30912  29.045   7.341  11.607
62695W        W30913  36.629  33.621   2.881
62696W        W30914  15.235  34.784   0.613
62697W        W30915  17.630  35.831  11.194
62698W        W30916  40.143   9.579   4.468
62699W        W30917  26.249  37.530  10.878
62700W        W30918   8.225  19.727   4.711
62701W        W30919   0.030  10.094  12.733
62702W        W30920  35.471  37.795  14.936
62703W        W30921   6.194  30.136   2.449
62704W        W30922  42.976   5.817  11.577
62705W        W30923  15.080  20.754   4.124
62706W        W30924  14.322  20.528  10.408
62707W        W30925  12.616  39.689  13.513
62708W        W30926   8.404  24.745   3.718
62709W        W30927  23.273  24.580   4.680
62710W        W30928  38.079  16.339   2.154
62711W        W30929   1.823  23.077  14.844
62712W        W30930  37.665  23.519   1.512
62713W        W30931  33.977  12.073  12.288
62714W        W30932  24.979  21.093  11.232
62715W        W30933   6.399   8.857  14.315
62716W        W30934  36.630  11.861   2.345
62717W        W30935  21.309  17.243  14.107
62718W        W30936   2.685  28.721   4.684
62719W        W30937   7.947  34.325   1.282
62720W        W30938  24.724  41.987   1.859
62721W        W30939   6.936  24.683  11.039
62722W        W30940  34.113  16.870   4.553
62723W        W30941  20.343  35.398   4.599
62724W        W30942  21.283   5.601  11.949
62725W        W30943  33.914  25.712  13.917
62726W        W30944  43.862  22.709  12.782
62727W        W30945  30.143   1.957   2.951
62728W        W30946  13.198  27.410  12.099
62729W        W30947  14.304  14.611  10.257
62730W        W30948   6.758  15.530   2.223
62731W        W30949  26.957  29.622   1.508
62732W        W30950  33.664   3.018  10.122
62733W        W30951  17.593  31.895  10.406
62734W        W30952   4.716  24.420  12.901
62735W        W30953   7.408  39.807  12.623
62736W        W30954   7.253  16.791  14.251
62737W        W30955  29.827  21.194  10.794
62738W        W30956  30.084  26.453  12.152
62739W        W30957  11.573  20.881   4.014
62740W        W30958  11.645  15.381  11.108
62741W        W30959  26.578   9.686   4.186
62742W        W30960   8.891   7.934  11.181
62743W        W30961  39.317  16.963  12.174
62744W        W30962  18.348   2.198  13.150
62745W        W30963  39.621  27.980   2.757
62746W        W30964  36.163  40.795  14.049
62747W        W30965  31.560  44.930   1.488
62748W        W30966  37.986  31.426  12.029
62749W        W30967  35.377  12.889   4.023
62750W        W30968  24.888  37.527   3.710
62751W        W30969  24.014  22.131   1.680
62752W        W30970   4.839  37.464  10.748
62753W        W30971  10.347  31.415  14.838
62754W        W30972   8.974  16.591   1.862
62755W        W30973   5.457  44.488  11.490
62756W        W30974  19.563  41.325   2.234
62757W        W30975  16.636  28.951   0.231
62758W        W30976  32.965  16.392  12.679
62759W        W30977  25.989  13.700  10.678
62760W        W30978  31.120  13.126   2.792
62761W        W30979  34.225  44.228  14.531
62762W        W30980  29.161  38.038  10.714
62763W        W30981  17.723  26.409   0.876
62764W        W30982  21.144  23.766  11.481
62765W        W30983  17.058  30.578   3.166
62766W        W30984  13.871  26.703   2.157
62767W        W30985  43.088   3.717   2.509
62768W        W30986  36.477  28.605  14.117
62769W        W30987   9.310  18.562   2.863
62770W        W30988  32.133  27.335   3.758
62771W        W30989  17.820  13.800   1.434
62772W        W30990  14.729  33.593   3.083
62773W        W30991  27.922   6.309   4.430
62774W        W30992   7.302  20.494  13.456
62775W        W30993   3.457  28.329   2.927
62776W        W30994  18.967  34.363   2.807
62777W        W30995  27.140  27.706  11.980
62778W        W30996  23.895  34.115  13.755
62779W        W30997  40.334   7.929  11.910
62780W        W30998  17.184   2.937  10.936
62781W        W30999  36.637  29.159  14.410
62782W        W31000  13.729  11.372  14.478
62783W        W31001  15.281  18.241   0.245
62784W        W31002  44.842  16.361  11.578
62785W        W31003  21.443  23.746  13.156
62786W        W31004   1.932  16.504  13.100
62787W        W31005   6.216  36.482   4.367
62788W        W31006  29.436  26.184  14.974
62789W        W31007  15.776  11.348  13.416
62790W        W31008  10.125  31.753  13.573
62791W        W31009   7.873   1.911  14.471
62792W        W31010  34.597  37.765   2.319
62793W        W31011  37.566  13.095  11.224
62794W        W31012   3.231  13.276   1.493
62795W        W31013  20.231  32.339  14.769
62796W        W31014  36.517  16.342   1.921
62797W        W31015   3.848  37.612   0.343
62798W        W31016  22.048  43.948   3.022
62799W        W31017   0.892  13.621  12.012
62800W        W31018  39.059   0.333  14.840
62801W        W31019  29.934  12.282  14.953
62802W        W31020  27.481  27.931  14.943
62803W        W31021  14.662  33.475   0.720
62804W        W31022  25.657   7.938  12.903
62805W        W31023  13.790  13.800   0.429
62806W        W31024   0.255  25.579   2.767
62807W        W31025  28.680  13.386   0.805
62808W        W31026  27.477  11.820  14.097
62809W        W31027  27.577   2.892  14.046
62810W        W31028  22.037  44.027  14.516
62811W        W31029   2.585  17.094  12.536
62812W        W31030  23.807  25.474   3.856
62813W        W31031   5.792  42.055   1.879
62814W        W31032  18.440  20.334  13.977
62815W        W31033  31.994  23.737   2.386
62816W        W31034  27.254  10.181   1.824
62817W        W31035  38.080  24.668  11.093
62818W        W31036  30.560  15.962  13.023
62819W        W31037  38.310  40.308   4.112
62820W        W31038   2.399   8.912  10.787
62821W        W31039   5.700  22.608  14.011
62822W        W31040  24.095  42.587  14.712
62823W        W31041  27.844  34.953  11.984
62824W        W31042   0.214  25.036  10.590
62825W        W31043   4.887   8.356  13.203
62826W        W31044  26.010   5.683   3.606
62827W        W31045  24.136  31.674  14.902
62828W        W31046  26.111   5.716   1.397
62829W        W31047   5.233  17.124  13.560
62830W        W31048  30.656  11.576  12.146
62831W        W31049  32.860  15.701   0.242
62832W        W31050  42.066  36.912  11.646
62833W        W31051  42.878  26.185   1.850
62834W        W31052  42.302  10.631   0.487
62835W        W31053  22.541  27.489  14.044
62836W        W31054  27.234  11.820  12.036
62837W        W31055  22.000   7.807   3.672
62838W        W31056  34.778  27.940   2.246
62839W        W31057  37.009  42.385  12.350
62840W        W31058  22.065   6.783   2.298
62841W        W31059   2.832   8.612   3.831
62842W        W31060  37.529  35.056  10.694
62843W        W31061   6.325  12.783   1.732
62844W        W31062  12.588  31.041   0.232
62845W        W31063  31.701  28.451  14.902
62846W        W31064   7.597   1.888  10.222
62847W        W31065  31.459  12.625   4.340
62848W        W31066  35.879  34.950  12.057
62849W        W31067  16.704   3.455   1.322
62850W        W31068  17.792   3.211   2.188
62851W        W31069  30.171  17.911  11.021
62852W        W31070  19.199   7.873   2.757
62853W        W31071  22.087   1.736  11.542
62854W        W31072  25.051  40.971  14.352
62855W        W31073  14.350  34.899  13.485
62856W        W31074  39.372  29.198   0.430
62857W        W31075  19.960  39.515   0.894
62858W        W31076  25.351  13.665   4.123
62859W        W31077   8.421  22.424   0.442
62860W        W31078  22.444  13.732   0.186
62861W        W31079  13.233  11.124  14.251
62862W        W31080  23.611  11.278  11.969
62863W        W31081  34.261  14.479  14.358
62864W        W31082  20.782  40.478  14.831
62865W        W31083   9.122  10.879  11.136
62866W        W31084   4.798  36.927  14.904
62867W        W31085   1.247  29.694  13.896
62868W        W31086  42.399  16.753   1.040
62869W        W31087  41.273  13.774  13.477
62870W        W31088  30.526   6.774  13.839
62871W        W31089  44.954  39.504   0.874
62872W        W31090  16.356  44.257   0.365
62873W        W31091  21.087  20.570   1.660
62874W        W31092   2.864   8.714  12.599
62875W        W31093  43.035  20.072  11.648
62876W        W31094  42.912  14.618  13.750
62877W        W31095  28.800  27.529  14.693
62878W        W31096   9.356  21.818  12.572
62879W        W31097   9.696  18.082   1.801
62880W        W31098  42.293  34.644   2.744
62881W        W31099  13.555  24.406   4.741
62882W        W31100  41.713  42.371   0.791
62883W        W31101  28.444  21.921   0.356
62884W        W31102  26.847  33.544  13.035
62885W        W31103  35.773  16.804   1.756
62886W        W31104  30.235  23.122   3.392
62887W        W31105  21.963  12.894  11.178
62888W        W31106  40.001  29.957  13.535
62889W        W31107  18.185   8.969   1.814
62890W        W31108  15.066  37.727   2.702
62891W        W31109   4.781  23.167  11.384
62892W        W31110   2.240  10.213  13.573
62893W        W31111  14.397  25.079   3.812
62894W        W31112  27.420   3.049   3.185
62895W        W31113  36.584  14.170  12.129
62896W        W31114  38.342  17.993  14.845
62897W        W31115  27.849  17.674   0.406
62898W        W31116  13.741   9.836  10.681
62899W        W31117  17.747  18.172  11.122
62900W        W31118  12.549  27.973  13.340
62901W        W31119  25.947   0.072   0.900
62902W        W31120   7.438  29.026   2.319
62903W        W31121  10.789  42.273  10.949
62904W        W31122  30.362  14.603   5.503
62905W        W31123  33.761  12.289  10.900
62906W        W31124  35.320  10.659   4.464
62907W        W31125  40.974  28.475  13.376
62908W        W31126  24.612  29.997  13.496
62909W        W31127  12.566  25.379  13.405
62910W        W31128  29.076  36.734  11.139
62911W        W31129   5.443  44.491  12.861
62912W        W31130  12.201  26.371  14.005
62913W        W31131  20.259  12.152   3.642
62914W        W31132   2.310  19.939   0.941
62915W        W31133  25.792  15.265  14.787
62916W        W31134   1.603   5.172   4.149
62917W        W31135  19.220  38.742  14.045
62918W        W31136   9.675  35.891   1.817
62919W        W31137  27.993  29.693   2.408
62920W        W31138  36.815  15.653   1.261
62921W        W31139   5.257  28.579  13.745
62922W        W31140  40.197  40.182   5.149
62923W        W31141  44.360  38.450  12.881
62924W        W31142  28.004  41.903  13.119
62925W        W31143  18.734   4.830   3.296
62926W        W31144  17.331   1.759  13.560
62927W        W31145  13.419  36.426  12.986
62928W        W31146  20.741  19.340  13.765
62929W        W31147  16.331  32.178   2.191
62930W        W31148   5.019   2.269   4.683
62931W        W31149   4.695  36.908   4.690
62932W        W31150  27.396  16.098   0.013
62933W        W31151   0.340  30.907   0.564
62934W        W31152  34.965  13.401   0.342
62935W        W31153  38.931  42.905   2.882
62936W        W31154  39.524  18.430  12.814
62937W        W31155  27.467  30.547  14.378
62938W        W31156  21.187   0.715   2.716
62939W        W31157   8.054  34.141   0.823
62940W        W31158   9.591  33.593   3.563
62941W        W31159  34.606  43.267   1.294
62942W        W31160   3.436  14.106  14.492
62943W        W31161   1.782  32.495  12.521
62944W        W31162  41.950   6.960   2.291
62945W        W31163  36.857   7.080   3.613
62946W        W31164  12.722   6.263   0.398
62947W        W31165  13.596  28.210   4.578
62948W        W31166  29.932  41.191  13.887
62949W        W31167  14.607   3.217  11.818
62950W        W31168   7.777  14.297  13.133
62951W        W31169   9.813  22.010  13.879
62952W        W31170   6.719   8.983  12.926
62953W        W31171  12.995  14.679  12.954
62954W        W31172  40.799  42.969  12.385
62955W        W31173  19.158  11.400   9.680
62956W        W31174  30.963  30.192   4.679
62957W        W31175  19.173   5.157   4.708
62958W        W31176   5.148  30.199   2.415
62959W        W31177  18.119  17.287   4.162
62960W        W31178  37.553  13.874  13.472
62961W        W31179  16.968  34.363  13.526
62962W        W31180  44.804   3.729   4.234
62963W        W31181   9.244  14.239  12.613
62964W        W31182  37.069  23.143   2.149
62965W        W31183  34.065  28.916  11.565
62966W        W31184  29.901  26.965   4.397
62967W        W31185  34.894  15.196  11.399
62968W        W31186   5.789  34.578   0.459
62969W        W31187  33.614  41.527   0.995
62970W        W31188  44.285  28.224  12.479
62971W        W31189  29.650  32.116   1.798
62972W        W31190   8.743  20.466   2.951
62973W        W31191  43.942   9.353  11.697
62974W        W31192   3.676  36.606   4.394
62975W        W31193  22.269   0.671   0.338
62976W        W31194  35.020   1.351   4.133
62977W        W31195  44.637   7.368  13.870
62978W        W31196   3.239  37.432   1.445
62979W        W31197   4.760  20.234  14.745
62980W        W31198  43.750   7.764   3.660
62981W        W31199  36.842  23.974   0.328
62982W        W31200  10.798  15.759   4.266
62983W        W31201  44.452  20.774   1.040
62984W        W31202  11.165  38.392   1.406
62985W        W31203   8.821  33.638  13.264
62986W        W31204  34.081  10.468  13.705
62987W        W31205  30.594  33.440  13.461
62988W        W31206   7.265  26.097  14.017
62989W        W31207  35.924  27.013   4.206
62990W        W31208  15.755  10.253   4.019
62991W        W31209  41.273   3.930   1.800
62992W        W31210   9.878   5.806  12.623
62993W        W31211   2.789  18.634  11.544
62994W        W31212  26.278   8.444   0.335
62995W        W31213  40.164   6.618  10.801
62996W        W31214  33.854  19.239   0.948
62997W        W31215  12.740  29.708  12.895
62998W        W31216  27.401  44.234   0.802
62999W        W31217  22.192  31.308  12.548
63000W        W31218  31.253  43.006  10.515
63001W        W31219  29.181  15.727   3.943
63002W        W31220  16.325  33.618   0.299
63003W        W31221   3.310  28.251   3.419
63004W        W31222   6.815  33.483   1.702
63005W        W31223   3.852  13.109   2.440
63006W        W31224  34.343  40.246  12.550
63007W        W31225   0.588  19.414  12.888
63008W        W31226  10.783  39.711   3.785
63009W        W31227  28.962  14.397  12.392
63010W        W31228   6.851  28.934  10.782
63011W        W31229  40.372   9.687   3.305
63012W        W31230  38.250  18.564   3.779
63013W        W31231  24.552  36.635   3.331
63014W        W31232  18.595  37.951  11.179
63015W        W31233   2.522  25.022  11.129
63016W        W31234  27.699  43.727   1.718
63017W        W31235  37.225  42.247   1.173
63018W        W31236  21.594  26.172   0.879
63019W        W31237  20.203  20.201   3.158
63020W        W31238  23.616  10.257  11.649
63021W        W31239  37.627  23.096   2.262
63022W        W31240   9.528   6.803  14.929
63023W        W31241   1.736  32.453   4.327
63024W        W31242   6.937   6.607  12.539
63025W        W31243  27.968  23.643   1.281
63026W        W31244  30.445  41.746  11.106
63027W        W31245  24.223  15.767  12.432
63028W        W31246  10.294  42.563   1.000
63029W        W31247   2.474  19.336   3.231
63030W        W31248  17.762  37.838   0.760
63031W        W31249  43.024  39.040   0.858
63032W        W31250  38.899  39.923   2.133
63033W        W31251  31.146  40.738  14.421
63034W        W31252  10.858  40.878   1.462
63035W        W31253  22.614  25.612   2.946
63036W        W31254   0.933  43.750   0.249
63037W        W31255  29.578   1.955   0.378
63038W        W31256  41.741   6.404  12.107
63039W        W31257  33.153  16.082   2.187
63040W        W31258  29.177  25.972   1.358
63041W        W31259  36.127  43.748   4.678
63042W        W31260  26.042   1.332   3.227
63043W        W31261   1.721  23.294  13.193
63044W        W31262  34.562  28.001   2.724
63045W        W31263  33.540  23.783  12.527
63046W        W31264  26.496  23.771   3.656
63047W        W31265   1.381  31.860   0.287
63048W        W31266   2.824  28.228   3.187
63049W        W31267  27.950  17.680  10.616
63050W        W31268  26.050  18.241   2.101
63051W        W31269  16.741  42.422   1.389
63052W        W31270  15.655  27.497   2.387
63053W        W31271  39.845   8.686   1.917
63054W        W31272  17.059  33.894  14.402
63055W        W31273   5.758  26.296   3.406
63056W        W31274  29.465   0.369  12.085
63057W        W31275   4.998   2.991  13.105
63058W        W31276  13.580  20.025  11.685
63059W        W31277   7.983  44.340  13.055
63060W        W31278  23.126  34.464  12.403
63061W        W31279  17.821  39.500  14.095
63062W        W31280   4.723  11.791   2.416
63063W        W31281  37.865   7.741   2.188
63064W        W31282  31.040  33.996  11.678
63065W        W31283   3.941  43.239   1.931
63066W        W31284  20.226   6.694   4.224
63067W        W31285   6.192  38.894   0.921
63068W        W31286  43.512  31.962  14.241
63069W        W31287  12.368  20.461  14.401
63070W        W31288   7.561  14.906  11.875
63071W        W31289  15.244  41.907   3.481
63072W        W31290  36.936  38.332   2.312
63073W        W31291  36.828  12.903  12.521
63074W        W31292  13.664  31.959   3.276
63075W        W31293  29.213  18.509  11.622
63076W        W31294   4.487  24.517   3.278
63077W        W31295  25.922  30.018   0.785
63078W        W31296  32.089  17.594  14.406
63079W        W31297   9.358  42.051   4.665
63080W        W31298   4.952  21.725  12.487
63081W        W31299  11.235  44.753   4.638
63082W        W31300   0.786  15.150   1.527
63083W        W31301  19.242   8.881  14.389
63084W        W31302  15.396  11.457   2.227
63085W        W31303  27.314  23.713   0.301
63086W        W31304  42.786  26.094  10.464
63087W        W31305   9.561  25.322  11.942
63088W        W31306   4.043  28.201  14.259
63089W        W31307   9.308  12.554   3.609
63090W        W31308  36.920  17.838  10.673
63091W        W31309   9.303  18.787   4.751
63092W        W31310  13.979  23.178  14.811
63093W        W31311  44.327   1.876  11.289
63094W        W31312  29.718  34.953  10.682
63095W        W31313  14.573   3.859   3.214
63096W        W31314  32.650  22.359  14.015
63097W        W31315   3.673  31.116  10.829
63098W        W31316  35.361   8.169  13.907
63099W        W31317  38.411  12.749  14.261
63100W        W31318  17.284  37.254  12.097
63101W        W31319  20.584  25.487   3.610
63102W        W31320  38.657  29.479  11.624
63103W        W31321  26.680  38.193  14.383
63104W        W31322  43.326  24.679  14.261
63105W        W31323  34.935   1.009  14.387
63106W        W31324  28.442  14.656   4.304
63107W        W31325  24.979  36.070   3.710
63108W        W31326  10.369  40.043   1.300
63109W        W31327  20.016   3.334   2.149
63110W        W31328  15.819  19.504  13.901
63111W        W31329  24.122  13.029  13.438
63112W        W31330  29.434  20.063   3.315
63113W        W31331  12.693  40.994   3.116
63114W        W31332  19.202  41.353  10.967
63115W        W31333   0.281  24.661  12.441
63116W        W31334  41.264  17.528   0.148
63117W        W31335  39.246  28.068  11.549
63118W        W31336  17.022  32.123  11.034
63119W        W31337  32.075   6.344  12.640
63120W        W31338   9.725  42.555  12.123
63121W        W31339   2.040  27.592  13.679
63122W        W31340  26.499  18.010  13.541
63123W        W31341  12.594  38.926   2.658
63124W        W31342  28.674   2.974   3.628
63125W        W31343  15.664  16.640   4.586
63126W        W31344  42.661  37.441   2.221
63127W        W31345  30.161  32.975  11.788
63128W        W31346  26.316   9.809   4.616
63129W        W31347   9.289   1.783   3.642
63130W        W31348  36.869  15.336  11.527
63131W        W31349  42.478   1.901  14.249
63132W        W31350  44.028  38.066   4.907
63133W        W31351  10.148  37.332  10.127
63134W        W31352   3.823   3.406  14.738
63135W        W31353  20.514   2.511   3.189
63136W        W31354  29.716  44.818  11.582
63137W        W31355  19.731   4.802  10.006
63138W        W31356  40.313  30.248   9.852
63139W        W31357  37.565  32.510  10.668
63140W        W31358  38.958  41.427   9.804
63141W        W31359  10.208  17.206   1.769
63142W        W31360  40.220   9.282  11.228
63143W        W31361  27.226   5.800   3.202
63144W        W31362  27.917  28.185  12.354
63145W        W31363   8.172  30.579   0.599
63146W        W31364  38.919   6.023  12.096
63147W        W31365  21.730   4.626  10.689
63148W        W31366  32.187  11.217   0.034
63149W        W31367   8.078   9.265  13.748
63150W        W31368  26.712  17.216  12.518
63151W        W31369  23.627  16.027  14.458
63152W        W31370  32.721  36.444  13.906
63153W        W31371  28.667  34.701  10.463
63154W        W31372  33.950  20.949  13.381
63155W        W31373  14.234  30.410   2.696
63156W        W31374  29.869  44.149   3.991
63157W        W31375  27.158  41.384   4.216
63158W        W31376   2.400  22.783  11.829
63159W        W31377  30.387  10.843   1.741
63160W        W31378  29.457  21.135  12.933
63161W        W31379   3.331  16.650  11.521
63162W        W31380  21.767   7.295  11.052
63163W        W31381   6.999   9.415  13.056
63164W        W31382  24.916  22.060  11.327
63165W        W31383  34.104   2.728  10.234
63166W        W31384  42.175  43.393   3.420
63167W        W31385  40.406   1.197  11.196
63168W        W31386  26.701  29.487  12.325
63169W        W31387   4.829  23.938  14.787
63170W        W31388   8.715   5.705   3.396
63171W        W31389  27.734  29.318  14.903
63172W        W31390  40.335  10.248  14.725
63173W        W31391  40.979  29.241   0.373
63174W        W31392  38.528   3.168   3.330
63175W        W31393   0.472  14.214   4.100
63176W        W31394   4.761  22.700  11.200
63177W        W31395   6.889   7.439  12.879
63178W        W31396   3.275  22.712   2.149
63179W        W31397  12.328   6.749   4.598
63180W        W31398  26.097  36.546   2.636
63181W        W31399   2.573  29.735   4.204
63182W        W31400  35.004  23.265   2.532
63183W        W31401  18.760  20.711   4.522
63184W        W31402  33.588  44.805   1.794
63185W        W31403   3.919  16.687   0.892
63186W        W31404  32.905  16.138  12.189
63187W        W31405   0.458  10.832   0.283
63188W        W31406  38.601  33.430   2.843
63189W        W31407  40.908   6.966  11.580
63190W        W31408  33.147  15.761   3.323
63191W        W31409  39.275  33.329  11.130
63192W        W31410   3.264   1.494  14.779
63193W        W31411   8.540  36.459   3.205
63194W        W31412  26.446   9.885  11.573
63195W        W31413  37.930  14.438  11.580
63196W        W31414  17.601  12.083   2.707
63197W        W31415  35.897  13.035   4.725
63198W        W31416  27.613   9.135  11.018
63199W        W31417  16.726   1.485  10.083
63200W        W31418   1.962  28.078   2.734
63201W        W31419  16.674   2.306  14.997
63202W        W31420  12.393   4.827  12.481
63203W        W31421   5.708   8.298   4.072
63204W        W31422   1.071  40.358   3.100
63205W        W31423  42.494  28.612  14.927
63206W        W31424  14.702  31.925   2.837
63207W        W31425  25.499  25.926  14.629
63208W        W31426  26.991  34.437  12.671
63209W        W31427   2.180   7.572  14.559
63210W        W31428  40.260  16.488   3.351
63211W        W31429  19.332  44.795  13.678
63212W        W31430  35.069  19.261  10.748
63213W        W31431  11.134  36.208   4.189
63214W        W31432  36.805  11.709  10.663
63215W        W31433  25.667   6.985  13.078
63216W        W31434  39.515  24.278  12.534
63217W        W31435  38.937  10.663   1.449
63218W        W31436  24.586  44.647   2.847
63219W        W31437  13.579  29.453  12.462
63220W        W31438  35.156  24.169   1.996
63221W        W31439   8.292  42.986  13.748
63222W        W31440  26.510  21.612  10.546
63223W        W31441  43.765  33.946   3.216
63224W        W31442  33.308  12.412  12.947
63225W        W31443   8.625  11.916   3.476
63226W        W31444  12.337   1.842   0.752
63227W        W31445  24.968  38.352  13.009
63228W        W31446  43.459  38.279   2.804
63229W        W31447  34.073  12.544  12.931
63230W        W31448  29.486  10.179   0.736
63231W        W31449   7.476  42.425   2.746
63232W        W31450  21.321  22.154   2.151
63233W        W31451  26.429  42.725  10.354
63234W        W31452  37.181  41.856  13.031
63235W        W31453  14.042  22.526  12.136
63236W        W31454  27.451  14.543  14.358
63237W        W31455  19.359  37.156   2.297
63238W        W31456  42.529   5.060   1.196
63239W        W31457  16.106  12.783  13.281
63240W        W31458  16.535  10.374   4.152
63241W        W31459  25.094   6.858   4.510
63242W        W31460  31.182  38.912   2.401
63243W        W31461  16.076   9.781  13.821
63244W        W31462  34.902  26.108  14.528
63245W        W31463  23.181  26.975  10.391
63246W        W31464  23.956   7.925   2.069
63247W        W31465  25.644  23.409   0.904
63248W        W31466  11.244  12.892   4.816
63249W        W31467   7.161  23.118   3.686
63250W        W31468  31.379   4.915  13.361
63251W        W31469  26.075   3.891   4.227
63252W        W31470  27.496   2.281   2.843
63253W        W31471   8.186  12.114   3.676
63254W        W31472  42.794   1.020  11.089
63255W        W31473  31.411   0.894   1.417
63256W        W31474  34.140  26.906  13.041
63257W        W31475  44.031  23.393  12.684
63258W        W31476   6.472  11.304   4.087
63259W        W31477  41.293  12.152   0.716
63260W        W31478   8.654  18.299   4.994
63261W        W31479  18.114  38.099  11.349
63262W        W31480  32.212   2.498   1.840
63263W        W31481  13.886  19.524   4.918
63264W        W31482  22.459   6.687  13.138
63265W        W31483  15.408  16.462  12.011
63266W        W31484  33.984  44.036   1.764
63267W        W31485  26.173  29.816  14.972
63268W        W31486  37.248  35.285   0.540
63269W        W31487  33.054  31.566   0.327
63270W        W31488  10.367  11.465  13.795
63271W        W31489   0.800  24.035  14.821
63272W        W31490  20.081   6.833   1.265
63273W        W31491  44.088  23.508  14.496
63274W        W31492   2.946  42.988   1.953
63275W        W31493  13.501  23.517   4.220
63276W        W31494  37.507   3.337   0.228
63277W        W31495   2.460  36.792  13.327
63278W        W31496  28.383   4.102  12.778
63279W        W31497   7.445   0.430  14.586
63280W        W31498  10.258  39.108   2.751
63281W        W31499  40.763   3.693  13.922
63282W        W31500  38.904  41.393  12.099
63283W        W31501  29.874   2.384  12.156
63284W        W31502  16.992  31.834   2.832
63285W        W31503  23.825  33.225  14.090
63286W        W31504  39.645  39.018   0.937
63287W        W31505   4.715  26.057   0.392
63288W        W31506   4.335  18.723   2.785
63289W        W31507  43.810  15.583  11.971
63290W        W31508   2.331  36.616   1.733
63291W        W31509   1.397  39.329   3.072
63292W        W31510  16.740  31.753  13.993
63293W        W31511   3.514  39.754  14.465
63294W        W31512   8.209  15.726  13.919
63295W        W31513  28.185  19.753   0.071
63296W        W31514  19.735  42.702   0.729
63297W        W31515  38.265  34.370  10.739
63298W        W31516  21.598  34.433   0.526
63299W        W31517  17.395  25.423  13.426
63300W        W31518  29.139  27.030  10.711
63301W        W31519  37.442   8.857   5.117
63302W        W31520  37.163   3.609  10.040
63303W        W31521  14.193  39.751  11.999
63304W        W31522  17.751   0.465  12.795
63305W        W31523  16.343  19.345  13.842
63306W        W31524  13.853   7.435  12.010
63307W        W31525  39.289  41.364   1.433
63308W        W31526  39.367  43.325   3.477
63309W        W31527  30.566  26.940   3.793
63310W        W31528   4.307  34.629  10.822
63311W        W31529   8.328  32.826  10.656
63312W        W31530  10.171  15.744   4.046
63313W        W31531   2.956  13.216  14.911
63314W        W31532  30.628  29.944  13.924
63315W        W31533   9.738   0.327  13.870
63316W        W31534  11.222   7.503  11.002
63317W        W31535  44.244  10.565  11.159
63318W        W31536   0.993   1.735   5.138
63319W        W31537  42.329  25.213   5.016
63320W        W31538  16.758  38.749  11.043
63321W        W31539  28.692  19.131   0.898
63322W        W31540  10.790  43.741  11.107
63323W        W31541  41.899  40.444   3.474
63324W        W31542  28.370  11.468  14.163
63325W        W31543  44.288   6.418  11.306
63326W        W31544  25.163  33.663   0.475
63327W        W31545  23.577  42.051  11.173
63328W        W31546  27.164  30.168  11.320
63329W        W31547  22.709  42.219  11.625
63330W        W31548  44.739  27.926  12.554
63331W        W31549  22.718  10.738  12.816
63332W        W31550  11.221   8.369  13.847
63333W        W31551  28.584  15.640   0.910
63334W        W31552   3.622   4.279   2.285
63335W        W31553  24.591  44.288   3.683
63336W        W31554  33.393  17.070   0.840
63337W        W31555  12.338  32.051  12.320
63338W        W31556  25.399  23.488   1.377
63339W        W31557  27.028   7.286   1.439
63340W        W31558  33.518  29.006  13.300
63341W        W31559  23.597  42.471  12.888
63342W        W31560  25.948  36.113   3.387
63343W        W31561  29.513  21.830  14.220
63344W        W31562  33.589   4.379   4.720
63345W        W31563   3.892  15.605   1.548
63346W        W31564  34.751  20.549  11.064
63347W        W31565   3.786  16.713  11.175
63348W        W31566  28.455  40.522  12.082
63349W        W31567  33.628  15.744   2.393
63350W        W31568  20.782  29.578   5.280
63351W        W31569  28.123  11.235  10.604
63352W        W31570   7.637  11.818  12.467
63353W        W31571  13.534  11.697   3.805
63354W        W31572  39.358   4.726   3.760
63355W        W31573  11.906  29.357  12.610
63356W        W31574  32.462  32.807   0.186
63357W        W31575  19.722  20.451   1.673
63358W        W31576  13.229  41.256   1.187
63359W        W31577   0.442   1.909   0.475
63360W        W31578  22.521  18.628  12.474
63361W        W31579  16.570  30.093   2.773
63362W        W31580  10.859  21.978  13.358
63363W        W31581  22.313  38.295  10.167
63364W        W31582  13.062  28.629   0.430
63365W        W31583  34.850  34.381  14.447
63366W        W31584  23.587   3.721   4.642
63367W        W31585  35.265  19.161   2.020
63368W        W31586  24.154   7.735  14.758
63369W        W31587   9.758  13.529  12.937
63370W        W31588  13.690  37.574   2.372
63371W        W31589  11.026  34.895   0.780
63372W        W31590   9.850  38.052   2.275
63373W        W31591  10.872   6.341  14.997
63374W        W31592   7.185  16.892   0.855
63375W        W31593  43.010  41.887  12.742
63376W        W31594  44.718  30.986   1.812
63377W        W31595  22.202  20.536   0.963
63378W        W31596  29.716  42.911   2.438
63379W        W31597  37.508  31.559  13.343
63380W        W31598   6.428  22.285   4.519
63381W        W31599   6.314  28.446  12.126
63382W        W31600  31.931   6.885  10.078
63383W        W31601   3.883  10.563  13.813
63384W        W31602  35.481  17.545  12.938
63385W        W31603  27.160  35.878   0.377
63386W        W31604  33.578   7.139   1.347
63387W        W31605   0.920  44.604  14.936
63388W        W31606  30.455  24.510  12.986
63389W        W31607  32.528  30.016   3.402
63390W        W31608  16.090  25.696  12.036
63391W        W31609   3.422  26.132   4.944
63392W        W31610  32.304  10.332   0.930
63393W        W31611  35.824  34.351   1.946
63394W        W31612  17.049  42.392  11.457
63395W        W31613  15.217  30.224   4.632
63396W        W31614  18.374   5.250  12.377
63397W        W31615  15.448   3.426   3.296
63398W        W31616   2.356  18.339   2.436
63399W        W31617   8.519  24.027  13.662
63400W        W31618  35.592  34.943   1.737
63401W        W31619  37.011   8.681  13.461
63402W        W31620  27.066   4.031   2.678
63403W        W31621  16.760  31.426  10.804
63404W        W31622  12.846  43.478  11.207
63405W        W31623   8.274  44.298  12.597
63406W        W31624  14.815  42.043  12.381
63407W        W31625  12.885  14.077   0.022
63408W        W31626  32.304  35.027  14.492
63409W        W31627  40.478  43.693  13.021
63410W        W31628  33.513  14.264  10.760
63411W        W31629  38.987  22.225   4.216
63412W        W31630  13.324  34.632   1.632
63413W        W31631  37.911  26.363  13.822
63414W        W31632   5.219  13.248  12.579
63415W        W31633   4.410   7.989   4.228
63416W        W31634  36.591  36.579   2.237
63417W        W31635  27.628   1.845  11.748
63418W        W31636  42.359   5.164  14.072
63419W        W31637   8.459  13.761  13.419
63420W        W31638   0.917  42.532   3.961
63421W        W31639  37.007  30.178   0.242
63422W        W31640   1.563  14.668  11.379
63423W        W31641  32.035  24.694   0.727
63424W        W31642  32.627  11.530   3.559
63425W        W31643  40.439  31.154   1.141
63426W        W31644  28.456  27.432  11.624
63427W        W31645  30.560  32.902  10.352
63428W        W31646   6.179  33.888  14.589
63429W        W31647  40.289  13.809  13.524
63430W        W31648  13.394  26.109   3.725
63431W        W31649  35.101  42.042  10.764
63432W        W31650   9.390  33.679   4.044
63433W        W31651  29.588  25.413  11.651
63434W        W31652  38.654  44.753   1.586
63435W        W31653  37.540  16.106   1.284
63436W        W31654  34.020  38.866   3.535
63437W        W31655   8.299  36.568   4.196
63438W        W31656  17.642  42.136   3.793
63439W        W31657  26.156   5.503  13.773
63440W        W31658  37.639  43.048  10.305
63441W        W31659  15.814  27.101  11.113
63442W        W31660  14.726  41.561  12.524
63443W        W31661  34.069  23.911   0.317
63444W        W31662  38.472  15.662  14.817
63445W        W31663  44.703  12.591  14.348
63446W        W31664   6.845   0.698   4.138
63447W        W31665  15.998  40.853   2.268
63448W        W31666   1.284  23.142   0.899
63449W        W31667   3.587  35.442   2.487
63450W        W31668  29.466  27.128   4.625
63451W        W31669  26.621  33.024   1.397
63452W        W31670  19.727   6.675   4.080
63453W        W31671  28.046  35.099  12.889
63454W        W31672  38.867  42.297   4.598
63455W        W31673   3.440   8.703  11.041
63456W        W31674  21.593  29.284   4.916
63457W        W31675   5.065  41.510   3.537
63458W        W31676  15.468  13.112  14.877
63459W        W31677  24.939  11.169  12.362
63460W        W31678  37.242   1.974   2.805
63461W        W31679  28.612   9.343   3.352
63462W        W31680  30.962  27.503   5.438
63463W        W31681  26.279  35.700   3.431
63464W        W31682  10.842  20.712  10.857
63465W        W31683  40.026  15.207  10.331
63466W        W31684  34.299  25.416  14.878
63467W        W31685  32.009  22.158   3.298
63468W        W31686  22.102  36.860   0.251
63469W        W31687  26.947  26.856   4.979
63470W        W31688  16.828   5.380  10.645
63471W        W31689  34.472  34.816  11.883
63472W        W31690  38.818  25.096  14.943
63473W        W31691  12.669   7.286   3.852
63474W        W31692  38.556  12.167  10.564
63475W        W31693  19.147  24.488  11.222
63476W        W31694  32.280   1.219  13.996
63477W        W31695  25.259  29.523   4.560
63478W        W31696   0.628  41.840  14.814
63479W        W31697  19.296  15.078   9.868
63480W        W31698  12.440  37.591   1.384
63481W        W31699   8.398  17.771  12.282
63482W        W31700  21.560   1.385   3.894
63483W        W31701   2.852  17.711   0.237
63484W        W31702  35.561  44.684  11.113
63485W        W31703  42.762  30.562   2.261
63486W        W31704  43.816  33.139  12.807
63487W        W31705  17.167  20.504  13.374
63488W        W31706  37.806  36.156  13.611
63489W        W31707  22.675  17.597   4.869
63490W        W31708  33.397   5.308  12.031
63491W        W31709  16.148  15.199   2.755
63492W        W31710   4.424  25.176   2.735
63493W        W31711  34.481  38.305   2.092
63494W        W31712  35.022  20.626   0.499
63495W        W31713  44.313   4.267   4.582
63496W        W31714   0.423   8.107  12.922
63497W        W31715   0.321  31.674   4.518
63498W        W31716  34.115  21.746  13.799
63499W        W31717  44.584  18.545  13.833
63500W        W31718  14.844   3.256   1.924
63501W        W31719  19.226   4.269  10.690
63502W        W31720   9.139  37.271  13.816
63503W        W31721  27.234  18.540  12.538
63504W        W31722  23.006   6.219   2.266
63505W        W31723  25.944  32.389   2.443
63506W        W31724  11.302  17.061  12.000
63507W        W31725  13.216   5.157   3.639
63508W        W31726  37.883  10.156  10.581
63509W        W31727   2.356  18.001  12.529
63510W        W31728  38.434  38.288   0.508
63511W        W31729  35.458  16.283  14.931
63512W        W31730   3.429  18.660  13.970
63513W        W31731  12.828  17.253   2.297
63514W        W31732  36.938  41.494   4.666
63515W        W31733  23.093  17.626   4.529
63516W        W31734  10.660   8.319   4.112
63517W        W31735  30.031  26.953   1.906
63518W        W31736   2.716  27.103   0.869
63519W        W31737   7.884   4.931   3.051
63520W        W31738  44.709  31.518   3.650
63521W        W31739  36.607  37.058   4.733
63522W        W31740  35.088   6.588   0.531
63523W        W31741  38.336  44.790   4.682
63524W        W31742  28.964   0.067  14.522
63525W        W31743  42.547  12.814   1.443
63526W        W31744  18.690  38.854  13.166
63527W        W31745   2.334  38.703  11.670
63528W        W31746  18.354  22.489   4.641
63529W        W31747  23.135  38.524  13.272
63530W        W31748  14.592  17.849   2.799
63531W        W31749  41.635  42.326   4.096
63532W        W31750  44.769  16.566  10.236
63533W        W31751  16.006  38.549  14.214
63534W        W31752   8.274   3.443  11.090
63535W        W31753   1.638  15.497  11.050
63536W        W31754  20.188  16.857   3.740
63537W        W31755  13.035  15.660  10.096
63538W        W31756  24.746  28.577  14.929
63539W        W31757  22.000  30.726  12.076
63540W        W31758  39.250  44.612   1.507
63541W        W31759  22.784  13.238  11.184
63542W        W31760  23.262   8.169   2.870
63543W        W31761  27.108   9.191   1.764
63544W        W31762   7.265   2.202   1.210
63545W        W31763  26.812  40.299   4.365
63546W        W31764  23.423  16.669  12.971
63547W        W31765  38.064  30.229  11.675
63548W        W31766  44.712   0.045  13.959
63549W        W31767  20.567  42.283   1.301
63550W        W31768  40.335  30.027   2.701
63551W        W31769  21.449  39.818  10.544
63552W        W31770  26.440  38.522  11.079
63553W        W31771  36.837  27.213  12.497
63554W        W31772   1.464  18.268   4.824
63555W        W31773  33.599  39.915   0.368
63556W        W31774  16.009   0.805  11.470
63557W        W31775  36.514   9.879   0.756
63558W        W31776  23.754  17.770   3.646
63559W        W31777   8.446  14.763   1.870
63560W        W31778  15.338   5.460  12.972
63561W        W31779  14.333   1.780  10.082
63562W        W31780  16.766   9.866  14.365
63563W        W31781  26.887  38.629   2.658
63564W        W31782   7.428  42.786   4.583
63565W        W31783  26.081  13.256   1.285
63566W        W31784  39.679  37.716   1.285
63567W        W31785  11.374  38.553   3.166
63568W        W31786   4.757  17.008  12.462
63569W        W31787  30.876  26.471  13.411
63570W        W31788   4.771  21.516  14.059
63571W        W31789   4.859  32.615   3.223
63572W        W31790  30.220   1.750   3.421
63573W        W31791   8.812  21.972   3.976
63574W        W31792  29.279  16.326   4.184
63575W        W31793  25.709  23.929   1.131
63576W        W31794  20.356  10.293  10.447
63577W        W31795   8.776  24.958  13.041
63578W        W31796   4.906   5.352  12.356
63579W        W31797  32.112  36.934   2.274
63580W        W31798  29.077  32.494  11.201
63581W        W31799   4.374  11.183   1.500
63582W        W31800  21.582  11.534  12.992
63583W        W31801  17.120  33.040   2.223
63584W        W31802  36.010   4.385   2.935
63585W        W31803   1.736  10.841  12.428
63586W        W31804   9.149  19.177  14.516
63587W        W31805  21.992   6.754  12.924
63588W        W31806  42.333   2.307  12.046
63589W        W31807  41.834  16.949  12.068
63590W        W31808  18.173  10.101  14.458
63591W        W31809   0.868  17.306  14.485
63592W        W31810  27.721  22.941   3.254
63593W        W31811  32.528  17.212  13.720
63594W        W31812  41.265   5.189   4.723
63595W        W31813  31.144  21.929  11.150
63596W        W31814  23.774  14.771   3.152
63597W        W31815  21.533   6.693  10.457
63598W        W31816  28.443  22.507   4.172
63599W        W31817  25.983  40.842  14.735
63600W        W31818  24.025  14.670  13.205
63601W        W31819  40.767  33.553   3.846
63602W        W31820  18.426   9.331   0.234
63603W        W31821   4.429  21.969   2.241
63604W        W31822  27.492  20.992   2.131
63605W        W31823  27.265  31.361  11.987
63606W        W31824  17.211   0.929  10.762
63607W        W31825  37.817  38.616   3.933
63608W        W31826  28.138  38.967  14.469
63609W        W31827  32.496  44.851  14.900
63610W        W31828  26.276  27.691  13.527
63611W        W31829  35.562  26.856  10.265
63612W        W31830  23.085  30.176  14.705
63613W        W31831  39.081  25.143  10.729
63614W        W31832  22.450  14.670  13.971
63615W        W31833  14.289   1.370   5.267
63616W        W31834  39.018   1.151  10.911
63617W        W31835  31.417  31.128   1.810
63618W        W31836  21.399  31.639   5.443
63619W        W31837  24.874  40.061   0.459
63620W        W31838  36.088  10.701   3.921
63621W        W31839   3.485  25.695  13.338
63622W        W31840  34.597  37.061   3.667
63623W        W31841  38.293  28.132   2.686
63624W        W31842  20.063  35.913  14.286
63625W        W31843  37.327  43.362   4.029
63626W        W31844   2.032  30.552  12.902
63627W        W31845  20.359  25.850  14.285
63628W        W31846  29.168   4.008   2.093
63629W        W31847  17.105  21.917  10.728
63630W        W31848  15.395  40.313   2.773
63631W        W31849   9.882   6.864   0.363
63632W        W31850  12.487  20.754  14.832
63633W        W31851   5.176   3.181  11.738
63634W        W31852  23.261   6.431  11.573
63635W        W31853  34.903   1.583   4.706
63636W        W31854   1.950   9.314   0.738
63637W        W31855  20.746  21.037   2.339
63638W        W31856  36.656  43.506   1.342
63639W        W31857  11.125   8.057  12.458
63640W        W31858  27.553  38.470  12.655
63641W        W31859   0.352   8.851  14.010
63642W        W31860   6.427  29.471   0.297
63643W        W31861  37.997  41.959   4.563
63644W        W31862  41.640  37.608  10.851
63645W        W31863  29.581  33.981   1.775
63646W        W31864  28.245  31.373   3.048
63647W        W31865  41.849  39.415   0.524
63648W        W31866  32.970  34.667   3.257
63649W        W31867  21.591  20.414   2.344
63650W        W31868   0.981   8.799  13.046
63651W        W31869   3.192  35.053   1.743
63652W        W31870  21.769  43.484  10.498
63653W        W31871  33.300  21.798  10.287
63654W        W31872  38.507   9.176   4.204
63655W        W31873  34.471  10.110   4.253
63656W        W31874   5.394   6.464  14.358
63657W        W31875   8.010  42.634   4.838
63658W        W31876   0.274  35.669  11.143
63659W        W31877  29.201  17.107  11.641
63660W        W31878  39.737  33.464  14.177
63661W        W31879  44.523  26.461   1.759
63662W        W31880   3.312  40.335  12.465
63663W        W31881  41.785   1.484   2.753
63664W        W31882  36.572  26.162   3.634
63665W        W31883   1.479  20.976  11.405
63666W        W31884  25.332  40.839   0.954
63667W        W31885  25.762  25.396   4.344
63668W        W31886  40.980  26.274   2.440
63669W        W31887  15.825  31.582   0.379
63670W        W31888  41.744  18.287   1.258
63671W        W31889  20.911  42.980   1.774
63672W        W31890  16.358  10.643  13.882
63673W        W31891   4.412  16.686   4.511
63674W        W31892   1.784  19.730   1.369
63675W        W31893  13.321   8.892   1.206
63676W        W31894   8.609  27.539   2.763
63677W        W31895  12.367  18.814  10.968
63678W        W31896  41.192  30.607  14.546
63679W        W31897  30.499  13.167   3.688
63680W        W31898  28.286  36.393  13.093
63681W        W31899  43.449  38.926  13.170
63682W        W31900  18.235  26.468  10.254
63683W        W31901  36.688  19.225  14.978
63684W        W31902  37.317  29.824   0.483
63685W        W31903  25.259   8.377  12.036
63686W        W31904  33.108   3.884   4.147
63687W        W31905  10.376  39.110  13.922
63688W        W31906  26.621  41.225  14.627
63689W        W31907   0.224  38.507  13.262
63690W        W31908  27.146  24.055  11.489
63691W        W31909  21.630  33.484  13.765
63692W        W31910   6.621  12.884  12.494
63693W        W31911  17.707  31.951   2.385
63694W        W31912  36.826  29.933   2.350
63695W        W31913  18.838  43.003   1.796
63696W        W31914  24.667  34.552   4.389
63697W        W31915  41.828  21.603   4.446
63698W        W31916  16.277  34.438   1.852
63699W        W31917  33.083  38.260  13.375
63700W        W31918  24.650   0.757   3.791
63701W        W31919  16.896  18.746   2.240
63702W        W31920  38.941  14.408  11.874
63703W        W31921   1.938  11.719   1.682
63704W        W31922  28.116  31.865   3.141
63705W        W31923  20.646  21.717   4.517
63706W        W31924   6.000   3.234  12.268
63707W        W31925  28.487  12.682  14.107
63708W        W31926   1.986  19.704  11.610
63709W        W31927  36.107   8.204  14.406
63710W        W31928  30.625   7.548   3.428
63711W        W31929   8.729  10.807  13.613
63712W        W31930  24.093  42.873  10.355
63713W        W31931  30.439  38.559   1.787
63714W        W31932  43.448  20.778   0.177
63715W        W31933   9.779   9.456   4.264
63716W        W31934  27.602  29.405   3.195
63717W        W31935  39.932  24.603  10.359
63718W        W31936  21.162   4.755  14.749
63719W        W31937  39.399  37.941  11.939
63720W        W31938  15.690  19.820  11.996
63721W        W31939  40.846  18.342  10.788
63722W        W31940  42.991  28.992   3.067
63723W        W31941  26.153   3.828   1.400
63724W        W31942  22.201  24.222   4.068
63725W        W31943  40.606   2.527   3.505
63726W        W31944  29.266   8.405   2.865
63727W        W31945  25.749  40.891  12.438
63728W        W31946  21.487   1.886  13.221
63729W        W31947  29.387  12.903   0.900
63730W        W31948  44.175  35.050  10.503
63731W        W31949  31.659  16.743  10.581
63732W        W31950  12.270   0.614   4.067
63733W        W31951  30.512  39.772   0.882
63734W        W31952  37.935  17.209   4.154
63735W        W31953   2.898  16.788   0.922
63736W        W31954   4.289   0.479  14.389
63737W        W31955  13.085  22.892   3.880
63738W        W31956  38.869  23.140  14.113
63739W        W31957  44.905  40.836   2.904
63740W        W31958  39.127   1.338   4.534
63741W        W31959  11.185   7.286   1.187
63742W        W31960  18.688  10.296  11.191
63743W        W31961  20.519  19.716  11.318
63744W        W31962  43.921   8.011   0.357
63745W        W31963   9.517  28.433   1.699
63746W        W31964   8.065   1.852   1.446
63747W        W31965  30.402  10.626   3.933
63748W        W31966  29.643  29.460  11.064
63749W        W31967  16.725  15.661   4.575
63750W        W31968  13.909  41.949  13.981
63751W        W31969  11.647   0.730  12.399
63752W        W31970  16.452  25.131  12.820
63753W        W31971  42.458  15.065  13.518
63754W        W31972  38.380   3.001  13.424
63755W        W31973  17.081  23.025   2.957
63756W        W31974  42.456  35.533   1.831
63757W        W31975   5.818  17.716   2.862
63758W        W31976   3.830  30.187   2.765
63759W        W31977  44.477  40.086   0.796
63760W        W31978  41.173  41.680  11.047
63761W        W31979  11.185   3.303  14.881
63762W        W31980  23.944  33.618   3.809
63763W        W31981  25.577  36.618   4.891
63764W        W31982  43.500   6.182   1.837
63765W        W31983  35.485   5.293   0.535
63766W        W31984  37.477  12.616  11.065
63767W        W31985  23.649  30.493   4.596
63768W        W31986  40.897   7.192   1.862
63769W        W31987   5.858  43.756   3.554
63770W        W31988  38.331  10.723   2.203
63771W        W31989   7.127  32.169   3.348
63772W        W31990  24.854   1.801  13.335
63773W        W31991  44.546  29.013   0.222
63774W        W31992  13.724  31.415  13.538
63775W        W31993  28.559  24.162   4.964
63776W        W31994  15.346  22.597   4.889
63777W        W31995   7.964  17.517  12.694
63778W        W31996  26.012  22.285   3.099
63779W        W31997  21.480  13.110  13.992
63780W        W31998  24.990   0.236  12.603
63781W        W31999  13.024  23.236   2.948
63782W        W32000  15.445  11.632   0.159
63783W        W32001  27.701  23.394  14.906
63784W        W32002   2.019  17.505   0.222
63785W        W32003   3.799   2.762   3.165
63786W        W32004   1.173  17.679   4.201
63787W        W32005  26.036  24.257   0.830
63788W        W32006  14.079  21.348   3.030
63789W        W32007  44.831   7.888  11.649
63790W        W32008  21.774  14.638   4.176
63791W        W32009   8.443  20.469  14.940
63792W        W32010  29.466  34.994   5.002
63793W        W32011  12.464   9.143  14.580
63794W        W32012  17.238   5.755  12.869
63795W        W32013   4.683   1.578   3.183
63796W        W32014  33.369  13.896   2.843
63797W        W32015  11.323  16.499   0.363
63798W        W32016  39.597  11.970   1.698
63799W        W32017  37.502   5.697   4.937
63800W        W32018  27.883  32.209   9.989
63801W        W32019  24.797  21.059   4.944
63802W        W32020  35.527  19.213  14.270
63803W        W32021  13.411  37.329  12.963
63804W        W32022  22.217   7.973   0.593
63805W        W32023  20.078  36.601  12.607
63806W        W32024  23.710  24.156  14.766
63807W        W32025   6.799  40.531   1.816
63808W        W32026   4.725  16.234   2.697
63809W        W32027  29.876  30.501  13.840
63810W        W32028   8.356  10.065   0.776
63811W        W32029  15.376  37.001  11.999
63812W        W32030  33.722  17.810   4.853
63813W        W32031  15.832  37.278  13.781
63814W        W32032  13.294  27.987   0.857
63815W        W32033   4.489  33.023  14.949
63816W        W32034  30.995  33.473  11.045
63817W        W32035  31.027  23.944   4.077
63818W        W32036   8.386  26.762  14.161
63819W        W32037  39.512  43.799   3.303
63820W        W32038  44.961  35.580  14.125
63821W        W32039  34.603  38.273  14.724
63822W        W32040  42.901  24.090  13.915
63823W        W32041   8.737  16.117  13.509
63824W        W32042  22.063  11.100   3.779
63825W        W32043  28.977  10.125  11.157
63826W        W32044  31.941   5.668   3.221
63827W        W32045  42.412  27.760   2.637
63828W        W32046  18.219  41.763   3.205
63829W        W32047  17.028  20.742   0.351
63830W        W32048  33.365  34.491   2.199
63831W        W32049   4.712  26.104  14.451
63832W        W32050  26.086  29.818  10.725
63833W        W32051   5.515  11.747  13.502
63834W        W32052  25.087  42.953   1.302
63835W        W32053  19.825   8.271   2.690
63836W        W32054  35.308  41.312  12.224
63837W        W32055  16.265  38.242  10.303
63838W        W32056  34.531  32.627   3.435
63839W        W32057  23.636  36.259  14.630
63840W        W32058  20.032  42.267   0.755
63841W        W32059   3.140  27.138   2.852
63842W        W32060  32.102  26.279   2.781
63843W        W32061  25.953  37.617  14.517
63844W        W32062  43.766  41.810  13.325
63845W        W32063  11.799  42.730   5.027
63846W        W32064  33.925  34.015   1.845
63847W        W32065  25.242  33.622  10.289
63848W        W32066   6.911  23.041  13.060
63849W        W32067  14.813  26.695   4.581
63850W        W32068   5.802  39.386  10.617
63851W        W32069  14.359  38.074   1.756
63852W        W32070  23.471   3.330  13.938
63853W        W32071  38.104   5.016  10.866
63854W        W32072   7.644  37.500  14.084
63855W        W32073  23.768  25.081  10.155
63856W        W32074   6.503  43.980   1.361
63857W        W32075  44.971  22.144  13.437
63858W        W32076  27.888   3.663   0.921
63859W        W32077   4.959   4.395  11.595
63860W        W32078  17.991   1.773   3.652
63861W        W32079  41.392  22.241  13.395
63862W        W32080  30.864  32.489   4.182
63863W        W32081  36.484  31.199   2.795
63864W        W32082   3.068  13.587   2.808
63865W        W32083   0.002  29.597   3.621
63866W        W32084   5.326  19.697   3.232
63867W        W32085  36.092  16.119  11.183
63868W        W32086   3.837  38.909   0.922
63869W        W32087  19.231  43.526  14.566
63870W        W32088  44.634  10.572  13.549
63871W        W32089   0.819  41.294   0.351
63872W        W32090  36.955  26.616  14.798
63873W        W32091  36.334  11.584   2.700
63874W        W32092  14.816  28.206   1.763
63875W        W32093  12.749  21.028   4.095
63876W        W32094   1.519  31.539   4.137
63877W        W32095  10.207   6.346  10.980
63878W        W32096  38.353  20.320   4.339
63879W        W32097   4.846  13.900  14.667
63880W        W32098  43.395  28.541  11.186
63881W        W32099  34.084  35.638   1.024
63882W        W32100   6.246  40.661  11.500
63883W        W32101  28.906  20.807   1.719
63884W        W32102  38.569  27.216   3.562
63885W        W32103  15.178  16.195  10.147
63886W        W32104  32.399  35.103  10.110
63887W        W32105  35.231  30.957  11.180
63888W        W32106   8.463  10.244   5.087
63889W        W32107  12.752  34.002  13.772
63890W        W32108   0.425  30.581   4.927
63891W        W32109  15.617   9.777  14.748
63892W        W32110  11.247  19.326   0.821
63893W        W32111  29.076  25.038   3.648
63894W        W32112  21.444  20.999   3.583
63895W        W32113  17.853   9.367   1.878
63896W        W32114   4.849  41.863   3.851
63897W        W32115  31.844   5.325   1.253
63898W        W32116  21.033  22.693   3.740
63899W        W32117   9.607  27.601   2.802
63900W        W32118  23.145  19.624  11.279
63901W        W32119  26.837  23.566   0.185
63902W        W32120  19.172   9.251  12.131
63903W        W32121  41.576  39.459  10.587
63904W        W32122  40.590  11.811  11.142
63905W        W32123   3.204  19.472   2.809
63906W        W32124  25.115  44.636   1.850
63907W        W32125  12.707   1.734  12.877
63908W        W32126  12.909   9.415  14.598
63909W        W32127  23.853  34.802  13.104
63910W        W32128  38.813  13.149   1.302
63911W        W32129  20.733  38.814   4.724
63912W        W32130  41.337  37.263  13.572
63913W        W32131  29.613  30.270  11.382
63914W        W32132  44.366  11.119   4.844
63915W        W32133   1.848  29.518   5.000
63916W        W32134   1.938  40.306  12.690
63917W        W32135  40.913  38.308  11.558
63918W        W32136   8.743   9.937  14.934
63919W        W32137  38.519  35.803   3.305
63920W        W32138  16.875  20.535   4.629
63921W        W32139  18.624  38.839   4.107
63922W        W32140  26.197  24.746   0.697
63923W        W32141  37.276  27.007   1.358
63924W        W32142  43.596  23.748  11.700
63925W        W32143  41.145   9.882   4.453
63926W        W32144  35.737  18.079  11.053
63927W        W32145  23.454  34.534  12.866
63928W        W32146  34.933   9.869   4.025
63929W        W32147  21.767  24.186  10.695
63930W        W32148  21.797  37.382  10.272
63931W        W32149  32.212  27.707  12.925
63932W        W32150  26.617   2.914   3.654
63933W        W32151  34.505   3.708   2.418
63934W        W32152  22.536  20.549   3.132
63935W        W32153   9.906  27.463   0.489
63936W        W32154   9.590  39.476  11.439
63937W        W32155  14.292  16.358   3.057
63938W        W32156   6.814  27.753   4.384
63939W        W32157  12.420  40.245  13.648
63940W        W32158  34.153  33.552   1.881
63941W        W32159  21.667  23.034   0.249
63942W        W32160   5.356   0.777  13.915
63943W        W32161   1.013  30.166  10.766
63944W        W32162  44.975  42.858  13.516
63945W        W32163  11.289   8.321   3.943
63946W        W32164   0.506  31.916  11.084
63947W        W32165   6.809   5.069   4.850
63948W        W32166  11.154  39.909   1.737
63949W        W32167   1.659   8.552   1.371
63950W        W32168  11.815   8.314   4.849
63951W        W32169  42.864   0.492  11.169
63952W        W32170  39.369  30.417  11.975
63953W        W32171  39.906  26.020   3.762
63954W        W32172  28.494   5.410   5.111
63955W        W32173  26.729  37.651   0.385
63956W        W32174  37.808  12.322   0.974
63957W        W32175  28.399  18.806   3.968
63958W        W32176  26.688  14.265   4.475
63959W        W32177  16.304   8.802   0.234
63960W        W32178   7.192  37.584  10.497
63961W        W32179   2.250  30.527   2.186
63962W        W32180  15.854  11.294  14.843
63963W        W32181  19.706   0.944   2.684
63964W        W32182  12.000  16.523   2.179
63965W        W32183  32.792  30.085  13.972
63966W        W32184   9.869  14.804  10.880
63967W        W32185  36.372   2.966   2.810
63968W        W32186  42.552  23.280   1.735
63969W        W32187  26.688  43.436   2.845
63970W        W32188  39.575   3.166   0.039
63971W        W32189  37.817  25.120  14.756
63972W        W32190  20.310  28.045   4.679
63973W        W32191  33.356  16.589   4.193
63974W        W32192  24.252   2.028   2.634
63975W        W32193  13.023  24.977   2.621
63976W        W32194  14.371  19.181  11.644
63977W        W32195  42.381  19.531  12.906
63978W        W32196  10.171  12.697   3.495
63979W        W32197  41.936  20.081   3.871
63980W        W32198  34.046  10.012  12.027
63981W        W32199   1.968  25.420  14.969
63982W        W32200  18.762  20.113   1.982
63983W        W32201  18.203  41.426   4.085
63984W        W32202  28.659   9.114   0.152
63985W        W32203   4.613   9.967   1.726
63986W        W32204  29.522  17.030  11.252
63987W        W32205  12.517  42.906  11.964
63988W        W32206  36.307  23.084  14.973
63989W        W32207  31.966  33.172  12.921
63990W        W32208  32.929  24.528  11.339
63991W        W32209  42.050  27.096   0.929
63992W        W32210  24.152  34.219   1.362
63993W        W32211  12.748  18.034  12.512
63994W        W32212  19.832  22.190  13.852
63995W        W32213  43.354  11.874   4.578
63996W        W32214  34.895   3.838   4.314
63997W        W32215  28.020  32.925   0.819
63998W        W32216  15.742   0.163   4.082
63999W        W32217  28.465  22.435   0.400
64000W        W32218  15.988  27.822  14.540
64001W        W32219  15.718   0.786  11.040
64002W        W32220   1.187   9.482   4.228
64003W        W32221   6.695  23.742   4.667
64004W        W32222  27.581  32.535  10.751
64005W        W32223  23.976   5.693   1.874
64006W        W32224   1.044  29.187  12.976
64007W        W32225   5.695  25.788   3.412
64008W        W32226   5.373  20.568   1.872
64009W        W32227  29.407  28.618  11.524
64010W        W32228  44.000  13.676  12.399
64011W        W32229  35.446   1.220  14.526
64012W        W32230  40.361  14.177  11.933
64013W        W32231  35.361  31.897  12.134
64014W        W32232  10.290  30.365   0.791
64015W        W32233  42.323  38.987  11.387
64016W        W32234  30.457  28.512  11.497
64017W        W32235  13.056  19.083   4.186
64018W        W32236  23.257  16.703   3.542
64019W        W32237   4.431   1.398   1.794
64020W        W32238  14.083  22.088   3.766
64021W        W32239  28.633  11.267  12.809
64022W        W32240  11.687  31.799   4.163
64023W        W32241   5.460  10.760   0.752
64024W        W32242  28.519   4.231  10.442
64025W        W32243   0.682  44.230   2.907
64026W        W32244   9.835  42.349   1.214
64027W        W32245   7.425  16.256   2.920
64028W        W32246  17.568  13.669   0.975
64029W        W32247  22.773  33.822   4.617
64030W        W32248  26.981  22.157   4.096
64031W        W32249  43.836  33.603  11.153
64032W        W32250  15.046  37.966  11.932
64033W        W32251  18.506  23.133   3.102
64034W        W32252  33.511   6.303  13.536
64035W        W32253  44.072   1.737  12.523
64036W        W32254  24.048  27.509   1.386
64037W        W32255  11.844   8.358  12.314
64038W        W32256  30.863   7.161   2.274
64039W        W32257  40.963   9.585   1.820
64040W        W32258  43.097  35.990   0.130
64041W        W32259  37.404  20.359  11.516
64042W        W32260   3.454  22.990   0.949
64043W        W32261   2.487  12.260   4.803
64044W        W32262  38.998  22.167  13.725
64045W        W32263  19.104  40.746  12.894
64046W        W32264  40.322  36.089   4.296
64047W        W32265  13.345   2.761  13.843
64048W        W32266  21.678  21.448   2.363
64049W        W32267  14.717  42.489   2.947
64050W        W32268  27.053  17.603  12.377
64051W        W32269  25.124  13.137   4.038
64052W        W32270  36.226   2.918   1.737
64053W        W32271  22.608  36.119   1.290
64054W        W32272   2.987  36.623   2.731
64055W        W32273  43.747  40.159  13.976
64056W        W32274   7.239  43.874  11.689
64057W        W32275  40.646  14.771   4.142
64058W        W32276  40.581  16.099   3.169
64059W        W32277  19.079  39.951   3.703
64060W        W32278  44.952  15.694   4.890
64061W        W32279   5.779  25.332   1.105
64062W        W32280  11.838  41.595  14.534
64063W        W32281  18.526  34.085  10.419
64064W        W32282  28.949  22.703  12.153
64065W        W32283  21.232  41.244  11.632
64066W        W32284   8.974   2.367  14.038
64067W        W32285  22.237  39.914   3.496
64068W        W32286  33.215  25.460   4.755
64069W        W32287  12.720  12.057  14.790
64070W        W32288  20.612  33.430  11.944
64071W        W32289  23.956  22.219  11.151
64072W        W32290  21.638  18.071   2.331
64073W        W32291  32.824   5.354  14.784
64074W        W32292  40.607  19.978   2.444
64075W        W32293  25.043  26.115  14.475
64076W        W32294  44.291  21.799   0.412
64077W        W32295   2.952   4.483   0.782
64078W        W32296  24.636  21.516  12.019
64079W        W32297  38.094  34.147  14.102
64080W        W32298  43.351   0.032  11.337
64081W        W32299  28.055   5.913   4.769
64082W        W32300  44.886   2.939   2.844
64083W        W32301   5.221  20.477  10.503
64084W        W32302  32.865  44.591  12.526
64085W        W32303  35.101  44.820   0.896
64086W        W32304  44.406  22.040  14.513
64087W        W32305  14.040   1.841   4.060
64088W        W32306  25.214  37.506  14.886
64089W        W32307  40.118  26.190  13.499
64090W        W32308  20.480  38.119  10.769
64091W        W32309  36.819   4.427  11.678
64092W        W32310  19.747   1.239   3.217
64093W        W32311  27.433   5.860   0.597
64094W        W32312  35.173  14.408  11.139
64095W        W32313  31.362  37.056  14.992
64096W        W32314   7.043  29.552  12.068
64097W        W32315   4.831  35.867  11.395
64098W        W32316  43.673  39.657  13.121
64099W        W32317   9.250  16.170  13.572
64100W        W32318   4.907  16.659   1.926
64101W        W32319  28.063   9.744   0.895
64102W        W32320   1.725  25.708   1.831
64103W        W32321  35.452  24.565   2.142
64104W        W32322  39.197  13.637   0.526
64105W        W32323  35.130  32.596   1.816
64106W        W32324   4.959  22.853  14.412
64107W        W32325  10.224  42.502   1.505
64108W        W32326  35.967  16.670  14.420
64109W        W32327  43.365  41.060   3.106
64110W        W32328   8.307  37.761   3.651
64111W        W32329   8.322  21.984  12.136
64112W        W32330   3.588  20.545   2.028
64113W        W32331   9.363  19.946  12.376
64114W        W32332  15.450   6.660  12.614
64115W        W32333  40.792  11.614   5.414
64116W        W32334  29.367  40.006   1.892
64117W        W32335  19.109  35.096  12.919
64118W        W32336  40.525  27.643   2.471
64119W        W32337  30.852  41.230   4.098
64120W        W32338  18.077   4.310  13.801
64121W        W32339  21.106  35.405   2.708
64122W        W32340  25.718  34.023  13.804
64123W        W32341  33.884  19.001   1.838
64124W        W32342  34.513  16.630   2.646
64125W        W32343  32.021   2.927   4.795
64126W        W32344   7.674  19.911  11.069
64127W        W32345  29.940  36.747  11.361
64128W        W32346  10.922  33.566   3.802
64129W        W32347  11.323  35.572  13.055
64130W        W32348  40.260  41.245   2.332
64131W        W32349  27.459  14.615   4.014
64132W        W32350   6.662  29.998   1.279
64133W        W32351  37.299  36.035   3.569
64134W        W32352  10.453  33.205  13.329
64135W        W32353   2.739  17.116  13.884
64136W        W32354  26.181  40.265   2.242
64137W        W32355   2.907  33.445  14.359
64138W        W32356   2.459  33.101  11.453
64139W        W32357  17.291   2.065   0.768
64140W        W32358   7.631   1.413  14.502
64141W        W32359  16.047   4.445  10.747
64142W        W32360  33.077  27.108  14.712
64143W        W32361  11.105  28.502  11.109
64144W        W32362  18.534   5.298   2.470
64145W        W32363  33.634  26.028   2.630
64146W        W32364   3.576  20.877   0.329
64147W        W32365   9.982  15.311  10.956
64148W        W32366  10.232   4.754   4.543
64149W        W32367  30.438   7.269   0.923
64150W        W32368  25.968  15.532   3.607
64151W        W32369  23.292  11.813  12.581
64152W        W32370  27.369  35.668   0.915
64153W        W32371  38.699  41.531   4.306
64154W        W32372   1.122  24.562  14.114
64155W        W32373  24.766   6.706  11.636
64156W        W32374  34.402   5.067   1.340
64157W        W32375   5.216  35.352   0.300
64158W        W32376  10.609  38.519  12.851
64159W        W32377  17.842  16.830   0.866
64160W        W32378  15.571  25.553   0.253
64161W        W32379  33.151   4.414  13.039
64162W        W32380  28.490  34.377   3.827
64163W        W32381  32.947   9.272   4.619
64164W        W32382  35.108  44.432   4.098
64165W        W32383  10.043  32.739   4.502
64166W        W32384  25.839  39.399   2.009
64167W        W32385  41.550  22.746  10.713
64168W        W32386   2.820  23.979   0.311
64169W        W32387  27.048  29.371  10.754
64170W        W32388  29.693   8.046  11.769
64171W        W32389  34.300  42.065   4.528
64172W        W32390  16.649  41.661  14.931
64173W        W32391  37.466  17.097   0.747
64174W        W32392   4.777  35.070   0.281
64175W        W32393   7.218  32.079   4.203
64176W        W32394   8.879  10.926  14.094
64177W        W32395  17.129   1.846   2.898
64178W        W32396  23.753   8.610  12.377
64179W        W32397   4.794   5.318   1.381
64180W        W32398  31.824  32.017   5.005
64181W        W32399  27.086   9.842  13.714
64182W        W32400  22.014  14.031  10.610
64183W        W32401  42.364  20.217   1.768
64184W        W32402  11.385  37.399  12.466
64185W        W32403  24.668  16.784  14.871
64186W        W32404   9.664  21.764   4.488
64187W        W32405   2.771  35.325  12.009
64188W        W32406   7.722  23.799   3.377
64189W        W32407  44.546  20.921  12.331
64190W        W32408  21.501  18.527   1.149
64191W        W32409  37.296   7.788   4.447
64192W        W32410  27.941  12.686  14.385
64193W        W32411  21.679  11.773  14.020
64194W        W32412  38.861  34.013   3.434
64195W        W32413  19.734  29.893   0.744
64196W        W32414  26.897  32.590  12.973
64197W        W32415  18.535   1.173   4.947
64198W        W32416   3.470  42.055   3.715
64199W        W32417  42.381   2.530   4.623
64200W        W32418  15.228  26.669  14.823
64201W        W32419   6.966  14.759   0.795
64202W        W32420  31.959   2.214  10.680
64203W        W32421  27.204  19.989  11.904
64204W        W32422  41.744  40.593   1.756
64205W        W32423   1.091  19.357  10.402
64206W        W32424  41.381  32.062   5.044
64207W        W32425   0.569  18.470  13.528
64208W        W32426  37.746  44.976  10.478
64209W        W32427  12.458   2.317   4.169
64210W        W32428  33.599  17.504   0.321
64211W        W32429  22.467   5.158  14.748
64212W        W32430  37.751  35.527  13.500
64213W        W32431   9.388  16.588   3.100
64214W        W32432  17.792  11.832  12.982
64215W        W32433  32.066  30.733   0.807
64216W        W32434  43.823   8.309  14.908
64217W        W32435  25.554  18.999   1.458
64218W        W32436   0.248  34.437   4.238
64219W        W32437  11.093   2.521   3.989
64220W        W32438   6.653  16.345   3.215
64221W        W32439  23.704  27.559  14.929
64222W        W32440  18.330   3.849  14.859
64223W        W32441  33.075  37.869   4.310
64224W        W32442  43.377  41.577  14.455
64225W        W32443  40.326  32.046   0.475
64226W        W32444  38.964  21.542  11.621
64227W        W32445  43.820  27.473  13.445
64228W        W32446   8.920   7.289   0.296
64229W        W32447   6.920  41.111   2.249
64230W        W32448  30.014  36.706   4.106
64231W        W32449  33.642  21.560  14.963
64232W        W32450  23.125  30.242   3.933
64233W        W32451   9.747   2.658   2.162
64234W        W32452  10.689  12.176  12.381
64235W        W32453  12.138  38.917   3.281
64236W        W32454  42.354  42.843   1.374
64237W        W32455  44.747  25.011  14.401
64238W        W32456   7.175   9.680  11.328
64239W        W32457  21.023   2.287   4.081
64240W        W32458  38.743  17.999   4.310
64241W        W32459   7.360   4.312   3.685
64242W        W32460  16.961  36.589  14.920
64243W        W32461  42.423  12.270  13.839
64244W        W32462   2.252   1.814   2.709
64245W        W32463  12.835  31.046  11.352
64246W        W32464  11.707   8.132   0.173
64247W        W32465  38.068   7.231  11.919
64248W        W32466  20.541  26.640  14.569
64249W        W32467  38.094  34.251   0.715
64250W        W32468  33.445  27.712   0.510
64251W        W32469  18.778  28.953  12.188
64252W        W32470  38.758  17.870  13.872
64253W        W32471  37.478  23.548   0.536
64254W        W32472  10.021  10.327  11.142
64255W        W32473  44.248  34.480  14.748
64256W        W32474   3.243  42.925   4.127
64257W        W32475   8.460  28.333  13.024
64258W        W32476  23.706  33.930   0.323
64259W        W32477  21.594  17.387   3.655
64260W        W32478  41.329  33.094   3.914
64261W        W32479  28.982  31.041   1.648
64262W        W32480  33.476   6.164  14.869
64263W        W32481  37.858  17.567   3.424
64264W        W32482  17.091  25.756   4.204
64265W        W32483  41.064  39.569   1.715
64266W        W32484  19.247  35.407   0.722
64267W        W32485  11.414   4.779  10.480
64268W        W32486  35.997  41.915  14.231
64269W        W32487  14.560  32.580  11.882
64270W        W32488  42.820  14.047  14.926
64271W        W32489  11.301  16.816  13.086
64272W        W32490   0.867  25.372   3.621
64273W        W32491  42.458  26.128  14.651
64274W        W32492  33.602   1.901   2.128
64275W        W32493  19.547   7.783   1.317
64276W        W32494  21.890  38.935  13.328
64277W        W32495  44.704   2.444   4.683
64278W        W32496  12.749  32.479   1.596
64279W        W32497   3.203  20.340   4.535
64280W        W32498  25.694  29.000  11.623
64281W        W32499  41.257   0.339  12.424
64282W        W32500  42.832  40.077  12.893
64283W        W32501  30.572   7.793  13.930
64284W        W32502  19.985   3.787  13.794
64285W        W32503   3.791  26.925  11.122
64286W        W32504  35.149  26.541   5.229
64287W        W32505   6.894  31.354   3.904
64288W        W32506  44.285  21.654  11.570
64289W        W32507  37.035   6.677  13.811
64290W        W32508  22.214  27.129  10.775
64291W        W32509  31.100   2.814   4.648
64292W        W32510   9.148  30.495  11.478
64293W        W32511  11.797   2.451   3.247
64294W        W32512  11.642  18.270   3.367
64295W        W32513  40.861   9.634   0.758
64296W        W32514  10.321  21.153   4.356
64297W        W32515  16.099  19.935   3.709
64298W        W32516  36.527  22.254   4.255
64299W        W32517   5.142  42.293   4.036
64300W        W32518   6.116  42.429  12.590
64301W        W32519   2.190  36.554   4.967
64302W        W32520   1.230  11.777   1.221
64303W        W32521  38.174  15.183   4.041
64304W        W32522  24.905  22.179  11.957
64305W        W32523  42.967  30.043   1.665
64306W        W32524  21.175  19.629   3.990
64307W        W32525  40.031  44.681   2.782
64308W        W32526  21.942  40.295   3.643
64309W        W32527  40.557  44.932  13.612
64310W        W32528  17.397  23.312   0.254
64311W        W32529  20.151  34.839  12.450
64312W        W32530  32.496   6.879   1.855
64313W        W32531   4.513  16.919  14.976
64314W        W32532  26.695  33.400   1.774
64315W        W32533   7.253  12.479  11.587
64316W        W32534  17.147  18.272   1.471
64317W        W32535  24.946  11.555   0.113
64318W        W32536  19.646  19.565   3.769
64319W        W32537  17.186  27.753   4.050
64320W        W32538  35.709   9.784   1.264
64321W        W32539  13.035  39.330  13.519
64322W        W32540  38.692  35.450   0.307
64323W        W32541  21.537  14.657   1.244
64324W        W32542  18.102  34.920  14.736
64325W        W32543   4.893   2.047  11.987
64326W        W32544  29.020   8.271   2.443
64327W        W32545  25.960  21.768  14.361
64328W        W32546  23.082  21.846  13.415
64329W        W32547  12.137  27.087   3.643
64330W        W32548   1.763  10.140  10.551
64331W        W32549  19.365  21.093  12.205
64332W        W32550  12.705  24.078   0.345
64333W        W32551  17.079  37.897   1.987
64334W        W32552  17.117   8.329  11.891
64335W        W32553  13.457  41.045  11.609
64336W        W32554  32.383  33.210   2.888
64337W        W32555  20.190  33.578   4.253
64338W        W32556  25.432  10.082  10.267
64339W        W32557  40.322  27.228  10.408
64340W        W32558   3.582  28.976  14.260
64341W        W32559  16.782   0.038   2.425
64342W        W32560   3.486   2.229   3.872
64343W        W32561  31.332  16.614   0.235
64344W        W32562  29.645  33.343   9.927
64345W        W32563  34.953  11.672   2.747
64346W        W32564  26.195  24.698   3.061
64347W        W32565  26.617  44.554  12.886
64348W        W32566  21.103   9.707  13.338
64349W        W32567  22.001   7.801  14.192
64350W        W32568   3.897  16.561   3.618
64351W        W32569   4.839  12.051   3.242
64352W        W32570  23.985  14.328   0.880
64353W        W32571  19.543  11.153   0.840
64354W        W32572  35.344   2.023  14.415
64355W        W32573  29.222  35.507  13.299
64356W        W32574  25.457  10.555   4.268
64357W        W32575  41.855   7.038   0.934
64358W        W32576  38.451  37.756  12.927
64359W        W32577  26.602  39.104  12.047
64360W        W32578  27.632  43.138  11.380
64361W        W32579  14.174  38.626  11.258
64362W        W32580  41.414  36.295  13.743
64363W        W32581   2.138  20.172  10.761
64364W        W32582  40.968   8.363   1.328
64365W        W32583  34.083  40.330  10.336
64366W        W32584  25.070  21.074  14.323
64367W        W32585  25.278  22.024  10.946
64368W        W32586  24.732  19.017   0.058
64369W        W32587  12.395  12.025  13.489
64370W        W32588   0.317  10.077  11.432
64371W        W32589  10.227  29.067  11.075
64372W        W32590  30.340  27.968   1.276
64373W        W32591  19.375  33.372  12.881
64374W        W32592  15.902  31.031   1.928
64375W        W32593   0.281  35.700   1.904
64376W        W32594  13.654   6.149   0.260
64377W        W32595  11.246   0.268  12.105
64378W        W32596  23.209  38.357  12.014
64379W        W32597   3.783  11.617  10.360
64380W        W32598  38.935  27.634   4.661
64381W        W32599  26.629   8.339  12.026
64382W        W32600  18.039   6.873   4.031
64383W        W32601   9.767  34.890   2.786
64384W        W32602  12.797  25.635   2.000
64385W        W32603  38.817  11.436  10.765
64386W        W32604   8.335  41.506   4.187
64387W        W32605  44.912  18.612   3.014
64388W        W32606  33.179  13.920  12.109
64389W        W32607  31.099  13.632   3.185
64390W        W32608  24.104  16.086  12.835
64391W        W32609  20.681  19.082  13.317
64392W        W32610  24.698  17.774  13.076
64393W        W32611   5.212  37.934   2.321
64394W        W32612  35.477  23.470  12.946
64395W        W32613  42.878   8.909   0.782
64396W        W32614  43.465  11.393   3.315
64397W        W32615  43.260   9.007   3.281
64398W        W32616  30.899  30.084  12.550
64399W        W32617  34.840  30.269  13.411
64400W        W32618  44.383   7.723  10.953
64401W        W32619  15.038   3.240  14.176
64402W        W32620  27.759  37.719   3.616
64403W        W32621   1.242  29.802  14.433
64404W        W32622  39.439  14.734   2.717
64405W        W32623   4.245  43.987  14.943
64406W        W32624  14.252  12.405  12.419
64407W        W32625  29.187  36.347  12.489
64408W        W32626  42.739   8.247  11.039
64409W        W32627  27.930  37.583  12.367
64410W        W32628  18.072  34.442   3.389
64411W        W32629  40.294   1.488   4.939
64412W        W32630  18.119  43.445   3.768
64413W        W32631  35.468  14.211  12.629
64414W        W32632   2.994  29.361  13.068
64415W        W32633  28.341  28.543   2.395
64416W        W32634  30.583   7.681  10.637
64417W        W32635  14.859  37.484   0.846
64418W        W32636  14.272  38.064   3.963
64419W        W32637  12.651  22.695   1.967
64420W        W32638   7.203  33.504   3.709
64421W        W32639  40.733  36.441  10.512
64422W        W32640   8.753  21.571   0.784
64423W        W32641  24.729  42.370  14.432
64424W        W32642  32.915  16.727   0.543
64425W        W32643  34.047  30.495  14.934
64426W        W32644  13.173  34.520   0.296
64427W        W32645  22.175  30.161   3.822
64428W        W32646  33.922  31.204   4.074
64429W        W32647  40.708  26.664   3.256
64430W        W32648  18.432  25.275  10.970
64431W        W32649   6.624  13.310  11.040
64432W        W32650   6.758   6.434  10.565
64433W        W32651   0.419  23.566  13.237
64434W        W32652  30.416  31.368  14.700
64435W        W32653   3.243  20.767   2.376
64436W        W32654  18.223   5.908   2.218
64437W        W32655  29.857  12.360   0.839
64438W        W32656  21.196   4.653   4.786
64439W        W32657   2.508  39.522   0.893
64440W        W32658  20.784  11.558  11.201
64441W        W32659  36.968  27.694  12.409
64442W        W32660  24.113  27.323   4.112
64443W        W32661  43.561  31.427  14.214
64444W        W32662  32.060  34.146  12.560
64445W        W32663  26.488   5.887  12.831
64446W        W32664  35.465  29.596   1.860
64447W        W32665  12.796  36.807   4.210
64448W        W32666  32.366  39.833   1.880
64449W        W32667  31.434  13.747   0.248
64450W        W32668  26.549  39.958   4.678
64451W        W32669  21.507  35.770  10.485
64452W        W32670  28.545   4.839  14.589
64453W        W32671  14.120   1.217  14.627
64454W        W32672  26.808   4.292   1.324
64455W        W32673  33.401  39.625   1.301
64456W        W32674  16.156  42.310   3.204
64457W        W32675  43.436  26.070   4.157
64458W        W32676  15.062  42.853  12.596
64459W        W32677  23.042  11.539   0.524
64460W        W32678   0.529  36.156   1.950
64461W        W32679   7.827  14.774  10.532
64462W        W32680   1.572  43.484  13.039
64463W        W32681  43.744  42.989   4.095
64464W        W32682  28.496  29.479  14.596
64465W        W32683   1.171   1.177  13.522
64466W        W32684  22.575  19.007  12.138
64467W        W32685   6.067   6.375   3.411
64468W        W32686  40.432   4.834   1.877
64469W        W32687   0.015  12.481  13.941
64470W        W32688  44.486  41.145  10.194
64471W        W32689  37.991  26.411   1.941
64472W        W32690  15.305  44.515   2.247
64473W        W32691  37.095  38.027  12.002
64474W        W32692  32.806  40.381  11.239
64475W        W32693   2.109   0.262  10.907
64476W        W32694   2.440  17.232   4.555
64477W        W32695  20.858  36.371  10.306
64478W        W32696   9.981  19.679  10.847
64479W        W32697  15.549  29.453   4.369
64480W        W32698  13.848  21.665  10.421
64481W        W32699   3.836  12.268   0.793
64482W        W32700   0.685   3.934  14.755
64483W        W32701   6.752  11.223   4.521
64484W        W32702   6.958  21.028  11.665
64485W        W32703  15.410   3.312  12.970
64486W        W32704   8.350   1.746  14.769
64487W        W32705  43.874  10.337  13.508
64488W        W32706  20.720   6.178  11.575
64489W        W32707  21.997  17.641  11.610
64490W        W32708   6.604  22.196   0.097
64491W        W32709  26.318  18.780  14.494
64492W        W32710  22.127  18.133   0.915
64493W        W32711  42.793   6.975  10.612
64494W        W32712  10.593   1.337  10.699
64495W        W32713  12.852  29.217   1.446
64496W        W32714   1.183  25.479   0.830
64497W        W32715   7.354  30.379   3.264
64498W        W32716  12.105  35.904   1.789
64499W        W32717  30.956  27.451  11.582
64500W        W32718  30.049   6.611   4.046
64501W        W32719  26.218  42.016   3.459
64502W        W32720  29.014  34.141  14.809
64503W        W32721   6.934  37.328   0.569
64504W        W32722  42.100  19.660   4.149
64505W        W32723  10.441  23.108  10.777
64506W        W32724  20.992  33.905   3.519
64507W        W32725   0.278  39.976   3.321
64508W        W32726  37.047  16.697  12.503
64509W        W32727   7.770  29.303  14.175
64510W        W32728  17.442  22.981  11.537
64511W        W32729  19.558  15.472   3.742
64512W        W32730  16.078  37.382  14.273
64513W        W32731  23.546  15.804  13.973
64514W        W32732  34.901  15.795   3.795
64515W        W32733  35.464  43.386  12.534
64516W        W32734  17.021  18.688  14.345
64517W        W32735   3.461  30.556  11.443
64518W        W32736  16.522  18.580  14.352
64519W        W32737  15.296   1.733  14.480
64520W        W32738  15.295  40.026   0.817
64521W        W32739   4.426   3.730  14.050
64522W        W32740  19.985  37.785  10.967
64523W        W32741  41.801  34.869   4.213
64524W        W32742  24.993  26.950  11.244
64525W        W32743  22.487  12.802  12.916
64526W        W32744  41.869  40.278   2.423
64527W        W32745  33.649   2.688  11.039
64528W        W32746  33.028  11.601   0.502
64529W        W32747   2.909   3.951  14.863
64530W        W32748  37.000  11.951  12.533
64531W        W32749  16.377  17.651   1.814
64532W        W32750  11.822  26.962  12.844
64533W        W32751  34.231  39.347   3.679
64534W        W32752   8.658  43.319   5.054
64535W        W32753  42.356   2.440   1.312
64536W        W32754   3.523  17.139   0.268
64537W        W32755  21.140  44.964   4.643
64538W        W32756  35.512  18.065   0.448
64539W        W32757   0.787   1.214  12.523
64540W        W32758  24.496  30.659  12.984
64541W        W32759  26.856  39.922  13.305
64542W        W32760  32.572  30.079  11.193
64543W        W32761  41.787   4.896   3.338
64544W        W32762  23.050   9.630  13.480
64545W        W32763   6.054   6.212   1.607
64546W        W32764  13.287  44.004   0.318
64547W        W32765  28.075  28.597   1.967
64548W        W32766  35.448  30.925   3.230
64549W        W32767  32.883   9.814  12.207
64550W        W32768  34.704  26.597  13.280
64551W        W32769  37.966  15.527   2.215
64552W        W32770  18.962  36.991   4.057
64553W        W32771  35.153  15.160  10.971
64554W        W32772   6.195  44.092  14.495
64555W        W32773  33.861  42.518  10.706
64556W        W32774   8.830  37.994   4.584
64557W        W32775  13.878  38.508  10.481
64558W        W32776  41.868  18.399   0.191
64559W        W32777  22.154  16.627   1.342
64560W        W32778   9.969  42.592  12.839
64561W        W32779  10.625   4.716   1.320
64562W        W32780  35.919  10.577  14.796
64563W        W32781  15.746  32.943  12.548
64564W        W32782  40.905  24.612   4.694
64565W        W32783  26.489  22.620  12.441
64566W        W32784  10.918  31.965   1.371
64567W        W32785   5.873  25.773  11.618
64568W        W32786  25.476   6.402   1.243
64569W        W32787  38.038   5.501  12.074
64570W        W32788   0.849  36.884  14.260
64571W        W32789  31.566  35.350   1.435
64572W        W32790  42.503  20.761   4.056
64573W        W32791  33.482   0.734  13.973
64574W        W32792  35.146  29.786  14.883
64575W        W32793  22.450   1.873  11.191
64576W        W32794  37.289   3.133  10.971
64577W        W32795   5.464  10.192   4.154
64578W        W32796   5.851   6.819   4.331
64579W        W32797  22.444  33.370  14.418
64580W        W32798  39.569  18.962  12.867
64581W        W32799  28.660  34.805   0.443
64582W        W32800  13.202  23.142   3.442
64583W        W32801  15.070   0.292   2.420
64584W        W32802   0.606  38.886  11.079
64585W        W32803  23.192  39.489   4.594
64586W        W32804  21.371  10.339   3.818
64587W        W32805  36.415  36.992   3.141
64588W        W32806  39.240  28.642  13.273
64589W        W32807  34.144  20.612   0.987
64590W        W32808   3.938  35.800   2.660
64591W        W32809   1.992  44.416  13.953
64592W        W32810  25.861   6.625   3.803
64593W        W32811  32.730  26.999  14.317
64594W        W32812  35.697  33.632   0.302
64595W        W32813  14.165  16.359   0.637
64596W        W32814  10.204  17.307   0.846
64597W        W32815  44.151  22.240   3.270
64598W        W32816  40.311  18.684  13.433
64599W        W32817  28.114   8.602   2.296
64600W        W32818  20.481  17.891   1.317
64601W        W32819  22.233  32.334   1.425
64602W        W32820  12.676  28.667   4.355
64603W        W32821  31.017  27.644   0.475
64604W        W32822  42.020  16.096   0.014
64605W        W32823  28.551  37.579  13.457
64606W        W32824  43.867   9.372  14.566
64607W        W32825  43.471  12.619   4.076
64608W        W32826  20.126  44.419   2.693
64609W        W32827  37.093  12.650  14.870
64610W        W32828  30.378  22.941   4.033
64611W        W32829  11.702  44.807  14.454
64612W        W32830  27.584  36.511   1.004
64613W        W32831   7.852  29.626   2.694
64614W        W32832  26.831  36.256  11.523
64615W        W32833  32.640  36.960   0.844
64616W        W32834  10.748  33.105   3.694
64617W        W32835  18.714  33.930   3.994
64618W        W32836   8.921   3.856  13.504
64619W        W32837  37.843   8.402   4.344
64620W        W32838  25.354   0.010   3.594
64621W        W32839  16.230   1.947   1.421
64622W        W32840   9.609  22.602  11.692
64623W        W32841  22.010  14.210  14.800
64624W        W32842  35.172  18.720  11.449
64625W        W32843  22.103   9.289   4.607
64626W        W32844  20.592  35.560   4.146
64627W        W32845  20.765  17.296   4.326
64628W        W32846  31.205  13.204   3.441
64629W        W32847  23.295  32.751  13.427
64630W        W32848  36.941  39.888   4.049
64631W        W32849  35.334   0.658   2.926
64632W        W32850   3.718  24.035   3.178
64633W        W32851  17.690  26.997  12.175
64634W        W32852  44.457  27.075  13.120
64635W        W32853  32.559  40.409   4.603
64636W        W32854  34.866  38.793  10.723
64637W        W32855  43.939  14.816  14.517
64638W        W32856  27.140  25.250  14.523
64639W        W32857   3.870  39.859  10.973
64640W        W32858  38.932   9.460  12.607
64641W        W32859  32.320  11.700   0.914
64642W        W32860  17.315  23.103  13.904
64643W        W32861  42.496   4.694  11.150
64644W        W32862  23.253   3.839  12.910
64645W        W32863  16.966  42.204   4.343
64646W        W32864   8.412   1.928  12.558
64647W        W32865   9.119   5.015   2.225
64648W        W32866  24.550  32.153  12.569
64649W        W32867  12.277  11.302   1.911
64650W        W32868  39.467  31.661   4.117
64651W        W32869  26.759  34.072  11.687
64652W        W32870  15.339  13.112   3.682
64653W        W32871   1.019   8.368  12.437
64654W        W32872  44.071  25.491   0.256
64655W        W32873  42.850  30.938  13.803
64656W        W32874  32.343  25.856  13.837
64657W        W32875  21.313  21.515  13.636
64658W        W32876   0.025  43.350  12.957
64659W        W32877  42.821  40.254   1.379
64660W        W32878   1.267  37.909   3.029
64661W        W32879  37.903  30.113  14.281
64662W        W32880  43.956   2.927  11.600
64663W        W32881  25.673  13.864   9.868
64664W        W32882  35.845   1.231  14.873
64665W        W32883  19.600  19.511   1.785
64666W        W32884  21.025  11.385  12.889
64667W        W32885  37.199   1.446   3.731
64668W        W32886  26.548   1.877  10.676
64669W        W32887   6.201   7.551   2.749
64670W        W32888  37.923  42.293  12.143
64671W        W32889  44.915  17.157  12.971
64672W        W32890  19.402   6.362  14.749
64673W        W32891  11.247  15.866   4.687
64674W        W32892  18.483  34.555   1.654
64675W        W32893  39.963  13.548   4.331
64676W        W32894  18.015  18.600  12.391
64677W        W32895  28.753  15.259   1.969
64678W        W32896  34.883   6.235   3.425
64679W        W32897  28.787  36.532  12.757
64680W        W32898  38.844   2.207  13.514
64681W        W32899  24.455   6.545   2.915
64682W        W32900  43.381  27.984   3.895
64683W        W32901  37.394  21.607   2.304
64684W        W32902  32.565  31.905  14.815
64685W        W32903  19.099  14.390   4.122
64686W        W32904  39.298  44.512   2.307
64687W        W32905  23.633  44.014  11.675
64688W        W32906   4.309  22.429  12.850
64689W        W32907  36.280  31.439  11.536
64690W        W32908  22.118  19.058  13.798
64691W        W32909   8.736  16.832  12.033
64692W        W32910  37.077  19.597   2.701
64693W        W32911  24.000  13.425   2.047
64694W        W32912  23.566   0.401   3.768
64695W        W32913  42.795  20.654  11.411
64696W        W32914  41.797  14.661   2.762
64697W        W32915   8.390   5.691   3.786
64698W        W32916  33.798   5.952  13.233
64699W        W32917  19.127   9.949   4.561
64700W        W32918  38.542  29.959   1.675
64701W        W32919  30.480  30.488  14.647
64702W        W32920  31.413  30.439  14.202
64703W        W32921  33.461  19.773   5.016
64704W        W32922  13.005  40.443   3.845
64705W        W32923  11.398   4.265   3.725
64706W        W32924  42.740  16.541  13.776
64707W        W32925   2.003  12.405   4.533
64708W        W32926  27.264  22.481  13.507
64709W        W32927  23.185  13.963   2.848
64710W        W32928   6.198   9.851   3.607
64711W        W32929  33.679   3.246  14.397
64712W        W32930   4.980  15.788   2.712
64713W        W32931  41.061  10.685  14.863
64714W        W32932  26.333   5.977   3.238
64715W        W32933  29.506  18.288   4.975
64716W        W32934  11.609   7.258  11.324
64717W        W32935  23.670  37.199   0.433
64718W        W32936  18.807  38.419   3.199
64719W        W32937  30.646  39.845   2.262
64720W        W32938  26.087  12.037  13.360
64721W        W32939  31.878  22.046  11.921
64722W        W32940  17.546   6.140   3.142
64723W        W32941   3.242   5.022  12.328
64724W        W32942  33.124  22.578  14.323
64725W        W32943  27.650  31.914   2.402
64726W        W32944  29.218  33.184  13.585
64727W        W32945  17.002  37.143  10.784
64728W        W32946   3.950  10.410   1.260
64729W        W32947  31.930  25.138   1.546
64730W        W32948  14.776  31.445   2.384
64731W        W32949  29.373  13.720  12.879
64732W        W32950  33.970   2.245   0.273
64733W        W32951  27.519  30.343   4.237
64734W        W32952  22.143  37.969  12.492
64735W        W32953  39.041   7.607   3.674
64736W        W32954  23.187   0.310  13.975
64737W        W32955  21.687  39.388  13.247
64738W        W32956  31.495   3.672  14.765
64739W        W32957   9.242   6.449  11.005
64740W        W32958  24.199  35.617   2.706
64741W        W32959  13.653   5.673  11.167
64742W        W32960   0.506  22.011   0.654
64743W        W32961  28.767   5.009   3.425
64744W        W32962   8.926   1.965  11.467
64745W        W32963  21.012  34.394  13.025
64746W        W32964  44.762  31.628   2.286
64747W        W32965  23.078  13.346  13.982
64748W        W32966   7.313  16.238  12.565
64749W        W32967  25.148  13.621   1.192
64750W        W32968  16.819  39.042  13.258
64751W        W32969  12.392  17.921   3.239
64752W        W32970  44.697   6.305  10.949
64753W        W32971  26.707  12.177   0.571
64754W        W32972  15.644  38.205  14.888
64755W        W32973   0.511  44.499  10.876
64756W        W32974  26.965  22.086  13.304
64757W        W32975   4.937  40.025   0.430
64758W        W32976  14.927  13.598   5.440
64759W        W32977  25.159  23.272  12.435
64760W        W32978  43.320  44.359   3.252
64761W        W32979  15.723  41.027  12.599
64762W        W32980  32.137  35.515  14.348
64763W        W32981  34.876  25.108  10.122
64764W        W32982  21.982  31.228  11.073
64765W        W32983  34.022  41.844  11.750
64766W        W32984  34.214   7.253   3.304
64767W        W32985  43.498   3.761   4.353
64768W        W32986   3.856  28.689   2.936
64769W        W32987  14.667  38.442   4.636
64770W        W32988  21.646  37.598   9.477
64771W        W32989  25.224   2.360   0.311
64772W        W32990  14.853   0.938  13.940
64773W        W32991   9.353  33.280  11.858
64774W        W32992  11.551  34.775   4.128
64775W        W32993  41.752  12.080  11.611
64776W        W32994  12.895   5.763  13.720
64777W        W32995  12.771  40.545   3.372
64778W        W32996  39.074  24.507   3.782
64779W        W32997  21.415   5.081  11.958
64780W        W32998  17.540  21.227  10.760
64781W        W32999   5.425  39.476  13.822
64782W        W33000  37.443  26.963   4.309
64783W        W33001  21.719  34.622   1.378
64784W        W33002   3.525  14.762   3.637
64785W        W33003  20.896  43.875  11.606
64786W        W33004  12.679   5.947  11.935
64787W        W33005  36.069  24.453  13.516
64788W        W33006  15.219  18.315  14.709
64789W        W33007  43.965  20.084  13.422
64790W        W33008  25.198   9.788   2.351
64791W        W33009   2.669  26.667   2.554
64792W        W33010  23.220  20.011  13.106
64793W        W33011  16.464  38.266  13.070
64794W        W33012   9.062  20.511  12.592
64795W        W33013  30.504   4.463  12.233
64796W        W33014  36.550  36.845   1.234
64797W        W33015   8.991  23.518   4.641
64798W        W33016  34.010  11.104  14.494
64799W        W33017   9.798  26.992  11.659
64800W        W33018   7.283  13.847  13.899
64801W        W33019  31.962  36.299   1.034
64802W        W33020   5.708  22.579   2.190
64803W        W33021  12.552  42.209   5.068
64804W        W33022  20.641  28.465  11.943
64805W        W33023  25.219  19.168  14.940
64806W        W33024   5.447   2.976  14.246
64807W        W33025  22.005  34.643   2.688
64808W        W33026  22.064  13.719  11.727
64809W        W33027  28.452  17.698   1.258
64810W        W33028   3.730  29.822  12.605
64811W        W33029  38.871  20.949  12.441
64812W        W33030   9.756  37.331  13.529
64813W        W33031   5.739   3.856   0.884
64814W        W33032  17.822  30.989  11.395
64815W        W33033   4.299   2.021  14.423
64816W        W33034  20.522  10.756  10.619
64817W        W33035  44.737   2.347  12.052
64818W        W33036   3.426   0.246  13.604
64819W        W33037  15.595  15.254   1.342
64820W        W33038   9.137   2.833  13.896
64821W        W33039  18.525   6.303   1.154
64822W        W33040  32.066   5.096  11.671
64823W        W33041  30.559  39.867   4.543
64824W        W33042  35.282  29.427   4.256
64825W        W33043   6.200  27.149  13.773
64826W        W33044  44.354   4.817  13.061
64827W        W33045  37.335  10.198   4.286
64828W        W33046  25.659   5.290   4.823
64829W        W33047   9.105   0.303  10.758
64830W        W33048  12.393  18.924   4.822
64831W        W33049  32.713  41.541  11.085
64832W        W33050   5.440  22.180   2.389
64833W        W33051  18.764   9.796  14.414
64834W        W33052   7.139   8.941   4.038
64835W        W33053   7.788  32.892  13.858
64836W        W33054   6.506   2.675   0.833
64837W        W33055   5.695  23.035  14.868
64838W        W33056  27.537  31.574  10.592
64839W        W33057  36.417  20.599   0.925
64840W        W33058   4.998  17.557  13.868
64841W        W33059  43.099  43.052   1.837
64842W        W33060   1.902  26.334  13.900
64843W        W33061  10.551  34.789   0.991
64844W        W33062  30.441  43.951   0.249
64845W        W33063  32.102  41.721  11.936
64846W        W33064   8.184   9.421  13.286
64847W        W33065  39.802  28.973   0.196
64848W        W33066   4.337  11.403  14.503
64849W        W33067  32.863   2.821   0.129
64850W        W33068  39.543  26.995  10.401
64851W        W33069  25.145  41.272  12.062
64852W        W33070  16.368  37.086  12.956
64853W        W33071  40.035  22.430   2.262
64854W        W33072  23.952  19.396  10.939
64855W        W33073  34.620  14.609   1.369
64856W        W33074  36.388   2.766   2.297
64857W        W33075  17.774  14.254  13.496
64858W        W33076   3.819  25.546   2.844
64859W        W33077  42.900  33.205  11.514
64860W        W33078   2.342   9.614   4.083
64861W        W33079  27.163  32.312   2.650
64862W        W33080   2.314   4.513  13.140
64863W        W33081   8.988  18.419  14.743
64864W        W33082  31.869  43.492   4.198
64865W        W33083  17.175  12.694  13.025
64866W        W33084  16.319   7.275  12.987
64867W        W33085  32.135  29.594  12.344
64868W        W33086  12.415   5.506   3.347
64869W        W33087   1.534   3.789   0.722
64870W        W33088  33.122  43.062  11.647
64871W        W33089   2.952  21.915  14.851
64872W        W33090   6.485  18.794  11.039
64873W        W33091  39.160  35.411  14.418
64874W        W33092   4.255   2.389  11.255
64875W        W33093  18.923   9.752   4.116
64876W        W33094  15.131  34.110   1.283
64877W        W33095  41.476  18.299  12.028
64878W        W33096  26.397  15.078   3.188
64879W        W33097   4.096  16.204  11.182
64880W        W33098  13.148  38.648  11.890
64881W        W33099  38.158  41.810  12.136
64882W        W33100  36.928   5.676  12.473
64883W        W33101  22.345  33.541   0.914
64884W        W33102  38.828  17.725   3.877
64885W        W33103  33.646  39.824  13.060
64886W        W33104  24.478  32.891  10.928
64887W        W33105  31.138  16.123   1.227
64888W        W33106  21.068  32.153   9.981
64889W        W33107  36.061  32.935  10.672
64890W        W33108  25.755  24.626  12.651
64891W        W33109  19.166  32.053   3.307
64892W        W33110   7.679  25.137  14.674
64893W        W33111  21.060  42.319   4.627
64894W        W33112  28.179  24.288   4.643
64895W        W33113  21.065  20.620   4.103
64896W        W33114  31.805   3.132  14.369
64897W        W33115  20.819  44.208  13.908
64898W        W33116  17.301  26.239   0.305
64899W        W33117  36.033   2.405  14.116
64900W        W33118  27.991  18.944   2.612
64901W        W33119   4.198  22.207  13.769
64902W        W33120  12.181  31.364   1.905
64903W        W33121  27.360  13.291   5.408
64904W        W33122  13.605   0.807   1.704
64905W        W33123   6.214   9.681  13.391
64906W        W33124  41.898  39.805   2.291
64907W        W33125  33.066  34.885  11.248
64908W        W33126  41.416  38.306  12.086
64909W        W33127   2.238  20.093  14.853
64910W        W33128  19.836  21.670  11.164
64911W        W33129  43.442  12.097  10.230
64912W        W33130  31.436  12.194   2.959
64913W        W33131  41.480  16.123   3.284
64914W        W33132  14.870  32.714  11.502
64915W        W33133  30.589  33.017  12.583
64916W        W33134   6.532  25.538   4.525
64917W        W33135  12.378   3.935  14.303
64918W        W33136   8.424  27.467  11.157
64919W        W33137  12.273  24.703  11.133
64920W        W33138  16.535  28.489  12.521
64921W        W33139  31.115  31.503   0.406
64922W        W33140  19.201  11.819   3.820
64923W        W33141  12.917  31.608   2.889
64924W        W33142   4.218   1.712  12.996
64925W        W33143   6.771  18.634   4.187
64926W        W33144  31.003  39.985   0.828
64927W        W33145   0.171  34.888  10.765
64928W        W33146  36.104  31.166  11.954
64929W        W33147  18.535  11.774  13.807
64930W        W33148  25.536  33.916   0.223
64931W        W33149  12.359  21.243  13.551
64932W        W33150  39.060  41.588  13.045
64933W        W33151  31.121  11.897  11.968
64934W        W33152  15.581  10.382   0.864
64935W        W33153  37.357   9.887  10.591
64936W        W33154  19.200  37.091  12.967
64937W        W33155   2.050  41.065  14.533
64938W        W33156  39.820   3.000   3.347
64939W        W33157  19.436  40.338   4.575
64940W        W33158  25.579  21.755   3.616
64941W        W33159   1.401  10.702   4.169
64942W        W33160  39.767  43.132   4.240
64943W        W33161  30.035  43.133  11.110
64944W        W33162  23.243   5.675  10.475
64945W        W33163  22.143   0.700   4.146
64946W        W33164  34.653   6.339   4.116
64947W        W33165  41.441  41.641   0.557
64948W        W33166   7.009  32.173  10.858
64949W        W33167  24.189  37.585   0.849
64950W        W33168  43.231  44.428   4.219
64951W        W33169  16.824  44.926   1.201
64952W        W33170  15.865  36.724  14.724
64953W        W33171   6.699  29.490  11.230
64954W        W33172  18.513  26.467  12.524
64955W        W33173   8.867  20.057  10.275
64956W        W33174  14.039  22.079  13.214
64957W        W33175  32.066  17.160   4.072
64958W        W33176  41.477  10.568   2.718
64959W        W33177  12.517  44.596   0.428
64960W        W33178  34.801   8.342  14.915
64961W        W33179  26.241  33.143  12.420
64962W        W33180  19.792  13.609  13.552
64963W        W33181  13.202  23.995   1.740
64964W        W33182  41.842   0.683   2.263
64965W        W33183  29.638   2.475  11.109
64966W        W33184  43.890  16.173   4.682
64967W        W33185   4.489  33.586  12.527
64968W        W33186  34.187  21.054  14.262
64969W        W33187  38.453   9.937  14.321
64970W        W33188   8.586  20.192   0.748
64971W        W33189   3.304  26.994  14.943
64972W        W33190  43.516  31.443   2.614
64973W        W33191   5.356   5.253  13.523
64974W        W33192  27.454   0.528   4.138
64975W        W33193  16.606   9.843  11.094
64976W        W33194  20.716  39.211  12.941
64977W        W33195  44.583   8.755   1.699
64978W        W33196  33.892  37.337  11.768
64979W        W33197  40.464  40.042  11.749
64980W        W33198  15.737  22.172   4.863
64981W        W33199  20.644  13.737   9.765
64982W        W33200  25.210   2.339   0.839
64983W        W33201  23.159  12.277  11.112
64984W        W33202  10.827  36.963  14.079
64985W        W33203  30.046  24.475  10.534
64986W        W33204  40.339  21.180  11.541
64987W        W33205  19.433  35.495   1.969
64988W        W33206  13.917   1.521   0.989
64989W        W33207  15.452  42.100   3.919
64990W        W33208   0.945  31.213  12.578
64991W        W33209  21.097  28.494  11.053
64992W        W33210  30.424  42.000  11.553
64993W        W33211  10.722  16.026  11.392
64994W        W33212  30.945  20.715  13.830
64995W        W33213  43.709  34.085  10.340
64996W        W33214  25.024  13.782   4.582
64997W        W33215  22.974  18.688   3.249
64998W        W33216  27.092  37.863  11.973
64999W        W33217   1.708  19.685   4.370
65000W        W33218  40.149  37.159  14.313
65001W        W33219  43.005   3.331   0.642
65002W        W33220  27.548  17.481   3.262
65003W        W33221  22.335   2.047   3.178
65004W        W33222  32.287  13.677  10.592
65005W        W33223  44.303  29.900  14.959
65006W        W33224   1.524  23.234  10.731
65007W        W33225   9.215  28.555   2.222
65008W        W33226   5.529   5.198   3.310
65009W        W33227  14.278   8.700  13.342
65010W        W33228  31.464  28.030  12.003
65011W        W33229  27.858  31.041   2.904
65012W        W33230   7.631  42.045  12.489
65013W        W33231  22.212  42.878  11.909
65014W        W33232   9.392  13.170  12.478
65015W        W33233  11.574   8.965  11.636
65016W        W33234  26.012   3.519   2.903
65017W        W33235  39.744   5.395  11.626
65018W        W33236  13.817  40.178   4.116
65019W        W33237  23.825  10.672   4.931
65020W        W33238   7.362  11.716  12.021
65021W        W33239  11.621  37.109   0.479
65022W        W33240  13.397  42.445  13.361
65023W        W33241   5.579  34.404   1.336
65024W        W33242  27.493  38.955  12.791
65025W        W33243  40.079  30.458   2.345
65026W        W33244  27.523  34.059  10.681
65027W        W33245  42.124   0.298  14.418
65028W        W33246  14.632   1.004  12.535
65029W        W33247   5.771  38.701   2.265
65030W        W33248  29.218  44.567  12.382
65031W        W33249  25.796  39.780  13.472
65032W        W33250  27.906  35.045  14.903
65033W        W33251  20.207  23.486   1.933
65034W        W33252  28.890   5.770  12.906
65035W        W33253  44.595  15.274  12.468
65036W        W33254  12.310  31.244   2.394
65037W        W33255  29.737   3.768   0.357
65038W        W33256  42.197  15.081   1.877
65039W        W33257  25.666  24.010  13.396
65040W        W33258  42.301  13.091  11.420
65041W        W33259  16.682  44.942  11.077
65042W        W33260  31.448   1.386   1.254
65043W        W33261  19.582  11.425   1.295
65044W        W33262  12.098  27.133  10.806
65045W        W33263  29.845   1.562  12.382
65046W        W33264  35.877   7.863   0.229
65047W        W33265  39.397  30.844  12.265
65048W        W33266  18.515  34.692  11.917
65049W        W33267   1.648   9.305   0.271
65050W        W33268  12.987  43.467  12.499
65051W        W33269  12.560  43.924   0.857
65052W        W33270  25.062  25.230  13.548
65053W        W33271   8.944  31.496  13.018
65054W        W33272  36.024  17.678   4.218
65055W        W33273  38.448   8.977  10.690
65056W        W33274  22.176   4.701  13.825
65057W        W33275  30.646   1.376  10.742
65058W        W33276  27.266  34.527   0.844
65059W        W33277  10.625  38.112  14.823
65060W        W33278  43.733  38.859   3.762
65061W        W33279  16.097   5.772   2.132
65062W        W33280  36.159  24.005  14.006
65063W        W33281  33.348  17.295   3.911
65064W        W33282  18.841  26.616   4.684
65065W        W33283  31.862  38.779  11.057
65066W        W33284  41.796  37.748  12.551
65067W        W33285  35.748  43.720   1.480
65068W        W33286  29.689  24.533   4.058
65069W        W33287  13.839  42.892   2.260
65070W        W33288   3.939  25.213  14.836
65071W        W33289  33.160  24.272  13.591
65072W        W33290  30.730  17.249  13.534
65073W        W33291  23.625  26.674   4.540
65074W        W33292  22.837  38.520   1.863
65075W        W33293  43.967   8.773   4.449
65076W        W33294  16.083  44.880  14.491
65077W        W33295   9.195   1.982  11.906
65078W        W33296  28.011  13.794   1.233
65079W        W33297  16.305  23.872   3.898
65080W        W33298  14.106  43.400   1.403
65081W        W33299  11.285  32.413   1.039
65082W        W33300  31.896  38.009   3.787
65083W        W33301   2.254  21.853  12.222
65084W        W33302  34.285   5.311   2.821
65085W        W33303  26.690   5.944  12.352
65086W        W33304  27.136  41.324  14.760
65087W        W33305  22.162   2.890  11.020
65088W        W33306  41.019   0.324   2.402
65089W        W33307  41.617  34.833   0.718
65090W        W33308  32.561  38.978   2.450
65091W        W33309  22.470  25.579  10.320
65092W        W33310  10.148  19.661  12.508
65093W        W33311   5.265   6.168   2.854
65094W        W33312  42.964  38.621  12.478
65095W        W33313  25.062  14.857   2.472
65096W        W33314  28.098  16.310  14.276
65097W        W33315  29.880  42.084   2.336
65098W        W33316  32.290  30.421   3.651
65099W        W33317   7.163  42.374   3.198
65100W        W33318   4.606  18.415   3.140
65101W        W33319  41.550  29.942  11.417
65102W        W33320  11.822  23.543   3.594
65103W        W33321   0.651  18.544   4.158
65104W        W33322  27.063  21.437  13.019
65105W        W33323  11.000  32.423  14.756
65106W        W33324   3.004  24.716  11.569
65107W        W33325  39.669  18.699   2.902
65108W        W33326  38.101  25.201  11.518
65109W        W33327  42.372  27.212  14.991
65110W        W33328  34.491  39.704   2.226
65111W        W33329  30.480  43.102  11.544
65112W        W33330  42.387  37.179  12.801
65113W        W33331  34.029  13.518  14.341
65114W        W33332  28.524  39.120   4.112
65115W        W33333   3.785  24.748  10.582
65116W        W33334  13.493  13.216   3.968
65117W        W33335  35.971  42.013  10.856
65118W        W33336  39.259   5.892   3.306
65119W        W33337  20.002   0.023  12.967
65120W        W33338  18.653  27.048   0.326
65121W        W33339  32.980  42.556  11.710
65122W        W33340  33.695  42.859  12.069
65123W        W33341  11.516   7.166  13.387
65124W        W33342   2.802  40.264   3.174
65125W        W33343  25.099  18.601  13.068
65126W        W33344   5.890  17.833   4.201
65127W        W33345   9.779   2.789  13.038
65128W        W33346  28.700  13.710  10.823
65129W        W33347   9.716   4.679  10.669
65130W        W33348  10.972  13.095   2.227
65131W        W33349  36.844  24.144   2.931
65132W        W33350  41.447  32.513   1.631
65133W        W33351   2.675  18.999  13.896
65134W        W33352  41.458  32.073  14.237
65135W        W33353  32.967  36.066   0.509
65136W        W33354  33.170  27.694  13.838
65137W        W33355   5.835  13.156  10.693
65138W        W33356  13.840  44.813   0.010
65139W        W33357  29.512  44.610  14.102
65140W        W33358   8.101  15.758   4.982
65141W        W33359   8.905   4.238  12.859
65142W        W33360  30.473  44.749  11.045
65143W        W33361  16.170  16.205   0.308
65144W        W33362  41.141  16.874  13.263
65145W        W33363  16.839  43.507  11.363
65146W        W33364  30.643  12.347   2.663
65147W        W33365  22.599  19.249   1.352
65148W        W33366  11.376  17.566  14.428
65149W        W33367  34.655  44.242  14.193
65150W        W33368  25.701  24.660  10.778
65151W        W33369   9.218  27.221   1.945
65152W        W33370  21.185  28.263   1.703
65153W        W33371  21.357  11.659   4.124
65154W        W33372   6.421  22.295  11.163
65155W        W33373  19.063  24.005   3.660
65156W        W33374  37.888  14.365   1.205
65157W        W33375  36.989   3.508  10.811
65158W        W33376  12.401  44.592  11.745
65159W        W33377  32.116  21.751  10.586
65160W        W33378  38.911  25.000   4.711
65161W        W33379   9.806  29.647   4.627
65162W        W33380  16.726  24.381   4.167
65163W        W33381  21.521  39.894  12.018
65164W        W33382  16.779   3.947   2.271
65165W        W33383   7.327  20.385   1.972
65166W        W33384  31.703  36.600   1.930
65167W        W33385   1.222  31.136   4.334
65168W        W33386  41.449  17.855  11.734
65169W        W33387  44.536  42.006  11.178
65170W        W33388  25.559  15.536  12.840
65171W        W33389  16.044   3.826   4.551
65172W        W33390  13.724  11.285  13.837
65173W        W33391   3.954  42.406   4.588
65174W        W33392  42.380  40.027   1.562
65175W        W33393  27.455  42.401  13.429
65176W        W33394  16.547  38.834   2.867
65177W        W33395  24.266  16.961  11.149
65178W        W33396  20.234   0.509  13.913
65179W        W33397  33.427  35.110   1.389
65180W        W33398  24.531  44.339  13.425
65181W        W33399  43.325  18.514   3.178
65182W        W33400  14.605  10.362   2.407
65183W        W33401   1.864  26.811  13.783
65184W        W33402   2.948  27.361  10.976
65185W        W33403   2.034  35.921  14.395
65186W        W33404  21.511  28.315  12.497
65187W        W33405  44.370  27.039   2.860
65188W        W33406  13.225  30.814  14.798
65189W        W33407  40.926  21.631  11.197
65190W        W33408   1.988  36.597  13.027
65191W        W33409  38.924   6.213  12.580
65192W        W33410  18.655  34.029   1.623
65193W        W33411  12.801  23.531  13.309
65194W        W33412  24.957  43.806  14.406
65195W        W33413  12.470  42.830   0.541
65196W        W33414  42.276  12.557   3.735
65197W        W33415  20.107  18.417  10.720
65198W        W33416  13.110   8.688   0.769
65199W        W33417  10.287  23.970  11.897
65200W        W33418  17.995   4.601  12.955
65201W        W33419  18.611  29.329   2.867
65202W        W33420  37.299  22.542   4.332
65203W        W33421  44.433  42.902  13.567
65204W        W33422  32.467  43.689  14.842
65205W        W33423   9.208  14.407  13.084
65206W        W33424  43.277   4.896   1.465
65207W        W33425  27.045   9.159   3.585
65208W        W33426  14.036  11.782   2.452
65209W        W33427  28.898  42.735   4.095
65210W        W33428   9.173  36.924  10.744
65211W        W33429  36.666  14.129   2.657
65212W        W33430   9.200   3.382   3.698
65213W        W33431  17.118  16.730  13.840
65214W        W33432  12.371  19.003  13.518
65215W        W33433  24.504   4.676   2.407
65216W        W33434  13.625  17.669  12.346
65217W        W33435  33.897  41.504  10.597
65218W        W33436   4.529   3.625   5.183
65219W        W33437  36.906  28.415  13.787
65220W        W33438  18.229   3.765  12.437
65221W        W33439   8.294  21.654  12.542
65222W        W33440  24.704  16.755   3.736
65223W        W33441  20.933  16.393  10.338
65224W        W33442  42.715  34.358   2.691
65225W        W33443  35.859   1.926  14.297
65226W        W33444  44.974  38.188   2.194
65227W        W33445   2.980  30.929   0.299
65228W        W33446  23.708  42.210  14.499
65229W        W33447  44.929  37.061  12.066
65230W        W33448   1.874  24.530  12.509
65231W        W33449   0.759  17.836   3.590
65232W        W33450  17.578  39.281  14.509
65233W        W33451  18.114  42.508   1.422
65234W        W33452  29.741  14.289   4.110
65235W        W33453   4.515  19.694   3.747
65236W        W33454  27.260  11.934   3.581
65237W        W33455   7.187  13.701  12.997
65238W        W33456   3.324  15.532   5.268
65239W        W33457  10.137   9.249   0.201
65240W        W33458  27.725  44.728  13.561
65241W        W33459  13.696  20.214   4.313
65242W        W33460  39.933  25.565   3.490
65243W        W33461  28.207  35.323  12.445
65244W        W33462  43.838  37.118  11.757
65245W        W33463   4.635  23.240  14.450
65246W        W33464  25.616  13.213   4.196
65247W        W33465  31.797  26.909   4.962
65248W        W33466  42.489  40.925   2.884
65249W        W33467  24.939  40.729  12.163
65250W        W33468  44.709  17.781   2.810
65251W        W33469  20.043  17.698   4.031
65252W        W33470  21.130  12.124  10.670
65253W        W33471   5.758  14.375   1.400
65254W        W33472   9.364  11.109  11.557
65255W        W33473  33.134  25.394  10.541
65256W        W33474   8.335  40.926  10.482
65257W        W33475   3.508  32.189   3.232
65258W        W33476  20.046  29.736  11.515
65259W        W33477  23.742  40.318  12.479
65260W        W33478  10.808  32.103  13.807
65261W        W33479   8.159  32.147   0.788
65262W        W33480  15.796  29.073  10.602
65263W        W33481  22.071  19.065  12.011
65264W        W33482   3.166   4.959  11.066
65265W        W33483   0.476  35.936  14.353
65266W        W33484  39.005  10.457  12.447
65267W        W33485  25.274  13.544   3.114
65268W        W33486  15.536  12.259   0.818
65269W        W33487   4.905  18.687  10.541
65270W        W33488  39.516  14.881  13.037
65271W        W33489  26.912  20.187   2.280
65272W        W33490  44.833  27.665  13.015
65273W        W33491  10.244  38.245   3.169
65274W        W33492  36.652  28.433   2.307
65275W        W33493   5.052  31.394   2.718
65276W        W33494  26.936   5.807   3.646
65277W        W33495   7.565   1.346   2.949
65278W        W33496  43.492  12.868  13.897
65279W        W33497  27.691  12.236  14.322
65280W        W33498  33.028   1.326   4.419
65281W        W33499  17.017  21.354  11.397
65282W        W33500  35.968  15.328  10.711
65283W        W33501  36.979  20.590   1.584
65284W        W33502  28.609  21.708   4.549
65285W        W33503  44.378  16.629  11.551
65286W        W33504  37.725  29.876  12.075
65287W        W33505  40.434  25.691   2.211
65288W        W33506  39.328   3.278  11.611
65289W        W33507  26.341  31.514   4.134
65290W        W33508  38.413  12.904   2.126
65291W        W33509  40.764  25.468   1.722
65292W        W33510  44.162  37.100  12.860
65293W        W33511  30.133  16.040  10.594
65294W        W33512  27.780  11.637  14.813
65295W        W33513  36.893  31.453   2.619
65296W        W33514   0.750  27.173   0.771
65297W        W33515   5.917  20.196   2.678
65298W        W33516   4.193  23.689   2.396
65299W        W33517  44.648  19.574   1.159
65300W        W33518  42.878  30.927   4.170
65301W        W33519  31.540   6.758   4.725
65302W        W33520  15.643   8.601  12.073
65303W        W33521  29.188   4.438   0.745
65304W        W33522   1.711  20.999  14.664
65305W        W33523   5.709  16.063   1.321
65306W        W33524  43.282  32.919  11.720
65307W        W33525  42.601  34.537   3.155
65308W        W33526  19.789  42.114   3.193
65309W        W33527  20.726  17.344   0.796
65310W        W33528  26.100  31.071   1.223
65311W        W33529  15.498  25.570  11.165
65312W        W33530  43.971  39.312   1.780
65313W        W33531   0.919  33.590   0.075
65314W        W33532   4.748  37.772   2.638
65315W        W33533  31.158  42.677   4.480
65316W        W33534  23.241   8.845   0.043
65317W        W33535  20.021  27.294  11.511
65318W        W33536   0.351  39.339  12.425
65319W        W33537  23.183  15.965   2.801
65320W        W33538   1.948  21.419  14.864
65321W        W33539  34.273   5.788   1.829
65322W        W33540  38.992  19.733  12.806
65323W        W33541  22.639  38.014   4.642
65324W        W33542  10.563  20.706   1.911
65325W        W33543  40.360  11.837  10.690
65326W        W33544  13.558  24.885   4.968
65327W        W33545   4.126  15.020   0.456
65328W        W33546  24.353  40.480   4.918
65329W        W33547  38.894   6.517   0.704
65330W        W33548  42.711   8.532  14.852
65331W        W33549  32.100  43.767  14.063
65332W        W33550  31.844  28.981  14.388
65333W        W33551  35.396  42.481   2.519
65334W        W33552  32.524  43.852  10.419
65335W        W33553  30.693  41.423  14.163
65336W        W33554  21.148  10.047  14.363
65337W        W33555   4.595  37.229  13.446
65338W        W33556  24.508  38.348  11.096
65339W        W33557  36.783  27.129   1.778
65340W        W33558   1.153  23.101   4.641
65341W        W33559  40.871  19.519  12.044
65342W        W33560   7.363  29.485   2.509
65343W        W33561   6.593  19.767   1.798
65344W        W33562  39.047  41.246   4.554
65345W        W33563  38.781  41.308   1.418
65346W        W33564   5.517  14.707   2.105
65347W        W33565  31.049  37.560  12.638
65348W        W33566  43.488  27.693   4.311
65349W        W33567  14.824  33.138  10.717
65350W        W33568   8.737  25.027   4.490
65351W        W33569  36.363  22.191  11.959
65352W        W33570  22.311  35.250   9.266
65353W        W33571  32.412  34.113   0.817
65354W        W33572  39.647  36.537   4.573
65355W        W33573  20.135  35.982  12.822
65356W        W33574   6.255  39.431  10.320
65357W        W33575  13.763   2.362   3.235
65358W        W33576  20.254  39.995   4.263
65359W        W33577   7.868   7.319   1.654
65360W        W33578   1.558  40.330   2.855
65361W        W33579  39.087  35.817  11.046
65362W        W33580  25.030  33.166   0.410
65363W        W33581  28.142  23.119  13.772
65364W        W33582  39.382  42.904   2.626
65365W        W33583  39.117  13.573  11.528
65366W        W33584  29.389  44.483   0.035
65367W        W33585  23.731  38.383  10.754
65368W        W33586  28.903   3.810   0.011
65369W        W33587  29.584  10.068   2.325
65370W        W33588  32.456  39.043   4.817
65371W        W33589  22.581   8.277  12.573
65372W        W33590   5.832  31.460   4.612
65373W        W33591   2.919  26.437  12.397
65374W        W33592  39.349   1.281   4.994
65375W        W33593  13.163  14.134   3.762
65376W        W33594  18.617   1.815  14.829
65377W        W33595  41.466  13.245  11.118
65378W        W33596  29.055  14.778  14.488
65379W        W33597  28.126  13.044  10.335
65380W        W33598  13.296  18.064   4.102
65381W        W33599  26.419  21.661   1.272
65382W        W33600  30.779  35.304  11.125
65383W        W33601  23.118   7.995   1.675
65384W        W33602  27.883  31.841   1.828
65385W        W33603  12.858  38.021  11.726
65386W        W33604  39.372  26.066  12.344
65387W        W33605  40.726  24.384   2.248
65388W        W33606  38.458  23.477   3.102
65389W        W33607  24.723  11.588  10.750
65390W        W33608  25.724   7.883   1.136
65391W        W33609  32.666  21.155   2.406
65392W        W33610   9.552  30.667  14.278
65393W        W33611  38.073  24.967  13.799
65394W        W33612  35.546  18.640  11.089
65395W        W33613  33.670  18.213   1.428
65396W        W33614  17.271   9.214  13.737
65397W        W33615  44.349  10.484  14.667
65398W        W33616  35.169  22.073  13.200
65399W        W33617  25.976  21.165  13.010
65400W        W33618  10.369  41.244   4.840
65401W        W33619   3.261  22.110  12.418
65402W        W33620  31.109  36.075   0.004
65403W        W33621  32.290   1.224   3.704
65404W        W33622   3.614  41.918   1.322
65405W        W33623  20.520  10.269   4.720
65406W        W33624   2.229   2.766   0.012
65407W        W33625   7.581   1.856  12.533
65408W        W33626  34.578  11.268  12.138
65409W        W33627  15.483   3.696  13.542
65410W        W33628  40.729   7.472  11.602
65411W        W33629  42.227   1.891  12.896
65412W        W33630  40.030  12.822  13.830
65413W        W33631  31.889  30.545   4.836
65414W        W33632  21.051  41.428  13.421
65415W        W33633  41.633  21.208   2.209
65416W        W33634  30.008  21.030  11.233
65417W        W33635  20.237  28.077   4.160
65418W        W33636  15.584  20.772   4.066
65419W        W33637  25.637  43.863   1.156
65420W        W33638   4.436  17.116   0.915
65421W        W33639  37.605   5.597   9.992
65422W        W33640  27.948  16.523  11.918
65423W        W33641  21.665   9.289   1.865
65424W        W33642  40.845  17.206   3.261
65425W        W33643  43.849   4.504   3.823
65426W        W33644   7.796  12.220  13.498
65427W        W33645  16.530  22.309   1.694
65428W        W33646  38.790  18.967   4.142
65429W        W33647  26.484  43.912   0.967
65430W        W33648  32.726  33.487   3.162
65431W        W33649  21.548  42.278  12.406
65432W        W33650  17.631  39.395   0.467
65433W        W33651  44.686  36.852   5.033
65434W        W33652   1.371   6.008  10.651
65435W        W33653  22.181  12.729  14.314
65436W        W33654  40.012  17.314   3.522
65437W        W33655  40.399  20.456   2.327
65438W        W33656  13.239   4.493   2.814
65439W        W33657  44.931  15.313  10.768
65440W        W33658  12.618   3.820  11.404
65441W        W33659   1.365  22.864   1.372
65442W        W33660  13.374   7.622  12.074
65443W        W33661  30.191  14.733   4.725
65444W        W33662   6.166  27.343  13.295
65445W        W33663  40.952  29.767   1.827
65446W        W33664  22.028  11.162   1.695
65447W        W33665   0.500  38.913   1.309
65448W        W33666   4.302   3.003   4.878
65449W        W33667  26.589  27.830   2.925
65450W        W33668  31.859  20.814   4.114
65451W        W33669  35.058  29.994   1.223
65452W        W33670  39.779  40.888   0.869
65453W        W33671  27.757  36.329   0.224
65454W        W33672  36.684  21.913  11.701
65455W        W33673  42.580  36.323   2.299
65456W        W33674   8.266   5.048  12.477
65457W        W33675   7.958  29.946   0.033
65458W        W33676  22.074  26.094  11.534
65459W        W33677  44.050  32.625  11.099
65460W        W33678   6.676  24.035   1.302
65461W        W33679   3.264  31.612  13.603
65462W        W33680  22.363  36.931  12.824
65463W        W33681  27.735   9.141   3.145
65464W        W33682  32.300  31.419  10.133
65465W        W33683   9.717  34.595   4.707
65466W        W33684  31.612  37.925   1.221
65467W        W33685   3.852  32.951   3.023
65468W        W33686  25.719  11.389  12.530
65469W        W33687  41.439  11.928   1.464
65470W        W33688  35.622  44.372   3.930
65471W        W33689  19.718   8.132  11.612
65472W        W33690  41.406  42.305   4.553
65473W        W33691  13.675  35.313  14.803
65474W        W33692  43.449  21.566  12.091
65475W        W33693  16.090  25.490   0.267
65476W        W33694   5.211  17.032   4.236
65477W        W33695  35.111   9.202  11.914
65478W        W33696  10.784   9.370  11.183
65479W        W33697   6.461  39.261  14.535
65480W        W33698   2.837  27.573   0.359
65481W        W33699   4.519   2.717   1.952
65482W        W33700  39.705  39.254  11.872
65483W        W33701  27.125   9.678  12.356
65484W        W33702  30.594  32.106   3.810
65485W        W33703  34.155  39.332   2.268
65486W        W33704  31.800  40.272   2.319
65487W        W33705   0.528  15.217  13.817
65488W        W33706  39.047  21.354   9.734
65489W        W33707  14.233   2.017  14.845
65490W        W33708  37.386   1.228   2.444
65491W        W33709   6.900  26.287  11.613
65492W        W33710  40.292  14.754  13.441
65493W        W33711   3.385  40.786   4.149
65494W        W33712  20.815  38.493   0.700
65495W        W33713  44.155  40.765  12.518
65496W        W33714  27.777  17.096   0.426
65497W        W33715   2.031  34.003   1.774
65498W        W33716   7.427  28.637  10.719
65499W        W33717  13.087  21.146   1.386
65500W        W33718   3.860   3.236   0.224
65501W        W33719   0.259  43.465  14.499
65502W        W33720  22.520   8.319  13.080
65503W        W33721  43.285  15.242   2.649
65504W        W33722  44.250  39.532  12.942
65505W        W33723  37.798   3.030  11.707
65506W        W33724  12.806  43.936  13.985
65507W        W33725  15.725  25.735   2.107
65508W        W33726  41.857   3.411   4.153
65509W        W33727  28.102  25.994   1.083
65510W        W33728  20.166  11.083   3.743
65511W        W33729  42.265  37.154   4.291
65512W        W33730   0.435  23.607   2.097
65513W        W33731   3.303  38.378   0.212
65514W        W33732  29.859  22.981  12.963
65515W        W33733  31.877   4.750  13.484
65516W        W33734  19.046  27.521   3.350
65517W        W33735   4.705  14.947  10.695
65518W        W33736  34.664   3.218   2.225
65519W        W33737  37.574  27.174  14.782
65520W        W33738  36.911  21.187  10.581
65521W        W33739   4.024  28.537  14.981
65522W        W33740  24.907  32.465   1.747
65523W        W33741  21.738  27.693   1.650
65524W        W33742  11.726  12.458   4.177
65525W        W33743  32.031  44.906   0.684
65526W        W33744  20.286   1.050   4.555
65527W        W33745  36.792   0.800   0.392
65528W        W33746  19.842  27.498  14.398
65529W        W33747  42.570  10.384   3.342
65530W        W33748   1.388  26.513  12.979
65531W        W33749  21.462  29.024  14.503
65532W        W33750  33.802  14.165   4.061
65533W        W33751  10.426  32.020   2.314
65534W        W33752  34.136  26.959   1.011
65535W        W33753  34.471  25.340  12.425
65536W        W33754  32.360   2.842   0.288
65537W        W33755   3.736   5.138   1.744
65538W        W33756  16.709  25.764  13.806
65539W        W33757  40.570  42.835  13.317
65540W        W33758  19.718  11.738   5.201
65541W        W33759  12.354  35.595  14.975
65542W        W33760  39.460  28.434   2.643
65543W        W33761   7.342  44.441  14.477
65544W        W33762  29.237   1.729   4.926
65545W        W33763  14.560  15.929  11.088
65546W        W33764  14.820  22.830  13.844
65547W        W33765  28.970   9.941   2.825
65548W        W33766  41.463   3.478  11.952
65549W        W33767  24.107  25.769  14.810
65550W        W33768  26.125  29.644  12.506
65551W        W33769  44.396   0.240  14.869
65552W        W33770  12.369   7.402   0.430
65553W        W33771  34.269  18.525  11.183
65554W        W33772  26.783  15.067   3.929
65555W        W33773  21.036  25.022  11.143
65556W        W33774   2.508  32.115  12.095
65557W        W33775  35.226   1.490  11.157
65558W        W33776   0.388  17.281  12.016
65559W        W33777  13.524  30.608  10.889
65560W        W33778  28.500  24.153   5.476
65561W        W33779  38.055  42.218  12.628
65562W        W33780   8.726  38.324   3.788
65563W        W33781   2.455  39.403   0.363
65564W        W33782  33.373  34.585   1.317
65565W        W33783  28.340  44.121  13.644
65566W        W33784   1.071  15.494  14.972
65567W        W33785   1.296   2.423   0.226
65568W        W33786  31.298   5.699  11.925
65569W        W33787   8.279  21.122  10.127
65570W        W33788  41.777  15.772   1.328
65571W        W33789  26.780  11.332  10.246
65572W        W33790  14.489   5.537  11.183
65573W        W33791   7.242  14.310   1.488
65574W        W33792  19.010   0.960   2.261
65575W        W33793  33.672   1.019  11.792
65576W        W33794  15.182  31.426  13.074
65577W        W33795  33.602  19.294   4.154
65578W        W33796  29.745  26.173   3.637
65579W        W33797  31.987  27.601   2.869
65580W        W33798  39.519  31.553   4.648
65581W        W33799  20.128  43.107   4.059
65582W        W33800  32.110  44.596  13.709
65583W        W33801  37.763   8.933  11.066
65584W        W33802   9.730   3.528   4.508
65585W        W33803  18.733  43.575  12.447
65586W        W33804  41.864  21.577  10.760
65587W        W33805  19.183  17.026   1.915
65588W        W33806  11.590  37.448   4.552
65589W        W33807   5.984  40.362  12.198
65590W        W33808  25.751  21.303   4.968
65591W        W33809  42.988  17.677   1.225
65592W        W33810  10.795  25.528   2.845
65593W        W33811  36.634  10.931  11.083
65594W        W33812  34.349  35.838  12.056
65595W        W33813  16.016  14.225   1.375
65596W        W33814  11.117   2.726   3.237
65597W        W33815   4.966  26.094  13.459
65598W        W33816   3.367  29.190   4.129
65599W        W33817  43.400  36.120  14.733
65600W        W33818  36.422  37.033  12.708
65601W        W33819  30.528  28.093   3.646
65602W        W33820  23.168  12.863  12.465
65603W        W33821  23.132  20.110   0.058
65604W        W33822  40.064  14.083  12.382
65605W        W33823  35.871  11.685  12.032
65606W        W33824   6.805  26.656  11.277
65607W        W33825  20.116  20.509   0.790
65608W        W33826  10.761  37.684   9.938
65609W        W33827  27.967  11.286  14.458
65610W        W33828  26.802  28.053   4.324
65611W        W33829  27.426  22.081   2.676
65612W        W33830  16.707  34.408  10.421
65613W        W33831  29.857   1.252   4.283
65614W        W33832  35.014   3.380  11.060
65615W        W33833  15.087   9.346   1.653
65616W        W33834  14.744  28.226  12.459
65617W        W33835  38.694  21.067  11.030
65618W        W33836  11.179  29.790   0.786
65619W        W33837  27.260   1.413  14.779
65620W        W33838   0.302   6.159  13.332
65621W        W33839  24.750  35.462   2.819
65622W        W33840  35.046  20.286   2.611
65623W        W33841   0.046  32.256   1.314
65624W        W33842  43.387  12.238   0.418
65625W        W33843  30.202  23.990  12.148
65626W        W33844   7.858  11.169  10.725
65627W        W33845  32.218  25.110  11.609
65628W        W33846  15.661   6.755  13.881
65629W        W33847   5.216  21.652  12.944
65630W        W33848  17.577  25.142   0.551
65631W        W33849  18.467   2.676  13.930
65632W        W33850  43.858  15.588   3.313
65633W        W33851  17.362  41.316  11.040
65634W        W33852   3.983  28.185   2.907
65635W        W33853   9.789   5.567   2.665
65636W        W33854   7.817   2.412  13.946
65637W        W33855   8.221  28.789  12.894
65638W        W33856  38.081  12.403   1.406
65639W        W33857  41.971  36.914  14.758
65640W        W33858   5.111  37.444   2.847
65641W        W33859  43.830  31.864   4.196
65642W        W33860  24.416  20.200   0.142
65643W        W33861  15.286  38.912   4.132
65644W        W33862  12.874   0.551  14.586
65645W        W33863  30.935  30.466   4.019
65646W        W33864  23.078   0.842   4.434
65647W        W33865  19.643   5.016  11.013
65648W        W33866   3.548   3.848  14.264
65649W        W33867  10.599   0.925   0.252
65650W        W33868  14.645  17.134  11.034
65651W        W33869  32.178  24.123   2.090
65652W        W33870  42.662  18.049  12.829
65653W        W33871  41.248   5.812  13.420
65654W        W33872  27.221  18.040  13.940
65655W        W33873  24.369  12.770   3.679
65656W        W33874   9.962  23.609   4.538
65657W        W33875   3.274  28.116  14.731
65658W        W33876  23.829  18.687   0.912
65659W        W33877  35.748  15.530  12.709
65660W        W33878   0.393  18.106  13.030
65661W        W33879  29.000  44.742  14.097
65662W        W33880  30.224   7.993   0.269
65663W        W33881  17.541  33.453  11.380
65664W        W33882  43.116  26.262  13.528
65665W        W33883  26.420  25.681  10.679
65666W        W33884  41.290  25.717   0.897
65667W        W33885  40.969   2.390   1.660
65668W        W33886  13.361   3.249  11.785
65669W        W33887  35.096  18.513  14.245
65670W        W33888   5.942  10.391  14.498
65671W        W33889   3.795  15.635  11.915
65672W        W33890   6.917  41.795   4.137
65673W        W33891   6.239  10.280   4.552
65674W        W33892  39.070   1.240  13.944
65675W        W33893   8.941   4.243  12.346
65676W        W33894  34.862  36.165   2.920
65677W        W33895  16.241  36.464  13.502
65678W        W33896  30.839  41.002   1.734
65679W        W33897  15.783  20.685  10.679
65680W        W33898   7.314  42.056  11.696
65681W        W33899  17.315  10.239   5.050
65682W        W33900  10.134  24.106  12.363
65683W        W33901   0.806   3.399  11.852
65684W        W33902  32.703  17.059  11.350
65685W        W33903  18.978  27.882  11.162
65686W        W33904  24.200   0.588   4.974
65687W        W33905   1.521  40.336  14.267
65688W        W33906  39.151  17.233   4.672
65689W        W33907  10.580  31.091   3.262
65690W        W33908  27.626  40.301  11.096
65691W        W33909  31.834  22.557  14.755
65692W        W33910  20.322  27.520  12.832
65693W        W33911  11.218  26.705   3.723
65694W        W33912  25.638  13.203  14.576
65695W        W33913  20.954  16.530  10.933
65696W        W33914  17.967  20.790   3.151
65697W        W33915   5.739   3.857   4.146
65698W        W33916   4.890  24.211   1.829
65699W        W33917  14.169  24.648   0.317
65700W        W33918  26.273  27.518   2.229
65701W        W33919  16.402   9.744   2.046
65702W        W33920  23.065  25.008   4.872
65703W        W33921  13.201   7.615   1.716
65704W        W33922  18.787  12.251  13.799
65705W        W33923  22.519  31.656  11.630
65706W        W33924  34.023  40.936  11.470
65707W        W33925   7.084   1.434  13.089
65708W        W33926  28.122   2.307   0.305
65709W        W33927  29.068  17.712  14.951
65710W        W33928   9.327  42.952   4.621
65711W        W33929  20.787  29.922  11.949
65712W        W33930  20.087  32.328   0.744
65713W        W33931  21.566  43.146   0.016
65714W        W33932   5.142  18.146  14.838
65715W        W33933  19.500   1.389   4.728
65716W        W33934  39.351   2.181  14.841
65717W        W33935  24.548  16.930   0.391
65718W        W33936  20.057   5.507  14.731
65719W        W33937  29.493  17.623  14.441
65720W        W33938  24.840  33.323  10.172
65721W        W33939  27.026  20.812  10.674
65722W        W33940  41.367  43.547  13.380
65723W        W33941   8.404  11.683  14.976
65724W        W33942  13.801  38.361  14.335
65725W        W33943   3.629   3.437  11.960
65726W        W33944  25.482  13.589   2.134
65727W        W33945  36.567  31.233  12.923
65728W        W33946  32.826  28.895  14.390
65729W        W33947   6.707  21.161  11.182
65730W        W33948  35.160   1.278  12.525
65731W        W33949  29.644  39.336   2.789
65732W        W33950  29.586  16.263   3.759
65733W        W33951  36.837  22.304  14.323
65734W        W33952  15.760   6.724  10.782
65735W        W33953  23.516   4.002   1.194
65736W        W33954  44.052  19.087  13.389
65737W        W33955  15.170  44.990   3.221
65738W        W33956  26.059   4.675  12.095
65739W        W33957   1.447  32.792   3.169
65740W        W33958   5.295  15.980   1.922
65741W        W33959   4.507  24.043  11.030
65742W        W33960  31.968   2.982   3.610
65743W        W33961  26.710   3.230   0.166
65744W        W33962  36.636   6.471  14.497
65745W        W33963  44.823  17.188   1.241
65746W        W33964  43.973   1.016   3.724
65747W        W33965  33.769   0.334  12.059
65748W        W33966  38.007  38.004  13.027
65749W        W33967  18.293  28.796   2.199
65750W        W33968  20.842  33.081  10.719
65751W        W33969   2.620  43.772  13.002
65752W        W33970  28.121  42.434   3.244
65753W        W33971  33.382  42.976  14.363
65754W        W33972  41.040  26.486   1.979
65755W        W33973  23.865  20.273  11.061
65756W        W33974  17.412  44.581   3.738
65757W        W33975   6.469   3.286  10.225
65758W        W33976   5.137  30.087  12.953
65759W        W33977  15.823  36.055  12.169
65760W        W33978  19.046   6.185   2.336
65761W        W33979   2.903  20.768  12.447
65762W        W33980   0.620  23.062  11.053
65763W        W33981  28.331  34.529   1.664
65764W        W33982  43.127  31.668  14.051
65765W        W33983  40.415  41.118  11.552
65766W        W33984  14.220  19.758   4.592
65767W        W33985  19.423  32.354  11.146
65768W        W33986  12.467  44.518   4.506
65769W        W33987  35.835  15.936   0.038
65770W        W33988  31.511  29.721   3.607
65771W        W33989  29.928  14.186   1.841
65772W        W33990   7.950  32.393  10.757
65773W        W33991  11.292   1.632   4.748
65774W        W33992  18.329   9.716  13.407
65775W        W33993   3.431  44.397   0.985
65776W        W33994  34.222   5.573   5.025
65777W        W33995   9.172  40.798   9.983
65778W        W33996  15.738  23.679   1.221
65779W        W33997  41.456  43.237  14.643
65780W        W33998  38.842  19.812   0.317
65781W        W33999  17.683  19.172  12.105
65782W        W34000  41.350  10.350  11.762
65783W        W34001  31.798  12.443  13.516
65784W        W34002  36.462  18.821   0.722
65785W        W34003  19.197  35.913   0.980
65786W        W34004   5.599  18.188  11.499
65787W        W34005   0.430  39.816   1.758
65788W        W34006  17.815  26.345   0.304
65789W        W34007   9.483   1.740  10.168
65790W        W34008  36.062  30.878   2.892
65791W        W34009  38.858   2.539   3.072
65792W        W34010  29.740   5.421  10.810
65793W        W34011  18.480  11.331   5.032
65794W        W34012  18.131  12.517  14.867
65795W        W34013  12.685  31.833  14.024
65796W        W34014  36.637  18.943  11.457
65797W        W34015  27.498  30.654   3.850
65798W        W34016  35.605  34.561  14.108
65799W        W34017  29.676  25.797  10.935
65800W        W34018  41.449  35.870  12.481
65801W        W34019  35.292  15.631  12.515
65802W        W34020   0.846  37.440   2.152
65803W        W34021   7.394  34.978  12.099
65804W        W34022  12.366   0.348  10.225
65805W        W34023  12.620   3.377  14.762
65806W        W34024  20.573  23.570   3.445
65807W        W34025   1.854  33.648   1.435
65808W        W34026  28.893   6.335  12.087
65809W        W34027  12.704  18.227   4.392
65810W        W34028  23.166  26.146   4.279
65811W        W34029  19.101  32.336   4.268
65812W        W34030   3.291  27.074   4.643
65813W        W34031  19.654  26.069   4.363
65814W        W34032  37.590  25.267  13.950
65815W        W34033  32.481  34.909   3.212
65816W        W34034   5.801  44.419   4.889
65817W        W34035  19.162  12.836   4.173
65818W        W34036  26.568  18.532   4.669
65819W        W34037   8.255  21.804   2.529
65820W        W34038  43.712   7.880   0.846
65821W        W34039  22.699  41.901   0.731
65822W        W34040  44.743  43.234  13.800
65823W        W34041  44.004  10.691   4.097
65824W        W34042  43.576  13.211  13.512
65825W        W34043  26.550   0.618   3.009
65826W        W34044  20.243  31.290   2.297
65827W        W34045   6.493  20.298   1.897
65828W        W34046  41.941  20.866   0.012
65829W        W34047  10.228  35.065  13.402
65830W        W34048  29.795  37.540  14.345
65831W        W34049  30.130  44.724   1.814
65832W        W34050   6.250  43.984  13.114
65833W        W34051  38.149  36.293  13.994
65834W        W34052  28.414  34.069  11.164
65835W        W34053  15.046  23.335   0.700
65836W        W34054  32.618   5.281  13.490
65837W        W34055  37.827  42.831   1.604
65838W        W34056  41.988  14.675  14.087
65839W        W34057  40.014  11.310   2.355
65840W        W34058  10.356   5.394  12.862
65841W        W34059  24.951  42.385  12.374
65842W        W34060  26.540  38.539  12.991
65843W        W34061  16.082  34.906   1.677
65844W        W34062  35.888  41.320   0.386
65845W        W34063  10.813   4.153   4.702
65846W        W34064  27.788  29.457   3.809
65847W        W34065  32.368  30.024   0.370
65848W        W34066  14.133   6.951  13.802
65849W        W34067   7.543   0.290  11.604
65850W        W34068  11.133  27.227   2.137
65851W        W34069  31.499  40.723   1.029
65852W        W34070  43.240  42.074   4.703
65853W        W34071  19.752  35.611  12.459
65854W        W34072  27.871  21.646  14.351
65855W        W34073  29.532  19.809  13.269
65856W        W34074  42.318  15.547   4.166
65857W        W34075  40.013  34.972   2.349
65858W        W34076  30.595   7.314  13.132
65859W        W34077  39.073  12.856   4.847
65860W        W34078  25.006  33.456   3.811
65861W        W34079   6.900  26.419   0.722
65862W        W34080   2.975   1.239  12.591
65863W        W34081  12.640  28.417  10.624
65864W        W34082  38.984  32.970   0.570
65865W        W34083  37.526  21.162   5.036
65866W        W34084  32.567   7.348   1.650
65867W        W34085  13.718  14.318   1.830
65868W        W34086  37.318  31.469   1.311
65869W        W34087  38.901  17.649   3.084
65870W        W34088  28.903  40.437  14.711
65871W        W34089  38.586   3.317   4.178
65872W        W34090  12.365  14.281   4.133
65873W        W34091   0.991  42.970   3.653
65874W        W34092  16.557  23.754   0.914
65875W        W34093  22.062   8.797  14.797
65876W        W34094  27.078  13.752  14.377
65877W        W34095  44.264  23.079  14.966
65878W        W34096  34.900  44.817  12.439
65879W        W34097   7.711  36.661  12.994
65880W        W34098  26.979  15.053  11.200
65881W        W34099  23.738   0.056   4.235
65882W        W34100  17.103  10.696   2.949
65883W        W34101  33.411  18.281  14.394
65884W        W34102  40.195  35.215   0.398
65885W        W34103  32.751  25.097   4.177
65886W        W34104   6.867  27.668   3.398
65887W        W34105  16.037  26.529   1.468
65888W        W34106  22.651  38.830  11.446
65889W        W34107  34.386  43.588  14.914
65890W        W34108  15.129  21.004   1.610
65891W        W34109  25.615  35.084  13.912
65892W        W34110  20.282   0.443  12.886
65893W        W34111  34.110  40.760  10.640
65894W        W34112  39.468  17.145   1.195
65895W        W34113  41.868  10.210  11.633
65896W        W34114  25.566  13.540   4.596
65897W        W34115  41.613  26.598  14.957
65898W        W34116   4.697  24.934  12.953
65899W        W34117  15.708  35.550  14.666
65900W        W34118  19.302  25.028   3.147
65901W        W34119  19.602   2.002   1.798
65902W        W34120   3.447  43.822  10.744
65903W        W34121  22.507  33.725   0.438
65904W        W34122  37.119  29.586   2.581
65905W        W34123  40.522  19.483  10.210
65906W        W34124  35.805  43.126   4.179
65907W        W34125  44.398   3.160   2.832
65908W        W34126  30.571  23.957   2.021
65909W        W34127  19.493   3.968   0.113
65910W        W34128  28.178  26.762  10.664
65911W        W34129   4.267  27.610   2.719
65912W        W34130  13.861  32.269  14.262
65913W        W34131  41.598  21.254   0.032
65914W        W34132  24.995   8.332   2.213
65915W        W34133   8.807  39.930   4.662
65916W        W34134   1.821  13.990   3.558
65917W        W34135  36.498  10.875   2.259
65918W        W34136   8.182  16.186   0.324
65919W        W34137  24.025  13.300   0.730
65920W        W34138  41.472  26.480   4.607
65921W        W34139   7.958   7.414  13.026
65922W        W34140  42.909  33.528  10.568
65923W        W34141   6.715   4.430   1.725
65924W        W34142  42.020  34.608  11.069
65925W        W34143  22.462   3.342  13.854
65926W        W34144  44.012   6.234   1.860
65927W        W34145   0.437   3.918   1.004
65928W        W34146  10.898  23.159   2.962
65929W        W34147  17.203  23.920   3.611
65930W        W34148   4.790  28.609   2.721
65931W        W34149  40.312  22.455  11.149
65932W        W34150   5.209  28.115   4.606
65933W        W34151  19.776  42.351  13.500
65934W        W34152   7.152  10.918   1.834
65935W        W34153  35.380   6.674  12.568
65936W        W34154   1.707  42.342   2.639
65937W        W34155   0.837   0.313  14.602
65938W        W34156  17.111   3.479   0.946
65939W        W34157  43.412   6.643  14.036
65940W        W34158   1.026  41.492  14.888
65941W        W34159  17.762  19.098  11.130
65942W        W34160  39.081  29.466   3.692
65943W        W34161  24.071  27.022  10.844
65944W        W34162   8.300   6.415   1.920
65945W        W34163  42.478  22.671  12.391
65946W        W34164  12.216   7.106   2.894
65947W        W34165  30.569  29.698  12.838
65948W        W34166  22.651  24.179   0.278
65949W        W34167  17.952  32.157  13.680
65950W        W34168  20.476  10.640  14.460
65951W        W34169  30.029  39.340   4.165
65952W        W34170  29.165   7.024   0.839
65953W        W34171  36.455   6.927   2.811
65954W        W34172   1.304   2.052   4.889
65955W        W34173  21.857   8.678  13.635
65956W        W34174  34.520  25.080   4.331
65957W        W34175  39.090   5.515   4.182
65958W        W34176   5.185  17.798   5.116
65959W        W34177   8.800  22.502   0.795
65960W        W34178  38.761  25.492  11.041
65961W        W34179  41.270  31.762   3.686
65962W        W34180   5.386   6.319   0.811
65963W        W34181  24.120  28.052  14.512
65964W        W34182   4.335  41.967   5.244
65965W        W34183  18.772  35.607  10.740
65966W        W34184  39.469  21.131  10.555
65967W        W34185  19.026  43.050  14.412
65968W        W34186   2.353   7.208   2.936
65969W        W34187   3.411  43.009   3.615
65970W        W34188   9.453  25.055  12.443
65971W        W34189  40.766   3.504   4.699
65972W        W34190  37.487   0.692  13.142
65973W        W34191  38.889  21.006  14.826
65974W        W34192  38.326  23.142  12.782
65975W        W34193  39.002  18.971   3.419
65976W        W34194   4.922  36.344   4.973
65977W        W34195  20.002  39.106  13.483
65978W        W34196  25.594  21.001  12.704
65979W        W34197  24.211  34.136  10.625
65980W        W34198  26.873  31.380  11.565
65981W        W34199  14.106  26.452  13.495
65982W        W34200   1.521  22.680  12.422
65983W        W34201  30.152  34.932   1.302
65984W        W34202  40.937   1.892  13.229
65985W        W34203  27.447  31.103   0.439
65986W        W34204  15.893   8.854   4.568
65987W        W34205  40.100  19.340  10.520
65988W        W34206   2.380  11.275  12.605
65989W        W34207  41.529   8.136  12.948
65990W        W34208  27.101  22.061  11.018
65991W        W34209   0.001  35.245   3.542
65992W        W34210  13.119   3.819   2.329
65993W        W34211   7.486  32.089   4.649
65994W        W34212  25.496  33.597   1.167
65995W        W34213  32.124  34.577  11.984
65996W        W34214  29.596  28.265   1.740
65997W        W34215   7.818  38.108   0.472
65998W        W34216  44.408  22.304  12.036
65999W        W34217   2.411   1.435   4.214
66000W        W34218  20.594  39.026   0.024
66001W        W34219   6.153  15.700   3.484
66002W        W34220  13.708  33.036  12.251
66003W        W34221   5.999   5.750  13.149
66004W        W34222  31.632  28.521  13.008
66005W        W34223   2.301  21.830  14.882
66006W        W34224  28.464  14.282   1.885
66007W        W34225  24.894   0.803   1.071
66008W        W34226  12.701  28.144   4.389
66009W        W34227  20.939  13.311   9.823
66010W        W34228  28.959  14.353  11.520
66011W        W34229  10.431  23.831   4.423
66012W        W34230  40.380  24.067   2.443
66013W        W34231  37.430  18.685  10.720
66014W        W34232  21.999  42.202  12.175
66015W        W34233  29.930  20.532   2.592
66016W        W34234  38.487  35.023  11.109
66017W        W34235  37.627  21.165   4.118
66018W        W34236  22.501  35.315   0.860
66019W        W34237   3.327  16.309   3.104
66020W        W34238   8.716  42.959   3.927
66021W        W34239  23.106  30.139   2.107
66022W        W34240  15.831   1.965   2.628
66023W        W34241  30.014   8.418   1.010
66024W        W34242  28.097   4.883  11.499
66025W        W34243  41.361  36.140  14.768
66026W        W34244  28.175   8.878  14.422
66027W        W34245   1.200  20.119   2.627
66028W        W34246  43.041  36.472   0.362
66029W        W34247  24.629  18.064   3.708
66030W        W34248  21.735  43.560   3.684
66031W        W34249  27.372  14.205   2.748
66032W        W34250  35.722  22.729  13.832
66033W        W34251  42.527  31.902   3.224
66034W        W34252  11.771  35.064   2.436
66035W        W34253  29.968  34.128   3.603
66036W        W34254   4.472  29.856  11.989
66037W        W34255  34.914  17.296   4.657
66038W        W34256  44.366  13.267  11.169
66039W        W34257  28.692  21.924   5.014
66040W        W34258  25.536   5.933   4.898
66041W        W34259  15.533   7.866  11.488
66042W        W34260  34.448  43.948  13.397
66043W        W34261  40.814  26.868   1.738
66044W        W34262  19.549  16.540   4.013
66045W        W34263  10.369  42.855   2.842
66046W        W34264  19.180  23.451   1.251
66047W        W34265  35.000  17.629   1.210
66048W        W34266  14.615  37.683  11.816
66049W        W34267  37.185  28.000   3.622
66050W        W34268   3.546  44.753   4.630
66051W        W34269   4.543  42.910   4.905
66052W        W34270   4.737  27.911   0.291
66053W        W34271   3.189  37.099   2.781
66054W        W34272   7.910  35.517   1.923
66055W        W34273  28.678  16.704  14.725
66056W        W34274  13.575  37.565  13.389
66057W        W34275  37.900  36.946   3.525
66058W        W34276  22.681  38.096   1.564
66059W        W34277  35.067  15.069   4.141
66060W        W34278  24.666  17.304   4.976
66061W        W34279  12.501   1.689   5.018
66062W        W34280  27.995  12.839  11.142
66063W        W34281  41.063   5.913   1.276
66064W        W34282  43.363  22.012  13.428
66065W        W34283   2.700  27.539  10.513
66066W        W34284  23.143  31.940  11.599
66067W        W34285  27.079  15.078   0.854
66068W        W34286  29.071  21.568   3.739
66069W        W34287  25.155  32.353   2.883
66070W        W34288  20.824  14.349   0.538
66071W        W34289  44.289  39.337  12.467
66072W        W34290  20.419  15.245   0.258
66073W        W34291  17.091  22.001  11.645
66074W        W34292  34.138  38.994  11.012
66075W        W34293  17.366  27.221   2.183
66076W        W34294   0.169   2.189   4.751
66077W        W34295  35.993  41.030   0.817
66078W        W34296  23.134   7.692   1.202
66079W        W34297  41.488  27.083  14.258
66080W        W34298   3.219  40.389  14.651
66081W        W34299  35.562  27.693  13.929
66082W        W34300  26.764   1.544   2.920
66083W        W34301   5.922  39.141  11.551
66084W        W34302  21.388  37.381   0.321
66085W        W34303   6.872  33.833   9.839
66086W        W34304   5.986  39.049  12.860
66087W        W34305  23.525  16.382  12.537
66088W        W34306  42.934  10.066   3.571
66089W        W34307  12.138  14.383   3.664
66090W        W34308  18.155  13.599   1.780
66091W        W34309   4.251   2.495   4.543
66092W        W34310   3.225   4.579   2.195
66093W        W34311  21.764  43.036   2.741
66094W        W34312   9.270   7.642   1.201
66095W        W34313  21.324  39.246  11.496
66096W        W34314  18.715   3.098  10.736
66097W        W34315  42.372  24.201   2.764
66098W        W34316  17.046  32.424   1.775
66099W        W34317  32.549  35.616  10.906
66100W        W34318  13.793  43.330   0.788
66101W        W34319  24.061   0.856   0.301
66102W        W34320  24.406   8.687  10.813
66103W        W34321   5.874  28.477  12.612
66104W        W34322  30.658  21.608  13.110
66105W        W34323  44.423  10.641  13.008
66106W        W34324  17.185  38.371   3.352
66107W        W34325   6.823  44.452   1.217
66108W        W34326  13.835   6.245   4.859
66109W        W34327  39.552  20.972   2.015
66110W        W34328   3.678   0.787  11.672
66111W        W34329  27.537  18.281   4.678
66112W        W34330  14.706   2.565   2.205
66113W        W34331  23.279   8.320  10.621
66114W        W34332   0.755   6.419  14.497
66115W        W34333   2.744  32.858   0.363
66116W        W34334  44.190  40.295  14.232
66117W        W34335  35.560   1.837   4.294
66118W        W34336   4.784   6.385   3.525
66119W        W34337  43.317  44.217  14.827
66120W        W34338   8.157   5.119  13.023
66121W        W34339   6.474  44.501   0.262
66122W        W34340  21.488  28.868   5.171
66123W        W34341  40.088  31.573   0.355
66124W        W34342  33.618  31.052   3.623
66125W        W34343  36.293  37.294  11.250
66126W        W34344  22.608  20.232   0.334
66127W        W34345  41.396  38.574  12.529
66128W        W34346  33.583  17.358  11.638
66129W        W34347  35.812   2.937  10.480
66130W        W34348  33.885   2.513   4.612
66131W        W34349   3.879   8.720  12.491
66132W        W34350   5.787  40.522  11.726
66133W        W34351  15.133  33.553   1.852
66134W        W34352  31.017  29.752  13.080
66135W        W34353  32.202  34.010  10.505
66136W        W34354   6.386  21.728  12.491
66137W        W34355  39.059   7.089   3.679
66138W        W34356   4.869  13.597  12.899
66139W        W34357   9.369  39.552   1.775
66140W        W34358   1.801  19.522   2.302
66141W        W34359  20.821  11.175   4.563
66142W        W34360   4.882  38.313  10.505
66143W        W34361  13.542  18.689   2.398
66144W        W34362   6.801   8.665  10.649
66145W        W34363  32.067  26.691  11.538
66146W        W34364   0.687  32.578   4.104
66147W        W34365   3.720  36.493  11.648
66148W        W34366   3.681  11.586  13.933
66149W        W34367  31.117   4.338  13.817
66150W        W34368  39.135  34.323  10.446
66151W        W34369   1.485  43.210   4.472
66152W        W34370  30.937   8.165  12.956
66153W        W34371  20.288  42.778   1.247
66154W        W34372  10.839  29.197   4.378
66155W        W34373   4.325  20.237  13.033
66156W        W34374  20.048  41.763   0.998
66157W        W34375  10.783  16.785  13.127
66158W        W34376  34.412  19.110  11.518
66159W        W34377  34.441  35.097   0.370
66160W        W34378   5.249  16.100  14.786
66161W        W34379  29.908   9.315  14.859
66162W        W34380   6.493  34.460   1.711
66163W        W34381   1.020  43.445   2.752
66164W        W34382  14.826  44.192   3.567
66165W        W34383   8.391   7.854  11.928
66166W        W34384  23.626   8.760   4.506
66167W        W34385  23.487   4.165   0.705
66168W        W34386   8.396  41.345  10.760
66169W        W34387   1.048  41.981  11.015
66170W        W34388  31.685  22.602   0.846
66171W        W34389  12.306  29.147   1.436
66172W        W34390  25.475   0.923  11.289
66173W        W34391  16.681  25.986   3.095
66174W        W34392   3.191  11.120  11.417
66175W        W34393  17.748  32.361   4.164
66176W        W34394  25.018  15.808  12.026
66177W        W34395  36.422  27.159   0.944
66178W        W34396  11.191  44.718  14.784
66179W        W34397   5.710  41.438   0.757
66180W        W34398  21.947   3.937   1.455
66181W        W34399  39.022   2.460  13.062
66182W        W34400   4.640  41.295   4.465
66183W        W34401   3.960  32.683   0.830
66184W        W34402  41.571  30.447   0.877
66185W        W34403  27.416  12.877  11.475
66186W        W34404  42.339  42.961  13.553
66187W        W34405  41.600  11.407  14.489
66188W        W34406   0.730   9.165  14.192
66189W        W34407   0.528  44.391   2.192
66190W        W34408  32.592  25.460  11.688
66191W        W34409  39.291   1.571   2.425
66192W        W34410  36.155  31.997  11.617
66193W        W34411  43.882  21.989  13.379
66194W        W34412  34.904   1.300   3.279
66195W        W34413  17.333  22.257  14.410
66196W        W34414  17.973  25.512  11.149
66197W        W34415  18.152  41.416   2.340
66198W        W34416  14.099  41.516   4.424
66199W        W34417  27.845  16.822  14.987
66200W        W34418  31.507   8.638  14.734
66201W        W34419  42.563   1.454  14.002
66202W        W34420  17.715   3.759  10.761
66203W        W34421  42.125   8.762   0.921
66204W        W34422  38.944  33.153   0.084
66205W        W34423  25.560  40.923   4.145
66206W        W34424  10.161   6.934  14.255
66207W        W34425  16.111  40.309  11.571
66208W        W34426  44.231  17.850  14.738
66209W        W34427  31.377  32.121  12.948
66210W        W34428  40.458  32.679  13.438
66211W        W34429   0.780  13.259  13.300
66212W        W34430  18.631  40.542  12.057
66213W        W34431  25.707  17.627   3.127
66214W        W34432   6.142  12.815  14.273
66215W        W34433   3.668  31.837  10.202
66216W        W34434  29.090  37.444  11.578
66217W        W34435  14.069  26.042  12.531
66218W        W34436   0.614  15.622  11.183
66219W        W34437   2.325   0.523   3.868
66220W        W34438  17.201  14.176   4.101
66221W        W34439  13.256  16.797   3.588
66222W        W34440  24.465   9.432   2.850
66223W        W34441  12.912  18.829  14.396
66224W        W34442  36.471  19.718  13.869
66225W        W34443  18.573   8.220   4.371
66226W        W34444   5.281  39.306  12.818
66227W        W34445  28.509  26.531   4.154
66228W        W34446   5.721   5.293  11.080
66229W        W34447   0.716  22.115   0.193
66230W        W34448  30.337  30.950  12.435
66231W        W34449  26.614  25.775   4.141
66232W        W34450  33.576  27.061  13.837
66233W        W34451   1.416  24.111   0.851
66234W        W34452  43.574  20.300  12.588
66235W        W34453  25.429  29.045  10.267
66236W        W34454  26.441  39.561   0.838
66237W        W34455  33.969   6.087   2.585
66238W        W34456  14.249  31.323   3.097
66239W        W34457  26.742   1.319  10.981
66240W        W34458  20.712  10.549  12.813
66241W        W34459  33.938  23.146  13.719
66242W        W34460  39.042   3.875  13.109
66243W        W34461   5.889  43.450   3.149
66244W        W34462  28.069  42.809   4.086
66245W        W34463  42.222   4.189   3.733
66246W        W34464  19.598  27.467   0.278
66247W        W34465  23.804  15.187   2.860
66248W        W34466  38.539   0.814  11.649
66249W        W34467  43.291  16.115  12.447
66250W        W34468  10.926  33.797   3.342
66251W        W34469  13.307  35.650   4.976
66252W        W34470  16.607  42.069  11.018
66253W        W34471  30.008  41.482   3.554
66254W        W34472  12.104  32.927  14.505
66255W        W34473  30.013  16.132  11.079
66256W        W34474  15.747  11.428   1.844
66257W        W34475  18.790  15.857  14.950
66258W        W34476  13.211  22.971  10.727
66259W        W34477  13.524  27.463  13.458
66260W        W34478   7.768  29.119   2.737
66261W        W34479   2.335  27.405  14.183
66262W        W34480   2.550  24.584  11.400
66263W        W34481  31.483  44.371  10.672
66264W        W34482   8.419  11.898   0.896
66265W        W34483  24.778   8.395  10.609
66266W        W34484  26.918  17.672  13.754
66267W        W34485   9.860  42.885   2.698
66268W        W34486  33.017  35.817  13.929
66269W        W34487  31.899  41.490   1.130
66270W        W34488  25.130  39.585   0.413
66271W        W34489  44.960  25.115  11.051
66272W        W34490  17.159   1.635   9.807
66273W        W34491  30.913   9.094   2.497
66274W        W34492   4.726  10.782   1.268
66275W        W34493  33.687  43.390   1.578
66276W        W34494  34.468  31.095   2.415
66277W        W34495   4.989  37.135  14.261
66278W        W34496  18.862  13.131   0.851
66279W        W34497  40.754  25.243   2.432
66280W        W34498  37.451   8.738   4.061
66281W        W34499  41.034  43.122  11.107
66282W        W34500  26.703  40.356  14.741
66283W        W34501  21.719   4.660  13.554
66284W        W34502  42.910  16.574  14.785
66285W        W34503  32.418  22.074  13.607
66286W        W34504   1.500  19.173   4.475
66287W        W34505  34.852  30.126   2.862
66288W        W34506  43.708  17.767  14.699
66289W        W34507  10.120  11.850  14.092
66290W        W34508   9.292  28.670  14.821
66291W        W34509   8.799  22.727   5.060
66292W        W34510  26.270  42.939   4.294
66293W        W34511  29.962  41.073  12.900
66294W        W34512  10.202  36.864  11.417
66295W        W34513  32.461  35.391  14.807
66296W        W34514   6.705  19.482  13.772
66297W        W34515  33.997  26.720   2.352
66298W        W34516  10.155  12.920  14.815
66299W        W34517  13.968   6.693   2.295
66300W        W34518  40.010  38.961  11.050
66301W        W34519   7.283  19.626  14.961
66302W        W34520  37.575  11.293  13.029
66303W        W34521  32.480   2.351  12.414
66304W        W34522  22.533  23.108   1.305
66305W        W34523  11.343  40.802   3.758
66306W        W34524   3.498  21.072  13.030
66307W        W34525  28.037  14.054   9.768
66308W        W34526  10.445   8.232  14.226
66309W        W34527  41.069  26.307   3.333
66310W        W34528  33.053  31.453   2.333
66311W        W34529  39.360  16.079  11.167
66312W        W34530  34.071  19.740   2.097
66313W        W34531  37.806  17.086   0.358
66314W        W34532   4.436  43.794   3.128
66315W        W34533  16.458  19.440   3.829
66316W        W34534  12.742  36.524  10.402
66317W        W34535  43.265  19.215   0.359
66318W        W34536  35.301  31.582  14.863
66319W        W34537  15.687  42.426  12.814
66320W        W34538   4.853  20.478  14.143
66321W        W34539  40.433   8.248   0.476
66322W        W34540  37.498  11.835   0.356
66323W        W34541  32.155  40.802   3.620
66324W        W34542  10.597  35.837  13.984
66325W        W34543  15.056  14.167  13.537
66326W        W34544  12.017  14.914   0.392
66327W        W34545  16.810   1.238  13.986
66328W        W34546  25.608  16.301  13.300
66329W        W34547  23.550  19.323  11.248
66330W        W34548   9.767  14.597  12.191
66331W        W34549   5.886  23.995  11.022
66332W        W34550  22.450  31.461   4.090
66333W        W34551   4.791   4.506   1.515
66334W        W34552  16.321  11.640   1.819
66335W        W34553  19.866  21.675  13.593
66336W        W34554  23.596  29.191  11.358
66337W        W34555   8.003   5.591  13.147
66338W        W34556  36.570  39.283   4.542
66339W        W34557  33.752  27.189   3.252
66340W        W34558  27.517   5.397  10.549
66341W        W34559  25.043   2.489   2.700
66342W        W34560   8.915  16.445  13.897
66343W        W34561  22.148  33.579  10.695
66344W        W34562   9.229  30.532  12.898
66345W        W34563  34.856  15.119  10.544
66346W        W34564   6.823   6.979   0.759
66347W        W34565  23.599   7.110   1.400
66348W        W34566  36.556  11.072   4.584
66349W        W34567  36.397  25.482  10.543
66350W        W34568  43.048  30.550   1.818
66351W        W34569  30.537  28.262   1.658
66352W        W34570  32.196   4.697   2.280
66353W        W34571  13.938  43.358  11.600
66354W        W34572  31.196  20.159   0.315
66355W        W34573  12.059  39.788   2.826
66356W        W34574  18.735  24.218  12.739
66357W        W34575   1.799  12.620  10.789
66358W        W34576   6.429  43.591  10.373
66359W        W34577  30.551  32.822  12.115
66360W        W34578  29.565  20.831   3.492
66361W        W34579  30.967  27.706   2.908
66362W        W34580  28.513  30.034   1.245
66363W        W34581   2.306   8.557   1.768
66364W        W34582  25.231  13.710  11.110
66365W        W34583  36.047  14.144  13.363
66366W        W34584  39.089  38.922   4.643
66367W        W34585  14.998  44.419  11.548
66368W        W34586  18.316  11.100   3.685
66369W        W34587  15.038  29.384   4.300
66370W        W34588  26.094  34.922  13.946
66371W        W34589  39.328  43.277  13.117
66372W        W34590   5.864  33.670   1.965
66373W        W34591   0.895  24.003  13.958
66374W        W34592  44.762  17.873   4.046
66375W        W34593  33.140  35.491   2.852
66376W        W34594  38.434  14.248   3.040
66377W        W34595  41.559  26.165  14.656
66378W        W34596   3.030  15.536  12.433
66379W        W34597   9.464  16.531  13.287
66380W        W34598  12.778   5.174  13.566
66381W        W34599   4.131   3.245  13.331
66382W        W34600  31.600  16.573   1.135
66383W        W34601   1.620  39.910   3.667
66384W        W34602  23.469  20.710  12.585
66385W        W34603  25.091  32.118  11.173
66386W        W34604  26.812  40.593  10.767
66387W        W34605   5.654   0.967   1.718
66388W        W34606   2.767  32.417   4.814
66389W        W34607   5.284  22.622  12.395
66390W        W34608  34.376  16.053   4.635
66391W        W34609  26.421   3.261  12.480
66392W        W34610  39.791  32.816   4.067
66393W        W34611  18.696   3.331  12.894
66394W        W34612  32.851  11.827   1.819
66395W        W34613  12.367  16.831  13.117
66396W        W34614  11.663  26.025   2.875
66397W        W34615  14.436  35.197   2.826
66398W        W34616  24.688  13.257   2.783
66399W        W34617  30.510  26.595   2.847
66400W        W34618  40.064  33.068   0.437
66401W        W34619   8.765  14.129  11.979
66402W        W34620  40.036  40.048   1.010
66403W        W34621   4.733  29.809   4.561
66404W        W34622  10.700  24.820  13.371
66405W        W34623  22.083   5.373   1.226
66406W        W34624   0.350  35.477   1.380
66407W        W34625  24.001  33.855   9.699
66408W        W34626  32.168  42.459  14.324
66409W        W34627  29.507  25.462  13.906
66410W        W34628   1.530  32.966   4.160
66411W        W34629  11.180  34.253  10.760
66412W        W34630   3.244   9.254   2.680
66413W        W34631   8.179  20.145  14.152
66414W        W34632   7.845  10.605  11.566
66415W        W34633   1.273  14.589   3.184
66416W        W34634  30.433   5.293   4.467
66417W        W34635   7.324  36.920   2.172
66418W        W34636   4.856  43.453  12.051
66419W        W34637  35.990   2.191   0.655
66420W        W34638  37.473  10.128  13.741
66421W        W34639  24.476  38.552   4.509
66422W        W34640   8.521  18.731   9.773
66423W        W34641  15.255  15.493   5.015
66424W        W34642   0.970   0.164   1.342
66425W        W34643  38.450  11.394  11.175
66426W        W34644  33.598   5.504  13.353
66427W        W34645   0.933  27.106   3.394
66428W        W34646  30.574  42.465   1.648
66429W        W34647  14.177  38.046   3.001
66430W        W34648  13.360   1.027   4.844
66431W        W34649   5.104  15.135   3.687
66432W        W34650  39.553  24.672   0.272
66433W        W34651  37.618  21.706  10.935
66434W        W34652  40.924   7.781  13.466
66435W        W34653  27.065  26.422  12.300
66436W        W34654   7.275   1.947  11.095
66437W        W34655  12.673  32.505   0.645
66438W        W34656   9.231  33.076  12.650
66439W        W34657  21.658   1.027  12.190
66440W        W34658  18.800  29.803   2.986
66441W        W34659  10.286  24.606   3.871
66442W        W34660  10.393  31.696  13.995
66443W        W34661  36.315   3.789   4.571
66444W        W34662  23.879  36.846  11.149
66445W        W34663  31.916  19.696  10.628
66446W        W34664  26.557  21.681   3.668
66447W        W34665  28.629  39.022   2.369
66448W        W34666  12.839  17.499   3.936
66449W        W34667  42.841  15.636   0.319
66450W        W34668  35.019  35.903  10.764
66451W        W34669  15.091  19.585   1.429
66452W        W34670  14.368  36.767  12.039
66453W        W34671  38.827  10.127   1.473
66454W        W34672   4.031  38.161   1.892
66455W        W34673  19.786   4.793  13.775
66456W        W34674  21.700   7.863   1.944
66457W        W34675   5.134   6.601   3.198
66458W        W34676  36.858  37.875  11.574
66459W        W34677  19.059  29.919  13.944
66460W        W34678   4.856  39.477  11.517
66461W        W34679  34.382   7.239  13.978
66462W        W34680   6.334  37.039  10.734
66463W        W34681  29.377  39.380  10.718
66464W        W34682   0.614   5.677   0.752
66465W        W34683  23.651  23.677   2.664
66466W        W34684  21.670  18.813   4.176
66467W        W34685  30.821  22.263   3.110
66468W        W34686  12.665   5.574   1.674
66469W        W34687  31.510   6.704   3.744
66470W        W34688  16.784  18.108   3.564
66471W        W34689  11.682  28.615   1.184
66472W        W34690  20.021  26.080   2.247
66473W        W34691   1.269  36.005  13.879
66474W        W34692  42.205   9.968  13.507
66475W        W34693   8.630  29.705   4.149
66476W        W34694  36.970   2.378  11.907
66477W        W34695   3.340  11.332  10.310
66478W        W34696  38.488  32.967   0.301
66479W        W34697  44.690   1.824  14.974
66480W        W34698  29.072  36.355  14.746
66481W        W34699   6.674  21.605   3.264
66482W        W34700  17.092   9.425  13.301
66483W        W34701  27.683  26.167   0.829
66484W        W34702  31.487  26.041   3.780
66485W        W34703   6.901  40.059   0.810
66486W        W34704  43.513   8.246  12.813
66487W        W34705  22.059   1.870   3.596
66488W        W34706  22.775   3.310  12.461
66489W        W34707  41.800  37.078  13.851
66490W        W34708  13.587  27.204   4.891
66491W        W34709  10.690   3.498   1.875
66492W        W34710  13.638  41.327  12.294
66493W        W34711  40.104  29.564   0.641
66494W        W34712   8.241   2.950  12.915
66495W        W34713   9.396  17.321   1.321
66496W        W34714  28.027  14.754   4.582
66497W        W34715   1.488  41.520   0.886
66498W        W34716   9.053  38.933   3.056
66499W        W34717   4.385  20.271  10.722
66500W        W34718  14.693   1.702   1.393
66501W        W34719  33.282  24.813   3.266
66502W        W34720  25.424   0.227   2.653
66503W        W34721  42.884  14.247  12.841
66504W        W34722  36.856  12.592  14.406
66505W        W34723  31.543  21.690  13.355
66506W        W34724   3.823   5.679  11.076
66507W        W34725  10.727  19.858   0.947
66508W        W34726   9.169  15.486   0.867
66509W        W34727  31.672  33.161   1.648
66510W        W34728  12.719  35.671  10.580
66511W        W34729   8.369   3.637  11.972
66512W        W34730  30.940  38.496  13.057
66513W        W34731  10.866  33.650  12.500
66514W        W34732  18.950  37.936  13.586
66515W        W34733  25.528  30.588   0.551
66516W        W34734  40.549   1.761  14.111
66517W        W34735  13.248  36.267   2.325
66518W        W34736   3.876  21.203  11.999
66519W        W34737   9.575  12.632   0.363
66520W        W34738   4.257  41.089   1.259
66521W        W34739   3.681  23.624  11.308
66522W        W34740   1.021  25.801  13.617
66523W        W34741  23.468   6.503  10.540
66524W        W34742  32.855  17.228  12.875
66525W        W34743  44.970  20.782   0.916
66526W        W34744  44.720   2.832   0.265
66527W        W34745   3.991   8.361   1.906
66528W        W34746  29.110  38.111   3.682
66529W        W34747  44.700   0.471  14.518
66530W        W34748  24.097  12.778  13.925
66531W        W34749  15.643  21.135  10.887
66532W        W34750  40.381   2.357  12.914
66533W        W34751  24.663  11.308   1.809
66534W        W34752  37.152  20.473  14.764
66535W        W34753  10.973  31.695   4.723
66536W        W34754  28.408  23.502   3.097
66537W        W34755  29.304  34.389   9.829
66538W        W34756  31.119  33.049   2.891
66539W        W34757  14.200   1.415  11.922
66540W        W34758  31.437  12.904  11.983
66541W        W34759   4.646  37.790   4.622
66542W        W34760  41.174  10.864   3.019
66543W        W34761  30.946   5.155  12.913
66544W        W34762  33.316  25.239   0.750
66545W        W34763   6.873   0.399  13.277
66546W        W34764   0.893  14.159   0.286
66547W        W34765  14.199  37.012   1.700
66548W        W34766  14.763   9.855   2.354
66549W        W34767  22.631  12.961  14.461
66550W        W34768  44.351  14.849  14.207
66551W        W34769  21.676  43.854   0.509
66552W        W34770   8.285  37.411  12.525
66553W        W34771   4.233   2.439  14.107
66554W        W34772  25.475  27.680   3.945
66555W        W34773  30.206   3.766  13.906
66556W        W34774  28.980  18.439   0.484
66557W        W34775  13.665   9.300   2.046
66558W        W34776  23.244  22.631  10.213
66559W        W34777  31.572  39.720  11.104
66560W        W34778  25.420  44.036   3.857
66561W        W34779  41.362  34.816   2.828
66562W        W34780  10.931  30.448  13.497
66563W        W34781  33.694  25.172   0.293
66564W        W34782  10.347  23.574   2.723
66565W        W34783   5.343   0.907  11.600
66566W        W34784  14.003  34.594  10.199
66567W        W34785   1.669  15.102   4.067
66568W        W34786  33.123  37.934   4.837
66569W        W34787   3.259  25.156   0.251
66570W        W34788  15.657   4.832   4.022
66571W        W34789  23.994  39.336   2.351
66572W        W34790  32.950  43.256   0.997
66573W        W34791  34.012  11.341   0.406
66574W        W34792  31.620   9.166  12.485
66575W        W34793  14.552  34.124  11.653
66576W        W34794  31.225  40.846   4.005
66577W        W34795  19.689  38.068   0.078
66578W        W34796  40.998  16.801  12.423
66579W        W34797  19.169  23.247  14.277
66580W        W34798  33.628  21.038  11.635
66581W        W34799  20.134  33.567  13.333
66582W        W34800  41.860  12.442  11.159
66583W        W34801  28.218  10.220  10.593
66584W        W34802  44.524  14.514  11.563
66585W        W34803  24.565  26.344  14.356
66586W        W34804  13.830  18.285  11.082
66587W        W34805  22.130  20.071  10.644
66588W        W34806  28.226  23.742   1.728
66589W        W34807  14.823   9.401   4.924
66590W        W34808   6.320  39.401  13.984
66591W        W34809  20.812   2.336   4.553
66592W        W34810  41.462   9.905  13.968
66593W        W34811   9.817  38.089   3.707
66594W        W34812   9.392  11.909   1.847
66595W        W34813  15.241  44.748   2.741
66596W        W34814  39.078  29.522   0.799
66597W        W34815  31.432  32.635  12.888
66598W        W34816  35.622  35.861   3.097
66599W        W34817  25.559  10.737  10.719
66600W        W34818  28.442   2.778   2.738
66601W        W34819   6.790   1.982  13.248
66602W        W34820  20.541   9.175   2.693
66603W        W34821   2.800  17.605  12.510
66604W        W34822  14.236   4.205  13.270
66605W        W34823  25.784  21.490   4.059
66606W        W34824  28.548  17.144  14.470
66607W        W34825  33.193  36.662  13.834
66608W        W34826  17.724  18.120  10.284
66609W        W34827   2.827  23.433  12.103
66610W        W34828   0.213   3.695  11.719
66611W        W34829  23.480  10.943  13.490
66612W        W34830   3.477  23.722   1.360
66613W        W34831   6.203  31.401   0.011
66614W        W34832  30.023  44.806  11.990
66615W        W34833  14.652  37.887  14.579
66616W        W34834  36.862  28.436  11.408
66617W        W34835  13.365  35.763   0.704
66618W        W34836  39.374  35.444  12.851
66619W        W34837   6.201   0.697  12.518
66620W        W34838  16.175  42.286  11.208
66621W        W34839  40.516  28.926  13.920
66622W        W34840   6.620   8.724   1.987
66623W        W34841  32.429  42.571  11.664
66624W        W34842  13.363  20.164   0.384
66625W        W34843  10.424  16.769  14.935
66626W        W34844  28.572  13.693  11.321
66627W        W34845  30.624  42.963   4.533
66628W        W34846   3.968  14.229   0.931
66629W        W34847   9.896  43.389  13.391
66630W        W34848  22.627   6.966  14.544
66631W        W34849  40.491   3.420   2.198
66632W        W34850  30.908   4.717  13.275
66633W        W34851  38.107  41.280   0.944
66634W        W34852  10.239   6.718  11.581
66635W        W34853  17.584  17.100   1.276
66636W        W34854  38.638  10.612  10.624
66637W        W34855  38.156   6.454   0.378
66638W        W34856  28.915  17.060   9.824
66639W        W34857  39.483  20.715   3.798
66640W        W34858  23.722  24.495  14.364
66641W        W34859  28.622  17.282   2.161
66642W        W34860  41.801  28.379   3.700
66643W        W34861  35.929   6.110  13.030
66644W        W34862  34.954  32.996  14.815
66645W        W34863  21.329   2.351   4.504
66646W        W34864   0.268  11.205  10.672
66647W        W34865  34.670  36.823  10.979
66648W        W34866   8.674  25.063  11.309
66649W        W34867  43.748  20.102   2.602
66650W        W34868  25.078  13.672   3.577
66651W        W34869  39.937  13.428  13.524
66652W        W34870  42.339   3.854  11.515
66653W        W34871  42.920  41.260  13.787
66654W        W34872  35.675  13.448  14.819
66655W        W34873  37.581  42.869  13.563
66656W        W34874  26.577  41.086  10.786
66657W        W34875  30.936   7.221   3.165
66658W        W34876  33.035  14.147   4.074
66659W        W34877  18.272  20.579   0.111
66660W        W34878   7.002   2.749   3.606
66661W        W34879  14.316  16.932  13.057
66662W        W34880   7.373   3.648   3.995
66663W        W34881   1.967  40.543  14.439
66664W        W34882  21.570  28.920  13.389
66665W        W34883  19.094  36.136   2.350
66666W        W34884  18.340  43.336  13.629
66667W        W34885   9.993  35.702   2.188
66668W        W34886  19.716   0.069  11.568
66669W        W34887  13.172  30.729   1.297
66670W        W34888  39.045   8.170  13.760
66671W        W34889  20.082   6.805   0.236
66672W        W34890  12.911   7.802  12.148
66673W        W34891  27.470   3.133  12.380
66674W        W34892  13.308  38.622  11.005
66675W        W34893  24.599  15.252  10.633
66676W        W34894  31.202  33.005  11.648
66677W        W34895   1.943   3.897  10.756
66678W        W34896  23.960  26.115  13.829
66679W        W34897  21.018  42.416   0.873
66680W        W34898  34.556  27.657   3.115
66681W        W34899  14.801  42.507  14.864
66682W        W34900  38.950   9.380   4.036
66683W        W34901  30.463  15.683  13.497
66684W        W34902  41.045  28.509   2.365
66685W        W34903   8.828  20.647   1.412
66686W        W34904  23.927  29.231   1.679
66687W        W34905  13.559  27.429   4.255
66688W        W34906  20.506  14.017   2.406
66689W        W34907   8.358  18.760   4.924
66690W        W34908   3.232   8.778   2.893
66691W        W34909   9.649   1.757  12.010
66692W        W34910   8.141  26.857  13.204
66693W        W34911   9.107  43.791  10.978
66694W        W34912   2.170  20.195   2.735
66695W        W34913  31.912   9.107  11.093
66696W        W34914  25.218  33.840  10.764
66697W        W34915  36.159  14.667   3.202
66698W        W34916  32.210  39.926  13.246
66699W        W34917  43.452  23.487   3.484
66700W        W34918  17.701   5.436  12.453
66701W        W34919  15.243  17.312   2.161
66702W        W34920  10.620  36.003  14.910
66703W        W34921  23.713   9.626   3.650
66704W        W34922  24.935  18.495   3.855
66705W        W34923  16.608  44.913  14.464
66706W        W34924  38.100   6.691  13.707
66707W        W34925  13.573  39.448  13.522
66708W        W34926   4.537  31.473  10.657
66709W        W34927  27.787  27.408   1.755
66710W        W34928   6.454  36.479  11.397
66711W        W34929   1.441  44.505  12.437
66712W        W34930  19.510  42.783   1.369
66713W        W34931  27.887  19.078   0.363
66714W        W34932  19.523  23.036  13.238
66715W        W34933  38.420   1.142   4.078
66716W        W34934  40.249  31.213  13.284
66717W        W34935  24.472  39.583  13.875
66718W        W34936  39.115  33.578   1.377
66719W        W34937  18.184   0.291   3.179
66720W        W34938  39.495   3.942   5.015
66721W        W34939  39.517  31.120  11.858
66722W        W34940  18.559  18.687  11.251
66723W        W34941  38.154   3.949  12.767
66724W        W34942   0.193   9.802  14.906
66725W        W34943   0.705  10.817   4.371
66726W        W34944  32.338   7.925  14.763
66727W        W34945  21.487   9.272  11.509
66728W        W34946   3.971  20.411  11.023
66729W        W34947  31.338  31.420  13.620
66730W        W34948  31.116  26.072   2.616
66731W        W34949   9.944   2.096   4.439
66732W        W34950   8.785  10.105  11.595
66733W        W34951  37.779   0.983  10.295
66734W        W34952  17.756  42.899  13.053
66735W        W34953  16.767  39.871  12.108
66736W        W34954  30.101  30.060   0.951
66737W        W34955  15.754  38.579  13.565
66738W        W34956  15.078  18.556  10.709
66739W        W34957  23.977   3.389   2.068
66740W        W34958  36.110  27.869  14.190
66741W        W34959  27.471  24.784  12.043
66742W        W34960  41.760  15.262  14.301
66743W        W34961  28.834  29.763   0.918
66744W        W34962   0.826  43.145   4.952
66745W        W34963  27.681   9.698   2.472
66746W        W34964  42.773  41.472   1.824
66747W        W34965   7.870   4.383   3.767
66748W        W34966  19.080  10.469   4.569
66749W        W34967  19.637  39.333  10.386
66750W        W34968  28.399  30.605  14.811
66751W        W34969   8.188  43.943   3.370
66752W        W34970  12.870   4.648  11.634
66753W        W34971  32.415   7.696  11.654
66754W        W34972  27.689   9.119  14.416
66755W        W34973  40.572  26.696  14.898
66756W        W34974  36.946  16.062   4.071
66757W        W34975   4.173  44.846  13.026
66758W        W34976  18.591  38.486  10.954
66759W        W34977  39.305   7.247  10.747
66760W        W34978  23.496  11.417   3.697
66761W        W34979  15.129   8.947  14.067
66762W        W34980  26.126   6.897  12.831
66763W        W34981  31.984  33.113  12.015
66764W        W34982  37.600  32.118  11.572
66765W        W34983  23.629  33.942   3.538
66766W        W34984   1.059   6.603   3.430
66767W        W34985   7.776  43.755   3.097
66768W        W34986   8.672  44.086   2.435
66769W        W34987  33.535  15.556  11.164
66770W        W34988  16.322  14.762  13.326
66771W        W34989  13.347  18.472   2.827
66772W        W34990  42.439   7.309   2.181
66773W        W34991   8.690  30.481  11.196
66774W        W34992   9.241  42.140  12.855
66775W        W34993  34.298   8.936   2.826
66776W        W34994  42.426  14.957   1.430
66777W        W34995   2.704  44.925  13.972
66778W        W34996  12.115  26.997   3.064
66779W        W34997  16.571   8.809  12.069
66780W        W34998   5.841   1.433  12.510
66781W        W34999  32.987  27.810  11.892
66782W        W35000  32.762  14.550  11.216
66783W        W35001  12.890  18.097   3.273
66784W        W35002  37.285   0.918   3.730
66785W        W35003  40.990  27.455  11.595
66786W        W35004  17.550   6.598   4.123
66787W        W35005  12.281   8.163  12.983
66788W        W35006  21.393  32.427   5.289
66789W        W35007  12.271  14.089   2.772
66790W        W35008   7.014  11.773   1.757
66791W        W35009  40.962   1.833   3.588
66792W        W35010  15.206  13.363  13.003
66793W        W35011  23.552  39.617   0.665
66794W        W35012   7.209   8.331  11.742
66795W        W35013  43.086  27.164  11.997
66796W        W35014   5.197   3.958   4.614
66797W        W35015  15.082  42.269   2.164
66798W        W35016   4.638  31.366  12.356
66799W        W35017  25.237  10.270  12.180
66800W        W35018  21.567  31.772  11.683
66801W        W35019  42.336  13.145   4.282
66802W        W35020   2.935  42.525  14.931
66803W        W35021   8.305  35.742   4.609
66804W        W35022  27.847  43.782   3.619
66805W        W35023  37.560  15.187  14.776
66806W        W35024  12.126  43.894  12.571
66807W        W35025   4.963  23.829   3.676
66808W        W35026  15.094  27.376   0.816
66809W        W35027   6.822  34.383  11.142
66810W        W35028  12.886  12.699   3.626
66811W        W35029  36.653  23.479   4.689
66812W        W35030  27.951  41.180  12.877
66813W        W35031  27.324  26.487  14.133
66814W        W35032  28.286  18.592  11.664
66815W        W35033  39.926  18.176   2.387
66816W        W35034  38.522  13.307  14.343
66817W        W35035  24.407   9.469  13.761
66818W        W35036  26.251  15.784   1.136
66819W        W35037  38.626  17.492  11.304
66820W        W35038   9.309  37.339   3.879
66821W        W35039  34.196  12.163   4.023
66822W        W35040  32.886  17.704   1.213
66823W        W35041  14.311  41.516   0.277
66824W        W35042  23.459  16.469  11.066
66825W        W35043  21.701  37.655  13.177
66826W        W35044  19.711  19.589   0.949
66827W        W35045  22.108  31.981   4.748
66828W        W35046   0.799  17.324  12.756
66829W        W35047  30.431  20.580   0.760
66830W        W35048  10.274   1.599   4.571
66831W        W35049  13.253  26.565  13.898
66832W        W35050  34.588  33.645  12.478
66833W        W35051   9.951  12.121   4.044
66834W        W35052  41.590  13.759  13.922
66835W        W35053  17.134  34.319   4.714
66836W        W35054   0.496  40.168  10.755
66837W        W35055  32.948  32.933   1.930
66838W        W35056  40.711  40.986   2.270
66839W        W35057  25.736  13.102   0.929
66840W        W35058  20.526  39.818  13.955
66841W        W35059  35.680  31.623  13.086
66842W        W35060  22.062  26.675  11.928
66843W        W35061  24.497  21.212   0.224
66844W        W35062  11.314  44.063   0.414
66845W        W35063   7.262   2.507  12.932
66846W        W35064  23.457   3.267  11.654
66847W        W35065  22.170  37.125   2.263
66848W        W35066  29.718  41.919   3.644
66849W        W35067  10.494  29.072  14.438
66850W        W35068  37.379  32.118   4.110
66851W        W35069  44.733  23.441   0.834
66852W        W35070   4.699  22.032  14.029
66853W        W35071  38.321   0.762   1.211
66854W        W35072  34.957  31.204  14.463
66855W        W35073   4.317  23.864   0.184
66856W        W35074  33.600  10.822  12.057
66857W        W35075  27.894  24.714   4.618
66858W        W35076  15.188  16.068   3.996
66859W        W35077  24.223  11.016  13.872
66860W        W35078   9.885   0.406  14.823
66861W        W35079  30.197   0.345   3.102
66862W        W35080   7.803  27.986   0.930
66863W        W35081  26.149  31.418  10.507
66864W        W35082  40.875  23.050   3.263
66865W        W35083   6.816  29.375  12.521
66866W        W35084  33.549  20.347   4.140
66867W        W35085  31.835  14.793  12.881
66868W        W35086  36.004  42.073   4.994
66869W        W35087  10.197  26.521   0.838
66870W        W35088   6.372   7.599  12.960
66871W        W35089  38.876  36.108  11.441
66872W        W35090  18.101   0.982  14.470
66873W        W35091  29.607  10.544  14.794
66874W        W35092  11.660  19.312   0.486
66875W        W35093  43.858   9.423  12.179
66876W        W35094  27.536   4.784   1.456
66877W        W35095  23.292  33.650   5.043
66878W        W35096  43.336  15.098  13.048
66879W        W35097  16.079  28.021  13.523
66880W        W35098  35.540  36.215   0.578
66881W        W35099  31.597  11.722   2.782
66882W        W35100  30.134  15.108   3.927
66883W        W35101  29.560  19.215  13.884
66884W        W35102  16.268  13.399  10.261
66885W        W35103  34.858  29.033   2.244
66886W        W35104  16.541  44.485  11.402
66887W        W35105   8.939  33.894   4.203
66888W        W35106  44.247   5.058  13.520
66889W        W35107  10.138  39.436   4.466
66890W        W35108  10.890  18.712  11.903
66891W        W35109  14.206  39.453   1.186
66892W        W35110  26.986  35.439   2.296
66893W        W35111  36.781  34.076   1.613
66894W        W35112  25.243  37.037   1.414
66895W        W35113  29.759   2.948   4.590
66896W        W35114  36.277   3.875   3.648
66897W        W35115   0.833   6.220   1.496
66898W        W35116  33.189  42.924  12.142
66899W        W35117   8.288  15.134   0.453
66900W        W35118  26.750  20.093   1.381
66901W        W35119   6.186  39.081   3.367
66902W        W35120  10.843  11.239   2.330
66903W        W35121  43.310  29.471  11.697
66904W        W35122   4.340   5.314  13.133
66905W        W35123  34.805  37.939   4.677
66906W        W35124  15.417  43.837   0.443
66907W        W35125  30.937  42.928   1.512
66908W        W35126  19.033   5.259   0.701
66909W        W35127   4.417  17.916   0.400
66910W        W35128  42.220  25.479   3.530
66911W        W35129  26.085  14.702   9.858
66912W        W35130  30.924  34.831   1.763
66913W        W35131  44.394  26.250  10.059
66914W        W35132  22.889  18.070   3.611
66915W        W35133  23.150   4.560  13.350
66916W        W35134  14.856  20.155  14.416
66917W        W35135  18.519  21.583   3.678
66918W        W35136  11.331  37.775  14.319
66919W        W35137  20.117   2.907  11.533
66920W        W35138  31.086  26.991   0.769
66921W        W35139  40.745   6.760  13.759
66922W        W35140  34.847  16.111  11.444
66923W        W35141  23.492   2.366  13.035
66924W        W35142  12.956  34.715  14.873
66925W        W35143   9.947  25.242  13.381
66926W        W35144  43.277  41.450   4.207
66927W        W35145  42.932   1.788  14.510
66928W        W35146  34.019  18.615  12.448
66929W        W35147  13.226  26.590   3.642
66930W        W35148  32.229   3.248  13.105
66931W        W35149  43.658  40.668  11.614
66932W        W35150  26.095  35.001   2.223
66933W        W35151  19.607   3.509  13.551
66934W        W35152  21.195  42.368   4.099
66935W        W35153  32.537  44.134  11.250
66936W        W35154  35.063  18.071  12.923
66937W        W35155   6.664  32.029   2.214
66938W        W35156  35.555  42.276  12.477
66939W        W35157  19.780  22.550  14.901
66940W        W35158  12.564  31.464  13.676
66941W        W35159  29.889  16.996   2.687
66942W        W35160  30.116  25.438  14.915
66943W        W35161  18.741  38.384  14.866
66944W        W35162  31.454  42.228  13.911
66945W        W35163   6.924   3.165   2.212
66946W        W35164  39.904   9.113   2.245
66947W        W35165  26.351  44.086  14.950
66948W        W35166  37.375   1.224   3.296
66949W        W35167  16.621   8.293  12.024
66950W        W35168  43.206   0.742  12.482
66951W        W35169  13.622  26.270  14.363
66952W        W35170  13.176  22.740   3.134
66953W        W35171   3.761   0.437  14.456
66954W        W35172  30.147  25.715   2.769
66955W        W35173  44.968  28.191   4.354
66956W        W35174  19.168   3.719  12.079
66957W        W35175  15.265   3.350  10.590
66958W        W35176   5.008  23.265  13.570
66959W        W35177  23.129   7.770  14.802
66960W        W35178  37.556  33.635   2.612
66961W        W35179  39.825  31.380  13.508
66962W        W35180   4.984  24.882  13.836
66963W        W35181   6.919  14.702  11.073
66964W        W35182  12.826  37.448  14.816
66965W        W35183  16.547  18.691  10.893
66966W        W35184   9.881  12.155   1.306
66967W        W35185  36.803  40.016   2.244
66968W        W35186  30.847  14.336   4.162
66969W        W35187  16.729  24.613  13.578
66970W        W35188  28.154  11.736  11.816
66971W        W35189  16.136  32.172  11.198
66972W        W35190  34.543  34.393   2.698
66973W        W35191  29.776  37.457   4.488
66974W        W35192  43.844  39.793   3.657
66975W        W35193  31.901   1.465  11.238
66976W        W35194  21.773   8.768   4.464
66977W        W35195  40.966  19.723   1.347
66978W        W35196  15.683  12.931  12.006
66979W        W35197   8.423   5.821   4.613
66980W        W35198  13.816   9.150  13.071
66981W        W35199  13.771  20.704   1.736
66982W        W35200  10.338  12.329  11.108
66983W        W35201  17.114  23.761  11.070
66984W        W35202  40.417  15.511   1.481
66985W        W35203  14.651  36.944   2.887
66986W        W35204  40.828  31.157   0.300
66987W        W35205   5.676  32.155   3.150
66988W        W35206   1.379  28.681   3.183
66989W        W35207  16.777  20.598   2.904
66990W        W35208  28.536  34.136   0.844
66991W        W35209  39.051  19.639   1.646
66992W        W35210   9.179  14.068   3.928
66993W        W35211  42.588  34.776   3.685
66994W        W35212   4.116  44.248  11.187
66995W        W35213  20.106  12.594   3.189
66996W        W35214  35.465   6.099  12.790
66997W        W35215  16.791  24.476   1.461
66998W        W35216  41.357  15.563  14.311
66999W        W35217  10.762  19.628  11.624
67000W        W35218  43.796  16.860   0.688
67001W        W35219  28.063   5.310  11.215
67002W        W35220   8.502  31.960  12.401
67003W        W35221  40.596  20.516  13.907
67004W        W35222  26.423  16.953   1.724
67005W        W35223   2.491  34.426  12.069
67006W        W35224   9.827  40.837   5.022
67007W        W35225   2.975   9.128  11.624
67008W        W35226  23.200  41.451   1.234
67009W        W35227  25.874  15.986   0.824
67010W        W35228  40.449  24.094   1.337
67011W        W35229   2.924   6.422  13.925
67012W        W35230   1.838  16.335  12.012
67013W        W35231  43.997  29.082  13.409
67014W        W35232  15.807  25.248   2.021
67015W        W35233  16.268   2.185   2.808
67016W        W35234   8.465  44.193  13.057
67017W        W35235   7.294  19.592   0.964
67018W        W35236  22.950  10.683   0.790
67019W        W35237  18.797  33.030  13.505
67020W        W35238  17.509  21.532   3.773
67021W        W35239  38.477  27.643   3.889
67022W        W35240   5.631   8.151  11.216
67023W        W35241   4.345   6.456  12.330
67024W        W35242  27.327   5.926  11.226
67025W        W35243  33.941  23.010   0.173
67026W        W35244  44.308  25.069  10.262
67027W        W35245  12.137  15.044   2.830
67028W        W35246  16.775  33.390   0.520
67029W        W35247  38.404  35.016   4.607
67030W        W35248  39.350  24.205   2.340
67031W        W35249  31.191   0.309   1.755
67032W        W35250  19.546   8.914  12.025
67033W        W35251  17.232  38.807   4.521
67034W        W35252  33.391  32.888  10.237
67035W        W35253  14.400  18.091  13.951
67036W        W35254  24.903  19.068   2.344
67037W        W35255  14.131   8.643  11.583
67038W        W35256  18.450  17.232  12.496
67039W        W35257  36.827  28.818   3.612
67040W        W35258  19.193  24.665   0.990
67041W        W35259  15.049   7.116  13.430
67042W        W35260  20.599  17.790  14.225
67043W        W35261  28.363  10.209   0.914
67044W        W35262  37.351  13.819  12.527
67045W        W35263   7.036  28.652  11.637
67046W        W35264  34.612  40.906  10.700
67047W        W35265  37.461  42.389  13.743
67048W        W35266  33.390  41.179   3.288
67049W        W35267   3.277  41.980  10.784
67050W        W35268  40.963  18.820   2.349
67051W        W35269  19.725  30.731   0.433
67052W        W35270   8.479   5.203   0.766
67053W        W35271  12.998  19.083  11.878
67054W        W35272  11.747  11.410   0.783
67055W        W35273   5.287  24.715   0.421
67056W        W35274  42.370   1.777  11.978
67057W        W35275  21.218  21.480  12.057
67058W        W35276  24.343  43.572  13.871
67059W        W35277  15.580   3.565   4.543
67060W        W35278  12.199  39.890   3.304
67061W        W35279  15.281   8.812  10.674
67062W        W35280   7.118  37.844  10.990
67063W        W35281   5.327  22.175   2.875
67064W        W35282  38.879  19.332   3.761
67065W        W35283   3.389  40.719  14.291
67066W        W35284  20.843  39.028   2.355
67067W        W35285  10.091  18.756  10.843
67068W        W35286  13.250   2.038   0.705
67069W        W35287   8.249  20.117  13.652
67070W        W35288  34.126  22.405   0.833
67071W        W35289  21.761  20.235   0.939
67072W        W35290  40.923  43.444   2.795
67073W        W35291  42.555   7.453   3.242
67074W        W35292  32.136  34.466  11.231
67075W        W35293  30.516  27.497  14.437
67076W        W35294   7.292  33.383   2.796
67077W        W35295  31.473  40.223  11.106
67078W        W35296  31.119  23.095   0.285
67079W        W35297  11.262   0.654   3.264
67080W        W35298  29.049  23.485  14.400
67081W        W35299  37.477   0.725   4.159
67082W        W35300  12.333   2.323   0.543
67083W        W35301  43.229   8.689   2.825
67084W        W35302  11.523  20.338   0.764
67085W        W35303  11.115  14.810  14.697
67086W        W35304   9.541  27.501  14.275
67087W        W35305   0.693  44.103   5.086
67088W        W35306  36.532  23.284   5.163
67089W        W35307  20.898  18.551   1.905
67090W        W35308  25.693  17.666  14.510
67091W        W35309  27.045   7.158   3.398
67092W        W35310  30.056  15.170  11.207
67093W        W35311   8.113  35.273  13.906
67094W        W35312  12.689  15.171   1.561
67095W        W35313  15.280   7.642   1.293
67096W        W35314  25.450   0.454  12.572
67097W        W35315  14.260  18.001  13.000
67098W        W35316  25.464  17.244  10.796
67099W        W35317  22.243  30.585   0.392
67100W        W35318  14.829  29.573   3.873
67101W        W35319  30.893   8.070  12.076
67102W        W35320  10.328  33.785  14.561
67103W        W35321  26.125   1.981   0.428
67104W        W35322  23.654  12.664  14.981
67105W        W35323  29.983  15.204  13.089
67106W        W35324  12.570  39.914  12.936
67107W        W35325   4.316  42.030   4.726
67108W        W35326   6.619  12.636   3.115
67109W        W35327  16.168   3.404   1.477
67110W        W35328   2.873  31.152  13.871
67111W        W35329  13.209   2.009  10.595
67112W        W35330   5.929  24.722  11.684
67113W        W35331  43.777  23.203   2.215
67114W        W35332  15.186  38.860   0.381
67115W        W35333  26.695  27.654  10.236
67116W        W35334  27.465  34.648  13.903
67117W        W35335  36.605  17.843  12.040
67118W        W35336  43.852   0.927  13.018
67119W        W35337   1.121  34.894   1.422
67120W        W35338  18.931  44.576  10.716
67121W        W35339  30.476  32.834  13.077
67122W        W35340  20.602   5.478   0.781
67123W        W35341  23.239  27.220  11.442
67124W        W35342  38.792  33.252   2.361
67125W        W35343  17.600  32.481  12.042
67126W        W35344  41.482   3.377  10.173
67127W        W35345  39.995   0.516  14.899
67128W        W35346  34.404   4.587   4.219
67129W        W35347  22.674  28.596  12.088
67130W        W35348   9.848  39.735  10.858
67131W        W35349  29.942  11.846   1.869
67132W        W35350  30.054  19.047  10.788
67133W        W35351  33.079  26.598  13.479
67134W        W35352  36.907  30.029   4.206
67135W        W35353  11.244  18.148  11.273
67136W        W35354  30.992  16.722  14.864
67137W        W35355   4.464  15.613  11.569
67138W        W35356  13.956  44.423  12.433
67139W        W35357   8.276  21.964  10.859
67140W        W35358  44.085  26.131   1.355
67141W        W35359  38.054   4.893  13.858
67142W        W35360  22.076   0.258   2.248
67143W        W35361   5.225  43.811   4.148
67144W        W35362  21.621  25.676   2.103
67145W        W35363  25.664  14.397  14.876
67146W        W35364  23.155  43.218  14.830
67147W        W35365  32.018  30.085  11.034
67148W        W35366  15.767  34.820  10.702
67149W        W35367  41.966  33.794  14.184
67150W        W35368  29.218  42.273   4.111
67151W        W35369  44.331  24.835   4.084
67152W        W35370   4.141  33.475  14.978
67153W        W35371  34.849  43.008  12.971
67154W        W35372  39.925  38.184   4.753
67155W        W35373   3.744  35.134   1.289
67156W        W35374  31.363  38.519   0.511
67157W        W35375   6.267  25.662  12.618
67158W        W35376  40.038  43.433  12.470
67159W        W35377  36.923  12.451  11.230
67160W        W35378   9.312  11.281   1.323
67161W        W35379  18.188  26.575   1.411
67162W        W35380  14.348  37.494  14.988
67163W        W35381  26.574  18.606  11.106
67164W        W35382  42.332  12.249  11.051
67165W        W35383   5.630  16.054   2.309
67166W        W35384  16.272  20.935  12.077
67167W        W35385  37.326  21.637   4.089
67168W        W35386   8.890   6.207  14.198
67169W        W35387   5.796  16.838   0.862
67170W        W35388  42.249   8.353  10.976
67171W        W35389   7.839   8.347   1.946
67172W        W35390  13.089   1.423  14.438
67173W        W35391   4.904  44.733   4.375
67174W        W35392  33.540  14.301  12.979
67175W        W35393  37.430  39.619   4.635
67176W        W35394   8.348  24.009   2.222
67177W        W35395  32.246  34.567  13.770
67178W        W35396   0.018  15.786   0.351
67179W        W35397  18.281   3.384  14.472
67180W        W35398  34.137  29.728  10.487
67181W        W35399  41.049  41.099  12.555
67182W        W35400  36.100   7.703  14.249
67183W        W35401  12.173  10.289  13.191
67184W        W35402  27.072  37.114   2.832
67185W        W35403  30.504  35.629  14.248
67186W        W35404  17.868  22.712   4.531
67187W        W35405  38.422  28.423  14.753
67188W        W35406   1.819   6.216  14.533
67189W        W35407  28.717  11.483   0.848
67190W        W35408   3.523  42.391  12.487
67191W        W35409  38.648  36.629   0.876
67192W        W35410  32.495   4.962  12.841
67193W        W35411  34.294  18.211   4.277
67194W        W35412  13.368  19.648   2.315
67195W        W35413   7.768   7.185  14.529
67196W        W35414  44.039  35.488   0.202
67197W        W35415  44.960  30.484   3.196
67198W        W35416  28.993  34.272  12.766
67199W        W35417  28.329   4.448   1.130
67200W        W35418  19.087  35.779   3.697
67201W        W35419  41.814  16.179  10.482
67202W        W35420   7.677  22.775   1.918
67203W        W35421  22.214  33.669   0.009
67204W        W35422  24.931  22.746  12.459
67205W        W35423  15.146  29.285  13.054
67206W        W35424  32.394  30.055   1.369
67207W        W35425   1.188  33.161   3.803
67208W        W35426  12.876   4.257   1.245
67209W        W35427  19.591   2.094   0.387
67210W        W35428  38.506  13.062  13.851
67211W        W35429  40.359  19.559   3.706
67212W        W35430  10.434  37.487   1.926
67213W        W35431  19.024  29.408   0.650
67214W        W35432   1.297  10.332  10.698
67215W        W35433  30.448  14.080   1.920
67216W        W35434  15.568   9.169   1.458
67217W        W35435  25.132   6.979   2.241
67218W        W35436  13.369  17.290   2.371
67219W        W35437   3.350  22.668  12.033
67220W        W35438  38.781  27.407  11.260
67221W        W35439  26.843  36.958  13.576
67222W        W35440  10.166   9.946   2.821
67223W        W35441   5.405  17.419   2.934
67224W        W35442  24.897   5.969   0.830
67225W        W35443  35.979  39.086   0.993
67226W        W35444  26.493   1.271   0.513
67227W        W35445  41.992  29.337   0.951
67228W        W35446  43.964  29.173   2.762
67229W        W35447  29.758  25.421   0.307
67230W        W35448  37.545   3.398   1.444
67231W        W35449  23.663  38.512  14.765
67232W        W35450  20.662  36.443   1.973
67233W        W35451  29.544  21.299   3.705
67234W        W35452  43.100  11.152  14.334
67235W        W35453   6.737  31.172  10.647
67236W        W35454   8.724  33.542   4.527
67237W        W35455  29.088  21.039   3.642
67238W        W35456   5.409  13.965  14.065
67239W        W35457  27.534   1.963   5.077
67240W        W35458  34.873  20.119   0.534
67241W        W35459  20.381  29.585   2.792
67242W        W35460  38.175   5.305   2.102
67243W        W35461  31.376  41.752   3.200
67244W        W35462  25.486  27.143   1.983
67245W        W35463  22.455  26.173  14.069
67246W        W35464  11.218  25.124  14.559
67247W        W35465  37.530  12.197   3.236
67248W        W35466  31.675  42.399   2.410
67249W        W35467  14.572  11.383  11.634
67250W        W35468   8.376   9.726   2.764
67251W        W35469  32.200  39.581  14.563
67252W        W35470  33.099  19.078  11.037
67253W        W35471  20.080  28.079  10.218
67254W        W35472  23.577  12.157   2.203
67255W        W35473  35.212  26.463   3.812
67256W        W35474   2.350  28.896  13.322
67257W        W35475  36.493  44.786  10.939
67258W        W35476  16.712  19.498  14.883
67259W        W35477  36.392  21.588   2.376
67260W        W35478  19.355  28.634   3.614
67261W        W35479  44.991  29.488  12.484
67262W        W35480  33.022  33.409   1.741
67263W        W35481  14.071  11.635   3.779
67264W        W35482  35.632  17.253  11.178
67265W        W35483  14.218  44.027   1.895
67266W        W35484  16.787  42.996   0.201
67267W        W35485   2.783  13.121   4.628
67268W        W35486  31.413  13.326  14.279
67269W        W35487  43.899   1.356  14.802
67270W        W35488   2.928  37.780   3.427
67271W        W35489  11.825  35.432  12.404
67272W        W35490   6.644  18.257  11.586
67273W        W35491  22.274   0.269  11.262
67274W        W35492  20.757  23.054  13.013
67275W        W35493  16.168  42.085  10.720
67276W        W35494   0.747  24.324   4.526
67277W        W35495  10.196  37.036  13.664
67278W        W35496  24.246   3.125   1.238
67279W        W35497  24.525  40.869  14.461
67280W        W35498  30.138   8.923   1.182
67281W        W35499   4.601  44.397   2.256
67282W        W35500  33.876  41.546  12.281
67283W        W35501  38.625  31.479  14.287
67284W        W35502  24.968  36.670  13.417
67285W        W35503  33.442  15.603  14.313
67286W        W35504  31.008  35.682   4.618
67287W        W35505  43.524  40.705  14.010
67288W        W35506   2.624  12.852  12.932
67289W        W35507  37.412   7.479   2.269
67290W        W35508  37.127  19.200   2.305
67291W        W35509  11.591  27.203   2.361
67292W        W35510  29.209  24.613   1.761
67293W        W35511   7.697  38.057   3.402
67294W        W35512  23.579  33.450   4.636
67295W        W35513   7.265   9.308  12.124
67296W        W35514  19.937  30.515   2.713
67297W        W35515  29.689  30.983  14.001
67298W        W35516  12.192  41.759   3.102
67299W        W35517   9.899  20.698  10.737
67300W        W35518  14.224  40.264  12.073
67301W        W35519  23.519  18.221   4.624
67302W        W35520  38.455   2.962   1.437
67303W        W35521  38.519  42.251  12.883
67304W        W35522  26.461  19.987   2.767
67305W        W35523  44.776  24.747   2.215
67306W        W35524   7.081  18.587   3.362
67307W        W35525  25.601  35.070   1.320
67308W        W35526  34.428   6.273   0.769
67309W        W35527  24.637  37.086  13.784
67310W        W35528  23.275  23.249  13.556
67311W        W35529  15.974   7.771   1.913
67312W        W35530   3.157   9.204   4.163
67313W        W35531   1.209  18.345  14.498
67314W        W35532  30.529  13.597   0.712
67315W        W35533  23.067   7.000   0.325
67316W        W35534   8.706  43.073   0.778
67317W        W35535  39.722  28.794  12.030
67318W        W35536  19.120  10.802  12.544
67319W        W35537  42.682  14.235   0.379
67320W        W35538  21.144  30.045   0.862
67321W        W35539  19.506  12.817   0.433
67322W        W35540  26.298  27.120   2.593
67323W        W35541  43.476  16.553  10.682
67324W        W35542  32.892  41.900  11.444
67325W        W35543  23.277   2.806  11.919
67326W        W35544  27.495  29.145  10.568
67327W        W35545   7.391  44.376   2.215
67328W        W35546  10.863  23.536   4.143
67329W        W35547  13.147   2.753   3.466
67330W        W35548  17.295  39.706   1.686
67331W        W35549   4.170  36.565   1.925
67332W        W35550  38.643  21.011   0.691
67333W        W35551  21.210  32.296   3.143
67334W        W35552  12.906   6.196  13.991
67335W        W35553  17.794  28.699   2.292
67336W        W35554  24.230  14.958   4.293
67337W        W35555  39.605  33.014   3.235
67338W        W35556  15.380   9.487  11.696
67339W        W35557  12.654  28.091   4.913
67340W        W35558  42.904   0.153  12.624
67341W        W35559  10.382  18.271  14.951
67342W        W35560  36.059  42.075  10.343
67343W        W35561   4.936   0.308   4.594
67344W        W35562  39.349   4.777   1.784
67345W        W35563  26.614  19.478  12.926
67346W        W35564  32.349  33.578   0.371
67347W        W35565  23.716  36.317  11.717
67348W        W35566  37.554  20.087   0.883
67349W        W35567  12.099  17.646   0.770
67350W        W35568  11.876  42.453   1.383
67351W        W35569  13.665  42.899  13.982
67352W        W35570  18.881  15.854   4.689
67353W        W35571   2.734   2.459  12.892
67354W        W35572  13.831  34.963  13.426
67355W        W35573  29.173  16.752  12.022
67356W        W35574   3.381  32.421  12.046
67357W        W35575  37.148   4.953   2.212
67358W        W35576   7.671  41.892  13.003
67359W        W35577   7.955  37.569   0.410
67360W        W35578   5.441  14.754  14.352
67361W        W35579  16.608  25.936  12.428
67362W        W35580  42.926  36.356  14.574
67363W        W35581  30.809   8.658   4.222
67364W        W35582  15.064  36.644  14.061
67365W        W35583  33.348  19.490   2.752
67366W        W35584   7.372  28.551   2.110
67367W        W35585  10.006   2.994  13.441
67368W        W35586  10.584   3.324  14.039
67369W        W35587  21.177  36.192   2.842
67370W        W35588  35.141  41.852   1.867
67371W        W35589  16.858  40.447   0.895
67372W        W35590   8.776  33.174  11.422
67373W        W35591  31.847  35.189   1.871
67374W        W35592  13.431  27.194   0.225
67375W        W35593  38.260  13.597  13.053
67376W        W35594  12.927  27.476  12.534
67377W        W35595  41.959  17.797   2.829
67378W        W35596   9.188  38.773  10.001
67379W        W35597  32.582   5.699  11.546
67380W        W35598  18.606  19.536  11.392
67381W        W35599  36.975  11.197  14.245
67382W        W35600  11.919  35.028  12.003
67383W        W35601  20.759  15.520  14.982
67384W        W35602  15.862  30.119  12.962
67385W        W35603   7.403  34.219  14.934
67386W        W35604  27.474  34.568   2.770
67387W        W35605  34.999  32.674  11.108
67388W        W35606  28.041   3.577   1.723
67389W        W35607  16.222  41.102  12.624
67390W        W35608  27.126  23.627   2.701
67391W        W35609  36.226  44.337   3.333
67392W        W35610  42.886  20.139  10.639
67393W        W35611  24.701  16.666  10.569
67394W        W35612   5.746  31.566  10.935
67395W        W35613   8.324  30.089   3.882
67396W        W35614  32.673  34.402   4.450
67397W        W35615  21.641  13.906  11.960
67398W        W35616  10.878  34.323   1.852
67399W        W35617  31.685  35.871   1.333
67400W        W35618  27.752  42.142   2.729
67401W        W35619   2.897   1.593   4.268
67402W        W35620  14.296  19.043   1.462
67403W        W35621   8.943   4.732   3.139
67404W        W35622   9.465   0.762  12.428
67405W        W35623  42.765  38.824   2.599
67406W        W35624  30.199  21.728  12.339
67407W        W35625  38.841  39.037   2.701
67408W        W35626  35.458  32.738  11.331
67409W        W35627  40.230  10.310   3.765
67410W        W35628  36.665  34.044  12.821
67411W        W35629   8.180  36.011  12.611
67412W        W35630  38.424   8.907   3.730
67413W        W35631   5.687  36.428  11.609
67414W        W35632  30.635   8.600  14.608
67415W        W35633  40.938  14.867   4.542
67416W        W35634  36.628  34.392   0.839
67417W        W35635  31.911  12.607   4.053
67418W        W35636  32.122  21.116  12.056
67419W        W35637  40.753  20.734  13.471
67420W        W35638  23.978  25.612   1.632
67421W        W35639  14.895  19.544  12.344
67422W        W35640  17.280  30.218  11.593
67423W        W35641  12.456  18.799   3.583
67424W        W35642  28.002  15.362   2.488
67425W        W35643  24.033  23.644  14.187
67426W        W35644   4.536  10.311  10.981
67427W        W35645  24.998   6.428  14.262
67428W        W35646  19.741   0.666  13.981
67429W        W35647  39.835  13.135   1.370
67430W        W35648  19.966  36.366  14.071
67431W        W35649  18.979  18.453   1.206
67432W        W35650  17.809  10.554  11.978
67433W        W35651  38.062   6.669  13.193
67434W        W35652   8.301  21.944   0.270
67435W        W35653  10.112  36.113  10.965
67436W        W35654  11.660   9.223   3.892
67437W        W35655  29.968  16.505   0.964
67438W        W35656  16.886   3.780  12.092
67439W        W35657  39.823   1.263  13.477
67440W        W35658  29.979  21.728  14.867
67441W        W35659  11.541  33.762  12.114
67442W        W35660  33.164   5.408  10.673
67443W        W35661  39.813  43.999   4.448
67444W        W35662   6.886  37.625   2.216
67445W        W35663  22.570  13.828  12.867
67446W        W35664  20.683  37.402   1.837
67447W        W35665  36.425  40.936   3.826
67448W        W35666  10.686  43.889   4.710
67449W        W35667  32.300   6.139  10.307
67450W        W35668  30.534  23.562   3.328
67451W        W35669  24.570  35.373  11.640
67452W        W35670  27.966  14.644  10.722
67453W        W35671  43.991   8.124  14.025
67454W        W35672   9.418  10.348  12.901
67455W        W35673   2.465  13.163   2.151
67456W        W35674  29.118  12.644   3.285
67457W        W35675  38.928  20.809  14.351
67458W        W35676  44.310  42.504  12.134
67459W        W35677   9.215  37.523   2.852
67460W        W35678  32.749  28.697   1.263
67461W        W35679   3.454   6.951   1.850
67462W        W35680   3.420   7.419  12.617
67463W        W35681   2.310  12.395   2.795
67464W        W35682  32.506  26.377   5.016
67465W        W35683   7.309  17.738   2.231
67466W        W35684  15.734  18.098  12.828
67467W        W35685  12.726  37.118  11.119
67468W        W35686  10.750   7.825  13.435
67469W        W35687  39.776  25.449  11.326
67470W        W35688   1.818  20.048   2.299
67471W        W35689  30.201  16.998   2.256
67472W        W35690  42.288  11.326   3.561
67473W        W35691   1.243  15.629   0.875
67474W        W35692  20.217  23.748   4.714
67475W        W35693  26.705  14.250  11.142
67476W        W35694  40.131   8.207   2.236
67477W        W35695  40.567  38.613   3.165
67478W        W35696  36.046  26.391   1.850
67479W        W35697  25.585  19.263  13.095
67480W        W35698  34.065   5.898  11.549
67481W        W35699   2.988  25.400   2.449
67482W        W35700  30.568  28.533   2.924
67483W        W35701  11.144   3.530  14.004
67484W        W35702   4.193  15.552  10.629
67485W        W35703   0.755  21.410   4.014
67486W        W35704  31.103  25.102   3.273
67487W        W35705   0.706  10.712  14.847
67488W        W35706  35.391  39.075  14.344
67489W        W35707  10.062   0.323   1.765
67490W        W35708  21.701  38.533   0.887
67491W        W35709  35.365  14.643   0.099
67492W        W35710  18.965  30.645   2.421
67493W        W35711   8.655  23.158   4.810
67494W        W35712  28.533  14.798   1.977
67495W        W35713  23.927  34.344  12.872
67496W        W35714  11.311  24.984   0.558
67497W        W35715  37.846   8.652  12.381
67498W        W35716  34.005  24.250   1.517
67499W        W35717   5.965  34.336  13.437
67500W        W35718  20.171  16.367  13.868
67501W        W35719  25.959   9.698   0.832
67502W        W35720  18.779  38.653   2.748
67503W        W35721  15.675  28.549  14.204
67504W        W35722   0.025   0.459  14.132
67505W        W35723  18.746  23.759  14.959
67506W        W35724   5.998  13.260   1.939
67507W        W35725   7.744  33.152  12.334
67508W        W35726  39.370   5.208  12.913
67509W        W35727  37.044  22.094   4.207
67510W        W35728  34.952  11.497  14.479
67511W        W35729  22.746  30.803   3.361
67512W        W35730  12.719  31.321   3.834
67513W        W35731  15.127   2.168  12.335
67514W        W35732  38.974  17.505  14.825
67515W        W35733  38.582   4.794  13.870
67516W        W35734  35.511  24.079  14.817
67517W        W35735  16.687  31.449  11.334
67518W        W35736  40.033  10.651   2.712
67519W        W35737  35.479  32.540   0.552
67520W        W35738  22.747   9.449   0.861
67521W        W35739  14.024   7.915  12.629
67522W        W35740  41.254   4.742  12.621
67523W        W35741   6.613  14.392   0.638
67524W        W35742   5.762  42.250  11.669
67525W        W35743  29.697  31.625   1.928
67526W        W35744   7.874  14.763   2.940
67527W        W35745  31.821  34.870  11.514
67528W        W35746  26.552  37.651  12.866
67529W        W35747  26.166   8.842  14.484
67530W        W35748  10.313  21.281   2.739
67531W        W35749  27.856  34.424   1.839
67532W        W35750   3.931  14.224   4.181
67533W        W35751  26.109  39.269   2.453
67534W        W35752  15.647  16.257   3.163
67535W        W35753  44.743  23.505   2.814
67536W        W35754  31.741  42.270   1.437
67537W        W35755  25.503   3.977  13.306
67538W        W35756  31.478  18.694   0.459
67539W        W35757  38.073  32.449  13.504
67540W        W35758  26.563  21.761  13.808
67541W        W35759  13.463   0.746  13.398
67542W        W35760  41.441   1.014  10.696
67543W        W35761  17.405  41.581  13.008
67544W        W35762  44.295   7.690  14.137
67545W        W35763  19.469  43.331  10.747
67546W        W35764  19.671  44.716  14.048
67547W        W35765  32.619   0.967  10.738
67548W        W35766  14.528  35.370  13.369
67549W        W35767  24.444  30.556  10.422
67550W        W35768  26.344  15.161  14.122
67551W        W35769  27.644  15.814  13.814
67552W        W35770  39.901   9.691   2.689
67553W        W35771   9.479  14.748   1.689
67554W        W35772   4.186   3.611   0.047
67555W        W35773  11.231  14.068   2.640
67556W        W35774  41.991   8.204   1.357
67557W        W35775  42.071  15.095   4.116
67558W        W35776  22.886   6.917   0.854
67559W        W35777  35.368  27.347  14.322
67560W        W35778   5.902  37.265   4.645
67561W        W35779  11.856  36.432   4.610
67562W        W35780  36.043  21.275   0.650
67563W        W35781  15.485   5.587  11.599
67564W        W35782  37.454  15.652  14.963
67565W        W35783  40.440  20.372  13.272
67566W        W35784   1.324  38.670   0.106
67567W        W35785   1.860  21.144  11.048
67568W        W35786  13.651   0.805  12.484
67569W        W35787  35.435  37.689  14.341
67570W        W35788   7.883  42.480   3.613
67571W        W35789  15.432   2.940   5.536
67572W        W35790  41.603  19.726   4.067
67573W        W35791  26.485  36.077  11.156
67574W        W35792  27.690  13.809   1.726
67575W        W35793   9.714   7.575   1.753
67576W        W35794  14.662  41.847  10.404
67577W        W35795   8.376  10.720   3.113
67578W        W35796  40.934  28.791  14.417
67579W        W35797  24.711  15.312   3.608
67580W        W35798   5.199  32.693   0.676
67581W        W35799   0.657  19.081   2.054
67582W        W35800  24.257  36.050  12.187
67583W        W35801  37.264  30.147  12.088
67584W        W35802  20.674  11.552   2.768
67585W        W35803  37.839  31.199  12.504
67586W        W35804   0.495  19.188   4.492
67587W        W35805  30.074  18.206  13.551
67588W        W35806  24.206  32.973   3.336
67589W        W35807  27.953  37.464  12.872
67590W        W35808  17.862  36.373   1.894
67591W        W35809  32.387  12.594   2.799
67592W        W35810  25.550   4.446   4.676
67593W        W35811   6.064  40.390   1.711
67594W        W35812  29.097  33.659   3.728
67595W        W35813  40.928  40.807   4.126
67596W        W35814  12.131  12.717   2.846
67597W        W35815  32.248  40.728  12.073
67598W        W35816  11.071   7.390   1.670
67599W        W35817  22.588  36.966   3.718
67600W        W35818  37.105  16.974   3.094
67601W        W35819  16.765  22.636  11.007
67602W        W35820   3.369  38.514   3.918
67603W        W35821  22.619   5.219   0.534
67604W        W35822  19.592   1.802  11.105
67605W        W35823  22.000  36.491  10.362
67606W        W35824  28.459   8.469  13.532
67607W        W35825  32.594  44.199  14.807
67608W        W35826   7.158  31.716   3.142
67609W        W35827  37.459  40.490   3.080
67610W        W35828  37.229  15.743   3.775
67611W        W35829  32.393  25.188   3.382
67612W        W35830  20.992  11.745  11.625
67613W        W35831   9.322  10.208   4.404
67614W        W35832  12.861  36.399  12.941
67615W        W35833  30.478  40.333  12.123
67616W        W35834  43.727  24.413  10.637
67617W        W35835  10.371   5.285   3.149
67618W        W35836  19.279  20.158   3.197
67619W        W35837  17.203  19.154  12.275
67620W        W35838  36.946  36.615  14.578
67621W        W35839   9.861   5.783   4.815
67622W        W35840   7.986  27.211  12.345
67623W        W35841  35.422  43.555   0.013
67624W        W35842   6.226  15.011  10.672
67625W        W35843  23.660  38.821   4.287
67626W        W35844  23.468  23.995  12.468
67627W        W35845  13.997  10.143   2.400
67628W        W35846  38.067  11.778   4.966
67629W        W35847  43.178  33.096  13.162
67630W        W35848  36.460  26.994   0.466
67631W        W35849  15.680   0.855  12.081
67632W        W35850  22.728  26.115  14.503
67633W        W35851  13.043  30.165  12.856
67634W        W35852  32.456   8.854   0.856
67635W        W35853  20.864  31.353   4.205
67636W        W35854  42.457  15.246  14.805
67637W        W35855  12.161  42.405  11.174
67638W        W35856  14.550  21.155  11.049
67639W        W35857   3.058  17.677   0.896
67640W        W35858  14.267   3.851  12.867
67641W        W35859  31.433  40.895  13.996
67642W        W35860  24.497  39.063  14.852
67643W        W35861  37.360   9.744  14.079
67644W        W35862  14.337  36.369  11.450
67645W        W35863  29.855  25.689   5.062
67646W        W35864  22.551  16.635  13.955
67647W        W35865  30.061  41.940   1.014
67648W        W35866   1.297  43.757  14.802
67649W        W35867  16.646   2.879   4.173
67650W        W35868  23.737  15.302   0.938
67651W        W35869  37.564  14.206   0.053
67652W        W35870   0.520   2.777   3.157
67653W        W35871  16.840  10.826  13.920
67654W        W35872   0.939  43.264   1.886
67655W        W35873  38.730   0.428   1.267
67656W        W35874  22.685  31.186  10.731
67657W        W35875  21.313   8.802  11.742
67658W        W35876  38.613  16.285   4.697
67659W        W35877  33.337  17.216  13.108
67660W        W35878  15.331  23.010   2.102
67661W        W35879  31.138   9.615   3.241
67662W        W35880   1.725   8.225   0.987
67663W        W35881  35.180  39.341   1.912
67664W        W35882  40.745  34.618  12.085
67665W        W35883   4.006  25.492   2.355
67666W        W35884  15.863   6.903   2.796
67667W        W35885  38.568   7.416  11.956
67668W        W35886  36.011  26.486  14.983
67669W        W35887  21.793  22.208   0.820
67670W        W35888  33.878  37.591   4.322
67671W        W35889  43.471  36.771  11.590
67672W        W35890  17.744  34.525   3.772
67673W        W35891  19.303   9.658  11.184
67674W        W35892  15.830   7.371  12.833
67675W        W35893  15.818  21.339   9.996
67676W        W35894   2.298   1.885  13.475
67677W        W35895  12.697  39.699   2.252
67678W        W35896  34.546  17.732   0.263
67679W        W35897  18.803  15.488  11.040
67680W        W35898  30.871   9.954  12.005
67681W        W35899  24.568   5.630  13.024
67682W        W35900  17.640  12.744  11.782
67683W        W35901  31.453  19.290  13.114
67684W        W35902  18.516  29.682   0.909
67685W        W35903  35.175  10.362   2.228
67686W        W35904   5.342   7.610   1.854
67687W        W35905  12.307   4.166  13.804
67688W        W35906  15.322  12.862   1.224
67689W        W35907   3.669  35.985   3.161
67690W        W35908  10.796  27.926   1.892
67691W        W35909   0.348  43.948   4.715
67692W        W35910  10.861  44.787  10.993
67693W        W35911  14.957  15.053  13.366
67694W        W35912  11.047  24.553   2.943
67695W        W35913  14.843  34.528   3.133
67696W        W35914  15.034  22.132  14.333
67697W        W35915   3.328  18.590  14.858
67698W        W35916  13.720  17.650  12.843
67699W        W35917   3.774  32.009  14.799
67700W        W35918  42.582  16.073  13.617
67701W        W35919   6.921  18.812   2.909
67702W        W35920   9.258  31.808   2.892
67703W        W35921  40.821  39.450   4.436
67704W        W35922   6.993  11.292   4.063
67705W        W35923  29.961  39.836  12.539
67706W        W35924  28.637  22.551   1.838
67707W        W35925   8.326   2.264  14.824
67708W        W35926  25.552  16.873  13.846
67709W        W35927  15.153   0.496   3.440
67710W        W35928   2.896  14.813   0.775
67711W        W35929  28.655  20.479   4.084
67712W        W35930  24.027   3.304   4.122
67713W        W35931  35.071  10.379   4.994
67714W        W35932   8.368  30.371   1.887
67715W        W35933  41.914  17.691   1.244
67716W        W35934   9.876   4.486   2.199
67717W        W35935  13.912   2.306   4.564
67718W        W35936  22.746  26.715  13.351
67719W        W35937  36.720  10.690  13.847
67720W        W35938  25.227   7.918  12.627
67721W        W35939  38.017  26.377  14.746
67722W        W35940   2.810  19.618  13.079
67723W        W35941  43.087  19.115   1.993
67724W        W35942  16.285  40.929   3.584
67725W        W35943   2.722  10.326  13.508
67726W        W35944  39.361  35.389  11.125
67727W        W35945  21.794  39.982  11.549
67728W        W35946  20.704  16.274  13.983
67729W        W35947  30.692  27.636   3.347
67730W        W35948  12.493  38.382  14.010
67731W        W35949  17.351  40.298  11.499
67732W        W35950  16.265  23.336   2.974
67733W        W35951  26.110   2.498  13.908
67734W        W35952   6.493  42.127  14.489
67735W        W35953  26.514  42.345  13.460
67736W        W35954  37.448  24.741  14.011
67737W        W35955  26.161   0.899   0.325
67738W        W35956  39.674  22.229  14.990
67739W        W35957  27.501  10.228   1.301
67740W        W35958  14.657  10.279   0.523
67741W        W35959  34.880  23.352   1.496
67742W        W35960  19.196   0.849   1.773
67743W        W35961  19.697  32.414   2.250
67744W        W35962  10.870  35.588  14.356
67745W        W35963  25.901  20.095  14.743
67746W        W35964   4.887  27.409   2.133
67747W        W35965  26.579  17.691  12.636
67748W        W35966   2.009  39.834  12.389
67749W        W35967  23.067   7.514   0.271
67750W        W35968  37.018  11.738   0.567
67751W        W35969  19.780  33.861  13.835
67752W        W35970  38.344  12.448   3.583
67753W        W35971  40.230  31.862   2.164
67754W        W35972  32.003  43.545  10.768
67755W        W35973  36.883   0.753   1.198
67756W        W35974  21.806  41.016   0.533
67757W        W35975  38.485  32.064   1.502
67758W        W35976  10.296  41.051   3.704
67759W        W35977  21.168  11.900  12.077
67760W        W35978  43.942  16.314  10.700
67761W        W35979  23.184  11.637   4.556
67762W        W35980  31.512  14.017  10.781
67763W        W35981  30.119  28.113   4.541
67764W        W35982   2.854   2.948   2.982
67765W        W35983   6.432   3.463  11.066
67766W        W35984   6.276   2.269  12.730
67767W        W35985  10.258  20.859  12.121
67768W        W35986  22.655   8.229  11.620
67769W        W35987  12.844  38.947  11.009
67770W        W35988  28.384   1.492   4.083
67771W        W35989  44.946   6.222   1.545
67772W        W35990  13.886  35.165   1.215
67773W        W35991  33.026  36.175  11.616
67774W        W35992  29.495  37.805  11.538
67775W        W35993  10.685  28.476   0.139
67776W        W35994  10.568  29.746   4.150
67777W        W35995  24.700  17.100  12.323
67778W        W35996  24.335  17.516   2.772
67779W        W35997   2.910  40.215  13.609
67780W        W35998  10.683  38.048   2.881
67781W        W35999  34.930  37.972   2.925
67782W        W36000   6.317  19.249  11.554
67783W        W36001  32.990  35.419   2.363
67784W        W36002  35.612  37.880   1.466
67785W        W36003  34.500   9.860  11.032
67786W        W36004  21.264  33.404  10.817
67787W        W36005  42.567   0.661   1.772
67788W        W36006  29.448  10.765   3.391
67789W        W36007  13.256  32.432   0.320
67790W        W36008  21.699  24.946  11.576
67791W        W36009  21.619  41.330   4.579
67792W        W36010  38.781  23.996   3.884
67793W        W36011   9.611  20.824  14.385
67794W        W36012  30.593  33.365   3.766
67795W        W36013  28.222  16.198   2.250
67796W        W36014  30.362  44.809   3.310
67797W        W36015  22.260  10.146   9.963
67798W        W36016  43.119  19.499   0.833
67799W        W36017  19.974  40.117  14.816
67800W        W36018   7.463  27.736   2.251
67801W        W36019  40.580  32.476   4.667
67802W        W36020  34.125  17.708  14.406
67803W        W36021   6.817  26.180  14.289
67804W        W36022  42.931  11.164   0.802
67805W        W36023   5.635   1.184  12.932
67806W        W36024  23.318  15.476  11.936
67807W        W36025  27.123  16.317   3.641
67808W        W36026  17.589   3.883   2.837
67809W        W36027  19.654  44.482   2.855
67810W        W36028  40.967  38.961  14.893
67811W        W36029  34.098  22.527   1.357
67812W        W36030  36.996  23.640   2.877
67813W        W36031  34.546  13.644   1.963
67814W        W36032  33.563   7.853  11.583
67815W        W36033  13.256   8.366   1.179
67816W        W36034  21.119  41.193   4.479
67817W        W36035  43.477   6.336   0.526
67818W        W36036  10.608   5.296  11.601
67819W        W36037  27.960  32.615   0.356
67820W        W36038  41.323  31.143   2.803
67821W        W36039  29.231   8.719  14.686
67822W        W36040   4.635  35.102   3.306
67823W        W36041  27.514  22.020   0.271
67824W        W36042  15.281  44.622  13.271
67825W        W36043  41.944  15.329   0.380
67826W        W36044  28.904  29.647  12.775
67827W        W36045  20.092  17.067  13.045
67828W        W36046  24.903  28.265  12.805
67829W        W36047   5.303  26.136   2.132
67830W        W36048   2.232  37.542  14.999
67831W        W36049   7.975  13.098  14.535
67832W        W36050  17.160  40.808   3.062
67833W        W36051  17.104  43.921   9.766
67834W        W36052  31.872   7.332  14.885
67835W        W36053  29.848  31.356   3.211
67836W        W36054   4.853  24.665  10.180
67837W        W36055  18.649  32.119  11.170
67838W        W36056  39.418  26.502  14.081
67839W        W36057  14.246  28.031   1.279
67840W        W36058   1.875  33.482   0.430
67841W        W36059  34.439  16.724  11.274
67842W        W36060   8.587  30.067  13.453
67843W        W36061  30.947  18.087  11.417
67844W        W36062  37.157  21.062  12.586
67845W        W36063  27.051   0.563  12.025
67846W        W36064  17.142  21.058   3.720
67847W        W36065  31.580  15.288   3.677
67848W        W36066  32.185   3.287   0.457
67849W        W36067  25.585  34.404   4.611
67850W        W36068  13.745   9.403   3.066
67851W        W36069  28.087  38.982  10.507
67852W        W36070  17.049  41.083   0.741
67853W        W36071  40.708  13.586   2.839
67854W        W36072  31.193  26.669  12.112
67855W        W36073  37.898  41.400   2.358
67856W        W36074   5.041  32.922  10.677
67857W        W36075  38.018  39.303   2.180
67858W        W36076  40.992  11.535   4.241
67859W        W36077   0.623  20.240   1.894
67860W        W36078  16.551  18.691   4.387
67861W        W36079  21.853  11.822   1.725
67862W        W36080   5.623  13.761   2.757
67863W        W36081  21.187  25.761  13.338
67864W        W36082  38.361  31.527   1.306
67865W        W36083   5.991   0.206   2.609
67866W        W36084  14.615  38.499   2.267
67867W        W36085  24.564  38.862   4.095
67868W        W36086  24.331  35.129   2.787
67869W        W36087  25.640   4.198  13.974
67870W        W36088  33.368   9.907  12.349
67871W        W36089   1.954  42.057   2.276
67872W        W36090  22.023  28.843   2.173
67873W        W36091  41.038  24.964   1.178
67874W        W36092  10.080  10.703  13.540
67875W        W36093  32.610  29.140   4.726
67876W        W36094  42.314  35.360   0.267
67877W        W36095  31.443  31.956  14.450
67878W        W36096  10.114  39.466  12.816
67879W        W36097  21.702  37.898   4.975
67880W        W36098  28.400  23.366   1.136
67881W        W36099  17.108   7.355  11.172
67882W        W36100   1.331  42.036   0.703
67883W        W36101  10.608   1.910  13.288
67884W        W36102  40.297   8.219  12.568
67885W        W36103  36.050  44.210  12.194
67886W        W36104  44.016  38.863   4.204
67887W        W36105   9.235   7.926   0.750
67888W        W36106  15.509  41.356   4.175
67889W        W36107  18.264  42.007  13.842
67890W        W36108  33.116  18.315  13.937
67891W        W36109  44.293   5.783   1.873
67892W        W36110   0.376  33.534  11.828
67893W        W36111  19.151   6.448  14.265
67894W        W36112  38.893   9.120   3.588
67895W        W36113  11.541  43.793   0.822
67896W        W36114  36.995  44.924   4.265
67897W        W36115  19.799  15.781   0.867
67898W        W36116  24.725  21.510   3.236
67899W        W36117  41.491  28.562  13.438
67900W        W36118  21.072   8.738  12.958
67901W        W36119   2.960   7.597  14.079
67902W        W36120   2.957  29.066   2.751
67903W        W36121  28.260  36.004  13.942
67904W        W36122  14.876   5.823   0.730
67905W        W36123   4.725  26.590   4.188
67906W        W36124  18.105  14.318   4.405
67907W        W36125   4.383  16.855  12.148
67908W        W36126  30.354  24.265   4.612
67909W        W36127  35.161   4.315   0.725
67910W        W36128  16.814  38.381   3.695
67911W        W36129  31.188  22.766   4.612
67912W        W36130  37.366  16.683  14.751
67913W        W36131  22.543  27.731  10.328
67914W        W36132  14.665  29.488   3.156
67915W        W36133  44.530  11.209   3.123
67916W        W36134  20.252  12.273  11.611
67917W        W36135  37.850  22.123  13.414
67918W        W36136  29.183  21.678  13.862
67919W        W36137   9.804   1.870  11.134
67920W        W36138  13.782   2.371   2.203
67921W        W36139  20.055  34.952  13.884
67922W        W36140   8.914  26.118  14.864
67923W        W36141  31.569  27.185  13.571
67924W        W36142  43.688  11.687   4.215
67925W        W36143  21.609  37.178  10.708
67926W        W36144  37.064  18.256   3.521
67927W        W36145  12.235   2.873  14.369
67928W        W36146   2.652   5.691  14.313
67929W        W36147  35.855   9.910  12.359
67930W        W36148   6.048   3.868   1.304
67931W        W36149  37.834  19.231  11.074
67932W        W36150  17.525  40.792  13.996
67933W        W36151  43.878   6.741  12.914
67934W        W36152  19.694  30.898   1.864
67935W        W36153  37.846  37.285   2.333
67936W        W36154  24.103  28.293  14.069
67937W        W36155  33.079  13.572  11.125
67938W        W36156  14.165  14.643  14.477
67939W        W36157  33.184  39.149   1.397
67940W        W36158   2.441  12.154   0.752
67941W        W36159   4.955  42.455   2.735
67942W        W36160  43.467  35.463   0.746
67943W        W36161  44.989   2.478  12.887
67944W        W36162   7.140  16.080   4.104
67945W        W36163  21.696  37.387   1.818
67946W        W36164  44.362  30.364   5.055
67947W        W36165  37.008   2.927  13.944
67948W        W36166  20.307  17.713   3.172
67949W        W36167  17.338  44.907   1.183
67950W        W36168  14.298  30.435  14.091
67951W        W36169  38.148  33.100  12.426
67952W        W36170  34.898  39.631  14.938
67953W        W36171  10.216  28.864  11.989
67954W        W36172  34.542   7.130   1.391
67955W        W36173  34.643  11.247  13.093
67956W        W36174   7.174  33.543   0.352
67957W        W36175  29.528  44.279  12.654
67958W        W36176  10.220  20.065   2.300
67959W        W36177  23.043  44.421  11.176
67960W        W36178   4.500  17.278  12.825
67961W        W36179  40.884  39.392  14.173
67962W        W36180  40.809  18.807  13.392
67963W        W36181  10.783  35.286   4.085
67964W        W36182   1.910  21.536   0.363
67965W        W36183  33.922   4.749  11.520
67966W        W36184   4.218  32.425   4.829
67967W        W36185  11.101   4.486  11.201
67968W        W36186  40.484  10.849  10.582
67969W        W36187   1.182  41.200  13.958
67970W        W36188  20.255  31.893   3.756
67971W        W36189   0.484  29.917  13.832
67972W        W36190   7.129  17.398  12.403
67973W        W36191  28.722  11.800   0.405
67974W        W36192   7.119  27.065   3.865
67975W        W36193  44.891  44.429   1.434
67976W        W36194  36.033  34.854   2.692
67977W        W36195  24.214  21.238   0.662
67978W        W36196  42.764   8.707   2.626
67979W        W36197  13.804  36.422  12.641
67980W        W36198  40.939  43.716  11.079
67981W        W36199  18.661  22.716   0.028
67982W        W36200  12.120  11.000   3.461
67983W        W36201   8.256  16.752   1.388
67984W        W36202  32.828  38.551   0.318
67985W        W36203   3.756   5.894  12.898
67986W        W36204  42.463   9.734   4.038
67987W        W36205  27.301  21.762   4.078
67988W        W36206   4.775  27.721   2.665
67989W        W36207  22.420  17.824   3.296
67990W        W36208  36.521  39.774  12.961
67991W        W36209  31.127  25.918  13.353
67992W        W36210  26.987  31.435   3.604
67993W        W36211  24.530  18.480  12.379
67994W        W36212  18.017  28.662  12.437
67995W        W36213  25.002  43.273  14.323
67996W        W36214   4.070   8.321   4.036
67997W        W36215  26.117   7.380   2.334
67998W        W36216  25.529  16.583   1.925
67999W        W36217   9.584  15.073   2.677
68000W        W36218  35.361  40.974   0.346
68001W        W36219  33.823  43.069   1.994
68002W        W36220  40.256  26.445   4.985
68003W        W36221  20.529  23.515  14.151
68004W        W36222  44.462  44.206  10.265
68005W        W36223  10.726   2.280  14.467
68006W        W36224   7.270  39.410   3.789
68007W        W36225   5.833  19.714   3.344
68008W        W36226  24.176  33.400   1.970
68009W        W36227  29.152  30.720   0.749
68010W        W36228  18.300  33.791  10.761
68011W        W36229   6.882   4.273   1.231
68012W        W36230  39.110   7.314   2.277
68013W        W36231  10.587  29.160  12.537
68014W        W36232  14.213  40.555  11.630
68015W        W36233  11.379   7.082  12.355
68016W        W36234  29.850   1.751   1.980
68017W        W36235   5.720  25.213   5.055
68018W        W36236  31.499  21.516   1.235
68019W        W36237  20.334  18.229   3.813
68020W        W36238  26.422  18.249   1.700
68021W        W36239   8.221   5.703  11.420
68022W        W36240   7.592  19.483   1.972
68023W        W36241  32.454  33.832   2.207
68024W        W36242  22.925  29.075   0.769
68025W        W36243  20.639   7.840  14.810
68026W        W36244  12.704  34.685   3.664
68027W        W36245   0.464  21.188   0.347
68028W        W36246  43.920  19.744  10.467
68029W        W36247  21.589   2.460  11.640
68030W        W36248   9.727   0.018   1.486
68031W        W36249   2.909   3.442  11.147
68032W        W36250  10.794  39.532   4.299
68033W        W36251  44.042  11.624  11.543
68034W        W36252  31.444  40.074  12.882
68035W        W36253  23.693  32.157  12.565
68036W        W36254  16.013  16.655   4.952
68037W        W36255  16.345   0.945  14.838
68038W        W36256  43.811  35.877  12.496
68039W        W36257  12.875  15.035  10.679
68040W        W36258  35.563  35.841   1.146
68041W        W36259   6.833  25.973   3.663
68042W        W36260  26.114   0.535  13.384
68043W        W36261  17.701  11.271  14.964
68044W        W36262   0.545   6.702   3.291
68045W        W36263   8.354  24.300   0.727
68046W        W36264   2.720  23.472   2.125
68047W        W36265  15.217  21.735  10.443
68048W        W36266  16.407  28.614  10.691
68049W        W36267  40.465  26.154   1.250
68050W        W36268  42.785   9.286  14.355
68051W        W36269  38.472  12.714  14.789
68052W        W36270  10.603   7.298   3.145
68053W        W36271  10.119  14.100   0.406
68054W        W36272  44.187  21.649  13.648
68055W        W36273  20.594  13.128  14.367
68056W        W36274  16.180  43.551   5.428
68057W        W36275  33.531   7.707  13.047
68058W        W36276  28.640  31.897   4.725
68059W        W36277  39.563   9.895  11.173
68060W        W36278  25.380   4.851   5.072
68061W        W36279  20.496  39.537  14.903
68062W        W36280  26.152  26.988  12.447
68063W        W36281  14.553  26.329  10.140
68064W        W36282  29.073  35.407   1.698
68065W        W36283   6.716  17.360   3.172
68066W        W36284  29.687  13.886  11.995
68067W        W36285   3.282   7.237   4.855
68068W        W36286   5.121  26.997   2.702
68069W        W36287  14.346  30.024   4.181
68070W        W36288  37.263   5.792   1.205
68071W        W36289  23.528  30.621  13.876
68072W        W36290   6.299   1.213  14.776
68073W        W36291   4.430   7.255  12.970
68074W        W36292   0.440  14.339  11.461
68075W        W36293   3.849  12.203   4.565
68076W        W36294  19.061  44.764   3.229
68077W        W36295  42.476  22.239   0.842
68078W        W36296  33.385  21.428   5.168
68079W        W36297   3.575  18.481   1.838
68080W        W36298  39.048  30.319   3.654
68081W        W36299  35.060   6.698   3.242
68082W        W36300  33.620  28.599   1.438
68083W        W36301  12.522  39.955   2.687
68084W        W36302  40.422  13.677   2.269
68085W        W36303  23.161  22.345  11.659
68086W        W36304  19.600  41.349  13.402
68087W        W36305  34.962  28.926   1.327
68088W        W36306   1.288  23.569  13.276
68089W        W36307  28.447  15.279   0.529
68090W        W36308  15.794  26.033   4.397
68091W        W36309  17.618  33.549   1.746
68092W        W36310   5.001  44.447  12.598
68093W        W36311  27.079  32.183   1.748
68094W        W36312  27.514  37.596  12.064
68095W        W36313  35.967  13.596   1.439
68096W        W36314  21.101  24.992  12.866
68097W        W36315  25.007  36.666   1.954
68098W        W36316   1.376  38.772  14.593
68099W        W36317  24.440  18.369  11.378
68100W        W36318  19.799  22.717  13.930
68101W        W36319   6.032  35.475   4.332
68102W        W36320  37.966   5.010  14.864
68103W        W36321   8.799  40.600   3.949
68104W        W36322   1.405  44.643  11.075
68105W        W36323   0.734  44.758  11.468
68106W        W36324  32.098  43.295   2.869
68107W        W36325  20.035  21.972   1.837
68108W        W36326   2.850  12.871   2.318
68109W        W36327  14.288  21.206  12.124
68110W        W36328  24.602  15.316  13.581
68111W        W36329   9.830  38.503   4.448
68112W        W36330  22.561  17.562   0.480
68113W        W36331  19.073  40.895   3.170
68114W        W36332  30.003  37.209   4.098
68115W        W36333  30.515   8.239   4.965
68116W        W36334  39.930  38.384   0.211
68117W        W36335  14.600  14.642   0.973
68118W        W36336  43.587   9.804   3.672
68119W        W36337  16.245  18.661   1.769
68120W        W36338  14.986  30.015   0.194
68121W        W36339   0.895  43.908  12.492
68122W        W36340   6.418  12.590  10.544
68123W        W36341   6.872   4.966  12.531
68124W        W36342  12.943  13.127  12.824
68125W        W36343  24.957  15.637  11.111
68126W        W36344  42.931   9.936   3.079
68127W        W36345  26.650   7.807  10.713
68128W        W36346   4.546  17.171  14.338
68129W        W36347  13.666  29.183   0.295
68130W        W36348  14.594  15.546   2.381
68131W        W36349  41.841  42.277  12.186
68132W        W36350  34.047   6.768   3.194
68133W        W36351   4.724   0.831  13.492
68134W        W36352  10.294  21.314   3.855
68135W        W36353  41.892  41.749   2.162
68136W        W36354  17.799  26.682   3.657
68137W        W36355  12.991  19.292   1.443
68138W        W36356  39.873   7.735   1.570
68139W        W36357  19.933  11.904   1.376
68140W        W36358   2.491  17.346   0.319
68141W        W36359  18.702   7.626  13.139
68142W        W36360  15.960   3.699  13.383
68143W        W36361  28.011  19.213   3.059
68144W        W36362  14.280  39.340   2.188
68145W        W36363  25.463  22.716  14.929
68146W        W36364   9.657  41.694   3.914
68147W        W36365  25.791  39.092  11.172
68148W        W36366   6.845  33.425  14.766
68149W        W36367  14.097   5.647   2.601
68150W        W36368  27.937  34.979   3.634
68151W        W36369  24.502  11.592   2.400
68152W        W36370  31.461  19.242   2.667
68153W        W36371   0.727   1.332   4.376
68154W        W36372  32.589  20.488   2.667
68155W        W36373  29.631  15.120  11.502
68156W        W36374  11.574  32.001   3.130
68157W        W36375   5.181  34.855   0.509
68158W        W36376  34.257  30.504  12.023
68159W        W36377  10.628   1.523   1.477
68160W        W36378  27.719  30.376  13.967
68161W        W36379  37.254  28.891   1.764
68162W        W36380  13.039   7.035  10.938
68163W        W36381  39.931  25.098   3.696
68164W        W36382   1.234  41.180   2.883
68165W        W36383  34.163  25.957  12.131
68166W        W36384  30.644  36.197  10.915
68167W        W36385  40.817   5.988  10.617
68168W        W36386  34.034  35.399   0.558
68169W        W36387  11.265  29.680   0.303
68170W        W36388  29.135  34.990   3.892
68171W        W36389  29.111  15.019  13.991
68172W        W36390  26.930  13.755   2.525
68173W        W36391   8.078  28.686  14.491
68174W        W36392  26.467  38.405  13.934
68175W        W36393  11.216  31.949   3.535
68176W        W36394  21.816  14.700  11.577
68177W        W36395  16.141  13.165  11.976
68178W        W36396  36.656  19.246  10.676
68179W        W36397  36.872   2.263   4.033
68180W        W36398  42.845  36.322   1.841
68181W        W36399  31.993   4.477  13.998
68182W        W36400  31.696  25.555   3.817
68183W        W36401  27.198   8.615   3.648
68184W        W36402  20.684  35.617  11.458
68185W        W36403  12.679  24.139  10.777
68186W        W36404  18.132  16.704  11.693
68187W        W36405  32.045  44.496  11.885
68188W        W36406  39.307  11.486   3.810
68189W        W36407  12.475  13.799   1.771
68190W        W36408  43.095   0.982   3.671
68191W        W36409   0.782  30.927   4.124
68192W        W36410  29.957  23.440  11.092
68193W        W36411   3.508  11.276  14.795
68194W        W36412  29.090  34.024   0.350
68195W        W36413   3.281  10.329  11.909
68196W        W36414   3.331  15.763  12.813
68197W        W36415  14.294   7.854   0.130
68198W        W36416  38.493   7.121   4.256
68199W        W36417   9.306   8.905   1.858
68200W        W36418   0.269  14.314  14.391
68201W        W36419  41.649  32.114   3.767
68202W        W36420  36.022  17.304  12.903
68203W        W36421  28.933  10.764   0.400
68204W        W36422  20.807  18.793  11.163
68205W        W36423  21.569  40.839  14.639
68206W        W36424  40.285  40.380  12.668
68207W        W36425  25.743  38.806  11.881
68208W        W36426  26.063  22.224   2.209
68209W        W36427  37.609   5.102   0.847
68210W        W36428  39.881  36.411   0.713
68211W        W36429  42.827   7.901  13.167
68212W        W36430  32.211  33.532  10.746
68213W        W36431  11.858  34.827   0.315
68214W        W36432  32.453  10.625   1.838
68215W        W36433  44.014  36.204  12.905
68216W        W36434   3.313   6.756  11.432
68217W        W36435  17.844   6.995  13.944
68218W        W36436  30.273   6.855  14.301
68219W        W36437   2.692   3.649  13.915
68220W        W36438  32.844  19.185  14.469
68221W        W36439  39.608  11.426  11.984
68222W        W36440  23.721   6.673   1.681
68223W        W36441  11.888  22.901   0.409
68224W        W36442  11.762   0.157   2.727
68225W        W36443   7.424  27.253  14.909
68226W        W36444  38.337  12.163  13.514
68227W        W36445  28.511  37.331  13.917
68228W        W36446  36.814  16.778   1.815
68229W        W36447  35.542   4.020  10.660
68230W        W36448  20.642  30.428   4.869
68231W        W36449  38.670  42.841  11.514
68232W        W36450  35.216  33.382  10.656
68233W        W36451   8.692   5.281   2.185
68234W        W36452  32.444   1.317  12.411
68235W        W36453  37.282  17.688   1.829
68236W        W36454  23.564  29.353  12.380
68237W        W36455  19.261  33.955  13.646
68238W        W36456  36.467  38.553  13.503
68239W        W36457  16.827  29.448  11.287
68240W        W36458  38.150  39.486  13.341
68241W        W36459  22.856  15.037  13.377
68242W        W36460  36.652  21.411  11.685
68243W        W36461  19.838  27.986   2.728
68244W        W36462  41.977  42.249   3.291
68245W        W36463  25.883  20.954   2.586
68246W        W36464  38.122  20.174   0.913
68247W        W36465  21.321  25.466  12.903
68248W        W36466   4.010  35.507  13.009
68249W        W36467   1.919   0.397   0.715
68250W        W36468  10.343  15.215   5.290
68251W        W36469   6.715  10.218   1.495
68252W        W36470  35.533  42.361  12.993
68253W        W36471  19.061  24.572   3.289
68254W        W36472   5.612  20.559  13.579
68255W        W36473  21.270   6.263   2.659
68256W        W36474  23.757  37.378  14.935
68257W        W36475  35.387  30.291  13.488
68258W        W36476   1.456  39.829  14.386
68259W        W36477  13.110  18.661  12.687
68260W        W36478  31.016  11.604   0.455
68261W        W36479   2.205   8.074   1.867
68262W        W36480  17.888  39.967  12.355
68263W        W36481  18.279   9.887  10.683
68264W        W36482  20.175  23.478  12.379
68265W        W36483  28.944   6.397  10.683
68266W        W36484   8.310  30.825   3.248
68267W        W36485  11.101  16.380   2.195
68268W        W36486  40.863  27.062   3.573
68269W        W36487  41.868  31.224  11.584
68270W        W36488  33.893  10.290   0.658
68271W        W36489  41.632  31.952   0.986
68272W        W36490  25.930  15.190   0.327
68273W        W36491  12.380  43.681   0.413
68274W        W36492  31.223   1.931   3.454
68275W        W36493  21.343   7.751   1.590
68276W        W36494  43.505  24.649   2.833
68277W        W36495  38.104  32.413   1.413
68278W        W36496  33.112  13.766   0.898
68279W        W36497  28.646   0.285   3.540
68280W        W36498  16.052  25.187  10.685
68281W        W36499   8.566  33.625  11.549
68282W        W36500  38.393  11.007  14.522
68283W        W36501  38.849  16.212  11.160
68284W        W36502  33.904  15.837  14.365
68285W        W36503   5.988  36.425  11.175
68286W        W36504   7.748  15.263   2.012
68287W        W36505  33.374  21.939   0.793
68288W        W36506   4.771  18.489   2.655
68289W        W36507  13.062  13.082   4.681
68290W        W36508  32.892  34.166   3.001
68291W        W36509  24.619  16.155  14.161
68292W        W36510  33.142  23.066  14.474
68293W        W36511  19.265   0.501  14.211
68294W        W36512  36.447  30.034  13.486
68295W        W36513  38.503  33.169  14.793
68296W        W36514  29.668  10.452   1.309
68297W        W36515   1.310  11.065   0.032
68298W        W36516  14.089   6.357  11.486
68299W        W36517  42.013   4.257  10.641
68300W        W36518  12.752  13.896  12.721
68301W        W36519  24.870  33.420   3.297
68302W        W36520  32.407  42.784   4.178
68303W        W36521  23.042  29.999  11.254
68304W        W36522  30.247  31.001   3.401
68305W        W36523  35.058  22.250   5.050
68306W        W36524  19.003  41.904   3.620
68307W        W36525  28.992  31.139  11.420
68308W        W36526  27.717  14.195   1.394
68309W        W36527  15.399   8.704   4.502
68310W        W36528   4.897  16.763  13.411
68311W        W36529  34.004  13.020   0.994
68312W        W36530   7.296   9.289  11.628
68313W        W36531  23.723  35.381  10.181
68314W        W36532  17.270  35.103   2.428
68315W        W36533  13.786   9.131   0.016
68316W        W36534   3.343  17.780  14.395
68317W        W36535  19.969   6.384  14.857
68318W        W36536  44.917  26.703   3.104
68319W        W36537  24.011   8.241  13.093
68320W        W36538  40.008   4.626  13.746
68321W        W36539  39.894   3.635   4.761
68322W        W36540  13.307   7.229  13.954
68323W        W36541   0.018  12.186  10.664
68324W        W36542  14.213   4.480   0.023
68325W        W36543  41.769  13.148  11.564
68326W        W36544  36.030  37.402  10.788
68327W        W36545  17.296   5.744   0.278
68328W        W36546  18.710  37.120   3.625
68329W        W36547   0.741  41.436  12.981
68330W        W36548   8.874  31.036  14.846
68331W        W36549   8.251  30.441  14.549
68332W        W36550  26.328  32.106  13.258
68333W        W36551  36.014  27.920   1.333
68334W        W36552   0.846  29.195  14.040
68335W        W36553  35.524  30.388   0.398
68336W        W36554   0.108   9.228   4.524
68337W        W36555  15.400   2.824   2.609
68338W        W36556   6.795  10.888  11.117
68339W        W36557  21.065   2.358  12.574
68340W        W36558  35.410  15.923   2.152
68341W        W36559   6.620   4.967   0.807
68342W        W36560  13.396  26.339   2.824
68343W        W36561  12.049  13.539  12.950
68344W        W36562   3.298  36.444  10.412
68345W        W36563  19.870  38.663   2.868
68346W        W36564  14.393  39.471  10.849
68347W        W36565  36.259   6.162  11.115
68348W        W36566  22.594  10.837  14.878
68349W        W36567   6.023  15.798   2.097
68350W        W36568  25.142  19.446   1.733
68351W        W36569  13.853  30.485   0.358
68352W        W36570  20.364  13.366   4.071
68353W        W36571   5.427  17.244   3.802
68354W        W36572  22.113  23.793  11.734
68355W        W36573   6.814  30.447  11.086
68356W        W36574  44.943  23.867   1.413
68357W        W36575  12.413  24.695  10.642
68358W        W36576  34.871  35.384  14.458
68359W        W36577   2.293   9.185   2.861
68360W        W36578  16.203  34.084   4.560
68361W        W36579  20.266  24.225   1.389
68362W        W36580  38.943  29.880   3.389
68363W        W36581  13.319   5.012  13.625
68364W        W36582  18.174  34.153   3.831
68365W        W36583  22.542  33.650   4.112
68366W        W36584  39.257   8.755  14.733
68367W        W36585  20.592  42.561   2.075
68368W        W36586   4.949  12.437  14.947
68369W        W36587  34.021  40.396   4.587
68370W        W36588  31.354  26.529   0.812
68371W        W36589   6.760  40.652   2.331
68372W        W36590  15.520  40.950   2.425
68373W        W36591  24.161   2.420  14.375
68374W        W36592  18.199  40.343  10.603
68375W        W36593  38.282  20.027   3.907
68376W        W36594  32.065  25.483  12.531
68377W        W36595  16.357  29.023  11.904
68378W        W36596  14.604  25.950   0.972
68379W        W36597   6.471  10.201  12.468
68380W        W36598   9.005  12.805  11.188
68381W        W36599  23.321   6.715  11.141
68382W        W36600  22.256  12.418  12.039
68383W        W36601  27.362  37.748  12.537
68384W        W36602  40.893   0.795  10.692
68385W        W36603  16.526  15.249  12.945
68386W        W36604  10.877  19.359   1.200
68387W        W36605  41.602  36.262  11.993
68388W        W36606  20.706   2.461   0.838
68389W        W36607   3.966  32.561  14.519
68390W        W36608  38.061  16.246   2.666
68391W        W36609  33.084   0.582   1.415
68392W        W36610  22.990   9.422  11.138
68393W        W36611  31.516   4.983  12.578
68394W        W36612  43.439  30.491  12.618
68395W        W36613  43.512  43.366  14.481
68396W        W36614  35.454  13.905   3.737
68397W        W36615  35.292   2.914  13.592
68398W        W36616  15.039  34.562  11.173
68399W        W36617  25.193  19.225  14.290
68400W        W36618  20.648  19.548   1.494
68401W        W36619   5.256  22.845  13.944
68402W        W36620  37.445  17.597   0.906
68403W        W36621  33.053  29.096   3.916
68404W        W36622  13.727  40.291   4.629
68405W        W36623  13.987  12.516   1.176
68406W        W36624   6.426  15.624   1.837
68407W        W36625  22.615  17.536   1.916
68408W        W36626   3.195  21.459   2.747
68409W        W36627  22.111   2.758  10.515
68410W        W36628  36.055  41.226  14.905
68411W        W36629  32.014  37.347  12.565
68412W        W36630  10.867  23.193   1.667
68413W        W36631   6.675   8.901   3.839
68414W        W36632  35.123  42.516  14.310
68415W        W36633  29.580  22.154  13.504
68416W        W36634  12.290  29.510  10.971
68417W        W36635   4.061  42.347   5.487
68418W        W36636  22.587  33.702   3.207
68419W        W36637  43.684  15.613   2.783
68420W        W36638  29.434  29.566  13.970
68421W        W36639  33.911  41.786   3.617
68422W        W36640  38.004  17.739   0.940
68423W        W36641  10.854  40.578   0.196
68424W        W36642  19.563  15.834   3.340
68425W        W36643  38.537  37.631   1.632
68426W        W36644  11.198  29.655   2.114
68427W        W36645  21.994  35.622   5.560
68428W        W36646  24.475  40.483   0.906
68429W        W36647   7.104   3.958  13.073
68430W        W36648  13.078  38.790   3.346
68431W        W36649  17.796   0.737   2.707
68432W        W36650  10.097  40.230  14.791
68433W        W36651  43.702  40.904  13.556
68434W        W36652   1.243   1.727   1.885
68435W        W36653  26.760   7.826  14.956
68436W        W36654   4.025  15.177   1.841
68437W        W36655  27.719  25.234  10.578
68438W        W36656  33.181  17.676   2.181
68439W        W36657  36.597  37.560   4.983
68440W        W36658  28.431  14.362  10.183
68441W        W36659  31.733  17.568   4.215
68442W        W36660  37.888   0.420   4.271
68443W        W36661  30.398  43.285   0.863
68444W        W36662   2.211  17.844  10.804
68445W        W36663  32.508  20.828  14.728
68446W        W36664  17.824  37.524   2.802
68447W        W36665   9.679  42.545   0.275
68448W        W36666  30.591   3.494  14.768
68449W        W36667   0.759   3.774   3.701
68450W        W36668  38.365   9.174   0.690
68451W        W36669  16.107  31.780   3.129
68452W        W36670  10.272  14.772  11.212
68453W        W36671  18.929  43.924   2.290
68454W        W36672  42.499  40.283  11.930
68455W        W36673   6.084  32.712  12.443
68456W        W36674  36.458  13.142   4.544
68457W        W36675  19.552   0.525   0.028
68458W        W36676  35.536  24.954   1.720
68459W        W36677   6.887  20.057  11.467
68460W        W36678  23.306  41.454  13.551
68461W        W36679  25.686   2.756  14.287
68462W        W36680  26.267  32.070   2.802
68463W        W36681  25.394  28.007   1.300
68464W        W36682   8.836   5.221   3.261
68465W        W36683  41.813  19.510   0.919
68466W        W36684  19.225  28.605   4.112
68467W        W36685   6.873  41.480  10.607
68468W        W36686  41.608  10.510   2.058
68469W        W36687  28.487  31.851   0.401
68470W        W36688  36.550   9.475   1.437
68471W        W36689   9.319  37.087   4.913
68472W        W36690  23.475  20.415   0.269
68473W        W36691  31.129   8.955  12.268
68474W        W36692  42.449  31.297   1.685
68475W        W36693   0.157   2.855  11.120
68476W        W36694  13.605  38.715   0.313
68477W        W36695  10.049  23.137   3.962
68478W        W36696  18.931   6.332  10.608
68479W        W36697  26.678   0.589  12.745
68480W        W36698   9.595   8.948   2.296
68481W        W36699  13.829  14.774  12.524
68482W        W36700  20.186  17.767   0.007
68483W        W36701  21.711   7.895  12.575
68484W        W36702  27.014  37.746  13.239
68485W        W36703  22.649  32.107   9.860
68486W        W36704  25.637  44.824   1.664
68487W        W36705   4.108  21.647  10.770
68488W        W36706  22.127  39.991   2.991
68489W        W36707  28.713  35.364  13.325
68490W        W36708  31.177  34.472  10.919
68491W        W36709  19.366  23.602  12.006
68492W        W36710  33.182  31.627  13.279
68493W        W36711  11.796  27.641  11.047
68494W        W36712  41.457  40.275   2.072
68495W        W36713  25.200  26.104  10.825
68496W        W36714  39.318  28.507  14.264
68497W        W36715  26.959  26.698  13.378
68498W        W36716   2.783  36.867   1.964
68499W        W36717  36.176  21.680  10.657
68500W        W36718  31.987  22.165  14.233
68501W        W36719  22.154   5.484  12.507
68502W        W36720  19.561   6.755  14.462
68503W        W36721   2.748  14.662   1.652
68504W        W36722  30.391   6.108   0.399
68505W        W36723   9.658  44.141   5.014
68506W        W36724   6.717  43.108  14.312
68507W        W36725  22.479   0.246   0.041
68508W        W36726   9.334  38.524  10.479
68509W        W36727  28.809  33.964  12.000
68510W        W36728  24.444  26.220  13.386
68511W        W36729  13.430  44.891  12.109
68512W        W36730  30.894   1.255  10.285
68513W        W36731  15.433  27.131  10.735
68514W        W36732  39.127  13.834   3.244
68515W        W36733  29.924  39.134   1.639
68516W        W36734  21.971  21.711   1.401
68517W        W36735  34.576  24.063  13.832
68518W        W36736  11.785   6.714  13.375
68519W        W36737  39.758  15.838   1.699
68520W        W36738  19.211   9.842  12.085
68521W        W36739  27.620  37.211  14.614
68522W        W36740  38.844  36.588   4.205
68523W        W36741  36.916  22.548  10.514
68524W        W36742  41.245   7.661  12.010
68525W        W36743  41.941  21.444  12.183
68526W        W36744  35.478  29.651   3.830
68527W        W36745  10.442  30.580   2.073
68528W        W36746  21.952  10.835   4.218
68529W        W36747   9.897  40.005  14.385
68530W        W36748  23.375   9.961  12.002
68531W        W36749  22.539  33.791  11.144
68532W        W36750  20.748  19.211   1.103
68533W        W36751  33.816   4.273   2.536
68534W        W36752  42.493  23.596   4.317
68535W        W36753  33.985  24.980  11.236
68536W        W36754  17.856   2.442   0.175
68537W        W36755  31.939   6.229   1.735
68538W        W36756  34.994   1.797  13.386
68539W        W36757  28.167  13.636   5.301
68540W        W36758  21.653  19.343   1.238
68541W        W36759  30.257  27.164  13.836
68542W        W36760   7.805  17.389  13.775
68543W        W36761   1.557  42.374   4.654
68544W        W36762  22.555  44.545   3.687
68545W        W36763  21.494  41.775  12.452
68546W        W36764  16.165  23.060   4.850
68547W        W36765  28.193  40.095  12.188
68548W        W36766  24.117  28.675   4.900
68549W        W36767   8.679   8.450   1.453
68550W        W36768  15.607  32.710   0.901
68551W        W36769  21.118  28.780   1.699
68552W        W36770  38.936  32.643  11.025
68553W        W36771  41.849   5.199   1.788
68554W        W36772  16.309  42.281   0.418
68555W        W36773   6.102  40.768  12.522
68556W        W36774  31.020  13.635  11.527
68557W        W36775  43.761  11.906  10.609
68558W        W36776  44.974  40.397   1.376
68559W        W36777   1.347  34.893  11.294
68560W        W36778  26.411  16.734  12.849
68561W        W36779  10.819  10.732   2.720
68562W        W36780  19.272  11.912   2.839
68563W        W36781  17.834  28.401  11.547
68564W        W36782  29.885   8.738   2.143
68565W        W36783  40.886  19.697   4.590
68566W        W36784  15.332  38.306  12.350
68567W        W36785  42.040  31.554  14.752
68568W        W36786  33.405  30.372  14.796
68569W        W36787  18.937  39.238   1.955
68570W        W36788  35.595  42.621   3.542
68571W        W36789   8.735   2.435  13.469
68572W        W36790  28.903  12.862  12.689
68573W        W36791  27.706  27.107  14.369
68574W        W36792  26.025  36.587  12.556
68575W        W36793  14.171  16.064   4.777
68576W        W36794   1.010   5.923  14.450
68577W        W36795  28.643   8.771   4.131
68578W        W36796  42.082   3.684   3.723
68579W        W36797  33.614   8.331  10.331
68580W        W36798  25.653   2.333   0.028
68581W        W36799   3.753  32.522   4.122
68582W        W36800  37.306  44.888   3.764
68583W        W36801  17.720  36.517  14.370
68584W        W36802  38.345   0.969  11.184
68585W        W36803  27.110  41.332  13.861
68586W        W36804  42.333  31.662  12.488
68587W        W36805  20.692  13.272  12.055
68588W        W36806   6.980  25.451   3.683
68589W        W36807   8.334  36.293   0.991
68590W        W36808  42.771  41.892   3.789
68591W        W36809   5.421  27.510  14.737
68592W        W36810  21.746  10.842  14.357
68593W        W36811   3.407  23.436  12.884
68594W        W36812   6.837  22.168   1.794
68595W        W36813  10.735  30.063  13.779
68596W        W36814   3.504  41.923  12.695
68597W        W36815  17.972  30.007   0.236
68598W        W36816  39.380  34.480   3.992
68599W        W36817  29.810  37.879  11.984
68600W        W36818   0.415   9.900  13.619
68601W        W36819  28.527  33.599  10.984
68602W        W36820   9.064  30.437   5.018
68603W        W36821   4.791  42.192   4.567
68604W        W36822  34.140  18.619   0.773
68605W        W36823  22.545  23.587   0.418
68606W        W36824  42.527  21.799  12.497
68607W        W36825   8.897   5.803   3.871
68608W        W36826  44.876  33.424  12.005
68609W        W36827  37.965  13.579   4.719
68610W        W36828  38.562   9.106  12.609
68611W        W36829   9.688  20.318  14.514
68612W        W36830   4.214  27.483   1.818
68613W        W36831  43.524  19.510   3.205
68614W        W36832   6.141  40.784   0.914
68615W        W36833   9.730  40.051  10.471
68616W        W36834  28.630  22.768   3.758
68617W        W36835  26.046  25.125   1.419
68618W        W36836   3.995  29.052  14.810
68619W        W36837  34.500   3.935  13.472
68620W        W36838  32.136  32.572   1.199
68621W        W36839   3.017   9.662   3.415
68622W        W36840   7.257  36.366   0.488
68623W        W36841  37.763  33.166  10.422
68624W        W36842  26.083  24.809   4.952
68625W        W36843  41.002  13.540   1.924
68626W        W36844  29.701  11.172   3.634
68627W        W36845  14.662  16.070  14.410
68628W        W36846  15.364  32.039   1.947
68629W        W36847  22.152  27.576  14.741
68630W        W36848  16.780   3.421  12.513
68631W        W36849  20.241  20.558   4.374
68632W        W36850  23.086   2.945   4.542
68633W        W36851  12.156  27.180  13.532
68634W        W36852  31.453  41.758   1.763
68635W        W36853  14.659  39.251  13.877
68636W        W36854  23.087  41.470  12.615
68637W        W36855  37.335  14.340  11.660
68638W        W36856  39.889  22.400  13.260
68639W        W36857  42.250  25.945  11.107
68640W        W36858  21.303  38.039  12.976
68641W        W36859   7.720  25.508  11.000
68642W        W36860  29.982  11.666  11.023
68643W        W36861  26.968  21.309  10.695
68644W        W36862  34.369  12.814   3.062
68645W        W36863  12.350  10.320   0.792
68646W        W36864  21.091  18.177   4.539
68647W        W36865  23.105  40.954   1.016
68648W        W36866   5.558  13.572   0.335
68649W        W36867  14.293  18.111  10.691
68650W        W36868  14.004  17.795   0.222
68651W        W36869   2.279   0.901   2.788
68652W        W36870  16.295  18.106   0.387
68653W        W36871  22.508  14.389   4.242
68654W        W36872  26.095  16.632  11.948
68655W        W36873  41.342  33.126  13.298
68656W        W36874  20.685  26.719   5.062
68657W        W36875   6.391  37.587   1.327
68658W        W36876  22.682  10.926   3.575
68659W        W36877  27.467  37.523   0.987
68660W        W36878  22.594   5.998  11.166
68661W        W36879  10.728  22.917   3.382
68662W        W36880  37.450   2.427   0.108
68663W        W36881  13.985  38.395  13.846
68664W        W36882   3.981  19.929   1.767
68665W        W36883  20.049  27.444   1.899
68666W        W36884   4.436  42.398  12.564
68667W        W36885  25.614  15.795  12.371
68668W        W36886  41.995  35.000  10.500
68669W        W36887  14.887   1.894   2.895
68670W        W36888  16.381  20.656  11.443
68671W        W36889  29.041  43.250   0.206
68672W        W36890  22.896  10.769   1.782
68673W        W36891  22.960  31.530   1.821
68674W        W36892  16.105  30.539  14.024
68675W        W36893  34.023  38.007   0.452
68676W        W36894  32.099  33.650   4.112
68677W        W36895  32.102  13.851  14.524
68678W        W36896  32.761   3.818  14.857
68679W        W36897  26.123  43.134  14.287
68680W        W36898  16.148  29.969   3.979
68681W        W36899   6.782  24.286  11.343
68682W        W36900   1.943  19.620   3.735
68683W        W36901  42.419   9.772   0.868
68684W        W36902  23.188  32.500   2.711
68685W        W36903  10.269  28.114  14.315
68686W        W36904  42.939  20.982   9.986
68687W        W36905  43.341   8.148  14.868
68688W        W36906  18.799  36.169   0.789
68689W        W36907  30.855  43.865   1.691
68690W        W36908  39.973  42.910   1.932
68691W        W36909  33.889  10.983  10.415
68692W        W36910  13.703  30.762   4.121
68693W        W36911   1.376  12.654   3.605
68694W        W36912  42.896  26.624   2.773
68695W        W36913  29.582  38.592  11.083
68696W        W36914  26.676  39.865   0.412
68697W        W36915  37.500  30.364   2.823
68698W        W36916  29.981   7.454  14.796
68699W        W36917  13.275  10.091  11.463
68700W        W36918  13.343  17.018  14.277
68701W        W36919  37.855  38.089   2.702
68702W        W36920  24.100  43.305   2.781
68703W        W36921  16.473  37.314   4.586
68704W        W36922  42.385  21.714   3.113
68705W        W36923  38.939  24.602  14.037
68706W        W36924  20.226   1.740   3.112
68707W        W36925   9.993  28.539   2.832
68708W        W36926  20.902   1.444   4.817
68709W        W36927  20.176  37.108   4.561
68710W        W36928  39.439  25.693   2.659
68711W        W36929   3.012  16.611   3.843
68712W        W36930  34.664  22.573   3.049
68713W        W36931  25.461   4.119   0.921
68714W        W36932  39.456  15.393  12.959
68715W        W36933  13.775  41.830  12.110
68716W        W36934  26.441  34.944  11.938
68717W        W36935  40.544  24.498  12.487
68718W        W36936  31.864   5.889  12.603
68719W        W36937  17.381  28.136  11.551
68720W        W36938  19.473  17.978  14.793
68721W        W36939  28.026   5.421   1.341
68722W        W36940   4.112  40.929  12.617
68723W        W36941  23.516  36.837   2.736
68724W        W36942   6.398  22.650  13.579
68725W        W36943  23.646  44.462  14.992
68726W        W36944  31.490  24.564   0.390
68727W        W36945   2.806  40.322   1.607
68728W        W36946  33.300  28.905   0.718
68729W        W36947   4.290  29.012  11.627
68730W        W36948  24.026   9.664  13.364
68731W        W36949  43.252  38.482  13.904
68732W        W36950   7.677  42.994  11.597
68733W        W36951  44.091  24.212  12.524
68734W        W36952  42.794  24.197   0.502
68735W        W36953  40.724  17.160   4.122
68736W        W36954  10.765  14.782   3.581
68737W        W36955   1.515  27.592   0.636
68738W        W36956  40.900  26.143   4.681
68739W        W36957  31.454  43.872   0.348
68740W        W36958   8.428   8.227   3.258
68741W        W36959  20.130  22.368   2.734
68742W        W36960  11.898  37.988  13.822
68743W        W36961  28.326   6.512  13.306
68744W        W36962  10.359  30.913   2.829
68745W        W36963  39.320  39.238  14.488
68746W        W36964  41.957  15.912  12.901
68747W        W36965   5.495  37.471   0.855
68748W        W36966   3.855  28.116   0.210
68749W        W36967  43.726  22.015  11.109
68750W        W36968  17.036  17.011   1.873
68751W        W36969  37.846  26.789   3.230
68752W        W36970   4.961   6.728  14.381
68753W        W36971  43.692  17.194   2.312
68754W        W36972  38.055   6.800  11.581
68755W        W36973   7.458   0.855   1.496
68756W        W36974  29.709  18.743  12.500
68757W        W36975  17.548   8.808   3.579
68758W        W36976  25.427  27.486   0.673
68759W        W36977  19.678   4.017   0.862
68760W        W36978  19.547  36.956   0.416
68761W        W36979   4.843  21.468   1.287
68762W        W36980  26.297  13.299   2.132
68763W        W36981  38.301  38.409   4.275
68764W        W36982  23.463   8.290  14.997
68765W        W36983   8.768  16.345  11.842
68766W        W36984   2.449  31.453   1.264
68767W        W36985  23.619  26.606  13.428
68768W        W36986   2.878  16.131   4.671
68769W        W36987   5.420  12.528  13.790
68770W        W36988  35.629   9.116   2.425
68771W        W36989  17.109  29.516   1.688
68772W        W36990  29.600  12.320  12.068
68773W        W36991  31.370  42.488   2.808
68774W        W36992  23.164  27.388   4.995
68775W        W36993   0.991  39.906   4.261
68776W        W36994  33.394  43.743  10.620
68777W        W36995  33.843  29.097   4.605
68778W        W36996  25.687  44.580  14.370
68779W        W36997  15.199  28.684  12.996
68780W        W36998  40.560  34.876  10.781
68781W        W36999  32.192  31.140  12.945
68782W        W37000  27.176  31.000   2.268
68783W        W37001  19.312  25.650  14.950
68784W        W37002  12.968  26.279  11.384
68785W        W37003  32.424   4.288   3.563
68786W        W37004   0.765  26.170  12.414
68787W        W37005  21.298   4.763  13.252
68788W        W37006  19.697  12.672  10.929
68789W        W37007  36.975  22.373   2.571
68790W        W37008  43.256  16.808   0.673
68791W        W37009  20.291  15.963   0.840
68792W        W37010  18.578  18.920   5.314
68793W        W37011  11.106  25.353   2.473
68794W        W37012  16.287  43.026  10.780
68795W        W37013  21.835   5.390  11.979
68796W        W37014  33.447  35.668  11.918
68797W        W37015  18.094  31.910   0.937
68798W        W37016  10.268  18.278   2.609
68799W        W37017   4.924  11.563   4.136
68800W        W37018  39.121  20.127  11.073
68801W        W37019  28.529  16.304   0.272
68802W        W37020   6.571  38.934   5.250
68803W        W37021  24.439   2.849   0.396
68804W        W37022  41.674  37.572  13.877
68805W        W37023  24.361  32.276   4.310
68806W        W37024   5.659  35.472   4.676
68807W        W37025  16.478   4.401   2.255
68808W        W37026  28.564  34.086   1.787
68809W        W37027  26.107  38.993  10.389
68810W        W37028  20.583  33.865  14.344
68811W        W37029  42.958  25.028   1.491
68812W        W37030  28.504  39.243   0.242
68813W        W37031  12.233  11.202   1.301
68814W        W37032   3.940  26.324   2.165
68815W        W37033   1.981  14.286   2.755
68816W        W37034   7.461  15.724   2.757
68817W        W37035  34.423  24.408   2.432
68818W        W37036  17.155  42.170  12.456
68819W        W37037   6.776  11.095   0.229
68820W        W37038   5.421   2.965  14.801
68821W        W37039   3.287  32.694  12.497
68822W        W37040  28.679  14.513  11.914
68823W        W37041  32.898  16.146  10.611
68824W        W37042  41.631  36.604   4.541
68825W        W37043  17.676   5.915  13.162
68826W        W37044   8.471  18.573   1.011
68827W        W37045   5.119   1.148  12.023
68828W        W37046  41.564  14.498  12.559
68829W        W37047  35.328  28.948   4.092
68830W        W37048   2.505   9.353  11.610
68831W        W37049  33.447  25.312  13.288
68832W        W37050  29.611  23.858  11.116
68833W        W37051  35.807   0.235   5.002
68834W        W37052  11.859  28.024  14.900
68835W        W37053   4.981   9.784  13.281
68836W        W37054   6.766   3.442  10.668
68837W        W37055  14.857   1.364   1.771
68838W        W37056  19.247  37.987  14.545
68839W        W37057  20.473  18.775  11.594
68840W        W37058  38.343  29.905  14.075
68841W        W37059  38.113  15.053   4.510
68842W        W37060  27.719  13.037   0.836
68843W        W37061   6.384   6.192  14.906
68844W        W37062  32.971  30.712   0.719
68845W        W37063   9.104  43.422   2.698
68846W        W37064  19.155   8.999  13.018
68847W        W37065  22.547  19.768   1.378
68848W        W37066  26.168  19.703   3.726
68849W        W37067  36.612  22.217  14.789
68850W        W37068  28.128   4.031  14.448
68851W        W37069   2.406   5.817  13.390
68852W        W37070   6.799  43.330  12.114
68853W        W37071  18.286   4.728  11.151
68854W        W37072  13.264  23.184   1.233
68855W        W37073  16.899  41.153   1.296
68856W        W37074  16.272  19.826  14.887
68857W        W37075   1.722  44.965  11.319
68858W        W37076  19.932  26.246  11.884
68859W        W37077  22.507  13.854  11.986
68860W        W37078  18.197  39.486   0.323
68861W        W37079   8.828  28.244  12.612
68862W        W37080   2.891   9.771   4.744
68863W        W37081  20.133   1.887  14.046
68864W        W37082  43.742  37.071  13.986
68865W        W37083  10.167   6.641   3.139
68866W        W37084  13.647  31.671   0.092
68867W        W37085  19.110  31.888  13.671
68868W        W37086  42.301   3.123  12.688
68869W        W37087  44.286  41.742  13.408
68870W        W37088  41.377  18.786   4.757
68871W        W37089  20.566  30.044   3.444
68872W        W37090  28.553  10.045  11.447
68873W        W37091  29.535  12.415  13.528
68874W        W37092   6.136  42.767   2.194
68875W        W37093  26.556  29.777   4.487
68876W        W37094   9.923  29.453  13.582
68877W        W37095  15.373   1.318   3.233
68878W        W37096  10.782  28.559  10.677
68879W        W37097   9.414   0.229  11.623
68880W        W37098  31.376   0.852  10.698
68881W        W37099  27.201  11.943   1.417
68882W        W37100  26.737  44.678   4.986
68883W        W37101   7.255  22.982   1.706
68884W        W37102  26.203  27.733   1.224
68885W        W37103   2.305  14.084  14.020
68886W        W37104  15.818   7.335  12.309
68887W        W37105   5.161  24.691   1.292
68888W        W37106  15.685   6.893  13.053
68889W        W37107  24.310   7.892  11.922
68890W        W37108  20.250  14.225   3.183
68891W        W37109   0.728  36.370   3.668
68892W        W37110  43.349  15.651   4.090
68893W        W37111  12.809  16.238   1.831
68894W        W37112  33.444   2.347  10.707
68895W        W37113  26.796  20.229  11.770
68896W        W37114  40.556  38.077   3.219
68897W        W37115   2.232   5.701   3.366
68898W        W37116  24.428  27.189   2.164
68899W        W37117  11.594  25.193   0.935
68900W        W37118  16.699  36.660  11.628
68901W        W37119   0.913  43.737   1.626
68902W        W37120   4.962  23.954   5.313
68903W        W37121  11.207   6.697  11.867
68904W        W37122  37.341  14.750  13.338
68905W        W37123  20.063   2.063  14.972
68906W        W37124  10.799  25.469  13.842
68907W        W37125  18.207  11.610   3.779
68908W        W37126  16.312  36.091   4.247
68909W        W37127  32.556  36.006  11.710
68910W        W37128  11.389  19.524  12.965
68911W        W37129  44.212  41.026  14.735
68912W        W37130   5.685  28.125  13.086
68913W        W37131  15.323   9.530   4.874
68914W        W37132   2.263   9.188   4.388
68915W        W37133  38.951  24.526   2.354
68916W        W37134   8.902   3.384   5.023
68917W        W37135  26.733  28.558  14.756
68918W        W37136  15.652  23.702  10.299
68919W        W37137  32.036  18.501   4.693
68920W        W37138   6.429   0.270  13.488
68921W        W37139  30.410   2.199   9.801
68922W        W37140  35.766  24.705  11.678
68923W        W37141  37.382  20.764  14.356
68924W        W37142   6.085  39.847   3.847
68925W        W37143  30.043   9.334  13.398
68926W        W37144  44.106  18.856   3.224
68927W        W37145  19.546  14.952   3.648
68928W        W37146  31.508  24.251   1.379
68929W        W37147  27.978  17.516   2.401
68930W        W37148  43.411  42.906  12.157
68931W        W37149  11.574   2.383   2.780
68932W        W37150  16.665  44.267   0.801
68933W        W37151  26.994  39.505   3.881
68934W        W37152  35.969  35.574   1.393
68935W        W37153  17.228  38.514   3.964
68936W        W37154   5.482  26.486   3.797
68937W        W37155  40.859  26.566  10.737
68938W        W37156  26.492  33.491   3.295
68939W        W37157  38.507  42.248   0.907
68940W        W37158  42.337  31.040  13.899
68941W        W37159  32.008  20.954  11.184
68942W        W37160   7.719  24.982  12.095
68943W        W37161  10.035  13.748   3.912
68944W        W37162  33.251  28.747   3.567
68945W        W37163  39.067  41.903   3.662
68946W        W37164  20.658   8.281  12.566
68947W        W37165  30.715   3.994  12.380
68948W        W37166  21.018  22.812   2.865
68949W        W37167  41.006  30.314  11.605
68950W        W37168  35.212  19.387   0.443
68951W        W37169  31.588  37.083   2.287
68952W        W37170   8.651  41.439  14.439
68953W        W37171  24.365  13.365  10.684
68954W        W37172  16.846  27.069  11.224
68955W        W37173  18.071  13.897   2.173
68956W        W37174  17.365  11.075   1.310
68957W        W37175  15.737  31.375   4.570
68958W        W37176  18.040  25.517   2.424
68959W        W37177  35.671  15.965  12.953
68960W        W37178   5.681  41.823  11.268
68961W        W37179   2.435   1.384  10.650
68962W        W37180  21.329  19.298   3.626
68963W        W37181  39.922  14.313   3.848
68964W        W37182  20.328  30.047  13.327
68965W        W37183   9.298  39.826   1.321
68966W        W37184   6.261  35.666  14.224
68967W        W37185  29.619   9.320   2.870
68968W        W37186  11.933  19.997   0.827
68969W        W37187  32.637  29.105   2.858
68970W        W37188   4.815  42.438   5.055
68971W        W37189  28.185   7.255   0.266
68972W        W37190  40.904  30.909  12.924
68973W        W37191   5.941  43.544  13.316
68974W        W37192  30.542  32.469  11.158
68975W        W37193  25.037  33.471  14.044
68976W        W37194  37.829   8.104   1.719
68977W        W37195   1.057   0.092   0.044
68978W        W37196   3.794   2.386  11.000
68979W        W37197  13.195  13.161  13.876
68980W        W37198  34.601  25.072   3.812
68981W        W37199  11.216  44.966   4.150
68982W        W37200  25.528  30.440   2.419
68983W        W37201  30.726  20.158  12.568
68984W        W37202   3.028  33.573   0.979
68985W        W37203  33.689  30.373   4.266
68986W        W37204  34.526  11.538   1.409
68987W        W37205  41.262  15.065  11.684
68988W        W37206   5.673  25.309   3.221
68989W        W37207  30.078  19.497  13.973
68990W        W37208   9.300  19.475  12.110
68991W        W37209   9.417  31.394   3.829
68992W        W37210  39.313   3.987  14.419
68993W        W37211  14.761  13.772  11.878
68994W        W37212   4.049  23.691  13.905
68995W        W37213  17.691  43.809   1.376
68996W        W37214  18.017  22.684  14.736
68997W        W37215  30.898  32.567  12.919
68998W        W37216  18.304   9.100  14.794
68999W        W37217  36.807  30.495   1.139
69000W        W37218  39.928  20.975   3.670
69001W        W37219   5.380  27.167  14.333
69002W        W37220  33.540  35.458  14.855
69003W        W37221  33.814   4.227   2.026
69004W        W37222  31.893  30.529  10.744
69005W        W37223  41.822  12.360   0.767
69006W        W37224   9.462  32.903   4.498
69007W        W37225   5.182  29.453  13.806
69008W        W37226  42.785  16.203  12.381
69009W        W37227  34.548  22.047   4.226
69010W        W37228   3.865  30.052  14.797
69011W        W37229   0.981   1.950   9.846
69012W        W37230  10.424  12.707  11.902
69013W        W37231   8.896  41.880  11.481
69014W        W37232  10.319  15.602  14.380
69015W        W37233  19.519  41.063  12.920
69016W        W37234  41.288  15.249   1.925
69017W        W37235   9.900  34.497   0.272
69018W        W37236   9.205   1.360   2.262
69019W        W37237   4.754   1.864   1.708
69020W        W37238   4.248  22.604   0.669
69021W        W37239  22.747  17.201   4.545
69022W        W37240  12.095  18.018   4.538
69023W        W37241   8.211  25.069   4.086
69024W        W37242   8.488   4.264  13.418
69025W        W37243   6.128  40.568  10.994
69026W        W37244  42.243  34.658  12.989
69027W        W37245  12.799  42.478  14.232
69028W        W37246  11.709  19.551  10.692
69029W        W37247  20.039  16.245  11.551
69030W        W37248  39.310  32.390  14.007
69031W        W37249  25.105  24.174  14.518
69032W        W37250   5.377  11.629  11.001
69033W        W37251  35.432  37.007   1.836
69034W        W37252   4.661  24.673   1.791
69035W        W37253  17.019  36.977   1.763
69036W        W37254   0.507  19.058   2.568
69037W        W37255  34.791  18.539  12.044
69038W        W37256  18.653   5.937  10.741
69039W        W37257   6.928  15.826  14.370
69040W        W37258  39.521  25.649   2.129
69041W        W37259  17.640  41.355  12.605
69042W        W37260  26.131  25.157   1.928
69043W        W37261  24.098  44.625  14.833
69044W        W37262   3.327  11.759  10.641
69045W        W37263  26.704  33.795  14.965
69046W        W37264  17.736  37.430  10.041
69047W        W37265  41.880  30.073   4.114
69048W        W37266  36.828  30.453  12.019
69049W        W37267  31.103  12.230   4.998
69050W        W37268  15.840  43.521  12.493
69051W        W37269   4.445   4.815  13.217
69052W        W37270  30.656  12.247   0.383
69053W        W37271  44.891  25.664  13.792
69054W        W37272  11.186  16.444   4.017
69055W        W37273  10.696  34.128  14.506
69056W        W37274  42.140  18.147   4.859
69057W        W37275  23.679  22.505   4.863
69058W        W37276  13.795  41.781   0.626
69059W        W37277  27.935  18.824   1.240
69060W        W37278  13.242  43.924   4.383
69061W        W37279  29.498  16.614  14.451
69062W        W37280  38.463  18.253   4.690
69063W        W37281  16.530  14.218   1.255
69064W        W37282   2.034  41.573  14.693
69065W        W37283   9.857  20.671  12.942
69066W        W37284  28.675  20.093   2.775
69067W        W37285  16.576  10.730  14.337
69068W        W37286  11.830  34.068  12.413
69069W        W37287  22.220  39.782   4.366
69070W        W37288  19.331  22.409  14.619
69071W        W37289  24.701  19.364   1.052
69072W        W37290  40.798  14.367   3.780
69073W        W37291  43.012  27.923   4.234
69074W        W37292  44.085   2.244  14.345
69075W        W37293  21.494   3.981   3.691
69076W        W37294  12.589  29.706  13.866
69077W        W37295  20.201  35.141  14.924
69078W        W37296  20.611  36.779   2.787
69079W        W37297  26.585  11.377   3.047
69080W        W37298  24.489  11.777  12.882
69081W        W37299  32.083  13.142  12.056
69082W        W37300  34.325  37.674  10.831
69083W        W37301  30.566  32.431  10.636
69084W        W37302  19.552   5.643  10.458
69085W        W37303   3.955  10.609  11.831
69086W        W37304   0.788  30.420  13.548
69087W        W37305  39.613   2.427  11.936
69088W        W37306  43.396   0.868  13.298
69089W        W37307   7.862  27.966   1.825
69090W        W37308   4.159   3.708   1.856
69091W        W37309  24.422  37.947   2.914
69092W        W37310  14.724  11.168   0.329
69093W        W37311  27.590  27.065  14.918
69094W        W37312  23.205  19.040  13.437
69095W        W37313   5.933  22.460   1.354
69096W        W37314  11.110  27.197   0.736
69097W        W37315  28.372  36.417   4.475
69098W        W37316   6.751   9.692  10.680
69099W        W37317   5.206   6.122   3.369
69100W        W37318  24.609  37.225   0.167
69101W        W37319  18.035   2.235  12.708
69102W        W37320   1.557   5.752   1.682
69103W        W37321  18.710  28.536   0.323
69104W        W37322   9.587  39.364  10.591
69105W        W37323  41.614   2.505   5.030
69106W        W37324  37.637  37.046   4.886
69107W        W37325  25.326   5.794  14.441
69108W        W37326  13.915  30.429  11.170
69109W        W37327  34.142   3.957   1.737
69110W        W37328  16.334  25.635   0.720
69111W        W37329   4.266  25.589  13.877
69112W        W37330  26.021   9.146  12.249
69113W        W37331  20.594  19.900  14.560
69114W        W37332  16.854  25.512   2.917
69115W        W37333  26.282  44.968   0.514
69116W        W37334  26.125  10.159   3.320
69117W        W37335   2.973   1.858  11.160
69118W        W37336  13.489  38.432   1.489
69119W        W37337  18.077  33.471   2.176
69120W        W37338  24.697  14.210   4.510
69121W        W37339  19.703  22.009   2.790
69122W        W37340  31.567   4.387  10.825
69123W        W37341  43.180  26.092  14.021
69124W        W37342  23.462   5.276  11.700
69125W        W37343  23.653  15.680   0.450
69126W        W37344  42.857  12.999   5.234
69127W        W37345  43.444  14.888  13.985
69128W        W37346  39.634  33.643  11.612
69129W        W37347   6.404   5.817   1.650
69130W        W37348  34.110  33.097   1.218
69131W        W37349  33.533  28.952   2.792
69132W        W37350  13.161  20.932   0.898
69133W        W37351  31.358  24.625   2.324
69134W        W37352  11.204   9.810  11.164
69135W        W37353  29.525  14.578   5.045
69136W        W37354  38.962  23.697   3.314
69137W        W37355  10.112  23.298   2.331
69138W        W37356  18.593  30.071   4.727
69139W        W37357  21.339  33.643   4.740
69140W        W37358   4.623  28.659   0.899
69141W        W37359   3.887  43.502   4.684
69142W        W37360   9.671  26.441   1.792
69143W        W37361  40.104  44.774  12.427
69144W        W37362  17.239  15.672   1.956
69145W        W37363  21.160  27.923  12.477
69146W        W37364  36.162  37.449   3.092
69147W        W37365  19.497  31.492  14.998
69148W        W37366  19.005  23.449   4.608
69149W        W37367  30.163   8.929   0.676
69150W        W37368  32.037   9.186   3.089
69151W        W37369  10.638  20.503  12.099
69152W        W37370  38.446   2.479  14.371
69153W        W37371  15.834  44.981   0.440
69154W        W37372  23.067  39.677  11.520
69155W        W37373  30.372  33.887  11.984
69156W        W37374  25.435  22.781  10.867
69157W        W37375   8.249  17.052   4.465
69158W        W37376  42.426  33.822  13.942
69159W        W37377  30.740  31.444  11.036
69160W        W37378  26.501  30.424  13.368
69161W        W37379  44.096  40.256   3.750
69162W        W37380   6.351   4.510  11.551
69163W        W37381  20.925  42.561  12.096
69164W        W37382  19.225  23.108   0.826
69165W        W37383   9.934  18.162   3.035
69166W        W37384  41.313  24.162   2.870
69167W        W37385  34.816   7.169  14.268
69168W        W37386   3.241  11.553   1.874
69169W        W37387  18.547  41.054   1.747
69170W        W37388   6.887  21.352   4.993
69171W        W37389   9.096  27.639   2.890
69172W        W37390   0.875  33.500   4.542
69173W        W37391  21.640  41.276  10.745
69174W        W37392  28.881  20.173  14.294
69175W        W37393  29.679  22.985  10.987
69176W        W37394  44.855   8.935   3.703
69177W        W37395  12.421   2.166  11.197
69178W        W37396   8.322  28.739  10.710
69179W        W37397  33.615   4.688   3.333
69180W        W37398  11.348  36.142   4.659
69181W        W37399   0.797  38.583   2.827
69182W        W37400  12.314   5.263   4.606
69183W        W37401  23.784   2.972  13.113
69184W        W37402  40.991   9.330   4.199
69185W        W37403  32.142  28.759  11.048
69186W        W37404   4.413  25.689  14.789
69187W        W37405   9.809  33.083   2.285
69188W        W37406  26.760  34.309   0.863
69189W        W37407  10.694  24.964  10.580
69190W        W37408   6.708  21.964   1.345
69191W        W37409  10.033  34.384   2.076
69192W        W37410  37.514  18.713  11.586
69193W        W37411  30.158  35.435  12.377
69194W        W37412  15.736  32.832  14.714
69195W        W37413   6.249  32.973  14.051
69196W        W37414  34.372  21.555   4.271
69197W        W37415  21.333   0.995   4.637
69198W        W37416  35.499  31.401  11.247
69199W        W37417  43.841   1.966   1.536
69200W        W37418  13.914  13.414  13.092
69201W        W37419  14.022   1.481   2.751
69202W        W37420  23.990  36.054   4.083
69203W        W37421  36.859  39.595  14.903
69204W        W37422   8.655  28.170  13.483
69205W        W37423  16.747  21.052   4.600
69206W        W37424   5.801  17.663  11.092
69207W        W37425  12.174  30.471   2.810
69208W        W37426  12.809  24.052  14.468
69209W        W37427   9.180  37.445   3.365
69210W        W37428  22.113  40.876  13.451
69211W        W37429  40.747  10.343   3.704
69212W        W37430   5.345  17.121   5.040
69213W        W37431  12.680   8.632  13.366
69214W        W37432  40.704  41.572  10.866
69215W        W37433  34.096  38.376   1.763
69216W        W37434  22.259  25.903  14.524
69217W        W37435   4.985   0.554   1.751
69218W        W37436   5.952  13.489   1.458
69219W        W37437  17.259  40.605  10.525
69220W        W37438  28.614  26.041  13.851
69221W        W37439  19.801  22.706   4.106
69222W        W37440   8.964  20.324   5.552
69223W        W37441  33.351   9.126  13.405
69224W        W37442  39.962  30.426   4.626
69225W        W37443  37.313  38.537   3.794
69226W        W37444  30.513  36.362   1.478
69227W        W37445  20.801  44.463  14.855
69228W        W37446  10.855   5.791  11.651
69229W        W37447  44.730  34.509   2.352
69230W        W37448  41.527   2.971   4.264
69231W        W37449  29.136  42.009  11.336
69232W        W37450  35.885   2.849   2.339
69233W        W37451  33.550  40.872   3.679
69234W        W37452   9.393   3.617  13.349
69235W        W37453   7.279  32.565   4.589
69236W        W37454  31.880  12.593   2.222
69237W        W37455  10.385  11.199   2.049
69238W        W37456  22.994   8.707  10.848
69239W        W37457  13.711  11.865   0.452
69240W        W37458   2.622  22.364   0.720
69241W        W37459  31.037  30.431   3.230
69242W        W37460  36.549  21.132   2.173
69243W        W37461  12.592  31.007  13.337
69244W        W37462  11.980  40.446  11.773
69245W        W37463  37.455  24.165   4.576
69246W        W37464  15.905  28.822   3.030
69247W        W37465  35.566  41.950  10.552
69248W        W37466  10.665  10.329  10.622
69249W        W37467  39.369   5.193  13.992
69250W        W37468  12.459   0.939   3.641
69251W        W37469  11.819  28.161   4.406
69252W        W37470   3.374  12.854   2.450
69253W        W37471  29.256   3.001   1.447
69254W        W37472   8.183  22.809   1.351
69255W        W37473  41.320  21.690   4.153
69256W        W37474  41.549  44.649   1.244
69257W        W37475  38.671  11.734  14.964
69258W        W37476  37.273  36.629   2.862
69259W        W37477   0.084  26.125   3.890
69260W        W37478  43.359  29.588  14.844
69261W        W37479   8.332   1.785   4.780
69262W        W37480  15.754  32.956   3.872
69263W        W37481   0.775  16.585   2.921
69264W        W37482  23.575  43.702  12.489
69265W        W37483   8.280   1.517  13.458
69266W        W37484  41.271  40.190   4.645
69267W        W37485  16.755  11.250  13.460
69268W        W37486  22.625  36.639  13.548
69269W        W37487   7.405   2.731  14.748
69270W        W37488   5.397  37.085   2.089
69271W        W37489  16.048   9.136  11.290
69272W        W37490  29.533  22.679   3.109
69273W        W37491  26.352   6.503   3.957
69274W        W37492   8.198  13.896   0.166
69275W        W37493  16.304  17.663   2.353
69276W        W37494  34.876  34.056   0.844
69277W        W37495  14.868  17.823   9.766
69278W        W37496  32.441  25.478  14.795
69279W        W37497  10.364  21.494  13.491
69280W        W37498  10.712  11.244  10.681
69281W        W37499  38.211  21.783   4.019
69282W        W37500  21.654  22.248  13.467
69283W        W37501  25.388  43.904  11.017
69284W        W37502   3.802  38.415   1.111
69285W        W37503  37.499  40.726   1.292
69286W        W37504  21.310   3.685  13.426
69287W        W37505   6.382  32.408  14.954
69288W        W37506  41.486  38.949  14.912
69289W        W37507  37.131  30.021   1.879
69290W        W37508  18.734  35.995  14.761
69291W        W37509  18.118  30.657  10.599
69292W        W37510  27.476  37.984   1.778
69293W        W37511  33.914  33.020  14.755
69294W        W37512  20.715  39.485   2.685
69295W        W37513  41.620   6.055  10.538
69296W        W37514   3.877  24.651   2.339
69297W        W37515  41.933  31.162  13.013
69298W        W37516  18.323  36.344   2.745
69299W        W37517  14.840  21.945  12.372
69300W        W37518  42.546  19.809  11.589
69301W        W37519  33.847  43.465  10.781
69302W        W37520   3.346  10.799   0.705
69303W        W37521  41.320  15.282  13.023
69304W        W37522  19.051  21.538   3.614
69305W        W37523   5.907   3.378   1.259
69306W        W37524  22.709  18.860  10.038
69307W        W37525  36.591  10.245  12.893
69308W        W37526  22.530   2.556  10.728
69309W        W37527  19.230  30.849   3.798
69310W        W37528  11.165   8.660  11.664
69311W        W37529   2.030  30.079  10.717
69312W        W37530  36.991  30.117   0.780
69313W        W37531  20.108  36.634   3.764
69314W        W37532   2.762  30.205   3.411
69315W        W37533  31.346  13.217  11.455
69316W        W37534  36.948  31.655  12.630
69317W        W37535   8.915  26.437   3.104
69318W        W37536  21.150  33.347  10.317
69319W        W37537  35.896  33.335   2.610
69320W        W37538  30.446  33.535  11.556
69321W        W37539  22.578  26.614  11.995
69322W        W37540  40.312  33.156   4.112
69323W        W37541  26.031   8.594   1.682
69324W        W37542  40.601  32.893  12.402
69325W        W37543  15.216  42.083   4.869
69326W        W37544  20.049  38.591  13.309
69327W        W37545  37.457  26.889  10.642
69328W        W37546  35.516   2.809  12.178
69329W        W37547   9.245  12.304   3.151
69330W        W37548  33.566  31.749  13.618
69331W        W37549  13.335  29.070   4.510
69332W        W37550  31.843  14.716   3.772
69333W        W37551  25.668  28.900   0.572
69334W        W37552  41.534  23.329   4.653
69335W        W37553   9.363   5.471   2.202
69336W        W37554  19.549   7.876  11.181
69337W        W37555  31.908  34.085   0.926
69338W        W37556   0.296  35.118  13.382
69339W        W37557  23.212  38.049  12.435
69340W        W37558   4.320  34.075   2.972
69341W        W37559   8.147   0.243  12.342
69342W        W37560   3.446  35.401  14.992
69343W        W37561   2.387   4.833  14.962
69344W        W37562  18.789  15.315   0.858
69345W        W37563  23.067  10.358  12.834
69346W        W37564  33.418  37.206  11.937
69347W        W37565  36.152  26.590   0.486
69348W        W37566  40.879  33.346  14.031
69349W        W37567  41.431  40.913   4.283
69350W        W37568   9.147  36.027  13.361
69351W        W37569   4.800  28.502   1.371
69352W        W37570  25.467  15.618  11.144
69353W        W37571  16.752  12.222  11.489
69354W        W37572  15.290  40.991   3.397
69355W        W37573  12.527   5.081  10.753
69356W        W37574  24.057   3.985  13.501
69357W        W37575  18.747  31.031   3.852
69358W        W37576   3.338  36.358   0.998
69359W        W37577   6.253  41.642   1.195
69360W        W37578  39.014  12.178   2.303
69361W        W37579  14.716   0.179  10.345
69362W        W37580  27.147   8.232   1.756
69363W        W37581  12.966   1.921   3.107
69364W        W37582   7.395  22.097  11.926
69365W        W37583   1.336  38.182   4.019
69366W        W37584  20.270  22.591  12.565
69367W        W37585  10.117  41.441  13.813
69368W        W37586   3.717  38.896  10.253
69369W        W37587  20.176  12.632   5.080
69370W        W37588  36.625  25.260   2.381
69371W        W37589  29.634  14.207  12.870
69372W        W37590  10.320  27.710   0.291
69373W        W37591   3.061   8.214   4.087
69374W        W37592  30.427  18.231   4.082
69375W        W37593  27.164   7.205   0.418
69376W        W37594   8.328  27.211   1.799
69377W        W37595  36.807  19.603   4.576
69378W        W37596  10.572  23.911  11.477
69379W        W37597   9.795  10.213   3.650
69380W        W37598  27.882  10.223   4.583
69381W        W37599  37.987  40.049  12.132
69382W        W37600  29.699   5.801   4.580
69383W        W37601  10.386  28.326  11.599
69384W        W37602  26.017  26.769  12.897
69385W        W37603   7.722   2.324  13.440
69386W        W37604  10.085   1.307  10.766
69387W        W37605  18.065  44.134   1.815
69388W        W37606  27.673  40.997  10.703
69389W        W37607  24.639  41.391  11.239
69390W        W37608  15.770   7.765   2.759
69391W        W37609  31.113   2.054   5.288
69392W        W37610   0.721  21.064  14.912
69393W        W37611  19.922  38.143  14.083
69394W        W37612  39.573  41.162  12.693
69395W        W37613  11.804  24.719  12.377
69396W        W37614  44.614  32.221  14.925
69397W        W37615   2.360   3.511   2.832
69398W        W37616  28.393   8.666  10.662
69399W        W37617   8.599  10.648   2.647
69400W        W37618  31.901  29.550   2.691
69401W        W37619  36.132  43.993   0.035
69402W        W37620  18.375  16.851  12.120
69403W        W37621   2.218  38.420   2.133
69404W        W37622  20.290   4.308   0.616
69405W        W37623   2.521  41.522  13.811
69406W        W37624   0.425   3.489  14.899
69407W        W37625   4.278  31.622  12.596
69408W        W37626   6.997   4.220  11.114
69409W        W37627  11.086  22.530  11.103
69410W        W37628  12.027   2.621   4.238
69411W        W37629  26.107   0.073  12.062
69412W        W37630  38.606  28.625   0.831
69413W        W37631   4.301  11.606   3.878
69414W        W37632  35.437  22.109  14.099
69415W        W37633  12.525   8.652   3.159
69416W        W37634  29.439  41.518   0.018
69417W        W37635  30.045  43.823  13.429
69418W        W37636  17.019   1.486   4.642
69419W        W37637  15.212  38.808   1.275
69420W        W37638  11.868  33.526  12.478
69421W        W37639  36.850   9.148   1.167
69422W        W37640  39.410   4.186  10.724
69423W        W37641  41.885  36.348  12.466
69424W        W37642   1.291  34.860  10.366
69425W        W37643  21.107  21.084  10.184
69426W        W37644   1.935  18.796   3.900
69427W        W37645  38.997  41.803   1.335
69428W        W37646  36.618  16.940   3.333
69429W        W37647   6.046  28.189   4.505
69430W        W37648  38.535  41.567  12.477
69431W        W37649  33.603   5.396   4.596
69432W        W37650   0.492   1.569   0.867
69433W        W37651  41.336  27.467   0.920
69434W        W37652  43.851  10.167   2.336
69435W        W37653  32.822  27.660  11.172
69436W        W37654  23.143  11.296   1.444
69437W        W37655  10.648  24.959  13.868
69438W        W37656   0.546  41.869  10.890
69439W        W37657  44.383  43.744  12.923
69440W        W37658  22.901  38.989  13.308
69441W        W37659  25.076   0.840  11.650
69442W        W37660   8.875  35.852   2.672
69443W        W37661  25.500   3.847   2.174
69444W        W37662  39.786  19.179   4.058
69445W        W37663  16.633   1.567   5.386
69446W        W37664  23.994   3.640   3.733
69447W        W37665  11.172  25.996  14.939
69448W        W37666   4.737  41.713  14.931
69449W        W37667  23.148  29.438  13.003
69450W        W37668  30.424  37.749   0.441
69451W        W37669  10.842  43.321   1.425
69452W        W37670  16.848  20.120  11.371
69453W        W37671   9.699  15.010   1.299
69454W        W37672  17.779  39.034   1.407
69455W        W37673  27.014  23.060  12.941
69456W        W37674  28.643  41.941  11.475
69457W        W37675   5.040   1.362  14.340
69458W        W37676  18.348  37.600  13.046
69459W        W37677  37.750  14.749  13.657
69460W        W37678  17.567  25.104   0.037
69461W        W37679  30.912  25.996  11.235
69462W        W37680  39.875  22.677   0.122
69463W        W37681   1.373  18.783   2.085
69464W        W37682  17.277  33.238   2.699
69465W        W37683   4.458  21.212  13.775
69466W        W37684  12.144  38.800   4.140
69467W        W37685   6.714   7.266  13.335
69468W        W37686  27.019  26.143   0.446
69469W        W37687  35.828  23.658   1.846
69470W        W37688   1.267  26.637   2.746
69471W        W37689  12.102  33.559  14.851
69472W        W37690  24.113  16.230   0.810
69473W        W37691  19.107   8.490  13.159
69474W        W37692  43.299  21.079  14.276
69475W        W37693   2.824  22.919  13.902
69476W        W37694   6.780  21.012   4.013
69477W        W37695   6.722   9.683   3.313
69478W        W37696  21.617   8.898   2.669
69479W        W37697  26.051  38.790  10.863
69480W        W37698   4.844  32.834  12.879
69481W        W37699  37.252   9.587   1.900
69482W        W37700   4.696  11.358  13.998
69483W        W37701  36.438   0.873   0.947
69484W        W37702   0.059  24.729   0.968
69485W        W37703  35.493  41.721  12.526
69486W        W37704  12.611   2.200   4.989
69487W        W37705  38.393   3.371  13.822
69488W        W37706  44.523  23.252  14.538
69489W        W37707  42.120  37.972   4.097
69490W        W37708  15.541   4.761  11.563
69491W        W37709  29.604  11.886  13.560
69492W        W37710  41.260  16.554   3.086
69493W        W37711  43.537  12.930  10.665
69494W        W37712  26.802   1.531  13.069
69495W        W37713  27.022  23.413   3.187
69496W        W37714  32.586  27.147   0.287
69497W        W37715  14.729   2.834  14.719
69498W        W37716  23.576   3.290   1.752
69499W        W37717   6.946  18.268   0.306
69500W        W37718  24.656  42.150   2.360
69501W        W37719  10.819  37.506  11.846
69502W        W37720  30.447  37.575  11.261
69503W        W37721  19.783  37.426   0.434
69504W        W37722  30.713   8.720  12.544
69505W        W37723   6.310  34.600   1.226
69506W        W37724  39.955   4.212   0.418
69507W        W37725  42.566   7.379  12.025
69508W        W37726  14.610  15.039   0.093
69509W        W37727  35.160  26.711   0.330
69510W        W37728   4.514   0.231  13.066
69511W        W37729   2.349   3.667   1.362
69512W        W37730  35.136  21.286   4.583
69513W        W37731   5.247  44.049   2.729
69514W        W37732  11.359  34.896  11.252
69515W        W37733  33.738   4.880  14.809
69516W        W37734  16.685   7.676  12.935
69517W        W37735  36.537  43.234  11.545
69518W        W37736  29.724  41.465  14.577
69519W        W37737  35.654  18.233   2.786
69520W        W37738  34.848   4.338   4.194
69521W        W37739  13.948  23.783   4.218
69522W        W37740  32.036  34.010   2.660
69523W        W37741  40.830  21.002   0.960
69524W        W37742  42.467   5.168  10.554
69525W        W37743  40.343  39.401   4.185
69526W        W37744  31.448  32.472  13.610
69527W        W37745  26.107  12.253  11.867
69528W        W37746  29.032  21.445   1.284
69529W        W37747   6.842  41.849  11.817
69530W        W37748   8.217  44.505  14.896
69531W        W37749  12.217   8.555  13.621
69532W        W37750  30.197  29.460  11.877
69533W        W37751  12.274   0.918   0.817
69534W        W37752   2.305  32.650  11.760
69535W        W37753  18.156  35.133  11.343
69536W        W37754  39.741  37.614  11.038
69537W        W37755   6.679  35.332  14.937
69538W        W37756  20.437  32.159  12.449
69539W        W37757  29.060  43.953   3.640
69540W        W37758   9.414  26.652   1.369
69541W        W37759  31.217   3.396   3.663
69542W        W37760  11.307  40.575  10.592
69543W        W37761  13.630  40.990   3.311
69544W        W37762   2.028  37.013   4.719
69545W        W37763  37.384  14.820   2.617
69546W        W37764  41.842   5.909  12.129
69547W        W37765  37.617  38.826   1.770
69548W        W37766   0.956   9.836  14.416
69549W        W37767  16.675  26.616   0.872
69550W        W37768  25.750  40.510   1.887
69551W        W37769  32.696  20.034  12.478
69552W        W37770  17.469  42.562  11.207
69553W        W37771  21.579  27.962   3.894
69554W        W37772  14.295  39.065  14.245
69555W        W37773  29.486  35.076   1.785
69556W        W37774  27.147   4.394  14.976
69557W        W37775  35.639  44.906   0.060
69558W        W37776  11.917  44.452   4.642
69559W        W37777  15.308   7.216  10.728
69560W        W37778  32.348  14.259  14.257
69561W        W37779  44.511   4.247   0.480
69562W        W37780   7.578   4.303  13.315
69563W        W37781  28.710  40.461   3.179
69564W        W37782  29.691  17.528  13.012
69565W        W37783  10.448  18.787  12.161
69566W        W37784  21.537  12.306  11.404
69567W        W37785  32.805  17.093  10.794
69568W        W37786  19.558  22.896   1.767
69569W        W37787  31.826  36.558  12.641
69570W        W37788   3.794  23.939  13.046
69571W        W37789  12.969  21.234   3.656
69572W        W37790  20.474  22.950  11.318
69573W        W37791  39.843  42.312  14.392
69574W        W37792  24.604  23.549   3.050
69575W        W37793   7.748  38.950  10.224
69576W        W37794   4.732  20.697   4.565
69577W        W37795  36.995  42.242  11.054
69578W        W37796   2.195   5.826  12.900
69579W        W37797  13.354  30.451   2.775
69580W        W37798   7.101  41.871   3.440
69581W        W37799  39.970  25.037  12.171
69582W        W37800  23.244  42.281   3.141
69583W        W37801  27.497  37.362  13.621
69584W        W37802  37.649   1.964  14.392
69585W        W37803  42.502  24.688  10.658
69586W        W37804  27.429  39.347   3.648
69587W        W37805  12.462   6.721  10.813
69588W        W37806  14.830  32.586  13.329
69589W        W37807  43.213  31.350   3.037
69590W        W37808   6.647  13.669  10.670
69591W        W37809  12.142   3.675  13.923
69592W        W37810   0.565  37.668  14.292
69593W        W37811  26.218  30.580   1.289
69594W        W37812  14.348   1.433   1.811
69595W        W37813  27.891  32.140  13.024
69596W        W37814  12.228  17.437   3.273
69597W        W37815  27.575  35.858   2.291
69598W        W37816  42.792  17.569  11.095
69599W        W37817  13.091   0.171  12.560
69600W        W37818   7.684  44.511   4.627
69601W        W37819   3.693  39.713   1.799
69602W        W37820  25.071  23.485   0.519
69603W        W37821  14.837  24.176   2.717
69604W        W37822  18.287  14.823   0.543
69605W        W37823  34.414  17.777   3.551
69606W        W37824  13.702  16.757  13.515
69607W        W37825  21.305  36.423   0.609
69608W        W37826  43.949   3.982  11.543
69609W        W37827   5.904  20.434  14.518
69610W        W37828  11.338  18.491   1.283
69611W        W37829  22.537   7.509  14.852
69612W        W37830  23.051  26.613   4.480
69613W        W37831   0.484  13.593  12.518
69614W        W37832  44.530  25.981  11.696
69615W        W37833  32.856  35.333  13.837
69616W        W37834  19.800  30.155  13.171
69617W        W37835  37.449  37.395  13.380
69618W        W37836  16.365  32.050  14.962
69619W        W37837  35.111   5.339  10.419
69620W        W37838   1.468  31.121  12.145
69621W        W37839  43.467   5.931  11.628
69622W        W37840  16.620  15.362   4.148
69623W        W37841  16.788  17.181   4.580
69624W        W37842  37.159   6.662  11.907
69625W        W37843   8.963  29.848  11.756
69626W        W37844  27.985  12.887   2.765
69627W        W37845  42.978  32.936  14.211
69628W        W37846  14.088   1.966   0.348
69629W        W37847  16.058  33.498   3.848
69630W        W37848  22.790  42.335  14.490
69631W        W37849  30.718   7.773   5.052
69632W        W37850  38.997   7.884  12.503
69633W        W37851  23.605  20.159   4.529
69634W        W37852  28.494  40.242   0.030
69635W        W37853  34.545  37.887   0.421
69636W        W37854  21.761  35.324   3.638
69637W        W37855  32.538  31.616   4.274
69638W        W37856  28.106  34.658   4.066
69639W        W37857   4.898   4.793   0.713
69640W        W37858  16.717  41.906  13.345
69641W        W37859  43.301  44.071   2.747
69642W        W37860   5.384  34.056  11.912
69643W        W37861  16.028  15.023   4.729
69644W        W37862   4.180  32.078   1.316
69645W        W37863   8.416  41.308   2.789
69646W        W37864  18.848  34.498  14.427
69647W        W37865  27.784  26.306  12.902
69648W        W37866  31.134  42.869   3.447
69649W        W37867  11.955   2.612  14.749
69650W        W37868  12.415  44.273   9.729
69651W        W37869  12.786  20.865  12.476
69652W        W37870  32.176  32.101   2.153
69653W        W37871  37.140   8.384   3.799
69654W        W37872  29.954  19.208   4.392
69655W        W37873  13.626  42.741  14.467
69656W        W37874   4.727  27.310  11.678
69657W        W37875  12.129  17.096   2.857
69658W        W37876   2.505  14.103   4.093
69659W        W37877  32.103   2.295  12.867
69660W        W37878  14.190  15.643   1.516
69661W        W37879  21.583  41.691   3.491
69662W        W37880  22.344  32.933  12.993
69663W        W37881  25.239  15.215   0.681
69664W        W37882   0.217  40.326   4.137
69665W        W37883  26.166  10.200  14.894
69666W        W37884  33.129   0.870  13.173
69667W        W37885   1.928  19.227  11.891
69668W        W37886  35.483  16.714  12.340
69669W        W37887  11.049   8.557   5.281
69670W        W37888  15.801   0.997   2.295
69671W        W37889  15.701   0.813  14.496
69672W        W37890  23.370  44.441  12.147
69673W        W37891  28.435  21.485  12.046
69674W        W37892  40.008   5.247   1.357
69675W        W37893  30.458  11.795   1.094
69676W        W37894  11.569  11.601   3.560
69677W        W37895   0.609  39.971   2.811
69678W        W37896  44.510  42.874  14.076
69679W        W37897  20.209   5.664   3.190
69680W        W37898   0.687   7.281  10.713
69681W        W37899  12.279  36.317   4.885
69682W        W37900  11.918   5.443   3.298
69683W        W37901  25.657   6.472  13.088
69684W        W37902  42.930   6.692  14.799
69685W        W37903  20.283  18.517   4.830
69686W        W37904  12.087  40.286   2.596
69687W        W37905  37.098  21.998   1.170
69688W        W37906   7.794  22.084  13.088
69689W        W37907  38.044  29.412  13.921
69690W        W37908   0.917  33.527   1.514
69691W        W37909  30.432  12.796   0.744
69692W        W37910   9.158  40.602   1.028
69693W        W37911  24.930   5.082  11.656
69694W        W37912  13.128  42.428   4.648
69695W        W37913  44.777   0.169   1.753
69696W        W37914  36.102  25.140   3.197
69697W        W37915  40.764  20.760   1.428
69698W        W37916  35.844  23.202  12.320
69699W        W37917  35.474  27.149   0.285
69700W        W37918  34.587   6.740  13.956
69701W        W37919   9.226   7.898   4.720
69702W        W37920  21.174  38.646  14.275
69703W        W37921   0.346  25.561   4.695
69704W        W37922   5.343   0.056  14.976
69705W        W37923  25.264  18.261  13.906
69706W        W37924  23.009  32.146  12.057
69707W        W37925  34.701  22.038   2.967
69708W        W37926  42.367  41.433   2.176
69709W        W37927   9.384  19.284   4.766
69710W        W37928  15.449  15.942   2.786
69711W        W37929  10.781  41.770  10.751
69712W        W37930  37.634  26.137  11.151
69713W        W37931  26.179  41.073  14.298
69714W        W37932   9.792   1.817  14.370
69715W        W37933  29.222   7.268  12.895
69716W        W37934  32.353   4.086  13.129
69717W        W37935  14.174  42.766   2.643
69718W        W37936  44.658   2.794  11.139
69719W        W37937  37.926  39.596   2.729
69720W        W37938   2.232   9.336  11.174
69721W        W37939  24.533  21.121   2.011
69722W        W37940  38.831   5.368   4.605
69723W        W37941   3.227  12.861  14.018
69724W        W37942   2.342  29.007  12.820
69725W        W37943  27.020  23.664  13.915
69726W        W37944  40.512  12.340   4.132
69727W        W37945  37.313  14.388   0.484
69728W        W37946   8.409  33.326  13.074
69729W        W37947  30.973  37.856   4.838
69730W        W37948   7.858  30.166   3.617
69731W        W37949  35.425   4.156  12.095
69732W        W37950  21.236  39.905   0.722
69733W        W37951  10.301  11.550   4.147
69734W        W37952  16.516  10.272  14.564
69735W        W37953  37.800   2.029   0.269
69736W        W37954  23.283  28.244   0.282
69737W        W37955  37.264  20.003  11.864
69738W        W37956  24.001  24.811   3.345
69739W        W37957   1.710  22.191   3.614
69740W        W37958  32.838  38.058   2.508
69741W        W37959  28.247  42.911  12.946
69742W        W37960   6.442  15.219  13.577
69743W        W37961  10.376  13.273   5.261
69744W        W37962  38.807  30.628   0.709
69745W        W37963   7.765   6.241  10.647
69746W        W37964  33.777   5.271   2.710
69747W        W37965  33.726  12.720  11.644
69748W        W37966  33.369  11.798   1.798
69749W        W37967  17.052  41.445  11.740
69750W        W37968   1.173  19.722   1.334
69751W        W37969   2.292  29.176   0.684
69752W        W37970  17.095  18.954   0.883
69753W        W37971  32.340  44.487   1.186
69754W        W37972  17.261  14.029  13.459
69755W        W37973   4.282  12.378   1.754
69756W        W37974   0.257  18.175  11.515
69757W        W37975  14.254  21.192  12.673
69758W        W37976   3.309  19.202  11.423
69759W        W37977  34.538   8.212   0.349
69760W        W37978  26.240  26.768   1.408
69761W        W37979  34.629  35.868  12.993
69762W        W37980  19.717  44.318  11.221
69763W        W37981   7.237   6.763   1.807
69764W        W37982  20.239  44.123  10.038
69765W        W37983  30.848  44.811  12.437
69766W        W37984  22.616  20.246  13.870
69767W        W37985  12.140  21.547   2.149
69768W        W37986   1.276   3.582   3.839
69769W        W37987  39.050  44.400  14.897
69770W        W37988   8.837  24.581  10.835
69771W        W37989  14.397  41.153   2.776
69772W        W37990  14.015  24.616   4.932
69773W        W37991  16.011  31.160   3.834
69774W        W37992   6.886  13.385  11.493
69775W        W37993  43.953  20.626  13.458
69776W        W37994  37.920  19.655   2.310
69777W        W37995  21.283  40.769   2.312
69778W        W37996   3.724  36.302   1.826
69779W        W37997  15.242  40.280  12.615
69780W        W37998  31.534  44.060  13.474
69781W        W37999  10.110   4.273   1.793
69782W        W38000   5.980  20.704   4.283
69783W        W38001  44.673  26.000  10.458
69784W        W38002   8.292  11.605   3.745
69785W        W38003  34.453  33.865   4.567
69786W        W38004  41.065  36.990   2.875
69787W        W38005  41.560  15.239   1.184
69788W        W38006  17.827  11.787   4.723
69789W        W38007  33.609  12.773  13.194
69790W        W38008  25.518  33.029  14.883
69791W        W38009  31.565  20.733  11.473
69792W        W38010  19.056  11.550   1.379
69793W        W38011  13.781   9.669   4.779
69794W        W38012  13.533  29.439  10.495
69795W        W38013  14.267   0.379   0.399
69796W        W38014  13.890  16.484  10.976
69797W        W38015  36.341  26.072  14.855
69798W        W38016  32.946  37.552  12.696
69799W        W38017  15.327  10.651   1.669
69800W        W38018   9.216   0.249   1.246
69801W        W38019  20.025  35.485  13.550
69802W        W38020  21.098  14.610  11.973
69803W        W38021  23.536   6.409   4.689
69804W        W38022  44.401   5.414   1.191
69805W        W38023  32.500   5.287   0.910
69806W        W38024  22.281  33.632   4.702
69807W        W38025  30.413   1.167  12.462
69808W        W38026   9.382   5.019  12.996
69809W        W38027  38.520   8.388  11.973
69810W        W38028  10.862  27.068   0.011
69811W        W38029  26.209   2.356   3.319
69812W        W38030  25.281  31.469   3.285
69813W        W38031  37.941  29.410  11.413
69814W        W38032   7.860  16.330   0.755
69815W        W38033  25.491  32.872   0.377
69816W        W38034  30.675  28.379  14.660
69817W        W38035   5.473  36.064   2.766
69818W        W38036  12.182  44.998   0.755
69819W        W38037   8.110  29.836   3.348
69820W        W38038  27.592  35.761   4.422
69821W        W38039  19.051  39.439  13.388
69822W        W38040  33.914  29.963   1.727
69823W        W38041  40.753  21.144   0.447
69824W        W38042  36.973  15.217   2.270
69825W        W38043  26.689  38.703  14.395
69826W        W38044  35.499  44.392   4.436
69827W        W38045   9.456  18.464  13.331
69828W        W38046  12.659  37.671  10.391
69829W        W38047  24.030   7.220  14.833
69830W        W38048  28.814   2.185  11.436
69831W        W38049  25.334  14.078   0.807
69832W        W38050  20.094  26.936   1.348
69833W        W38051   2.613   0.248   0.268
69834W        W38052  18.436  19.846   3.502
69835W        W38053   2.090  33.353   3.558
69836W        W38054   4.855  33.078   0.319
69837W        W38055  10.553  16.299   0.828
69838W        W38056   6.824  22.503  11.439
69839W        W38057  43.770   4.134  11.083
69840W        W38058  38.226  21.055  11.217
69841W        W38059  41.531  34.947   3.790
69842W        W38060   5.190   6.168   1.276
69843W        W38061  18.647  33.935  14.359
69844W        W38062  12.291  41.577  12.646
69845W        W38063  10.306  43.014  10.519
69846W        W38064   0.735  34.255  13.731
69847W        W38065  36.486  26.641   4.493
69848W        W38066   1.783  17.519   2.285
69849W        W38067  27.109  16.740  11.943
69850W        W38068   4.752   9.264  11.916
69851W        W38069   1.390  42.002  13.512
69852W        W38070   7.424  39.979  14.169
69853W        W38071  37.508  24.231  14.160
69854W        W38072   1.044  12.163  12.511
69855W        W38073  29.583  32.616  11.246
69856W        W38074  42.199  43.405   2.623
69857W        W38075  23.844  22.865  11.592
69858W        W38076  37.882  14.702   3.978
69859W        W38077  42.683   5.682   0.446
69860W        W38078   6.458  43.832  14.993
69861W        W38079  13.391   3.369   2.252
69862W        W38080   0.767  22.320  11.935
69863W        W38081  13.924  10.189   4.707
69864W        W38082  14.751  14.320  12.794
69865W        W38083  36.369   5.414   3.640
69866W        W38084  36.649  19.778   0.877
69867W        W38085  11.693  35.573  13.889
69868W        W38086   2.546  10.616   0.259
69869W        W38087  34.169  30.963   0.703
69870W        W38088   7.206  24.547   1.755
69871W        W38089  15.915  15.095  13.843
69872W        W38090  27.644   3.207   3.679
69873W        W38091   5.520  19.577   3.746
69874W        W38092  20.002  33.888   0.034
69875W        W38093  18.876  33.457   3.788
69876W        W38094  30.864  24.590  14.211
69877W        W38095   0.191  25.558  12.326
69878W        W38096  28.894  16.628   0.750
69879W        W38097  16.570  33.416   1.794
69880W        W38098   0.711  36.749   4.023
69881W        W38099  15.889   2.995   0.675
69882W        W38100   6.286  16.581  14.646
69883W        W38101   6.312  15.118   1.833
69884W        W38102   2.087  22.435  10.650
69885W        W38103  30.624  24.657  14.833
69886W        W38104  23.182  21.707   0.316
69887W        W38105  12.372  22.057   3.229
69888W        W38106  25.433  42.882  12.053
69889W        W38107  38.763   7.211  14.535
69890W        W38108  19.174  10.967  11.507
69891W        W38109   0.362  26.423  11.367
69892W        W38110  22.724  14.343   0.582
69893W        W38111   8.574  28.881   1.806
69894W        W38112  22.993   9.969   4.084
69895W        W38113  32.643   4.756   4.107
69896W        W38114  22.826   9.155  14.408
69897W        W38115   6.466  36.057   2.697
69898W        W38116  25.260   1.241   3.540
69899W        W38117   0.206   4.883   0.393
69900W        W38118  16.649  37.046   3.627
69901W        W38119  21.953  39.759  10.675
69902W        W38120  14.368  40.388  12.834
69903W        W38121  30.660  24.212  14.516
69904W        W38122  41.281   8.101   4.278
69905W        W38123  31.335  13.752  12.057
69906W        W38124  11.813   0.950   1.231
69907W        W38125   4.958  38.990   4.203
69908W        W38126  35.431   5.261   2.807
69909W        W38127   0.416   6.893   4.200
69910W        W38128  14.859  40.646   0.087
69911W        W38129  43.466  25.907   0.479
69912W        W38130  20.546  20.775   4.004
69913W        W38131  35.506  13.244   0.768
69914W        W38132  34.841  39.950  12.229
69915W        W38133   1.383  12.614   3.076
69916W        W38134   2.030   7.391  12.466
69917W        W38135   5.761  17.760  14.295
69918W        W38136  36.547   0.992  10.827
69919W        W38137  42.596  40.105  12.424
69920W        W38138  41.216  17.308   4.154
69921W        W38139  33.429  31.266   4.137
69922W        W38140  44.132  16.142  14.822
69923W        W38141  17.288  43.121  12.077
69924W        W38142   8.615   6.601  14.361
69925W        W38143  17.786   3.258   1.197
69926W        W38144  21.266   0.352  13.905
69927W        W38145  34.611   4.441  12.526
69928W        W38146   6.339  13.887  13.978
69929W        W38147   3.179  26.831  12.020
69930W        W38148  36.486  28.231   4.835
69931W        W38149  10.726  30.178   1.860
69932W        W38150   0.500  27.110   3.069
69933W        W38151  27.003  21.803  10.594
69934W        W38152  40.243  37.434   4.181
69935W        W38153   7.215   7.726   4.446
69936W        W38154   4.641  15.745   0.011
69937W        W38155   0.941  32.151   0.319
69938W        W38156  31.191   0.019  13.802
69939W        W38157  36.133  19.284  10.649
69940W        W38158  11.801  25.661  10.663
69941W        W38159   4.371   5.427  14.540
69942W        W38160  25.204  17.518  11.187
69943W        W38161   7.729  33.580   0.066
69944W        W38162  35.311   8.706   5.070
69945W        W38163  12.654  34.139  11.498
69946W        W38164  32.441  14.684  13.961
69947W        W38165  37.012   3.039   4.130
69948W        W38166  29.421  27.134  14.941
69949W        W38167   2.981  12.873   0.836
69950W        W38168  16.807  13.222   3.329
69951W        W38169  42.337  19.719   1.878
69952W        W38170   0.856  25.100  11.948
69953W        W38171  21.663   5.951  13.901
69954W        W38172  26.521  14.043   1.326
69955W        W38173  16.096  34.328  13.495
69956W        W38174  42.263  22.719   0.918
69957W        W38175  35.420   7.894  14.966
69958W        W38176  12.443  19.334   3.551
69959W        W38177  34.860  36.741  13.228
69960W        W38178   4.980  24.629  11.643
69961W        W38179   4.728  26.941  14.904
69962W        W38180   2.005  31.648  13.852
69963W        W38181  11.300  11.642   0.866
69964W        W38182  24.797   0.129   0.283
69965W        W38183  40.864  23.298   1.497
69966W        W38184  14.724  24.994  11.434
69967W        W38185  34.058  22.826   4.095
69968W        W38186  22.074  14.310  11.048
69969W        W38187  12.160   2.953  11.467
69970W        W38188  15.205  31.177  14.959
69971W        W38189  18.050  40.314  12.938
69972W        W38190   5.365  13.760   0.811
69973W        W38191  37.217   0.302   5.046
69974W        W38192  16.783  20.014  14.817
69975W        W38193  42.229  38.792  13.331
69976W        W38194  24.281  33.108   4.563
69977W        W38195  26.233   8.694  12.034
69978W        W38196  25.483  35.008   4.013
69979W        W38197   7.491  17.345   0.822
69980W        W38198  27.221  41.586   0.310
69981W        W38199  27.774  30.110  14.425
69982W        W38200   7.398  37.074   0.007
69983W        W38201  10.746  30.613  11.092
69984W        W38202  21.562   5.196  10.652
69985W        W38203  43.931  16.879   1.844
69986W        W38204  12.685  22.727   0.722
69987W        W38205   0.342   0.414  10.892
69988W        W38206  23.963  12.729  11.091
69989W        W38207   3.219  37.622   2.838
69990W        W38208   5.652  17.179  10.935
69991W        W38209   5.539   1.517   4.991
69992W        W38210   6.977  31.298  14.380
69993W        W38211   4.787   6.453  12.657
69994W        W38212  37.150  37.677  11.194
69995W        W38213  21.980  12.179  10.602
69996W        W38214  43.242  17.314   0.400
69997W        W38215  19.664  38.615  12.285
69998W        W38216   0.350  30.058   2.554
69999W        W38217   4.176   1.400  12.026
70000W        W38218  20.299  31.945  11.104
70001W        W38219  15.779  44.913  14.020
70002W        W38220  42.776  34.987   1.745
70003W        W38221   8.618  14.755   3.633
70004W        W38222   8.921  23.932   3.704
70005W        W38223  13.957   7.336  11.084
70006W        W38224  26.503   0.275  13.705
70007W        W38225  11.781  36.968   4.417
70008W        W38226  29.188   6.957   3.551
70009W        W38227  35.533  19.204  12.359
70010W        W38228  34.104  17.786  13.343
70011W        W38229  26.430  32.501   2.259
70012W        W38230  16.159   4.008  11.497
70013W        W38231  26.211  12.267   4.309
70014W        W38232  15.746   5.525   1.819
70015W        W38233   8.681  24.639   3.283
70016W        W38234  40.473  28.250  11.799
70017W        W38235  18.983  38.572   0.333
70018W        W38236   9.329  16.760  13.753
70019W        W38237  42.988  29.173   4.639
70020W        W38238  30.943  21.764   3.177
70021W        W38239  10.183  20.574   2.306
70022W        W38240  40.860  31.442   1.078
70023W        W38241  15.258  13.104  13.469
70024W        W38242  27.492  37.512   1.982
70025W        W38243   7.880  12.993  12.846
70026W        W38244  43.393  34.189   0.018
70027W        W38245   6.171  41.962   0.250
70028W        W38246   0.861   2.319   4.646
70029W        W38247  38.380  28.216  11.524
70030W        W38248   4.472  44.514  13.275
70031W        W38249  31.167  44.791  13.279
70032W        W38250  21.203  22.441  13.712
70033W        W38251  42.845  18.333  12.127
70034W        W38252  14.681  44.276   1.720
70035W        W38253   1.974  15.341   0.751
70036W        W38254  23.128  33.373   0.193
70037W        W38255   7.903  22.552  10.659
70038W        W38256  25.975  37.110   4.096
70039W        W38257  15.724  41.209   3.727
70040W        W38258  18.513  12.582   1.439
70041W        W38259  22.072  30.907  11.461
70042W        W38260  30.003  39.975  11.632
70043W        W38261  22.892  13.940   3.717
70044W        W38262   9.240  12.056   4.488
70045W        W38263  42.922   4.206   0.489
70046W        W38264  31.739  15.294  11.565
70047W        W38265  11.087  18.754  13.774
70048W        W38266  20.211  19.341  10.768
70049W        W38267  26.118  20.792  10.298
70050W        W38268  32.292  12.388  12.771
70051W        W38269  13.311  26.919  12.064
70052W        W38270  13.239  18.233  12.409
70053W        W38271  38.256   1.653  14.046
70054W        W38272  14.358  27.576  11.457
70055W        W38273  36.322   5.987   2.925
70056W        W38274  18.054  43.517  14.031
70057W        W38275   9.392  41.188  11.606
70058W        W38276  20.217  27.279  10.607
70059W        W38277  30.894  21.741  12.136
70060W        W38278  34.902  42.176  12.060
70061W        W38279   3.871  10.616  10.391
70062W        W38280   1.882  44.520  14.871
70063W        W38281   0.776  39.030  13.893
70064W        W38282  10.669   4.634   3.611
70065W        W38283  38.620  15.135   4.336
70066W        W38284  39.410   7.711   2.911
70067W        W38285  25.466  15.318   1.275
70068W        W38286   4.825   3.705  12.543
70069W        W38287  43.288   3.230   2.592
70070W        W38288  36.066  24.190  10.725
70071W        W38289   4.887  28.380   4.957
70072W        W38290  16.416   5.992  12.951
70073W        W38291  34.644  31.603   3.293
70074W        W38292  42.303   1.896  11.131
70075W        W38293   1.392   0.895  10.659
70076W        W38294   1.734  22.020   0.389
70077W        W38295  19.058  43.822   3.278
70078W        W38296  10.364   5.939  14.228
70079W        W38297  35.651   1.461   3.664
70080W        W38298  41.805  13.300   0.277
70081W        W38299  31.693  40.495  11.492
70082W        W38300   9.341  44.967  12.962
70083W        W38301   9.419  40.133   2.197
70084W        W38302  44.750  21.934   1.906
70085W        W38303   3.390  10.235  13.117
70086W        W38304  14.443   1.489   0.978
70087W        W38305  13.086  44.266   3.251
70088W        W38306   4.493  28.552  12.335
70089W        W38307  20.057  21.211  14.302
70090W        W38308  16.711  43.399   2.872
70091W        W38309   4.779  32.188  13.385
70092W        W38310  24.503  38.114  12.562
70093W        W38311  41.144  31.764  12.021
70094W        W38312   1.247  32.504   4.113
70095W        W38313  18.091  11.984  14.929
70096W        W38314  43.417  17.033  13.024
70097W        W38315  25.949  22.774  11.001
70098W        W38316  27.468  30.205   1.935
70099W        W38317  10.829  35.088   3.617
70100W        W38318  11.320  40.966  11.578
70101W        W38319   0.080  22.101   0.924
70102W        W38320  19.246  38.520   2.926
70103W        W38321  16.947  23.441  13.749
70104W        W38322   0.939   2.873   3.476
70105W        W38323   4.717  42.917   2.876
70106W        W38324  26.619  36.794   4.787
70107W        W38325  34.384  14.403  11.172
70108W        W38326   1.875  10.861  11.134
70109W        W38327  18.074  27.026   1.774
70110W        W38328   9.441  33.115  13.921
70111W        W38329   5.979  21.461  12.706
70112W        W38330  17.421   2.329  14.262
70113W        W38331  25.025  21.580  14.396
70114W        W38332   1.793   9.159   2.229
70115W        W38333  40.885  18.663   4.566
70116W        W38334   9.212  14.169   4.453
70117W        W38335   9.195  22.320  11.874
70118W        W38336  19.499  14.993  11.562
70119W        W38337  43.089  42.335  13.490
70120W        W38338  44.531  12.210  10.472
70121W        W38339  31.004  22.002   2.711
70122W        W38340  18.836  25.113  14.424
70123W        W38341  16.793  18.188  11.266
70124W        W38342  27.138  24.567   0.681
70125W        W38343  31.208  30.475  11.646
70126W        W38344  14.219  20.117   3.332
70127W        W38345  11.235  20.064  10.895
70128W        W38346  24.957  25.712   3.600
70129W        W38347  41.086  40.336  12.877
70130W        W38348  43.915   0.445  14.839
70131W        W38349   9.450  11.900   0.915
70132W        W38350  18.544   6.404  12.504
70133W        W38351  32.833  26.138   0.095
70134W        W38352  39.172  23.908  12.551
70135W        W38353  35.200  16.876   4.493
70136W        W38354  26.989  30.383   1.852
70137W        W38355  29.133  41.508  11.220
70138W        W38356  14.559  18.553   4.124
70139W        W38357  12.282  16.885  11.760
70140W        W38358  44.523  41.643  10.315
70141W        W38359  43.887  25.050   0.473
70142W        W38360   2.212   8.693   0.119
70143W        W38361   9.192  37.934   1.050
70144W        W38362   9.179  21.864  13.077
70145W        W38363  37.926  28.355  13.132
70146W        W38364  10.287  22.514   0.481
70147W        W38365  19.252  21.532  14.323
70148W        W38366  35.916   6.615   4.955
70149W        W38367   8.416  34.924  11.176
70150W        W38368  15.563  16.713  14.020
70151W        W38369  29.562  21.694  11.496
70152W        W38370  41.472  15.564   0.218
70153W        W38371  38.899  34.079  14.728
70154W        W38372  42.752  19.205  12.137
70155W        W38373  22.540  39.270  11.681
70156W        W38374   8.605  44.311  10.491
70157W        W38375  41.223  39.050   0.357
70158W        W38376   1.233   9.677  13.101
70159W        W38377  21.919  40.884   3.375
70160W        W38378  25.691  23.004   1.223
70161W        W38379  22.415  27.128   4.163
70162W        W38380   8.607  36.589   4.676
70163W        W38381  30.891   5.748  13.812
70164W        W38382  17.524  13.544  13.979
70165W        W38383  16.998  40.297  13.420
70166W        W38384   6.892  14.721  12.103
70167W        W38385   2.452  18.722  11.171
70168W        W38386  16.723  37.870  13.857
70169W        W38387  21.353   4.689  11.055
70170W        W38388  20.552   2.817   3.631
70171W        W38389  16.007   8.770   2.712
70172W        W38390   8.594   8.389   2.775
70173W        W38391  42.395  41.959  10.391
70174W        W38392  18.765  10.099  10.721
70175W        W38393   1.350   4.840   2.857
70176W        W38394  35.599  26.409  14.430
70177W        W38395  39.995  39.891  12.636
70178W        W38396  25.422  39.449   0.858
70179W        W38397  33.125  20.588  12.177
70180W        W38398  37.016  11.554   1.409
70181W        W38399  10.260  32.906  14.825
70182W        W38400  40.297  30.635  10.507
70183W        W38401   0.942  22.578   1.376
70184W        W38402   3.335   6.665   2.265
70185W        W38403   6.956  40.012  12.464
70186W        W38404  25.055  44.026  14.880
70187W        W38405   7.211   1.061   4.245
70188W        W38406  38.941  22.635   0.192
70189W        W38407  41.257  20.234   3.242
70190W        W38408   6.328   6.696  14.917
70191W        W38409   0.882  41.789   1.965
70192W        W38410  39.303  20.061  10.602
70193W        W38411  26.003   1.809   3.401
70194W        W38412  18.396   4.258   1.981
70195W        W38413  15.634  21.447  12.510
70196W        W38414   6.439  43.413  13.328
70197W        W38415   2.784  23.980   2.216
70198W        W38416   7.702  20.813  14.339
70199W        W38417  13.138  15.046   2.599
70200W        W38418  20.921  15.814   3.290
70201W        W38419   2.630  21.156   3.401
70202W        W38420  15.906  24.644   0.371
70203W        W38421  12.672  44.461  12.617
70204W        W38422  19.719  26.526   4.638
70205W        W38423   2.842  35.510   4.201
70206W        W38424   3.453   5.706  10.508
70207W        W38425  28.975  24.788  12.965
70208W        W38426  18.019  19.151  13.398
70209W        W38427  28.594  16.136  11.532
70210W        W38428   9.209  42.035   2.784
70211W        W38429  37.004   9.309  11.290
70212W        W38430  28.480  21.540   3.185
70213W        W38431  43.930  44.998  13.414
70214W        W38432  43.785  26.054   3.213
70215W        W38433  12.135  21.585  13.890
70216W        W38434  18.683  41.245  10.206
70217W        W38435  19.251  22.826   2.879
70218W        W38436  41.284  27.993   4.614
70219W        W38437  27.661  30.915  11.182
70220W        W38438   2.174  38.390  12.519
70221W        W38439  25.695  27.147   1.017
70222W        W38440  26.961  24.561   1.286
70223W        W38441  16.000   9.570   0.705
70224W        W38442  15.067  31.625   1.891
70225W        W38443  22.809   0.860   1.499
70226W        W38444   8.672  22.106   3.498
70227W        W38445   7.070  21.550   0.439
70228W        W38446  38.891  31.553   1.298
70229W        W38447  13.669  39.343   1.016
70230W        W38448  15.188  13.407   0.729
70231W        W38449  41.663   8.653   1.257
70232W        W38450  25.602  24.665  13.967
70233W        W38451  21.083  29.620  12.535
70234W        W38452  14.599  41.354   1.391
70235W        W38453   9.218   7.605  14.343
70236W        W38454  17.663  38.562   2.259
70237W        W38455   8.180  39.981   2.831
70238W        W38456  34.445  29.995   1.639
70239W        W38457  33.814   6.986   0.920
70240W        W38458  19.654  17.882   4.344
70241W        W38459  19.971   3.651   3.904
70242W        W38460  17.823  15.879  10.625
70243W        W38461  37.985  39.008  13.499
70244W        W38462   3.490  18.525  10.787
70245W        W38463  15.301  42.942  13.451
70246W        W38464   1.841  32.489  11.573
70247W        W38465  11.272  17.171   4.343
70248W        W38466   3.655  12.824  12.413
70249W        W38467  26.654  32.376   3.779
70250W        W38468  39.303  27.156   4.214
70251W        W38469  16.940   5.976   4.045
70252W        W38470  37.314  41.371   5.000
70253W        W38471  25.631  23.599  11.568
70254W        W38472  15.953  28.189   2.861
70255W        W38473  42.462  36.603  12.112
70256W        W38474  41.911  10.692  10.670
70257W        W38475  10.738  13.718   4.363
70258W        W38476   9.021   8.331   4.898
70259W        W38477  34.779  26.095  14.022
70260W        W38478  39.949  42.736  13.408
70261W        W38479  37.850  12.096   3.633
70262W        W38480  43.068   5.897  13.719
70263W        W38481   8.067  27.862  13.062
70264W        W38482  18.290  20.042  11.215
70265W        W38483  26.018  17.329   1.777
70266W        W38484  36.921  22.456  11.025
70267W        W38485  42.697   1.016   0.946
70268W        W38486  40.395  33.604   1.039
70269W        W38487  36.183  23.540  11.059
70270W        W38488  14.345  11.867   1.731
70271W        W38489  42.229  33.543   0.342
70272W        W38490  39.416  35.822   0.024
70273W        W38491  15.089  37.003  10.712
70274W        W38492  12.852   4.440   4.055
70275W        W38493  20.272  26.759  10.547
70276W        W38494  24.065   3.369  12.966
70277W        W38495  42.948  21.797   4.573
70278W        W38496   0.916   1.715  10.933
70279W        W38497  24.636  19.273  13.059
70280W        W38498  19.581   6.658   0.481
70281W        W38499   4.459  13.647  13.831
70282W        W38500   0.999  28.176   1.689
70283W        W38501  36.786  33.529  10.175
70284W        W38502  20.968  23.111   4.559
70285W        W38503  23.034  20.564  11.381
70286W        W38504  30.879  38.476   1.466
70287W        W38505  15.942   4.283  14.760
70288W        W38506  35.099   7.873   1.302
70289W        W38507  19.192  19.661  10.406
70290W        W38508  43.738  41.461   4.595
70291W        W38509   9.462  18.044   2.729
70292W        W38510   8.662  40.173  14.796
70293W        W38511   8.264   2.247   1.176
70294W        W38512  24.633  22.552   2.668
70295W        W38513  39.946  12.619  10.687
70296W        W38514  15.713  14.411   1.783
70297W        W38515   6.661  14.290   2.832
70298W        W38516  31.428   7.918  12.946
70299W        W38517   8.946  13.651  11.029
70300W        W38518  14.903  31.356   0.717
70301W        W38519  40.127  23.636  14.994
70302W        W38520  17.782  37.401   3.826
70303W        W38521  13.909  34.882   5.159
70304W        W38522  37.053  40.880   2.522
70305W        W38523  27.143  22.188  11.984
70306W        W38524   0.404  20.310   3.355
70307W        W38525  31.211  40.411   4.301
70308W        W38526   4.576   8.230  12.273
70309W        W38527  16.272  16.249  11.715
70310W        W38528  42.009  14.546   0.873
70311W        W38529  37.622  30.398   1.868
70312W        W38530  20.667  15.358  12.985
70313W        W38531  10.085  20.665  14.436
70314W        W38532  27.994  23.245   2.357
70315W        W38533   5.257   3.300   1.963
70316W        W38534  21.523  22.162  11.140
70317W        W38535   9.410  32.961  14.456
70318W        W38536  23.396  41.511   2.699
70319W        W38537   8.353  23.987  14.718
70320W        W38538  27.058  22.208   0.811
70321W        W38539  21.055  26.735  14.541
70322W        W38540  22.634   7.133  11.683
70323W        W38541  33.950  29.938  12.522
70324W        W38542   9.271   2.778   4.805
70325W        W38543  40.732  11.305  11.346
70326W        W38544   6.214  40.329   0.023
70327W        W38545  40.593  30.690   0.351
70328W        W38546   8.363  35.947   3.343
70329W        W38547  11.419   1.823  11.944
70330W        W38548  18.144  15.886  11.614
70331W        W38549   4.931  10.226  12.071
70332W        W38550  19.156  17.498  13.885
70333W        W38551  34.531  24.028  12.932
70334W        W38552   6.953  41.931  14.369
70335W        W38553  38.672  34.232   2.386
70336W        W38554  28.939   1.183  13.961
70337W        W38555  15.252   0.400  12.871
70338W        W38556   0.329   5.936  10.674
70339W        W38557  25.018  38.394   2.399
70340W        W38558  44.045  35.558   3.566
70341W        W38559  11.386   9.741   0.103
70342W        W38560  15.308   1.828   4.607
70343W        W38561  36.516  44.305   4.162
70344W        W38562   4.700   0.864  12.137
70345W        W38563  40.803  13.601  13.565
70346W        W38564   0.356  19.736  13.815
70347W        W38565  41.745  32.912   1.838
70348W        W38566  41.748  30.190   5.013
70349W        W38567  22.482  23.868  14.487
70350W        W38568  26.343  27.986   3.410
70351W        W38569   3.859  34.504  12.605
70352W        W38570  11.349  35.574   0.065
70353W        W38571  14.651   5.113   0.831
70354W        W38572  14.317  34.168   0.968
70355W        W38573  27.874  36.011   2.880
70356W        W38574  38.491  37.344   4.633
70357W        W38575   8.881   3.748  12.096
70358W        W38576   8.899   0.799  10.817
70359W        W38577  43.836  12.139   2.685
70360W        W38578   9.359  44.449  13.103
70361W        W38579  33.187  19.570   3.254
70362W        W38580   9.738  33.633   2.104
70363W        W38581  29.419  43.473   4.305
70364W        W38582   6.444  34.636  14.261
70365W        W38583  12.355  36.344  11.164
70366W        W38584  33.448  32.659   0.927
70367W        W38585  43.763  16.591  11.114
70368W        W38586  12.935   5.935  14.493
70369W        W38587  32.148   3.151   4.313
70370W        W38588  34.694  32.029   4.066
70371W        W38589   2.918  11.187   3.551
70372W        W38590  23.685  35.287  14.984
70373W        W38591  31.423  20.670  13.546
70374W        W38592   7.384  17.480   2.690
70375W        W38593  38.926   8.233  13.241
70376W        W38594  12.819  44.892  13.539
70377W        W38595  29.243   1.069   2.875
70378W        W38596  35.148  40.498   0.496
70379W        W38597  24.555  36.521   1.696
70380W        W38598  42.867  42.845   1.419
70381W        W38599   8.227  12.989  10.701
70382W        W38600  10.148  24.274   4.535
70383W        W38601  30.160  25.710   0.522
70384W        W38602  12.244   0.307  12.341
70385W        W38603  26.999  29.555   2.399
70386W        W38604  28.001   6.868  13.535
70387W        W38605  42.082   9.873  11.084
70388W        W38606  19.551  39.098  14.339
70389W        W38607   2.969  36.719  14.826
70390W        W38608  10.718  18.129  14.349
70391W        W38609  36.469  43.284  12.954
70392W        W38610  44.796  19.529   3.157
70393W        W38611   0.276  20.496  14.993
70394W        W38612  14.392   9.623  13.131
70395W        W38613  17.474  22.145   3.283
70396W        W38614   4.321  24.658  13.191
70397W        W38615  34.908  36.323  12.905
70398W        W38616  27.189  38.816  13.550
70399W        W38617  22.809  25.646   2.161
70400W        W38618  20.052  17.118  14.697
70401W        W38619   5.618  42.324  13.518
70402W        W38620  13.381   0.313   1.724
70403W        W38621  32.613  18.699   0.741
70404W        W38622  42.864  23.956   4.148
70405W        W38623  35.907  26.145   0.487
70406W        W38624   6.791  38.425   4.577
70407W        W38625  36.815   7.486  14.996
70408W        W38626  41.197  21.508   2.183
70409W        W38627  28.255  41.748   4.754
70410W        W38628  35.368  23.966  11.170
70411W        W38629  41.527  32.345  10.798
70412W        W38630  31.858  31.111   2.065
70413W        W38631  39.509  16.562   3.580
70414W        W38632  31.914  31.932   3.123
70415W        W38633  36.921  33.640  11.563
70416W        W38634  12.724  10.284  14.072
70417W        W38635  38.990  23.006   2.114
70418W        W38636  24.548  18.555   4.191
70419W        W38637  24.432  32.183  12.002
70420W        W38638  39.044  32.090   1.775
70421W        W38639  18.643  27.235   3.560
70422W        W38640  26.574  36.787  12.459
70423W        W38641  24.226  39.904  11.312
70424W        W38642  14.896  23.554  12.901
70425W        W38643  34.139  43.937   0.647
70426W        W38644  13.242  21.144   4.126
70427W        W38645  39.978  32.396   1.201
70428W        W38646  11.621   3.701  13.944
70429W        W38647  27.503  32.639   3.694
70430W        W38648  33.451   3.602   4.458
70431W        W38649  23.015  27.122  12.395
70432W        W38650  41.139   2.781  12.949
70433W        W38651  34.506  36.249   2.449
70434W        W38652  35.227   8.236   4.249
70435W        W38653  37.047  18.875   0.721
70436W        W38654  10.512   3.155   3.388
70437W        W38655  33.911  22.981  12.426
70438W        W38656  17.328  16.439   4.203
70439W        W38657  36.043  17.983   4.640
70440W        W38658  20.652  15.082   2.460
70441W        W38659  39.276  35.483  11.877
70442W        W38660  30.889  12.061  13.903
70443W        W38661   4.870  13.097   3.268
70444W        W38662  27.212   0.522   4.681
70445W        W38663   1.893  20.035  12.967
70446W        W38664  39.906  17.267   3.016
70447W        W38665   0.276  22.477   4.169
70448W        W38666   9.576  20.502  12.530
70449W        W38667  32.344  39.666   0.057
70450W        W38668  18.811  44.044   1.769
70451W        W38669  13.563  16.635  14.017
70452W        W38670  39.447  10.707  11.422
70453W        W38671  14.329  14.206   0.842
70454W        W38672  20.180  25.404  12.335
70455W        W38673  13.625   3.509  12.175
70456W        W38674  41.909  13.974  11.272
70457W        W38675  14.043   8.250  13.466
70458W        W38676  14.859  13.323   3.638
70459W        W38677   8.271  44.887  10.656
70460W        W38678  25.413   5.711  12.611
70461W        W38679  26.491  29.577   1.212
70462W        W38680  41.761   7.721  14.944
70463W        W38681  37.821  16.516  12.968
70464W        W38682  24.941  30.930  13.106
70465W        W38683  32.996   0.540  12.455
70466W        W38684   0.223  42.928  14.526
70467W        W38685  29.679  15.416   3.278
70468W        W38686   2.283  17.365   2.447
70469W        W38687  23.005  17.836   0.551
70470W        W38688   7.627   2.270   0.285
70471W        W38689   1.950  31.070  12.957
70472W        W38690  10.831  12.635  12.193
70473W        W38691  21.903  39.649  13.920
70474W        W38692   9.637   2.030  13.326
70475W        W38693  27.538  26.950   0.436
70476W        W38694   9.789   3.933  13.856
70477W        W38695  21.712  36.411  11.159
70478W        W38696  33.075  24.026  12.598
70479W        W38697   4.430  11.650   4.358
70480W        W38698  37.106   5.004  10.714
70481W        W38699  35.771  35.618   4.403
70482W        W38700  29.901  10.977   0.407
70483W        W38701  21.119   9.022   0.019
70484W        W38702  11.109  37.582  13.802
70485W        W38703  36.469   1.757   2.265
70486W        W38704  31.913  29.636   4.338
70487W        W38705  40.460  43.354  14.527
70488W        W38706   7.634  38.732  13.985
70489W        W38707  38.733  29.062   3.674
70490W        W38708   8.782  27.427  10.408
70491W        W38709  34.369   3.706  14.946
70492W        W38710  18.227  10.874  12.947
70493W        W38711  43.860  40.082   4.530
70494W        W38712  29.049  25.077   1.602
70495W        W38713  35.376  14.322   1.769
70496W        W38714  25.986  11.342   2.316
70497W        W38715  39.908  43.751   1.413
70498W        W38716  32.522   0.729   3.879
70499W        W38717  24.572  32.651   4.595
70500W        W38718  22.701  32.139   3.643
70501W        W38719   3.802  40.801  10.471
70502W        W38720  22.966   7.417  13.870
70503W        W38721   2.289  19.876   9.811
70504W        W38722  12.423  39.963   3.744
70505W        W38723  15.842  37.771  11.655
70506W        W38724   7.465  30.403  10.546
70507W        W38725  23.641  25.852  14.536
70508W        W38726  39.396  32.516  14.976
70509W        W38727  43.134  32.773   2.903
70510W        W38728  30.681   4.512  14.969
70511W        W38729  13.904  36.360   1.144
70512W        W38730  31.514  22.114   0.963
70513W        W38731  42.555  19.867   1.437
70514W        W38732  22.032  44.948  13.005
70515W        W38733  42.573  19.618   0.230
70516W        W38734  40.288   8.142  14.411
70517W        W38735  36.155  25.619  11.542
70518W        W38736   0.366  24.937  13.161
70519W        W38737   7.837  29.014  13.348
70520W        W38738   7.983  19.134   0.529
70521W        W38739  26.627  10.395   3.222
70522W        W38740  25.132  27.459  11.151
70523W        W38741  21.420  38.750  10.107
70524W        W38742  13.886  30.526   3.686
70525W        W38743  15.269  11.039  13.141
70526W        W38744  15.268  20.725  11.577
70527W        W38745  11.706   6.142   3.702
70528W        W38746   8.918  10.912   0.085
70529W        W38747   7.860  40.773  10.698
70530W        W38748  23.154  30.512  11.235
70531W        W38749  39.367  33.083  14.240
70532W        W38750   8.799  30.933  11.458
70533W        W38751  39.400  20.460   0.441
70534W        W38752   8.804  21.739   4.533
70535W        W38753  36.028  43.244  11.291
70536W        W38754  38.838  21.280   2.113
70537W        W38755  18.197  24.517   4.554
70538W        W38756  19.941  25.735  13.986
70539W        W38757  19.422  18.691  10.711
70540W        W38758  24.522  22.958  13.578
70541W        W38759  26.030  11.236  10.742
70542W        W38760  11.257   9.066   2.590
70543W        W38761  16.690  36.438   3.672
70544W        W38762   1.368  39.732  13.009
70545W        W38763  30.259   9.366  12.224
70546W        W38764  21.534   0.983  11.252
70547W        W38765   0.888   2.775   3.972
70548W        W38766   4.313   0.478  12.587
70549W        W38767   9.238  38.928   2.135
70550W        W38768  17.070   2.190  13.398
70551W        W38769  11.930  33.896  12.879
70552W        W38770  22.918  38.367   3.768
70553W        W38771  12.577   4.667   1.416
70554W        W38772  14.050  43.932   1.410
70555W        W38773  38.622  31.484   0.818
70556W        W38774  30.326   4.611  14.049
70557W        W38775  25.399  25.671  10.636
70558W        W38776  14.921  29.024  13.789
70559W        W38777  19.668  13.279  13.159
70560W        W38778  27.510   5.644  12.621
70561W        W38779  32.534  32.473  11.609
70562W        W38780  28.628  27.551   2.208
70563W        W38781  39.211   4.920   2.627
70564W        W38782  22.359  27.916  12.439
70565W        W38783  12.866  35.615  14.993
70566W        W38784  17.526  10.597  13.479
70567W        W38785  10.354  15.751  11.132
70568W        W38786   9.612   4.475   4.094
70569W        W38787  17.144   0.397  12.422
70570W        W38788  10.647  41.917   0.451
70571W        W38789  38.354  30.054  12.486
70572W        W38790  13.251  44.647   2.284
70573W        W38791  25.948  15.007  13.498
70574W        W38792  44.784  20.702  14.290
70575W        W38793  22.676  14.102   2.927
70576W        W38794  40.854  33.953   3.115
70577W        W38795  22.723   3.882   1.819
70578W        W38796  44.975  11.605  14.343
70579W        W38797  22.335  28.978  14.859
70580W        W38798  32.999  18.155   3.768
70581W        W38799  30.675   7.788   0.436
70582W        W38800  16.157   7.197  14.977
70583W        W38801  14.620   9.276  11.128
70584W        W38802  40.434  13.366   0.283
70585W        W38803  44.433  18.341   0.766
70586W        W38804   5.762  29.105  14.262
70587W        W38805  43.624  17.729  11.943
70588W        W38806  11.842  24.113  12.958
70589W        W38807  22.675  33.973  14.963
70590W        W38808   0.553  38.338   3.782
70591W        W38809   8.001  10.111   4.183
70592W        W38810  19.756  41.206   3.651
70593W        W38811  16.734   6.915   3.419
70594W        W38812  10.404  35.803  11.672
70595W        W38813   3.386  34.993   2.746
70596W        W38814   1.969   1.922  14.779
70597W        W38815  28.145  41.436   2.359
70598W        W38816  11.165   0.886  12.506
70599W        W38817   2.538  34.561   2.613
70600W        W38818  17.889  18.023  11.577
70601W        W38819  38.759  33.656   3.829
70602W        W38820  22.908  19.128  10.449
70603W        W38821   3.302  14.525   0.443
70604W        W38822  32.211   5.959   2.850
70605W        W38823  26.654  42.087  14.923
70606W        W38824   1.582  34.523  11.040
70607W        W38825   8.664  11.817  12.471
70608W        W38826   4.794  17.043  13.885
70609W        W38827  36.832  26.183   1.353
70610W        W38828  14.093  36.840  12.563
70611W        W38829  42.807  41.889   1.460
70612W        W38830  16.054  35.410   0.070
70613W        W38831  36.063  14.374  14.051
70614W        W38832  18.609  41.546  14.912
70615W        W38833  35.129  44.913   0.006
70616W        W38834  16.015   2.585   3.123
70617W        W38835  41.429   2.691  14.637
70618W        W38836  39.910  16.761  14.223
70619W        W38837  41.203  19.637   2.625
70620W        W38838  36.015  40.286   3.190
70621W        W38839  26.380  19.283   0.297
70622W        W38840   1.043  18.586  10.945
70623W        W38841  22.727   0.056  13.945
70624W        W38842   2.438  43.229  11.274
70625W        W38843   8.793  36.862  12.495
70626W        W38844  40.323  26.611   0.856
70627W        W38845  34.974  33.717   2.856
70628W        W38846   4.499   8.597   4.189
70629W        W38847  22.294  26.064   4.146
70630W        W38848  43.000   2.816  13.123
70631W        W38849  37.832   4.145  11.643
70632W        W38850  13.419   7.125  14.849
70633W        W38851  40.103  36.821  13.196
70634W        W38852  16.773  39.571   2.578
70635W        W38853  41.129  44.055  14.487
70636W        W38854  43.435  24.952   4.640
70637W        W38855  30.421   7.813   4.130
70638W        W38856  26.021  44.802   4.566
70639W        W38857   5.538   4.429   3.313
70640W        W38858  34.946  27.366   1.474
70641W        W38859  32.417  42.885   1.655
70642W        W38860  15.707  18.529   1.839
70643W        W38861  44.275  17.531   4.795
70644W        W38862   8.765   6.325  11.517
70645W        W38863  30.014  42.323  11.510
70646W        W38864  25.021  15.475  14.854
70647W        W38865  17.059  40.913  10.925
70648W        W38866   8.977  11.536   2.749
70649W        W38867  31.666  44.408   4.615
70650W        W38868  14.883  25.176   0.015
70651W        W38869  32.994   2.871  11.961
70652W        W38870  43.738   3.907   0.721
70653W        W38871  44.442  41.291  10.713
70654W        W38872   2.559  25.690  12.953
70655W        W38873  41.492  27.945   0.841
70656W        W38874  25.682  43.807  13.765
70657W        W38875  38.653  25.047  11.588
70658W        W38876  32.168  18.990   0.708
70659W        W38877   6.690  37.278   3.096
70660W        W38878  33.068  15.246  14.048
70661W        W38879  14.292  29.922   3.237
70662W        W38880  42.975  33.017  13.663
70663W        W38881  15.669  34.506   0.496
70664W        W38882  19.548  40.637  11.964
70665W        W38883  30.273   2.504  12.494
70666W        W38884  19.529   2.248   4.110
70667W        W38885  10.961  11.121  11.090
70668W        W38886   8.799  32.553  12.852
70669W        W38887   7.657  11.752  13.336
70670W        W38888  39.466  23.126   3.926
70671W        W38889   3.275  16.824   2.947
70672W        W38890   1.900   1.574  14.393
70673W        W38891  16.121   2.893   1.248
70674W        W38892  19.891   8.981   4.132
70675W        W38893  21.695   0.512   4.453
70676W        W38894  30.616  32.419   4.680
70677W        W38895  15.818  38.033   4.295
70678W        W38896  18.793  21.121   0.782
70679W        W38897  13.109  21.132  14.262
70680W        W38898  15.344  24.356   2.821
70681W        W38899   0.160  36.987  12.953
70682W        W38900  35.437  20.287  12.098
70683W        W38901   9.374  19.956  14.741
70684W        W38902  33.927  38.003   0.955
70685W        W38903  23.979  14.873  11.739
70686W        W38904  13.071  34.384   1.179
70687W        W38905  25.078   2.645   3.607
70688W        W38906  44.492  28.870  11.183
70689W        W38907  19.175   8.326   0.496
70690W        W38908   3.722  40.458  14.605
70691W        W38909  15.076  23.877  13.269
70692W        W38910   5.862  18.970   2.337
70693W        W38911  27.483  11.821   4.343
70694W        W38912  18.741  30.131   0.751
70695W        W38913  32.730  27.003  12.392
70696W        W38914   9.613  10.731   2.590
70697W        W38915   4.813   8.117   2.353
70698W        W38916  27.569   8.998   3.667
70699W        W38917  20.535  25.264   1.992
70700W        W38918  22.367  32.751  13.495
70701W        W38919  23.654   2.528   2.283
70702W        W38920   6.316   7.079  13.013
70703W        W38921  33.988  40.881  14.099
70704W        W38922  42.513  41.563  13.926
70705W        W38923  10.724  28.732   3.290
70706W        W38924  19.956   6.878  12.782
70707W        W38925  41.128  38.526  10.783
70708W        W38926  35.075  28.028   2.669
70709W        W38927  23.634   7.150   1.911
70710W        W38928  13.749   3.415   4.306
70711W        W38929  36.098  41.677  13.164
70712W        W38930  29.602  31.931  10.618
70713W        W38931  43.878   0.836  14.028
70714W        W38932  30.150  12.465   0.415
70715W        W38933   2.934  44.368  14.317
70716W        W38934   3.223  20.119   5.011
70717W        W38935  33.429  14.223  13.496
70718W        W38936  28.893   7.785  13.995
70719W        W38937  25.457  42.809  11.159
70720W        W38938  31.464  12.039  13.366
70721W        W38939  10.202  32.146   0.879
70722W        W38940  11.194  17.502   1.224
70723W        W38941  37.606   0.197  13.921
70724W        W38942  24.953  25.207   0.005
70725W        W38943  26.500  21.584   4.495
70726W        W38944  27.245  23.722   9.808
70727W        W38945   0.010  33.817   3.554
70728W        W38946  17.011  38.378   4.919
70729W        W38947   1.704   8.374  11.746
70730W        W38948  22.658   4.649  14.030
70731W        W38949  13.660  14.255   3.859
70732W        W38950  43.112   4.385  10.702
70733W        W38951  41.483  30.027  10.544
70734W        W38952  20.892  40.384  11.535
70735W        W38953  43.314   2.283  13.831
70736W        W38954  31.423   1.027  11.230
70737W        W38955   9.184  18.849   3.864
70738W        W38956   8.336  22.416  14.564
70739W        W38957  38.492  18.208   2.260
70740W        W38958  18.052  17.276  11.078
70741W        W38959  36.640  24.696  14.381
70742W        W38960  16.180  32.873   0.033
70743W        W38961  30.834   9.400   4.373
70744W        W38962  41.822  17.573   4.314
70745W        W38963  20.815   0.470  11.989
70746W        W38964  44.031  11.884   4.675
70747W        W38965  10.217   5.387   3.751
70748W        W38966  43.051  29.114  10.651
70749W        W38967  44.875  23.629  14.111
70750W        W38968  36.104  30.352   2.837
70751W        W38969   3.411  20.247   0.935
70752W        W38970  40.137  42.996   4.572
70753W        W38971  19.012  21.206  10.768
70754W        W38972  23.405  29.241   1.703
70755W        W38973   7.269   7.333   2.581
70756W        W38974   2.395  33.673   0.374
70757W        W38975  41.690  35.520  11.171
70758W        W38976  38.938  16.795  10.494
70759W        W38977  14.955  43.692   3.501
70760W        W38978  37.550  30.863   4.983
70761W        W38979  33.644  29.631   1.372
70762W        W38980  25.239  16.103  11.131
70763W        W38981  25.493  40.581   5.041
70764W        W38982   7.439  44.364  11.601
70765W        W38983  13.023  11.638  11.537
70766W        W38984  22.671  12.488  14.205
70767W        W38985   9.175  26.211   4.365
70768W        W38986  43.563  23.964   4.565
70769W        W38987  14.176  17.900  11.143
70770W        W38988  31.072  13.590  13.944
70771W        W38989  31.688   5.702   0.485
70772W        W38990  42.541  26.235   2.680
70773W        W38991  30.595   7.151  10.687
70774W        W38992  41.293  31.633  11.486
70775W        W38993  34.828  25.528   3.720
70776W        W38994  12.885  31.608   0.522
70777W        W38995   7.242  15.110  11.130
70778W        W38996  39.635  40.014  14.268
70779W        W38997  37.074  34.339   3.855
70780W        W38998  12.404   2.982   4.256
70781W        W38999  24.488  19.986  14.679
70782W        W39000  32.808  29.675  12.342
70783W        W39001   9.791  10.838  11.516
70784W        W39002  25.128  34.329   1.294
70785W        W39003  38.555  35.244  11.571
70786W        W39004  23.587  35.189  12.544
70787W        W39005  17.603  29.478  12.869
70788W        W39006  24.424  26.440   5.030
70789W        W39007  27.799   0.746   3.331
70790W        W39008  44.427  36.832   1.449
70791W        W39009  31.117  23.781   2.323
70792W        W39010  38.423  34.495   0.404
70793W        W39011  27.752  44.382  14.381
70794W        W39012   4.803  22.472   1.395
70795W        W39013   0.293   5.745  14.783
70796W        W39014   4.573   1.056  10.970
70797W        W39015   7.254  25.287   2.215
70798W        W39016  14.256  31.890   3.830
70799W        W39017  16.069  31.451   2.738
70800W        W39018  27.696  21.083  11.442
70801W        W39019   5.711  34.003  14.745
70802W        W39020   1.833  44.026  10.499
70803W        W39021   5.996  38.496  12.784
70804W        W39022  44.336   1.193   0.083
70805W        W39023  21.718  12.782  12.318
70806W        W39024  42.912  44.702  11.652
70807W        W39025  14.094   3.929  14.994
70808W        W39026   9.685  27.213  14.703
70809W        W39027  26.948  23.974   3.631
70810W        W39028  33.530  40.312  13.730
70811W        W39029   3.390  37.342  10.479
70812W        W39030   9.260  15.498   3.257
70813W        W39031   1.710  11.811  13.971
70814W        W39032  27.513   2.351  14.788
70815W        W39033  34.334  40.820   4.098
70816W        W39034  37.865  40.465  12.946
70817W        W39035  12.613   2.097  14.206
70818W        W39036  32.616   6.733   0.010
70819W        W39037  12.628  14.746  14.297
70820W        W39038   1.000  29.471   4.555
70821W        W39039  42.966  28.380   2.339
70822W        W39040  16.023  41.409   1.168
70823W        W39041  35.358  30.127   5.157
70824W        W39042  38.632  35.897  12.081
70825W        W39043  36.988  18.812  13.970
70826W        W39044   4.068  30.113  12.214
70827W        W39045  20.893   3.397  14.907
70828W        W39046  12.655  44.828   0.873
70829W        W39047  22.217  25.731  11.203
70830W        W39048  29.405   9.595   3.284
70831W        W39049  18.301  40.468  14.803
70832W        W39050  18.829  30.244   4.301
70833W        W39051  33.726  29.576  10.179
70834W        W39052  22.527  10.611  10.039
70835W        W39053   9.536  27.122   0.643
70836W        W39054  22.276   3.751  12.041
70837W        W39055  14.758  30.464   2.779
70838W        W39056  37.061  29.702  11.662
70839W        W39057  10.749  25.191   1.850
70840W        W39058   5.420  16.621   4.521
70841W        W39059   6.117  19.297   4.395
70842W        W39060  36.571   1.433  11.143
70843W        W39061  11.184  44.879   1.703
70844W        W39062  11.097  18.219   2.183
70845W        W39063   4.935  24.189   4.053
70846W        W39064  13.391   6.276   4.351
70847W        W39065   8.912  26.624   0.011
70848W        W39066  26.304  18.475   1.227
70849W        W39067  39.788  26.594   4.101
70850W        W39068  23.010  24.088   3.174
70851W        W39069   5.665  44.518  10.606
70852W        W39070  29.059  23.613   3.660
70853W        W39071   0.093   9.096   0.308
70854W        W39072   7.825  44.312  11.227
70855W        W39073  30.573  12.595   1.823
70856W        W39074   9.478  36.290  11.589
70857W        W39075  30.103  41.956   5.213
70858W        W39076  18.654   6.021   3.214
70859W        W39077  23.571  39.616   2.175
70860W        W39078   6.024  33.195   1.779
70861W        W39079  32.102  29.591   0.272
70862W        W39080   7.347  27.488   3.116
70863W        W39081  30.362  44.443   2.223
70864W        W39082  12.049  30.937   0.239
70865W        W39083  40.636  16.821  13.444
70866W        W39084  23.609  24.324   5.022
70867W        W39085  31.090  26.467   4.585
70868W        W39086   6.662  44.016  14.300
70869W        W39087  19.849  31.875   2.290
70870W        W39088  21.536  23.558   3.220
70871W        W39089   0.036   7.013  13.966
70872W        W39090   2.186  26.566   2.300
70873W        W39091   6.700  23.552   2.222
70874W        W39092  14.647  35.093   1.838
70875W        W39093  34.900  24.893   1.508
70876W        W39094  37.876  30.431   4.593
70877W        W39095  42.519  23.177   0.841
70878W        W39096  41.507  13.131  12.411
70879W        W39097  24.892  21.724  13.514
70880W        W39098   2.342  27.446   2.735
70881W        W39099   2.366   6.335   3.197
70882W        W39100  39.027  16.606  11.886
70883W        W39101  36.512   7.122   0.258
70884W        W39102  20.488   2.940   1.559
70885W        W39103  22.580   6.738   0.454
70886W        W39104  44.307   6.875   1.353
70887W        W39105  42.251  39.331  13.380
70888W        W39106  26.909  35.028  12.181
70889W        W39107  44.416  16.837   3.118
70890W        W39108   8.781  10.088   2.228
70891W        W39109  37.911  38.559  14.804
70892W        W39110  33.191  26.611   1.969
70893W        W39111   7.185  14.339  11.600
70894W        W39112  20.278  12.111  11.135
70895W        W39113  14.732  43.573  10.281
70896W        W39114  37.588  32.099   0.005
70897W        W39115   2.195  29.978   1.376
70898W        W39116  41.773  15.735  11.130
70899W        W39117  37.637  22.268  11.618
70900W        W39118  31.712  20.572  10.994
70901W        W39119  18.390  29.659   3.613
70902W        W39120  37.993   6.196  13.381
70903W        W39121   0.353  10.769   1.256
70904W        W39122   0.321  34.038  12.046
70905W        W39123   5.938  14.741   0.756
70906W        W39124  38.437  31.385   1.856
70907W        W39125  11.842  35.551  14.919
70908W        W39126  44.232  24.639   1.377
70909W        W39127  17.570  29.636   1.432
70910W        W39128   6.104  14.314  11.716
70911W        W39129   3.829  40.747  13.380
70912W        W39130   5.444   0.574   1.971
70913W        W39131  34.097  23.131   3.674
70914W        W39132  38.871   1.311   2.308
70915W        W39133   0.968   6.367   4.609
70916W        W39134  29.388  30.042   2.888
70917W        W39135  14.183  14.327  13.994
70918W        W39136  39.264  12.822  12.560
70919W        W39137   1.959  23.567   3.635
70920W        W39138  21.787  44.487   2.276
70921W        W39139  26.172  16.189   2.421
70922W        W39140  21.948  25.635   3.871
70923W        W39141  16.139  18.220  13.113
70924W        W39142  16.043  39.559  13.524
70925W        W39143  12.276  42.239  13.589
70926W        W39144  10.112   0.750  14.487
70927W        W39145  33.446  13.529  11.481
70928W        W39146  42.339  22.555   3.732
70929W        W39147  23.702  17.968  11.991
70930W        W39148  19.506   7.648  11.648
70931W        W39149  10.599  22.685  13.185
70932W        W39150  19.871  13.569   3.930
70933W        W39151  10.230  43.643  13.082
70934W        W39152   3.300  22.506  13.034
70935W        W39153   7.615  40.688   2.613
70936W        W39154  31.416   9.827  12.963
70937W        W39155  18.122  26.550   4.167
70938W        W39156   3.835  38.264   3.835
70939W        W39157  11.337  15.100   3.108
70940W        W39158  44.954  20.512   3.187
70941W        W39159   6.317  23.898   3.113
70942W        W39160  34.054  27.685  14.801
70943W        W39161  28.428  35.329  14.770
70944W        W39162   8.762   5.282   1.207
70945W        W39163  11.618  26.571  11.877
70946W        W39164  20.256  13.982  11.054
70947W        W39165  41.618  32.176  10.038
70948W        W39166  13.251  43.178   4.920
70949W        W39167   3.280   7.701   1.514
70950W        W39168  25.519   2.816   0.349
70951W        W39169  28.377  17.597  12.374
70952W        W39170  30.865  42.755  13.520
70953W        W39171   4.619  36.641  10.075
70954W        W39172  17.844  14.737  14.756
70955W        W39173  28.404   3.295   4.477
70956W        W39174   8.414  37.044   4.510
70957W        W39175   0.955   5.919   0.378
70958W        W39176  38.981  15.825   1.398
70959W        W39177  15.908  21.309   2.234
70960W        W39178  28.171   1.347  14.313
70961W        W39179  21.659  31.318  13.894
70962W        W39180  37.696  19.082   1.422
70963W        W39181   5.152  40.826   2.691
70964W        W39182  10.949  31.060   0.966
70965W        W39183   6.627  37.755   2.790
70966W        W39184   5.351  29.638  12.867
70967W        W39185  10.948  32.028   2.308
70968W        W39186  36.359   1.008  11.985
70969W        W39187  13.269  33.098  11.259
70970W        W39188  12.679  37.168   3.866
70971W        W39189  42.705  10.954  11.568
70972W        W39190  40.489  24.977   2.827
70973W        W39191  22.853  18.024   1.927
70974W        W39192  22.485   9.087   4.301
70975W        W39193  24.267  32.782   4.170
70976W        W39194  23.214  29.045  12.624
70977W        W39195  17.643   4.243   3.193
70978W        W39196  20.447  25.301  10.313
70979W        W39197  37.545  17.063   2.256
70980W        W39198  15.762  37.268   1.834
70981W        W39199  16.508  31.705   2.714
70982W        W39200  11.134  26.751  14.385
70983W        W39201   2.633   8.981  11.251
70984W        W39202   6.406   5.784   3.787
70985W        W39203  39.696  14.976   2.200
70986W        W39204   4.847  42.739  14.905
70987W        W39205  35.836  44.872   3.732
70988W        W39206   9.431  40.398  10.210
70989W        W39207  36.938   3.797   2.819
70990W        W39208  37.459  19.465   0.840
70991W        W39209  24.657  22.920  12.071
70992W        W39210  27.144  24.724  14.002
70993W        W39211   3.356  13.783   4.068
70994W        W39212  22.619  19.722   4.623
70995W        W39213  28.557   1.164  11.530
70996W        W39214  22.132  11.404  14.799
70997W        W39215  24.940   6.709  14.733
70998W        W39216  14.590  23.556   0.758
70999W        W39217  36.515  11.012  12.453
71000W        W39218  28.675   7.920  14.475
71001W        W39219  38.647  22.695  14.293
71002W        W39220  42.445  13.811   1.953
71003W        W39221   3.717  44.485   5.046
71004W        W39222  21.196  34.037  10.652
71005W        W39223  18.760  27.110  14.814
71006W        W39224  17.238  17.241  14.002
71007W        W39225  14.013  10.657   0.010
71008W        W39226  11.386  40.392  11.077
71009W        W39227  20.927   5.497  12.777
71010W        W39228   0.274  29.974  11.142
71011W        W39229  17.097  28.825   4.921
71012W        W39230  10.638  27.653  14.412
71013W        W39231   9.587  10.576  11.086
71014W        W39232  17.163  19.683  13.065
71015W        W39233   7.359  11.807   0.745
71016W        W39234  40.401  13.321   3.182
71017W        W39235  37.994  15.141   3.089
71018W        W39236   2.157  10.880   0.010
71019W        W39237   6.835  18.507   2.487
71020W        W39238  31.104  33.538   2.743
71021W        W39239  20.844  23.024  14.756
71022W        W39240  21.565  30.612  13.470
71023W        W39241  21.475   7.112  14.791
71024W        W39242  20.235  33.428  14.895
71025W        W39243  38.370  38.826   2.893
71026W        W39244  39.489  35.055  10.752
71027W        W39245   6.362  35.323   4.790
71028W        W39246  11.338   1.543   2.429
71029W        W39247  19.580   1.902  14.879
71030W        W39248  38.445  35.457  12.424
71031W        W39249  11.095  36.950  12.440
71032W        W39250  11.444  39.233  14.914
71033W        W39251  31.620  30.211   3.430
71034W        W39252  16.211   4.710  14.917
71035W        W39253  19.224  20.578  10.452
71036W        W39254  10.049  30.968   3.381
71037W        W39255  30.715  38.309  12.176
71038W        W39256  29.386  20.528  12.161
71039W        W39257  13.673  44.152   2.824
71040W        W39258  27.469  11.982   0.984
71041W        W39259  35.445  10.151   0.417
71042W        W39260  33.133  18.223  12.015
71043W        W39261  30.416  30.657   3.816
71044W        W39262  42.008  37.820   0.305
71045W        W39263  21.153  12.664  10.705
71046W        W39264   4.844  15.696   1.693
71047W        W39265  39.448  17.941   2.290
71048W        W39266  40.373  24.153  11.195
71049W        W39267  27.504  42.638  11.353
71050W        W39268  44.424   3.499  14.463
71051W        W39269  40.908   3.235   0.401
71052W        W39270  41.096  26.182  13.243
71053W        W39271  29.968  31.395  11.460
71054W        W39272  34.652  19.718  14.608
71055W        W39273   8.208  28.404  11.102
71056W        W39274  20.040  11.154  11.656
71057W        W39275   2.512  34.000   1.915
71058W        W39276  36.197   6.373   2.009
71059W        W39277  29.292   5.095   1.782
71060W        W39278  36.226  21.661  13.185
71061W        W39279  36.464  16.791  14.445
71062W        W39280  20.049  33.142  12.541
71063W        W39281  38.470  40.565   0.395
71064W        W39282   8.503  34.117  11.696
71065W        W39283   7.250  16.120  11.225
71066W        W39284   3.113   0.029   3.156
71067W        W39285  29.893  43.610   4.126
71068W        W39286   2.655  32.508   2.830
71069W        W39287  33.603   6.688  12.975
71070W        W39288  16.760  44.490   2.215
71071W        W39289  22.547  28.880   1.094
71072W        W39290  16.782  18.908  10.482
71073W        W39291  24.796  26.368  11.037
71074W        W39292  31.478   4.934   2.814
71075W        W39293   4.710  38.844  13.270
71076W        W39294  36.994   6.122   4.414
71077W        W39295  11.016  36.628  11.671
71078W        W39296   8.697  22.728   4.544
71079W        W39297  20.849  14.273   5.506
71080W        W39298  29.440  13.622  12.374
71081W        W39299  15.412  21.683   1.140
71082W        W39300   1.579  18.666  10.815
71083W        W39301  43.718  41.451   3.236
71084W        W39302  21.728   8.870   4.995
71085W        W39303   2.404  30.866  13.127
71086W        W39304  14.796  33.921   5.014
71087W        W39305  15.746  31.020  12.123
71088W        W39306   1.377  41.365   3.347
71089W        W39307  23.206  25.118   1.454
71090W        W39308  43.390  13.630  10.329
71091W        W39309   4.518   2.510   0.735
71092W        W39310  37.305  29.036   3.566
71093W        W39311  11.880   8.181   3.593
71094W        W39312  32.417  26.944  11.980
71095W        W39313  42.510   4.703  10.264
71096W        W39314   1.392  34.375  10.573
71097W        W39315  29.848  43.899  12.934
71098W        W39316   8.187  25.034  10.646
71099W        W39317   0.399   4.352   3.526
71100W        W39318  20.219  19.613   1.191
71101W        W39319   3.818  33.605   0.354
71102W        W39320  30.738  44.339  11.342
71103W        W39321  13.965  26.948   1.401
71104W        W39322  24.793   0.956   3.342
71105W        W39323  16.044  24.107  11.939
71106W        W39324  43.773  13.253   1.663
71107W        W39325  11.796   1.710   0.727
71108W        W39326  36.421  21.166  12.056
71109W        W39327  11.269   5.288   4.786
71110W        W39328  25.218  34.258  14.915
71111W        W39329   8.501   9.669  14.550
71112W        W39330  28.569  40.462  14.304
71113W        W39331  19.481  40.368  10.957
71114W        W39332  16.151  18.842   3.335
71115W        W39333  11.752  24.577  13.335
71116W        W39334   2.823  14.309  11.754
71117W        W39335   5.438   5.948  12.122
71118W        W39336  41.014  25.263   3.432
71119W        W39337   3.870  10.581   2.642
71120W        W39338  28.467  41.209  14.829
71121W        W39339   1.290   9.887   3.573
71122W        W39340   3.105  20.003  11.150
71123W        W39341  21.487  21.233  10.565
71124W        W39342  20.630  33.539  13.485
71125W        W39343  29.362  10.912  14.500
71126W        W39344   2.648   6.256  13.534
71127W        W39345  36.134  33.090  12.864
71128W        W39346  20.203  37.301   2.260
71129W        W39347   4.077  24.120   3.911
71130W        W39348  41.809  37.776   3.606
71131W        W39349   3.195  28.173   0.945
71132W        W39350  43.712  23.777   2.859
71133W        W39351   4.421   1.044   4.450
71134W        W39352  23.563   6.981   4.646
71135W        W39353   1.956  23.637  11.151
71136W        W39354  26.193   6.263   0.853
71137W        W39355  23.158  32.065  14.943
71138W        W39356   8.599  24.137  10.470
71139W        W39357  39.331  41.823   3.206
71140W        W39358   3.424  26.125   2.054
71141W        W39359  25.127  30.727   1.313
71142W        W39360  44.005  13.200   3.668
71143W        W39361  21.802  44.448  13.050
71144W        W39362  32.267  23.747   1.091
71145W        W39363  43.524  24.136   1.147
71146W        W39364  34.660  11.223   2.715
71147W        W39365   5.345  12.233  14.228
71148W        W39366  37.374  33.459   3.296
71149W        W39367   4.785  27.993   4.074
71150W        W39368  22.526   5.289  10.655
71151W        W39369   0.726  28.739   0.899
71152W        W39370  41.305  12.157   3.575
71153W        W39371  44.858  41.102  11.548
71154W        W39372  18.688  37.403   3.201
71155W        W39373  33.051  12.381  13.820
71156W        W39374  31.522  11.293  14.696
71157W        W39375  19.775  24.147   1.275
71158W        W39376  17.716  39.313   2.731
71159W        W39377   4.991  18.764   0.022
71160W        W39378   0.055   6.470   2.752
71161W        W39379   1.810   2.749   4.778
71162W        W39380  40.539  34.162  11.490
71163W        W39381  41.846   3.810  11.447
71164W        W39382   7.830   3.935   2.847
71165W        W39383  32.525  23.962  13.059
71166W        W39384  10.355   8.638  12.610
71167W        W39385  13.056   2.525   0.804
71168W        W39386  22.673  41.140   2.230
71169W        W39387  34.367  37.013   0.009
71170W        W39388  27.660  42.505   4.173
71171W        W39389  19.643  31.901   4.937
71172W        W39390  42.503  18.481   2.633
71173W        W39391   0.526  11.654   4.696
71174W        W39392  19.461  16.770  10.168
71175W        W39393   8.240   8.157   3.759
71176W        W39394  15.663  18.637  14.831
71177W        W39395  35.616  12.929  14.819
71178W        W39396  16.706   1.997  10.975
71179W        W39397  18.159  31.130  14.414
71180W        W39398  37.392   7.157   0.901
71181W        W39399   2.025  10.082   3.337
71182W        W39400  15.351   4.939  13.908
71183W        W39401  34.468   7.355   1.860
71184W        W39402   9.847   3.243   1.365
71185W        W39403  32.540  37.066   2.715
71186W        W39404  29.511  20.766  14.385
71187W        W39405  13.225  24.098   3.559
71188W        W39406   1.710  14.094  13.351
71189W        W39407  41.415  26.036   2.230
71190W        W39408  33.599  17.802  14.454
71191W        W39409  39.412  40.851  11.840
71192W        W39410  32.235  43.017  11.499
71193W        W39411  28.899  36.892   1.919
71194W        W39412   4.261   7.448  14.398
71195W        W39413  42.451  32.924  11.575
71196W        W39414  34.308  38.739   5.074
71197W        W39415  32.590   3.315  12.454
71198W        W39416   0.369  22.849   3.005
71199W        W39417  16.273  17.227   0.199
71200W        W39418   1.560  39.781   1.208
71201W        W39419  17.745  35.247   2.325
71202W        W39420   7.398  23.022   4.121
71203W        W39421  14.096  29.132   4.203
71204W        W39422  18.599  40.325   0.411
71205W        W39423  22.327  44.307  12.190
71206W        W39424  44.889  26.456  10.632
71207W        W39425  17.013  42.612  10.456
71208W        W39426   9.349   9.208  11.494
71209W        W39427  26.846  17.274   1.854
71210W        W39428  34.808  17.984   2.489
71211W        W39429   2.296  36.899  10.605
71212W        W39430  12.413  27.517  11.045
71213W        W39431  19.069  31.595   0.290
71214W        W39432  29.058  40.727   1.030
71215W        W39433  15.173  39.012   4.635
71216W        W39434  18.788  35.632  12.049
71217W        W39435   8.351   6.416  12.683
71218W        W39436  21.479  19.255  10.724
71219W        W39437  20.674  39.594   3.204
71220W        W39438  10.019  35.064   4.144
71221W        W39439  17.240  31.100  11.910
71222W        W39440  10.210   6.128   3.130
71223W        W39441   6.305   3.114   0.006
71224W        W39442  24.852   1.718  12.835
71225W        W39443   1.831  42.571   3.874
71226W        W39444   9.793   2.616  12.442
71227W        W39445  14.356   4.226  10.651
71228W        W39446   6.316  20.328   0.438
71229W        W39447  19.528  10.812  10.577
71230W        W39448  29.602  22.524  10.063
71231W        W39449   0.121  30.359   4.577
71232W        W39450   4.533  22.681  14.645
71233W        W39451  20.631   5.279   2.128
71234W        W39452   0.364   0.869   1.735
71235W        W39453  44.229  18.295  13.438
71236W        W39454  13.817  29.440   1.455
71237W        W39455  28.138   0.692   4.256
71238W        W39456  25.038  25.795  12.803
71239W        W39457  29.192   0.842  12.806
71240W        W39458  40.805   0.514   4.550
71241W        W39459  38.469  26.185   3.902
71242W        W39460  30.753   9.802  14.127
71243W        W39461  42.045  23.004  10.983
71244W        W39462  22.816  36.004  13.929
71245W        W39463  38.957   1.107  11.669
71246W        W39464  17.674  25.040  11.501
71247W        W39465  19.654  16.658  10.683
71248W        W39466  11.702   1.472  13.889
71249W        W39467  38.579  36.334   0.449
71250W        W39468   2.096  23.345  11.574
71251W        W39469   5.047   5.887  10.697
71252W        W39470  14.590  13.685  12.347
71253W        W39471  28.489  39.148  11.168
71254W        W39472  29.371   0.010  13.796
71255W        W39473  19.649  43.896  13.317
71256W        W39474  30.665   0.151  13.797
71257W        W39475  18.735  34.800  13.998
71258W        W39476  44.217  42.884   4.293
71259W        W39477  35.085   0.805  14.899
71260W        W39478  26.736  31.697   3.263
71261W        W39479  19.317  21.525  11.103
71262W        W39480  14.762   7.447  12.533
71263W        W39481  35.172   6.391   4.141
71264W        W39482   2.154  26.923  14.285
71265W        W39483  35.024   2.452   1.473
71266W        W39484   8.435  21.407   2.824
71267W        W39485   8.132  20.185   2.484
71268W        W39486  12.215   2.959   1.742
71269W        W39487  43.240  25.529   2.016
71270W        W39488  29.190  28.831  14.514
71271W        W39489   5.687   8.170  14.775
71272W        W39490   1.467  32.867  11.599
71273W        W39491  25.125  30.060  13.594
71274W        W39492   9.918  21.095   2.336
71275W        W39493  25.062  26.421  12.706
71276W        W39494  34.311  41.264   1.428
71277W        W39495  16.575  24.507  11.191
71278W        W39496  12.578  24.534   2.457
71279W        W39497  17.009   8.911   0.905
71280W        W39498  29.407  35.964  13.460
71281W        W39499   7.890  40.673   0.904
71282W        W39500  43.079   9.754   0.904
71283W        W39501  21.826  11.397  12.542
71284W        W39502   2.816   7.231   0.746
71285W        W39503  35.474  16.538   2.626
71286W        W39504  11.091   6.899  12.744
71287W        W39505   3.959  27.610   0.863
71288W        W39506   2.219  19.646   4.305
71289W        W39507  17.166  21.513  13.865
71290W        W39508  29.986   9.009   4.464
71291W        W39509  31.655   3.330   3.366
71292W        W39510  13.513  14.660  12.924
71293W        W39511   9.420   9.258  10.749
71294W        W39512   6.487  31.680   3.945
71295W        W39513  44.262  22.097   1.307
71296W        W39514   2.389  27.005   4.071
71297W        W39515  22.821  23.060   2.218
71298W        W39516  23.883  36.054   1.362
71299W        W39517   1.266  33.496   4.183
71300W        W39518   5.420  40.806   3.127
71301W        W39519  44.840   6.451  12.442
71302W        W39520  27.612   1.816  12.253
71303W        W39521  15.509  39.907  14.812
71304W        W39522  15.878  10.780  10.261
71305W        W39523  29.777  18.120  14.404
71306W        W39524  31.398   5.934  12.376
71307W        W39525  41.298  33.637  12.408
71308W        W39526  17.994  13.896  13.828
71309W        W39527  16.708   0.439   5.037
71310W        W39528  21.248  31.969   2.347
71311W        W39529  22.749  42.342   3.104
71312W        W39530   2.798  24.589  12.682
71313W        W39531   2.469  10.166  14.916
71314W        W39532  14.574  32.535  13.798
71315W        W39533  12.615  43.002  14.414
71316W        W39534   8.538  30.520  12.228
71317W        W39535  36.316   6.359  12.077
71318W        W39536  11.609  42.014   1.285
71319W        W39537  39.474   0.527   2.395
71320W        W39538  10.383  18.110  11.577
71321W        W39539  16.816  39.803   3.022
71322W        W39540  18.118  10.640  14.343
71323W        W39541  44.831  43.984  10.591
71324W        W39542  26.571   2.590   1.396
71325W        W39543  43.119   1.255   2.356
71326W        W39544  14.330  15.914  13.849
71327W        W39545  44.506  30.305   3.404
71328W        W39546  10.906   0.895   3.628
71329W        W39547  14.167  16.193   1.638
71330W        W39548  36.419  31.152   1.864
71331W        W39549  44.432   7.399   1.344
71332W        W39550  14.742  29.907   3.484
71333W        W39551  31.291  14.171  11.237
71334W        W39552  25.398  26.130  13.003
71335W        W39553  31.883   8.290  14.832
71336W        W39554  44.989   3.001  12.850
71337W        W39555   5.777  28.096   0.724
71338W        W39556  15.478   8.221   2.738
71339W        W39557  17.601  29.026   0.185
71340W        W39558  17.674  43.274   4.384
71341W        W39559  40.011  17.243   2.523
71342W        W39560  25.202  23.351  11.490
71343W        W39561  32.009  15.016   1.474
71344W        W39562  14.559  21.670   3.089
71345W        W39563   3.179  21.177  12.615
71346W        W39564  39.903  21.017   5.061
71347W        W39565  38.814  27.195  14.793
71348W        W39566  35.062  18.578  13.741
71349W        W39567  29.468   1.912  12.005
71350W        W39568  31.598  34.148   3.885
71351W        W39569   8.131  40.398  11.153
71352W        W39570  30.041  34.421   4.076
71353W        W39571  11.844  19.446  11.449
71354W        W39572  28.193  10.033   4.115
71355W        W39573  17.776  30.027  12.341
71356W        W39574  13.717  35.641  13.319
71357W        W39575  42.396  37.907   2.180
71358W        W39576  26.481  10.773  10.959
71359W        W39577   0.780  37.538   2.684
71360W        W39578  18.779  10.240  12.696
71361W        W39579  29.116  31.396   3.178
71362W        W39580   7.869  37.103  13.838
71363W        W39581  14.547  15.271   1.419
71364W        W39582   0.811  18.565  14.923
71365W        W39583  14.402  24.260  12.560
71366W        W39584  44.826   0.530   0.527
71367W        W39585   0.314  31.963  14.114
71368W        W39586  22.540  38.762  10.083
71369W        W39587   2.253  43.392  12.572
71370W        W39588  25.526  43.145   2.840
71371W        W39589  33.293  24.529  13.133
71372W        W39590   1.777  13.865   0.913
71373W        W39591   4.956  29.748  14.332
71374W        W39592   7.528  19.862  10.203
71375W        W39593  10.734  25.693   0.076
71376W        W39594  24.584   5.121   2.130
71377W        W39595  18.287  31.448   0.745
71378W        W39596  19.115   0.672   3.135
71379W        W39597  43.505  42.570  11.504
71380W        W39598  18.738  22.633   4.977
71381W        W39599   3.541   8.655   4.621
71382W        W39600  32.454  38.906  14.380
71383W        W39601   8.174  37.455  13.051
71384W        W39602  44.577  32.606  13.740
71385W        W39603  19.030   1.880  10.824
71386W        W39604   7.389  26.525   3.408
71387W        W39605  33.025  29.001  14.997
71388W        W39606  15.334  39.775   2.917
71389W        W39607  41.959  43.918   0.419
71390W        W39608  43.401  39.282  12.810
71391W        W39609  43.944  35.677   2.326
71392W        W39610  36.402  22.991   1.484
71393W        W39611   6.349   3.293  13.559
71394W        W39612  12.366   3.324   1.326
71395W        W39613  31.915  33.418  11.160
71396W        W39614  42.704  43.424   2.719
71397W        W39615  32.092  27.522   0.247
71398W        W39616  31.077  33.369   1.722
71399W        W39617  26.264   4.979  13.800
71400W        W39618  43.746   8.296   4.287
71401W        W39619   4.789  24.667  13.402
71402W        W39620  22.513  44.032   3.680
71403W        W39621  39.274  41.477   2.718
71404W        W39622   3.282  20.250   2.347
71405W        W39623  22.513  22.469  11.183
71406W        W39624   5.865  44.505  14.252
71407W        W39625  43.899  22.898  10.945
71408W        W39626  27.318   3.900   0.365
71409W        W39627  35.829  30.563   1.567
71410W        W39628  13.237   2.268  11.606
71411W        W39629  14.253  38.733   4.525
71412W        W39630  16.692  19.653   4.799
71413W        W39631  14.866  34.884   4.173
71414W        W39632   2.725  19.034   2.095
71415W        W39633  36.944  40.217   1.756
71416W        W39634  11.151  35.598   3.647
71417W        W39635  15.390   1.197  11.081
71418W        W39636   7.427   4.950   3.773
71419W        W39637   9.703  17.152   1.935
71420W        W39638  39.510   1.190   1.027
71421W        W39639   5.215  28.890   2.777
71422W        W39640  18.372   5.715   1.105
71423W        W39641  30.910  21.696   4.671
71424W        W39642  10.701  17.332   1.880
71425W        W39643  38.903  34.402  11.684
71426W        W39644  30.216  31.769  14.023
71427W        W39645  38.929   0.769   2.463
71428W        W39646  41.071  32.879  14.004
71429W        W39647  39.829  39.344  14.272
71430W        W39648  27.361  31.752   1.764
71431W        W39649   6.932   6.436  13.558
71432W        W39650   8.662   4.713  12.484
71433W        W39651  12.036  24.720  11.585
71434W        W39652  14.751  17.251   1.225
71435W        W39653  20.369  19.280   2.833
71436W        W39654  23.120  16.840  13.368
71437W        W39655  15.557   1.277  13.410
71438W        W39656  42.187  24.678   3.126
71439W        W39657  22.851  26.535  14.770
71440W        W39658   5.783   8.852   3.640
71441W        W39659   9.664  38.854  10.712
71442W        W39660  33.379   3.454   2.762
71443W        W39661   7.798  32.520   4.754
71444W        W39662   7.810  38.909  13.531
71445W        W39663  40.189   4.053   4.632
71446W        W39664  22.991  21.062  11.996
71447W        W39665  43.133  36.629   3.308
71448W        W39666  21.098  26.224  10.612
71449W        W39667  18.173   3.528   4.279
71450W        W39668  43.076   2.466  12.740
71451W        W39669  20.541  31.285   0.225
71452W        W39670  26.111  43.509  14.700
71453W        W39671  44.294  27.325   3.297
71454W        W39672   2.661  23.207  13.012
71455W        W39673  39.450  31.367  12.337
71456W        W39674  34.669  14.989   2.064
71457W        W39675  34.263  40.113  13.488
71458W        W39676  19.582  34.410   3.204
71459W        W39677  31.388  33.914  12.053
71460W        W39678   0.905  14.909  12.415
71461W        W39679  35.329  31.407   3.877
71462W        W39680  41.374   8.547  12.052
71463W        W39681  14.410  30.386   3.733
71464W        W39682  21.416  19.634   3.207
71465W        W39683  24.425  29.119  11.804
71466W        W39684   9.173  32.496  14.553
71467W        W39685  13.599  36.826   1.395
71468W        W39686  28.422  31.891  14.437
71469W        W39687  14.179  29.432   1.841
71470W        W39688   2.544  24.630  14.216
71471W        W39689   3.937  32.494   3.285
71472W        W39690  28.056  19.264  11.475
71473W        W39691   8.910  40.049  14.358
71474W        W39692  11.954  12.753  14.901
71475W        W39693  37.543  35.084  12.954
71476W        W39694  42.879  35.496   1.513
71477W        W39695  34.609  14.016  13.504
71478W        W39696  17.627  44.482  11.173
71479W        W39697  39.125  21.159   3.612
71480W        W39698  13.205   7.789   4.863
71481W        W39699  16.832  29.047   1.685
71482W        W39700  25.907   8.379  12.820
71483W        W39701   8.649   2.765  11.909
71484W        W39702   2.160  36.407   3.709
71485W        W39703  32.901  14.141   3.194
71486W        W39704  30.688   4.997   0.205
71487W        W39705  38.456  42.700   2.231
71488W        W39706  29.713  17.131   2.202
71489W        W39707  17.667  38.745   3.802
71490W        W39708  29.927  14.282   0.062
71491W        W39709  21.932  34.455   0.928
71492W        W39710  44.805  27.698  14.862
71493W        W39711   7.645  29.546   0.088
71494W        W39712   1.412  21.938  13.500
71495W        W39713  20.479  12.959  11.074
71496W        W39714  19.089   9.744   1.689
71497W        W39715  25.665  29.566   1.878
71498W        W39716  14.810   4.427   2.628
71499W        W39717  10.998  23.438   1.226
71500W        W39718  28.163   8.784   0.691
71501W        W39719  34.329  17.672   4.056
71502W        W39720  38.448   0.831   4.661
71503W        W39721  33.345  19.662   1.615
71504W        W39722  38.873  35.120  13.980
71505W        W39723  20.001  17.852  12.516
71506W        W39724  29.143  32.595  14.953
71507W        W39725  20.815  27.728  13.782
71508W        W39726  17.091  43.447   0.757
71509W        W39727  13.272  11.307   5.373
71510W        W39728   7.667   7.878   0.789
71511W        W39729  26.861  15.120  14.023
71512W        W39730  18.776  32.096  12.178
71513W        W39731  36.455  37.851   2.402
71514W        W39732   9.598  28.327  11.298
71515W        W39733  34.288  33.924  12.987
71516W        W39734  27.003  37.296   0.862
71517W        W39735  11.818  32.197   4.560
71518W        W39736   0.442  16.597   1.672
71519W        W39737  20.563   4.331  11.639
71520W        W39738  29.107   5.630   2.585
71521W        W39739  16.381  40.107  10.764
71522W        W39740   0.269  36.563   0.457
71523W        W39741  24.517  38.451   2.768
71524W        W39742  29.147  28.622  11.055
71525W        W39743  40.343   8.829  11.819
71526W        W39744  37.237   0.042   2.321
71527W        W39745  41.468  29.684   4.729
71528W        W39746  23.082  16.876   2.562
71529W        W39747   8.291  15.339   4.145
71530W        W39748  20.205  37.536   3.895
71531W        W39749  30.214  13.069   4.653
71532W        W39750  24.509   2.477   2.691
71533W        W39751  29.567  32.190  11.557
71534W        W39752  20.943  25.652  11.524
71535W        W39753  15.399  11.560   4.325
71536W        W39754  15.329  35.139   4.187
71537W        W39755  24.081  43.108  13.858
71538W        W39756  27.490  39.347  11.243
71539W        W39757  15.179  31.960   0.994
71540W        W39758  37.451  32.878   1.793
71541W        W39759  32.087  43.414   3.731
71542W        W39760  39.703  25.118   4.202
71543W        W39761   2.368  37.313  13.333
71544W        W39762  28.953  25.950  14.435
71545W        W39763  19.965   4.121   3.675
71546W        W39764  39.388  33.452   0.041
71547W        W39765  20.649  10.567   2.803
71548W        W39766  24.268  18.146   4.083
71549W        W39767  29.552  22.174  14.900
71550W        W39768  41.765  10.994   0.295
71551W        W39769  36.074  42.733  13.914
71552W        W39770  36.402  38.017   1.916
71553W        W39771  14.913  38.521  12.122
71554W        W39772  12.714  33.949   4.272
71555W        W39773  11.706  30.195   2.991
71556W        W39774  18.620  16.984  11.675
71557W        W39775  24.168   7.384  12.042
71558W        W39776  30.676  11.440   4.505
71559W        W39777  26.915  13.091  13.927
71560W        W39778  23.502   1.009  11.094
71561W        W39779  20.320  10.156   3.875
71562W        W39780  36.194  26.710   2.253
71563W        W39781   9.628   5.555  10.699
71564W        W39782  21.010  37.912  14.795
71565W        W39783  16.534   0.762   3.770
71566W        W39784  13.164  44.467  12.810
71567W        W39785  23.639   6.816   3.231
71568W        W39786  28.941  42.751  13.392
71569W        W39787  36.792   5.547  12.968
71570W        W39788  32.868  29.156   1.018
71571W        W39789   0.634  25.610  12.675
71572W        W39790  14.281  15.741  14.737
71573W        W39791  42.449  44.682  11.141
71574W        W39792  39.729  43.342   1.729
71575W        W39793  43.297   9.190   0.067
71576W        W39794  43.012   3.031   1.864
71577W        W39795   6.944  30.197   4.062
71578W        W39796  12.575  26.554  14.329
71579W        W39797  44.925  15.552  12.768
71580W        W39798  25.737   7.769   3.019
71581W        W39799  42.026   3.267   0.903
71582W        W39800  11.880  11.114   0.314
71583W        W39801  21.641   8.375   1.887
71584W        W39802   6.683  37.367   1.794
71585W        W39803  25.135   4.268  13.961
71586W        W39804  27.159  44.659   1.003
71587W        W39805  12.700  18.832   0.835
71588W        W39806  25.081  43.918   3.020
71589W        W39807  28.007  15.189  10.772
71590W        W39808   1.272  37.355   2.621
71591W        W39809  40.561  10.704  14.984
71592W        W39810  27.145  23.403  10.766
71593W        W39811  22.588  13.282   0.825
71594W        W39812  28.939  40.439   0.241
71595W        W39813  25.545  44.253  14.902
71596W        W39814  19.412  40.715   2.781
71597W        W39815  15.262  31.154   4.491
71598W        W39816  15.033   0.001   0.761
71599W        W39817  22.013  44.735  13.474
71600W        W39818  11.451  14.107  14.270
71601W        W39819  19.743   4.849  12.241
71602W        W39820  15.767  14.316  11.379
71603W        W39821  42.023  14.039   1.688
71604W        W39822  22.272  18.817  14.705
71605W        W39823  12.159  44.415   2.580
71606W        W39824   9.901  12.814   0.763
71607W        W39825   4.654  10.595   4.071
71608W        W39826  26.659  41.349  13.597
71609W        W39827  23.038  10.188  12.360
71610W        W39828  29.368   0.210  11.603
71611W        W39829  37.396  44.343   0.084
71612W        W39830  17.148  16.219   4.687
71613W        W39831   5.265  42.004   3.600
71614W        W39832  39.940  13.364   0.024
71615W        W39833  44.395  24.569   4.500
71616W        W39834  33.585   6.663   2.376
71617W        W39835  13.748   9.176   1.533
71618W        W39836  10.471  12.041   4.040
71619W        W39837   9.236  20.130  13.294
71620W        W39838   0.241   8.336  13.371
71621W        W39839  39.001   2.974  13.009
71622W        W39840  44.263   6.082  10.884
71623W        W39841  25.371   4.833   3.633
71624W        W39842  12.676   2.018  14.800
71625W        W39843  11.376  33.541   3.559
71626W        W39844  43.515  31.272  13.326
71627W        W39845  39.070  19.586  10.480
71628W        W39846   6.877  27.293   3.022
71629W        W39847   3.306  22.712   3.323
71630W        W39848  12.647  32.532   4.293
71631W        W39849   1.034   5.495  13.518
71632W        W39850  17.164  14.151  11.295
71633W        W39851  10.860  40.382  10.732
71634W        W39852  44.096   4.868  12.161
71635W        W39853  20.665   0.498   4.400
71636W        W39854  16.018  28.012   3.608
71637W        W39855   3.842   9.758  12.329
71638W        W39856  41.587   2.996  12.871
71639W        W39857  25.542  42.676   2.660
71640W        W39858  26.577  40.062  11.660
71641W        W39859  10.511   9.056  10.418
71642W        W39860  40.499  39.103  12.645
71643W        W39861  26.442  13.330   1.644
71644W        W39862  25.567  35.390   4.414
71645W        W39863  20.763  15.715   1.763
71646W        W39864  12.918  14.256  11.231
71647W        W39865  44.997  35.594  11.923
71648W        W39866   8.654  43.375   1.713
71649W        W39867   7.901  27.226  11.853
71650W        W39868  23.724  13.141   2.413
71651W        W39869  33.649  22.588  13.100
71652W        W39870   0.927  13.957  13.863
71653W        W39871   2.368  18.997  11.613
71654W        W39872  22.112  39.305  12.024
71655W        W39873  11.167  37.384   3.198
71656W        W39874  22.510  33.185   3.155
71657W        W39875  34.389   9.890   3.766
71658W        W39876  35.074  39.473  14.484
71659W        W39877  21.556  27.973   0.311
71660W        W39878  29.101  19.503   4.757
71661W        W39879  26.123  38.024  14.831
71662W        W39880  13.599  27.535   3.751
71663W        W39881  40.972   1.301   2.790
71664W        W39882   2.467   6.138  11.225
71665W        W39883  43.955  24.280   3.725
71666W        W39884   3.335  25.006  10.706
71667W        W39885   4.830  39.374  12.547
71668W        W39886   4.316   6.242  13.819
71669W        W39887  36.500  23.586  11.905
71670W        W39888   9.299  26.720  13.438
71671W        W39889  11.457  19.656  11.156
71672W        W39890  11.842  39.112   0.252
71673W        W39891  27.290  15.129   1.694
71674W        W39892   4.413  15.732  12.497
71675W        W39893  34.457  40.049   0.969
71676W        W39894  16.702   1.895   9.705
71677W        W39895  35.123  25.106   3.226
71678W        W39896   0.553  35.033  12.472
71679W        W39897  32.343  17.731   2.983
71680W        W39898  35.246  42.299   0.736
71681W        W39899  39.142  33.326   2.712
71682W        W39900  42.406  16.794  14.056
71683W        W39901  12.793  18.396   1.785
71684W        W39902  12.569   0.315   2.429
71685W        W39903  30.797  16.135  12.590
71686W        W39904  14.203  35.735  13.521
71687W        W39905  27.167  20.638   2.317
71688W        W39906  32.060  34.925  11.008
71689W        W39907   9.800  22.755   1.316
71690W        W39908  43.760  26.166   3.732
71691W        W39909  33.853  10.348   1.229
71692W        W39910  22.478   8.954   3.195
71693W        W39911   0.201   9.616  12.889
71694W        W39912  17.983  43.740  12.964
71695W        W39913  39.241  23.050   3.418
71696W        W39914   2.692  18.279  11.153
71697W        W39915  30.509  31.992   3.264
71698W        W39916   0.383  15.028   4.799
71699W        W39917  21.503  17.803   0.996
71700W        W39918  13.885  19.931   0.428
71701W        W39919  28.941  18.274   5.086
71702W        W39920  17.881  25.459  12.994
71703W        W39921  31.164   3.828   4.014
71704W        W39922  35.593  38.471  12.933
71705W        W39923  35.271  36.564   4.639
71706W        W39924  20.952  42.803  10.440
71707W        W39925   9.735  12.827   4.713
71708W        W39926  14.850  25.219   4.137
71709W        W39927  42.716  11.633   2.874
71710W        W39928   4.886  44.438   2.674
71711W        W39929  20.060  39.124   4.342
71712W        W39930  10.178  25.718   0.431
71713W        W39931  26.706  16.652  13.314
71714W        W39932  32.032  21.850   0.302
71715W        W39933  30.387   4.443   4.110
71716W        W39934  14.604  29.694  14.292
71717W        W39935   4.532  33.160  10.687
71718W        W39936  11.314  40.958  13.581
71719W        W39937  12.636  35.054   1.942
71720W        W39938   9.859   9.748  14.945
71721W        W39939  15.661  34.197   2.228
71722W        W39940  35.971  23.947   0.075
71723W        W39941  43.510  27.429  13.023
71724W        W39942  18.436  14.532   1.508
71725W        W39943  38.223  30.484  12.712
71726W        W39944   3.471  19.523   0.066
71727W        W39945  28.481  12.694   4.136
71728W        W39946  35.276  39.982  12.533
71729W        W39947  18.779  35.054  14.458
71730W        W39948  31.372  18.074  12.656
71731W        W39949   6.249   9.401  11.675
71732W        W39950  40.841  24.485   0.396
71733W        W39951   2.603  17.052   1.288
71734W        W39952  39.450   4.710   0.933
71735W        W39953   1.351   4.172  11.978
71736W        W39954   3.174  16.895  10.452
71737W        W39955  19.816  14.131   0.706
71738W        W39956  43.412  17.811  13.700
71739W        W39957  44.833  17.877  11.499
71740W        W39958  14.688   5.186   4.113
71741W        W39959  27.136  12.367  14.732
71742W        W39960  11.667  15.737   4.390
71743W        W39961  25.499   9.513   0.997
71744W        W39962  34.911   3.134   3.692
71745W        W39963  12.436  18.108  10.691
71746W        W39964  35.566   0.234  11.982
71747W        W39965  36.201  39.968  14.532
71748W        W39966   8.712  24.426   1.886
71749W        W39967   6.458  18.861   3.149
71750W        W39968  11.098   4.514  13.690
71751W        W39969  31.943   7.311  14.366
71752W        W39970  11.315  21.759   0.396
71753W        W39971  14.341  15.180  11.431
71754W        W39972  44.363  27.992   1.405
71755W        W39973  29.991  12.224  12.679
71756W        W39974  25.384   3.688   0.154
71757W        W39975  25.281  41.772  11.963
71758W        W39976  21.693  33.691  12.345
71759W        W39977  26.937  35.360   0.834
71760W        W39978  39.365   8.859   0.723
71761W        W39979  35.542  14.508  13.980
71762W        W39980  27.594  21.110   3.602
71763W        W39981  43.267  32.476  14.290
71764W        W39982  28.144   0.366   3.407
71765W        W39983   3.680  10.407   1.928
71766W        W39984  10.322  26.168  11.231
71767W        W39985   8.372  40.484   1.082
71768W        W39986  42.439  15.776  14.852
71769W        W39987   1.663  36.902   0.922
71770W        W39988  14.688  31.861   0.825
71771W        W39989  39.911  11.306   0.045
71772W        W39990  34.210  16.132   2.689
71773W        W39991  17.804  43.026  13.559
71774W        W39992  30.536  14.931  10.568
71775W        W39993   9.006  30.667   4.176
71776W        W39994  11.759  17.020  12.474
71777W        W39995   9.569  43.306   4.048
71778W        W39996  37.399  41.638   1.671
71779W        W39997  42.066  22.035  10.681
71780W        W39998  33.332  44.217   0.746
71781W        W39999  40.898  20.480  10.761
71782W        W40000  35.611  31.930   4.072
71783W        W40001  35.511  30.508  12.369
71784W        W40002  31.563  16.140   0.214
71785W        W40003  15.082   1.998   4.201
71786W        W40004   0.327  19.011   4.054
71787W        W40005  14.847   8.243  14.353
71788W        W40006  14.189   8.727   3.982
71789W        W40007  15.675  16.386  13.101
71790W        W40008  26.201  36.484   2.119
71791W        W40009   8.067  32.316   1.806
71792W        W40010  36.353  34.430  12.923
71793W        W40011  37.171  41.984  12.027
71794W        W40012  36.611  15.908   4.977
71795W        W40013  34.678  33.067  11.183
71796W        W40014   9.772  41.630  12.904
71797W        W40015  13.362  24.546   0.820
71798W        W40016  10.253  36.328  11.397
71799W        W40017  20.891   8.923   2.397
71800W        W40018  22.774  11.237   2.396
71801W        W40019  26.870   4.280  13.895
71802W        W40020  36.309  29.158  14.837
71803W        W40021   4.837  35.255   2.149
71804W        W40022  16.637  11.304  13.961
71805W        W40023  32.497   6.764  14.102
71806W        W40024  20.785  42.416   5.088
71807W        W40025  30.464  37.198  10.510
71808W        W40026  14.526   7.657  12.974
71809W        W40027  14.592  31.555   1.717
71810W        W40028   3.369  33.170   5.194
71811W        W40029  20.030  20.577  12.558
71812W        W40030  21.190  18.608  14.726
71813W        W40031  39.516  23.990   1.314
71814W        W40032  31.170  35.803  13.453
71815W        W40033  43.859   2.065   1.030
71816W        W40034  15.226  40.251   1.289
71817W        W40035   6.342  24.149   2.180
71818W        W40036   9.283  42.671  12.369
71819W        W40037  29.061  33.776  14.435
71820W        W40038  19.654  23.635   1.341
71821W        W40039  30.677  30.267  11.737
71822W        W40040  20.042   8.475  13.812
71823W        W40041  12.184  21.596  12.410
71824W        W40042  26.470  12.377  13.569
71825W        W40043  26.270  36.971   2.914
71826W        W40044  36.502  39.942   3.730
71827W        W40045  32.367  32.326   3.747
71828W        W40046   2.327  12.219  12.408
71829W        W40047  39.456  29.922   4.605
71830W        W40048  33.746  12.871   2.359
71831W        W40049   4.124  17.596  13.041
71832W        W40050   5.694  11.212   3.689
71833W        W40051   8.245  23.535   2.402
71834W        W40052  16.800   1.832   0.779
71835W        W40053  44.789  42.457  13.795
71836W        W40054  35.273   7.637  13.985
71837W        W40055  27.834  28.163   4.176
71838W        W40056  17.404   9.762  12.439
71839W        W40057  33.712  10.646  13.375
71840W        W40058  32.916   7.349  13.997
71841W        W40059   9.737  34.612  10.578
71842W        W40060  13.871  38.542   3.301
71843W        W40061  16.606  12.171   3.795
71844W        W40062  33.489  39.408  12.814
71845W        W40063  41.425   8.871   3.250
71846W        W40064   7.406  28.035  11.473
71847W        W40065  22.600  19.527  12.081
71848W        W40066  39.397  13.860  12.453
71849W        W40067  10.195   6.305  10.449
71850W        W40068  26.143  28.214  13.558
71851W        W40069  33.388  37.963  11.075
71852W        W40070  16.830  33.898   2.726
71853W        W40071  38.011  23.484   3.711
71854W        W40072   4.419  39.539  13.301
71855W        W40073  42.317  12.319   2.333
71856W        W40074  11.432  27.008  12.119
71857W        W40075  22.230  25.187   3.121
71858W        W40076   5.805  11.792  11.215
71859W        W40077  26.329   6.883   3.212
71860W        W40078  13.582   3.904   4.123
71861W        W40079  34.257  10.074   1.085
71862W        W40080  36.335  26.417  10.493
71863W        W40081  28.327  21.189  10.610
71864W        W40082  36.156  44.026  13.775
71865W        W40083   4.122   2.962  14.304
71866W        W40084  42.504  21.024   4.853
71867W        W40085  25.244  20.768  14.734
71868W        W40086  15.169   3.408   1.481
71869W        W40087  38.428   9.793   1.372
71870W        W40088   0.753  10.446   2.811
71871W        W40089  11.706  36.551   3.628
71872W        W40090  19.678  33.253   4.971
71873W        W40091  27.150  23.080   2.357
71874W        W40092   2.209  22.012   0.811
71875W        W40093  12.852  22.227  14.136
71876W        W40094  14.076  42.510  14.687
71877W        W40095  42.407  42.588  13.925
71878W        W40096  20.897  35.469  14.688
71879W        W40097  17.732  19.117   0.513
71880W        W40098  25.686  13.097  12.255
71881W        W40099  32.593  18.330  10.540
71882W        W40100  18.053  26.025  13.984
71883W        W40101  21.298   5.188  11.088
71884W        W40102  41.960  43.044   3.754
71885W        W40103   8.438  42.256   1.360
71886W        W40104  39.047  31.520  13.330
71887W        W40105  31.035  34.309   1.735
71888W        W40106  23.634   3.449   3.401
71889W        W40107  16.147   8.646   4.171
71890W        W40108  10.236  16.836  13.918
71891W        W40109   2.735  26.114  14.656
71892W        W40110  34.389  41.035   1.913
71893W        W40111  30.864  42.018  11.126
71894W        W40112  14.461   1.290  14.233
71895W        W40113  13.669  37.933   4.728
71896W        W40114  26.170  18.616  12.389
71897W        W40115  12.531  43.588   3.698
71898W        W40116  26.572  27.153   1.575
71899W        W40117  43.534  25.103   3.130
71900W        W40118  10.187  25.215   2.389
71901W        W40119  29.008   6.096   2.771
71902W        W40120   2.260  42.341   1.780
71903W        W40121  23.080   5.007  14.250
71904W        W40122  26.664  25.084   4.458
71905W        W40123   8.484   5.990  13.951
71906W        W40124  31.179   9.456  12.283
71907W        W40125   4.148  42.494  14.485
71908W        W40126  10.854  43.737   2.666
71909W        W40127  34.747   4.882   1.746
71910W        W40128  15.715  17.621   4.762
71911W        W40129  28.728  24.942   4.913
71912W        W40130   5.533  38.142  12.014
71913W        W40131  41.271   9.651  13.546
71914W        W40132  25.120  21.821   2.108
71915W        W40133  15.704  23.686   0.333
71916W        W40134   1.291   2.107   4.395
71917W        W40135  26.451   8.846   1.486
71918W        W40136  34.531  43.083  14.963
71919W        W40137  15.208  26.363  11.289
71920W        W40138  23.305  31.392   4.619
71921W        W40139  40.419   0.739   0.944
71922W        W40140   5.602  13.229   1.079
71923W        W40141  38.822   1.614  11.700
71924W        W40142   1.802  37.818  14.975
71925W        W40143  18.394  12.109  13.426
71926W        W40144  41.785  35.427  10.688
71927W        W40145  11.984  15.127  14.826
71928W        W40146   5.663  44.790   3.671
71929W        W40147  14.771  23.945   3.184
71930W        W40148  21.787  14.478   2.165
71931W        W40149   9.448  27.137   4.177
71932W        W40150  41.842   1.721   3.288
71933W        W40151  23.952  13.119   3.823
71934W        W40152   7.800  38.866   1.695
71935W        W40153  21.224  39.402   4.715
71936W        W40154  18.988  38.763  11.158
71937W        W40155  37.104  14.022  14.894
71938W        W40156   1.522  32.219  12.164
71939W        W40157   6.132  10.265   2.323
71940W        W40158  36.617  34.037   2.441
71941W        W40159  21.290   0.342   3.573
71942W        W40160  15.291   8.335   1.810
71943W        W40161  19.157  29.493   1.713
71944W        W40162   0.465  19.660  12.410
71945W        W40163  39.373  33.882   1.720
71946W        W40164  33.145  38.293   2.148
71947W        W40165  31.084   5.987   0.913
71948W        W40166   8.185  22.773   3.701
71949W        W40167  22.974   2.767  10.578
71950W        W40168  17.706  39.834   2.789
71951W        W40169  35.865  13.889   4.380
71952W        W40170   1.403   1.207  13.003
71953W        W40171  19.468  11.800  11.549
71954W        W40172   3.620  28.963  10.608
71955W        W40173  27.627  27.712   2.167
71956W        W40174  25.657  41.277  12.811
71957W        W40175  40.662  12.331  14.370
71958W        W40176   5.499  25.209   2.702
71959W        W40177  36.030  36.437  14.782
71960W        W40178  32.548   8.997  14.932
71961W        W40179  33.954  21.545  14.248
71962W        W40180  17.447  21.193  10.244
71963W        W40181  16.254  41.339  12.130
71964W        W40182  17.665  13.697  13.463
71965W        W40183  14.257   1.362  10.440
71966W        W40184  14.765  13.257  12.590
71967W        W40185  32.888   7.335   0.463
71968W        W40186  25.415  29.154  12.018
71969W        W40187  12.356  31.810   4.830
71970W        W40188  24.380  20.132  13.117
71971W        W40189  38.867  18.789   0.402
71972W        W40190  28.047   3.072   1.886
71973W        W40191  43.502  37.871   3.825
71974W        W40192  25.218  31.032  10.738
71975W        W40193  35.452  27.244  12.980
71976W        W40194  42.311  16.366   3.711
71977W        W40195  21.529  29.469  14.250
71978W        W40196  12.163   5.190   3.713
71979W        W40197  42.288   1.294   2.714
71980W        W40198  10.091  24.773   4.798
71981W        W40199  27.274  15.086  14.886
71982W        W40200  20.642  34.635   3.171
71983W        W40201   8.935   7.741   2.188
71984W        W40202  22.721  26.090  12.172
71985W        W40203  35.896  36.832   0.099
71986W        W40204  17.038  10.371  13.255
71987W        W40205  27.609   8.621  12.950
71988W        W40206  29.940  34.639  14.991
71989W        W40207  32.933   7.176   2.731
71990W        W40208  44.989  39.553  11.229
71991W        W40209  44.113   9.335   5.227
71992W        W40210   9.214  30.572  13.411
71993W        W40211  28.815  13.086   4.278
71994W        W40212  23.059  27.716  11.543
71995W        W40213  10.809  10.669   0.277
71996W        W40214  22.007  39.779   1.496
71997W        W40215  32.072  24.888  14.411
71998W        W40216  27.463   1.380   4.074
71999W        W40217  23.422  17.242   3.750
72000W        W40218  34.275  28.477   0.674
72001W        W40219   1.167  43.431  13.368
72002W        W40220  40.025   5.963   2.305
72003W        W40221  31.409  11.849   4.031
72004W        W40222  24.950  27.711   3.998
72005W        W40223  43.777  15.916   0.759
72006W        W40224  28.118  18.792   4.434
72007W        W40225   3.668  10.155   2.849
72008W        W40226   8.383  17.366   4.008
72009W        W40227   9.975  33.445  12.568
72010W        W40228  25.052   3.432   0.953
72011W        W40229  18.265  22.935  13.774
72012W        W40230   1.465  36.373  11.980
72013W        W40231  36.978  13.284   4.545
72014W        W40232  25.303  23.811  12.490
72015W        W40233   5.866  14.556   0.263
72016W        W40234  18.160  44.028   1.262
72017W        W40235  32.372  18.735   1.198
72018W        W40236  32.530  41.083   3.237
72019W        W40237  21.484  13.257  14.821
72020W        W40238  37.376  11.739  12.842
72021W        W40239   8.180  38.396  12.119
72022W        W40240   6.515  20.829  13.840
72023W        W40241  35.801   7.841   3.689
72024W        W40242  43.207  39.801  11.085
72025W        W40243  33.156  15.859  11.375
72026W        W40244  39.941  40.795   0.374
72027W        W40245   1.202  20.213  14.769
72028W        W40246  27.114  37.337  11.814
72029W        W40247  36.814  29.953   4.702
72030W        W40248  18.684   2.797   3.173
72031W        W40249  38.043  31.030   3.312
72032W        W40250  12.810  17.058  14.380
72033W        W40251  10.722  12.435   3.769
72034W        W40252  32.708  22.643  12.911
72035W        W40253  25.371   4.411  13.515
72036W        W40254  21.628  30.636   4.673
72037W        W40255  22.781   4.793  13.027
72038W        W40256   4.508   7.976   2.979
72039W        W40257  36.382  16.426  13.251
72040W        W40258  36.997   7.257   0.445
72041W        W40259   5.718   4.054   2.287
72042W        W40260   5.945  25.571  12.998
72043W        W40261  27.592  24.582   3.027
72044W        W40262   8.351   8.241  12.698
72045W        W40263  22.811  10.946  11.066
72046W        W40264  27.092  41.583  13.411
72047W        W40265  17.062   0.723  11.948
72048W        W40266  12.305   0.866   1.328
72049W        W40267  37.163  34.219  12.984
72050W        W40268  32.383  12.863   2.330
72051W        W40269  42.846   4.803  12.403
72052W        W40270  34.552  10.832  14.569
72053W        W40271  23.394  35.591   5.067
72054W        W40272  41.530  10.759  13.405
72055W        W40273  16.523  23.016  12.532
72056W        W40274  11.244  35.322   2.699
72057W        W40275  41.850  16.847   3.726
72058W        W40276  14.722  27.496   2.398
72059W        W40277   6.314  32.279   5.023
72060W        W40278  14.654  34.135   0.100
72061W        W40279  17.224   9.201  14.764
72062W        W40280   5.548   9.646  14.890
72063W        W40281  32.327  19.960   1.970
72064W        W40282  33.052   6.105   0.709
72065W        W40283  27.480  20.116  10.655
72066W        W40284  43.327  16.558  12.808
72067W        W40285  34.159   3.186   2.365
72068W        W40286   0.233  22.905   3.888
72069W        W40287  27.103   3.270   3.513
72070W        W40288  18.289   5.909   4.092
72071W        W40289  20.071  42.876  13.890
72072W        W40290  33.121   8.610   3.320
72073W        W40291  16.282  31.471   1.296
72074W        W40292  23.997  42.019  11.470
72075W        W40293  16.246  39.370   3.772
72076W        W40294   6.752  34.503   0.964
72077W        W40295  36.487   8.367  14.098
72078W        W40296  42.257  19.749  13.949
72079W        W40297  26.753  42.800  12.473
72080W        W40298  11.770  41.549  12.931
72081W        W40299  17.566  38.866  12.149
72082W        W40300   8.589  21.277   1.976
72083W        W40301   7.119  35.425  11.981
72084W        W40302  16.197  23.622  11.852
72085W        W40303   3.751  33.523   3.135
72086W        W40304  22.954  18.133  13.334
72087W        W40305  42.369   2.904   0.549
72088W        W40306   2.802  34.006  11.951
72089W        W40307  23.550   8.190   1.886
72090W        W40308   3.815  14.154   4.695
72091W        W40309  40.178  29.181   2.163
72092W        W40310  38.827  32.080  12.038
72093W        W40311  19.094  28.525   1.126
72094W        W40312   5.375  16.856  14.541
72095W        W40313  21.057  44.879  14.669
72096W        W40314   9.383  13.321  14.916
72097W        W40315   1.659  43.271   0.525
72098W        W40316  25.470  36.435  11.666
72099W        W40317  20.573   4.737  12.778
72100W        W40318   1.217   6.499  13.762
72101W        W40319  14.177  41.926   0.934
72102W        W40320  26.105  39.634  12.680
72103W        W40321   0.917   3.916  13.496
72104W        W40322  25.869  21.007   1.501
72105W        W40323  30.782  35.460   0.127
72106W        W40324   5.843  44.029  13.442
72107W        W40325  20.081  36.110   3.740
72108W        W40326  20.963  23.199   3.671
72109W        W40327  25.221  39.929   0.824
72110W        W40328  30.115  12.201  11.078
72111W        W40329  43.327  33.571   2.772
72112W        W40330  35.346  19.445   2.451
72113W        W40331  38.988  36.083   0.771
72114W        W40332  26.454  32.572   0.463
72115W        W40333  18.669  15.774   3.613
72116W        W40334  35.985  17.616  11.176
72117W        W40335  31.913  20.838   2.793
72118W        W40336   1.891   5.264  13.994
72119W        W40337  10.040  20.662   5.043
72120W        W40338  21.425  40.272  13.520
72121W        W40339  23.229  43.076   2.843
72122W        W40340   6.301  10.547   5.016
72123W        W40341  32.432  32.066   0.866
72124W        W40342  44.919  32.580   1.711
72125W        W40343  34.437  43.210  12.685
72126W        W40344  26.635  15.481  11.440
72127W        W40345  32.389  15.665  14.323
72128W        W40346  22.632   0.792  13.335
72129W        W40347  19.581  27.258   3.214
72130W        W40348  41.624   1.274  14.849
72131W        W40349  22.309   5.197  12.081
72132W        W40350   9.363  25.219   2.803
72133W        W40351  24.946   8.315  12.478
72134W        W40352   0.863  12.437  11.163
72135W        W40353  30.669  26.687  12.113
72136W        W40354   9.811  20.803  14.873
72137W        W40355  15.766  26.194  12.126
72138W        W40356  32.912  24.151   2.713
72139W        W40357   0.205  15.316  14.219
72140W        W40358   4.827  37.917  12.941
72141W        W40359  37.397  29.636  13.020
72142W        W40360  14.893  24.098  13.687
72143W        W40361  44.584   1.345   2.330
72144W        W40362  42.817  19.996  14.081
72145W        W40363  35.571   4.655  12.057
72146W        W40364  41.549   0.956   1.780
72147W        W40365  28.322  41.538  12.883
72148W        W40366   2.752  26.136  13.229
72149W        W40367   9.700  32.895   3.139
72150W        W40368   5.676  19.141  13.310
72151W        W40369  25.157  25.647   0.229
72152W        W40370   4.776  30.501   0.103
72153W        W40371  13.084  15.703   2.175
72154W        W40372  18.602  40.271  11.444
72155W        W40373  14.094   9.098   2.288
72156W        W40374  34.618  21.606  13.526
72157W        W40375  21.479  39.897   3.768
72158W        W40376  44.045  13.344  13.349
72159W        W40377  29.654  42.302  12.118
72160W        W40378  19.684  14.778   2.508
72161W        W40379  19.346  36.875  12.082
72162W        W40380  15.318   9.724  10.845
72163W        W40381  37.208  12.939   1.250
72164W        W40382  13.877  22.379   1.223
72165W        W40383   9.678  44.867  13.358
72166W        W40384  25.707  40.362   3.026
72167W        W40385  39.632   8.647   3.373
72168W        W40386  26.932  11.123   2.747
72169W        W40387  43.801  26.208   4.961
72170W        W40388  29.340  16.272  12.408
72171W        W40389  28.498  10.787  12.698
72172W        W40390  29.173  34.662  13.085
72173W        W40391  29.762   5.682  11.661
72174W        W40392  42.924   6.812  11.410
72175W        W40393  19.011  38.857   0.833
72176W        W40394   3.253  30.371  11.854
72177W        W40395  40.369   5.190  13.416
72178W        W40396  35.272   8.348  14.722
72179W        W40397  16.778  20.224   1.089
72180W        W40398  37.456  11.177  14.452
72181W        W40399  39.657  18.614   1.759
72182W        W40400  28.853  13.864   3.386
72183W        W40401   0.931  19.787   4.688
72184W        W40402  31.579  44.487  13.169
72185W        W40403  18.218   6.829   0.528
72186W        W40404  26.889  25.700  14.563
72187W        W40405  29.513  32.600   0.320
72188W        W40406  33.836  22.090   0.504
72189W        W40407   0.713   9.929   4.961
72190W        W40408  42.524  28.959   1.820
72191W        W40409   3.168  26.299  11.972
72192W        W40410  43.257   5.913   2.705
72193W        W40411  19.582  14.233  12.820
72194W        W40412  30.945  15.927   3.704
72195W        W40413  33.486  40.890  12.790
72196W        W40414  12.094  25.705   2.720
72197W        W40415  32.207  12.644  11.580
72198W        W40416  26.414   2.976  12.011
72199W        W40417  13.853  22.604  10.585
72200W        W40418  42.339   3.382   1.336
72201W        W40419  26.398  27.138   4.204
72202W        W40420   6.920  17.346   0.856
72203W        W40421  36.566  14.223   4.068
72204W        W40422  37.022  22.204  12.988
72205W        W40423   1.514  18.100  14.841
72206W        W40424  27.186  36.007   1.314
72207W        W40425   3.784  12.071  10.694
72208W        W40426  20.956  19.122  12.889
72209W        W40427  19.076  19.226  12.632
72210W        W40428   3.762  31.820  12.538
72211W        W40429  20.779   2.344   3.618
72212W        W40430  29.904  26.730   0.592
72213W        W40431  16.841  32.253   5.143
72214W        W40432  31.518  10.900   0.746
72215W        W40433  27.952  15.511   3.078
72216W        W40434  33.843  27.849  10.735
72217W        W40435  24.973  39.939  12.523
72218W        W40436  25.937  33.100  12.841
72219W        W40437   4.166  31.852  13.922
72220W        W40438  17.024  20.194  12.971
72221W        W40439  16.465  14.961  13.776
72222W        W40440   4.786  35.938   1.998
72223W        W40441  29.979  38.054   0.511
72224W        W40442  27.451   0.948   2.189
72225W        W40443  17.555  28.759   1.196
72226W        W40444  32.669  19.527   3.298
72227W        W40445   5.979  17.802   0.786
72228W        W40446  40.780  12.297   4.624
72229W        W40447  23.765  42.446   2.731
72230W        W40448  28.200   7.838   3.233
72231W        W40449  33.768  13.288  12.696
72232W        W40450  11.824   7.927  12.957
72233W        W40451  20.742   9.757   0.312
72234W        W40452  40.578  33.270  11.618
72235W        W40453   1.491  41.428   4.804
72236W        W40454  27.657   8.360  12.008
72237W        W40455  22.204  44.799  12.507
72238W        W40456  10.237  11.052   4.053
72239W        W40457  24.071  25.773   4.198
72240W        W40458  13.433  10.671  12.854
72241W        W40459  30.319   8.809   4.092
72242W        W40460  19.486  17.850  12.509
72243W        W40461   0.994   9.287  13.327
72244W        W40462  21.591  25.918   2.793
72245W        W40463   3.202  21.565  10.327
72246W        W40464   5.128  21.198   2.337
72247W        W40465  29.673  13.692  10.298
72248W        W40466   6.472   2.139  14.054
72249W        W40467  21.337  18.857   1.928
72250W        W40468  21.022  10.547  14.447
72251W        W40469  44.467  14.521  10.729
72252W        W40470  20.770  11.589   3.642
72253W        W40471  12.456  22.447   0.035
72254W        W40472  36.043  26.947  10.132
72255W        W40473   6.900  20.649   3.218
72256W        W40474   6.127   8.156   0.677
72257W        W40475  43.019  29.138   1.719
72258W        W40476   2.272  29.063   4.956
72259W        W40477  30.912  42.797  12.423
72260W        W40478  40.860   0.268  11.133
72261W        W40479  42.909  39.865  14.378
72262W        W40480  38.714  21.772   4.236
72263W        W40481  15.963  11.348   0.905
72264W        W40482  18.604  32.819  12.573
72265W        W40483  42.039  42.463   5.109
72266W        W40484  24.278  41.200   1.519
72267W        W40485  23.772   1.978   2.313
72268W        W40486   4.746  27.928  12.215
72269W        W40487  24.107  39.138   2.842
72270W        W40488   4.897  22.970  13.070
72271W        W40489  16.236   8.183   0.816
72272W        W40490   1.959  10.563  12.025
72273W        W40491  39.774   7.419   3.259
72274W        W40492  37.092  33.890  12.579
72275W        W40493   3.765   3.110  11.578
72276W        W40494  28.191  36.476  14.329
72277W        W40495   5.943  29.575  14.374
72278W        W40496  27.050  13.248  13.418
72279W        W40497   7.112  39.436   0.368
72280W        W40498  30.638  29.923  14.454
72281W        W40499  25.218  41.336   2.823
72282W        W40500  11.216  34.675  11.703
72283W        W40501  10.314   0.988  12.944
72284W        W40502  23.458  19.949   4.072
72285W        W40503   3.104   9.082   1.261
72286W        W40504   7.225  23.537  14.031
72287W        W40505  39.951  19.739  12.987
72288W        W40506  35.284  24.503   1.618
72289W        W40507   1.914  17.700  11.675
72290W        W40508  28.188  42.404  12.961
72291W        W40509  35.622  40.688   1.353
72292W        W40510  15.264   7.364   1.994
72293W        W40511  36.548  40.444  11.129
72294W        W40512   6.960  30.791  14.273
72295W        W40513  27.714  39.466   0.987
72296W        W40514   1.618  42.714  12.563
72297W        W40515   6.355  37.425  12.926
72298W        W40516   1.569  15.861   2.375
72299W        W40517   1.721  36.392  12.595
72300W        W40518  17.300  17.048  10.555
72301W        W40519  27.477  14.055  14.535
72302W        W40520  22.724  33.902   3.706
72303W        W40521  28.022  38.869   5.115
72304W        W40522  21.064  34.877  11.250
72305W        W40523  37.911  13.210   0.844
72306W        W40524   2.827  17.377  13.452
72307W        W40525  35.587  22.634   1.853
72308W        W40526  21.037  34.591  10.781
72309W        W40527   7.091  22.546  12.881
72310W        W40528   8.784  43.211  14.873
72311W        W40529   9.167  36.293  13.837
72312W        W40530  44.003   0.732   0.563
72313W        W40531  10.661  40.030   2.825
72314W        W40532  33.606  25.602   5.036
72315W        W40533   5.625  26.661  13.023
72316W        W40534  16.638  44.772   4.365
72317W        W40535  16.671  44.326  13.044
72318W        W40536   7.648  16.227   0.301
72319W        W40537  36.362  14.018  11.664
72320W        W40538  23.850  34.976  11.690
72321W        W40539  21.880  23.504  14.465
72322W        W40540   8.672  10.404   1.326
72323W        W40541  35.765   3.772   3.715
72324W        W40542  21.709  14.611   3.307
72325W        W40543  10.804  14.365  12.042
72326W        W40544  20.522  37.767  14.962
72327W        W40545  25.682  40.401  12.227
72328W        W40546   2.681  43.528   3.849
72329W        W40547  17.503  27.756  12.469
72330W        W40548  41.665  36.086   4.501
72331W        W40549   4.879  16.775  12.008
72332W        W40550  29.917   7.173   1.453
72333W        W40551  13.594  42.813   1.688
72334W        W40552  18.597  27.050  11.147
72335W        W40553  40.823  26.624   0.957
72336W        W40554  37.584  11.654   3.919
72337W        W40555   3.939   2.176  10.149
72338W        W40556   3.287  29.821  13.904
72339W        W40557  28.450  17.683  10.673
72340W        W40558   9.651  28.176  11.812
72341W        W40559  23.771  24.150   0.800
72342W        W40560  36.095  13.992  12.089
72343W        W40561  32.092  33.129   0.371
72344W        W40562   1.504  41.846  14.371
72345W        W40563  24.103  11.171   0.116
72346W        W40564  10.117  31.549  11.670
72347W        W40565  29.920   5.334   4.574
72348W        W40566   2.633   2.515   4.935
72349W        W40567  13.569  41.482  10.299
72350W        W40568   2.314   3.004  10.661
72351W        W40569  16.060   2.663  12.587
72352W        W40570  37.540   6.844   0.005
72353W        W40571  10.521   6.520  13.455
72354W        W40572   7.176  28.380   3.619
72355W        W40573  10.178  26.547  12.929
72356W        W40574   6.355   1.786   4.602
72357W        W40575  17.018  24.062   0.116
72358W        W40576   0.978  35.568  14.017
72359W        W40577  35.327   5.704  14.878
72360W        W40578  22.283  30.420  12.883
72361W        W40579   7.912  13.857   1.782
72362W        W40580  32.444  36.949  10.884
72363W        W40581  22.896  16.236   0.195
72364W        W40582  24.597  11.053   0.816
72365W        W40583  43.567  35.898  12.966
72366W        W40584  30.264  30.133   3.270
72367W        W40585   5.924  26.653  12.599
72368W        W40586  14.048  25.239  14.534
72369W        W40587   3.737  11.595   4.089
72370W        W40588  24.000  22.952  12.859
72371W        W40589  33.681  37.900   1.422
72372W        W40590  34.787  33.001  13.851
72373W        W40591  22.752  44.269   0.496
72374W        W40592  43.919   9.361  14.046
72375W        W40593  21.608   5.384   3.782
72376W        W40594   7.699  27.672   0.081
72377W        W40595  24.111  15.674  14.679
72378W        W40596  37.182   2.422   1.262
72379W        W40597  23.694  21.438   2.312
72380W        W40598  16.189   0.283  12.560
72381W        W40599   7.220  25.174  12.090
72382W        W40600  38.591  43.547  12.361
72383W        W40601   6.032  37.062   0.425
72384W        W40602   9.993  33.312  13.552
72385W        W40603  12.183   9.680  10.890
72386W        W40604   2.683  35.021   4.137
72387W        W40605  39.434  37.291  11.667
72388W        W40606  38.760  43.078  11.980
72389W        W40607  26.128   2.335   1.318
72390W        W40608  20.818  25.587  10.625
72391W        W40609  19.108  39.309   1.071
72392W        W40610  40.015  17.263  13.941
72393W        W40611  11.905   5.762   2.856
72394W        W40612  40.819  10.460   3.162
72395W        W40613   8.349   8.560   1.891
72396W        W40614   9.675  16.246   2.412
72397W        W40615  40.598  43.248   0.027
72398W        W40616  23.328  33.675  13.345
72399W        W40617  19.600  32.203   4.089
72400W        W40618  31.079   7.713   3.151
72401W        W40619  38.277  31.468   0.333
72402W        W40620   7.124  16.295  14.304
72403W        W40621  28.302  41.899  10.750
72404W        W40622  35.893  19.008  11.010
72405W        W40623   2.888  21.754  10.972
72406W        W40624  12.183  33.122  13.548
72407W        W40625  32.476  22.863  14.011
72408W        W40626  27.602  36.176   4.777
72409W        W40627  35.000  18.727   3.671
72410W        W40628  14.858  12.728  13.521
72411W        W40629  20.065  17.332  12.498
72412W        W40630  31.607  44.759   3.429
72413W        W40631   8.002  35.015  13.033
72414W        W40632   9.294  12.139  11.627
72415W        W40633   8.774  15.182   0.176
72416W        W40634  44.813  31.216  14.703
72417W        W40635   8.886  37.987   0.048
72418W        W40636  15.193  35.463  14.508
72419W        W40637  42.486  37.481   5.145
72420W        W40638  26.711  39.463  14.785
72421W        W40639  44.809   2.854   1.945
72422W        W40640  16.714  24.261   0.898
72423W        W40641  12.681  27.663   4.609
72424W        W40642   6.508   9.434   3.766
72425W        W40643  26.844  19.615   4.268
72426W        W40644  29.058   3.343   0.137
72427W        W40645   2.634  28.878  10.769
72428W        W40646  35.424  31.576   1.999
72429W        W40647  16.314  17.578  11.879
72430W        W40648  44.917   4.404  11.862
72431W        W40649  14.720  35.037   3.228
72432W        W40650   9.127  30.394  14.238
72433W        W40651  43.996   1.522   3.747
72434W        W40652  37.302  30.213   3.276
72435W        W40653   3.049  44.055  10.497
72436W        W40654  16.769   6.261   0.806
72437W        W40655  15.792  12.801   2.150
72438W        W40656  41.890  31.176   0.425
72439W        W40657  36.238  10.252   3.679
72440W        W40658   5.776  32.553  11.206
72441W        W40659  22.553  20.672   0.575
72442W        W40660  26.163  20.609  13.766
72443W        W40661  41.469  44.455  11.162
72444W        W40662   8.254  10.423  13.312
72445W        W40663  19.757  23.960   0.797
72446W        W40664  39.067   7.896   4.094
72447W        W40665  40.850  23.291  14.686
72448W        W40666  18.296   6.211   3.567
72449W        W40667  34.629  16.281  13.067
72450W        W40668  29.953  29.011  11.216
72451W        W40669  31.512   2.545  12.492
72452W        W40670  28.753  33.492  14.802
72453W        W40671  20.049  29.474  14.108
72454W        W40672  21.511  33.894  14.417
72455W        W40673  16.829  14.869  10.989
72456W        W40674  44.366  19.929   4.501
72457W        W40675  18.061  35.854  12.487
72458W        W40676   1.620  27.914  12.778
72459W        W40677  37.499  10.685   4.151
72460W        W40678  12.277  28.852   0.041
72461W        W40679  34.868   3.905  12.830
72462W        W40680  35.237  11.567  12.036
72463W        W40681  21.024  28.082   0.314
72464W        W40682  39.398  26.084  13.355
72465W        W40683  39.811   1.502  14.779
72466W        W40684   9.877   7.378   0.428
72467W        W40685  30.866  25.477   4.241
72468W        W40686  16.532   0.383   2.786
72469W        W40687  13.815   0.759   1.207
72470W        W40688  11.615  25.406   3.594
72471W        W40689  29.965  21.575   3.812
72472W        W40690  29.417  23.398  11.012
72473W        W40691  42.228  30.190  11.879
72474W        W40692  34.752  23.367  11.086
72475W        W40693   0.989   3.044   3.008
72476W        W40694  23.536   4.508  14.888
72477W        W40695  42.015   6.900   1.406
72478W        W40696   7.206   4.648  13.821
72479W        W40697  16.748   3.231   2.780
72480W        W40698  11.069  32.411  11.171
72481W        W40699  35.298  31.897   3.666
72482W        W40700  34.277  35.363   3.349
72483W        W40701   9.236  33.799   2.317
72484W        W40702  39.859   3.801  10.773
72485W        W40703  41.467   1.472   4.569
72486W        W40704  43.984  29.599   3.648
72487W        W40705  31.634   9.447   1.885
72488W        W40706  17.216  31.078  14.887
72489W        W40707  10.793  15.321  10.650
72490W        W40708  23.451  15.703   4.671
72491W        W40709  33.345  40.923   4.695
72492W        W40710  21.728   4.180   4.208
72493W        W40711  26.484  35.900  11.640
72494W        W40712  26.041  29.527   0.965
72495W        W40713  33.512  35.875  10.553
72496W        W40714  19.867  14.698  10.624
72497W        W40715   8.170   9.114   0.920
72498W        W40716   7.244  16.029  12.096
72499W        W40717  37.507  42.239  12.431
72500W        W40718  38.629  25.462  12.949
72501W        W40719  34.584  38.884  11.233
72502W        W40720  35.933  35.843  12.063
72503W        W40721  44.366  34.846   0.933
72504W        W40722  30.150  44.256   3.578
72505W        W40723  14.398  32.080   2.427
72506W        W40724  22.628   3.884   4.358
72507W        W40725  19.613  35.848   3.723
72508W        W40726  38.544   6.851   0.460
72509W        W40727  25.949   2.747  12.062
72510W        W40728  31.268  20.683  10.729
72511W        W40729   7.253  40.014  10.781
72512W        W40730  10.628  43.939   2.230
72513W        W40731  36.854  25.666  12.668
72514W        W40732   3.906  21.334   2.779
72515W        W40733  37.269  24.471   1.313
72516W        W40734  40.708  38.755   1.875
72517W        W40735   2.993  18.227   4.830
72518W        W40736  40.482  21.996   1.366
72519W        W40737  33.946   6.417  14.863
72520W        W40738  14.349   9.049  14.343
72521W        W40739  36.671  17.028  11.146
72522W        W40740   1.205  20.382  11.581
72523W        W40741   3.515  24.725  14.328
72524W        W40742  16.619   2.688  14.015
72525W        W40743  15.252  27.690  11.414
72526W        W40744  34.232  29.399   2.722
72527W        W40745   2.449  23.084   0.525
72528W        W40746  25.769   5.138  13.860
72529W        W40747  18.100  31.668  11.623
72530W        W40748  24.691   7.322   1.130
72531W        W40749  36.830   2.716   3.770
72532W        W40750  21.322  29.700   3.743
72533W        W40751  16.105  31.645  12.486
72534W        W40752  22.832   1.091  14.022
72535W        W40753   8.998  35.388  11.541
72536W        W40754  11.042   2.511   2.778
72537W        W40755  21.388   1.327   0.298
72538W        W40756  30.615  10.890   1.227
72539W        W40757   4.230   9.879  13.043
72540W        W40758  33.808  40.505   0.303
72541W        W40759  12.507   4.645  13.768
72542W        W40760  40.320  28.411   0.151
72543W        W40761   0.568   3.782  13.035
72544W        W40762   4.024  17.078   2.262
72545W        W40763  37.890  10.673  10.759
72546W        W40764  40.828  29.071  12.538
72547W        W40765  26.686  44.074   4.104
72548W        W40766   9.434  43.866   2.797
72549W        W40767  24.267  17.268   0.680
72550W        W40768  11.509  32.402   0.013
72551W        W40769   7.241  37.405  14.385
72552W        W40770  17.139  20.764   1.388
72553W        W40771  43.490  42.683  12.619
72554W        W40772  18.828  11.225  12.407
72555W        W40773  27.414   9.441   0.335
72556W        W40774  23.188  27.562  11.056
72557W        W40775   0.749  37.984   0.896
72558W        W40776   7.742  18.959  11.523
72559W        W40777  19.893  15.738  11.490
72560W        W40778  12.190  13.113   3.163
72561W        W40779  16.538  27.107   0.930
72562W        W40780  42.570  19.836   4.245
72563W        W40781  12.339  36.089   2.247
72564W        W40782  28.004   6.432  11.106
72565W        W40783   3.906  28.527  10.498
72566W        W40784  15.145  16.257   2.476
72567W        W40785  36.911  38.516   0.858
72568W        W40786   0.899   8.697  12.057
72569W        W40787  17.618  27.725   3.741
72570W        W40788  19.498  38.289   3.760
72571W        W40789  15.748  14.634   3.140
72572W        W40790  36.286  25.456   2.768
72573W        W40791  21.247  20.022   0.966
72574W        W40792  26.521  11.346   5.111
72575W        W40793  18.740  15.059  12.132
72576W        W40794  39.985  27.741  12.826
72577W        W40795  23.651  32.398   0.133
72578W        W40796  15.834  39.537   1.198
72579W        W40797  42.774  43.838   0.600
72580W        W40798   7.206  27.157  13.598
72581W        W40799  34.479  22.630   2.156
72582W        W40800  29.628  27.661  11.890
72583W        W40801  41.609  10.074  12.097
72584W        W40802  44.228  27.303   1.843
72585W        W40803  19.928  32.753   1.279
72586W        W40804  14.322  12.760   4.147
72587W        W40805  41.845   6.264   1.400
72588W        W40806  38.919  13.840   4.566
72589W        W40807  38.069  28.188  14.375
72590W        W40808  18.605  30.843  14.182
72591W        W40809   4.801  10.889   0.261
72592W        W40810  19.692  10.056  14.802
72593W        W40811  13.592  17.009  12.166
72594W        W40812  29.110  23.728  11.241
72595W        W40813  23.573  16.304   0.792
72596W        W40814  44.626   1.662  14.497
72597W        W40815  19.549  26.681  11.188
72598W        W40816   6.748   2.998  12.886
72599W        W40817  17.156  24.218   0.597
72600W        W40818  11.666   2.809   1.399
72601W        W40819   5.833  33.504  14.922
72602W        W40820  37.078  42.855   2.062
72603W        W40821  26.591  23.443   0.925
72604W        W40822  34.412  15.180   2.470
72605W        W40823  24.075  25.338   3.425
72606W        W40824  42.551  26.969  10.947
72607W        W40825  10.966   5.913  14.285
72608W        W40826  31.424   0.523  12.394
72609W        W40827  43.539  20.712  13.874
72610W        W40828  12.066  15.480   4.608
72611W        W40829  15.552  38.316   5.101
72612W        W40830  39.494  29.908  13.563
72613W        W40831  26.236  30.663  12.423
72614W        W40832   8.606  27.675   1.426
72615W        W40833  25.139  27.831  12.622
72616W        W40834   2.361   2.844  13.555
72617W        W40835  33.330  17.808   4.062
72618W        W40836  38.903   6.738   1.500
72619W        W40837  23.477   9.697  14.974
72620W        W40838  27.425  20.134  13.116
72621W        W40839  30.401  42.110  14.023
72622W        W40840  32.951   1.683  11.524
72623W        W40841  23.449  30.439   2.622
72624W        W40842  37.263  40.488   4.100
72625W        W40843  24.247   6.290  13.013
72626W        W40844  36.089  11.461  11.595
72627W        W40845  34.053  24.126  11.220
72628W        W40846  30.151   4.449  13.546
72629W        W40847   7.360  18.126   3.334
72630W        W40848  35.631   9.423  12.672
72631W        W40849  22.617  29.419  14.915
72632W        W40850  37.256  21.693  14.879
72633W        W40851  11.886  21.000   4.607
72634W        W40852  25.673   4.098  14.928
72635W        W40853  26.752  32.378   0.060
72636W        W40854  40.506   0.540   0.480
72637W        W40855  37.042  23.828   4.644
72638W        W40856  18.789  19.537  12.947
72639W        W40857   0.422  41.704   2.694
72640W        W40858  13.518   5.793   4.089
72641W        W40859  24.508   3.367   2.807
72642W        W40860  39.087  23.558  11.554
72643W        W40861  36.843  41.967   4.981
72644W        W40862  29.441  16.808  12.475
72645W        W40863  26.960  40.530   3.790
72646W        W40864   7.720  18.517  14.850
72647W        W40865   3.252  30.222   1.242
72648W        W40866  21.734   7.779  13.103
72649W        W40867   9.821   7.208   3.579
72650W        W40868  43.852  28.691   2.978
72651W        W40869   2.702   9.949   4.239
72652W        W40870  19.452   8.788  11.161
72653W        W40871   9.249  31.548  10.532
72654W        W40872  17.684  18.272   2.759
72655W        W40873  26.194  26.134   5.342
72656W        W40874   9.873  34.131  13.960
72657W        W40875  15.090  20.257   0.878
72658W        W40876  23.223  13.640   4.126
72659W        W40877  32.152  41.756   0.750
72660W        W40878  27.009  19.256  11.530
72661W        W40879  37.117  42.334  13.322
72662W        W40880   6.251  18.503   3.612
72663W        W40881  17.123  25.209   1.730
72664W        W40882  31.015  23.810   0.849
72665W        W40883  27.517  32.570  11.647
72666W        W40884  29.882   8.443  11.013
72667W        W40885  39.906  11.456  12.407
72668W        W40886  16.556   4.165  12.091
72669W        W40887  15.629  44.099   0.030
72670W        W40888  32.760  21.825   1.820
72671W        W40889  23.604  30.069   3.825
72672W        W40890  33.720   2.460  12.069
72673W        W40891  11.586  22.327  11.053
72674W        W40892  34.792  17.347  13.550
72675W        W40893  28.619  17.570  14.740
72676W        W40894  20.201  32.585  14.286
72677W        W40895  20.179  27.609   4.402
72678W        W40896   9.339  29.640   0.562
72679W        W40897  14.228  23.588   2.509
72680W        W40898  30.869   1.374  12.595
72681W        W40899  37.375  37.888   3.387
72682W        W40900  11.787   0.032  10.738
72683W        W40901  21.332  28.890  14.984
72684W        W40902  21.032  10.808   3.112
72685W        W40903  40.538  23.800  12.999
72686W        W40904  44.281  12.392   3.437
72687W        W40905  18.065  32.633   2.690
72688W        W40906  15.266  15.598  13.849
72689W        W40907  35.157  13.803  12.820
72690W        W40908   3.114   8.631  11.421
72691W        W40909  39.418  15.280   0.036
72692W        W40910  23.276  29.535  14.466
72693W        W40911  36.718  20.699   2.411
72694W        W40912  16.902  35.416   4.547
72695W        W40913  26.138  21.474   1.662
72696W        W40914  34.757  10.200  12.483
72697W        W40915  26.438  27.614  11.554
72698W        W40916  21.141   6.903  14.450
72699W        W40917   7.366  36.074  13.553
72700W        W40918  41.280   6.913   1.664
72701W        W40919  26.061   4.395   4.517
72702W        W40920  31.464  26.292   2.303
72703W        W40921  21.161  28.611   2.734
72704W        W40922   1.776  14.457   2.257
72705W        W40923  25.250  36.788  14.569
72706W        W40924  35.239  36.360  10.558
72707W        W40925   7.962  13.441  10.721
72708W        W40926  10.052  37.452  13.948
72709W        W40927  22.494   3.873   2.425
72710W        W40928  36.478  20.995   3.220
72711W        W40929  13.774  10.765   2.639
72712W        W40930  31.868  23.226   3.604
72713W        W40931  25.039  44.886   3.197
72714W        W40932  34.213  12.703   4.779
72715W        W40933  39.073  10.667   2.729
72716W        W40934  26.188  34.776   4.979
72717W        W40935  30.254  33.598   2.310
72718W        W40936   7.474   2.435   4.100
72719W        W40937  31.974  14.821  11.590
72720W        W40938   2.375   7.095  14.447
72721W        W40939  22.232  15.346   1.757
72722W        W40940  43.478  24.815   0.806
72723W        W40941  13.868  36.165  11.415
72724W        W40942  42.671  40.974  12.625
72725W        W40943  31.636  36.380   1.449
72726W        W40944  43.854   7.540   2.509
72727W        W40945  24.072  38.847  11.499
72728W        W40946  15.542  18.790  13.331
72729W        W40947  42.834   8.385   3.005
72730W        W40948   5.126  13.096   2.658
72731W        W40949   8.094   0.379  10.423
72732W        W40950  41.466  18.788   2.180
72733W        W40951  39.450   7.791   3.428
72734W        W40952   6.501  42.606  11.140
72735W        W40953   7.183   1.901   3.893
72736W        W40954   6.405  24.755  11.121
72737W        W40955  16.538  40.012   2.113
72738W        W40956  16.670  21.329  12.060
72739W        W40957  30.212  35.914  13.107
72740W        W40958   5.653  34.040   2.269
72741W        W40959  29.071   3.484   5.297
72742W        W40960  13.095  21.875  13.846
72743W        W40961  30.009   1.682   4.598
72744W        W40962   0.032  20.100  11.581
72745W        W40963  39.270  15.734   1.829
72746W        W40964  34.165  15.391   4.323
72747W        W40965  28.405  36.856  14.970
72748W        W40966  15.870  22.408  10.917
72749W        W40967  38.908  23.975  13.367
72750W        W40968  16.586  11.695  11.510
72751W        W40969   4.395  18.074  13.072
72752W        W40970  13.604  40.870   1.804
72753W        W40971   4.059  41.471   0.420
72754W        W40972   0.867  29.688  12.109
72755W        W40973  21.358  39.002  13.340
72756W        W40974  43.263   0.822  11.162
72757W        W40975  32.458  35.504   1.285
72758W        W40976  34.115   2.809  12.015
72759W        W40977  30.155  38.368   2.816
72760W        W40978  19.281  27.747   3.782
72761W        W40979  21.703  13.008   4.992
72762W        W40980  10.173   2.941   2.297
72763W        W40981  27.561  25.220   0.404
72764W        W40982   3.556  29.975   0.225
72765W        W40983   4.016  36.981   3.847
72766W        W40984  35.625   6.090   4.192
72767W        W40985  41.902   6.135   4.542
72768W        W40986  30.496  19.457  14.299
72769W        W40987  43.476  36.583   4.088
72770W        W40988  14.640  22.242   4.414
72771W        W40989  30.403  33.068   2.104
72772W        W40990  21.551   1.839   3.596
72773W        W40991   1.871   9.856   0.867
72774W        W40992   1.381  44.903   1.164
72775W        W40993  27.749  25.703   0.510
72776W        W40994  20.758   9.305  12.360
72777W        W40995  37.780  17.559   2.401
72778W        W40996  22.525  20.754  13.946
72779W        W40997   4.493  38.839   4.069
72780W        W40998  21.571  13.650  10.635
72781W        W40999  31.000  18.884   0.564
72782W        W41000  19.718  39.313   0.287
72783W        W41001  43.829  15.765   2.296
72784W        W41002  23.107  40.100   0.020
72785W        W41003   9.920  41.415  10.724
72786W        W41004  17.587   4.967  14.524
72787W        W41005  37.097   1.442   2.869
72788W        W41006   2.474   6.622   3.830
72789W        W41007  19.375  29.377  11.082
72790W        W41008  20.310  41.697  12.883
72791W        W41009   5.064  17.270  14.289
72792W        W41010  35.627  14.158   2.601
72793W        W41011  20.948  13.282  14.776
72794W        W41012  18.608  44.520   0.675
72795W        W41013   5.793   0.394   1.022
72796W        W41014  40.768   0.346  14.330
72797W        W41015  37.285  22.699   2.320
72798W        W41016  24.663  19.042   4.188
72799W        W41017  14.347  33.960   1.866
72800W        W41018   2.493   9.834  13.312
72801W        W41019   0.911   1.113   2.955
72802W        W41020  44.946  40.954   0.906
72803W        W41021  43.399  10.299  13.273
72804W        W41022   0.319  44.489  11.360
72805W        W41023  38.347   5.862   1.293
72806W        W41024  43.284  36.830   2.764
72807W        W41025  22.285   6.117   0.724
72808W        W41026   5.951  44.192  11.423
72809W        W41027   8.098  15.585  12.052
72810W        W41028   9.754  14.805   0.812
72811W        W41029  30.433  23.762   2.847
72812W        W41030   2.765  26.843  13.924
72813W        W41031  20.350  22.108   3.567
72814W        W41032  19.826  20.638  10.462
72815W        W41033  42.381   7.151  13.370
72816W        W41034  33.412  16.665  12.639
72817W        W41035  39.465  35.078  13.633
72818W        W41036  36.299  30.880   4.140
72819W        W41037  10.236  34.856   2.333
72820W        W41038  22.755  27.873   2.703
72821W        W41039  16.101  26.034   1.754
72822W        W41040  22.396  41.465  11.204
72823W        W41041  23.196   5.460   3.620
72824W        W41042   6.393  22.909   3.336
72825W        W41043  18.016   3.763   3.851
72826W        W41044  43.098  25.564  13.755
72827W        W41045  22.236  41.934   2.151
72828W        W41046  10.637   7.894   3.785
72829W        W41047  16.705  39.953   0.844
72830W        W41048  43.962  30.116   0.826
72831W        W41049  12.986   1.660  13.289
72832W        W41050  34.032  15.276   0.867
72833W        W41051   5.660  34.896   4.188
72834W        W41052  18.885  12.368   0.892
72835W        W41053  29.546  24.222   1.879
72836W        W41054  26.069  12.812   0.649
72837W        W41055   8.679  43.572   0.803
72838W        W41056  10.160  19.002  14.362
72839W        W41057  23.050  41.078   1.533
72840W        W41058   9.610  13.262   0.886
72841W        W41059   0.040  19.292  13.226
72842W        W41060  42.807  29.393  12.094
72843W        W41061  19.139  33.242   0.767
72844W        W41062  35.743   3.244   1.765
72845W        W41063  26.942  15.953   3.980
72846W        W41064  22.462  19.628   3.175
72847W        W41065   3.420  13.401   2.482
72848W        W41066   1.974  27.071  12.564
72849W        W41067  40.540  42.441   0.066
72850W        W41068  42.466  40.126   4.331
72851W        W41069  41.376  20.098  14.296
72852W        W41070   6.809  41.818  14.851
72853W        W41071   2.762  42.481  11.273
72854W        W41072  10.112  22.501  13.087
72855W        W41073  32.872  20.587  11.664
72856W        W41074  31.451   2.265   4.967
72857W        W41075   2.219  37.039   3.204
72858W        W41076  20.026   3.228  14.847
72859W        W41077  21.471  40.508   2.697
72860W        W41078  25.463  22.992  13.084
72861W        W41079  35.138  22.086   2.551
72862W        W41080  25.531   0.610  13.888
72863W        W41081  33.931  27.650   4.117
72864W        W41082  28.773   2.768   2.347
72865W        W41083  17.821  31.955  14.736
72866W        W41084  11.192  38.814   1.089
72867W        W41085  39.369  35.381   3.722
72868W        W41086  34.864  41.555  14.556
72869W        W41087  24.617   3.792  14.514
72870W        W41088  37.174   4.858   3.691
72871W        W41089   4.357  30.415   2.830
72872W        W41090   2.000  22.045   3.207
72873W        W41091  39.481  38.531   3.375
72874W        W41092  34.463   0.023   0.860
72875W        W41093  40.536  19.386   0.255
72876W        W41094  14.390   1.582   3.752
72877W        W41095  31.529   3.863   2.732
72878W        W41096  31.437  34.035   0.673
72879W        W41097   5.717  22.646  10.682
72880W        W41098   0.469  33.632   2.210
72881W        W41099   7.407  31.032  12.550
72882W        W41100  10.946  39.070   4.093
72883W        W41101  16.940   0.350  14.451
72884W        W41102   7.830  15.863  12.959
72885W        W41103  10.142  13.166   1.745
72886W        W41104  37.523  16.823   4.151
72887W        W41105  14.414  31.558   4.170
72888W        W41106  27.707  22.713   5.139
72889W        W41107   8.194  39.521  13.619
72890W        W41108  36.344   9.921   4.406
72891W        W41109  21.817  27.985  11.677
72892W        W41110  41.550  32.632   3.721
72893W        W41111   5.701  27.896  12.050
72894W        W41112  21.780  44.531  12.176
72895W        W41113  41.877   2.224  13.132
72896W        W41114  30.252  20.688   2.169
72897W        W41115  30.088  15.140   3.408
72898W        W41116   2.126  20.535   4.094
72899W        W41117  10.212  29.914  11.033
72900W        W41118   2.131  28.106  12.910
72901W        W41119  17.608  19.975   1.392
72902W        W41120   3.869  42.680   5.132
72903W        W41121  26.590  41.731  14.566
72904W        W41122  25.637  25.132   1.746
72905W        W41123  23.126  36.907  13.478
72906W        W41124   2.506  44.992   2.591
72907W        W41125  25.831  26.433   0.460
72908W        W41126   2.432  20.551  12.527
72909W        W41127  23.515   8.466   2.309
72910W        W41128  27.465  12.610   2.117
72911W        W41129  37.058  33.715  12.076
72912W        W41130  44.522  17.720  12.373
72913W        W41131  11.118  39.946   4.123
72914W        W41132  11.239  42.595  10.751
72915W        W41133   1.517  42.848  11.226
72916W        W41134  15.150   4.222   4.915
72917W        W41135  42.312  40.034  12.906
72918W        W41136  32.547  41.474  12.086
72919W        W41137  33.241   0.476   0.903
72920W        W41138   7.392  43.584  10.966
72921W        W41139  24.595  15.795  14.869
72922W        W41140  41.875  23.223  14.806
72923W        W41141  25.061  25.401  12.452
72924W        W41142  40.027   5.683   4.464
72925W        W41143  38.842  37.119   2.314
72926W        W41144  17.758  15.660   0.105
72927W        W41145  24.684  29.798  13.985
72928W        W41146  16.094   7.714   0.081
72929W        W41147  32.648   6.472  12.005
72930W        W41148  37.265  14.823   4.057
72931W        W41149  39.050  39.960  13.813
72932W        W41150   4.827  22.225   0.925
72933W        W41151  44.455  38.563   2.409
72934W        W41152  35.590  40.011   3.092
72935W        W41153   9.336  35.834   0.258
72936W        W41154   4.338   6.797   4.665
72937W        W41155  44.432  44.208   1.284
72938W        W41156  41.497  31.515   3.242
72939W        W41157  31.260  13.657   1.675
72940W        W41158  43.000  35.044  13.846
72941W        W41159   4.213  44.717   5.029
72942W        W41160  26.545   7.361   3.822
72943W        W41161  36.464  18.681  12.355
72944W        W41162   6.419  41.094  12.816
72945W        W41163  30.574   0.913   2.147
72946W        W41164  16.433  18.796   2.929
72947W        W41165  26.327  19.692   2.346
72948W        W41166  27.530  17.608   4.222
72949W        W41167  42.387  21.726  11.467
72950W        W41168  30.528   1.029   2.652
72951W        W41169  15.873  17.127   4.813
72952W        W41170  40.586  43.077   2.608
72953W        W41171  39.561  41.400   1.872
72954W        W41172   8.633   5.150  12.837
72955W        W41173  17.929  24.939  13.062
72956W        W41174  21.170  41.091  14.394
72957W        W41175  20.297   6.572  11.919
72958W        W41176   2.762  20.292  11.416
72959W        W41177  23.190  29.914   3.535
72960W        W41178   2.121  26.389   0.421
72961W        W41179  10.444  27.513   1.792
72962W        W41180  20.532   4.532   4.281
72963W        W41181   1.457   2.921  12.456
72964W        W41182   2.747   5.284  10.933
72965W        W41183  16.483   8.486  12.501
72966W        W41184  22.630  38.663  14.965
72967W        W41185  43.804  15.297  13.152
72968W        W41186  22.764  44.544  13.987
72969W        W41187   7.681  17.047   2.751
72970W        W41188   6.207  38.920  14.197
72971W        W41189  33.021  14.348  12.395
72972W        W41190  26.273  13.873   0.004
72973W        W41191   2.997   7.713   4.153
72974W        W41192  39.271  14.664  10.729
72975W        W41193  22.011   6.143  11.192
72976W        W41194  16.077   0.566  13.914
72977W        W41195  23.229  19.769   1.879
72978W        W41196  44.463  13.389   4.583
72979W        W41197  16.345  42.774  12.100
72980W        W41198  20.305   7.847  11.288
72981W        W41199  27.270   3.108  14.485
72982W        W41200  32.449  12.572  11.110
72983W        W41201  19.520  28.402  11.793
72984W        W41202  35.125  42.878  13.933
72985W        W41203  22.584  21.216   2.747
72986W        W41204  16.344  25.678  14.397
72987W        W41205  42.502   8.123  12.303
72988W        W41206   7.240   4.064   2.225
72989W        W41207   7.946  44.973  11.908
72990W        W41208  29.826  10.368  12.314
72991W        W41209  27.500  26.219   2.298
72992W        W41210  37.452  10.329  12.040
72993W        W41211  40.683   1.000   3.087
72994W        W41212  17.565  39.229   3.657
72995W        W41213   4.387  35.418  14.580
72996W        W41214   4.135   8.449  12.144
72997W        W41215  13.666   7.276  10.659
72998W        W41216  41.982  13.139   2.578
72999W        W41217  21.727   4.846  11.559
73000W        W41218  35.554  16.136   4.025
73001W        W41219  27.210   4.249  13.050
73002W        W41220  42.434  16.277  14.089
73003W        W41221  28.266  13.057   9.836
73004W        W41222  19.816  39.786   0.473
73005W        W41223   3.856  35.819   1.753
73006W        W41224  26.313  20.233  11.655
73007W        W41225  16.310  17.181  12.821
73008W        W41226   2.244   5.082   0.405
73009W        W41227  11.476  42.348  13.643
73010W        W41228  44.795   3.578   3.738
73011W        W41229  20.532  36.772   5.458
73012W        W41230  19.706   0.222  14.265
73013W        W41231   6.412   1.487   2.220
73014W        W41232  13.437   3.658  11.429
73015W        W41233  15.194   8.327   0.458
73016W        W41234  43.515   2.759   3.697
73017W        W41235  22.323  26.488   2.405
73018W        W41236  25.311  39.334  13.188
73019W        W41237  31.735  10.760  14.022
73020W        W41238   2.882   3.414   3.222
73021W        W41239  31.260  21.217  14.408
73022W        W41240  29.448  40.571   0.406
73023W        W41241  25.214  22.406   2.927
73024W        W41242  42.479  26.362   0.536
73025W        W41243   4.747  22.786  11.709
73026W        W41244  17.814  16.279   0.864
73027W        W41245  28.774  18.343  14.602
73028W        W41246  44.233  24.261  10.685
73029W        W41247  15.698   7.840  11.010
73030W        W41248   4.049  26.678  10.736
73031W        W41249   4.208  15.052  10.774
73032W        W41250  42.533  30.846  11.667
73033W        W41251  26.393  11.884  14.440
73034W        W41252  15.304  33.030   3.657
73035W        W41253  12.661   5.035   0.523
73036W        W41254  23.291  22.789  14.439
73037W        W41255  32.118  20.208  10.686
73038W        W41256  22.058  33.934  11.123
73039W        W41257  40.612  23.499  11.671
73040W        W41258  19.986  11.630  12.379
73041W        W41259  41.509   2.248   3.655
73042W        W41260   6.167  21.559   3.274
73043W        W41261  24.176  16.741   0.697
73044W        W41262  28.732  33.640   1.957
73045W        W41263  39.595  43.404  14.861
73046W        W41264  34.139  38.004   3.572
73047W        W41265  26.444  13.051   3.490
73048W        W41266  22.472   8.902   1.377
73049W        W41267  41.497  15.100   3.240
73050W        W41268  35.624  35.989  11.421
73051W        W41269  10.614  30.350   3.719
73052W        W41270  42.013   2.757   0.974
73053W        W41271  29.476   3.200   0.951
73054W        W41272   2.390  35.504  10.797
73055W        W41273  36.371  14.352  12.545
73056W        W41274  41.589  25.137  11.909
73057W        W41275   3.489  12.557  11.983
73058W        W41276   8.270  30.302   3.217
73059W        W41277   5.589  24.150  10.647
73060W        W41278  38.052  12.382   4.022
73061W        W41279  25.783  40.005   2.003
73062W        W41280  31.980  12.690  14.418
73063W        W41281   8.974   4.583  10.780
73064W        W41282  41.032  43.162   2.371
73065W        W41283  29.198  24.422  11.708
73066W        W41284  26.218  29.893   3.829
73067W        W41285  43.366  32.780  13.900
73068W        W41286  11.924  24.349   2.437
73069W        W41287  15.547  26.761  12.065
73070W        W41288  13.303  27.295  14.328
73071W        W41289  17.714  43.705  11.536
73072W        W41290   3.733  37.923  11.672
73073W        W41291  18.607  33.502  13.434
73074W        W41292  43.496  17.231   0.898
73075W        W41293   4.908  12.500  13.630
73076W        W41294  39.369  16.131  13.512
73077W        W41295  14.867  41.392  10.676
73078W        W41296  42.324   0.957  12.353
73079W        W41297   6.991  37.983  14.914
73080W        W41298   6.995  34.478   1.489
73081W        W41299   0.874  13.859   0.930
73082W        W41300  13.683  28.218  13.022
73083W        W41301  31.100  43.918  10.596
73084W        W41302   0.050  32.835  11.367
73085W        W41303  33.738  20.713  13.966
73086W        W41304   8.822  35.317   4.403
73087W        W41305  34.371   0.781   4.071
73088W        W41306  37.629  29.470  12.562
73089W        W41307  35.369   0.716  14.469
73090W        W41308   1.732  14.356  10.533
73091W        W41309   2.948   9.333   5.033
73092W        W41310   4.215  44.401   4.146
73093W        W41311  40.213   5.298   2.759
73094W        W41312  33.627  44.734  14.759
73095W        W41313   6.247  38.322  10.991
73096W        W41314   9.418   4.531   3.051
73097W        W41315  26.252  15.805   0.525
73098W        W41316  20.061  22.741   0.930
73099W        W41317  28.130  23.680   3.885
73100W        W41318  20.130  16.893  10.710
73101W        W41319   7.392  40.471   3.553
73102W        W41320  32.976  14.867  12.469
73103W        W41321  35.369  31.510   0.805
73104W        W41322  10.570   5.991  12.055
73105W        W41323  25.017   2.577  11.137
73106W        W41324   1.104  39.448  12.644
73107W        W41325  34.906  13.683  13.891
73108W        W41326  40.046   4.914   3.103
73109W        W41327   5.853  24.240  13.860
73110W        W41328  19.239   0.578  10.825
73111W        W41329  41.798   3.891   1.721
73112W        W41330  34.049  25.679   2.403
73113W        W41331   1.304  35.878   0.794
73114W        W41332  28.430  41.468  11.549
73115W        W41333  24.198  22.473   3.693
73116W        W41334  12.144  38.022   1.242
73117W        W41335   9.645  43.842   2.322
73118W        W41336  28.565  17.002   0.652
73119W        W41337   4.675  22.742   4.678
73120W        W41338  34.242  19.218   2.246
73121W        W41339   9.310  36.580  14.236
73122W        W41340  17.355  19.493  14.053
73123W        W41341  20.709  40.717  14.222
73124W        W41342  22.215  44.365  10.795
73125W        W41343   7.190   7.667  10.531
73126W        W41344  29.458   1.357  12.075
73127W        W41345  34.526  33.453  12.964
73128W        W41346   6.481  18.427   1.283
73129W        W41347  44.812  10.377   4.435
73130W        W41348   1.334  31.867  11.476
73131W        W41349  11.761  23.495  11.785
73132W        W41350  12.254  17.338   2.395
73133W        W41351   4.866   3.672  14.375
73134W        W41352  21.719  38.959  11.970
73135W        W41353  35.972  28.496  13.579
73136W        W41354   5.700  26.207  12.362
73137W        W41355  38.326  41.583  11.187
73138W        W41356  24.363  36.028   4.991
73139W        W41357  13.229  16.527   1.885
73140W        W41358  41.390  11.821  14.198
73141W        W41359  17.597   6.917   2.306
73142W        W41360  26.456  25.991   0.246
73143W        W41361  28.036  20.761  10.759
73144W        W41362  30.824   4.020   1.824
73145W        W41363   7.083   8.207  14.029
73146W        W41364   0.399   1.402   3.590
73147W        W41365  37.383   5.811  14.851
73148W        W41366  25.187  36.343  13.861
73149W        W41367  33.444  10.771  10.552
73150W        W41368  17.659  40.943   3.206
73151W        W41369  15.018   0.435  13.860
73152W        W41370   4.373  17.627   4.143
73153W        W41371  26.837   5.038  10.887
73154W        W41372  20.181  12.647  10.710
73155W        W41373  43.428  43.425   4.238
73156W        W41374  38.928  44.760   2.890
73157W        W41375  42.804  43.995  13.480
73158W        W41376  14.299  27.393  10.974
73159W        W41377  32.371  21.493   1.700
73160W        W41378  42.080  15.923   3.461
73161W        W41379  39.845   9.181   1.745
73162W        W41380  43.831  19.572  14.995
73163W        W41381  17.258  24.773  10.413
73164W        W41382  13.683  33.919  12.566
73165W        W41383  32.896  11.386  11.386
73166W        W41384  29.311  15.799   1.372
73167W        W41385  39.857  15.567   3.030
73168W        W41386  22.480  35.990  12.038
73169W        W41387  12.876  18.601  11.142
73170W        W41388  42.329  34.335  13.931
73171W        W41389  28.611   1.218   2.120
73172W        W41390   7.384   2.426   2.162
73173W        W41391   6.740  26.252  12.853
73174W        W41392  24.881  10.139   2.184
73175W        W41393  14.890  44.761   0.319
73176W        W41394  18.144  41.627  14.450
73177W        W41395  35.543  39.895  13.912
73178W        W41396  39.092  19.312  14.361
73179W        W41397  38.427  28.413  10.717
73180W        W41398   5.361  35.090  12.560
73181W        W41399   3.542  18.254  10.334
73182W        W41400  26.279   0.814   4.669
73183W        W41401  32.320  21.544   4.132
73184W        W41402  20.200  42.791  11.606
73185W        W41403  13.171  35.188  14.957
73186W        W41404  38.123  13.711   4.235
73187W        W41405   6.796  11.185  10.700
73188W        W41406  39.013  26.755  14.935
73189W        W41407  33.740  22.176  11.083
73190W        W41408  28.960  11.462  12.429
73191W        W41409   1.524  38.900   1.325
73192W        W41410  28.656  34.424   3.174
73193W        W41411   2.491   9.180  14.849
73194W        W41412  28.162  21.584  13.916
73195W        W41413  11.466  24.119   2.359
73196W        W41414  43.809  29.411   4.091
73197W        W41415  44.903  40.097  14.938
73198W        W41416  42.250  12.087  12.531
73199W        W41417  29.627  36.571  12.322
73200W        W41418  15.567  11.712  14.663
73201W        W41419  16.096  17.616  14.457
73202W        W41420  14.679  28.484  12.918
73203W        W41421  10.080  20.607  13.483
73204W        W41422  26.502  41.428   2.650
73205W        W41423  32.966  33.086  12.334
73206W        W41424  23.550  24.793   9.765
73207W        W41425  10.108  10.768   1.413
73208W        W41426  41.793  40.697  12.401
73209W        W41427  12.573   3.883  12.827
73210W        W41428  22.242  18.876   1.873
73211W        W41429   2.177  12.428   1.095
73212W        W41430  16.690   1.148   3.424
73213W        W41431  25.949  36.619  11.697
73214W        W41432  15.181  16.033   4.854
73215W        W41433  41.292  23.095  12.044
73216W        W41434  11.992   6.794  12.020
73217W        W41435   5.715  24.504  12.076
73218W        W41436  31.002   5.247  11.857
73219W        W41437  24.748   2.929   2.672
73220W        W41438  14.259  21.246   0.314
73221W        W41439  28.426  14.060  13.582
73222W        W41440  18.996   7.145   2.446
73223W        W41441  33.621  43.832   4.793
73224W        W41442   4.748  43.253   1.404
73225W        W41443  22.266  30.552   4.224
73226W        W41444  18.964  12.267   3.075
73227W        W41445  22.411   3.851   3.338
73228W        W41446  43.451  29.412   4.660
73229W        W41447  31.703  44.928  13.839
73230W        W41448  23.227  27.175  13.871
73231W        W41449  43.034   8.527   3.458
73232W        W41450  16.231  22.574  14.410
73233W        W41451   1.285  41.365  14.447
73234W        W41452  26.498  12.815  12.550
73235W        W41453  13.191  19.388  10.897
73236W        W41454  38.279  43.300   4.254
73237W        W41455   4.111  19.850  12.743
73238W        W41456  20.008  11.301   0.576
73239W        W41457  33.622  29.875   4.167
73240W        W41458   9.840   4.793   2.624
73241W        W41459  17.429  27.409   4.882
73242W        W41460   4.792  43.740   3.879
73243W        W41461   4.335   5.140  14.110
73244W        W41462  12.684   8.972   0.892
73245W        W41463  43.362  43.987  12.950
73246W        W41464   3.247   4.758   1.218
73247W        W41465  11.048  36.480  13.400
73248W        W41466   7.495  24.712  13.413
73249W        W41467  39.723  26.274   0.767
73250W        W41468   0.205  27.153  12.507
73251W        W41469  36.071  26.426  13.813
73252W        W41470  39.565  18.543  14.354
73253W        W41471  17.506   5.476   2.232
73254W        W41472  41.706  12.724   1.206
73255W        W41473  26.225  17.211  13.082
73256W        W41474  28.077  40.283   4.489
73257W        W41475   6.845   1.169   0.360
73258W        W41476  11.350  12.676   0.720
73259W        W41477   9.245   8.396   1.669
73260W        W41478   5.661  30.256   1.626
73261W        W41479  32.109  25.990  12.498
73262W        W41480  34.619   4.327  14.561
73263W        W41481  15.724  17.623  14.901
73264W        W41482  28.516  10.346   3.199
73265W        W41483   1.962  44.599   1.921
73266W        W41484  39.294  20.157  12.864
73267W        W41485  38.469  23.106   3.481
73268W        W41486   6.161  23.193   3.751
73269W        W41487  35.945   9.501  14.136
73270W        W41488  29.253  41.045  13.338
73271W        W41489  20.830  29.933   4.924
73272W        W41490  12.679  19.812  14.137
73273W        W41491  30.550  33.235   1.580
73274W        W41492  43.415   9.388  10.932
73275W        W41493  10.735  38.295   3.352
73276W        W41494   4.962  36.308  13.074
73277W        W41495  12.627  11.649   2.197
73278W        W41496  11.181   9.304  14.186
73279W        W41497  15.548  12.258  11.131
73280W        W41498  43.886  34.459   3.296
73281W        W41499  34.407  34.897   3.499
73282W        W41500  14.336  31.272   0.193
73283W        W41501  35.819   0.807   2.742
73284W        W41502   2.689  36.007  13.849
73285W        W41503  38.064  38.992  11.601
73286W        W41504  10.727  11.233  12.885
73287W        W41505   7.301  22.051  12.840
73288W        W41506   8.302  23.607   1.852
73289W        W41507  33.938  20.060   1.690
73290W        W41508  19.941   2.177  10.965
73291W        W41509   9.811  36.374   2.738
73292W        W41510  23.741  34.634   4.217
73293W        W41511   1.758  26.121   0.699
73294W        W41512  30.158   4.755  10.674
73295W        W41513  26.112  12.745   2.183
73296W        W41514  41.367  29.430   1.762
73297W        W41515   9.388  33.687  13.045
73298W        W41516  39.529  39.916  12.340
73299W        W41517  36.654   6.219   0.157
73300W        W41518  38.439  15.013   1.356
73301W        W41519  30.546  26.210  10.459
73302W        W41520   3.876  37.427  10.694
73303W        W41521  31.167  30.495  13.353
73304W        W41522  40.991  34.576  10.949
73305W        W41523  32.200   1.019  12.798
73306W        W41524  29.804  32.374   3.864
73307W        W41525  14.319  20.556   3.723
73308W        W41526  20.575  34.264   0.499
73309W        W41527  16.073  39.427  14.450
73310W        W41528  15.092  36.500   1.924
73311W        W41529  29.647   3.754  12.408
73312W        W41530   4.865  40.933   2.255
73313W        W41531  29.572   1.914  13.302
73314W        W41532  14.098  42.978  14.466
73315W        W41533   0.442  11.384  14.333
73316W        W41534   2.767  32.469  10.435
73317W        W41535  17.584   8.695   0.945
73318W        W41536  13.567  20.403  12.835
73319W        W41537   1.613   2.417   3.158
73320W        W41538  29.220   1.709   4.287
73321W        W41539  20.884  10.949  13.104
73322W        W41540   1.915  15.284   3.111
73323W        W41541  26.525  20.451  12.128
73324W        W41542   8.225  34.264   1.748
73325W        W41543  13.993  13.358  11.558
73326W        W41544  30.132  34.154   4.520
73327W        W41545   4.967  26.516   3.745
73328W        W41546  29.937   8.888   0.198
73329W        W41547  36.052  24.969   1.834
73330W        W41548  17.722  25.730  12.058
73331W        W41549  26.164  31.578  12.728
73332W        W41550  30.175  43.961   2.292
73333W        W41551  25.232  30.104  11.142
73334W        W41552  21.371  38.595  10.989
73335W        W41553  43.757  15.050   2.783
73336W        W41554   5.369  16.003   0.718
73337W        W41555   3.792  35.352  12.038
73338W        W41556  44.278  10.202   1.258
73339W        W41557  34.091  18.837  13.899
73340W        W41558  44.211  38.873   1.878
73341W        W41559  19.621  30.321  10.522
73342W        W41560  18.100  10.904   3.252
73343W        W41561   3.351   5.092  11.512
73344W        W41562  20.614  16.006  10.239
73345W        W41563  25.260   8.212  10.482
73346W        W41564   7.739   9.198   0.435
73347W        W41565  34.948  21.678  14.300
73348W        W41566   7.677  25.641  12.877
73349W        W41567   7.670  13.856  12.881
73350W        W41568  17.068  37.803   1.450
73351W        W41569  14.565  10.319   3.094
73352W        W41570  30.920  38.092   4.344
73353W        W41571   7.648  42.588  13.833
73354W        W41572  27.393  29.028  11.077
73355W        W41573   0.423   5.235  14.001
73356W        W41574   8.250   3.792  12.451
73357W        W41575   7.820  38.400   1.906
73358W        W41576   6.937  43.400   1.505
73359W        W41577  32.695   6.620   1.416
73360W        W41578  16.102  44.916  12.901
73361W        W41579  15.795  26.507   3.126
73362W        W41580  11.848  21.914  13.168
73363W        W41581  36.589  24.789   3.272
73364W        W41582  14.549   1.705  11.238
73365W        W41583  25.843  33.058  13.819
73366W        W41584  19.704  28.948   4.776
73367W        W41585  16.884   1.084   1.714
73368W        W41586  42.466  25.092   3.305
73369W        W41587  28.953  33.926  11.470
73370W        W41588   8.376  25.582   3.156
73371W        W41589   0.451  41.520  13.495
73372W        W41590  40.498   0.058   4.610
73373W        W41591  35.267  38.435   1.319
73374W        W41592  12.212  34.379  11.600
73375W        W41593  10.105   2.857   3.296
73376W        W41594  27.844   5.074  10.822
73377W        W41595  19.132   9.544   1.229
73378W        W41596  27.280  23.191  13.946
73379W        W41597  32.922  32.154  14.468
73380W        W41598   7.419  24.036   3.751
73381W        W41599   9.568  22.203  12.953
73382W        W41600  21.555  11.079   3.632
73383W        W41601   3.000  27.893  12.563
73384W        W41602  33.022  24.424  10.365
73385W        W41603  23.718  41.967  13.032
73386W        W41604  13.742   8.897  11.845
73387W        W41605  37.425  13.095   0.791
73388W        W41606   9.116  33.416   3.590
73389W        W41607  17.323  29.536  11.192
73390W        W41608  37.502  13.699  14.930
73391W        W41609  23.189  43.361   2.373
73392W        W41610  31.537  33.928   4.871
73393W        W41611  21.165  21.034   4.576
73394W        W41612  31.151  38.023   1.431
73395W        W41613  23.209  22.888   0.783
73396W        W41614  31.977  28.694   4.901
73397W        W41615  11.094  11.722   2.793
73398W        W41616   0.309  42.135   0.766
73399W        W41617  32.585  13.215  10.724
73400W        W41618  38.557  29.419  14.913
73401W        W41619  32.102  35.824  10.701
73402W        W41620   1.313  30.532  13.508
73403W        W41621  33.090  16.033   4.174
73404W        W41622  43.150  11.797   3.156
73405W        W41623  21.707  29.109  11.577
73406W        W41624  20.156   4.227   1.634
73407W        W41625  29.721   7.776  12.197
73408W        W41626   6.949  29.719  10.531
73409W        W41627  26.111  31.631   2.578
73410W        W41628  19.228  31.803   1.036
73411W        W41629   3.015  26.588  10.787
73412W        W41630  20.283  33.048   4.213
73413W        W41631  23.703  17.585   1.758
73414W        W41632  40.384  11.161  14.792
73415W        W41633  17.721  17.542   0.188
73416W        W41634   0.836  14.361   0.788
73417W        W41635  33.542  42.390  13.465
73418W        W41636   9.809  13.708  14.304
73419W        W41637  33.048  25.524  10.046
73420W        W41638  19.201  16.706  14.140
73421W        W41639   6.814  39.319  14.958
73422W        W41640  12.040  37.502  13.656
73423W        W41641  22.010  34.980  11.168
73424W        W41642  16.155   1.915  13.830
73425W        W41643  23.669   9.030  14.175
73426W        W41644   8.586  42.546   4.193
73427W        W41645  19.233   4.288   4.170
73428W        W41646  20.474  34.105  14.994
73429W        W41647   2.269  37.375   2.319
73430W        W41648  18.406  18.651  14.299
73431W        W41649   8.739   8.086  11.640
73432W        W41650   5.859  20.078   0.409
73433W        W41651  39.035  17.223   1.676
73434W        W41652  25.616  30.358   2.961
73435W        W41653   2.858  26.706   3.031
73436W        W41654  40.361  13.086  11.475
73437W        W41655  33.159  35.883   0.960
73438W        W41656  26.899  27.438  12.908
73439W        W41657   3.764   8.932   1.572
73440W        W41658  14.911  31.997   0.011
73441W        W41659  22.518  10.414   0.891
73442W        W41660  36.739  22.711   4.476
73443W        W41661  19.291  34.550   1.445
73444W        W41662  22.667  21.973   4.265
73445W        W41663  24.014  14.091   0.391
73446W        W41664  32.646   9.884   2.290
73447W        W41665  37.197   7.217   4.008
73448W        W41666  19.233   3.280   1.759
73449W        W41667  11.607   3.747  12.543
73450W        W41668   9.440  18.280  13.815
73451W        W41669  21.475  14.777   3.744
73452W        W41670  37.129  27.721   0.322
73453W        W41671  14.127   4.777   1.395
73454W        W41672  32.044   9.566   2.167
73455W        W41673  44.024  32.013  14.021
73456W        W41674  37.653  27.486  10.122
73457W        W41675   1.256   6.312  13.288
73458W        W41676  24.556  31.533   1.342
73459W        W41677  23.135  15.273   1.769
73460W        W41678  43.832  20.953  14.252
73461W        W41679  10.997  21.175  10.122
73462W        W41680   1.068  41.663  10.152
73463W        W41681  41.910  36.289   2.005
73464W        W41682  27.985  36.958   3.108
73465W        W41683  43.411  17.100  11.513
73466W        W41684  19.629  12.652  11.446
73467W        W41685  30.967  39.248  10.148
73468W        W41686  39.950  14.980   4.660
73469W        W41687  36.139  27.555   2.280
73470W        W41688  36.138   3.248   2.135
73471W        W41689   6.258  18.771   4.969
73472W        W41690  26.153  17.501   3.903
73473W        W41691  17.630  39.569  12.878
73474W        W41692  29.058   1.978  13.378
73475W        W41693  33.958  44.854  13.822
73476W        W41694  14.280   5.382   4.395
73477W        W41695  20.060   9.121  10.798
73478W        W41696  31.917  43.749   2.631
73479W        W41697   5.435  41.003   1.419
73480W        W41698  10.753   0.305  14.013
73481W        W41699  15.046  25.314  13.809
73482W        W41700   8.739  44.524  14.807
73483W        W41701  26.928   4.459  12.149
73484W        W41702   4.618  12.563   4.972
73485W        W41703  15.651  12.200   1.321
73486W        W41704  18.148  36.184  12.028
73487W        W41705  22.748  16.049  13.523
73488W        W41706  12.864  35.644   0.837
73489W        W41707  39.768   4.116  10.337
73490W        W41708  23.084  44.485  12.583
73491W        W41709  15.808   3.181   4.760
73492W        W41710  37.064  36.166  11.176
73493W        W41711   5.538  11.076  14.738
73494W        W41712  35.937  29.742   4.056
73495W        W41713  29.967  18.889   0.412
73496W        W41714  43.013  32.744   0.974
73497W        W41715   0.082  20.272   0.835
73498W        W41716  15.829  35.109  11.242
73499W        W41717  34.481  27.474   2.236
73500W        W41718   5.870  33.575   1.444
73501W        W41719  19.680  31.921   1.808
73502W        W41720  33.404   9.212   4.376
73503W        W41721  28.138  30.532   3.631
73504W        W41722  26.467   3.741   3.346
73505W        W41723  17.280  12.573   3.112
73506W        W41724  16.877  12.774  14.019
73507W        W41725  32.617  33.639   2.671
73508W        W41726  26.493   5.347  11.625
73509W        W41727   2.813  42.948   0.212
73510W        W41728  35.174   3.337   3.277
73511W        W41729  41.312  36.890   1.126
73512W        W41730   7.338   0.921  14.465
73513W        W41731  41.622  12.397   2.743
73514W        W41732   0.776  11.995  14.148
73515W        W41733  32.656   6.299  13.884
73516W        W41734  21.978   2.689   3.992
73517W        W41735  41.950  18.792   1.962
73518W        W41736  34.149   0.495   4.567
73519W        W41737  44.367  31.384   2.027
73520W        W41738   2.225  20.607   1.796
73521W        W41739  27.112  43.891  12.519
73522W        W41740  35.830  39.900   4.504
73523W        W41741  12.156  31.381   4.548
73524W        W41742  26.521  28.311   4.679
73525W        W41743  13.319  39.334  13.972
73526W        W41744  22.036   9.242   1.465
73527W        W41745  38.917   9.442   2.295
73528W        W41746  16.057  30.216  12.486
73529W        W41747   5.304  31.606   3.997
73530W        W41748  39.497  37.815   1.770
73531W        W41749  30.537   3.617  11.005
73532W        W41750  17.682   2.286   4.777
73533W        W41751  24.492  44.491  14.530
73534W        W41752  21.938  26.407  12.407
73535W        W41753  25.179   2.954  12.474
73536W        W41754  25.694  12.274   4.221
73537W        W41755  22.143  16.243  11.686
73538W        W41756  23.997  18.933   0.450
73539W        W41757  40.818  42.018  14.822
73540W        W41758  26.971  41.602   2.783
73541W        W41759  42.600  34.457  13.515
73542W        W41760   1.668   3.855   3.533
73543W        W41761  22.679   7.933  11.175
73544W        W41762  18.282  25.730  10.782
73545W        W41763  28.200  43.422   3.772
73546W        W41764  40.294  14.086   1.482
73547W        W41765  21.620  34.695   3.159
73548W        W41766   4.986  24.111  12.517
73549W        W41767  38.674  23.523  13.102
73550W        W41768  20.566  12.255   3.108
73551W        W41769   7.068   8.988  12.505
73552W        W41770  16.486  20.678   4.281
73553W        W41771   8.206   5.521  12.681
73554W        W41772   1.938   0.267  14.216
73555W        W41773   5.241  18.280   0.713
73556W        W41774  41.397  22.677   2.202
73557W        W41775  28.655  24.759  12.545
73558W        W41776  26.144  12.638  10.537
73559W        W41777  26.336   4.236   3.158
73560W        W41778  22.420   7.363  12.471
73561W        W41779  27.433  20.588   2.948
73562W        W41780  20.178  36.768  14.879
73563W        W41781   0.793   4.193   2.343
73564W        W41782  42.894  13.794  10.466
73565W        W41783  16.763  31.073  14.457
73566W        W41784   4.808   1.108  13.071
73567W        W41785  37.837  12.211  12.044
73568W        W41786  17.847  15.742   3.869
73569W        W41787  17.087  44.032  13.941
73570W        W41788  44.413  12.832   4.239
73571W        W41789  25.444  42.627  12.942
73572W        W41790  42.818  29.546  11.573
73573W        W41791  36.299   8.333   2.779
73574W        W41792  32.017  20.058   4.783
73575W        W41793  12.422  38.177  12.966
73576W        W41794  17.316  32.737   9.955
73577W        W41795  43.255  26.464   1.414
73578W        W41796  34.124  22.308   4.103
73579W        W41797  28.420  11.864   4.081
73580W        W41798  32.438  22.018   2.745
73581W        W41799  28.219   6.170   3.390
73582W        W41800  41.000   3.492   3.284
73583W        W41801  27.835  39.421  12.910
73584W        W41802  43.070  37.550  13.650
73585W        W41803  42.279   7.823  14.968
73586W        W41804  32.191  26.012   4.134
73587W        W41805   6.779   7.968  11.993
73588W        W41806   5.690  27.738   3.804
73589W        W41807  16.065   1.926  13.003
73590W        W41808  30.580  39.633  14.082
73591W        W41809  41.250  41.408  11.486
73592W        W41810  34.377   5.354   3.921
73593W        W41811   0.905   7.492   1.948
73594W        W41812  27.136  35.559   3.665
73595W        W41813  28.713  24.016   3.169
73596W        W41814  29.652  25.919  11.464
73597W        W41815  42.980   1.969   0.976
73598W        W41816  37.591  19.656   4.152
73599W        W41817  27.228   7.924  14.774
73600W        W41818  12.718  24.611  14.501
73601W        W41819  24.151  14.197  13.007
73602W        W41820  44.459  14.653   1.833
73603W        W41821   8.290  44.388  14.406
73604W        W41822  29.631  28.162   4.675
73605W        W41823  22.770  29.620   3.278
73606W        W41824  23.241  25.010   4.383
73607W        W41825  12.884   8.366  14.371
73608W        W41826   9.130   8.195   4.044
73609W        W41827   5.541   2.148  14.472
73610W        W41828  17.808  36.612  10.749
73611W        W41829  21.553  26.599  14.469
73612W        W41830  28.616  26.081  11.284
73613W        W41831  22.175  33.029   2.324
73614W        W41832  34.416   8.153   1.249
73615W        W41833  28.024  43.784   2.804
73616W        W41834  32.891  41.817  14.241
73617W        W41835  23.741  32.323   0.663
73618W        W41836  39.420  30.913  14.696
73619W        W41837  41.135  42.182  11.218
73620W        W41838  12.553   6.194  13.619
73621W        W41839  19.592   4.778  10.550
73622W        W41840  25.666  32.695  12.519
73623W        W41841  24.600  43.128   0.335
73624W        W41842  31.497  32.419   4.239
73625W        W41843  37.364  35.344   1.883
73626W        W41844   8.291  16.057  13.036
73627W        W41845  15.637  16.827  13.362
73628W        W41846  17.837   3.234   4.067
73629W        W41847   2.860  18.053  11.570
73630W        W41848  32.380  30.414   4.737
73631W        W41849  43.461  22.163   2.087
73632W        W41850  44.201  34.707   2.556
73633W        W41851  17.622   2.019   2.754
73634W        W41852  30.965  22.364  13.357
73635W        W41853  28.518  10.689  14.593
73636W        W41854  32.792  12.645  10.721
73637W        W41855   6.920  38.070  11.421
73638W        W41856  28.193  35.930  14.953
73639W        W41857  18.523  28.873  14.163
73640W        W41858  10.355  33.134   4.638
73641W        W41859  16.087  41.300   4.967
73642W        W41860  16.515  35.665  11.648
73643W        W41861   6.462  40.012  12.959
73644W        W41862  24.459  40.560   3.089
73645W        W41863  20.993  21.125  14.805
73646W        W41864  13.726   4.324   2.654
73647W        W41865  23.994   9.930   3.205
73648W        W41866  24.510  19.664   1.407
73649W        W41867   4.694   6.931  12.072
73650W        W41868  31.107  16.136  14.344
73651W        W41869  26.776   3.296  14.675
73652W        W41870  10.377   7.416  12.898
73653W        W41871  14.168  11.565   1.362
73654W        W41872  24.170  25.396   9.868
73655W        W41873  22.585  39.300   2.846
73656W        W41874  20.098  41.305  11.482
73657W        W41875  19.026  32.086   2.450
73658W        W41876  36.148  19.829   0.694
73659W        W41877  27.451   2.244   3.665
73660W        W41878   4.545   6.742  14.674
73661W        W41879   7.746   5.342   3.409
73662W        W41880   4.748  11.188  11.530
73663W        W41881   4.225  43.080  13.779
73664W        W41882  22.621  32.423   1.743
73665W        W41883  31.281  12.393  11.986
73666W        W41884  41.502  41.963  12.000
73667W        W41885  38.550  18.279   0.810
73668W        W41886  18.033  34.570  11.141
73669W        W41887  27.557  35.847  14.508
73670W        W41888  44.260  25.957   0.021
73671W        W41889  44.335  10.142   0.644
73672W        W41890  26.098   9.331   4.655
73673W        W41891  29.106  12.372  12.836
73674W        W41892  29.682  38.383  11.986
73675W        W41893   5.249  10.366  11.471
73676W        W41894  24.544   9.746   0.354
73677W        W41895  10.455  19.200  14.747
73678W        W41896  17.831  16.546  14.067
73679W        W41897  32.125  14.308  11.519
73680W        W41898   3.959   6.143  14.269
73681W        W41899  35.962  43.248  13.173
73682W        W41900  35.642  12.126   1.231
73683W        W41901  31.817  27.716   3.892
73684W        W41902  43.716   8.744  12.657
73685W        W41903  27.541  44.733   2.600
73686W        W41904  20.834  19.148   4.569
73687W        W41905  29.497  40.052  13.431
73688W        W41906  39.353  44.356  14.379
73689W        W41907  21.294  15.707   1.755
73690W        W41908  36.806  29.002   4.149
73691W        W41909  34.463  40.302  14.494
73692W        W41910  34.613  33.598   0.965
73693W        W41911  15.804  33.518  14.111
73694W        W41912  16.652  25.544   3.406
73695W        W41913  12.580  37.037  14.578
73696W        W41914  30.140  35.602   0.918
73697W        W41915  18.005  25.232  10.695
73698W        W41916  33.134  32.602  14.937
73699W        W41917  17.614  44.211   0.746
73700W        W41918  16.169   7.768  12.838
73701W        W41919  24.163   6.247  14.697
73702W        W41920   9.351   8.605  14.357
73703W        W41921  29.931  34.137   0.983
73704W        W41922   4.266  38.625  14.805
73705W        W41923  44.490  25.495  14.954
73706W        W41924  30.964  27.763  14.539
73707W        W41925   0.446  34.987   5.111
73708W        W41926  28.400  33.532  11.898
73709W        W41927  41.019  30.448   2.904
73710W        W41928  39.474  25.631   1.230
73711W        W41929   9.655  39.538   0.378
73712W        W41930  31.111  37.443   2.854
73713W        W41931  13.124  29.302   4.087
73714W        W41932  27.347   5.034  10.862
73715W        W41933   1.677  26.870  14.515
73716W        W41934  23.109   0.343  10.620
73717W        W41935  37.353  33.919   4.733
73718W        W41936  21.620   1.310  14.059
73719W        W41937  30.677  15.270  12.534
73720W        W41938  15.756   6.163   2.227
73721W        W41939  32.414  32.676   4.130
73722W        W41940  27.002  41.063   3.101
73723W        W41941   7.633   4.946  10.194
73724W        W41942  18.539   3.012   1.692
73725W        W41943  41.844  43.525   3.003
73726W        W41944  41.496  17.573   2.222
73727W        W41945   7.279  32.670   0.654
73728W        W41946  36.747   8.173  12.337
73729W        W41947  24.003  31.821   4.165
73730W        W41948  22.721  23.526  12.504
73731W        W41949  38.545   9.885  11.209
73732W        W41950  29.633  21.941   2.550
73733W        W41951   4.112  42.031   1.216
73734W        W41952   0.269   6.745  10.577
73735W        W41953  41.064  22.664   0.466
73736W        W41954  17.008  19.274   2.283
73737W        W41955  28.205  25.683  11.327
73738W        W41956  12.301  12.619   4.482
73739W        W41957  22.769  10.597  14.406
73740W        W41958  20.239   8.125  10.454
73741W        W41959   7.259   9.785   3.567
73742W        W41960  22.777  30.608   0.416
73743W        W41961  30.118  13.928   3.384
73744W        W41962   2.363  26.347  13.556
73745W        W41963  36.677  20.199   3.004
73746W        W41964  14.463  14.359  11.067
73747W        W41965  22.525   0.498   2.466
73748W        W41966  18.664  44.936   4.599
73749W        W41967  26.242   8.845   3.808
73750W        W41968  13.542  23.124   2.846
73751W        W41969  10.833  25.450  11.680
73752W        W41970  21.059  40.917  14.862
73753W        W41971  42.422  20.040  12.928
73754W        W41972  34.149  18.719   4.596
73755W        W41973  31.864  29.979  14.047
73756W        W41974  21.485  16.384   3.641
73757W        W41975  17.454   5.225   3.688
73758W        W41976  19.535   4.986   2.294
73759W        W41977  19.178   9.064   3.032
73760W        W41978  39.824   0.976  11.036
73761W        W41979   4.785  11.350   4.583
73762W        W41980  30.557  22.279   2.647
73763W        W41981  21.122   9.254  11.929
73764W        W41982  16.143  36.074   1.345
73765W        W41983   4.712   2.775   1.478
73766W        W41984  31.503  41.496   2.700
73767W        W41985   4.817  44.994   0.843
73768W        W41986  33.154  22.956  12.873
73769W        W41987  21.332  42.975  12.830
73770W        W41988  22.978  17.210  10.723
73771W        W41989  33.778   9.183  10.940
73772W        W41990  34.365   2.190   4.329
73773W        W41991  26.006  11.381  11.640
73774W        W41992  12.583  36.170   3.606
73775W        W41993  33.042   8.808   0.399
73776W        W41994  21.278  44.772  10.693
73777W        W41995   1.950  18.719  11.162
73778W        W41996  22.468   9.683  10.089
73779W        W41997  22.990  34.965  12.212
73780W        W41998  33.893   1.464   4.636
73781W        W41999  15.266  27.015   3.015
73782W        W42000  27.064  31.565   4.593
73783W        W42001  14.631  27.702  12.444
73784W        W42002  17.472   3.851   4.681
73785W        W42003   1.410   6.793  12.460
73786W        W42004  40.076   4.352   3.403
73787W        W42005  16.042  25.014  13.835
73788W        W42006  15.072   1.775   0.460
73789W        W42007  34.886   6.157  11.939
73790W        W42008  40.410  41.055  14.221
73791W        W42009  42.893  12.283   3.197
73792W        W42010   1.812  10.126   3.855
73793W        W42011  16.595  33.126   2.225
73794W        W42012   1.852  38.777   2.265
73795W        W42013  37.877  44.492  14.417
73796W        W42014  13.640  42.363   4.821
73797W        W42015   8.300  14.121   1.347
73798W        W42016   9.423  41.907  14.265
73799W        W42017  43.298   2.193  11.907
73800W        W42018  39.078  21.543  13.504
73801W        W42019  29.177  20.581  12.630
73802W        W42020  37.555  37.998  11.105
73803W        W42021  43.535  35.355   2.164
73804W        W42022  10.226  14.356   1.854
73805W        W42023  30.572  28.098   2.137
73806W        W42024  43.841  16.348  13.216
73807W        W42025   6.699   7.359   1.195
73808W        W42026  27.826   9.437   3.773
73809W        W42027  32.902   8.635  14.868
73810W        W42028  16.721  19.095  12.013
73811W        W42029   7.434  31.624  14.834
73812W        W42030  32.614  17.049  14.205
73813W        W42031   1.900  28.678   4.777
73814W        W42032  21.738  31.590  12.497
73815W        W42033  11.584  28.200  13.493
73816W        W42034  11.636  42.738   1.793
73817W        W42035   4.213  41.282   3.168
73818W        W42036  28.017  22.674  12.580
73819W        W42037  43.386  32.392   0.166
73820W        W42038  30.996  20.097   1.170
73821W        W42039  37.510  37.458  11.908
73822W        W42040  12.635  44.348  14.983
73823W        W42041   5.608  15.125   3.615
73824W        W42042  27.230  40.417   1.379
73825W        W42043   7.261  38.003   3.119
73826W        W42044  37.030  28.488  11.908
73827W        W42045  30.886  24.958   1.440
73828W        W42046   1.297  23.571  14.341
73829W        W42047  19.098  38.098   4.158
73830W        W42048  15.134  17.078  13.364
73831W        W42049  33.063   3.915   2.652
73832W        W42050  29.569  32.397   1.358
73833W        W42051  32.869  29.466  14.785
73834W        W42052  17.304   9.328   2.762
73835W        W42053   2.476  11.746   4.515
73836W        W42054  44.174  32.578   2.917
73837W        W42055  25.740   2.834  11.595
73838W        W42056   0.856  33.411   0.539
73839W        W42057  41.618  39.918   2.817
73840W        W42058  20.742  34.161  10.896
73841W        W42059   8.223   9.732  12.879
73842W        W42060  19.043  34.353   3.320
73843W        W42061  21.186  42.884   3.351
73844W        W42062  20.158   5.671  11.942
73845W        W42063  42.000   9.204   1.396
73846W        W42064  23.259   0.381  12.170
73847W        W42065  11.474  25.465   0.392
73848W        W42066   9.095  42.074   0.719
73849W        W42067  44.275  14.864   3.698
73850W        W42068   4.113  20.486   2.160
73851W        W42069  14.190  11.102   0.723
73852W        W42070  28.480  43.863   3.015
73853W        W42071  23.486  15.004   0.438
73854W        W42072  33.790  12.320   3.097
73855W        W42073  30.529   9.738   1.852
73856W        W42074  13.748  27.591   3.255
73857W        W42075  39.275  40.831  10.966
73858W        W42076  22.446  23.293   4.388
73859W        W42077  18.286   5.596   3.268
73860W        W42078  34.226  23.896   4.149
73861W        W42079  44.125   7.253  13.864
73862W        W42080  36.978  39.436   4.860
73863W        W42081   9.817  30.422   1.967
73864W        W42082  43.088   0.551  12.950
73865W        W42083  23.526   4.473   3.713
73866W        W42084  39.141  36.643   4.626
73867W        W42085  33.092  25.234   1.860
73868W        W42086  25.970   7.450   0.352
73869W        W42087   3.168   9.205   3.208
73870W        W42088  11.865  30.115  13.455
73871W        W42089  41.346  34.020   1.825
73872W        W42090  34.681   1.603  13.005
73873W        W42091  11.511  24.781  11.513
73874W        W42092  35.480  21.363   1.394
73875W        W42093  28.114  20.943  11.952
73876W        W42094  37.128  34.782  13.096
73877W        W42095  39.382  22.061  12.071
73878W        W42096  18.476  29.915   0.332
73879W        W42097   3.680  31.713   3.731
73880W        W42098  21.976  22.699  11.019
73881W        W42099   5.748  39.940   0.852
73882W        W42100  44.251  13.420  14.531
73883W        W42101  17.853  19.155   4.106
73884W        W42102  17.400  17.233  14.502
73885W        W42103  13.217   3.062  12.929
73886W        W42104  30.777  37.484  12.209
73887W        W42105  37.415  14.428   2.283
73888W        W42106  31.157  30.485  10.194
73889W        W42107  31.410  33.312   3.492
73890W        W42108   1.825   5.841   3.670
73891W        W42109  21.628  16.045   4.012
73892W        W42110  26.225  39.585   4.284
73893W        W42111   5.971  16.237  10.594
73894W        W42112   6.365   6.462   1.961
73895W        W42113   2.336  23.644  12.380
73896W        W42114  14.910  26.875  11.423
73897W        W42115  38.487  15.150  13.829
73898W        W42116  10.876  26.611  11.069
73899W        W42117  28.341   0.330   2.563
73900W        W42118  33.521  44.171  12.879
73901W        W42119   1.025  40.505   5.127
73902W        W42120  35.275   5.634  13.730
73903W        W42121  20.190  20.490  13.855
73904W        W42122  44.480  24.041   4.525
73905W        W42123  35.139   6.106   0.410
73906W        W42124   4.902  43.113  14.545
73907W        W42125  34.610  20.667  11.996
73908W        W42126   5.367  11.810  12.419
73909W        W42127   4.319  19.591   2.512
73910W        W42128  14.725  21.734   1.839
73911W        W42129  39.088  28.380   2.291
73912W        W42130   7.797  37.894   1.912
73913W        W42131   7.683  33.262   0.458
73914W        W42132  32.605  13.044  11.231
73915W        W42133   4.882  16.795  14.389
73916W        W42134  12.073  25.639   3.654
73917W        W42135  26.149  22.212   0.999
73918W        W42136  32.740   0.931   0.520
73919W        W42137   1.391  34.861  14.354
73920W        W42138  24.191  16.141  14.890
73921W        W42139  26.453  28.908   1.857
73922W        W42140  23.145  18.614   4.756
73923W        W42141  34.563   6.614   1.415
73924W        W42142  39.291  26.192   2.777
73925W        W42143   5.482  13.169  14.437
73926W        W42144  44.056   6.939  12.041
73927W        W42145   2.503   7.896  11.535
73928W        W42146  19.719  44.851   3.805
73929W        W42147  23.200  23.720   4.580
73930W        W42148  44.497  26.753   1.300
73931W        W42149   6.117  44.142  13.973
73932W        W42150  44.798  30.482  10.678
73933W        W42151  42.064  21.087   5.133
73934W        W42152  38.742  15.631  13.894
73935W        W42153  15.175   6.544  13.959
73936W        W42154   5.798  11.936  13.132
73937W        W42155   8.446  27.697  10.701
73938W        W42156  35.487   3.376   4.874
73939W        W42157  32.110  27.780  11.671
73940W        W42158  41.987  22.554   1.464
73941W        W42159  43.777  29.170  14.748
73942W        W42160  14.739  26.452  11.952
73943W        W42161   2.740  13.639   1.433
73944W        W42162  41.574  37.038   3.667
73945W        W42163  29.907  18.230   0.501
73946W        W42164  41.009  42.476  10.479
73947W        W42165  24.114   2.544  13.133
73948W        W42166  27.616   9.204   2.643
73949W        W42167   4.197  20.863  14.066
73950W        W42168  24.007   6.493  12.563
73951W        W42169  12.788  42.724  12.874
73952W        W42170  37.545  17.117  14.451
73953W        W42171  23.173  44.897  11.965
73954W        W42172  13.391  41.958   0.878
73955W        W42173   9.282  42.747   1.827
73956W        W42174  22.841  20.879  14.409
73957W        W42175  16.168  43.459   3.590
73958W        W42176  14.640  18.569  12.563
73959W        W42177  28.615  14.311   3.308
73960W        W42178  13.562  43.775  14.899
73961W        W42179  28.047   4.251  13.558
73962W        W42180  11.687  18.530  12.982
73963W        W42181  33.385  32.467  14.351
73964W        W42182   5.309  36.648   1.811
73965W        W42183   9.204   2.641   0.162
73966W        W42184  38.503  34.506   0.919
73967W        W42185   4.395  17.774  12.624
73968W        W42186   5.917  27.569  12.488
73969W        W42187  39.359   1.042   2.362
73970W        W42188  10.724  36.112   2.677
73971W        W42189  34.595  17.983  12.687
73972W        W42190  42.094   4.824   2.886
73973W        W42191  20.322   4.182   4.599
73974W        W42192  17.507  23.109  10.580
73975W        W42193  28.253  30.563   0.713
73976W        W42194  23.470  27.577  13.616
73977W        W42195   2.955   2.660  11.591
73978W        W42196   5.041   9.281   0.938
73979W        W42197   6.361  19.692  14.779
73980W        W42198  15.789  21.797   3.549
73981W        W42199  39.886  37.891  13.851
73982W        W42200  42.817   3.287  13.556
73983W        W42201  38.436   4.277   1.846
73984W        W42202  20.108   0.602   4.314
73985W        W42203  14.240  39.790  14.948
73986W        W42204  28.431  29.200   1.755
73987W        W42205   7.663  40.514   4.924
73988W        W42206  38.434   1.889   0.248
73989W        W42207  10.511  40.356   5.225
73990W        W42208  12.037  28.733   1.587
73991W        W42209  18.039  39.034  11.367
73992W        W42210  26.388  43.820  10.954
73993W        W42211  25.756  16.058  11.100
73994W        W42212  15.629  40.680   3.693
73995W        W42213   8.424  35.579  10.768
73996W        W42214  14.386  19.128  13.071
73997W        W42215  36.276  13.172  12.041
73998W        W42216  19.193   9.138  14.847
73999W        W42217  26.844  16.735  12.425
74000W        W42218   3.746  27.444   2.771
74001W        W42219  16.706  28.590  13.963
74002W        W42220  42.027  44.803   4.800
74003W        W42221  44.800  19.283   1.679
74004W        W42222  21.124  27.211  11.521
74005W        W42223  38.125  15.401  13.388
74006W        W42224  15.804  41.020   0.288
74007W        W42225  12.457   8.870  11.717
74008W        W42226  42.667  40.510  11.506
74009W        W42227  34.087  29.195  14.556
74010W        W42228  29.139  33.987   4.199
74011W        W42229  35.614  44.108   2.256
74012W        W42230   6.645  22.614  13.147
74013W        W42231  13.274   2.389   0.319
74014W        W42232  22.077   7.739  14.714
74015W        W42233   4.709   2.907   0.440
74016W        W42234  39.275  32.676   4.020
74017W        W42235  16.598  21.662   3.967
74018W        W42236  18.091  30.070   4.831
74019W        W42237  30.668  40.895  13.448
74020W        W42238  15.960  18.570   2.716
74021W        W42239  13.530  24.012  12.592
74022W        W42240  26.372   5.794  10.702
74023W        W42241  11.719  29.023   4.157
74024W        W42242  10.354  31.110  13.252
74025W        W42243   7.434  43.250   4.357
74026W        W42244   8.751  28.207  12.093
74027W        W42245   9.879  25.174   2.842
74028W        W42246   1.725  40.702  13.461
74029W        W42247   3.661   7.285   5.221
74030W        W42248  13.942  41.373   2.635
74031W        W42249   2.333  30.586   0.828
74032W        W42250   1.337  19.288   2.133
74033W        W42251  11.690  33.888   2.814
74034W        W42252   9.556  30.564  12.505
74035W        W42253  28.697  33.396  13.375
74036W        W42254  18.225  35.551   2.278
74037W        W42255  19.515   3.477   4.066
74038W        W42256  29.035  34.501  10.806
74039W        W42257  14.349  33.968   2.412
74040W        W42258  14.897  30.866   3.120
74041W        W42259  22.211  18.607  12.925
74042W        W42260  21.714  41.730  12.911
74043W        W42261  40.466   3.392  13.043
74044W        W42262  42.768  29.161   0.917
74045W        W42263  15.132   5.643  13.550
74046W        W42264  27.864  37.993  13.938
74047W        W42265  12.629   0.239   4.168
74048W        W42266  16.055   2.718   1.735
74049W        W42267  40.803  28.130  12.464
74050W        W42268   5.461  11.217  13.329
74051W        W42269  37.408   7.189   3.425
74052W        W42270  25.443  25.480   2.691
74053W        W42271  38.337  41.028  11.497
74054W        W42272  17.332  44.774  13.371
74055W        W42273   4.699  14.173   0.444
74056W        W42274  18.836   1.450  14.391
74057W        W42275  37.028  35.326   2.425
74058W        W42276  31.294  36.576   4.925
74059W        W42277  32.284  14.239  13.749
74060W        W42278  27.068  36.030  10.715
74061W        W42279   5.841  44.540   1.228
74062W        W42280  42.080  16.849  13.387
74063W        W42281  33.909  14.093  11.051
74064W        W42282   1.755  42.214  10.718
74065W        W42283  13.873  37.583   0.711
74066W        W42284   3.854  28.792  11.490
74067W        W42285  27.905  43.255   2.597
74068W        W42286  34.681   1.226  12.361
74069W        W42287  39.524   8.736  11.492
74070W        W42288  37.492   3.274  12.800
74071W        W42289   9.860  13.365  13.894
74072W        W42290  40.448  35.053  13.637
74073W        W42291   4.464  24.515  11.761
74074W        W42292   8.268   3.302   0.034
74075W        W42293  21.066  15.629  12.029
74076W        W42294   1.451  36.512   4.218
74077W        W42295   2.255  22.415  11.137
74078W        W42296   8.378   5.387  13.905
74079W        W42297  10.855  16.443   0.141
74080W        W42298  17.600  27.459   0.779
74081W        W42299  12.599  19.262   0.564
74082W        W42300  22.551   1.009   3.236
74083W        W42301  22.456  12.816  11.156
74084W        W42302  28.171  21.156  14.479
74085W        W42303  17.758  42.607   2.873
74086W        W42304  40.319  23.590  13.540
74087W        W42305   4.157  16.326   0.547
74088W        W42306  42.485  18.833   1.336
74089W        W42307  16.167  31.124   3.310
74090W        W42308   5.913   1.355   2.094
74091W        W42309  16.632  17.190   3.112
74092W        W42310  39.530   1.987   4.161
74093W        W42311   8.439  27.341  11.978
74094W        W42312  30.847  32.971   4.399
74095W        W42313  17.386   9.727  13.598
74096W        W42314  23.843  16.799  13.261
74097W        W42315  43.968  40.310  12.347
74098W        W42316  38.526  18.146   3.859
74099W        W42317  16.356   5.791   3.220
74100W        W42318  13.138  36.588  12.543
74101W        W42319  26.157  28.036  11.719
74102W        W42320  33.562  28.069   1.363
74103W        W42321  44.348  34.062   0.029
74104W        W42322  30.964  14.404  12.212
74105W        W42323  43.685  33.344   9.989
74106W        W42324   7.091  34.583  10.702
74107W        W42325  27.690   1.478   0.099
74108W        W42326   3.760  19.975  14.986
74109W        W42327  10.188  42.912   1.828
74110W        W42328   0.680  15.171   2.033
74111W        W42329   2.310   9.084   1.612
74112W        W42330  18.936  32.533  11.114
74113W        W42331  20.145  15.857  13.771
74114W        W42332  25.620  34.532   1.402
74115W        W42333   8.768  39.856  11.507
74116W        W42334  44.846  32.548  13.142
74117W        W42335   9.345  23.781   2.718
74118W        W42336  23.075   9.293   2.332
74119W        W42337  44.953   1.514  11.553
74120W        W42338  21.505   6.029   3.334
74121W        W42339  10.097  23.531   3.170
74122W        W42340   5.383   2.282   0.424
74123W        W42341  18.645  28.868  10.403
74124W        W42342  42.140  32.093   3.596
74125W        W42343   9.370  10.291   2.867
74126W        W42344  16.724  39.902  13.597
74127W        W42345  17.769  16.209  11.517
74128W        W42346  39.372  14.147  10.981
74129W        W42347  15.185  13.075   2.633
74130W        W42348  30.037  22.627   3.277
74131W        W42349   3.846  11.296  14.371
74132W        W42350  35.047  27.924  11.495
74133W        W42351  21.997  24.064  11.178
74134W        W42352  32.436   0.353  11.584
74135W        W42353  33.948  32.186   2.734
74136W        W42354  38.515   9.425   3.742
74137W        W42355  10.620  15.481  11.519
74138W        W42356  24.041  36.019  12.660
74139W        W42357  41.861  34.159  13.830
74140W        W42358  33.280  36.913  13.396
74141W        W42359   5.954  14.257   4.329
74142W        W42360  40.250  14.572  12.588
74143W        W42361  42.328  18.493   1.729
74144W        W42362   8.731  36.634  12.023
74145W        W42363   6.619  10.884   2.794
74146W        W42364  27.250   1.781   3.758
74147W        W42365   7.812  27.172   3.153
74148W        W42366  28.162  19.408   2.556
74149W        W42367  19.047  32.190  11.479
74150W        W42368  25.366  25.534  14.299
74151W        W42369  27.684  38.805   1.212
74152W        W42370  32.931  19.647  12.150
74153W        W42371   2.729  11.825   3.134
74154W        W42372  37.404  42.521  12.020
74155W        W42373  37.070  42.030   0.339
74156W        W42374  29.516   3.953   1.271
74157W        W42375  43.930   8.718   1.279
74158W        W42376  18.958   0.888  12.077
74159W        W42377  36.478  11.849  13.314
74160W        W42378  36.408   7.878  13.856
74161W        W42379  20.488  35.112   0.943
74162W        W42380  17.830   3.714  14.934
74163W        W42381  17.335   8.299  12.791
74164W        W42382   0.968  33.583   1.012
74165W        W42383   6.004   8.484   2.709
74166W        W42384   8.395   6.743  13.900
74167W        W42385   0.071  15.408  14.708
74168W        W42386  20.514  37.421  14.323
74169W        W42387  22.368  10.090   3.639
74170W        W42388  23.592   4.637   0.867
74171W        W42389  30.143   5.776  10.782
74172W        W42390  23.811  39.485  10.534
74173W        W42391  24.313  41.436  13.485
74174W        W42392   6.393  25.493   2.806
74175W        W42393  34.341  14.234   3.186
74176W        W42394  16.943  26.448  14.353
74177W        W42395   3.640  44.464  11.174
74178W        W42396  11.240   9.744  10.651
74179W        W42397  36.814  14.974  14.107
74180W        W42398  19.539   5.438   4.414
74181W        W42399   7.742  20.748   4.621
74182W        W42400  44.183  44.496   4.651
74183W        W42401  44.163  24.073  11.575
74184W        W42402  30.496  10.636  14.320
74185W        W42403  37.533  12.145  12.560
74186W        W42404  37.036  33.872   3.589
74187W        W42405  44.092  12.705   3.849
74188W        W42406   8.218   2.255   4.576
74189W        W42407  33.465  44.340   0.227
74190W        W42408  12.269  15.713  12.513
74191W        W42409   2.120  18.761   2.659
74192W        W42410  23.797  24.708  11.460
74193W        W42411  42.973   4.658  14.822
74194W        W42412   1.711  39.628   4.872
74195W        W42413  41.029  33.405  11.428
74196W        W42414  31.202  43.482   1.666
74197W        W42415   7.136  18.087  11.550
74198W        W42416  39.938   8.445  14.723
74199W        W42417  29.479   1.330   1.902
74200W        W42418  24.717  38.136   3.348
74201W        W42419  40.328  12.590  14.737
74202W        W42420   7.765  36.276   1.234
74203W        W42421  19.546   5.278  11.443
74204W        W42422   0.550  41.934  13.218
74205W        W42423  38.922  35.445  10.639
74206W        W42424  15.111  41.833   2.464
74207W        W42425  28.458  24.050  12.961
74208W        W42426  41.847  25.564   4.364
74209W        W42427   4.861   9.956   0.397
74210W        W42428  32.901  32.002  10.486
74211W        W42429  44.928  22.083   4.103
74212W        W42430  18.089  25.028   4.490
74213W        W42431  34.714  26.378  10.410
74214W        W42432  12.709  13.727   4.064
74215W        W42433  40.641  26.597  12.134
74216W        W42434   3.931   5.510  14.767
74217W        W42435   8.722   3.975   2.851
74218W        W42436  41.729  16.297  14.639
74219W        W42437  30.572  23.505   1.745
74220W        W42438  28.423  21.127  13.812
74221W        W42439   0.401   5.711  13.816
74222W        W42440  43.109  14.255   1.704
74223W        W42441  24.634   1.393   0.887
74224W        W42442  14.894  43.256  14.420
74225W        W42443   1.588  16.796  13.428
74226W        W42444   7.829   1.797  13.456
74227W        W42445  28.560  38.987  14.791
74228W        W42446   5.191  16.901  10.181
74229W        W42447  10.591   6.104   2.764
74230W        W42448  32.236  29.411  13.297
74231W        W42449  30.765  18.610  13.780
74232W        W42450  10.379  28.856  14.931
74233W        W42451  36.463  12.094   4.550
74234W        W42452  40.422  43.427  14.009
74235W        W42453  15.388  21.105   3.273
74236W        W42454   7.156  32.486  11.296
74237W        W42455  19.182  23.243   1.724
74238W        W42456  28.160  38.824  13.962
74239W        W42457  34.179  32.223   0.752
74240W        W42458  18.709  44.031   4.621
74241W        W42459   9.344  29.417   1.019
74242W        W42460   4.857  13.607   3.304
74243W        W42461  36.626  10.575   2.730
74244W        W42462   5.218  17.138  12.630
74245W        W42463   0.069  17.148   4.576
74246W        W42464   5.333  12.251   1.347
74247W        W42465  30.639  35.796  13.353
74248W        W42466  35.879   0.522   4.553
74249W        W42467  17.976  40.334   1.355
74250W        W42468  14.596  36.659  13.834
74251W        W42469  25.100  28.503   2.694
74252W        W42470  41.783  25.609   3.245
74253W        W42471  26.768  10.731   4.956
74254W        W42472  17.137  19.208  13.321
74255W        W42473  32.623  13.536  11.448
74256W        W42474  37.568  16.509   2.274
74257W        W42475  21.975  40.429   0.669
74258W        W42476  37.445   2.944  13.409
74259W        W42477  19.165  27.406  11.222
74260W        W42478   0.472   0.212  12.896
74261W        W42479  16.675   6.867   2.433
74262W        W42480  11.329  29.985  14.899
74263W        W42481  27.911  36.824  10.380
74264W        W42482  13.499  42.542   2.124
74265W        W42483  14.343  17.833   3.255
74266W        W42484  12.134   4.670   1.172
74267W        W42485  18.474  38.017  12.176
74268W        W42486  21.394  40.289  11.722
74269W        W42487   3.532   4.749  13.424
74270W        W42488   0.535   0.162   0.012
74271W        W42489  21.046  24.506   3.383
74272W        W42490   3.069  42.725  12.531
74273W        W42491  33.888   8.508  13.955
74274W        W42492   6.310  31.941  12.704
74275W        W42493   9.405  14.630   0.200
74276W        W42494   3.981   6.043  14.763
74277W        W42495  33.695  43.913  12.464
74278W        W42496  33.571   5.904   0.449
74279W        W42497  21.762  14.189  12.396
74280W        W42498  30.687  24.338   5.003
74281W        W42499  27.590  34.223  13.640
74282W        W42500   3.840  23.440  13.157
74283W        W42501  43.255  15.982   0.435
74284W        W42502   2.428  43.093   4.006
74285W        W42503  15.222  29.919  11.066
74286W        W42504  40.698  21.170  11.172
74287W        W42505  41.376  28.877   3.602
74288W        W42506   3.621   9.762  10.678
74289W        W42507  28.282  29.458   3.691
74290W        W42508   2.507  17.920   9.667
74291W        W42509  36.196  23.020  11.094
74292W        W42510  18.272  28.138  11.599
74293W        W42511  40.948  24.781  11.523
74294W        W42512  25.395  34.999  12.134
74295W        W42513  26.210  14.482   5.462
74296W        W42514  20.111  17.298   2.861
74297W        W42515  26.161   7.695  11.766
74298W        W42516  44.899  27.245  14.029
74299W        W42517  44.894  30.546  13.291
74300W        W42518   5.776  36.749  12.019
74301W        W42519  39.917  35.793  13.887
74302W        W42520   9.226  44.593   3.734
74303W        W42521  38.517   9.799  12.067
74304W        W42522  17.744  18.859  14.013
74305W        W42523  41.884  12.335   4.225
74306W        W42524  34.017  21.921  11.485
74307W        W42525  37.908   8.225  13.361
74308W        W42526  15.254  35.699  12.111
74309W        W42527   9.792  34.800   3.748
74310W        W42528  34.446  16.559  13.477
74311W        W42529  31.704   5.783   1.521
74312W        W42530   0.314  27.847   4.203
74313W        W42531  12.198  18.356  11.079
74314W        W42532  11.771  14.042   0.505
74315W        W42533  28.487  28.372  12.462
74316W        W42534  17.706   1.844  11.534
74317W        W42535   5.571  18.571   4.564
74318W        W42536  35.729  16.833   4.590
74319W        W42537  21.958   4.222  13.734
74320W        W42538  39.506  44.497   4.063
74321W        W42539  32.848   0.298   3.325
74322W        W42540  25.018  28.216  12.295
74323W        W42541   5.151  10.383   0.552
74324W        W42542  41.082  12.878  14.965
74325W        W42543  18.765  18.159   3.459
74326W        W42544  36.570  16.313  14.709
74327W        W42545  27.657  24.402  11.623
74328W        W42546  21.883  40.155   4.556
74329W        W42547   5.714  33.995   2.789
74330W        W42548  23.467  35.088   1.991
74331W        W42549   8.169   5.184  14.362
74332W        W42550  11.521  20.259  14.516
74333W        W42551  15.595  37.917  14.420
74334W        W42552   6.363  15.184  11.665
74335W        W42553  35.487  40.570   1.853
74336W        W42554  28.080  12.187   1.854
74337W        W42555  41.886  43.494   1.821
74338W        W42556  39.027  25.776   3.317
74339W        W42557  27.779  24.646  14.720
74340W        W42558  22.141   3.847   0.988
74341W        W42559   7.683   3.531  14.891
74342W        W42560  16.599  26.029   1.618
74343W        W42561   7.881  35.402   4.671
74344W        W42562  43.329  12.142  10.742
74345W        W42563  43.013   5.267  10.687
74346W        W42564  33.568  40.145   1.318
74347W        W42565  26.574  17.090  14.463
74348W        W42566   0.910  23.281  10.214
74349W        W42567  43.456  38.929  13.712
74350W        W42568  16.711  30.648   1.825
74351W        W42569  23.295  44.325  13.045
74352W        W42570  11.687  40.876   3.351
74353W        W42571   3.729  21.343  11.029
74354W        W42572  11.517  34.596  13.573
74355W        W42573  34.008  35.652  10.478
74356W        W42574  34.277   8.851   3.620
74357W        W42575  41.445  41.765   1.446
74358W        W42576   6.022  23.076  11.430
74359W        W42577  34.914   0.229  11.516
74360W        W42578  30.789   9.381   2.936
74361W        W42579  35.930  14.360   0.190
74362W        W42580  11.861  20.144  13.627
74363W        W42581   9.987  35.867  14.555
74364W        W42582  16.305  36.725   4.926
74365W        W42583  26.206  14.463   4.594
74366W        W42584  30.498  16.632  10.636
74367W        W42585   4.434   7.700   4.656
74368W        W42586   6.300  19.284   2.301
74369W        W42587  42.562   1.177   1.818
74370W        W42588  19.543  33.898  14.816
74371W        W42589  15.243  13.295  12.409
74372W        W42590  40.399  32.124   1.195
74373W        W42591  43.517  17.157   2.822
74374W        W42592  41.840  31.161  14.521
74375W        W42593   1.287   9.458  12.047
74376W        W42594  25.290  23.662  11.988
74377W        W42595   8.283  12.092  14.567
74378W        W42596  34.081  14.493   3.621
74379W        W42597  35.318  35.672  14.500
74380W        W42598  37.179  19.311  14.766
74381W        W42599  36.131  27.283  11.989
74382W        W42600  25.647  36.883  11.402
74383W        W42601   5.316  21.492  14.262
74384W        W42602   3.692  28.225  10.855
74385W        W42603  17.241  39.873  13.657
74386W        W42604   0.432   5.164   1.660
74387W        W42605  11.938  26.995  11.980
74388W        W42606  40.857   6.144   1.722
74389W        W42607  28.417  29.407  10.678
74390W        W42608  16.075  12.380  11.016
74391W        W42609  44.844  38.362   0.746
74392W        W42610  31.951  32.019  14.492
74393W        W42611  40.090  41.547   1.911
74394W        W42612  10.911  26.467   4.060
74395W        W42613  36.724   8.907  11.120
74396W        W42614  42.786  44.505  14.854
74397W        W42615  11.264  26.150  14.457
74398W        W42616  42.580   8.651   5.243
74399W        W42617  21.248   0.440  13.391
74400W        W42618  22.156  36.753   0.760
74401W        W42619  33.319  31.614  11.920
74402W        W42620  42.745   9.374   0.937
74403W        W42621   3.008  33.078   0.828
74404W        W42622  20.147  27.583   4.925
74405W        W42623  26.957  32.464   0.527
74406W        W42624  23.139  25.251   0.537
74407W        W42625   0.499  40.311   0.484
74408W        W42626  35.953  37.658   2.232
74409W        W42627   6.396  42.545  12.169
74410W        W42628  10.142  31.176   1.349
74411W        W42629   5.270   3.405  12.541
74412W        W42630  36.175  36.437   4.949
74413W        W42631  27.655  25.485  11.434
74414W        W42632  40.188  11.505   4.138
74415W        W42633   9.626  43.809  12.420
74416W        W42634  37.980  18.171  11.729
74417W        W42635  39.885  24.198   2.322
74418W        W42636  33.144  17.189   0.395
74419W        W42637   6.509  15.285   4.563
74420W        W42638  29.404   6.737   1.207
74421W        W42639   2.823   7.072  14.075
74422W        W42640  24.137  32.586  12.783
74423W        W42641  13.779  19.236   1.830
74424W        W42642   3.639  26.550   1.798
74425W        W42643  30.038  30.602  10.660
74426W        W42644  32.495  43.287  12.383
74427W        W42645  41.798   8.230   4.060
74428W        W42646  34.000  27.053   0.505
74429W        W42647  11.122  29.373  14.053
74430W        W42648  37.021  38.339   2.855
74431W        W42649  23.153  37.408   2.331
74432W        W42650   7.510  33.702  11.549
74433W        W42651  39.187  26.486   1.935
74434W        W42652  36.127  21.709   2.822
74435W        W42653  36.365  10.875  14.888
74436W        W42654  33.120  43.939   3.208
74437W        W42655  15.533  37.425  14.200
74438W        W42656   8.843   9.731  14.037
74439W        W42657  19.011  38.012  11.508
74440W        W42658  34.192  35.618   2.901
74441W        W42659  35.435  17.907  11.796
74442W        W42660  26.962   1.840  12.431
74443W        W42661  14.415  18.498  14.361
74444W        W42662  33.537  20.205   1.346
74445W        W42663   4.273  27.044   4.564
74446W        W42664  43.482  10.154   4.075
74447W        W42665  24.731  34.163  10.711
74448W        W42666  31.611   5.125   5.401
74449W        W42667  42.557  13.809  14.075
74450W        W42668  33.515  39.576   4.666
74451W        W42669  18.672   8.234  12.959
74452W        W42670  12.408  27.370   0.394
74453W        W42671  13.062  39.461  12.621
74454W        W42672  14.379  25.004   1.503
74455W        W42673  38.285  27.666  12.552
74456W        W42674  21.099  43.873   4.885
74457W        W42675  33.978  43.698  13.536
74458W        W42676  13.065  40.994   0.773
74459W        W42677  33.851  38.986  12.099
74460W        W42678  17.686  18.044   0.376
74461W        W42679   0.302  44.995  10.602
74462W        W42680  15.918  32.916   2.166
74463W        W42681  27.082  21.687  13.673
74464W        W42682   9.334   4.025  13.051
74465W        W42683  22.770  36.882  13.111
74466W        W42684  26.711  41.876   3.600
74467W        W42685  24.242  31.062   1.699
74468W        W42686   7.250   1.482   0.375
74469W        W42687  11.649  38.831   0.822
74470W        W42688  14.616  21.986   0.701
74471W        W42689  12.854  27.441  10.738
74472W        W42690  17.645   4.283  11.671
74473W        W42691   6.885  25.482  14.778
74474W        W42692  21.901   4.304   3.735
74475W        W42693  39.690  27.113  13.370
74476W        W42694   3.607  44.095  10.307
74477W        W42695  11.089  14.357  12.895
74478W        W42696  12.611  16.612   4.392
74479W        W42697  31.677  38.387   4.104
74480W        W42698  33.861  41.075   4.051
74481W        W42699   2.262   4.168   2.204
74482W        W42700  37.723   1.232  11.935
74483W        W42701   1.189  43.492  12.686
74484W        W42702  40.546  41.967   0.278
74485W        W42703  27.888  21.156  13.765
74486W        W42704  12.661  28.515  14.659
74487W        W42705  30.723  12.117   1.826
74488W        W42706  34.876  38.795   1.237
74489W        W42707   5.994   3.920  12.061
74490W        W42708  43.297  31.534   1.606
74491W        W42709   4.933  18.181  13.080
74492W        W42710   0.281  41.285   0.331
74493W        W42711  36.241  38.391   4.556
74494W        W42712  29.201  41.990   3.657
74495W        W42713  38.621  28.377   3.026
74496W        W42714  29.156  18.766  11.135
74497W        W42715  37.085  31.119   3.519
74498W        W42716   1.799  14.625   0.303
74499W        W42717  18.966  43.338  13.017
74500W        W42718  23.713  14.127  13.948
74501W        W42719  11.922  30.911   0.726
74502W        W42720  35.591  17.090   4.168
74503W        W42721  38.399  23.645  12.677
74504W        W42722  40.936  36.566   4.080
74505W        W42723  28.510  43.590   4.261
74506W        W42724  15.621  40.939   0.757
74507W        W42725  30.942   5.012  11.065
74508W        W42726  32.408  25.140   0.727
74509W        W42727  11.842   6.718   1.902
74510W        W42728  12.709   9.458   4.366
74511W        W42729  20.606  15.879  13.000
74512W        W42730  43.952  34.682  14.382
74513W        W42731   6.133  17.448  14.496
74514W        W42732   6.884  26.230   4.110
74515W        W42733   6.388  36.550  14.498
74516W        W42734   2.922  27.284   3.377
74517W        W42735  33.478  34.180   4.609
74518W        W42736  25.065  21.789   0.878
74519W        W42737   9.774  31.494  10.638
74520W        W42738  41.902  33.714   1.383
74521W        W42739  40.267   6.243  14.856
74522W        W42740  37.479  12.006  14.072
74523W        W42741  39.460  21.668  14.402
74524W        W42742  38.289   7.368  12.381
74525W        W42743  27.096   6.777   0.824
74526W        W42744  30.475  42.868  11.115
74527W        W42745  40.042  33.014  14.045
74528W        W42746   7.719  12.659   1.170
74529W        W42747   0.918  36.930   2.045
74530W        W42748  37.688  19.379  14.179
74531W        W42749  10.662   9.908  11.926
74532W        W42750  32.108  41.927   2.888
74533W        W42751   4.804   7.182  13.466
74534W        W42752   2.663  20.758  12.925
74535W        W42753  26.250  21.795  11.142
74536W        W42754  14.173  17.148   2.672
74537W        W42755   5.320  42.211   0.552
74538W        W42756  21.798  44.499  14.715
74539W        W42757  43.847   1.729  11.235
74540W        W42758  14.147  12.869   3.340
74541W        W42759   5.799  41.897  13.980
74542W        W42760  11.903  35.979  13.623
74543W        W42761  43.371  11.287   3.829
74544W        W42762  32.035  29.912   3.576
74545W        W42763  32.933   2.363   1.034
74546W        W42764   0.527  27.574  11.561
74547W        W42765  32.313   9.152   0.363
74548W        W42766  21.731  32.865   3.532
74549W        W42767  44.368   8.145  14.415
74550W        W42768  18.190  44.808   2.968
74551W        W42769  22.576   0.310  13.530
74552W        W42770   4.941  40.704  12.927
74553W        W42771  27.609  28.963  13.627
74554W        W42772  27.064   6.520   4.175
74555W        W42773  35.023  31.702   1.704
74556W        W42774  44.857  24.125  14.308
74557W        W42775  24.209  14.177  11.149
74558W        W42776   4.282  41.365  11.171
74559W        W42777   9.870  27.682  13.909
74560W        W42778  29.667  20.310  12.519
74561W        W42779  28.433  32.374   0.377
74562W        W42780  25.264  26.144  13.555
74563W        W42781  37.603  21.258  14.294
74564W        W42782  17.184  30.082  13.441
74565W        W42783   5.287  27.258  10.995
74566W        W42784  19.030  37.462  13.313
74567W        W42785   5.763  30.661   3.164
74568W        W42786  42.247   6.890   1.873
74569W        W42787   2.723  40.628   3.804
74570W        W42788  21.737   7.929   0.407
74571W        W42789  22.095  25.633  14.066
74572W        W42790  19.699  23.215  10.151
74573W        W42791  25.514  21.976  14.239
74574W        W42792  17.196  43.133   4.120
74575W        W42793   6.895  33.632   3.300
74576W        W42794  39.074  44.016   2.155
74577W        W42795  27.191  20.503  11.035
74578W        W42796  22.552  34.362   3.903
74579W        W42797  29.746  22.801  14.296
74580W        W42798  20.017  22.270  11.102
74581W        W42799  28.380  33.422  10.516
74582W        W42800  10.850  24.516  10.383
74583W        W42801  41.709   7.842   2.427
74584W        W42802   3.715   5.940   1.404
74585W        W42803   1.851  20.748   4.478
74586W        W42804  40.556   9.648  11.311
74587W        W42805  10.364  27.214   0.374
74588W        W42806  31.189  22.812   2.270
74589W        W42807  44.590   9.224   0.328
74590W        W42808  35.308  33.753  14.400
74591W        W42809  17.403   6.695  13.349
74592W        W42810  41.038  25.507   5.040
74593W        W42811  26.174  21.700   0.272
74594W        W42812  39.313  15.203   1.782
74595W        W42813  40.905  37.968   4.543
74596W        W42814   4.304   9.320  14.891
74597W        W42815  26.972  17.752   0.193
74598W        W42816  40.753  42.435  12.959
74599W        W42817  14.203  37.989  11.712
74600W        W42818  26.394  10.076  13.312
74601W        W42819   8.085   1.708  11.064
74602W        W42820  15.915   7.981   4.166
74603W        W42821   6.715  28.113  13.605
74604W        W42822  19.350   4.480  13.030
74605W        W42823  26.546  24.920   2.104
74606W        W42824   3.380   3.641  11.066
74607W        W42825  24.054  16.098   1.312
74608W        W42826  44.831  44.680  11.416
74609W        W42827  44.149  35.205  12.966
74610W        W42828   5.806   7.472   3.135
74611W        W42829  44.506  40.072  13.050
74612W        W42830  35.375  26.649   1.218
74613W        W42831  12.305  21.162  11.667
74614W        W42832  10.105  22.804  11.021
74615W        W42833  28.156  15.073   0.060
74616W        W42834  20.850  32.641   1.806
74617W        W42835  19.141   9.272  10.734
74618W        W42836  20.210  20.271  14.324
74619W        W42837  10.759  37.853  10.628
74620W        W42838  35.320  13.829  14.963
74621W        W42839   0.491  40.659   2.275
74622W        W42840  17.297   8.388   3.371
74623W        W42841   0.445  43.947  14.458
74624W        W42842   9.560  19.194   3.789
74625W        W42843  11.236  19.505  14.825
74626W        W42844   2.608   6.788  13.032
74627W        W42845  18.428  31.074  10.507
74628W        W42846  18.090  16.585   4.675
74629W        W42847  41.965  26.853  12.985
74630W        W42848   8.281   6.544   4.120
74631W        W42849  13.221  11.465  13.866
74632W        W42850  26.108  21.238   5.357
74633W        W42851   5.404  20.729   0.399
74634W        W42852  25.306  15.464   4.640
74635W        W42853  10.239   6.410  11.986
74636W        W42854   6.367  40.258   4.726
74637W        W42855   2.803  25.507   1.552
74638W        W42856  27.029  10.596  14.410
74639W        W42857  14.129  20.251  12.465
74640W        W42858  38.182  30.820   4.196
74641W        W42859  34.813  26.209   4.077
74642W        W42860  27.266  39.922  11.158
74643W        W42861  22.403  15.715   4.647
74644W        W42862  35.594  19.552   1.465
74645W        W42863  23.985  13.219  12.840
74646W        W42864  39.539  25.419   3.834
74647W        W42865  24.929  17.313  12.986
74648W        W42866  12.766  37.670   3.894
74649W        W42867  24.458  30.895  11.398
74650W        W42868  12.592  33.142  11.538
74651W        W42869   7.611  38.774   4.191
74652W        W42870  15.222  28.994  12.602
74653W        W42871  44.506   0.517  13.900
74654W        W42872  17.325  37.641  13.003
74655W        W42873  11.179  43.376  11.985
74656W        W42874   3.813  24.690  14.860
74657W        W42875   5.281  21.774   3.188
74658W        W42876  22.116   1.370  13.875
74659W        W42877  33.226   4.286  14.387
74660W        W42878  15.175  40.118  13.733
74661W        W42879  16.591  21.768   3.447
74662W        W42880  19.512  17.152   3.208
74663W        W42881  21.138  33.038   2.774
74664W        W42882  42.214  40.520  13.696
74665W        W42883  12.415  17.733  13.795
74666W        W42884  34.447  29.670  11.473
74667W        W42885  14.970  24.490   4.500
74668W        W42886  21.095  19.704   9.986
74669W        W42887  30.701  19.149   0.935
74670W        W42888   7.676  24.967  13.835
74671W        W42889   8.007  30.019  12.797
74672W        W42890  11.738  40.755  13.365
74673W        W42891  11.096  35.068  14.921
74674W        W42892   0.377  21.063   2.681
74675W        W42893   5.442  28.404   4.219
74676W        W42894  29.948   0.478  14.357
74677W        W42895  34.095  26.526   0.347
74678W        W42896   5.335   7.753   4.565
74679W        W42897  30.227  23.740   4.073
74680W        W42898  42.406  34.394   2.275
74681W        W42899  41.826  11.840  12.626
74682W        W42900   6.829  11.647   0.382
74683W        W42901  23.060  37.343  13.022
74684W        W42902   9.768  12.638   2.304
74685W        W42903  13.272  20.806  13.542
74686W        W42904  17.834  39.856   0.314
74687W        W42905   7.374  23.322  10.646
74688W        W42906   9.664   7.439   3.125
74689W        W42907  41.479  20.701   0.216
74690W        W42908  15.979  38.809   0.808
74691W        W42909  22.660  42.358   1.423
74692W        W42910  41.970  33.685  13.682
74693W        W42911  10.739  32.796   0.516
74694W        W42912  37.773  40.988   3.776
74695W        W42913   4.888  18.626   0.509
74696W        W42914  34.099  35.923   0.570
74697W        W42915  28.539  32.790  13.142
74698W        W42916  18.186  40.452   3.798
74699W        W42917  28.029  41.034   0.056
74700W        W42918   8.912   7.808   0.341
74701W        W42919  25.113  12.801  14.049
74702W        W42920  37.283   2.999  11.460
74703W        W42921  42.334  16.939   3.825
74704W        W42922  23.939  15.262   4.605
74705W        W42923  11.555  24.484   2.778
74706W        W42924  15.788  19.076   0.549
74707W        W42925  12.690  28.919  11.527
74708W        W42926  12.654  21.163  10.716
74709W        W42927  15.073   5.614   0.023
74710W        W42928  11.244   1.345   1.014
74711W        W42929  17.916  41.133   2.722
74712W        W42930  37.964   4.930  10.369
74713W        W42931  15.689  17.993  11.933
74714W        W42932  25.031   3.367  13.896
74715W        W42933   6.934   9.627   2.215
74716W        W42934   5.866  25.507  12.075
74717W        W42935  22.260  38.376  10.678
74718W        W42936  40.137  26.281  11.813
74719W        W42937  15.600  36.295   1.925
74720W        W42938  44.530  12.616  14.846
74721W        W42939  36.497  28.741   5.000
74722W        W42940  30.209  31.105   4.324
74723W        W42941  31.536  34.488   1.450
74724W        W42942  24.614  18.373  11.862
74725W        W42943  36.297   3.692   2.366
74726W        W42944  24.013  13.571   4.451
74727W        W42945   3.445   5.763  13.463
74728W        W42946  35.586   9.266   0.390
74729W        W42947  26.114  19.327  12.795
74730W        W42948  42.389  26.501   3.603
74731W        W42949  15.114  25.313  11.546
74732W        W42950   7.785  44.259   3.312
74733W        W42951   3.854  32.858   2.531
74734W        W42952   3.469  13.798   3.079
74735W        W42953  14.589  13.113   3.230
74736W        W42954  12.231   1.961   2.653
74737W        W42955   6.750  30.906   4.640
74738W        W42956  22.786  41.451  14.820
74739W        W42957  21.278   8.736   4.742
74740W        W42958  23.275  25.084  12.651
74741W        W42959  15.764   4.817   2.656
74742W        W42960  31.977  18.215  11.599
74743W        W42961   1.285  17.216  12.814
74744W        W42962  32.998   7.624   1.777
74745W        W42963  31.589   4.883  11.679
74746W        W42964  38.672  29.715  12.714
74747W        W42965  44.765  40.934   1.903
74748W        W42966   3.193   1.024   2.240
74749W        W42967  16.650  24.993  14.548
74750W        W42968  41.533  35.069  10.939
74751W        W42969  31.890  33.681  11.986
74752W        W42970  32.807  14.241  11.954
74753W        W42971  22.013   3.769   3.684
74754W        W42972  27.858  32.866  11.336
74755W        W42973  34.548  35.357  14.882
74756W        W42974  35.514  43.450  13.420
74757W        W42975   0.564  37.980  12.528
74758W        W42976  40.237  12.880  14.308
74759W        W42977  35.878  24.255  12.995
74760W        W42978   4.461  17.456  13.912
74761W        W42979  35.954  15.856  10.741
74762W        W42980   4.581   7.093  11.052
74763W        W42981   3.031   3.689  14.354
74764W        W42982  29.398  21.632   1.634
74765W        W42983  14.135  26.206   3.268
74766W        W42984   8.862  20.467  13.101
74767W        W42985  37.623   3.817   0.360
74768W        W42986   9.262  33.415   4.481
74769W        W42987  32.386  12.809   4.090
74770W        W42988  39.499  32.157   1.403
74771W        W42989  29.682   3.813  13.961
74772W        W42990  21.119  26.707  12.940
74773W        W42991   0.263  12.841   4.588
74774W        W42992  31.141  26.642   2.118
74775W        W42993   2.560  15.644  13.337
74776W        W42994  13.249  16.316   0.172
74777W        W42995  12.558  32.043   4.058
74778W        W42996  18.299  10.473  12.083
74779W        W42997   0.849   4.746  11.443
74780W        W42998  36.094  17.620  14.455
74781W        W42999  41.406   6.629   5.051
74782W        W43000  44.321  14.714   0.748
74783W        W43001  38.333  43.572  13.357
74784W        W43002  34.512  42.306   4.103
74785W        W43003  41.851  25.898   0.002
74786W        W43004  18.444  11.669  11.627
74787W        W43005  39.730  24.269  14.954
74788W        W43006  24.211   0.205   2.103
74789W        W43007  22.885  11.843  11.118
74790W        W43008  28.672   3.666  10.257
74791W        W43009  17.199  27.802   0.851
74792W        W43010  14.343  42.404   0.091
74793W        W43011  26.595  34.172   4.143
74794W        W43012  24.113  10.302  12.919
74795W        W43013   4.571  44.926   4.716
74796W        W43014  18.547  40.804   4.614
74797W        W43015  40.322  35.470  13.927
74798W        W43016  20.701   6.910  12.114
74799W        W43017  36.174   1.285  10.265
74800W        W43018  33.573   1.680  10.268
74801W        W43019  10.627   7.371  13.644
74802W        W43020   0.946  31.506   0.998
74803W        W43021  27.535  26.135   3.190
74804W        W43022  33.837  38.359   1.340
74805W        W43023   6.985  33.668  11.592
74806W        W43024  43.051  21.223   3.582
74807W        W43025  15.373  25.240   4.035
74808W        W43026  40.351  21.645  11.773
74809W        W43027   7.884  26.882   4.950
74810W        W43028   5.727  42.187   3.715
74811W        W43029  26.755  22.680   0.045
74812W        W43030  14.723   0.060   4.489
74813W        W43031   5.997  24.537   4.923
74814W        W43032  38.468   7.842  12.518
74815W        W43033   8.114  26.040   3.064
74816W        W43034  35.572   9.665  11.049
74817W        W43035  30.963  10.131  13.763
74818W        W43036  17.578   4.466   3.720
74819W        W43037  24.121  41.431   1.074
74820W        W43038  18.089  19.766   1.240
74821W        W43039  34.649  41.504   4.476
74822W        W43040  43.822   2.191   4.980
74823W        W43041  32.993  35.438  14.898
74824W        W43042  38.625   3.499   3.698
74825W        W43043  37.547  28.469   0.153
74826W        W43044  30.500  13.936   4.157
74827W        W43045  33.751  29.339   4.140
74828W        W43046   5.829  13.201   0.578
74829W        W43047  43.521  32.150  13.456
74830W        W43048   0.880  11.415  12.013
74831W        W43049  32.511  43.740  10.919
74832W        W43050  32.114  22.668  14.337
74833W        W43051  14.205  10.153   0.766
74834W        W43052  20.274  21.097   1.885
74835W        W43053  12.806  31.580   1.123
74836W        W43054  16.575   1.878   3.153
74837W        W43055  42.524  25.527   2.225
74838W        W43056  10.070  12.368   3.109
74839W        W43057  15.408  10.212  10.693
74840W        W43058  30.580   8.271   3.373
74841W        W43059   1.519  37.799   0.465
74842W        W43060  17.492   1.546   1.628
74843W        W43061  18.292  28.702   3.604
74844W        W43062  40.680  33.349   4.461
74845W        W43063   7.481  17.477   9.734
74846W        W43064  15.135  32.622  11.921
74847W        W43065   5.891  29.452   1.692
74848W        W43066   1.426  18.472   0.898
74849W        W43067  10.203   3.332  14.856
74850W        W43068  34.052  25.996   0.238
74851W        W43069   3.848  22.151   0.552
74852W        W43070  33.968  33.939  14.907
74853W        W43071   5.617  14.161  11.758
74854W        W43072  27.489  19.429  11.077
74855W        W43073   8.843  43.024   2.956
74856W        W43074  27.533  44.187   3.555
74857W        W43075  17.540   0.342   1.417
74858W        W43076   7.619  35.445   0.731
74859W        W43077  24.977   3.968   0.835
74860W        W43078   5.793  18.212   3.655
74861W        W43079   1.724   1.853   1.754
74862W        W43080  28.081  36.646   2.169
74863W        W43081  25.063   6.326   4.653
74864W        W43082  25.162  21.803  11.749
74865W        W43083  17.053   2.519  11.636
74866W        W43084  23.506  32.413   1.707
74867W        W43085  19.025  37.896   1.844
74868W        W43086  22.214  41.120   5.068
74869W        W43087  11.221  16.032  10.090
74870W        W43088  10.415  18.808  13.128
74871W        W43089  22.981  12.531   0.189
74872W        W43090  28.167  35.342  13.351
74873W        W43091  30.848  23.720  14.381
74874W        W43092  17.249  22.760   0.230
74875W        W43093   7.443  39.244   2.884
74876W        W43094  22.991  24.646   0.260
74877W        W43095  16.856  19.511  13.932
74878W        W43096  40.897  31.070  13.932
74879W        W43097   4.350   4.917   2.896
74880W        W43098  40.891  29.248   1.738
74881W        W43099  40.835  27.397  11.090
74882W        W43100  38.459  38.266   4.801
74883W        W43101  30.446  38.338   4.476
74884W        W43102  41.559  16.077   2.272
74885W        W43103  35.262  30.514   2.256
74886W        W43104  35.415  44.455  13.365
74887W        W43105   1.559  22.766   3.432
74888W        W43106  11.604  11.279   3.953
74889W        W43107   9.120  35.105  13.613
74890W        W43108  20.189  41.500   0.535
74891W        W43109   4.282   3.276  13.853
74892W        W43110  15.520  11.719  12.499
74893W        W43111  37.399  15.032  10.637
74894W        W43112   0.256  11.719   3.269
74895W        W43113  28.378   8.979  13.578
74896W        W43114  25.864  26.777  10.577
74897W        W43115   2.906  42.993   2.642
74898W        W43116   0.406  44.511  12.963
74899W        W43117  35.026  26.200   2.602
74900W        W43118   9.133   1.742   0.217
74901W        W43119   1.888  37.851  10.749
74902W        W43120  39.565  24.370   3.789
74903W        W43121  27.189  24.553   2.656
74904W        W43122   8.283  40.109   3.323
74905W        W43123  25.467  23.511  13.300
74906W        W43124  18.339  38.207   3.186
74907W        W43125  26.586  26.724  11.118
74908W        W43126  44.350  30.186  10.769
74909W        W43127   1.398  39.016   2.174
74910W        W43128  28.816   6.813   0.250
74911W        W43129  24.986   7.852  10.724
74912W        W43130  27.733  20.682   3.361
74913W        W43131  38.526  22.660  10.822
74914W        W43132  43.081  44.932  13.543
74915W        W43133   1.324  43.646   2.333
74916W        W43134  28.834  27.991  14.950
74917W        W43135   4.711  13.204  13.332
74918W        W43136  11.859  33.067  13.967
74919W        W43137   6.384  44.036  11.191
74920W        W43138  31.307  42.543   1.542
74921W        W43139  24.926  42.545  12.915
74922W        W43140  22.049  42.521   0.851
74923W        W43141  19.760  16.106  14.083
74924W        W43142   5.893  15.861   0.676
74925W        W43143   3.740  30.481   4.107
74926W        W43144  33.990  35.045  10.511
74927W        W43145  20.646  35.816   4.581
74928W        W43146  26.366  20.692   5.350
74929W        W43147  41.661  20.067  11.250
74930W        W43148  11.592  17.777  10.507
74931W        W43149  30.651  10.250   2.212
74932W        W43150  32.458   8.338  12.985
74933W        W43151  34.290   6.654  13.493
74934W        W43152  29.147  37.827   0.442
74935W        W43153  33.895  26.394  11.662
74936W        W43154  14.674   2.693   1.298
74937W        W43155  24.231  35.448  10.872
74938W        W43156  34.848   5.451  12.952
74939W        W43157  39.083  36.617  10.577
74940W        W43158  40.008  31.372  11.475
74941W        W43159  37.164  27.595  14.671
74942W        W43160   7.289  23.097  14.955
74943W        W43161  13.608  15.558   3.668
74944W        W43162  30.612  33.770  14.444
74945W        W43163  16.303   1.198  11.606
74946W        W43164   6.110  33.587   4.537
74947W        W43165  40.256  35.285  10.858
74948W        W43166  18.189  43.518   1.178
74949W        W43167  42.671  37.400   1.257
74950W        W43168   2.907  12.368   0.769
74951W        W43169  26.177  20.726   2.256
74952W        W43170   1.386  20.788   5.058
74953W        W43171  44.989  42.964   4.025
74954W        W43172   0.241  35.504  14.565
74955W        W43173  43.811  22.008   0.298
74956W        W43174  16.250  40.278   2.793
74957W        W43175   2.277  21.509  14.476
74958W        W43176  32.807  14.164   0.703
74959W        W43177   8.837  24.732   0.786
74960W        W43178   8.348  37.633  11.458
74961W        W43179  41.933  29.929   4.607
74962W        W43180  14.691  15.728  12.139
74963W        W43181  18.322  16.468  13.887
74964W        W43182   7.463  17.594  11.544
74965W        W43183  41.630   2.507  11.362
74966W        W43184  24.310  40.887  12.385
74967W        W43185  10.894  44.935  10.504
74968W        W43186  30.076  15.195  11.740
74969W        W43187   0.330   1.890  13.702
74970W        W43188   8.117   4.897  13.932
74971W        W43189   2.918  27.075  13.020
74972W        W43190  36.521  31.982   2.290
74973W        W43191   2.897  20.679  13.376
74974W        W43192  30.122  19.569   3.589
74975W        W43193  19.377  44.506   3.566
74976W        W43194  33.064   3.373   4.087
74977W        W43195  37.771  35.656   1.948
74978W        W43196   7.415   3.745  14.495
74979W        W43197   5.466  23.555  11.945
74980W        W43198  18.547   3.154   4.201
74981W        W43199  36.371  17.181   1.466
74982W        W43200   8.451  42.797  10.561
74983W        W43201  34.472  44.936  11.517
74984W        W43202  28.358  24.650   1.288
74985W        W43203  33.725  35.994  14.807
74986W        W43204  10.206  24.989  10.679
74987W        W43205  10.357  15.831  13.898
74988W        W43206   5.664  12.682   3.440
74989W        W43207  16.684  37.120  12.562
74990W        W43208  40.519  35.118   2.315
74991W        W43209  19.264  16.022   2.639
74992W        W43210  21.582  31.560  10.377
74993W        W43211  38.571  35.909  11.089
74994W        W43212   2.883  37.040  11.919
74995W        W43213  25.309  34.793  14.229
74996W        W43214  11.350  37.940   4.556
74997W        W43215  34.023  22.857  13.309
74998W        W43216  29.317  19.636   1.100
74999W        W43217  44.275  44.383   3.161
75000W        W43218   3.167  38.320   1.704
75001W        W43219  38.532  41.457   3.637
75002W        W43220  14.233  20.758  12.383
75003W        W43221   2.275  41.858   0.936
75004W        W43222  41.356  35.122   4.788
75005W        W43223  22.165  38.095   4.860
75006W        W43224  43.577   2.793  13.625
75007W        W43225   9.726  11.733   0.450
75008W        W43226  26.597  40.783   0.442
75009W        W43227  28.155  22.240   2.716
75010W        W43228  37.596  23.226  12.367
75011W        W43229  30.068  28.037   1.771
75012W        W43230  44.234  39.105   0.841
75013W        W43231  35.583  25.578  13.604
75014W        W43232   1.489  42.771  11.718
75015W        W43233  39.173  15.155   4.339
75016W        W43234  30.547   0.629  13.997
75017W        W43235  38.019  16.207   3.209
75018W        W43236  34.012  39.108   0.715
75019W        W43237  25.334  13.708   1.660
75020W        W43238  24.193  32.664  13.302
75021W        W43239   4.601  19.437   0.137
75022W        W43240   5.279  43.998   3.645
75023W        W43241  13.603  41.607   1.256
75024W        W43242  27.447   2.791  11.998
75025W        W43243   1.039  42.886  14.960
75026W        W43244  17.988   2.291   3.287
75027W        W43245  37.147  38.351   3.347
75028W        W43246  27.460  34.123   4.538
75029W        W43247  32.875  12.789   2.802
75030W        W43248   9.212  36.910   3.565
75031W        W43249   2.559  27.575  13.728
75032W        W43250  13.561  11.379  10.447
75033W        W43251  11.889  29.181   4.607
75034W        W43252  15.083   3.622  13.230
75035W        W43253   1.251  40.666  14.636
75036W        W43254   0.227  36.920  11.628
75037W        W43255  27.168  16.788   1.780
75038W        W43256  23.554  34.519   2.840
75039W        W43257  29.737  23.108   3.292
75040W        W43258  12.651   0.589   4.556
75041W        W43259   2.421  39.457  12.522
75042W        W43260  10.147   1.823   3.150
75043W        W43261  23.771  12.202  14.215
75044W        W43262  20.831  37.754   5.574
75045W        W43263  42.963  37.330  12.196
75046W        W43264  43.890  17.860   3.148
75047W        W43265  11.035   0.222   4.564
75048W        W43266   1.663  28.572  11.570
75049W        W43267  28.154  24.232   3.254
75050W        W43268  25.215  13.231   2.682
75051W        W43269  41.204   9.593   2.793
75052W        W43270  29.305  39.539  11.202
75053W        W43271   1.056  10.675  11.527
75054W        W43272  24.568  19.674  10.730
75055W        W43273   6.841   8.693   0.446
75056W        W43274  17.083  39.867  12.596
75057W        W43275  24.691   7.233   2.365
75058W        W43276  14.077  35.023  11.905
75059W        W43277  17.473  10.642   2.172
75060W        W43278   8.682  39.270  10.606
75061W        W43279  25.353  29.577   2.284
75062W        W43280  36.570  25.516   1.528
75063W        W43281  21.447  14.274  13.480
75064W        W43282  39.403  13.844  14.602
75065W        W43283  27.416  22.715  14.374
75066W        W43284  31.735  20.473   2.474
75067W        W43285  17.409  33.130  12.903
75068W        W43286  17.951  41.537  13.015
75069W        W43287   2.947  26.075   4.758
75070W        W43288  22.634  28.710   4.642
75071W        W43289   6.117   7.274   2.291
75072W        W43290  30.070  28.883  14.694
75073W        W43291  11.705  33.071  11.561
75074W        W43292  34.017  10.490   0.167
75075W        W43293  24.657   7.406  13.439
75076W        W43294   0.061  26.213   1.093
75077W        W43295  20.626   3.869  11.842
75078W        W43296  43.003  22.566   0.089
75079W        W43297  42.032  21.906  12.380
75080W        W43298  11.150  24.933   1.056
75081W        W43299  13.063  39.150   1.881
75082W        W43300   8.668  23.322   2.121
75083W        W43301  32.635  33.493   4.086
75084W        W43302   2.734  37.465  12.158
75085W        W43303   5.403  25.013  14.126
75086W        W43304  20.725   0.333  13.947
75087W        W43305   1.779  30.673   2.846
75088W        W43306   1.649  16.153   1.284
75089W        W43307   6.251  11.298  10.547
75090W        W43308  33.015  32.177   3.340
75091W        W43309  15.992  38.409   4.740
75092W        W43310  25.232  21.571   4.115
75093W        W43311  40.061  11.968   1.946
75094W        W43312  34.370  22.585   4.497
75095W        W43313  22.021  22.064   2.198
75096W        W43314  29.700  23.727   1.859
75097W        W43315  44.487  21.742  14.935
75098W        W43316  10.209  15.658   3.492
75099W        W43317  18.482   5.762  11.958
75100W        W43318  22.170  15.118  14.466
75101W        W43319  14.749  22.074  11.904
75102W        W43320  38.060  19.736  14.405
75103W        W43321  37.623  31.872   3.720
75104W        W43322  29.924  18.613   1.329
75105W        W43323   6.868  40.340  13.110
75106W        W43324   7.283  16.133   1.905
75107W        W43325  35.814  28.416   1.410
75108W        W43326  24.154  18.277  12.070
75109W        W43327  11.567  41.818  11.137
75110W        W43328   9.379  24.075  11.551
75111W        W43329   3.466  44.864   0.710
75112W        W43330  10.220  42.492  11.912
75113W        W43331  26.190  14.950   0.983
75114W        W43332   3.986  20.363   3.079
75115W        W43333  10.418  33.865   3.108
75116W        W43334  16.172   9.868  12.925
75117W        W43335   0.403  39.343  11.478
75118W        W43336  38.599  33.887  12.368
75119W        W43337  20.349  22.118  13.836
75120W        W43338  15.698  22.277   3.408
75121W        W43339  38.823  14.678  11.470
75122W        W43340  16.514  32.440   0.935
75123W        W43341  12.389  26.363   4.844
75124W        W43342   6.876  31.389   1.799
75125W        W43343   5.476  26.661  14.473
75126W        W43344  13.231  38.644  12.904
75127W        W43345   3.863  25.566   1.487
75128W        W43346  29.106  27.523   1.922
75129W        W43347  16.170  18.460   4.681
75130W        W43348  26.523   9.597   0.474
75131W        W43349  20.053  23.576  13.846
75132W        W43350  11.193  24.804  10.681
75133W        W43351  34.609  18.649   4.336
75134W        W43352  17.711  14.414   2.400
75135W        W43353  19.489  20.671   3.180
75136W        W43354  23.175   1.680   2.261
75137W        W43355  34.304  20.827  11.587
75138W        W43356   1.685   2.985  13.241
75139W        W43357  16.302  11.714   3.844
75140W        W43358  15.934  20.568   0.044
75141W        W43359  35.814  21.658   4.211
75142W        W43360  18.558  11.628   1.181
75143W        W43361   7.591  34.135   2.364
75144W        W43362  30.167  43.480  12.202
75145W        W43363  18.109  28.302   2.168
75146W        W43364  43.873  33.573  11.966
75147W        W43365   9.190   3.920  14.843
75148W        W43366  44.239  41.550   3.229
75149W        W43367  42.451  15.979   0.339
75150W        W43368  37.336  17.343  11.982
75151W        W43369  37.298   6.195   4.858
75152W        W43370   9.483  26.116   4.812
75153W        W43371   3.863  25.221  10.778
75154W        W43372   4.957  16.640   1.407
75155W        W43373  10.097   0.780  11.629
75156W        W43374  18.080  36.896  12.483
75157W        W43375  28.034  40.831   1.893
75158W        W43376  22.372  23.163  12.465
75159W        W43377  28.518   4.720  13.576
75160W        W43378   6.401  27.005  12.964
75161W        W43379  27.139  19.329  13.651
75162W        W43380  44.542   4.141  12.451
75163W        W43381  18.607  41.536   4.407
75164W        W43382  36.514  15.434   2.138
75165W        W43383  20.098  30.621  13.125
75166W        W43384  17.242  44.998   3.128
75167W        W43385   1.709  31.461   3.642
75168W        W43386   7.942   9.789   1.290
75169W        W43387  10.924  35.426   2.277
75170W        W43388  34.946  37.530  11.494
75171W        W43389  20.313  26.020   1.258
75172W        W43390  26.695  30.402   3.177
75173W        W43391  39.289  32.610  14.468
75174W        W43392  41.993  34.292  14.311
75175W        W43393  26.197  35.564   0.532
75176W        W43394   0.818   4.718  12.401
75177W        W43395  39.311   1.933   1.443
75178W        W43396  44.909   2.800   0.766
75179W        W43397  26.546  43.531  11.347
75180W        W43398  18.235  12.602  13.461
75181W        W43399   2.202   3.934   1.761
75182W        W43400  44.200  24.956   1.797
75183W        W43401  39.914  16.291   2.484
75184W        W43402  29.449  24.971   1.271
75185W        W43403   1.160   0.733  12.011
75186W        W43404  34.509  42.517   2.693
75187W        W43405   5.283   0.366   4.108
75188W        W43406  22.454   7.818  10.722
75189W        W43407  27.510  44.480   3.994
75190W        W43408  37.570  19.670  12.630
75191W        W43409  12.302  38.110   3.145
75192W        W43410   8.783  13.338   0.523
75193W        W43411  33.921  43.860  12.958
75194W        W43412  44.629  33.878  10.361
75195W        W43413  12.118   7.959  11.188
75196W        W43414  20.039  38.915  12.509
75197W        W43415  39.564  44.218   3.617
75198W        W43416   5.982  29.375  13.515
75199W        W43417  37.727  36.589  13.960
75200W        W43418  44.894  15.720  14.341
75201W        W43419  33.648   9.675  10.858
75202W        W43420  12.286   2.202   3.203
75203W        W43421  24.491  36.672  14.712
75204W        W43422  37.805  21.995   1.223
75205W        W43423  33.381  10.014  14.984
75206W        W43424   0.783  15.769   2.712
75207W        W43425  32.831  33.973   3.470
75208W        W43426  10.182  41.605   4.530
75209W        W43427  13.764   7.801  10.724
75210W        W43428  15.133   3.368   0.971
75211W        W43429  40.771  10.473  14.452
75212W        W43430  34.440  21.492  14.461
75213W        W43431  19.630  26.458   3.617
75214W        W43432  18.821  19.956  14.069
75215W        W43433  31.682  22.508  13.959
75216W        W43434   2.859   5.210  11.417
75217W        W43435  25.487  35.031  11.618
75218W        W43436   3.407  17.739   3.240
75219W        W43437  34.979   1.099   4.624
75220W        W43438  24.453   0.216   1.643
75221W        W43439  44.036   2.839  13.312
75222W        W43440  14.073   8.411   0.872
75223W        W43441   8.925   6.689   3.626
75224W        W43442  37.523  34.039   2.231
75225W        W43443  21.252  10.054   1.615
75226W        W43444  14.612   2.347   1.741
75227W        W43445  41.509   0.280   2.257
75228W        W43446  16.733  27.357  13.498
75229W        W43447  24.516  43.735  12.466
75230W        W43448  43.425  39.027  14.751
75231W        W43449  33.435   4.813  11.650
75232W        W43450  39.989  17.717   1.743
75233W        W43451  38.526   0.950   2.186
75234W        W43452  13.354   0.450   3.107
75235W        W43453  31.446  14.974   4.579
75236W        W43454  16.755   8.782   1.330
75237W        W43455  19.279  30.907   1.512
75238W        W43456   9.306  39.907   3.713
75239W        W43457  24.239  32.871   1.925
75240W        W43458  18.339  28.581  14.929
75241W        W43459  32.941   8.603   0.886
75242W        W43460   6.401  34.228   2.762
75243W        W43461  30.927  11.202   3.233
75244W        W43462   4.029  17.280   2.727
75245W        W43463  14.924  24.196  12.903
75246W        W43464  29.866  12.881   4.110
75247W        W43465  43.813   9.348   0.066
75248W        W43466   1.464   2.008  14.751
75249W        W43467  13.782  31.189   2.876
75250W        W43468  21.394  37.527  14.802
75251W        W43469   5.365  21.527   3.621
75252W        W43470  22.709  15.734  11.770
75253W        W43471  27.156   9.765   0.675
75254W        W43472  33.162  43.278   4.517
75255W        W43473  36.540  42.723   3.281
75256W        W43474  23.025  20.585   2.232
75257W        W43475   5.513  32.375   4.421
75258W        W43476   6.286  27.020  10.057
75259W        W43477  29.336  42.187   1.390
75260W        W43478  23.166  27.644   2.945
75261W        W43479   3.425  16.113   4.646
75262W        W43480  36.826  41.567  11.982
75263W        W43481  11.205   8.708  10.398
75264W        W43482  42.572  30.784  14.650
75265W        W43483   4.358  10.915  12.107
75266W        W43484  25.319  29.522  14.397
75267W        W43485  35.426   7.463   3.627
75268W        W43486  13.308  26.533   0.698
75269W        W43487  43.392  34.352   3.762
75270W        W43488  44.087  41.435   4.993
75271W        W43489  13.193  11.532  10.106
75272W        W43490  17.063  10.875   2.437
75273W        W43491  17.253  23.822  13.564
75274W        W43492   3.432  21.361   0.229
75275W        W43493  18.339  22.424  11.193
75276W        W43494  12.279  40.506  10.924
75277W        W43495  42.443  16.335   4.762
75278W        W43496   1.277   0.498  11.426
75279W        W43497  32.113  36.970   3.605
75280W        W43498   8.757  13.727   4.614
75281W        W43499  13.962  35.520  11.892
75282W        W43500  28.670  10.445   0.025
75283W        W43501  17.673  32.653  12.995
75284W        W43502   7.730  17.768   1.914
75285W        W43503  28.985  23.550  10.778
75286W        W43504  27.700  18.231  13.023
75287W        W43505  39.734  44.959   4.106
75288W        W43506   1.892  23.522   4.592
75289W        W43507  16.470  33.046  13.895
75290W        W43508  12.318  19.519   4.092
75291W        W43509  41.886  42.714   2.342
75292W        W43510  35.534  26.663   4.166
75293W        W43511  31.139  24.269  13.365
75294W        W43512   3.618  30.352  14.421
75295W        W43513  22.476  31.353   1.907
75296W        W43514   0.248  30.969   1.063
75297W        W43515   8.181  28.793   1.163
75298W        W43516  25.900  19.871   0.862
75299W        W43517  34.514  41.614   0.997
75300W        W43518  13.840   4.332  11.079
75301W        W43519  16.262  18.242  12.583
75302W        W43520  38.362   1.885   2.806
75303W        W43521  25.486  33.283  14.354
75304W        W43522  35.850  10.839  14.357
75305W        W43523   3.528   5.418  12.528
75306W        W43524  17.858  10.096   0.712
75307W        W43525  44.019  17.596   2.230
75308W        W43526   5.477   3.833   1.337
75309W        W43527  26.468   8.338  10.687
75310W        W43528   3.484  35.814  14.249
75311W        W43529  38.431  43.991   4.971
75312W        W43530  32.587  29.050  11.682
75313W        W43531  14.417   7.913  14.457
75314W        W43532  24.218  12.681   1.366
75315W        W43533  21.075   2.779   4.362
75316W        W43534  43.865  33.638   1.381
75317W        W43535   1.906  29.888  12.516
75318W        W43536   3.445  28.015  11.542
75319W        W43537  10.817  19.702   3.604
75320W        W43538  44.722   4.836  14.900
75321W        W43539  43.254  29.097  14.718
75322W        W43540  22.575   1.229  13.058
75323W        W43541  24.123  38.332   2.461
75324W        W43542  33.632   3.938   0.718
75325W        W43543  44.514  17.609   1.955
75326W        W43544  43.480  30.381  11.642
75327W        W43545  43.223  26.569  14.297
75328W        W43546  20.032  14.993   0.508
75329W        W43547  43.585  42.234   3.827
75330W        W43548  21.601  32.392  14.759
75331W        W43549  24.162  27.050  11.359
75332W        W43550  30.931  19.089  12.903
75333W        W43551  43.067  28.730   0.770
75334W        W43552   1.433  25.779   1.390
75335W        W43553   0.002  13.292  11.650
75336W        W43554  39.315  42.012   0.838
75337W        W43555  35.382  19.985  12.987
75338W        W43556   3.769  14.234   1.452
75339W        W43557  38.405  30.622  14.898
75340W        W43558  39.497  41.501   4.591
75341W        W43559  14.980  44.199  13.282
75342W        W43560  28.008  32.403   0.842
75343W        W43561  13.661  31.420   1.898
75344W        W43562  44.399  31.735  13.707
75345W        W43563  30.163  27.984   0.117
75346W        W43564  44.831   6.751  11.688
75347W        W43565  17.559  23.087  12.432
75348W        W43566  24.616  11.076   2.284
75349W        W43567  23.713  28.654  10.983
75350W        W43568  28.218  14.236   1.425
75351W        W43569  38.530  32.466   3.673
75352W        W43570  33.986  14.039  12.812
75353W        W43571  28.506   9.116  12.669
75354W        W43572  43.074   4.259   3.194
75355W        W43573  40.726  27.620   4.297
75356W        W43574  29.688  28.614  11.066
75357W        W43575  40.841   3.108  13.981
75358W        W43576  44.562   6.249  13.969
75359W        W43577  28.323  34.854  13.347
75360W        W43578  37.895  34.805   1.213
75361W        W43579  31.443  23.227  14.729
75362W        W43580  29.828  10.668   3.728
75363W        W43581   0.693  24.734  12.792
75364W        W43582   3.145  11.360   0.139
75365W        W43583  40.247  25.682   0.636
75366W        W43584  22.761  25.924   4.042
75367W        W43585  13.903  42.338  13.348
75368W        W43586  25.693  20.507   2.392
75369W        W43587  23.121  32.233  11.066
75370W        W43588  33.285  24.850  11.569
75371W        W43589  22.988   0.298   4.141
75372W        W43590  39.725  15.560  11.535
75373W        W43591  43.253  23.546   2.664
75374W        W43592  35.535  19.627   0.050
75375W        W43593  27.607  36.444  13.746
75376W        W43594  25.223  38.421  12.243
75377W        W43595  33.413  27.579  10.604
75378W        W43596  25.038  35.052   3.787
75379W        W43597  24.603  19.630  12.335
75380W        W43598  10.869  41.292  10.991
75381W        W43599   7.117   1.391  14.393
75382W        W43600  43.750  42.935  14.326
75383W        W43601  19.954  40.699   3.151
75384W        W43602  44.359  10.124   4.652
75385W        W43603  18.227  11.832   0.409
75386W        W43604  32.462  34.632   1.502
75387W        W43605  34.715  30.941   4.457
75388W        W43606   0.522  40.472  14.063
75389W        W43607   0.657  23.197   4.687
75390W        W43608   5.623  18.203   2.708
75391W        W43609  39.009  25.702   0.755
75392W        W43610  29.446  12.647   4.582
75393W        W43611  26.111  30.899  10.590
75394W        W43612  40.303  42.919  13.761
75395W        W43613  39.418  40.740   0.272
75396W        W43614  28.362  21.162   4.416
75397W        W43615  34.012  27.055   2.829
75398W        W43616  22.279  36.980  13.842
75399W        W43617  10.249  23.436  13.486
75400W        W43618  41.294  33.385   2.164
75401W        W43619   6.359  14.799  14.394
75402W        W43620  33.981  40.978  13.004
75403W        W43621   4.890  11.449  11.087
75404W        W43622  17.560  19.184   0.035
75405W        W43623  12.184  21.608  12.926
75406W        W43624   8.155   8.263  12.224
75407W        W43625  11.590  27.567  14.888
75408W        W43626  17.527  39.297   1.886
75409W        W43627   3.227   3.230  10.770
75410W        W43628  43.209  30.478  13.072
75411W        W43629  33.585  38.417   1.817
75412W        W43630  39.617  30.567  11.072
75413W        W43631  42.381  24.222   3.285
75414W        W43632  35.601  14.996   2.335
75415W        W43633   2.709  42.646  10.773
75416W        W43634  30.407  38.678  13.051
75417W        W43635  21.533  33.190  12.285
75418W        W43636  31.640  20.210   2.935
75419W        W43637  19.308  33.698  14.080
75420W        W43638  27.668   3.411  11.959
75421W        W43639   2.739  32.255   3.290
75422W        W43640  22.538  42.017  13.808
75423W        W43641  21.796   1.804   4.075
75424W        W43642  14.296  24.713  11.601
75425W        W43643  22.662   6.607  11.612
75426W        W43644  38.249  18.747   4.711
75427W        W43645  33.820  35.077   1.958
75428W        W43646  40.828   5.483  14.602
75429W        W43647  33.375   4.420   2.284
75430W        W43648   3.233   5.459  11.120
75431W        W43649  35.541  36.527  14.621
75432W        W43650  37.851  20.249  13.154
75433W        W43651  24.867   4.719   3.819
75434W        W43652  32.509  21.605   2.217
75435W        W43653  14.307  37.146  11.192
75436W        W43654  14.560  10.764  14.314
75437W        W43655  26.666   2.811  12.431
75438W        W43656   2.273  28.945   9.595
75439W        W43657  10.967  41.473   4.072
75440W        W43658  29.115   5.163  12.550
75441W        W43659  30.071  19.578   1.709
75442W        W43660  27.522  15.834   1.887
75443W        W43661  14.916  11.655   4.173
75444W        W43662  43.561   0.984   0.470
75445W        W43663  12.421  32.170   1.325
75446W        W43664   3.558   8.380  13.482
75447W        W43665  10.368  22.198   0.007
75448W        W43666   6.510  25.884  14.011
75449W        W43667   5.613  16.055   0.257
75450W        W43668   4.382  32.017   2.670
75451W        W43669  24.798  31.556  14.026
75452W        W43670  32.691   2.643  10.124
75453W        W43671  21.124  41.417  10.815
75454W        W43672  43.471  12.705   2.722
75455W        W43673   8.179  32.464   0.355
75456W        W43674  41.579  11.826   3.878
75457W        W43675  30.911  15.238  14.779
75458W        W43676  22.666  33.960   0.894
75459W        W43677  22.784  21.113   4.479
75460W        W43678  40.525   6.670  12.489
75461W        W43679  20.163  25.758   3.853
75462W        W43680  27.839   4.091   3.340
75463W        W43681   6.701  11.891  11.206
75464W        W43682   9.295   5.797   1.792
75465W        W43683  29.347   0.574   2.841
75466W        W43684  23.431  16.941  10.826
75467W        W43685  23.349  31.507  12.862
75468W        W43686   6.272   8.458  12.482
75469W        W43687  31.341  32.561   2.820
75470W        W43688  44.743  34.853   3.821
75471W        W43689   9.898  12.212   0.361
75472W        W43690  43.270  28.405   0.390
75473W        W43691  23.513   7.716  12.929
75474W        W43692  26.818  14.232   3.598
75475W        W43693   6.670  16.902   0.912
75476W        W43694  20.247  23.082  13.913
75477W        W43695  18.471  13.839  10.435
75478W        W43696  41.534  30.364   1.621
75479W        W43697  38.562  19.764  14.020
75480W        W43698  24.974  17.567  10.745
75481W        W43699  14.360   5.991  12.450
75482W        W43700  28.948  13.228  10.631
75483W        W43701   0.529   8.243   0.377
75484W        W43702  35.158  32.075   4.995
75485W        W43703  28.429   3.915   2.767
75486W        W43704  22.203  38.830  11.080
75487W        W43705  15.531  22.111  11.184
75488W        W43706  20.214  26.700   0.871
75489W        W43707  11.345  21.296  14.421
75490W        W43708  29.132  20.464   3.433
75491W        W43709  15.430  17.629   2.771
75492W        W43710  14.886  20.608   4.573
75493W        W43711   6.252  30.600   3.417
75494W        W43712  26.568  32.354  14.584
75495W        W43713   9.039  26.985  14.313
75496W        W43714  41.069  26.629  13.535
75497W        W43715   7.739  44.787  11.462
75498W        W43716   6.359   7.018   1.909
75499W        W43717  30.298  26.681   0.944
75500W        W43718  40.167  14.944   4.154
75501W        W43719  15.802  13.879  14.443
75502W        W43720  27.651  29.041  13.125
75503W        W43721  27.059  39.844   4.579
75504W        W43722  33.329  33.598   2.268
75505W        W43723  36.321   4.200  13.868
75506W        W43724  43.576  16.402   0.510
75507W        W43725  10.063  29.584   4.156
75508W        W43726   4.839  27.168  13.870
75509W        W43727  15.028  36.339   3.901
75510W        W43728  34.493  27.685  12.743
75511W        W43729  32.435  31.685  13.864
75512W        W43730  15.643  12.248   3.348
75513W        W43731  34.181  44.014   0.114
75514W        W43732  28.877  41.945  12.285
75515W        W43733  34.570  13.124   2.212
75516W        W43734  12.592  10.813  12.099
75517W        W43735  20.664  37.332   4.732
75518W        W43736  14.785  21.541  10.736
75519W        W43737  21.621   6.720   4.534
75520W        W43738  10.953  43.580   5.061
75521W        W43739  27.742  34.754   0.805
75522W        W43740  26.232  26.148   3.437
75523W        W43741  19.906  10.942  10.959
75524W        W43742  17.317  32.741  12.558
75525W        W43743  32.066  29.584  13.764
75526W        W43744  19.255  31.704   2.158
75527W        W43745  19.301   9.559   3.195
75528W        W43746   5.295  36.606  14.443
75529W        W43747  35.809   4.195  11.150
75530W        W43748   1.503  20.975   4.173
75531W        W43749  27.024  34.109   2.865
75532W        W43750  40.282   8.821  14.827
75533W        W43751  37.519   0.187  12.983
75534W        W43752  34.303   0.033  10.626
75535W        W43753  39.016  37.739   9.901
75536W        W43754   5.405  39.809   3.190
75537W        W43755  39.947  42.846   3.372
75538W        W43756  36.939   9.233  10.769
75539W        W43757  40.846  34.953  14.001
75540W        W43758   9.564  36.500   3.243
75541W        W43759   1.846  18.786   0.775
75542W        W43760  11.814  34.837   1.376
75543W        W43761  20.668  15.528   4.726
75544W        W43762  42.476  23.216   3.333
75545W        W43763  15.490   0.906   2.826
75546W        W43764  35.379  30.910  14.484
75547W        W43765  31.905  10.686  13.521
75548W        W43766  28.225  37.149   2.294
75549W        W43767  35.742  29.365   5.041
75550W        W43768  11.873  44.452  13.157
75551W        W43769  34.016   2.946   2.835
75552W        W43770  11.886  29.033  14.167
75553W        W43771  21.047  21.299   2.695
75554W        W43772   6.303  34.542   0.603
75555W        W43773   8.390  29.975  14.760
75556W        W43774  44.475  20.479   1.485
75557W        W43775  25.510  25.162  11.979
75558W        W43776  20.192  24.518  14.871
75559W        W43777  34.310  22.789  10.756
75560W        W43778  29.476  27.345  14.046
75561W        W43779  18.141  42.050   3.725
75562W        W43780  38.316   8.400   0.253
75563W        W43781  13.223  41.352  12.604
75564W        W43782  26.108  19.391   4.558
75565W        W43783  43.431  19.767   3.652
75566W        W43784  12.057  30.014   2.546
75567W        W43785  21.669  34.135   1.269
75568W        W43786  14.196  29.904   2.721
75569W        W43787  28.497  31.884  10.711
75570W        W43788  11.235  37.223   1.631
75571W        W43789  13.673   2.885   2.216
75572W        W43790  41.067   3.993   5.155
75573W        W43791  22.048  10.910  12.098
75574W        W43792   6.300   3.657  10.576
75575W        W43793   1.802  28.043  14.455
75576W        W43794  35.614  14.313   4.572
75577W        W43795  37.480  28.400   1.739
75578W        W43796  26.351  14.636   2.330
75579W        W43797  41.552  34.036  14.382
75580W        W43798  10.942   8.777   0.346
75581W        W43799  10.910   4.921  10.641
75582W        W43800  39.704  35.006  12.094
75583W        W43801  15.139   1.529  12.034
75584W        W43802  42.607  39.402  10.668
75585W        W43803  13.435  14.351  10.341
75586W        W43804  43.847   7.449   4.958
75587W        W43805  35.036  21.735   4.928
75588W        W43806  15.711  21.130   2.677
75589W        W43807  42.149  10.412   2.161
75590W        W43808  34.418  32.060  13.805
75591W        W43809  16.213   7.164  14.453
75592W        W43810  32.484  29.437  12.008
75593W        W43811   4.380  15.368   3.286
75594W        W43812  10.300   2.440   4.215
75595W        W43813  39.813   9.648  11.621
75596W        W43814  40.995  41.021   4.589
75597W        W43815  24.744   3.248  14.324
75598W        W43816   9.800  16.459  12.895
75599W        W43817   3.527  15.990   2.740
75600W        W43818  23.420   5.880  14.383
75601W        W43819  27.096  41.275  12.963
75602W        W43820  13.706  39.453   4.859
75603W        W43821   7.388  10.926  10.730
75604W        W43822  34.341  30.564   3.653
75605W        W43823  26.213  39.100   4.042
75606W        W43824   2.742  27.501  12.778
75607W        W43825  14.283   1.527   0.074
75608W        W43826  41.820  13.558   1.738
75609W        W43827  37.344  41.862   4.661
75610W        W43828  30.260   8.933  14.779
75611W        W43829  33.409  30.002  12.215
75612W        W43830  36.922   8.554  11.984
75613W        W43831   5.227  22.778  11.910
75614W        W43832  12.121  35.118   1.066
75615W        W43833  36.979  37.608  13.375
75616W        W43834   8.410  27.810   4.953
75617W        W43835   1.936  13.101   0.294
75618W        W43836  39.462  14.189   2.674
75619W        W43837  36.842  42.884  12.534
75620W        W43838  44.282  22.592   0.844
75621W        W43839  30.411  25.516   3.636
75622W        W43840  40.530  28.040   4.076
75623W        W43841  24.665  32.053  13.509
75624W        W43842  44.275  12.815   4.743
75625W        W43843   9.171  10.425   0.953
75626W        W43844  24.341  39.826  11.810
75627W        W43845   8.922  37.353   0.826
75628W        W43846  29.035   4.473  14.365
75629W        W43847  31.419  11.264   2.351
75630W        W43848  19.991  43.806   2.370
75631W        W43849  13.131  26.764  13.451
75632W        W43850   9.366  37.236   0.209
75633W        W43851  25.955   3.336   1.377
75634W        W43852  29.559  27.742  13.404
75635W        W43853  40.350  29.942  12.633
75636W        W43854  41.492   3.376   5.071
75637W        W43855   1.841  15.644  10.579
75638W        W43856   8.887   4.014   4.338
75639W        W43857  40.424   9.814   0.016
75640W        W43858  13.827  44.830   0.525
75641W        W43859  21.181  30.346  13.805
75642W        W43860  11.842  10.339  11.493
75643W        W43861   8.629  22.183   1.962
75644W        W43862  36.730  28.000  12.000
75645W        W43863  14.105  27.934   0.396
75646W        W43864   6.866  24.937   3.755
75647W        W43865  15.275  20.136   2.292
75648W        W43866   5.645  26.260   0.408
75649W        W43867  16.340  38.051  11.163
75650W        W43868  24.483  43.828   4.634
75651W        W43869  37.962  10.706   3.883
75652W        W43870  41.399  42.748  12.982
75653W        W43871  40.781  21.297   3.325
75654W        W43872  15.745  37.002   3.728
75655W        W43873  21.804  17.319  13.926
75656W        W43874  31.100  11.022  13.328
75657W        W43875  35.513  42.369   1.856
75658W        W43876  28.650  31.651   3.181
75659W        W43877  22.036  11.195   2.890
75660W        W43878  22.104  27.656  12.812
75661W        W43879  11.271  19.076   0.220
75662W        W43880  10.806  26.072   3.438
75663W        W43881  12.294  36.949   3.630
75664W        W43882   0.797   9.926   3.405
75665W        W43883  23.651  24.303  10.599
75666W        W43884  24.774  40.919  12.610
75667W        W43885  41.134   1.222  13.814
75668W        W43886  13.439  13.686  12.941
75669W        W43887   8.448   5.346  14.781
75670W        W43888  21.504  18.225  14.888
75671W        W43889  43.844  10.272   2.867
75672W        W43890  34.957  41.807  11.663
75673W        W43891   1.990  26.631   5.222
75674W        W43892  11.316   0.611   3.763
75675W        W43893  43.859  42.954  11.506
75676W        W43894  36.229  27.162  12.530
75677W        W43895  11.773  34.414   4.525
75678W        W43896   2.897  29.590   3.741
75679W        W43897  22.101  20.178   0.530
75680W        W43898  31.072  18.381  11.012
75681W        W43899  19.499  31.959  11.503
75682W        W43900   0.425  37.422  11.655
75683W        W43901   6.724  28.592  14.735
75684W        W43902   2.660  32.535   3.750
75685W        W43903  19.418   5.301   1.897
75686W        W43904  27.847  39.369   3.270
75687W        W43905  35.369  11.139   1.163
75688W        W43906  32.605  44.366   0.264
75689W        W43907  24.204  32.121  11.515
75690W        W43908  38.387  30.850   1.865
75691W        W43909  37.787  25.308  10.559
75692W        W43910  39.200  22.568   1.966
75693W        W43911   2.439  22.070  11.707
75694W        W43912   8.344  41.593   3.270
75695W        W43913   5.405  37.467   2.421
75696W        W43914  27.446  20.397  13.572
75697W        W43915   6.245  31.760  13.588
75698W        W43916   8.513  44.264   5.101
75699W        W43917  17.136  25.905  12.539
75700W        W43918  30.394  13.176  10.705
75701W        W43919  29.867  10.819  12.613
75702W        W43920   0.692  26.675   0.644
75703W        W43921   4.452   9.384  13.906
75704W        W43922  14.305  11.068   4.556
75705W        W43923  21.748  16.117   1.790
75706W        W43924  32.005  16.695  13.070
75707W        W43925  28.071  32.694   4.829
75708W        W43926   9.894  29.170   1.251
75709W        W43927  25.677  37.013   3.705
75710W        W43928  42.460  28.084  12.589
75711W        W43929  19.951  24.964   2.389
75712W        W43930  22.132  30.934   2.002
75713W        W43931  25.618  21.457  14.041
75714W        W43932  12.268   0.219  13.961
75715W        W43933  13.524  40.513   3.815
75716W        W43934  33.963  31.391  13.555
75717W        W43935  23.501  42.470  10.540
75718W        W43936  37.477  22.366   1.082
75719W        W43937  43.414  19.055   0.829
75720W        W43938  42.516   1.962   0.744
75721W        W43939   8.071   0.737   1.149
75722W        W43940  17.192  10.711   4.885
75723W        W43941  22.751  36.140  10.722
75724W        W43942  21.177   5.245  12.413
75725W        W43943  14.300  16.627  12.574
75726W        W43944   4.201  32.341  14.097
75727W        W43945   9.749  18.618   4.614
75728W        W43946  28.172  17.533  14.475
75729W        W43947   4.400  44.651  10.282
75730W        W43948  27.033   7.869  11.198
75731W        W43949  18.251  17.441  12.977
75732W        W43950  11.857  32.036  14.369
75733W        W43951   9.697  27.697   3.315
75734W        W43952  32.150   7.671  12.482
75735W        W43953  40.955  43.482  14.713
75736W        W43954  21.141  31.800   9.623
75737W        W43955   1.444   9.648  11.182
75738W        W43956  31.137   7.235   1.847
75739W        W43957  43.721  25.070   2.522
75740W        W43958  14.379  24.947   2.282
75741W        W43959  11.262  10.705  11.177
75742W        W43960   0.510  19.379  13.419
75743W        W43961   2.918  43.449  13.282
75744W        W43962  11.595  32.415   2.815
75745W        W43963  42.943   6.697  14.276
75746W        W43964  30.338  38.008   0.897
75747W        W43965  41.088  12.078  13.437
75748W        W43966  25.558  14.551   0.786
75749W        W43967   3.309   0.298  13.112
75750W        W43968  44.471  30.138   2.452
75751W        W43969  33.893  21.255  12.016
75752W        W43970  37.084  33.904  13.379
75753W        W43971   1.012   8.092  10.657
75754W        W43972  10.999  29.451  11.156
75755W        W43973  38.942  34.544   2.698
75756W        W43974  34.841  40.885   1.338
75757W        W43975  39.926  30.870  14.465
75758W        W43976   8.974  31.016  12.665
75759W        W43977   8.407  43.378   2.161
75760W        W43978  26.774   9.110  11.123
75761W        W43979  14.499  40.639   3.684
75762W        W43980  21.428   9.917  12.411
75763W        W43981   3.818  44.880   0.322
75764W        W43982  26.227   0.275   2.199
75765W        W43983  33.449  33.029  14.502
75766W        W43984  42.824  25.790  14.908
75767W        W43985   7.344  35.514  13.443
75768W        W43986  28.403  44.487  11.455
75769W        W43987  35.654   1.045   1.361
75770W        W43988  37.808  14.785  13.134
75771W        W43989  36.813  42.657  13.031
75772W        W43990  11.212  12.660   2.988
75773W        W43991  24.051  11.341   9.642
75774W        W43992  36.987  41.887   1.848
75775W        W43993  26.111  39.118   3.024
75776W        W43994   0.396  32.857  14.153
75777W        W43995  10.180   7.929  14.569
75778W        W43996  34.861   7.677  14.290
75779W        W43997   6.029   6.847   1.086
75780W        W43998  30.555  25.092   0.789
75781W        W43999  19.003  44.532   1.875
75782W        W44000  13.033  10.230   5.060
75783W        W44001  40.952  15.674   0.222
75784W        W44002  11.189  40.891  13.088
75785W        W44003  32.957  43.380  12.624
75786W        W44004   6.111  30.289   4.459
75787W        W44005   4.116   3.299   2.738
75788W        W44006  26.857   8.202  13.070
75789W        W44007  36.003  28.645  10.528
75790W        W44008   2.848   5.371   2.266
75791W        W44009  25.723  19.174   4.921
75792W        W44010  32.978  26.486   2.407
75793W        W44011  43.706  30.125   4.522
75794W        W44012   0.737  20.193   0.071
75795W        W44013  25.730  29.995  14.779
75796W        W44014  10.831  13.942   2.956
75797W        W44015  11.206   8.589  12.518
75798W        W44016  27.610   4.084   4.467
75799W        W44017  20.569   0.766  14.556
75800W        W44018  10.302  33.964   2.248
75801W        W44019  12.817  11.818  13.819
75802W        W44020  30.425  27.734  10.694
75803W        W44021   7.762  42.780   0.719
75804W        W44022   5.223  18.021  10.709
75805W        W44023  33.905  21.188   0.273
75806W        W44024  17.687  15.330  13.507
75807W        W44025  20.004  13.619   1.385
75808W        W44026   3.255  13.242   0.317
75809W        W44027  43.278  14.318   3.464
75810W        W44028  20.725  34.446  13.478
75811W        W44029  24.044  31.500   1.387
75812W        W44030   4.649   9.098   4.130
75813W        W44031  25.637  31.963   2.307
75814W        W44032  36.506  17.387   0.267
75815W        W44033   3.029  36.682   0.650
75816W        W44034  34.667   2.402   0.969
75817W        W44035  31.361  44.598   2.295
75818W        W44036  27.166  32.926   0.635
75819W        W44037  38.264  41.000   3.630
75820W        W44038  12.125  23.683   3.180
75821W        W44039   8.354  31.537   1.247
75822W        W44040  33.544   5.034  13.510
75823W        W44041  23.478  39.692  10.856
75824W        W44042  31.432  15.776   3.735
75825W        W44043  39.237  31.992   4.469
75826W        W44044   4.482  23.146   0.736
75827W        W44045  41.409   3.989  13.008
75828W        W44046  19.345  28.062   2.822
75829W        W44047  13.182  40.861  12.456
75830W        W44048  39.408   6.168  12.006
75831W        W44049  32.481  27.188  11.046
75832W        W44050   4.887   7.239   4.033
75833W        W44051  25.269   1.450  14.063
75834W        W44052  34.773   9.656   0.284
75835W        W44053  25.946   2.268   1.812
75836W        W44054  37.391  31.239   3.123
75837W        W44055  43.242  44.995   1.017
75838W        W44056   6.758   5.442  10.725
75839W        W44057  24.685  12.694  12.996
75840W        W44058  32.845   6.587   0.873
75841W        W44059   8.862  24.181  14.533
75842W        W44060  35.521  35.857   1.669
75843W        W44061  27.370   7.583  14.020
75844W        W44062  19.347   6.900  12.073
75845W        W44063  20.726  35.401  13.886
75846W        W44064   5.036   5.265   3.348
75847W        W44065  34.241   5.137   2.326
75848W        W44066  20.392  18.169  12.571
75849W        W44067  10.668  22.676   2.911
75850W        W44068  35.956  15.578   1.737
75851W        W44069  22.550  29.350  10.697
75852W        W44070  43.333  25.661  14.797
75853W        W44071  36.877  35.746   2.699
75854W        W44072  24.624  10.107  14.194
75855W        W44073  18.797  14.339  11.192
75856W        W44074  20.815  37.087   3.145
75857W        W44075  33.623   2.277   4.981
75858W        W44076   5.972  39.541  12.160
75859W        W44077   5.641  21.648   1.092
75860W        W44078  23.827  35.781  14.796
75861W        W44079  36.518  25.109  10.875
75862W        W44080  13.083  29.573   3.172
75863W        W44081   1.943  43.413   5.088
75864W        W44082  40.392  15.592  11.468
75865W        W44083   3.792  23.272  13.731
75866W        W44084   4.703  26.062   2.816
75867W        W44085  30.428  20.046   4.254
75868W        W44086  27.854  25.707  13.150
75869W        W44087  38.187  16.774   1.265
75870W        W44088   4.017   6.384  11.558
75871W        W44089  24.435  25.534   4.490
75872W        W44090  10.374  22.065  14.489
75873W        W44091   0.581  35.047  13.824
75874W        W44092  33.441  12.257  11.647
75875W        W44093  36.042  23.314   2.218
75876W        W44094  37.925   0.431  11.216
75877W        W44095   8.172  41.898  12.538
75878W        W44096   5.404  35.027  13.126
75879W        W44097   7.389  32.078   1.288
75880W        W44098  24.872  42.311  13.436
75881W        W44099  32.015  13.649   4.015
75882W        W44100  31.490   5.414   1.934
75883W        W44101  11.931  39.600  11.176
75884W        W44102  21.005  44.467  14.352
75885W        W44103  12.526  20.876  12.030
75886W        W44104  33.539  13.834  14.282
75887W        W44105  18.056  43.404  10.866
75888W        W44106  19.778  11.444   3.795
75889W        W44107  13.506  13.677   1.695
75890W        W44108   2.019  38.762   4.327
75891W        W44109  20.100  32.071   4.218
75892W        W44110  16.674   5.121   0.738
75893W        W44111  34.346   5.235  11.881
75894W        W44112  20.531  38.570  12.567
75895W        W44113  44.458   6.361   3.571
75896W        W44114  22.082  18.311   0.448
75897W        W44115  12.243  10.617  11.291
75898W        W44116  15.657  19.021  14.056
75899W        W44117  20.804  25.916  13.015
75900W        W44118   0.129  28.186  12.337
75901W        W44119   1.761   2.080  14.318
75902W        W44120  43.570   1.612  11.644
75903W        W44121  21.571  12.502   4.951
75904W        W44122  42.325  24.445   0.527
75905W        W44123   0.211  39.798   4.084
75906W        W44124   3.500  26.980   0.444
75907W        W44125  25.955  33.154  11.593
75908W        W44126   8.193  43.073  10.930
75909W        W44127  25.484  21.161   2.841
75910W        W44128  25.636  22.245  13.822
75911W        W44129  39.974  18.209   3.407
75912W        W44130  39.867  40.298  12.347
75913W        W44131  15.811  44.299  11.842
75914W        W44132  27.893   9.603  13.986
75915W        W44133   6.438  29.123   0.893
75916W        W44134  22.555   5.381   2.854
75917W        W44135   2.215  25.584  12.083
75918W        W44136  10.697  12.596  12.682
75919W        W44137   8.522   7.639  11.449
75920W        W44138   4.993  10.274  12.598
75921W        W44139  38.934  37.105  13.945
75922W        W44140  28.162  11.311   0.017
75923W        W44141   6.294  39.318   0.032
75924W        W44142   4.350  22.369  14.247
75925W        W44143  20.812  11.239  13.641
75926W        W44144  17.304  14.532  13.466
75927W        W44145  36.423   4.450   1.722
75928W        W44146  34.144  23.491   2.379
75929W        W44147   0.886  34.024   3.296
75930W        W44148  14.715  10.827   4.355
75931W        W44149  43.564  33.865   3.700
75932W        W44150  32.560   9.888   0.974
75933W        W44151   3.407  18.332  14.405
75934W        W44152  34.527  43.022   2.701
75935W        W44153  44.007   1.174   0.844
75936W        W44154  11.822  11.686  10.411
75937W        W44155   3.407  22.043  10.226
75938W        W44156  25.424  40.087  14.821
75939W        W44157  27.151  21.226   1.805
75940W        W44158  40.453  29.240   0.438
75941W        W44159  43.108  33.439   1.747
75942W        W44160  36.609   6.800   1.354
75943W        W44161  27.156  39.070   0.499
75944W        W44162  35.105  33.444  13.620
75945W        W44163  17.240  37.921   4.343
75946W        W44164  10.378  25.593   4.643
75947W        W44165   7.350  37.621  13.430
75948W        W44166  41.402  16.680   1.441
75949W        W44167  29.640  26.847   2.236
75950W        W44168   1.971  14.778  10.345
75951W        W44169  22.801  14.775  11.048
75952W        W44170   8.888  29.903  14.890
75953W        W44171  40.578  44.016   3.810
75954W        W44172   5.289  33.144  12.934
75955W        W44173  36.144   4.660   2.520
75956W        W44174  15.665  20.143   4.552
75957W        W44175  29.771  34.813  13.979
75958W        W44176  29.924  16.133   3.340
75959W        W44177  40.163   5.990   3.586
75960W        W44178  40.695  31.306   4.171
75961W        W44179  37.976  30.225   3.569
75962W        W44180  25.475  35.640   1.268
75963W        W44181  10.150  38.845  10.496
75964W        W44182  35.449  41.966  12.071
75965W        W44183   8.407   8.232  14.739
75966W        W44184  19.587  15.301   3.224
75967W        W44185  34.332  26.123  11.170
75968W        W44186  21.532  36.463   0.137
75969W        W44187  10.444   0.302  11.581
75970W        W44188  17.549  29.522   0.375
75971W        W44189   8.844   0.384  13.973
75972W        W44190  23.412   8.379   1.407
75973W        W44191   7.970  15.724  14.372
75974W        W44192  44.219  34.781   3.066
75975W        W44193  38.025  40.976  11.882
75976W        W44194  26.542   2.729   0.872
75977W        W44195  28.555  13.917   5.482
75978W        W44196  15.496  31.396  14.428
75979W        W44197   9.146   9.478   0.730
75980W        W44198  39.320  43.803  12.132
75981W        W44199   3.492   8.423   1.796
75982W        W44200  23.608   9.475   0.475
75983W        W44201  20.340  27.188   0.021
75984W        W44202  23.828  11.415   3.282
75985W        W44203  29.969  25.906  12.984
75986W        W44204  24.855  44.830   3.689
75987W        W44205  10.207  22.176   1.491
75988W        W44206   4.068  18.482   3.172
75989W        W44207  15.760  25.178   0.546
75990W        W44208  13.296  15.912  12.536
75991W        W44209   0.757  41.006   1.338
75992W        W44210  44.097   9.305   0.492
75993W        W44211  11.845  27.469   0.494
75994W        W44212  22.094  28.477  13.926
75995W        W44213  17.687  41.462   2.081
75996W        W44214  28.669   4.228   4.617
75997W        W44215  17.572  40.262   0.481
75998W        W44216  32.385  14.164   0.990
75999W        W44217  28.611   7.647   4.620
76000W        W44218  33.778  17.339   5.128
76001W        W44219  11.589  24.673   2.213
76002W        W44220  41.385   4.007   2.293
76003W        W44221  29.707  28.244   3.431
76004W        W44222  41.046   7.904  10.735
76005W        W44223  13.646  37.875   1.907
76006W        W44224  30.168  35.593  13.502
76007W        W44225  13.826  44.359   1.932
76008W        W44226  17.044  40.255   0.421
76009W        W44227  25.591  40.998   4.693
76010W        W44228   8.726  23.628   3.306
76011W        W44229  11.407   6.767   4.520
76012W        W44230  18.987   2.335  11.989
76013W        W44231   5.000  16.715  14.905
76014W        W44232  28.689  13.147  14.840
76015W        W44233   4.311   8.221   0.244
76016W        W44234  16.241  33.029  11.911
76017W        W44235   0.213  16.809  14.862
76018W        W44236  23.563  14.779   3.759
76019W        W44237  26.213  40.970   3.432
76020W        W44238  31.586   5.191   2.394
76021W        W44239   3.676  20.736   4.007
76022W        W44240  36.610  21.042   4.103
76023W        W44241  40.471   6.150  12.477
76024W        W44242  31.448  17.087   2.007
76025W        W44243  11.610  40.111  13.134
76026W        W44244  10.623  28.074   0.997
76027W        W44245  36.281  35.504  13.406
76028W        W44246  33.293  30.156  13.914
76029W        W44247  35.653  28.964  12.442
76030W        W44248  16.145   3.360   0.963
76031W        W44249  30.748   6.413  11.130
76032W        W44250  42.354  31.911  11.606
76033W        W44251  16.344  16.859  11.085
76034W        W44252   9.392  41.443   3.441
76035W        W44253   5.172   0.961   3.862
76036W        W44254  35.941   4.307  12.122
76037W        W44255  10.010  25.488   0.859
76038W        W44256  43.807  25.459  14.277
76039W        W44257  36.497   6.640   2.391
76040W        W44258  21.662  24.984  14.438
76041W        W44259  39.605   3.406  12.030
76042W        W44260   6.273  32.625  11.416
76043W        W44261   8.778  36.349   4.087
76044W        W44262  14.291  24.090   1.782
76045W        W44263  23.084  38.597  11.578
76046W        W44264  27.659  35.867   0.020
76047W        W44265  10.267  21.778  12.591
76048W        W44266  32.519  20.418   1.799
76049W        W44267   7.666  30.865   0.583
76050W        W44268  39.985  40.818   3.820
76051W        W44269  24.466  41.337  12.646
76052W        W44270  40.463  18.074  14.102
76053W        W44271  15.131  16.976   3.522
76054W        W44272   0.861  32.769   2.658
76055W        W44273  18.088  40.899  11.978
76056W        W44274  19.221  17.534  12.192
76057W        W44275  40.779   2.382   0.782
76058W        W44276  21.871  35.714  12.968
76059W        W44277  42.273  35.029   1.871
76060W        W44278  31.375   1.963  13.246
76061W        W44279   5.397  23.186   3.293
76062W        W44280  37.911  44.397   1.718
76063W        W44281  12.911  11.354   0.510
76064W        W44282  32.637   9.410   2.446
76065W        W44283  29.887  27.398   2.902
76066W        W44284  28.841  19.485  10.713
76067W        W44285  37.245  37.953  13.631
76068W        W44286  17.142   7.662   2.141
76069W        W44287   9.909  15.957   2.788
76070W        W44288   0.655   6.437   4.210
76071W        W44289  18.525  15.576  11.453
76072W        W44290   9.899  18.275  10.772
76073W        W44291  22.710   2.951  14.692
76074W        W44292   3.395  22.809   0.166
76075W        W44293  40.885  30.054   3.901
76076W        W44294   4.224  42.382  12.101
76077W        W44295  21.681  41.982   1.347
76078W        W44296  24.034   4.930   2.337
76079W        W44297   5.229  42.768  14.370
76080W        W44298  11.468   9.257   1.334
76081W        W44299  36.605  38.290  10.721
76082W        W44300  43.724  31.049  13.841
76083W        W44301   8.870  30.437  13.781
76084W        W44302  18.931  14.591  10.758
76085W        W44303  30.906  21.131   1.521
76086W        W44304   3.004  27.699  11.357
76087W        W44305   9.673  39.469   1.352
76088W        W44306  44.369   0.561   0.258
76089W        W44307  16.595  36.405  12.076
76090W        W44308  33.621  25.211   4.095
76091W        W44309  22.190  43.211   4.588
76092W        W44310  33.899  11.043  11.680
76093W        W44311   0.811  23.506  14.879
76094W        W44312  38.569  35.387   1.359
76095W        W44313   7.098   4.348  14.241
76096W        W44314   3.206  17.024  11.873
76097W        W44315   1.781  18.175   3.546
76098W        W44316   7.847  12.889   2.784
76099W        W44317  26.991  39.735   0.806
76100W        W44318  35.958  24.437  14.921
76101W        W44319  40.931  44.471  14.263
76102W        W44320  13.253   4.157   3.821
76103W        W44321  25.999  33.706  11.582
76104W        W44322  22.636   8.274   4.286
76105W        W44323   0.097  31.511   3.235
76106W        W44324  21.465   7.466  12.704
76107W        W44325  37.228  14.057  12.081
76108W        W44326  28.645  38.875   1.475
76109W        W44327  14.185  11.089  11.592
76110W        W44328  23.198  21.263  14.334
76111W        W44329  30.889   3.001   9.726
76112W        W44330   5.337   5.263   3.811
76113W        W44331  32.854  18.744  11.722
76114W        W44332  35.474  27.835   3.393
76115W        W44333  16.438  41.524   2.851
76116W        W44334  13.152  23.243  13.628
76117W        W44335   1.959  15.643  11.466
76118W        W44336  28.159  11.366  12.622
76119W        W44337  23.067  14.886  14.192
76120W        W44338  11.200  10.853   2.345
76121W        W44339  19.767  30.089  10.958
76122W        W44340  17.110  12.584   4.017
76123W        W44341   7.104  40.092  14.557
76124W        W44342  42.524  38.928  11.861
76125W        W44343  14.596  15.383   3.667
76126W        W44344  42.310   2.427   0.736
76127W        W44345  26.125  16.463   4.810
76128W        W44346  41.537   7.204  14.891
76129W        W44347  11.125   0.788   1.914
76130W        W44348   1.260   1.039   3.769
76131W        W44349   5.420  40.876   2.271
76132W        W44350  42.528   0.143   1.914
76133W        W44351  34.451  26.167   0.501
76134W        W44352   6.952  37.649  12.135
76135W        W44353  25.086  29.697   3.241
76136W        W44354   3.255  19.332  13.043
76137W        W44355  42.891  23.297  12.452
76138W        W44356  34.089  28.678   3.259
76139W        W44357  38.816  41.971   3.229
76140W        W44358  19.613  10.154   2.633
76141W        W44359  14.862  17.160  13.968
76142W        W44360  27.000  30.821   3.137
76143W        W44361  13.386  22.469  10.334
76144W        W44362  29.921  16.581   2.351
76145W        W44363  40.400  16.037  11.225
76146W        W44364  41.017  29.555  12.277
76147W        W44365   2.358  35.259   4.868
76148W        W44366  11.700  26.623   0.317
76149W        W44367  23.859  12.138  11.815
76150W        W44368  14.614  13.064   1.846
76151W        W44369  14.658   4.972  11.704
76152W        W44370   9.429  32.381  11.528
76153W        W44371  42.806  35.294   4.305
76154W        W44372  28.891  17.919   0.444
76155W        W44373  12.835  44.287   2.308
76156W        W44374   4.376  12.655  11.693
76157W        W44375  14.809  11.575   1.748
76158W        W44376   8.374  17.338   4.899
76159W        W44377  43.963  25.221  13.841
76160W        W44378  39.042   4.736  11.042
76161W        W44379  18.302  10.156   2.668
76162W        W44380  43.883   1.393   4.779
76163W        W44381  23.669  18.449  10.656
76164W        W44382  34.122  15.507  13.453
76165W        W44383  19.691  30.339   1.699
76166W        W44384  34.688   3.364  12.028
76167W        W44385  23.252   7.271  12.940
76168W        W44386  21.971  29.606   1.783
76169W        W44387  44.997  33.066   3.413
76170W        W44388  30.462  14.962  12.975
76171W        W44389   1.903   0.455  12.291
76172W        W44390  41.440  35.541   0.943
76173W        W44391   9.239  11.317  14.090
76174W        W44392  22.562  22.756  14.951
76175W        W44393  42.498  16.310  10.819
76176W        W44394  15.100  37.268   4.994
76177W        W44395  24.630  14.009  12.487
76178W        W44396  17.622  33.152  10.006
76179W        W44397   7.733  40.868   3.716
76180W        W44398  44.883  14.031   0.752
76181W        W44399  31.622   2.427  13.354
76182W        W44400   4.987  21.527  10.579
76183W        W44401  11.857  28.504  14.234
76184W        W44402  13.745   8.408  12.513
76185W        W44403  10.286   0.297   2.234
76186W        W44404  31.511   1.699   5.229
76187W        W44405   6.006   4.471   4.583
76188W        W44406  38.774  10.114   4.506
76189W        W44407   3.023   0.853   0.829
76190W        W44408  28.683   3.720   0.502
76191W        W44409  30.087  42.539   2.349
76192W        W44410   7.145   8.283   1.334
76193W        W44411  16.096   4.449  12.955
76194W        W44412  17.744  32.628   3.723
76195W        W44413   2.512  15.211  12.985
76196W        W44414  37.520   4.933  14.609
76197W        W44415  23.686   4.863  10.982
76198W        W44416  13.913  25.123   2.383
76199W        W44417   3.854  11.658  11.789
76200W        W44418   5.191  10.585   2.819
76201W        W44419  12.233  40.734  13.557
76202W        W44420  22.232   3.800  13.883
76203W        W44421  42.561  15.744  12.386
76204W        W44422  23.983   8.647  11.648
76205W        W44423  39.841  27.515  14.339
76206W        W44424   7.123   1.149  12.339
76207W        W44425   9.062  40.999   4.171
76208W        W44426   3.871  40.374  11.950
76209W        W44427  10.103  25.707  12.808
76210W        W44428  39.051   7.393   4.143
76211W        W44429   3.749  27.704  10.733
76212W        W44430   1.304  37.038  10.626
76213W        W44431  12.471   8.436   1.893
76214W        W44432  28.548  41.500  13.377
76215W        W44433  36.478   1.864  11.457
76216W        W44434  19.322  16.664   3.205
76217W        W44435  22.217  12.903   4.907
76218W        W44436  36.236  31.659  13.835
76219W        W44437  37.296  39.536  11.207
76220W        W44438  17.693  29.471  14.863
76221W        W44439  22.678  44.769  12.673
76222W        W44440   9.101  37.963   3.300
76223W        W44441  22.177  20.335  11.406
76224W        W44442  44.395  42.974   3.360
76225W        W44443  10.471  41.850   3.583
76226W        W44444  27.367  21.965  13.993
76227W        W44445  19.697  38.614   1.299
76228W        W44446   1.001  34.414  14.458
76229W        W44447   5.012  41.728  14.075
76230W        W44448  22.131  30.185   2.639
76231W        W44449  33.615  43.252  13.112
76232W        W44450   1.559  31.376  13.042
76233W        W44451  40.291   0.872   4.966
76234W        W44452  44.428  22.313   0.404
76235W        W44453  23.035  17.982   1.058
76236W        W44454  25.676  22.599  13.407
76237W        W44455  15.244   7.057  13.906
76238W        W44456  32.388   7.297   2.136
76239W        W44457   9.290  43.807   1.087
76240W        W44458  43.730   6.266   4.235
76241W        W44459   7.490  21.860   0.503
76242W        W44460   7.441   7.200  10.518
76243W        W44461   8.086  20.327  12.998
76244W        W44462  32.160   2.445  13.354
76245W        W44463   3.878  31.320  12.425
76246W        W44464  41.968  27.368   3.696
76247W        W44465  38.561  13.581   2.680
76248W        W44466  28.604  23.776   1.380
76249W        W44467  13.659  42.770   2.751
76250W        W44468  41.860  33.068   3.723
76251W        W44469   6.096  39.351   1.710
76252W        W44470  24.177   2.668  11.612
76253W        W44471  14.300   0.780   2.277
76254W        W44472  10.865  41.037  13.844
76255W        W44473  21.949  33.451  14.607
76256W        W44474   7.145  44.180   0.839
76257W        W44475   2.686  23.166   1.337
76258W        W44476  14.455  39.883   2.885
76259W        W44477  13.641  29.940   1.453
76260W        W44478   9.904  10.256   2.105
76261W        W44479  31.453  38.754   4.379
76262W        W44480  23.023  38.162   2.836
76263W        W44481  41.414  30.234   0.418
76264W        W44482  35.146  24.264  14.470
76265W        W44483  17.522  43.879  10.663
76266W        W44484  39.810  18.114  11.654
76267W        W44485  18.670   0.137  14.062
76268W        W44486  27.060  13.622  12.954
76269W        W44487  42.362   0.244  12.470
76270W        W44488  37.461  11.178  10.192
76271W        W44489  16.671  22.205  11.876
76272W        W44490   5.723  23.909  11.497
76273W        W44491  10.119  10.842  14.378
76274W        W44492   0.013  40.077  12.899
76275W        W44493  13.229  42.436  12.859
76276W        W44494  16.665   6.433   2.150
76277W        W44495  13.645   5.786  12.057
76278W        W44496  17.016  12.615  13.542
76279W        W44497  18.632  10.096  12.218
76280W        W44498   3.382  33.158  11.475
76281W        W44499  34.022  28.083   0.418
76282W        W44500   7.134   8.671   4.485
76283W        W44501  27.417  12.170   2.394
76284W        W44502  31.922  10.588   0.375
76285W        W44503  30.594  36.860   1.325
76286W        W44504   0.787   4.265   3.835
76287W        W44505  39.985  37.860   4.336
76288W        W44506  42.060  44.175  11.204
76289W        W44507  32.407   4.810  13.541
76290W        W44508  26.805  28.982  12.512
76291W        W44509  22.831  29.028   5.157
76292W        W44510   0.497  26.147  14.388
76293W        W44511  22.768  21.168  11.542
76294W        W44512   0.295  35.961   2.372
76295W        W44513  13.700  41.966   4.155
76296W        W44514  44.673  31.277   3.104
76297W        W44515  37.313  16.738  11.475
76298W        W44516  13.129  34.277   4.119
76299W        W44517   5.278   2.339  11.687
76300W        W44518  25.608  15.226  11.486
76301W        W44519   3.283   5.105   2.342
76302W        W44520  39.724  10.767   4.174
76303W        W44521  33.000   1.384  14.410
76304W        W44522  14.779  24.631   1.386
76305W        W44523  43.397  38.548  12.200
76306W        W44524  38.820  13.698   2.259
76307W        W44525  43.848  42.843   5.188
76308W        W44526  10.032  13.855   1.713
76309W        W44527   1.126  17.882   1.016
76310W        W44528  28.600  30.764  12.152
76311W        W44529  11.230  14.762   0.200
76312W        W44530  15.781   8.076  12.093
76313W        W44531  29.683   2.467   3.778
76314W        W44532  22.228  35.452  13.283
76315W        W44533  18.099   6.230   1.832
76316W        W44534  29.714   1.724   3.434
76317W        W44535  25.257  31.821  11.585
76318W        W44536  31.584  29.678   1.354
76319W        W44537  32.556  32.354   2.383
76320W        W44538  30.692  16.726  13.442
76321W        W44539  13.534  34.829  14.973
76322W        W44540  32.184   0.198   2.638
76323W        W44541  19.004  22.973   3.748
76324W        W44542  21.261   9.410  12.408
76325W        W44543  30.252  36.923   3.687
76326W        W44544  43.335  16.899  14.768
76327W        W44545  40.129  33.743  11.456
76328W        W44546  31.805  29.076   0.477
76329W        W44547  15.197  14.711   3.702
76330W        W44548  33.353  36.914  10.699
76331W        W44549  39.590  17.880  12.048
76332W        W44550  38.831   9.282  13.079
76333W        W44551  33.892  25.038   5.377
76334W        W44552  24.117  34.441  13.378
76335W        W44553   2.170  43.484   0.479
76336W        W44554  36.120  41.048  12.159
76337W        W44555   0.979   0.005   4.034
76338W        W44556   0.714   5.275  11.435
76339W        W44557  43.351  42.055  10.894
76340W        W44558  44.468  42.385  14.207
76341W        W44559  34.880  44.771   3.387
76342W        W44560  23.149  33.109  10.310
76343W        W44561  16.796   3.869   1.015
76344W        W44562  11.080   1.913   2.152
76345W        W44563  20.104  39.557  13.738
76346W        W44564   5.473  34.706   0.920
76347W        W44565  21.191  19.567  13.933
76348W        W44566   2.213  16.167  14.709
76349W        W44567  44.861  17.147  12.003
76350W        W44568  32.198  40.478   4.039
76351W        W44569   8.767   7.708   3.118
76352W        W44570  20.503  24.949  11.165
76353W        W44571   1.927   9.376   1.783
76354W        W44572  30.041   4.197  13.083
76355W        W44573  44.300  17.655   3.781
76356W        W44574  17.809  42.496  13.497
76357W        W44575  37.699   0.015  12.462
76358W        W44576  44.353  26.459  11.841
76359W        W44577   4.412  14.621  13.714
76360W        W44578   9.782  15.861   3.691
76361W        W44579  37.499  35.333  13.974
76362W        W44580  40.315  10.323  14.221
76363W        W44581   0.453   9.786   2.258
76364W        W44582  19.955  34.019  12.045
76365W        W44583  13.589   1.815   3.799
76366W        W44584  11.275  16.243  12.409
76367W        W44585   6.185  33.180  11.592
76368W        W44586   6.517   9.511   2.652
76369W        W44587   2.912   0.348   3.710
76370W        W44588  26.921  18.306  13.429
76371W        W44589  38.608  19.929  13.524
76372W        W44590  17.845  41.837   4.161
76373W        W44591  43.992   1.884  13.592
76374W        W44592   9.660  33.565  14.792
76375W        W44593  23.901  11.117   3.735
76376W        W44594   5.558  39.558   2.456
76377W        W44595  11.278  23.880   1.349
76378W        W44596  18.506   0.907   2.362
76379W        W44597  36.624  26.948   4.882
76380W        W44598  41.838  31.448  10.723
76381W        W44599   8.766   7.932   2.653
76382W        W44600  13.194  10.717   2.633
76383W        W44601  10.173  12.938  13.953
76384W        W44602  20.448  31.416  12.033
76385W        W44603  36.024   9.440   2.254
76386W        W44604   5.599  43.030  10.652
76387W        W44605  35.470  16.331   1.817
76388W        W44606  15.025  12.379   4.453
76389W        W44607  14.650   8.826  14.700
76390W        W44608  42.422  26.592  12.935
76391W        W44609  10.740  33.327  12.902
76392W        W44610  14.252  30.170   2.234
76393W        W44611  10.856  30.016   0.255
76394W        W44612  10.914   7.009  12.140
76395W        W44613  17.973  23.991   4.576
76396W        W44614  31.644  34.323  14.802
76397W        W44615   2.268  37.843   3.107
76398W        W44616  35.778  25.452  11.896
76399W        W44617  42.389   6.714   4.622
76400W        W44618  20.502   4.263   3.806
76401W        W44619  14.689  20.677   1.694
76402W        W44620  15.150  37.008  11.544
76403W        W44621  23.616  41.535  10.616
76404W        W44622   5.146  29.619  11.062
76405W        W44623  38.505  38.514  14.525
76406W        W44624   7.657   9.611   3.271
76407W        W44625   0.387   1.433   1.716
76408W        W44626  40.549   1.989   4.694
76409W        W44627  32.964   3.689  12.600
76410W        W44628  14.915   4.178   0.322
76411W        W44629  18.025  39.440  13.210
76412W        W44630   3.269   5.328   1.880
76413W        W44631  28.730  18.303   1.299
76414W        W44632  19.745  29.575   1.253
76415W        W44633  29.798  14.716   0.896
76416W        W44634  33.244  26.410  12.983
76417W        W44635  38.935  35.544   0.763
76418W        W44636   1.873  28.160   4.713
76419W        W44637  31.319  31.910  12.444
76420W        W44638  19.047  35.534   4.193
76421W        W44639  35.848  32.335   2.311
76422W        W44640  20.047  31.180   0.910
76423W        W44641   9.808  21.729   1.214
76424W        W44642   9.031   3.021  12.164
76425W        W44643  17.190   4.327  10.733
76426W        W44644  29.467  24.238   2.680
76427W        W44645  17.301  33.001   3.771
76428W        W44646   1.027  21.620   3.620
76429W        W44647  33.470  20.131  11.520
76430W        W44648  33.123  40.275   2.969
76431W        W44649  35.434  28.620   3.666
76432W        W44650   0.748  44.818  12.356
76433W        W44651  42.445  23.106  11.646
76434W        W44652  41.031  17.515  13.006
76435W        W44653  35.067  22.006   4.029
76436W        W44654  24.206   6.929  11.048
76437W        W44655  10.875  25.015   2.821
76438W        W44656  29.380  22.277  13.963
76439W        W44657   9.357  19.676  13.033
76440W        W44658  11.231   9.505  14.657
76441W        W44659  21.593  26.682  12.143
76442W        W44660   9.720  15.682   0.088
76443W        W44661   9.864  39.422   3.982
76444W        W44662  38.548  39.014  12.418
76445W        W44663  43.038  36.681  10.817
76446W        W44664  33.254  31.683   2.759
76447W        W44665  27.417   2.330   4.643
76448W        W44666  23.106   0.784  14.836
76449W        W44667   0.292   7.962   1.879
76450W        W44668  37.406  31.347   2.594
76451W        W44669  28.861  12.070   0.845
76452W        W44670  24.147  36.118  14.560
76453W        W44671  44.395  16.100  11.572
76454W        W44672  15.520  16.523   2.710
76455W        W44673   2.237   2.509   1.900
76456W        W44674  15.671   2.436   2.785
76457W        W44675  20.020  38.870  10.279
76458W        W44676   1.457   7.600  12.826
76459W        W44677  44.317  33.591  10.675
76460W        W44678  14.611   4.714  10.739
76461W        W44679   6.760   8.938   0.963
76462W        W44680   5.543  29.229  11.956
76463W        W44681  16.211  21.300   2.692
76464W        W44682  40.904  19.511   3.703
76465W        W44683  38.190  18.116  10.701
76466W        W44684  15.300  39.950  11.814
76467W        W44685   7.139  18.505   1.385
76468W        W44686  12.314  12.027   0.413
76469W        W44687  31.179  32.034  11.479
76470W        W44688  19.076   7.147  13.292
76471W        W44689  29.504  41.275   4.052
76472W        W44690  20.036  13.061   5.340
76473W        W44691  38.615   1.250   0.438
76474W        W44692   1.309   9.403   2.217
76475W        W44693  28.681  18.551   0.049
76476W        W44694  28.823  27.789  11.323
76477W        W44695   6.379  24.116   3.575
76478W        W44696  39.330  14.569   2.212
76479W        W44697  24.478  22.451  12.021
76480W        W44698   7.885   0.746  12.988
76481W        W44699  17.147  41.908  11.556
76482W        W44700  32.903  31.032   0.290
76483W        W44701  38.302  20.476  10.477
76484W        W44702  37.558  32.974   3.385
76485W        W44703   7.248   3.070  12.954
76486W        W44704  10.856   6.895  10.727
76487W        W44705  23.589  38.552  11.695
76488W        W44706  22.700  19.241  13.840
76489W        W44707  43.857  20.771   3.627
76490W        W44708  24.219   8.669  13.339
76491W        W44709  13.151   0.072  11.601
76492W        W44710  15.680  38.253  13.956
76493W        W44711  19.313  19.340  12.189
76494W        W44712   4.413  41.391   2.699
76495W        W44713  28.022   4.200   2.864
76496W        W44714   8.708  39.577  14.460
76497W        W44715   2.242  24.167  11.644
76498W        W44716  13.337  11.152  11.511
76499W        W44717  14.687   1.057  10.377
76500W        W44718   1.565   7.257   0.422
76501W        W44719   5.436  23.713  10.967
76502W        W44720  12.888  23.053   0.362
76503W        W44721  15.662   3.446  11.208
76504W        W44722   5.459  32.099   1.683
76505W        W44723  17.877   2.018   0.959
76506W        W44724  22.055  20.554   4.592
76507W        W44725  13.286   1.383  11.897
76508W        W44726  43.899   4.562  13.065
76509W        W44727  16.193  16.489   1.217
76510W        W44728  16.171   1.126   2.706
76511W        W44729  36.940  23.072   1.631
76512W        W44730   6.825  22.265  14.102
76513W        W44731  43.430  22.146  12.010
76514W        W44732  10.255  10.265   1.642
76515W        W44733  34.364  40.205   2.316
76516W        W44734   3.424  20.754   1.044
76517W        W44735   7.795   8.271   0.474
76518W        W44736  17.304  25.669  10.243
76519W        W44737  29.456  44.905  11.166
76520W        W44738  36.476  44.690   0.432
76521W        W44739  29.897  33.133   0.890
76522W        W44740   4.875   4.376   1.006
76523W        W44741   3.233  12.137  13.041
76524W        W44742  31.117  41.075  14.881
76525W        W44743  19.278   2.871  13.931
76526W        W44744  41.931   7.854   4.867
76527W        W44745  30.699  14.129   0.191
76528W        W44746  35.358  12.440   3.750
76529W        W44747   9.036  36.526  12.825
76530W        W44748  30.708  29.529   1.776
76531W        W44749  22.411   2.036  14.058
76532W        W44750  18.268  43.735  14.461
76533W        W44751  14.820  14.650   0.347
76534W        W44752  36.460  42.971   3.746
76535W        W44753  38.560  37.889  11.068
76536W        W44754  24.088  38.922   4.591
76537W        W44755   6.714  30.376  13.474
76538W        W44756  35.686  29.053   2.750
76539W        W44757  13.325  16.010   2.905
76540W        W44758   8.722  38.881  13.507
76541W        W44759  32.413  44.001  14.390
76542W        W44760  24.647  26.651  12.888
76543W        W44761   8.316  32.600  13.537
76544W        W44762  20.127   3.251  12.881
76545W        W44763  41.258  26.183  12.759
76546W        W44764   6.272  39.215  11.900
76547W        W44765  23.871  29.826   5.115
76548W        W44766  14.138  43.811  11.461
76549W        W44767  26.569  14.727  11.083
76550W        W44768   3.784  28.359  12.942
76551W        W44769  13.068  42.288  10.717
76552W        W44770   8.611  24.086  12.647
76553W        W44771  30.394  36.678  14.106
76554W        W44772   7.288  33.537  12.043
76555W        W44773  37.332  19.843   3.694
76556W        W44774  44.751  16.041  10.279
76557W        W44775  31.442  34.927   1.725
76558W        W44776  35.660  30.931  12.047
76559W        W44777   7.218  24.160  14.847
76560W        W44778  28.454  40.937   4.089
76561W        W44779  36.062  27.906   0.448
76562W        W44780   2.840  20.486  11.876
76563W        W44781   9.392  22.554   3.807
76564W        W44782   5.451  23.453  11.439
76565W        W44783   0.362   4.659  11.628
76566W        W44784   7.245   9.951   0.314
76567W        W44785  15.763  15.599  12.393
76568W        W44786  17.691  31.814  13.382
76569W        W44787   9.570  11.421   1.877
76570W        W44788  25.028  12.402   2.947
76571W        W44789   7.272  39.865  11.280
76572W        W44790  20.550   2.742   2.724
76573W        W44791  20.794  31.573   0.565
76574W        W44792  32.363  17.053  12.848
76575W        W44793  28.538  15.023  13.641
76576W        W44794  17.240  38.478  12.595
76577W        W44795  22.252  41.023  11.561
76578W        W44796  17.580  24.685  13.914
76579W        W44797  29.999  12.909   0.207
76580W        W44798   3.401  41.466  12.326
76581W        W44799  27.633  38.515   3.836
76582W        W44800  21.751  35.398  13.458
76583W        W44801  21.047  28.737  13.002
76584W        W44802  14.241   4.710   3.725
76585W        W44803  25.290  15.296   2.681
76586W        W44804  10.726   6.165  13.097
76587W        W44805  27.681  42.277  12.317
76588W        W44806   9.362  12.041  14.507
76589W        W44807  44.545   3.678  11.018
76590W        W44808  37.848   1.078   5.004
76591W        W44809  41.408  42.636   0.213
76592W        W44810  19.041  24.581  13.947
76593W        W44811  44.930  39.403   2.838
76594W        W44812  26.220  29.936   2.495
76595W        W44813  16.307  16.336  12.724
76596W        W44814  36.579  34.315  10.258
76597W        W44815  35.291  40.270   1.465
76598W        W44816  14.296  33.190  13.553
76599W        W44817  23.050  36.343   1.452
76600W        W44818  36.322  39.735   4.522
76601W        W44819   6.086   5.928   0.266
76602W        W44820  21.624  42.472   3.842
76603W        W44821  44.266   8.919  10.198
76604W        W44822  44.410  39.533  10.966
76605W        W44823  17.646   8.011  12.466
76606W        W44824  33.867  18.763   1.212
76607W        W44825  27.947  30.674   4.121
76608W        W44826   6.330  28.687   1.510
76609W        W44827   7.770  30.473   0.916
76610W        W44828   8.665  40.253   4.289
76611W        W44829   8.193  29.990  13.772
76612W        W44830  35.948  43.130  14.212
76613W        W44831  18.349  18.778  12.719
76614W        W44832  31.049   0.019   2.188
76615W        W44833   1.124   3.725  12.126
76616W        W44834   8.253  32.589   3.846
76617W        W44835   9.558  44.444  12.044
76618W        W44836  16.400  36.901  12.137
76619W        W44837  15.317  25.268  12.026
76620W        W44838  43.787  17.727   0.779
76621W        W44839  41.892  37.087  11.198
76622W        W44840  43.841  27.022  14.429
76623W        W44841  39.554  16.796   0.766
76624W        W44842  11.784  23.256   1.720
76625W        W44843  14.238  18.244  12.104
76626W        W44844  12.561  22.510  12.362
76627W        W44845   4.176   6.390  10.516
76628W        W44846  19.365  33.439   3.211
76629W        W44847  26.046  14.284   0.242
76630W        W44848  31.599  15.455   0.786
76631W        W44849  22.157  32.828   1.283
76632W        W44850  10.087   8.415  13.888
76633W        W44851  11.816  39.981   1.309
76634W        W44852  42.020  16.438   1.757
76635W        W44853  14.837  42.224   3.386
76636W        W44854  31.113  44.023  14.893
76637W        W44855  30.993  42.561  11.949
76638W        W44856   1.339  34.617   4.349
76639W        W44857  37.132  39.734   1.680
76640W        W44858   3.278  42.606   1.812
76641W        W44859  17.644   8.466  13.978
76642W        W44860   9.662  31.851   3.265
76643W        W44861  16.747   7.770  14.335
76644W        W44862   9.981   4.502   3.725
76645W        W44863  20.191  11.780   2.743
76646W        W44864  25.627  10.314   1.398
76647W        W44865  44.700  27.641   3.403
76648W        W44866  17.928  21.041   4.258
76649W        W44867   0.861  11.726   3.833
76650W        W44868  14.831  28.736  13.355
76651W        W44869  18.751  39.937   0.782
76652W        W44870  42.849  39.972  10.637
76653W        W44871  33.195  36.011   2.212
76654W        W44872  38.085  35.457  14.362
76655W        W44873  41.257  38.433   4.328
76656W        W44874  18.171  39.950   3.661
76657W        W44875  44.976  16.300  12.920
76658W        W44876  41.517   4.979  14.812
76659W        W44877   8.589  23.143   1.324
76660W        W44878  42.943  25.024   4.164
76661W        W44879  32.650  34.634   2.815
76662W        W44880  42.941  27.922   3.270
76663W        W44881  32.537  36.455   4.160
76664W        W44882  19.282  21.806   3.175
76665W        W44883  15.627  34.723   2.338
76666W        W44884   6.949  24.613  14.907
76667W        W44885  22.256  13.220   4.494
76668W        W44886  38.524  20.760   1.211
76669W        W44887   2.117  32.403   1.508
76670W        W44888  30.868   2.535   0.475
76671W        W44889  11.648  10.852   0.714
76672W        W44890   5.513   3.235  12.110
76673W        W44891  12.763  29.507  13.392
76674W        W44892  16.597  33.539  13.625
76675W        W44893  13.345   5.532  10.766
76676W        W44894  19.858   7.131  13.757
76677W        W44895  13.367   3.376   0.243
76678W        W44896  35.089  10.861   3.213
76679W        W44897   5.327  10.791   0.232
76680W        W44898  43.456   7.673  10.980
76681W        W44899  20.652  34.794   0.525
76682W        W44900   2.701  26.251   3.265
76683W        W44901  42.831  33.525  12.021
76684W        W44902  25.135   4.142  11.372
76685W        W44903  31.655  36.683   0.907
76686W        W44904   0.754  21.658  13.425
76687W        W44905  22.504   3.091   2.460
76688W        W44906  29.538  21.496   1.145
76689W        W44907   6.911  13.368  14.710
76690W        W44908  38.144  11.388   2.612
76691W        W44909   1.352  32.284   3.260
76692W        W44910  31.838  15.841  12.802
76693W        W44911   3.912  19.670  13.656
76694W        W44912  42.097  34.490   3.244
76695W        W44913  14.626  21.966   4.854
76696W        W44914  29.420  22.276   0.388
76697W        W44915  23.679  21.636   0.966
76698W        W44916  35.878  39.601  11.927
76699W        W44917   3.792   7.409  14.172
76700W        W44918  42.915  33.135   1.303
76701W        W44919  22.342  17.970   1.855
76702W        W44920  25.584  33.443   1.655
76703W        W44921  18.598  28.445  13.859
76704W        W44922   9.170  25.944   0.351
76705W        W44923  35.081  27.055  12.009
76706W        W44924  15.327  17.642   1.761
76707W        W44925   0.226  14.759  11.089
76708W        W44926  36.381  16.739  14.963
76709W        W44927   6.319  37.007   4.388
76710W        W44928  39.991  10.655  10.704
76711W        W44929   9.359  36.632   2.764
76712W        W44930  14.596   3.819   4.280
76713W        W44931  10.571  32.429  11.207
76714W        W44932  44.080  30.418   2.217
76715W        W44933   1.341  11.916  13.418
76716W        W44934  26.132  18.664  10.842
76717W        W44935  10.319  36.821   4.522
76718W        W44936  33.190  29.391   2.778
76719W        W44937  38.145   4.134   4.062
76720W        W44938  11.236  12.862  10.665
76721W        W44939  19.501  35.833   4.562
76722W        W44940  20.771  18.631   2.395
76723W        W44941  43.655   3.748  12.447
76724W        W44942  38.449  20.325   2.935
76725W        W44943  27.287   5.876  14.105
76726W        W44944  18.869  41.896   4.130
76727W        W44945  31.973  22.255   2.747
76728W        W44946   8.960  28.948   0.997
76729W        W44947  31.967  25.399   5.070
76730W        W44948  29.504  10.873  13.983
76731W        W44949  12.528   4.416  14.741
76732W        W44950  15.049  12.390   0.762
76733W        W44951  36.499  17.361   4.284
76734W        W44952  11.774   0.336  12.087
76735W        W44953  22.814  15.727   3.643
76736W        W44954  40.873  31.929   2.652
76737W        W44955  35.709  34.445   2.461
76738W        W44956  37.501   8.804  10.637
76739W        W44957  43.901   8.638  11.119
76740W        W44958   2.879  30.690  12.068
76741W        W44959  40.217   3.293   0.872
76742W        W44960  10.836  27.504  13.895
76743W        W44961  15.424  14.785   4.990
76744W        W44962   9.770  14.352   2.172
76745W        W44963   1.518  25.062  11.185
76746W        W44964  20.451   3.900  12.366
76747W        W44965   0.430  21.211  12.835
76748W        W44966  23.254  39.941  13.488
76749W        W44967  41.074  36.450   1.289
76750W        W44968  41.404  24.315   3.355
76751W        W44969  34.005  44.984  14.327
76752W        W44970  22.028   6.161  14.827
76753W        W44971  41.336  30.922   4.109
76754W        W44972  14.252  14.661  13.580
76755W        W44973  31.855  15.541   2.852
76756W        W44974  34.818  43.301   0.365
76757W        W44975  21.298  26.264   5.022
76758W        W44976   3.716  27.382   1.844
76759W        W44977  32.921  10.740  13.049
76760W        W44978  42.331  20.686  10.624
76761W        W44979  32.811   6.447   0.380
76762W        W44980  31.180  26.673  13.020
76763W        W44981  28.678  39.428   4.500
76764W        W44982  27.956   1.544   1.841
76765W        W44983  36.015  26.499   4.286
76766W        W44984  44.998  12.352   4.556
76767W        W44985  30.218  27.953  12.539
76768W        W44986  15.389   2.890  10.297
76769W        W44987   8.955  42.460   4.596
76770W        W44988  21.944   3.854  11.103
76771W        W44989  11.269  44.514  10.033
76772W        W44990  30.721  44.400   0.358
76773W        W44991  13.034   1.922  14.421
76774W        W44992  17.940  29.253   4.170
76775W        W44993  25.573   5.630  13.887
76776W        W44994  39.017  14.308   4.346
76777W        W44995  44.787  23.155  13.902
76778W        W44996  10.674  30.389  14.960
76779W        W44997  33.162   7.295  13.521
76780W        W44998   8.194  26.711  14.978
76781W        W44999  29.623  28.618   2.915
76782W        W45000  30.542  38.058  13.954
76783W        W45001  30.634  33.316   2.553
76784W        W45002  29.304  33.579  10.271
76785W        W45003  23.722  16.343  14.902
76786W        W45004  17.354  31.460   2.788
76787W        W45005   3.955  30.624  11.531
76788W        W45006  43.415  29.228   2.157
76789W        W45007  39.129   6.458   1.150
76790W        W45008   6.882  35.740  13.443
76791W        W45009   4.741  16.810   4.134
76792W        W45010  40.500  30.199   0.194
76793W        W45011  18.593  29.546  10.894
76794W        W45012   5.789   5.900   2.349
76795W        W45013  31.461  14.330  13.883
76796W        W45014  33.880   2.234   4.183
76797W        W45015  31.521  31.083   3.868
76798W        W45016   0.935  30.958   2.250
76799W        W45017  21.356  29.542   0.266
76800W        W45018  32.952  41.000   4.052
76801W        W45019  42.954  10.645   2.229
76802W        W45020  19.637   2.722   3.642
76803W        W45021   5.304  20.687  12.935
76804W        W45022  34.740   8.277   4.388
76805W        W45023  24.556  38.920   1.827
76806W        W45024  14.336  12.590   2.392
76807W        W45025  33.613  41.723   4.861
76808W        W45026  27.125  14.565   0.878
76809W        W45027  11.926  20.594  10.863
76810W        W45028   0.058   1.470   2.897
76811W        W45029  36.525   1.932   5.070
76812W        W45030  40.925  20.024  12.025
76813W        W45031  44.878   4.310   1.224
76814W        W45032  20.675   7.799   2.791
76815W        W45033  16.597  18.177   4.561
76816W        W45034   5.656   5.726  11.703
76817W        W45035  14.558  16.637  10.366
76818W        W45036   1.881  39.184   4.625
76819W        W45037  20.256  22.481  11.520
76820W        W45038   9.387  21.508   1.662
76821W        W45039   0.465  31.004   2.490
76822W        W45040  27.053   2.547   2.737
76823W        W45041  12.611  32.633  11.611
76824W        W45042  21.295  38.104   1.835
76825W        W45043   9.896   6.649   0.877
76826W        W45044  25.853  35.609  12.478
76827W        W45045   4.128  13.723  13.395
76828W        W45046  38.773   6.292  10.431
76829W        W45047   4.934   4.440   2.849
76830W        W45048   5.956  43.847  14.894
76831W        W45049  16.209  16.604   2.354
76832W        W45050  10.176  18.568   3.541
76833W        W45051  26.912  39.823  10.807
76834W        W45052   2.221  41.860  11.558
76835W        W45053  44.489   5.734  13.899
76836W        W45054   6.685  16.836   1.850
76837W        W45055  12.703   2.738   2.387
76838W        W45056  23.498  21.038  13.903
76839W        W45057  12.535   8.066  10.879
76840W        W45058  17.190  25.424  14.906
76841W        W45059   4.017  26.855   0.332
76842W        W45060   4.966  25.188  12.565
76843W        W45061  19.221  13.388  14.946
76844W        W45062  38.396  25.150  12.583
76845W        W45063  37.993  13.898  14.893
76846W        W45064  19.458   3.277  10.347
76847W        W45065   5.916  39.581  11.097
76848W        W45066  31.243   6.970   0.619
76849W        W45067   6.907  23.224  12.582
76850W        W45068  20.645   5.160  12.480
76851W        W45069  44.768  19.657  11.586
76852W        W45070  31.786  40.357  13.120
76853W        W45071  24.663   7.390  14.255
76854W        W45072  22.578  22.800  13.881
76855W        W45073  20.622  25.573  12.069
76856W        W45074  27.485  44.961  12.021
76857W        W45075  19.622   4.445   5.060
76858W        W45076   2.276  30.289  11.133
76859W        W45077   1.868   9.771   0.339
76860W        W45078   8.302   2.803   1.947
76861W        W45079   8.900  13.118   1.448
76862W        W45080   5.684  29.546  13.919
76863W        W45081  29.901  23.079  13.863
76864W        W45082  18.185  36.672   2.224
76865W        W45083  15.613   6.233  13.977
76866W        W45084  19.811  14.121   2.606
76867W        W45085  36.309   4.429  11.769
76868W        W45086  18.670  23.800  12.391
76869W        W45087  17.604   6.470  12.507
76870W        W45088   0.186   4.724  13.255
76871W        W45089   6.846  25.541   2.474
76872W        W45090  29.675   4.943  10.638
76873W        W45091  31.345  23.243   2.568
76874W        W45092  25.965   7.147   0.849
76875W        W45093   3.299   6.949  12.410
76876W        W45094   5.963  35.001   4.609
76877W        W45095  20.114   7.488   4.553
76878W        W45096  24.493   9.145   1.031
76879W        W45097   9.244  40.252   5.043
76880W        W45098  14.710  38.777  14.076
76881W        W45099   5.654  31.907   2.318
76882W        W45100  12.715  25.108  12.210
76883W        W45101  14.606   1.207   2.255
76884W        W45102  22.920  17.772   4.055
76885W        W45103  27.152  21.055   3.330
76886W        W45104  32.435   6.772   5.129
76887W        W45105  41.631  42.787   4.558
76888W        W45106   5.984  19.512  11.238
76889W        W45107  12.138  15.755  10.662
76890W        W45108  37.443  42.796  10.731
76891W        W45109   3.738   7.700  11.924
76892W        W45110  44.597  42.316  14.695
76893W        W45111   0.753  28.978  10.729
76894W        W45112  31.641   6.874  11.067
76895W        W45113  35.616  11.833   0.778
76896W        W45114  21.228  26.682   3.668
76897W        W45115  36.430  39.970  13.426
76898W        W45116  32.217  31.368  12.415
76899W        W45117  11.317  13.037  12.500
76900W        W45118  30.220  15.690  11.656
76901W        W45119  14.202  39.369   0.258
76902W        W45120  24.500  29.972   4.325
76903W        W45121  33.373  43.512  12.358
76904W        W45122  10.142   5.202   2.658
76905W        W45123  44.961  25.448  12.781
76906W        W45124  39.567  11.825  13.015
76907W        W45125  28.758  13.921  11.730
76908W        W45126  28.075  24.762   3.261
76909W        W45127  30.855   6.229   1.335
76910W        W45128  41.291   0.765  12.070
76911W        W45129  23.039  21.565  10.547
76912W        W45130  29.013  16.539   4.608
76913W        W45131  42.817   2.385  13.663
76914W        W45132  27.844  13.212   3.325
76915W        W45133  21.643   8.373   4.768
76916W        W45134   6.829  25.605   0.381
76917W        W45135   5.791  21.556   4.524
76918W        W45136  14.221   3.516  14.404
76919W        W45137  41.912  42.484  14.766
76920W        W45138   2.136   6.223  13.543
76921W        W45139  29.385   9.698  11.170
76922W        W45140  19.506  17.560  11.241
76923W        W45141   2.956  19.573   1.314
76924W        W45142  39.651  12.947   3.256
76925W        W45143   9.262  16.308   1.375
76926W        W45144   7.437  15.656   1.715
76927W        W45145  44.733  29.579   4.058
76928W        W45146  17.238   0.976   3.518
76929W        W45147  29.011  41.757   0.793
76930W        W45148  44.988   7.696   2.269
76931W        W45149  31.267  27.914   5.187
76932W        W45150  36.778   4.724   0.397
76933W        W45151  32.247  10.761  13.918
76934W        W45152  15.185  19.836   1.860
76935W        W45153  36.125  28.589   3.171
76936W        W45154   7.984  24.634  13.572
76937W        W45155  28.190  21.215  11.524
76938W        W45156  13.392  24.149  11.301
76939W        W45157  18.711  41.853  14.048
76940W        W45158  33.148  36.859   0.840
76941W        W45159  13.147  44.005  12.552
76942W        W45160   3.675  35.497   3.014
76943W        W45161  25.522  28.150   4.658
76944W        W45162  37.414  31.501  12.438
76945W        W45163   9.917  21.002  13.978
76946W        W45164  37.524  11.961   2.444
76947W        W45165  19.389   1.733  12.490
76948W        W45166  28.889  23.019   1.882
76949W        W45167  16.337  31.655  10.993
76950W        W45168  33.499  35.901  14.366
76951W        W45169  18.991  43.831  12.844
76952W        W45170  14.578  39.790   1.382
76953W        W45171  34.186  33.586   4.224
76954W        W45172  20.756  18.343   4.124
76955W        W45173  38.143  39.338  12.358
76956W        W45174  10.277  38.571  13.259
76957W        W45175  29.023   5.653  12.409
76958W        W45176   2.751   7.523   4.569
76959W        W45177  27.118  25.839   3.197
76960W        W45178  28.495  31.367  10.679
76961W        W45179  42.008  20.415   2.503
76962W        W45180  41.539  13.328   4.654
76963W        W45181  35.338  34.637  11.436
76964W        W45182   0.184  28.214   3.760
76965W        W45183  13.327  38.591   2.692
76966W        W45184  44.956  35.869   4.873
76967W        W45185  35.930  28.612  11.626
76968W        W45186  38.768  15.594   1.803
76969W        W45187  33.446  39.938   0.858
76970W        W45188  26.130  40.559  14.316
76971W        W45189  37.401  30.173  13.014
76972W        W45190  16.634  37.124  13.397
76973W        W45191  44.954  42.777   4.953
76974W        W45192  39.761  37.405   4.052
76975W        W45193  23.608  14.663   4.621
76976W        W45194  23.930  22.148  13.542
76977W        W45195   9.789   5.949   4.317
76978W        W45196  28.234  17.316   0.415
76979W        W45197  11.485   4.878   2.644
76980W        W45198  42.288  43.985  13.303
76981W        W45199  39.253  35.426  13.347
76982W        W45200  44.098  43.925  13.947
76983W        W45201   0.720  30.126  14.427
76984W        W45202  39.549   7.185   3.658
76985W        W45203   4.280   4.318   4.126
76986W        W45204   7.120  25.642   0.877
76987W        W45205  25.983  21.546  14.822
76988W        W45206  11.213  37.896   0.421
76989W        W45207  35.053  13.206  13.048
76990W        W45208  28.271  27.126   3.547
76991W        W45209  18.634  15.309   3.816
76992W        W45210  27.224  43.392  13.549
76993W        W45211  29.950  41.800  11.542
76994W        W45212  40.537   6.587   4.017
76995W        W45213  19.239   9.640   3.702
76996W        W45214  40.541  36.052  10.804
76997W        W45215   1.916  16.267   0.866
76998W        W45216  22.747  25.480  13.420
76999W        W45217  27.116  43.992  11.603
77000W        W45218   6.146  20.622  13.501
77001W        W45219  42.772  25.735  11.949
77002W        W45220  36.962  11.916   1.054
77003W        W45221  39.626  34.936   0.071
77004W        W45222  11.357  21.916  13.291
77005W        W45223   4.310  10.675   2.903
77006W        W45224  40.227  38.934  14.282
77007W        W45225  39.309  34.902  14.625
77008W        W45226  31.161   2.908   4.131
77009W        W45227  38.625  34.494  12.123
77010W        W45228  29.181  13.714   3.032
77011W        W45229  30.673  33.644   2.982
77012W        W45230  25.446  36.049  13.373
77013W        W45231  22.628  36.895   2.774
77014W        W45232  27.955  13.673  11.432
77015W        W45233  27.921   5.382  14.577
77016W        W45234   7.462   3.473   3.330
77017W        W45235   3.154   3.327  14.918
77018W        W45236  25.743  44.215   0.388
77019W        W45237  41.089   0.601  11.457
77020W        W45238   2.819  34.075  13.409
77021W        W45239   0.894  38.898  14.432
77022W        W45240  33.495  31.252  13.425
77023W        W45241  35.381  16.927  10.894
77024W        W45242  36.452  30.614   4.551
77025W        W45243  23.387  10.782   1.649
77026W        W45244  33.623  27.904   0.032
77027W        W45245  25.736  36.459  12.132
77028W        W45246  31.126   2.005   1.896
77029W        W45247  41.829  10.364  12.503
77030W        W45248  16.996   5.896   2.781
77031W        W45249  29.423   3.215  11.555
77032W        W45250  26.407  21.539   3.194
77033W        W45251  19.276  20.923   2.751
77034W        W45252  14.121  13.895   3.225
77035W        W45253  39.148  33.130  12.332
77036W        W45254  26.423  24.390  10.373
77037W        W45255  28.371   1.593  12.941
77038W        W45256  27.947   5.193  10.334
77039W        W45257  12.593  11.159   3.661
77040W        W45258  38.315  23.048   0.324
77041W        W45259  28.926  36.302  11.598
77042W        W45260  13.319  11.781   4.279
77043W        W45261  29.925  11.700  10.498
77044W        W45262  28.994  43.824   0.751
77045W        W45263   8.293  15.235  13.844
77046W        W45264  13.587  35.164  11.923
77047W        W45265  43.791   8.446  11.873
77048W        W45266  41.494  29.441  14.916
77049W        W45267  40.418  20.998  12.530
77050W        W45268  29.510   3.697   0.830
77051W        W45269  34.549  11.822  11.449
77052W        W45270  40.482  32.139  11.409
77053W        W45271  20.810  44.046   2.427
77054W        W45272  27.350  36.612   4.606
77055W        W45273  27.977  43.164  14.251
77056W        W45274  21.195  32.042   0.483
77057W        W45275  25.102  43.259  11.953
77058W        W45276   7.745  33.374  11.213
77059W        W45277  11.186  18.142  13.048
77060W        W45278   3.402  15.799   2.276
77061W        W45279  22.959  31.962   0.547
77062W        W45280  12.160   6.952   1.410
77063W        W45281  24.892  28.544   2.214
77064W        W45282   9.850  21.141   3.659
77065W        W45283   5.443  30.461  13.877
77066W        W45284  41.311  38.590   0.564
77067W        W45285   1.885   8.330   4.142
77068W        W45286  12.664  41.017  13.658
77069W        W45287  40.489  13.072  12.881
77070W        W45288   7.853  17.665  14.563
77071W        W45289  14.818  35.880   4.186
77072W        W45290  30.272  44.350   4.765
77073W        W45291  17.602  11.716   5.182
77074W        W45292  32.485   9.919  11.361
77075W        W45293  30.606   2.848   4.120
77076W        W45294  10.737  38.605   4.337
77077W        W45295  12.066   1.362  10.734
77078W        W45296   3.283  42.339  12.936
77079W        W45297  15.669   0.468   1.182
77080W        W45298  26.631  21.912   0.880
77081W        W45299  19.135  35.273   3.760
77082W        W45300  41.138   6.768   2.920
77083W        W45301   9.219  27.998   0.948
77084W        W45302  26.260  10.152   4.151
77085W        W45303  29.003   8.353  12.460
77086W        W45304  14.660   4.755   1.416
77087W        W45305   0.891  33.040  14.218
77088W        W45306  31.029  40.241  14.448
77089W        W45307  43.462  17.164   3.451
77090W        W45308   0.497  24.211  12.077
77091W        W45309  19.483   0.912  11.984
77092W        W45310   9.898  22.858   0.479
77093W        W45311   0.485  34.883   4.612
77094W        W45312  16.381  43.331   4.445
77095W        W45313  27.987  13.190  14.635
77096W        W45314   8.055  35.953   0.691
77097W        W45315  16.526  35.653  13.449
77098W        W45316   6.323  44.032   0.442
77099W        W45317  33.420  32.816  12.569
77100W        W45318  13.171  16.722  12.069
77101W        W45319  43.964  15.542   1.377
77102W        W45320  18.091  16.617  13.439
77103W        W45321   0.186   2.906  12.023
77104W        W45322  40.995   8.892   0.270
77105W        W45323  18.142  42.633   0.225
77106W        W45324   6.942  31.848  14.798
77107W        W45325   6.722  18.893   3.584
77108W        W45326  42.834   2.217   1.405
77109W        W45327  38.022   5.796  10.179
77110W        W45328  36.314  13.632  11.238
77111W        W45329  25.462  20.643  13.053
77112W        W45330  34.926  10.341   3.172
77113W        W45331  42.871  21.761  14.635
77114W        W45332  23.999  31.657  11.439
77115W        W45333  23.829   6.134  14.187
77116W        W45334   3.486   7.134  13.416
77117W        W45335  14.613  30.946  11.219
77118W        W45336   3.259  30.946  11.129
77119W        W45337  15.001   4.023  10.465
77120W        W45338  39.901   2.067   3.789
77121W        W45339  35.338  39.404  13.913
77122W        W45340   8.304  10.299   2.363
77123W        W45341   1.813   6.223   1.865
77124W        W45342  19.191  13.990   0.070
77125W        W45343  40.501  11.404   2.170
77126W        W45344  19.568  21.822   1.503
77127W        W45345   6.488  17.806  10.241
77128W        W45346  35.894  38.126   0.161
77129W        W45347  38.542  21.231   3.098
77130W        W45348  34.511  17.604  11.415
77131W        W45349  22.218   1.049   0.675
77132W        W45350  40.846   0.509  14.818
77133W        W45351  38.094  25.780   3.236
77134W        W45352  43.711  44.268   1.558
77135W        W45353  37.376   8.161   0.491
77136W        W45354  42.057  22.116  11.626
77137W        W45355  32.868  12.352   1.247
77138W        W45356  29.940  29.190   3.240
77139W        W45357  41.760   7.688  12.961
77140W        W45358  38.683   2.712   1.040
77141W        W45359  44.346  24.223  13.869
77142W        W45360  36.297  28.980  11.660
77143W        W45361   8.427  26.136   2.627
77144W        W45362   5.335  40.287  11.638
77145W        W45363  13.624  37.543   3.280
77146W        W45364  22.984   5.382  12.873
77147W        W45365  43.341   4.886  12.549
77148W        W45366  25.702  19.702  13.419
77149W        W45367  31.632  20.628   1.544
77150W        W45368  30.606   0.526   2.794
77151W        W45369  20.749  13.518  13.573
77152W        W45370  20.811  16.577   1.757
77153W        W45371   9.432   8.137  11.023
77154W        W45372  38.677  40.265  10.668
77155W        W45373  18.209  14.160   3.102
77156W        W45374  16.999  10.518   0.952
77157W        W45375  22.080  17.513   1.735
77158W        W45376  16.502  22.908   3.210
77159W        W45377  33.088  38.879  12.746
77160W        W45378   5.931   8.634  14.613
77161W        W45379  16.486  10.873  11.923
77162W        W45380   3.253   2.633   0.762
77163W        W45381   7.163  43.001  11.601
77164W        W45382  19.992  38.028  13.600
77165W        W45383  11.744  13.570  10.795
77166W        W45384  17.122  43.061   2.305
77167W        W45385  25.071  11.633  12.589
77168W        W45386  27.561  26.635  14.583
77169W        W45387   5.138  36.104  14.364
77170W        W45388  12.262  17.767   0.281
77171W        W45389  29.723   4.028  11.970
77172W        W45390   4.232  33.136  12.478
77173W        W45391  27.943  23.430  12.943
77174W        W45392  32.643  44.448   0.776
77175W        W45393  39.044   8.344  12.274
77176W        W45394  40.770  32.732  12.988
77177W        W45395  44.529  43.915  10.999
77178W        W45396  41.415  11.835   4.375
77179W        W45397  41.046  34.996   0.146
77180W        W45398   8.836  33.819   1.165
77181W        W45399  16.722  31.174  11.842
77182W        W45400  27.987  40.552  12.301
77183W        W45401  18.771  32.475  12.971
77184W        W45402  33.047  13.815  11.596
77185W        W45403  31.940   2.065   1.848
77186W        W45404  21.658  21.213  12.216
77187W        W45405  42.855   0.658   1.311
77188W        W45406  26.575  23.624  12.029
77189W        W45407  37.605  40.119  14.546
77190W        W45408  17.579  26.079   1.917
77191W        W45409  42.331  10.393  13.810
77192W        W45410  24.455   9.050  11.166
77193W        W45411  39.511  23.534   4.424
77194W        W45412  13.500  23.660  11.154
77195W        W45413  13.336  31.659  10.669
77196W        W45414  27.180   8.917  12.071
77197W        W45415   9.310   0.454  12.060
77198W        W45416  16.046   7.790  11.456
77199W        W45417  41.514  20.856  14.718
77200W        W45418  42.309  25.316   2.655
77201W        W45419  32.899  42.797   4.608
77202W        W45420  10.353  35.551  14.337
77203W        W45421  28.855  39.786   2.788
77204W        W45422  16.792  29.328  11.795
77205W        W45423   1.157  38.401   3.181
77206W        W45424  44.535  38.957   4.192
77207W        W45425  15.234  30.739  14.029
77208W        W45426  28.948  30.996  13.299
77209W        W45427   6.832   5.956  14.886
77210W        W45428  22.133   9.053   1.955
77211W        W45429  35.846  40.179  14.850
77212W        W45430  38.439   5.502  14.290
77213W        W45431  33.230   3.352  10.204
77214W        W45432  16.082  19.822  11.611
77215W        W45433   9.860  16.691   3.326
77216W        W45434  39.636  23.766  12.758
77217W        W45435  34.536  23.254   0.790
77218W        W45436  21.703  16.551   4.092
77219W        W45437   5.288  37.119   1.602
77220W        W45438  36.620  41.074  12.024
77221W        W45439   4.506   8.612  14.436
77222W        W45440  17.091   4.718   4.576
77223W        W45441  42.722  19.295  10.738
77224W        W45442  20.579   5.333   3.849
77225W        W45443  28.546   1.393   2.623
77226W        W45444  39.904  18.048   0.717
77227W        W45445  32.386   5.415  13.059
77228W        W45446  14.015   6.978  12.549
77229W        W45447  19.834  21.225   0.978
77230W        W45448   8.515  29.306   0.359
77231W        W45449  16.741  28.942   2.760
77232W        W45450  10.789  38.850  11.152
77233W        W45451  15.561  14.761   4.113
77234W        W45452   9.772  31.008  14.592
77235W        W45453  11.543  44.858  12.326
77236W        W45454  15.276  40.766   1.334
77237W        W45455   4.715  18.723   4.341
77238W        W45456  24.308  26.457   2.893
77239W        W45457  17.682  26.660   1.339
77240W        W45458  28.511  16.632  11.254
77241W        W45459  38.453  22.436  13.837
77242W        W45460  23.557  16.767   1.878
77243W        W45461  10.757   6.792  11.632
77244W        W45462   7.140   1.235   1.687
77245W        W45463  13.570  32.343   4.151
77246W        W45464  14.914  41.063   2.861
77247W        W45465   6.892  43.351  10.199
77248W        W45466   0.850  15.158  13.015
77249W        W45467  34.479  40.776  14.245
77250W        W45468  11.331   5.109   2.216
77251W        W45469  41.279   5.351   0.925
77252W        W45470  40.906   7.795   1.206
77253W        W45471  44.901   5.299   1.270
77254W        W45472  12.314  37.951   4.126
77255W        W45473  28.735  11.626   3.673
77256W        W45474  15.121   8.793  12.040
77257W        W45475  13.362  37.767   0.484
77258W        W45476   1.869  15.524  14.308
77259W        W45477  36.137  11.226  12.727
77260W        W45478  15.763  16.133   1.242
77261W        W45479  24.143  21.630   5.105
77262W        W45480  19.756   1.248   1.293
77263W        W45481  35.470  15.355   0.875
77264W        W45482  36.905   5.684   1.658
77265W        W45483   6.719  25.159   0.655
77266W        W45484   8.190  30.568   3.680
77267W        W45485  41.017  43.879   3.057
77268W        W45486  16.108  20.732   1.363
77269W        W45487  35.037  21.037   3.742
77270W        W45488  40.355  24.433  13.828
77271W        W45489  24.814  40.865   0.919
77272W        W45490   5.935  16.675   4.605
77273W        W45491  19.306  23.779  12.741
77274W        W45492  17.106  18.056   4.553
77275W        W45493  40.415  22.820  11.940
77276W        W45494  33.089  22.910   2.390
77277W        W45495   8.302  15.300  12.464
77278W        W45496  27.186   4.297   0.907
77279W        W45497  37.273  14.963  13.819
77280W        W45498  10.734  11.755   1.280
77281W        W45499  10.280  15.286  12.462
77282W        W45500  17.688  27.125   0.348
77283W        W45501   4.847  34.915  11.840
77284W        W45502   7.263   5.285   4.672
77285W        W45503  42.670  31.569  13.422
77286W        W45504  29.583  36.459  12.805
77287W        W45505  28.229  21.191   2.841
77288W        W45506  25.057  27.076  13.436
77289W        W45507  11.711  11.441  13.501
77290W        W45508   0.744  13.798  13.392
77291W        W45509   4.865  14.588  12.805
77292W        W45510  12.203  38.421   4.834
77293W        W45511  25.564  16.245  14.689
77294W        W45512  39.971  43.801   2.995
77295W        W45513   4.876   8.582   4.607
77296W        W45514  42.542   8.257   3.419
77297W        W45515  30.380  24.997   3.626
77298W        W45516  37.441  39.074   0.510
77299W        W45517  11.132  34.385   0.868
77300W        W45518  35.420  44.805  12.355
77301W        W45519  31.379  30.873  10.715
77302W        W45520   8.383  32.145   4.112
77303W        W45521  44.001   8.357  10.676
77304W        W45522  20.423  26.208  12.759
77305W        W45523  34.922  12.863   2.510
77306W        W45524  25.739  29.967  11.119
77307W        W45525  11.570  29.706  11.291
77308W        W45526  36.142   1.166  11.157
77309W        W45527  37.002  40.491   2.196
77310W        W45528  23.769  15.763   3.805
77311W        W45529  24.874   8.431   3.602
77312W        W45530   0.044  34.568   0.357
77313W        W45531  19.095  43.733  11.541
77314W        W45532  42.861  27.079   1.728
77315W        W45533   2.461  38.651  13.792
77316W        W45534  20.252  18.003   9.984
77317W        W45535  21.723  40.075   0.258
77318W        W45536  28.573  24.509   4.041
77319W        W45537  41.346  27.900   1.718
77320W        W45538  24.249  11.309   4.089
77321W        W45539  28.671  28.988   4.351
77322W        W45540  12.167   7.715   0.825
77323W        W45541  15.239  13.822   5.055
77324W        W45542  13.924  40.839  10.732
77325W        W45543  21.559  15.219  11.557
77326W        W45544   1.743   1.089   4.016
77327W        W45545  23.540  20.623   2.140
77328W        W45546  15.034  38.355   0.483
77329W        W45547  44.299  11.228   4.130
77330W        W45548  18.232  24.337   2.834
77331W        W45549   2.923  15.431   0.347
77332W        W45550   3.973  19.077   2.826
77333W        W45551  13.617  26.710   0.295
77334W        W45552   0.193  38.019   1.737
77335W        W45553  35.426   7.689  10.719
77336W        W45554   1.790  33.391   4.605
77337W        W45555  16.534  20.640  14.347
77338W        W45556  11.694  42.524  11.460
77339W        W45557  31.094   1.744  10.328
77340W        W45558  13.128   3.855   1.431
77341W        W45559  18.681  25.860   0.328
77342W        W45560  11.542   1.980   0.345
77343W        W45561  24.477  17.831   2.386
77344W        W45562  40.810  17.245   1.447
77345W        W45563   7.722   9.790  13.114
77346W        W45564  37.376  35.543   3.782
77347W        W45565  41.496  21.718  13.533
77348W        W45566   0.715   9.846  14.905
77349W        W45567  25.557   2.309  14.521
77350W        W45568  18.811   4.815   0.890
77351W        W45569  37.798  37.912  14.456
77352W        W45570   1.465  31.877  12.987
77353W        W45571  28.888  30.736   2.936
77354W        W45572  11.278   1.956   4.306
77355W        W45573  22.288  15.657  11.011
77356W        W45574  31.561  29.563   1.866
77357W        W45575  35.084  29.452   5.008
77358W        W45576   0.913  15.240   0.943
77359W        W45577  13.894  23.941  13.900
77360W        W45578  39.719  26.547  13.527
77361W        W45579  16.972  30.493   4.013
77362W        W45580  23.419  39.503   3.169
77363W        W45581  23.780  24.998  12.466
77364W        W45582  22.645  31.667   2.292
77365W        W45583  10.294   3.328  12.082
77366W        W45584  36.612  26.634  10.869
77367W        W45585   4.398  39.554  12.781
77368W        W45586  18.567  36.095  13.374
77369W        W45587  28.665  38.855   3.694
77370W        W45588  28.156  27.025  12.520
77371W        W45589  22.469  44.665   2.817
77372W        W45590  24.823  36.427   4.210
77373W        W45591  35.183  24.488  14.922
77374W        W45592   9.149  35.890  11.578
77375W        W45593  25.955  39.485   3.371
77376W        W45594  24.773   0.009  12.211
77377W        W45595  19.649  13.713  12.828
77378W        W45596   6.642  25.738   3.228
77379W        W45597   1.350  39.979   0.221
77380W        W45598  34.611  18.830   2.348
77381W        W45599  38.753  42.895  12.500
77382W        W45600  29.527  14.534  14.423
77383W        W45601   6.138  24.664  13.590
77384W        W45602  29.740  38.807   4.164
77385W        W45603  36.862  16.210  12.491
77386W        W45604  20.527  40.848  12.041
77387W        W45605   9.407  12.047   3.581
77388W        W45606   3.765  11.737   1.720
77389W        W45607  39.431  27.054  10.912
77390W        W45608  36.326  23.745   4.256
77391W        W45609  40.947  42.051   4.464
77392W        W45610  34.091   5.031  10.608
77393W        W45611  16.636   1.858   0.261
77394W        W45612  12.697  29.428  11.532
77395W        W45613  29.719  21.219  11.666
77396W        W45614   9.655   2.465   2.624
77397W        W45615  25.780   1.302   3.668
77398W        W45616   0.809  30.810   4.612
77399W        W45617  16.880   9.183  12.914
77400W        W45618  34.012  28.371  11.481
77401W        W45619  39.517   8.161   3.991
77402W        W45620  31.615  44.479  14.116
77403W        W45621  30.956   0.264  12.042
77404W        W45622  16.157  18.974   4.717
77405W        W45623  35.814  24.630  12.626
77406W        W45624   0.526   8.745  10.798
77407W        W45625  41.381  11.241   1.314
77408W        W45626   4.290  43.122   3.471
77409W        W45627   4.601  43.440   2.689
77410W        W45628  10.389  44.955   2.825
77411W        W45629  21.098   4.439   2.445
77412W        W45630  21.958   2.816   3.445
77413W        W45631   6.205   4.127   0.758
77414W        W45632  36.925  11.640  13.575
77415W        W45633  37.778  23.140   0.353
77416W        W45634   4.415  19.744  13.860
77417W        W45635  28.677  24.418  10.753
77418W        W45636   0.805  16.726  11.427
77419W        W45637  27.073  15.848   1.278
77420W        W45638  29.592   5.996   0.091
77421W        W45639  12.410  11.387  14.897
77422W        W45640  24.019  13.074   1.657
77423W        W45641   8.686  34.880   4.179
77424W        W45642   8.642  26.011   3.209
77425W        W45643  12.886  30.133  13.813
77426W        W45644  13.599  24.050  13.490
77427W        W45645  42.548   7.352  13.823
77428W        W45646  29.160  13.954  12.028
77429W        W45647  19.778  34.259  11.135
77430W        W45648   6.273  27.001  11.546
77431W        W45649  11.759  42.486   4.447
77432W        W45650   2.067  36.449  14.813
77433W        W45651  42.024  14.694   2.279
77434W        W45652  12.546  12.702   2.081
77435W        W45653  29.512   3.151   1.920
77436W        W45654  14.021  26.957  10.904
77437W        W45655   3.952  10.351  14.959
77438W        W45656  40.750  43.989  12.357
77439W        W45657  25.228  35.597  13.289
77440W        W45658  19.075  22.467  11.124
77441W        W45659  30.813  25.521  13.252
77442W        W45660  17.306  22.680  11.126
77443W        W45661  17.830  20.236  14.554
77444W        W45662   2.529   9.274   0.617
77445W        W45663  36.505  26.277   2.133
77446W        W45664   2.852  32.126   2.080
77447W        W45665  25.689  28.642  12.853
77448W        W45666  39.804  27.689   1.261
77449W        W45667  42.475   4.963   2.100
77450W        W45668  15.581  12.786   4.564
77451W        W45669  29.173  44.726  11.584
77452W        W45670  40.019   8.832  13.269
77453W        W45671  17.285   6.322  13.995
77454W        W45672  36.562   0.741  14.052
77455W        W45673  44.717  30.465   1.830
77456W        W45674   8.549  15.971  12.150
77457W        W45675  24.210  11.806   0.693
77458W        W45676  20.017  16.797   4.238
77459W        W45677  29.023  22.460  12.627
77460W        W45678  35.434  16.782  13.420
77461W        W45679   1.118   6.487   1.113
77462W        W45680  44.025  41.305   0.529
77463W        W45681  17.180  29.416  14.819
77464W        W45682  39.475   5.394   5.325
77465W        W45683  29.160  42.423  11.045
77466W        W45684  33.468  25.159  10.239
77467W        W45685   4.966  10.359   0.084
77468W        W45686  23.105  20.048  14.076
77469W        W45687  18.312  24.223   1.918
77470W        W45688   2.327   8.388   2.266
77471W        W45689  38.052  27.915  11.769
77472W        W45690  12.219  40.974   3.688
77473W        W45691  32.608  41.847   0.984
77474W        W45692  26.964  17.745   1.224
77475W        W45693  30.314   3.827   4.315
77476W        W45694   8.290  33.219   3.217
77477W        W45695  13.089  12.633   2.852
77478W        W45696  26.700  30.627  13.792
77479W        W45697  15.127   5.931   4.652
77480W        W45698  10.022   7.304   9.981
77481W        W45699  35.831  25.138  13.437
77482W        W45700   0.527  30.496   2.264
77483W        W45701  34.835  42.771   0.318
77484W        W45702  18.063  35.947   0.410
77485W        W45703  43.211  43.082   5.028
77486W        W45704  43.417   1.720   2.904
77487W        W45705  26.072  12.314  14.532
77488W        W45706  13.804  25.543  14.876
77489W        W45707   0.838  28.959  12.522
77490W        W45708   6.825  22.214   2.785
77491W        W45709   6.600  20.221   3.343
77492W        W45710  23.630  30.516   4.086
77493W        W45711  30.890  34.460   0.326
77494W        W45712  28.119   8.424  11.110
77495W        W45713   8.854  41.487   4.211
77496W        W45714   7.752  39.324  11.007
77497W        W45715  26.819  17.325   0.471
77498W        W45716  18.048  26.227  12.632
77499W        W45717  30.972  32.303  13.467
77500W        W45718  28.739   0.499   4.015
77501W        W45719  28.935   7.550  12.543
77502W        W45720  36.473  20.629  13.834
77503W        W45721   9.701   6.268  11.176
77504W        W45722  39.983  22.624  12.656
77505W        W45723   8.680  31.070  13.086
77506W        W45724   7.443  31.680  11.682
77507W        W45725   1.913   3.253  10.424
77508W        W45726  10.880  15.591  12.843
77509W        W45727  18.141  40.316   3.292
77510W        W45728  41.834   8.775  12.041
77511W        W45729  42.729  23.724   0.751
77512W        W45730  24.603   3.191   4.214
77513W        W45731   8.387   7.218   2.278
77514W        W45732  15.645   8.449  10.278
77515W        W45733  26.667  11.183   3.747
77516W        W45734  31.400  15.690   1.394
77517W        W45735   8.278   5.903  11.905
77518W        W45736   0.702  20.238   2.684
77519W        W45737  16.136  19.635  12.940
77520W        W45738   3.172   5.685  14.426
77521W        W45739  23.473  35.886   1.612
77522W        W45740  33.957  29.845   2.676
77523W        W45741  34.973  27.012   4.613
77524W        W45742  20.377  33.738   0.375
77525W        W45743  40.562  36.054   1.933
77526W        W45744  11.651   3.862   0.434
77527W        W45745  28.221  21.572   1.710
77528W        W45746   9.284   3.801   4.620
77529W        W45747  42.663  15.320  10.708
77530W        W45748  10.664  16.039  12.681
77531W        W45749  43.864  30.550   1.555
77532W        W45750   5.830   3.894  13.470
77533W        W45751  37.019  33.583  10.689
77534W        W45752  37.038   9.364   2.347
77535W        W45753  11.363  34.905  14.446
77536W        W45754  14.644  14.341   1.473
77537W        W45755   5.127  23.079   3.728
77538W        W45756  30.730   9.385  12.002
77539W        W45757  28.667  26.979  11.571
77540W        W45758   1.624  18.801   1.274
77541W        W45759  27.493  25.604  13.502
77542W        W45760  35.970  17.837   2.829
77543W        W45761  40.559   1.394  12.945
77544W        W45762  38.876  42.441   2.110
77545W        W45763  40.750  36.584   2.710
77546W        W45764  41.930  40.134   1.860
77547W        W45765   4.237  14.533   0.229
77548W        W45766  44.244  43.734   3.725
77549W        W45767  20.652  31.258  10.731
77550W        W45768  43.688  24.705  11.051
77551W        W45769  16.314  34.034  12.984
77552W        W45770   5.868  12.300   3.151
77553W        W45771   1.219  10.625  14.742
77554W        W45772  43.418  34.986  13.546
77555W        W45773  18.578  43.981   3.133
77556W        W45774  17.760  13.915  14.315
77557W        W45775  38.859   5.334  12.128
77558W        W45776  41.926  20.677   4.848
77559W        W45777  42.955   0.047   4.680
77560W        W45778  16.104  40.241   0.139
77561W        W45779  11.758  15.163  12.305
77562W        W45780  32.037  17.694   4.644
77563W        W45781  40.360  27.178   0.001
77564W        W45782  32.419  31.027   1.322
77565W        W45783  32.603  43.936   3.248
77566W        W45784  32.898  11.774   0.038
77567W        W45785   6.719   2.455  12.954
77568W        W45786  20.330  29.090   2.475
77569W        W45787  37.978  38.442   1.721
77570W        W45788  21.071  33.007  12.515
77571W        W45789  24.469   3.741   2.257
77572W        W45790  40.802  41.476   2.147
77573W        W45791  40.962   7.173  12.893
77574W        W45792  14.749   2.593   5.527
77575W        W45793  11.143  29.931  11.109
77576W        W45794   2.723  13.082   3.682
77577W        W45795  18.628   6.760   1.393
77578W        W45796  24.546  31.332  14.849
77579W        W45797   6.749  24.952  12.176
77580W        W45798   0.029  27.012   0.220
77581W        W45799  43.427  32.240   0.660
77582W        W45800  23.455  43.143   3.306
77583W        W45801  32.128  26.509  10.495
77584W        W45802  35.955   6.122  11.560
77585W        W45803   6.431  27.594  12.319
77586W        W45804  40.968   2.869  13.420
77587W        W45805  23.232  32.408  12.491
77588W        W45806  19.156  21.017   3.581
77589W        W45807  39.499  21.751  14.913
77590W        W45808  42.644  35.788   2.261
77591W        W45809  16.144  17.974   1.229
77592W        W45810  26.249   3.366   0.352
77593W        W45811  38.426  33.135   1.196
77594W        W45812   8.775  36.108   2.180
77595W        W45813  15.562  19.432   3.943
77596W        W45814   0.444  22.533   1.525
77597W        W45815  36.984   0.537   2.927
77598W        W45816   9.326  41.686   0.435
77599W        W45817  15.880  41.054   2.778
77600W        W45818  39.421  44.300  11.975
77601W        W45819  23.799   2.108   4.738
77602W        W45820  30.747  12.689  14.757
77603W        W45821  27.647  31.836  11.835
77604W        W45822  36.384  23.188   1.013
77605W        W45823   0.711   3.415   3.273
77606W        W45824  37.244   4.453   0.362
77607W        W45825  44.711  40.071  14.086
77608W        W45826  23.550   1.383   4.036
77609W        W45827   1.656  17.913  12.049
77610W        W45828  20.331   9.902  12.116
77611W        W45829  33.386  25.863   3.112
77612W        W45830  17.592  32.044   0.880
77613W        W45831  40.331   1.956   1.368
77614W        W45832  28.645  38.651  12.029
77615W        W45833  23.266  44.984   1.230
77616W        W45834  19.248   2.827  11.886
77617W        W45835  33.516  39.140   5.153
77618W        W45836  38.424  44.446   1.966
77619W        W45837  25.010   8.291   0.769
77620W        W45838  22.722  22.729  12.981
77621W        W45839  36.810  28.505  14.536
77622W        W45840  34.069   1.718   2.279
77623W        W45841  22.958  20.123   3.960
77624W        W45842  13.861   4.282   4.380
77625W        W45843  13.738  24.384  11.679
77626W        W45844  37.334  41.460  12.044
77627W        W45845  37.853  20.455  12.668
77628W        W45846  32.910   9.140   3.572
77629W        W45847  36.320   3.686  14.794
77630W        W45848  36.503  37.900   3.885
77631W        W45849  27.449  34.731   1.734
77632W        W45850  15.486  37.557   2.178
77633W        W45851  26.122  31.963   0.715
77634W        W45852  34.970   8.724   4.108
77635W        W45853  22.579  30.336  11.988
77636W        W45854   8.281  14.153   0.616
77637W        W45855  30.348  40.937  14.132
77638W        W45856  34.602  24.206  10.516
77639W        W45857   7.706  42.876   0.224
77640W        W45858  42.168   3.330   0.321
77641W        W45859  41.455  11.321   4.393
77642W        W45860  37.117  30.589   2.557
77643W        W45861  18.788  11.879  12.889
77644W        W45862  15.565  42.415   2.340
77645W        W45863  29.946  11.614   1.380
77646W        W45864   8.897  15.532   4.664
77647W        W45865  44.534  26.690  11.422
77648W        W45866  24.524  18.204  10.434
77649W        W45867  27.690  23.908   4.125
77650W        W45868  24.180  36.477  12.959
77651W        W45869  18.804  13.745  12.830
77652W        W45870   5.404  36.142   4.716
77653W        W45871  40.247  36.775   3.523
77654W        W45872  29.555  30.940  14.494
77655W        W45873  43.984  27.566   0.891
77656W        W45874  18.102  27.538   1.564
77657W        W45875  14.755  24.946   4.583
77658W        W45876  34.217  11.698  12.013
77659W        W45877  24.237  41.045  11.197
77660W        W45878  25.245  15.458  12.408
77661W        W45879  23.985  35.425  13.408
77662W        W45880  34.159  11.500  11.253
77663W        W45881   7.679  27.126  13.323
77664W        W45882  20.195  26.320  14.358
77665W        W45883  31.394  40.318   0.743
77666W        W45884  40.602  23.771   4.420
77667W        W45885   6.913   5.667  11.688
77668W        W45886  13.349  21.170   0.230
77669W        W45887  12.282  33.867   1.715
77670W        W45888  37.788  28.624   1.182
77671W        W45889  41.039  30.499   3.693
77672W        W45890  20.851   2.501  12.103
77673W        W45891  36.771   0.101  10.643
77674W        W45892  33.472  38.487   4.580
77675W        W45893   7.785  22.581   2.804
77676W        W45894   3.311  41.057   4.588
77677W        W45895  35.658  24.785   0.338
77678W        W45896  20.257  25.064  11.622
77679W        W45897  35.913  31.668   4.654
77680W        W45898  11.330  32.901   2.176
77681W        W45899   7.205  29.049  12.678
77682W        W45900  32.315   9.117   2.194
77683W        W45901  31.236  13.254  13.077
77684W        W45902  19.952  18.903  10.717
77685W        W45903  16.313  39.778   2.840
77686W        W45904  13.242  37.682  14.281
77687W        W45905  40.220  35.001  14.117
77688W        W45906  31.100   3.249   2.262
77689W        W45907  13.565  17.142   4.328
77690W        W45908  44.982  16.303   0.006
77691W        W45909  19.788  41.541   2.783
77692W        W45910  37.376  24.584   2.338
77693W        W45911   5.146   5.281   1.807
77694W        W45912  42.622  35.287   2.416
77695W        W45913   7.890  12.652   4.583
77696W        W45914  34.424  27.124   1.644
77697W        W45915   9.720  31.508   1.431
77698W        W45916   1.652  35.904  11.845
77699W        W45917   0.229  21.807  11.063
77700W        W45918  22.174  26.978   4.590
77701W        W45919  22.207   5.852   2.236
77702W        W45920   8.343   5.652   0.531
77703W        W45921   2.525  36.382   2.782
77704W        W45922  40.844  19.022  12.097
77705W        W45923  32.344  39.808   4.107
77706W        W45924  22.299   3.054   4.211
77707W        W45925  14.782  32.941  12.172
77708W        W45926  30.024  21.255  12.144
77709W        W45927  37.004   4.674  12.117
77710W        W45928  11.457  13.237   3.640
77711W        W45929  10.321  16.617  12.924
77712W        W45930  18.126   8.442   4.197
77713W        W45931  43.727   9.328   2.419
77714W        W45932  33.172   3.406  10.705
77715W        W45933  11.545  36.377  13.364
77716W        W45934   9.858  37.370   0.929
77717W        W45935  42.640   4.351   2.019
77718W        W45936   0.134  26.517  14.346
77719W        W45937  14.830  21.180   1.194
77720W        W45938   7.393  14.173   3.630
77721W        W45939  34.099  31.051  12.120
77722W        W45940  34.871  30.072   4.910
77723W        W45941  44.592  32.144   4.557
77724W        W45942  13.560   8.775  12.811
77725W        W45943  22.015  30.131   0.286
77726W        W45944  24.401  33.494   3.055
77727W        W45945  25.149  28.433  11.185
77728W        W45946  32.355  40.622  14.389
77729W        W45947  27.946   5.397  12.259
77730W        W45948   8.239  31.826   5.263
77731W        W45949  24.786  34.505   2.457
77732W        W45950  29.908  19.147   3.891
77733W        W45951  10.325  20.101  13.317
77734W        W45952  41.163  12.222  14.405
77735W        W45953  36.584   7.525   3.664
77736W        W45954  40.353  41.446   4.509
77737W        W45955   3.406  11.553   2.715
77738W        W45956  22.809  16.082   3.187
77739W        W45957  21.498  14.039   2.234
77740W        W45958  15.265  42.671  13.020
77741W        W45959   7.947   1.307  10.394
77742W        W45960  24.684  41.275  14.781
77743W        W45961  37.076  10.168  11.701
77744W        W45962  24.553  18.678  10.686
77745W        W45963  14.377  15.336   1.919
77746W        W45964  26.293  21.426   4.057
77747W        W45965  38.018  32.761  10.684
77748W        W45966   7.776  32.789   3.884
77749W        W45967  39.493  25.093   1.867
77750W        W45968  31.132  15.653  11.848
77751W        W45969  43.061  41.248  14.719
77752W        W45970   0.964  32.902  12.325
77753W        W45971  39.235  30.394  12.478
77754W        W45972  12.811  19.024  12.439
77755W        W45973  12.611  11.071  10.717
77756W        W45974  44.348  15.734  14.568
77757W        W45975   1.111   6.709  11.873
77758W        W45976  31.506  20.319  12.941
77759W        W45977  13.167  24.962   1.733
77760W        W45978  32.347  38.639  12.986
77761W        W45979  36.129  10.308  13.144
77762W        W45980  34.452   5.291   1.842
77763W        W45981  18.795  12.134  12.430
77764W        W45982   4.428   4.475   2.621
77765W        W45983   0.939  23.198  14.457
77766W        W45984   1.216  27.100   2.980
77767W        W45985  31.071   3.851  13.983
77768W        W45986  30.036  16.082   0.308
77769W        W45987  17.222  28.695   1.585
77770W        W45988   7.113  44.902   1.300
77771W        W45989  43.863  10.149   4.909
77772W        W45990  34.337   2.357   3.355
77773W        W45991  36.424  42.559  12.100
77774W        W45992  31.059  38.069  12.770
77775W        W45993  42.493  38.907   4.370
77776W        W45994   2.724   0.976   2.530
77777W        W45995  15.827  17.935   2.399
77778W        W45996  27.527  40.278  14.282
77779W        W45997  40.300   5.359   1.761
77780W        W45998  12.665  39.905  11.956
77781W        W45999  15.725   7.641  10.540
77782W        W46000  39.476  14.219   4.086
77783W        W46001   7.314  42.733   0.981
77784W        W46002  25.002  21.153  13.395
77785W        W46003   8.555   7.842  12.422
77786W        W46004  25.542   5.152   0.871
77787W        W46005  27.184  20.635   4.617
77788W        W46006  39.839  44.017   0.961
77789W        W46007  27.591  12.154   4.738
77790W        W46008  34.593  23.166  13.957
77791W        W46009  32.254  42.203  13.499
77792W        W46010  20.984  30.601   2.907
77793W        W46011   4.075  14.676   1.561
77794W        W46012   4.323  29.266  11.186
77795W        W46013   5.954   3.966   1.840
77796W        W46014  13.057  37.450  13.346
77797W        W46015   1.191  21.658  13.128
77798W        W46016  29.607  38.401   1.225
77799W        W46017   1.539  40.954  13.035
77800W        W46018   5.595  44.872   4.954
77801W        W46019  28.417  36.621   3.212
77802W        W46020   4.654  32.640  10.499
77803W        W46021   4.814   7.067  11.548
77804W        W46022  30.414  33.863  12.943
77805W        W46023  44.122  12.072  13.071
77806W        W46024  22.181  21.505  13.018
77807W        W46025  40.259  38.819   0.190
77808W        W46026  25.031  14.154  14.422
77809W        W46027  16.872  16.839  11.954
77810W        W46028   5.319  35.081   2.795
77811W        W46029  14.283  16.351  11.298
77812W        W46030  18.184  32.224  14.504
77813W        W46031  18.846  29.074  12.701
77814W        W46032  13.219  35.586   3.900
77815W        W46033  33.728   6.744   3.828
77816W        W46034   8.865  29.671  13.221
77817W        W46035  14.416  43.740   1.072
77818W        W46036  29.374   6.462   2.853
77819W        W46037  11.672  18.249  13.411
77820W        W46038  28.468  38.094   4.249
77821W        W46039  39.435   7.370   1.838
77822W        W46040  32.072  44.323  12.725
77823W        W46041  43.372  34.188   2.767
77824W        W46042   4.399   2.837  10.893
77825W        W46043  20.235  33.041   2.365
77826W        W46044   4.580  40.390  11.241
77827W        W46045  33.706   9.220   2.073
77828W        W46046  30.766  20.707   1.156
77829W        W46047   7.787  18.922  14.517
77830W        W46048  32.616  20.568   1.301
77831W        W46049  36.001  37.033  13.508
77832W        W46050  19.914   1.516  14.979
77833W        W46051   1.877  13.514  11.009
77834W        W46052  10.976  43.826  14.771
77835W        W46053  24.592  42.063  14.004
77836W        W46054  31.006  14.061   1.450
77837W        W46055  33.853  21.516   3.754
77838W        W46056  37.465  13.467   4.558
77839W        W46057  14.292  41.801  11.201
77840W        W46058  41.831   9.928   0.300
77841W        W46059   6.089  12.238  12.847
77842W        W46060   5.503  11.140  11.016
77843W        W46061  33.449  14.643  13.822
77844W        W46062  35.343  39.777   0.271
77845W        W46063  41.955  20.616   3.886
77846W        W46064  20.222  10.137  14.034
77847W        W46065  12.371   3.288   0.380
77848W        W46066   9.230  22.064   3.686
77849W        W46067  21.135  38.432   3.574
77850W        W46068  28.588  36.477   1.844
77851W        W46069   9.816  15.057  11.669
77852W        W46070   4.168   2.666   1.394
77853W        W46071  38.376  12.229  12.011
77854W        W46072  27.283  26.595  10.445
77855W        W46073   3.705  31.516  14.931
77856W        W46074  24.106  24.312   3.254
77857W        W46075  42.507   3.184  13.996
77858W        W46076  33.276  22.385  11.172
77859W        W46077   0.567   0.793  14.692
77860W        W46078   7.122  18.994  12.683
77861W        W46079  32.003  35.171   3.279
77862W        W46080   3.360  36.326   2.436
77863W        W46081  28.225  16.334   9.801
77864W        W46082  30.406   3.214  14.232
77865W        W46083  20.045  31.435   3.644
77866W        W46084  29.924  35.380  11.898
77867W        W46085  11.842  11.316  12.100
77868W        W46086  15.483   4.218   2.265
77869W        W46087  36.153  25.626   0.728
77870W        W46088  36.146   5.317   4.957
77871W        W46089  18.101   1.459  10.589
77872W        W46090  44.251  28.735  12.476
77873W        W46091  26.566   9.852  13.826
77874W        W46092  30.046   0.977   1.388
77875W        W46093  44.276  18.382  10.720
77876W        W46094  29.174  12.180   4.535
77877W        W46095  19.102  13.142   0.397
77878W        W46096  39.598  40.504  11.518
77879W        W46097   8.623  18.526   4.544
77880W        W46098   3.807  26.163  13.975
77881W        W46099   5.033  30.913  11.136
77882W        W46100  18.545   4.140  11.591
77883W        W46101  39.859  14.825   3.756
77884W        W46102   7.781  20.287  13.428
77885W        W46103  44.477   4.006  13.342
77886W        W46104  18.129  18.364   1.141
77887W        W46105  34.477   0.779  13.038
77888W        W46106   5.386  42.530   1.382
77889W        W46107   0.382  31.552  11.649
77890W        W46108  12.909  10.198  13.410
77891W        W46109  11.319  11.776  13.352
77892W        W46110  24.579  35.556  13.985
77893W        W46111  27.098   3.708  12.611
77894W        W46112  17.103   0.015  14.828
77895W        W46113  40.511  29.613  10.721
77896W        W46114  38.038  40.473   4.552
77897W        W46115  15.195  16.613   0.769
77898W        W46116   4.302  18.704  14.718
77899W        W46117  24.287  33.048   2.809
77900W        W46118  30.685  25.953  14.291
77901W        W46119  12.142  11.876   2.285
77902W        W46120  30.310  14.246   1.441
77903W        W46121   9.746   0.200   2.177
77904W        W46122   8.601  28.602  11.411
77905W        W46123  36.660   5.268   4.990
77906W        W46124   9.293   5.207   4.695
77907W        W46125  26.122  39.949  13.890
77908W        W46126  23.542   5.676  12.993
77909W        W46127  31.642  41.008   2.848
77910W        W46128  19.132  30.970   2.785
77911W        W46129  18.138   7.191   1.870
77912W        W46130  37.115  19.049  11.607
77913W        W46131   6.425  20.164   0.913
77914W        W46132  37.479  35.544   2.372
77915W        W46133  44.681   6.762   0.964
77916W        W46134  25.992  34.384   3.665
77917W        W46135  24.102  14.743   2.124
77918W        W46136  29.310  29.507  11.865
77919W        W46137  14.036  38.494  11.734
77920W        W46138   7.158  20.091  11.027
77921W        W46139  32.052  32.876  12.478
77922W        W46140  40.108  37.849  11.580
77923W        W46141   3.435  12.289  14.879
77924W        W46142  38.947  35.179  13.012
77925W        W46143  26.700  15.310   2.426
77926W        W46144  13.062  27.062   4.889
77927W        W46145  33.838  38.989   2.096
77928W        W46146  38.269  35.553   1.784
77929W        W46147  44.614  31.433  12.888
77930W        W46148  18.548  25.174   1.866
77931W        W46149  25.866  20.765  11.600
77932W        W46150  19.523  29.141  10.640
77933W        W46151  26.011  37.380   1.640
77934W        W46152  26.708  33.966  12.718
77935W        W46153  39.197  39.313  11.775
77936W        W46154  27.470   5.375  12.054
77937W        W46155   7.924   8.141   3.302
77938W        W46156  26.434  41.726   4.079
77939W        W46157   9.378  21.637   0.326
77940W        W46158  39.077  15.714   0.515
77941W        W46159   3.777  28.037   2.157
77942W        W46160  27.045  41.514  12.501
77943W        W46161   9.420  40.918  14.350
77944W        W46162  42.219  21.753  13.943
77945W        W46163  30.415  33.650   0.267
77946W        W46164   9.945  30.648  10.900
77947W        W46165   9.712  32.885  12.764
77948W        W46166  21.638  18.245   0.753
77949W        W46167  17.940   0.177  14.538
77950W        W46168  31.367  43.050  13.415
77951W        W46169  13.747  10.940   0.910
77952W        W46170  44.316  38.753   2.888
77953W        W46171  42.515  36.336   1.452
77954W        W46172  42.038  30.020  10.517
77955W        W46173   8.065  41.051   4.050
77956W        W46174   7.839  27.620  13.490
77957W        W46175  15.154  14.671   5.435
77958W        W46176   8.358  35.386   2.144
77959W        W46177  19.437  10.108   1.701
77960W        W46178   0.859  28.172  12.059
77961W        W46179  14.826   0.787   4.964
77962W        W46180  35.890   2.863   1.298
77963W        W46181  14.700   0.217   3.528
77964W        W46182   9.129  11.400  11.133
77965W        W46183  19.039  34.146  14.093
77966W        W46184  33.365  30.959   3.156
77967W        W46185  14.742  39.293  12.669
77968W        W46186  13.028  11.035   0.936
77969W        W46187  12.864  36.428   0.235
77970W        W46188   7.455  36.536  10.653
77971W        W46189  37.328  33.570   2.152
77972W        W46190  17.298  32.064  11.974
77973W        W46191  22.639   8.285   3.182
77974W        W46192  13.868  32.049  14.789
77975W        W46193  31.585   6.656   0.401
77976W        W46194  18.076   2.002  10.533
77977W        W46195  28.548  39.839  12.500
77978W        W46196  31.519  41.358   0.812
77979W        W46197  41.713  39.383   4.575
77980W        W46198  14.622  20.070  14.888
77981W        W46199   4.154  13.148  11.688
77982W        W46200   3.257   6.940  10.964
77983W        W46201  36.936  14.248  12.526
77984W        W46202  44.115  41.840   4.645
77985W        W46203  20.005  30.965   4.597
77986W        W46204  13.406  12.520   2.424
77987W        W46205  32.575   0.538   1.272
77988W        W46206   3.913  43.171  14.728
77989W        W46207   6.252  19.779   2.399
77990W        W46208  10.796   0.673   4.514
77991W        W46209  26.586  41.767   3.115
77992W        W46210  23.999  27.870  13.011
77993W        W46211  11.801   7.761   2.001
77994W        W46212  16.296   9.327  14.726
77995W        W46213  41.421  15.763   0.929
77996W        W46214   9.046  21.022   4.257
77997W        W46215  32.380  28.727   2.558
77998W        W46216  39.805   9.732  10.753
77999W        W46217   4.343  28.112  14.985
78000W        W46218   9.110  40.451  14.616
78001W        W46219   6.710  10.854   4.133
78002W        W46220   8.849   1.857  14.060
78003W        W46221  29.270  12.679  10.913
78004W        W46222   3.366   9.259  13.986
78005W        W46223  43.572  19.790   0.380
78006W        W46224  43.344  14.837   1.341
78007W        W46225  15.233   9.783  14.319
78008W        W46226  33.069  21.552  12.603
78009W        W46227  23.983   8.277  14.923
78010W        W46228  31.178  39.813   2.999
78011W        W46229  17.176  41.715  13.458
78012W        W46230  37.265   1.731   3.257
78013W        W46231   9.194  11.695   0.519
78014W        W46232  26.999   2.420   0.731
78015W        W46233  18.249  16.571  12.546
78016W        W46234   9.369   9.397   2.451
78017W        W46235  26.975  11.789   0.907
78018W        W46236   9.402  37.085   0.697
78019W        W46237  40.123  21.118  14.386
78020W        W46238  44.355  11.777   2.239
78021W        W46239  27.205  39.761  12.425
78022W        W46240  20.077  11.380   0.063
78023W        W46241  39.122  33.455   0.497
78024W        W46242  39.441  10.495   3.564
78025W        W46243  18.802  17.774  14.126
78026W        W46244   9.288   6.830   2.628
78027W        W46245  37.372  32.368   4.942
78028W        W46246  33.248  19.053   2.457
78029W        W46247  11.328  13.256  12.023
78030W        W46248  30.618   5.776   0.807
78031W        W46249   2.991  42.430   4.607
78032W        W46250  11.259  13.370  12.910
78033W        W46251  25.670  18.082   4.447
78034W        W46252  26.029  10.178   1.015
78035W        W46253  23.178   1.888   0.497
78036W        W46254  25.383  34.224  13.450
78037W        W46255  31.675  36.419   3.692
78038W        W46256   2.365  39.206  11.611
78039W        W46257  30.757   3.013  11.602
78040W        W46258   0.052  42.375  13.315
78041W        W46259  13.211  17.301   1.496
78042W        W46260  43.354  23.296  13.986
78043W        W46261   6.744   6.276   0.319
78044W        W46262  33.885   8.658   2.742
78045W        W46263  17.672   0.319  14.974
78046W        W46264  12.219  18.584  13.825
78047W        W46265  14.804  43.207  10.694
78048W        W46266   0.631  38.600  10.260
78049W        W46267  30.499  11.490  11.124
78050W        W46268   7.373  21.164   0.275
78051W        W46269  20.776  27.557   1.451
78052W        W46270  11.253  15.945   1.193
78053W        W46271   6.800  16.391   0.887
78054W        W46272  37.309   3.776  13.819
78055W        W46273  35.442  36.262   2.386
78056W        W46274  32.847  30.284   4.460
78057W        W46275   7.793   2.603  12.956
78058W        W46276  31.731  13.518  14.629
78059W        W46277  21.081  22.800  14.088
78060W        W46278   8.464  29.877  11.452
78061W        W46279   8.144  43.197  10.421
78062W        W46280  21.660  28.524  12.032
78063W        W46281  18.910   8.688   2.266
78064W        W46282   5.889  44.529  11.797
78065W        W46283   0.215  20.067   1.288
78066W        W46284  20.671  23.600  11.637
78067W        W46285  40.793  23.995  14.478
78068W        W46286  31.067  39.479  13.907
78069W        W46287  39.801  35.009  14.450
78070W        W46288  12.098   9.552  13.381
78071W        W46289  26.045  18.356   4.672
78072W        W46290  15.963   0.741   3.021
78073W        W46291   5.708  11.610   3.309
78074W        W46292  35.386  11.620   1.745
78075W        W46293  15.263  36.081  13.367
78076W        W46294  32.022  28.388   1.728
78077W        W46295  13.453  15.698  10.527
78078W        W46296  10.265  29.973   3.736
78079W        W46297  34.706   2.657   0.505
78080W        W46298  14.758  11.092  12.562
78081W        W46299  33.485   2.601   1.098
78082W        W46300  10.954  10.650  13.950
78083W        W46301   9.439  25.585  11.487
78084W        W46302  16.122  15.123   4.235
78085W        W46303   6.236  31.019   2.457
78086W        W46304  31.391   1.999   0.998
78087W        W46305  14.309   3.475  11.055
78088W        W46306  29.139  22.706  10.154
78089W        W46307   9.079   3.432  12.472
78090W        W46308   2.765  39.553   4.640
78091W        W46309   0.769   0.621   2.742
78092W        W46310  23.447  27.634  14.124
78093W        W46311  18.837  36.465   4.075
78094W        W46312  26.404  43.862   2.772
78095W        W46313   8.193  15.985  10.219
78096W        W46314  11.129  41.363   0.912
78097W        W46315  18.204  41.996  12.092
78098W        W46316   4.731  23.179   1.896
78099W        W46317  34.961  25.927   1.322
78100W        W46318  30.735  31.126   4.340
78101W        W46319  44.060  32.127   4.611
78102W        W46320  42.073  35.526  14.006
78103W        W46321   9.681  24.096   2.378
78104W        W46322  33.396   2.662   4.545
78105W        W46323   0.884  27.014   2.119
78106W        W46324  27.815  34.950  13.308
78107W        W46325  32.491   2.589  14.850
78108W        W46326  11.807  39.876   2.385
78109W        W46327   5.657  42.882  14.063
78110W        W46328   8.153  19.645  13.911
78111W        W46329  19.234  30.718   0.572
78112W        W46330  18.617  13.983   0.416
78113W        W46331  33.171  25.932   0.487
78114W        W46332  31.108  40.793   0.340
78115W        W46333  16.086  31.418  10.628
78116W        W46334  19.668  30.254  12.675
78117W        W46335  13.712  27.232  12.178
78118W        W46336  24.593  28.320   1.408
78119W        W46337  41.974  16.050   0.900
78120W        W46338  32.055  43.098   0.384
78121W        W46339  13.099  39.549   4.651
78122W        W46340  40.573  41.205  10.538
78123W        W46341  16.245   6.650  14.894
78124W        W46342   6.481  21.203  11.636
78125W        W46343   6.117  13.343   3.730
78126W        W46344  32.192  44.448   0.534
78127W        W46345  11.616  35.068  14.889
78128W        W46346   3.429  37.733   3.295
78129W        W46347   2.196  14.006   3.158
78130W        W46348  15.849  15.205   3.212
78131W        W46349  27.366  27.209  12.088
78132W        W46350  12.563   3.258  13.895
78133W        W46351  41.872  34.566  12.597
78134W        W46352   9.644  30.689  10.129
78135W        W46353  17.040  33.854  13.494
78136W        W46354  42.348   6.058  10.822
78137W        W46355  44.049  31.502  14.024
78138W        W46356  31.194   2.874  14.711
78139W        W46357  31.719   4.666   2.416
78140W        W46358  20.110  25.552   1.435
78141W        W46359  36.816  36.585   4.830
78142W        W46360  32.192  13.632   1.733
78143W        W46361  39.866   9.475  12.451
78144W        W46362   9.860  39.933  11.395
78145W        W46363  41.035  41.138  10.797
78146W        W46364  13.268  19.070  14.964
78147W        W46365  37.770  36.294  13.045
78148W        W46366  43.430   4.944  13.080
78149W        W46367   4.827   7.590  10.672
78150W        W46368  23.050   8.048   0.248
78151W        W46369  26.016  35.614   4.271
78152W        W46370   2.408  27.991   2.471
78153W        W46371  21.591  37.590  11.746
78154W        W46372  42.549  37.700  10.353
78155W        W46373  11.864  10.872  14.832
78156W        W46374  29.429  41.228   2.745
78157W        W46375  15.924  26.538   0.373
78158W        W46376   3.079  15.771   1.369
78159W        W46377  27.163  35.333   0.364
78160W        W46378  31.389   4.591  10.361
78161W        W46379   0.587  12.089   1.841
78162W        W46380  39.845  44.551   2.291
78163W        W46381  23.582  22.756  11.168
78164W        W46382  24.499  15.100  12.678
78165W        W46383  39.953  21.583  14.303
78166W        W46384  24.947  39.913  14.978
78167W        W46385  34.943  44.230  13.355
78168W        W46386  37.381   5.072  12.529
78169W        W46387  30.617   6.978   4.298
78170W        W46388  38.378  28.523  13.024
78171W        W46389  44.320  22.615   1.712
78172W        W46390  40.859  24.040  10.893
78173W        W46391  30.231   0.845  12.886
78174W        W46392  28.600  37.852   0.283
78175W        W46393  27.590   4.962   3.325
78176W        W46394  19.651   4.182  11.459
78177W        W46395  24.068  10.445   3.202
78178W        W46396  18.235  31.874   4.489
78179W        W46397   6.126  43.146   4.930
78180W        W46398  38.449  17.003  12.608
78181W        W46399  18.628   4.708  11.541
78182W        W46400   5.990   3.045   1.894
78183W        W46401  18.815   2.382   0.846
78184W        W46402  29.445  41.838   2.207
78185W        W46403  18.755  12.265   3.555
78186W        W46404  36.110  13.076  14.900
78187W        W46405  33.286  40.695  14.644
78188W        W46406  28.128  34.446   0.702
78189W        W46407  43.501  10.721   3.893
78190W        W46408  44.044   8.091  12.773
78191W        W46409   5.321   3.952  12.241
78192W        W46410  27.529  14.208   9.741
78193W        W46411  39.918  18.829  14.081
78194W        W46412   0.738  33.302  10.079
78195W        W46413   8.663  37.627   2.416
78196W        W46414  38.544  36.818  11.546
78197W        W46415  42.427  41.845  14.821
78198W        W46416  21.656  15.769   0.415
78199W        W46417  36.888  13.868   3.872
78200W        W46418  12.068  10.333  14.050
78201W        W46419  34.822  15.384  14.420
78202W        W46420   1.525   1.710   4.154
78203W        W46421   8.348  16.765  12.993
78204W        W46422   6.792  29.554   2.206
78205W        W46423  11.178  33.588  13.055
78206W        W46424  21.860  27.734   4.829
78207W        W46425   3.077  35.886   2.283
78208W        W46426  13.125  20.747   2.682
78209W        W46427  26.424  19.490  12.121
78210W        W46428  30.128  12.078   3.696
78211W        W46429  26.250   3.839   0.585
78212W        W46430  16.388   0.370   2.277
78213W        W46431  35.394  40.364  14.587
78214W        W46432  44.873  20.052   4.560
78215W        W46433   6.305  35.454  13.319
78216W        W46434  33.370  17.734  14.932
78217W        W46435  28.638   1.462  10.539
78218W        W46436  36.966  18.084  14.746
78219W        W46437   6.648  28.130   2.320
78220W        W46438   7.320  24.620   4.036
78221W        W46439  20.745   5.663  14.044
78222W        W46440   5.446  23.808   0.899
78223W        W46441  33.536   7.170   2.265
78224W        W46442  24.844   9.750  12.865
78225W        W46443  38.553  26.684   3.766
78226W        W46444   5.301  10.858   1.314
78227W        W46445  14.780   2.718  11.101
78228W        W46446   8.878  10.269   0.339
78229W        W46447  29.941  18.974   2.150
78230W        W46448   3.921  17.150   0.601
78231W        W46449  32.882  39.535   1.190
78232W        W46450   6.783  41.389   3.275
78233W        W46451  44.803  41.260   0.528
78234W        W46452   5.443  17.764   0.760
78235W        W46453   4.662  17.804  10.704
78236W        W46454  24.388  41.912   3.584
78237W        W46455  26.062   9.179  13.771
78238W        W46456  38.592  10.355  13.059
78239W        W46457   3.473  37.284   0.251
78240W        W46458  40.400  43.963  13.452
78241W        W46459   1.709  20.947  12.857
78242W        W46460  20.168  11.870   4.440
78243W        W46461  12.465  17.061  12.573
78244W        W46462  10.660  41.407   0.251
78245W        W46463  35.550  38.976   4.383
78246W        W46464  30.486   2.190   0.453
78247W        W46465  38.564  25.542   3.262
78248W        W46466   7.860  25.402   3.874
78249W        W46467  42.914  24.736   4.576
78250W        W46468  24.941  25.640   4.479
78251W        W46469  44.073  16.242   3.768
78252W        W46470  44.246  21.702   0.927
78253W        W46471   8.849   1.361   4.783
78254W        W46472  42.006  23.608  14.342
78255W        W46473  29.929  43.535   0.771
78256W        W46474   7.192  34.082   3.661
78257W        W46475  12.792  43.230  13.022
78258W        W46476  27.164  37.861   2.235
78259W        W46477  41.086   9.464  12.707
78260W        W46478   1.508  39.445   0.775
78261W        W46479  25.039  18.472   3.340
78262W        W46480  34.215  21.980  11.027
78263W        W46481  34.957   0.424   4.545
78264W        W46482  39.816  21.721  13.829
78265W        W46483  21.588  44.682   0.910
78266W        W46484   9.742  12.249  11.921
78267W        W46485  44.318  19.923   0.722
78268W        W46486  28.440  28.221  14.732
78269W        W46487   2.808   2.947   4.490
78270W        W46488  23.670  44.923   1.556
78271W        W46489   4.822  14.341  13.998
78272W        W46490  25.518  29.672   4.996
78273W        W46491   5.899  14.683   3.411
78274W        W46492  26.441   4.719  10.924
78275W        W46493   8.258   3.079   5.005
78276W        W46494   9.016  42.545   5.327
78277W        W46495  34.716  37.386  11.012
78278W        W46496  34.698   0.745   0.270
78279W        W46497   7.704   2.921  10.799
78280W        W46498  13.831  40.524   3.418
78281W        W46499  13.515   7.650  11.142
78282W        W46500  40.805  11.703   2.597
78283W        W46501  31.844  33.935  13.875
78284W        W46502  20.881  43.753  10.758
78285W        W46503  21.757  42.042   0.434
78286W        W46504  32.154  39.102   1.282
78287W        W46505  31.457   2.561  11.195
78288W        W46506  21.506  14.752   4.684
78289W        W46507  35.078  28.986   2.756
78290W        W46508  35.569  31.719   1.526
78291W        W46509  39.430   0.279   0.931
78292W        W46510  27.073  13.580  11.497
78293W        W46511  36.935  25.368  11.055
78294W        W46512  19.165  35.598  12.953
78295W        W46513  13.605   4.999   4.962
78296W        W46514  30.377   8.139   0.746
78297W        W46515   8.310   6.602  13.160
78298W        W46516  15.806  27.541  13.801
78299W        W46517  27.502   0.489  11.459
78300W        W46518  42.339   6.149  12.419
78301W        W46519   7.856   4.813   1.206
78302W        W46520  32.940  33.385   1.174
78303W        W46521   4.140   0.912   3.169
78304W        W46522  23.004  23.279   0.403
78305W        W46523  20.164   3.116  14.344
78306W        W46524  23.004  26.162   0.917
78307W        W46525  40.408  32.549  14.990
78308W        W46526  26.769  31.910  13.482
78309W        W46527   4.746  13.538  14.296
78310W        W46528  17.718  18.326  14.062
78311W        W46529  34.011   0.039   1.972
78312W        W46530  14.241  10.866  13.893
78313W        W46531  28.929  36.512  10.665
78314W        W46532  11.400  39.669   1.343
78315W        W46533   8.421  20.503   3.351
78316W        W46534  15.275  25.496   3.220
78317W        W46535  20.519  30.615  12.783
78318W        W46536   2.840  39.053   0.910
78319W        W46537  21.108   9.834   1.164
78320W        W46538  18.633  10.726   0.648
78321W        W46539  22.131  12.605   0.220
78322W        W46540  33.113  36.418  11.180
78323W        W46541  41.562  25.158   3.329
78324W        W46542  24.756  10.366   4.057
78325W        W46543   0.945  14.461  13.929
78326W        W46544   9.657  34.586   1.177
78327W        W46545   6.444  28.939  12.082
78328W        W46546  14.273  27.899  14.086
78329W        W46547  15.643  10.991   2.278
78330W        W46548   0.893  32.581  13.126
78331W        W46549  31.573  38.417  14.572
78332W        W46550  29.778  28.182  10.336
78333W        W46551  13.571  17.039  13.080
78334W        W46552  28.647  17.865   4.200
78335W        W46553  42.540  20.804   0.630
78336W        W46554  32.010  10.964  12.570
78337W        W46555  19.150  41.702  14.260
78338W        W46556  44.313  36.577  13.434
78339W        W46557  38.456   5.035  10.155
78340W        W46558  20.744  40.500   3.134
78341W        W46559  44.439  43.690   1.245
78342W        W46560  15.971  36.438  10.624
78343W        W46561  10.269  31.445   5.044
78344W        W46562  18.157  12.629   3.228
78345W        W46563  16.906  29.845  11.658
78346W        W46564  38.810  44.852  11.931
78347W        W46565  41.394   0.793  13.096
78348W        W46566  20.726  40.963  10.723
78349W        W46567  20.101  44.205  13.869
78350W        W46568  28.672  34.828  12.962
78351W        W46569  35.191  27.891  13.570
78352W        W46570  31.480  16.688  12.403
78353W        W46571  27.203  18.973  14.027
78354W        W46572  44.129  30.400   3.742
78355W        W46573  33.362  18.290  13.467
78356W        W46574  44.487  13.349   0.396
78357W        W46575  30.462  28.738  13.132
78358W        W46576   6.339  14.564  12.978
78359W        W46577  43.037  12.666   2.381
78360W        W46578  21.026  34.018   0.713
78361W        W46579  28.666  20.714  12.577
78362W        W46580  38.578  27.349   2.913
78363W        W46581  11.361  38.261   2.751
78364W        W46582  44.252  20.447   3.730
78365W        W46583  16.249  36.892  14.441
78366W        W46584  30.296  18.017  14.458
78367W        W46585  13.316  10.345   1.079
78368W        W46586   3.378  21.064   5.084
78369W        W46587  31.024  23.535  12.590
78370W        W46588   9.646  22.703  12.178
78371W        W46589  23.896   2.057  13.134
78372W        W46590  43.987  21.063  14.760
78373W        W46591  44.290  43.384  11.874
78374W        W46592  12.812  19.657   4.176
78375W        W46593  13.183  32.385  11.982
78376W        W46594  21.244  31.667  14.467
78377W        W46595  28.431   1.202  13.856
78378W        W46596  42.100  10.640   1.068
78379W        W46597  40.842  15.049   2.815
78380W        W46598  20.614  28.223   3.368
78381W        W46599   1.938  26.581  11.489
78382W        W46600  25.288   0.361   0.384
78383W        W46601  38.553   1.812   1.946
78384W        W46602  12.891  36.896   3.163
78385W        W46603  13.383  25.324   0.339
78386W        W46604  33.819  14.706   0.140
78387W        W46605  35.513   2.307  11.974
78388W        W46606  11.162  12.304  11.597
78389W        W46607  33.251  19.499  10.783
78390W        W46608   3.945  42.109  12.438
78391W        W46609  11.073  25.143  12.002
78392W        W46610  16.631  12.914  11.116
78393W        W46611  13.292  42.818  14.865
78394W        W46612  15.853  11.273  10.013
78395W        W46613   1.310  13.818   0.629
78396W        W46614   8.074  28.926   1.668
78397W        W46615   5.861  20.742   2.751
78398W        W46616   9.179  27.157   4.616
78399W        W46617  27.236   7.696  10.769
78400W        W46618  20.127  19.062  13.160
78401W        W46619  43.371   5.962   4.693
78402W        W46620  44.990   6.708   0.462
78403W        W46621  16.807  44.930   5.268
78404W        W46622   4.402  39.816  12.171
78405W        W46623  22.303  14.258   0.284
78406W        W46624  37.716  18.559   1.503
78407W        W46625  33.661  42.781   4.751
78408W        W46626  12.913  18.836   2.842
78409W        W46627  38.526  38.800   1.983
78410W        W46628   5.191  33.291   4.079
78411W        W46629   6.562  34.590  10.752
78412W        W46630  13.846   5.250   2.263
78413W        W46631  16.213  40.593   3.193
78414W        W46632  32.146  41.797   3.765
78415W        W46633   6.225  17.663   3.343
78416W        W46634  38.505   0.755   0.686
78417W        W46635  27.215   1.443  12.238
78418W        W46636  16.238  14.293   1.852
78419W        W46637  35.128  24.857   0.269
78420W        W46638  25.748  11.353   2.791
78421W        W46639  25.523  17.157   1.792
78422W        W46640  38.036  18.085   3.674
78423W        W46641  20.313  25.781   0.761
78424W        W46642   8.225   6.858   0.617
78425W        W46643  23.485   8.292   3.739
78426W        W46644   5.234  23.303   4.387
78427W        W46645  12.306  40.077  10.652
78428W        W46646  17.262   8.625   1.347
78429W        W46647   9.577  42.058  14.743
78430W        W46648  16.823   4.297   0.700
78431W        W46649   3.289   9.257   2.168
78432W        W46650   9.907  16.544  14.194
78433W        W46651  32.823  39.785  10.640
78434W        W46652   1.995  12.877   0.918
78435W        W46653  29.278  15.863  11.934
78436W        W46654  11.851  20.120   2.743
78437W        W46655  25.984  38.327   0.311
78438W        W46656  30.044   2.061  14.553
78439W        W46657  19.995  25.039  11.198
78440W        W46658  26.630  11.071   4.591
78441W        W46659  30.734  37.471  11.689
78442W        W46660   7.885   2.011   2.377
78443W        W46661  42.394   1.468   0.876
78444W        W46662   2.983  35.524  11.581
78445W        W46663  38.351  24.254  11.388
78446W        W46664   3.475  44.446  14.137
78447W        W46665  44.575  28.977   3.407
78448W        W46666  38.338  23.155  11.862
78449W        W46667  37.860  41.405  12.094
78450W        W46668   5.913  26.726   3.173
78451W        W46669  30.409  39.547   3.227
78452W        W46670   1.992  13.273   2.938
78453W        W46671   9.442  17.340   2.354
78454W        W46672   3.091   5.453  14.981
78455W        W46673  16.681  36.598  14.451
78456W        W46674   0.876  36.840   0.257
78457W        W46675  32.837  20.324   0.207
78458W        W46676   0.143  33.497   0.706
78459W        W46677   1.104  39.935   3.748
78460W        W46678  16.252  15.090  14.239
78461W        W46679   7.193  21.603  11.933
78462W        W46680  31.676  17.686  12.831
78463W        W46681   9.813  21.346  14.922
78464W        W46682  26.578  30.143  14.927
78465W        W46683  18.753  27.959   3.403
78466W        W46684  37.844  10.895  12.209
78467W        W46685  43.336  12.655  11.989
78468W        W46686   4.648  24.629   3.858
78469W        W46687  21.734  19.664  13.071
78470W        W46688   8.962  31.656   4.615
78471W        W46689  26.111  17.353  14.446
78472W        W46690   6.867  20.247  13.321
78473W        W46691  15.838   3.175  11.702
78474W        W46692  20.261  21.791  12.020
78475W        W46693   4.993  19.775   4.576
78476W        W46694  11.899  41.255  12.521
78477W        W46695  33.134  40.775   0.853
78478W        W46696  43.929   6.796   3.273
78479W        W46697   4.191  14.531  10.708
78480W        W46698  25.610  13.377  10.785
78481W        W46699   9.716  43.554  11.954
78482W        W46700  15.704  31.450  14.895
78483W        W46701  11.711  22.429   0.448
78484W        W46702  43.722   6.998   3.709
78485W        W46703  28.928  12.739  13.180
78486W        W46704   1.301  10.921   2.383
78487W        W46705   6.364  25.485  14.912
78488W        W46706  16.306  16.530  10.678
78489W        W46707  21.297  44.452  12.990
78490W        W46708   6.231  42.018  13.734
78491W        W46709  13.202   8.362  12.456
78492W        W46710  12.824  23.217  14.035
78493W        W46711  28.287  18.984   3.444
78494W        W46712  27.002  25.063  11.067
78495W        W46713  25.096  42.568   5.042
78496W        W46714  37.360   7.943   1.346
78497W        W46715  20.262   0.826  12.503
78498W        W46716  44.866  37.563   2.941
78499W        W46717  23.233  39.989   4.530
78500W        W46718  44.411   2.989  10.722
78501W        W46719  18.184  36.732  14.455
78502W        W46720  13.917  31.416   0.549
78503W        W46721  14.940  23.772  14.924
78504W        W46722  14.813   3.012   4.965
78505W        W46723   4.268  29.097   4.689
78506W        W46724  42.542   6.472   1.903
78507W        W46725   2.755  39.457  11.961
78508W        W46726  20.166  16.683   9.892
78509W        W46727  25.522   6.451   3.436
78510W        W46728  12.751  43.339  12.077
78511W        W46729  40.952   3.682  11.944
78512W        W46730  18.438  17.617   3.916
78513W        W46731  15.068   7.023  12.516
78514W        W46732  26.235  20.749   1.754
78515W        W46733  39.965  36.886   4.809
78516W        W46734  44.892  32.391   3.684
78517W        W46735  31.976  26.484  12.592
78518W        W46736  29.633  24.538  11.247
78519W        W46737  31.195   9.432  11.799
78520W        W46738  24.417  12.530  11.116
78521W        W46739  16.213  28.044  11.696
78522W        W46740  41.875  41.038   1.503
78523W        W46741  10.278  37.131   4.081
78524W        W46742   6.615  10.384  12.948
78525W        W46743  26.657  20.493   1.943
78526W        W46744  26.600  30.820   0.557
78527W        W46745  42.393  22.692   3.242
78528W        W46746  16.440  32.470  12.299
78529W        W46747   0.858  41.205  13.453
78530W        W46748   4.077  25.077   4.549
78531W        W46749   2.387  15.353   4.757
78532W        W46750  21.089  36.433  14.848
78533W        W46751   9.872  17.259   3.327
78534W        W46752   1.473  28.454  14.313
78535W        W46753   7.715  26.592   4.572
78536W        W46754  32.340  15.762  12.893
78537W        W46755  40.407   5.654   2.170
78538W        W46756  13.864   9.803   1.992
78539W        W46757  37.308  19.179   4.158
78540W        W46758  30.666   4.529   2.790
78541W        W46759   3.412  37.150  11.115
78542W        W46760  23.435   5.394  12.576
78543W        W46761  44.573  30.332   0.122
78544W        W46762   2.025  15.550   0.277
78545W        W46763  31.618  30.703  13.803
78546W        W46764  30.924  21.534   3.634
78547W        W46765  18.950  20.044   3.651
78548W        W46766  20.146  22.101  12.405
78549W        W46767  39.549  11.272  10.414
78550W        W46768  40.445  29.003   1.765
78551W        W46769  25.687  19.134   1.985
78552W        W46770  44.585  43.120   4.575
78553W        W46771  26.746   9.821  11.143
78554W        W46772   9.691   8.342  11.433
78555W        W46773  32.144  21.235  10.602
78556W        W46774   2.149  38.942  11.202
78557W        W46775  14.761  33.637   0.231
78558W        W46776  12.168   9.292  11.730
78559W        W46777  16.320  11.689  12.841
78560W        W46778  16.790  44.292  10.380
78561W        W46779  17.566  24.176  13.758
78562W        W46780  22.932  19.548  14.207
78563W        W46781  11.775  21.658  11.610
78564W        W46782  26.786   0.993   4.680
78565W        W46783  41.023  31.292   3.243
78566W        W46784  37.436  16.763   4.707
78567W        W46785   4.923  37.237   2.426
78568W        W46786  23.687  38.151   2.262
78569W        W46787  11.722  40.056  14.930
78570W        W46788   1.964  33.758  10.477
78571W        W46789  28.999  33.675   4.633
78572W        W46790  33.755  30.629  11.999
78573W        W46791  13.523  23.886   2.129
78574W        W46792  44.942   8.628   0.922
78575W        W46793  26.137  20.685   4.586
78576W        W46794  42.093   2.087   1.040
78577W        W46795  22.319  19.886  14.708
78578W        W46796  18.662  31.880   2.159
78579W        W46797   2.379  15.947   3.783
78580W        W46798  14.633   5.952  10.279
78581W        W46799  23.623   0.159   3.297
78582W        W46800  43.539  16.875   0.243
78583W        W46801  38.190   4.122   4.991
78584W        W46802  36.343  28.979   2.319
78585W        W46803  39.885  26.693  13.058
78586W        W46804   6.671  15.853  10.248
78587W        W46805  40.081  10.892  13.552
78588W        W46806  27.292  11.457  14.951
78589W        W46807   3.201  40.468   3.577
78590W        W46808   6.753  27.014   2.184
78591W        W46809  28.124  38.781  11.966
78592W        W46810   0.411  16.266   3.767
78593W        W46811  17.672  29.625   2.409
78594W        W46812  20.869   7.171   3.570
78595W        W46813  26.489  31.323   0.717
78596W        W46814  15.019   0.848  12.849
78597W        W46815  29.396  44.526   0.883
78598W        W46816   2.341  10.088   1.420
78599W        W46817  34.945  39.454   5.064
78600W        W46818  40.126   6.646   4.336
78601W        W46819  23.988  14.277   3.234
78602W        W46820  39.428  20.297  11.447
78603W        W46821  37.354  21.374   4.532
78604W        W46822   7.192  41.905  13.222
78605W        W46823   0.580   5.934  11.130
78606W        W46824  23.997   9.889  14.593
78607W        W46825  41.489  10.205   0.585
78608W        W46826  17.100   1.297  13.496
78609W        W46827   0.809  39.443  14.782
78610W        W46828  43.150  30.191  12.065
78611W        W46829  13.901  22.475   0.448
78612W        W46830  26.656  19.214  10.418
78613W        W46831  20.195  29.178   0.992
78614W        W46832  43.464  13.648  12.188
78615W        W46833   0.388  34.410  10.712
78616W        W46834   4.303  14.860   3.292
78617W        W46835  35.993  14.199   2.144
78618W        W46836  14.853  37.103  13.922
78619W        W46837  21.259   1.696   2.354
78620W        W46838   8.409  26.239  14.926
78621W        W46839  18.132  18.346  12.845
78622W        W46840   8.642  39.538  11.054
78623W        W46841   5.170  33.967   0.993
78624W        W46842  16.747   1.710  12.386
78625W        W46843  42.937   8.768  14.388
78626W        W46844  29.218  23.087   3.058
78627W        W46845  34.993  30.450  10.124
78628W        W46846  15.210   8.555   1.351
78629W        W46847  42.359  24.100  12.642
78630W        W46848  40.369  18.066   1.003
78631W        W46849  23.827   4.723   4.087
78632W        W46850  41.601   1.451  13.806
78633W        W46851   2.126  16.794   4.564
78634W        W46852  16.683  25.126  13.761
78635W        W46853  41.006  37.823   3.194
78636W        W46854  41.679   2.525   2.196
78637W        W46855  28.388  18.087   1.626
78638W        W46856   6.903  26.892   2.687
78639W        W46857  20.130  41.829  14.396
78640W        W46858   9.183  14.791  10.750
78641W        W46859  23.683  11.329  13.803
78642W        W46860   0.231  21.632  13.056
78643W        W46861  10.807   0.974   1.167
78644W        W46862  31.173  36.326   2.854
78645W        W46863  30.095  35.723   1.600
78646W        W46864   2.419  24.180  10.631
78647W        W46865   2.037  16.038   2.167
78648W        W46866  11.487  12.718  12.970
78649W        W46867  32.436   4.624  11.617
78650W        W46868  22.413  25.291   1.893
78651W        W46869   1.181   7.814  11.105
78652W        W46870  30.590  29.728   1.286
78653W        W46871  23.135  40.603   2.808
78654W        W46872  40.454  42.838  12.802
78655W        W46873  30.717   3.007  14.819
78656W        W46874   2.274  19.220  13.288
78657W        W46875  23.152   7.121   2.104
78658W        W46876  28.185  29.684   4.174
78659W        W46877  16.569  14.736   1.823
78660W        W46878  27.131  32.157  10.972
78661W        W46879  22.200  15.743   2.238
78662W        W46880  22.245  26.205  12.004
78663W        W46881   1.243  38.949   0.895
78664W        W46882   5.570  16.533  10.248
78665W        W46883  44.306  41.556  14.728
78666W        W46884  16.026  27.213   0.967
78667W        W46885   1.347  13.622   1.692
78668W        W46886  42.370  20.723  11.132
78669W        W46887  40.422   1.346   0.921
78670W        W46888  42.949  26.635  13.850
78671W        W46889  41.099  17.538  14.042
78672W        W46890  36.737  13.709   0.394
78673W        W46891  34.034  43.922  11.956
78674W        W46892  22.477  14.107  14.360
78675W        W46893  25.495  20.454  11.836
78676W        W46894  31.828   9.209   0.149
78677W        W46895  25.271  23.062   2.391
78678W        W46896  20.013  20.701   3.157
78679W        W46897   5.045  20.038  14.360
78680W        W46898  15.557  16.654  11.536
78681W        W46899  31.005  29.648   3.811
78682W        W46900   5.138   0.980   1.991
78683W        W46901   0.695   8.394   1.687
78684W        W46902  25.492  17.745  10.775
78685W        W46903  31.052   8.708  11.273
78686W        W46904  17.363   4.680  13.547
78687W        W46905  11.721  31.622   1.956
78688W        W46906  31.193   4.920   0.285
78689W        W46907  24.934  39.234  14.009
78690W        W46908  33.651  31.124   2.752
78691W        W46909  20.042  19.249  14.369
78692W        W46910  15.094  40.629  13.772
78693W        W46911  35.998  28.218   0.014
78694W        W46912  34.537   4.070   1.384
78695W        W46913  28.883   7.771   1.805
78696W        W46914  10.566   0.236   4.335
78697W        W46915  34.580  14.227  12.606
78698W        W46916  25.084   8.858  11.978
78699W        W46917  43.314  43.261  10.674
78700W        W46918  27.593  29.758   0.329
78701W        W46919  30.018  28.551  13.315
78702W        W46920   8.870  14.760  13.293
78703W        W46921   3.443  35.007   2.224
78704W        W46922  25.925   4.172  12.091
78705W        W46923  42.975  14.412  14.592
78706W        W46924   0.926  44.314  11.211
78707W        W46925  32.685  27.149   3.115
78708W        W46926  21.718  22.478   2.270
78709W        W46927  19.702  27.271   1.348
78710W        W46928  18.308  30.470  13.981
78711W        W46929   8.703  15.286   5.368
78712W        W46930  30.435  37.992  10.961
78713W        W46931  19.839  27.673  13.915
78714W        W46932   6.439  24.578  10.641
78715W        W46933  20.988  33.598  11.635
78716W        W46934  31.590  21.174  13.417
78717W        W46935  30.381  37.119   1.750
78718W        W46936  36.038  28.207   1.812
78719W        W46937  35.779  34.918   2.233
78720W        W46938   6.448  36.056   0.517
78721W        W46939  13.668  29.014   2.648
78722W        W46940   1.506  19.131  11.182
78723W        W46941  13.885  28.136   2.084
78724W        W46942   1.724   1.879   3.690
78725W        W46943  24.999  20.979   2.142
78726W        W46944   7.261  34.051  12.832
78727W        W46945  35.818  21.754   1.367
78728W        W46946  22.222  22.025  11.669
78729W        W46947   2.949   4.952  14.964
78730W        W46948  37.175   7.252   1.841
78731W        W46949  19.839  19.300   1.378
78732W        W46950  26.928  41.107   2.600
78733W        W46951  28.995   4.716   0.343
78734W        W46952  22.468  33.101  11.677
78735W        W46953  26.034  23.942   0.413
78736W        W46954  15.468   7.829   1.755
78737W        W46955   7.475  44.826  14.846
78738W        W46956  20.920  14.544   9.828
78739W        W46957  11.799  33.579   3.240
78740W        W46958  42.307  35.471  13.526
78741W        W46959  23.789   2.236   1.413
78742W        W46960  24.009  27.199  12.390
78743W        W46961   7.209   1.635  13.926
78744W        W46962   2.036  28.570   2.857
78745W        W46963   8.276   9.748   3.818
78746W        W46964  15.641  19.609   4.430
78747W        W46965   4.692   2.420  10.985
78748W        W46966  41.789  13.173   2.087
78749W        W46967  23.577  35.712  12.548
78750W        W46968  23.635  39.919   3.871
78751W        W46969  18.556  13.536   0.703
78752W        W46970  31.420  21.633   0.747
78753W        W46971  21.821   9.451   1.034
78754W        W46972  24.180  13.219   2.970
78755W        W46973  16.263  38.405   2.802
78756W        W46974  19.880  35.901   3.279
78757W        W46975  19.022   2.421  13.834
78758W        W46976  14.765   8.199   3.510
78759W        W46977  39.790  35.725  12.733
78760W        W46978  40.801   2.439  13.171
78761W        W46979  35.795  35.494  14.475
78762W        W46980  18.181  24.604   1.192
78763W        W46981  17.310  14.934   4.009
78764W        W46982  42.371  12.313   0.932
78765W        W46983  16.161  35.005   3.114
78766W        W46984  22.165  41.221   3.718
78767W        W46985  27.004  37.481  13.677
78768W        W46986  44.314  25.670  12.542
78769W        W46987   8.262  23.248  13.054
78770W        W46988  13.262  22.674   1.221
78771W        W46989  10.338  13.326   3.101
78772W        W46990  23.332  28.408   4.350
78773W        W46991   6.283  40.867  13.300
78774W        W46992  44.977  35.966   1.257
78775W        W46993   7.704  23.651   2.395
78776W        W46994  25.920  35.097  13.478
78777W        W46995  24.961  36.731   4.673
78778W        W46996  33.067   5.922  13.902
78779W        W46997   1.761  43.745   0.701
78780W        W46998  24.818  41.335  13.525
78781W        W46999   1.403  27.653   1.132
78782W        W47000  14.721  38.142   3.722
78783W        W47001   2.649  17.894  13.391
78784W        W47002  19.643  39.493  13.987
78785W        W47003  14.255   4.516   5.143
78786W        W47004  18.565   5.087   0.466
78787W        W47005   2.751  28.994   0.388
78788W        W47006   5.925  33.057   1.243
78789W        W47007   3.836   7.669   2.597
78790W        W47008  13.872  28.435  13.464
78791W        W47009  37.574  14.127  10.734
78792W        W47010  18.037  43.851   0.765
78793W        W47011  41.048  16.421  10.695
78794W        W47012  39.340  27.562  14.372
78795W        W47013   1.167  38.200   0.315
78796W        W47014   1.508  36.849   1.417
78797W        W47015   6.267  14.747   3.751
78798W        W47016  26.959  14.061  10.723
78799W        W47017  15.516  38.827   1.689
78800W        W47018  30.551  36.470   3.705
78801W        W47019  44.692  34.887   3.267
78802W        W47020  14.795   6.191  13.781
78803W        W47021  29.846  38.944   0.153
78804W        W47022  44.390  16.589  10.689
78805W        W47023   8.307  17.246  13.573
78806W        W47024  40.462  21.025   3.733
78807W        W47025  29.067  35.263   4.768
78808W        W47026  33.894  24.530  14.819
78809W        W47027   5.157  23.662  12.839
78810W        W47028  17.817  11.209  13.456
78811W        W47029  40.912  35.325   4.649
78812W        W47030   3.821  25.616   3.363
78813W        W47031  21.762  16.533  13.448
78814W        W47032  29.843  43.654  13.913
78815W        W47033  14.083  42.968   1.769
78816W        W47034  22.778   4.262   2.173
78817W        W47035  18.224  18.149  14.789
78818W        W47036  21.784   0.268  13.987
78819W        W47037  34.656  26.061  12.066
78820W        W47038  42.453  27.358  14.491
78821W        W47039  44.226  24.549  14.825
78822W        W47040  44.068  19.446   4.641
78823W        W47041   2.276  43.922  11.685
78824W        W47042  20.581  25.076   0.997
78825W        W47043  43.494   7.336  12.354
78826W        W47044  23.035  25.854  11.515
78827W        W47045  11.349   0.939   4.368
78828W        W47046  39.609  20.135   0.814
78829W        W47047  33.548  21.746  12.510
78830W        W47048  19.212  37.319   1.327
78831W        W47049  24.257   9.084  11.628
78832W        W47050  10.382   4.138  14.710
78833W        W47051  11.341   4.168   2.159
78834W        W47052   6.222  16.230   1.272
78835W        W47053  33.519  33.933   0.180
78836W        W47054  18.296   9.396   3.249
78837W        W47055  13.751   3.485   3.812
78838W        W47056  36.399  33.581  12.778
78839W        W47057  12.615  25.064  14.758
78840W        W47058  30.893  43.884   2.588
78841W        W47059  26.458  14.343  10.705
78842W        W47060   7.390  41.794  14.149
78843W        W47061  40.447   5.905  12.002
78844W        W47062   7.593  33.317  13.615
78845W        W47063  42.082  14.660  11.718
78846W        W47064   0.807  15.441  10.722
78847W        W47065  15.428  31.075  12.520
78848W        W47066  27.808  18.837  11.694
78849W        W47067  39.999  13.420  10.877
78850W        W47068  31.302  18.626  13.854
78851W        W47069  24.943  24.088  12.742
78852W        W47070   9.863  38.404  10.485
78853W        W47071   7.726  22.273   1.829
78854W        W47072   2.963  25.231  14.799
78855W        W47073   5.685  18.678  14.266
78856W        W47074  35.880  27.694  14.997
78857W        W47075   8.648  11.751   1.354
78858W        W47076  29.516  31.528   2.833
78859W        W47077  20.963  11.674  12.479
78860W        W47078  24.203  15.699  10.650
78861W        W47079   2.563  25.888   2.855
78862W        W47080   6.115  12.074  12.023
78863W        W47081   4.876  30.945   0.386
78864W        W47082  32.768   4.882   1.638
78865W        W47083  22.766   7.409  13.047
78866W        W47084   5.935   5.424  10.593
78867W        W47085  35.955  21.518   3.738
78868W        W47086  43.527  24.426   1.918
78869W        W47087  17.944  38.466  13.071
78870W        W47088  31.151   3.905   0.984
78871W        W47089  24.994   9.313  13.108
78872W        W47090  37.549  44.060   1.535
78873W        W47091   8.465   2.418  14.010
78874W        W47092  14.368  15.560  10.161
78875W        W47093  10.564  16.741  10.805
78876W        W47094   4.741  28.825   4.734
78877W        W47095  17.920  32.051   1.923
78878W        W47096  32.509  24.340   1.741
78879W        W47097   3.775  10.848   2.193
78880W        W47098  35.359  21.121   5.033
78881W        W47099  11.093  20.319   4.269
78882W        W47100   2.519  36.240  11.356
78883W        W47101  23.519  22.063  11.946
78884W        W47102  11.238  42.257   4.509
78885W        W47103  42.519  26.863   0.365
78886W        W47104  20.497  40.056  14.814
78887W        W47105  42.828  37.379   0.241
78888W        W47106  32.627  40.080   3.190
78889W        W47107  14.742  13.422  14.454
78890W        W47108  11.904   5.398  12.041
78891W        W47109  17.296  43.877   1.752
78892W        W47110  22.567   5.234   2.314
78893W        W47111  30.571   6.396   3.448
78894W        W47112  32.576  31.116  11.106
78895W        W47113  17.953   9.917   4.105
78896W        W47114  37.563  36.912   4.397
78897W        W47115  17.066  26.081  10.469
78898W        W47116   4.502  28.092   2.923
78899W        W47117   1.705  22.031   4.119
78900W        W47118   4.957  22.734  13.552
78901W        W47119  32.929   8.426   2.232
78902W        W47120   7.173   5.990   0.261
78903W        W47121  15.617  13.651   3.149
78904W        W47122  20.320  30.960   1.282
78905W        W47123  41.909  27.468  13.795
78906W        W47124   3.202  15.239  11.558
78907W        W47125   8.122  15.794  12.526
78908W        W47126  37.471  24.196  12.072
78909W        W47127  15.772  26.102  10.305
78910W        W47128  12.381  43.430  13.317
78911W        W47129  37.467  43.558   1.621
78912W        W47130  28.791   1.618  10.071
78913W        W47131  27.463   8.530  13.867
78914W        W47132  31.676  26.177  12.272
78915W        W47133  10.425   2.131   4.661
78916W        W47134  17.366   5.221   0.295
78917W        W47135  11.208  36.093  11.614
78918W        W47136  21.883  36.751  12.911
78919W        W47137  20.221  15.699   1.682
78920W        W47138  21.159  31.938  12.952
78921W        W47139  17.480  31.932  10.928
78922W        W47140  41.995   2.538  11.724
78923W        W47141  40.080   7.297   4.900
78924W        W47142  24.608   3.443  12.024
78925W        W47143  30.124  41.559  11.968
78926W        W47144  44.792  23.117  12.028
78927W        W47145  41.988  27.376  12.480
78928W        W47146  42.824  33.473  13.139
78929W        W47147  13.093  43.714   4.858
78930W        W47148  38.378   0.527   2.691
78931W        W47149  42.894   7.729  11.177
78932W        W47150  43.210  13.830   3.649
78933W        W47151  42.756  29.438   4.250
78934W        W47152  18.623  44.356   1.281
78935W        W47153  32.148   8.292   2.703
78936W        W47154   1.025  17.998   1.882
78937W        W47155  16.636  26.053  10.786
78938W        W47156  39.534  24.457  13.811
78939W        W47157   6.614   1.287  14.337
78940W        W47158   4.713  36.933  13.871
78941W        W47159  34.574  24.821  13.432
78942W        W47160   9.042  41.794   3.274
78943W        W47161  16.237  23.235   2.445
78944W        W47162  20.599   9.308  11.529
78945W        W47163   4.215  33.854  13.416
78946W        W47164  26.896   4.539  11.137
78947W        W47165  10.234   4.386  11.179
78948W        W47166  41.543  11.527  12.907
78949W        W47167  42.744  23.771   1.675
78950W        W47168  32.619  30.831  14.859
78951W        W47169  44.549  33.063  11.440
78952W        W47170  39.424  18.730  11.487
78953W        W47171  29.457  37.869   4.879
78954W        W47172   3.747  33.652  13.016
78955W        W47173   3.253   6.724   1.337
78956W        W47174  29.581   9.231  12.434
78957W        W47175  29.894  10.177   2.728
78958W        W47176  39.658  20.573  13.965
78959W        W47177  14.504   3.255  10.017
78960W        W47178  19.028  35.386  11.636
78961W        W47179  16.297  41.607   0.336
78962W        W47180  36.158  21.275   4.187
78963W        W47181   4.144  37.834  10.992
78964W        W47182   3.042  42.390  10.463
78965W        W47183  19.727  10.923   1.926
78966W        W47184  17.579  32.443   2.681
78967W        W47185  33.756  30.094  12.978
78968W        W47186  14.170  36.878   3.704
78969W        W47187  35.615  18.776   3.272
78970W        W47188  20.321  36.078   4.927
78971W        W47189  26.333  33.138  13.659
78972W        W47190  42.176  25.913   0.513
78973W        W47191  32.466  42.884   1.093
78974W        W47192  33.158  30.583   4.928
78975W        W47193  13.601  14.784  13.794
78976W        W47194  28.365  20.606   0.966
78977W        W47195  14.544  32.916   2.473
78978W        W47196  16.676  43.029   4.135
78979W        W47197   3.960  39.337  11.895
78980W        W47198  36.346  36.332   1.041
78981W        W47199  21.704  20.171  13.090
78982W        W47200  11.252  28.327  12.507
78983W        W47201   4.188  12.340  10.449
78984W        W47202  27.430  19.748  11.473
78985W        W47203   2.678   0.789   3.579
78986W        W47204  19.964   8.819  11.195
78987W        W47205  33.686  39.530   2.157
78988W        W47206  20.163  42.995   0.719
78989W        W47207  11.660   7.483  10.387
78990W        W47208   3.857  15.629   2.534
78991W        W47209  37.775   8.124  12.425
78992W        W47210  20.207  10.774   2.162
78993W        W47211   6.589  34.991   2.250
78994W        W47212   6.111  33.873   0.118
78995W        W47213  38.448  21.293   2.493
78996W        W47214  27.100  40.878  12.597
78997W        W47215   6.474   8.244  10.696
78998W        W47216  43.843  12.240  12.597
78999W        W47217  36.925   3.260  13.277
79000W        W47218  16.530  12.124  12.983
79001W        W47219   8.252   5.158   1.277
79002W        W47220  39.306  13.142   1.426
79003W        W47221  10.295  24.814   3.408
79004W        W47222  29.499  21.797   3.564
79005W        W47223   2.511   7.654   2.727
79006W        W47224  25.645  34.662  13.501
79007W        W47225   3.689  20.112   1.355
79008W        W47226  40.044  34.336  10.664
79009W        W47227  11.251  37.629  10.596
79010W        W47228  13.801  29.874  13.521
79011W        W47229  21.723  27.926  13.871
79012W        W47230  13.265   8.410   0.306
79013W        W47231  30.211  22.525   4.303
79014W        W47232  19.621   0.275  10.566
79015W        W47233  32.908  30.629  13.345
79016W        W47234   6.247  10.365   3.727
79017W        W47235  13.847  41.318   1.741
79018W        W47236  44.559  17.199   4.500
79019W        W47237  37.160  38.199   0.470
79020W        W47238   3.555   8.397   4.132
79021W        W47239  19.849  10.400  12.731
79022W        W47240  35.137  10.150  14.580
79023W        W47241  33.726   2.542   0.633
79024W        W47242  23.577  39.014   1.362
79025W        W47243  42.763   5.132  11.111
79026W        W47244   4.820  12.930  14.969
79027W        W47245  22.670  20.364  10.192
79028W        W47246  22.176  34.898   1.389
79029W        W47247   8.447  36.483  10.766
79030W        W47248  13.087  32.121  10.704
79031W        W47249  20.793  29.356  11.099
79032W        W47250  30.658  30.518  13.411
79033W        W47251  38.933  33.869  12.779
79034W        W47252   8.769  21.597   0.239
79035W        W47253  34.657  44.915  12.907
79036W        W47254  41.639  14.811   1.924
79037W        W47255  11.872   3.659   0.857
79038W        W47256   1.361   8.223   3.762
79039W        W47257  39.031   3.296   1.726
79040W        W47258  12.534   7.308  11.597
79041W        W47259  10.876  34.129   4.573
79042W        W47260   9.773   3.967  12.383
79043W        W47261  11.426  31.985   1.314
79044W        W47262  36.221  25.712   0.231
79045W        W47263  31.667  41.299   3.260
79046W        W47264   7.839  33.883  11.158
79047W        W47265  41.821  12.798  12.656
79048W        W47266  27.782   7.385   4.157
79049W        W47267  16.471  35.124  13.457
79050W        W47268  19.599  13.317   0.296
79051W        W47269   1.391  44.884  14.302
79052W        W47270   9.370  26.399  14.909
79053W        W47271   2.016   6.617   2.218
79054W        W47272   4.342  15.752  11.073
79055W        W47273  29.709  13.695  14.805
79056W        W47274  26.401  13.129  13.957
79057W        W47275  14.576  32.713   4.095
79058W        W47276  31.442  20.148   1.455
79059W        W47277  31.653  31.877  14.909
79060W        W47278  13.833   2.703  14.844
79061W        W47279  43.049   2.942   3.797
79062W        W47280  36.358  39.946   0.515
79063W        W47281   9.295  11.613  10.688
79064W        W47282  14.613  43.326   1.342
79065W        W47283   5.483  18.934   0.065
79066W        W47284  32.933  21.512  13.121
79067W        W47285  17.820  13.203   0.938
79068W        W47286   0.815  40.856  13.859
79069W        W47287   5.671  37.261   1.281
79070W        W47288  33.746  15.793  10.726
79071W        W47289   4.676   7.145  14.316
79072W        W47290  34.691   3.180   1.322
79073W        W47291   9.480  23.860  12.914
79074W        W47292  20.426  32.272  10.004
79075W        W47293  36.254  20.170  14.071
79076W        W47294  39.731  28.916   3.355
79077W        W47295  22.269   5.899  10.754
79078W        W47296  36.863  27.598  11.465
79079W        W47297  18.342  37.413  11.541
79080W        W47298  24.934  20.264   4.533
79081W        W47299   9.833  35.923  13.571
79082W        W47300   2.386   4.669   2.155
79083W        W47301  17.407  16.635  10.253
79084W        W47302  30.427  14.592   2.112
79085W        W47303  23.252   6.698  12.012
79086W        W47304  25.594   7.365   1.170
79087W        W47305  44.827  43.725   0.394
79088W        W47306  34.526  19.914  11.984
79089W        W47307  16.239  17.828  14.006
79090W        W47308  35.838   9.467  13.632
79091W        W47309   4.878  23.678   1.811
79092W        W47310  18.962  32.646  14.766
79093W        W47311  23.088  16.918  14.293
79094W        W47312  11.969  14.651  11.137
79095W        W47313  18.127  31.660  14.446
79096W        W47314  25.552  31.579   1.432
79097W        W47315  39.954   2.331   1.679
79098W        W47316  27.788  34.651  11.555
79099W        W47317   9.165  30.845   4.678
79100W        W47318  14.796  27.188   0.338
79101W        W47319  42.500  19.370   4.037
79102W        W47320  40.060  19.740   1.406
79103W        W47321   6.549  30.182   3.299
79104W        W47322  18.960  32.163  10.742
79105W        W47323  29.712   4.510  12.787
79106W        W47324  39.994   3.751   1.213
79107W        W47325  23.219  42.395  11.018
79108W        W47326   6.156  35.064   0.410
79109W        W47327  19.248  38.817  14.958
79110W        W47328  40.568  37.355   5.050
79111W        W47329  28.972  29.030  13.668
79112W        W47330   7.022  22.476  11.904
79113W        W47331  37.949  29.241   0.338
79114W        W47332   1.842  13.583  14.452
79115W        W47333  25.465  38.047   1.407
79116W        W47334  43.304   4.607  13.470
79117W        W47335   1.891  18.320   4.058
79118W        W47336  13.798  28.432  14.895
79119W        W47337  15.407  22.565  10.754
79120W        W47338  18.078  42.126  14.344
79121W        W47339   2.615  13.579   4.806
79122W        W47340   0.538  18.570  11.681
79123W        W47341  30.832  22.647   9.855
79124W        W47342  19.972  23.271   3.598
79125W        W47343  12.513  25.503  13.912
79126W        W47344  36.567   5.811  11.378
79127W        W47345  33.815  44.007  10.755
79128W        W47346   1.253  14.803  14.428
79129W        W47347  23.781  10.129  10.764
79130W        W47348  16.245  11.710   3.040
79131W        W47349  19.404  40.960  10.654
79132W        W47350   8.127  40.509  14.253
79133W        W47351  31.973  19.545  13.105
79134W        W47352  22.169  40.314   4.139
79135W        W47353  26.961   2.427   1.769
79136W        W47354  18.785  13.192   4.227
79137W        W47355  20.127  26.212   4.117
79138W        W47356  24.014  41.294  10.829
79139W        W47357  28.224  33.593  14.837
79140W        W47358  15.505   4.205   3.418
79141W        W47359   2.646  14.989   2.489
79142W        W47360  15.277  11.788  13.811
79143W        W47361  43.571  40.438  10.641
79144W        W47362   0.327  11.301   0.446
79145W        W47363   6.052  34.543  10.649
79146W        W47364  40.992  33.647   1.843
79147W        W47365  35.575  27.174  13.887
79148W        W47366   3.136  32.406   3.559
79149W        W47367  16.240  24.910   3.654
79150W        W47368  30.633  17.100   2.011
79151W        W47369  38.922   0.716   2.960
79152W        W47370  29.983   4.992   4.946
79153W        W47371  14.718  28.580   3.154
79154W        W47372  15.401  38.647   0.799
79155W        W47373  15.305  27.251  12.233
79156W        W47374  13.769  32.943  14.850
79157W        W47375  13.674  40.882  12.590
79158W        W47376   6.103  38.282  11.584
79159W        W47377  15.811  42.015  14.536
79160W        W47378  19.712  16.629   2.246
79161W        W47379   0.348  16.659   4.116
79162W        W47380  11.834  41.752  12.451
79163W        W47381  44.742  32.586  14.440
79164W        W47382  40.942  20.173   0.430
79165W        W47383  38.098  34.680  11.142
79166W        W47384  22.950  12.743  11.163
79167W        W47385   5.905  15.586   0.244
79168W        W47386  13.849   7.660   0.368
79169W        W47387  19.842   5.666  12.774
79170W        W47388  37.876  43.401   4.756
79171W        W47389  43.752  34.580  11.577
79172W        W47390  11.821  18.301   4.188
79173W        W47391  13.448  36.099  13.398
79174W        W47392  27.083   1.964   2.864
79175W        W47393   2.438  21.135  11.684
79176W        W47394  34.360   5.946  13.289
79177W        W47395  16.809  41.506   0.430
79178W        W47396  14.618  42.499   3.821
79179W        W47397   9.932  43.477   0.470
79180W        W47398  30.604  34.702   1.250
79181W        W47399  20.173  18.088  14.353
79182W        W47400   1.897   7.255   1.895
79183W        W47401   9.160  10.763   3.532
79184W        W47402  27.561  41.899  11.890
79185W        W47403  13.221  11.806  14.980
79186W        W47404  29.195  37.314  12.903
79187W        W47405  31.560  30.630   1.640
79188W        W47406   2.358  39.060  10.755
79189W        W47407   8.330  10.788   1.473
79190W        W47408   4.444  21.895  11.707
79191W        W47409  24.596  12.287   3.777
79192W        W47410  16.025  42.572  10.800
79193W        W47411   8.114  21.109  13.337
79194W        W47412  21.629  14.706  14.877
79195W        W47413   7.878  32.895   3.283
79196W        W47414   7.203  10.084  10.965
79197W        W47415   2.786   6.546   1.545
79198W        W47416   7.933  35.707   4.242
79199W        W47417   6.962  38.744  11.228
79200W        W47418  19.520   5.897   3.667
79201W        W47419  38.489   4.513  14.336
79202W        W47420  18.077  42.638  14.332
79203W        W47421   4.705  10.543   2.596
79204W        W47422  37.362  36.501  11.424
79205W        W47423  12.510  42.992   1.042
79206W        W47424  34.500  16.466  14.775
79207W        W47425  30.114  40.332   0.869
79208W        W47426  10.903  44.769   2.779
79209W        W47427  34.791  14.783  11.105
79210W        W47428  15.236  18.762   1.919
79211W        W47429   3.515  35.756  12.170
79212W        W47430  31.359   7.232   4.917
79213W        W47431  29.363  35.283  11.167
79214W        W47432   9.112  31.888   0.394
79215W        W47433  25.250  28.170   0.181
79216W        W47434  18.726   4.888   4.783
79217W        W47435  26.701   9.889   2.323
79218W        W47436  18.280  27.534   4.451
79219W        W47437  39.528   9.458  12.049
79220W        W47438  18.350  44.840   1.032
79221W        W47439  21.945   2.391   0.014
79222W        W47440   0.993  10.925  11.989
79223W        W47441  13.858  16.325   4.072
79224W        W47442  26.096  42.010   2.959
79225W        W47443  38.374   7.425  12.881
79226W        W47444  29.591  37.265  13.921
79227W        W47445   3.669  13.733   2.160
79228W        W47446  12.508  12.917   1.612
79229W        W47447  25.941   7.054  12.381
79230W        W47448  22.273  32.855  12.092
79231W        W47449  20.668  11.315  11.673
79232W        W47450  44.897  36.249  12.513
79233W        W47451  12.585  19.307   1.078
79234W        W47452  27.470  20.154  12.609
79235W        W47453  25.165  27.483  13.958
79236W        W47454  35.621  44.026   0.221
79237W        W47455  19.819  20.710  10.969
79238W        W47456  39.796  19.180  12.347
79239W        W47457  13.820  30.611  12.159
79240W        W47458  44.871   7.756  10.751
79241W        W47459   4.623  33.908   3.409
79242W        W47460  32.154  15.352   4.458
79243W        W47461   2.191  33.241   1.189
79244W        W47462  41.097  15.806  12.467
79245W        W47463  13.180   1.007   0.886
79246W        W47464   8.976  28.916   3.147
79247W        W47465  27.278  32.678   1.859
79248W        W47466  21.982  27.459  11.589
79249W        W47467   9.916   9.570  10.874
79250W        W47468  34.413  10.406   3.804
79251W        W47469   6.766  14.282  11.880
79252W        W47470  21.971  29.151  14.424
79253W        W47471   0.849  21.614   0.292
79254W        W47472  24.476  24.930  13.122
79255W        W47473  43.609  42.533  11.005
79256W        W47474  36.549   5.501  14.300
79257W        W47475  23.510  11.387  12.830
79258W        W47476  39.717   5.116   2.699
79259W        W47477  16.846  14.660  12.525
79260W        W47478  12.172  28.801   0.585
79261W        W47479  26.482  13.932  13.456
79262W        W47480  43.322   7.817   1.765
79263W        W47481  19.717  16.598  14.274
79264W        W47482  44.063  22.554  12.329
79265W        W47483  41.032  27.621   2.393
79266W        W47484  42.963  28.280  11.079
79267W        W47485  42.849  39.947   1.791
79268W        W47486  35.103  17.167   4.083
79269W        W47487  42.846   4.676   1.296
79270W        W47488  26.964  42.125   2.728
79271W        W47489   3.940  30.592  10.574
79272W        W47490   0.371  30.949   3.783
79273W        W47491  16.126  13.334  12.449
79274W        W47492  10.140   3.449   3.629
79275W        W47493  34.821  35.506   1.803
79276W        W47494  28.079  30.557   0.217
79277W        W47495  27.185  40.817  13.859
79278W        W47496  37.782  42.753   4.185
79279W        W47497  15.651   4.211   0.773
79280W        W47498   9.958   6.944   1.328
79281W        W47499  25.718  29.950   3.990
79282W        W47500  31.906  21.670   0.942
79283W        W47501  22.530  28.355   3.724
79284W        W47502  38.301   7.951   1.524
79285W        W47503  38.320  26.029   1.059
79286W        W47504  25.070  26.642   1.138
79287W        W47505  21.688  34.139  13.973
79288W        W47506  20.022  14.796   4.424
79289W        W47507  40.096   9.154   1.292
79290W        W47508  39.296  10.212   3.181
79291W        W47509  22.317   6.660  12.062
79292W        W47510  25.187  37.474  10.176
79293W        W47511   1.779   5.663   2.572
79294W        W47512   2.757  41.742  13.388
79295W        W47513  20.255   8.742   4.364
79296W        W47514  36.969   2.037  14.128
79297W        W47515  19.188   4.246   3.140
79298W        W47516  23.525   7.663   1.925
79299W        W47517  13.213  43.837  14.519
79300W        W47518  12.127  21.782   4.060
79301W        W47519   5.831   9.103   1.418
79302W        W47520  16.845  33.229   1.365
79303W        W47521  33.758  35.435   4.121
79304W        W47522  20.011  41.465  14.998
79305W        W47523  10.383  32.964  14.307
79306W        W47524  30.918  34.383  11.353
79307W        W47525  15.708   4.279   2.723
79308W        W47526  37.304   8.889   1.239
79309W        W47527  18.091  20.007  10.738
79310W        W47528   4.427   3.282  10.604
79311W        W47529  36.445   3.917   0.789
79312W        W47530  28.068  34.305  12.472
79313W        W47531  36.249  23.252   4.223
79314W        W47532  18.297  39.899   5.095
79315W        W47533  24.001  10.918  13.428
79316W        W47534  13.220  23.994  10.834
79317W        W47535  21.133  16.965  11.076
79318W        W47536  20.581  30.162  10.683
79319W        W47537  10.676   6.120  10.265
79320W        W47538  37.814  22.595   3.018
79321W        W47539  17.279  21.567  13.339
79322W        W47540   6.795   9.179   2.937
79323W        W47541  30.730  37.401   4.697
79324W        W47542   0.557  40.023   1.283
79325W        W47543   0.772   9.271  11.917
79326W        W47544  19.946   8.358  14.296
79327W        W47545  22.657  19.990   2.595
79328W        W47546  33.391  31.442  14.517
79329W        W47547  30.055  38.950  12.741
79330W        W47548  20.669   6.900  12.665
79331W        W47549  42.374  10.426  13.299
79332W        W47550   6.211  17.800  12.449
79333W        W47551  25.160  43.274  12.835
79334W        W47552  26.006  41.643   2.610
79335W        W47553   0.019  25.981  14.302
79336W        W47554   2.655  22.733  11.201
79337W        W47555  38.504  25.988  11.726
79338W        W47556  20.026  35.363   0.885
79339W        W47557  23.579  31.999  10.886
79340W        W47558   3.025  26.410   2.279
79341W        W47559  41.494   5.962  13.000
79342W        W47560  39.075  25.948   1.408
79343W        W47561  40.446  15.166  11.743
79344W        W47562   5.481  11.159   3.203
79345W        W47563  32.059  28.623  12.029
79346W        W47564   0.604  33.064  10.638
79347W        W47565  38.742  39.782  13.415
79348W        W47566   9.867  44.372  11.634
79349W        W47567  11.617   2.994  14.902
79350W        W47568  43.743  22.150  10.194
79351W        W47569   5.940  39.208  14.653
79352W        W47570  38.833   1.534  14.304
79353W        W47571   4.803  24.756  14.284
79354W        W47572  25.324   7.489  11.106
79355W        W47573   1.330  10.368  13.811
79356W        W47574  13.220  27.467   0.900
79357W        W47575  23.170  15.813  11.560
79358W        W47576   8.181  33.542   4.545
79359W        W47577  28.465  32.080  12.190
79360W        W47578   6.900  12.659  12.137
79361W        W47579   9.230  41.032  10.909
79362W        W47580  13.638  28.953  12.619
79363W        W47581  17.857  20.415  13.167
79364W        W47582   2.810   2.286  10.532
79365W        W47583  38.306  19.736   1.963
79366W        W47584  33.696   0.821   0.321
79367W        W47585  16.694  23.701  11.905
79368W        W47586  10.120  44.984   4.614
79369W        W47587  26.474  24.586   1.497
79370W        W47588   6.930  43.374   0.629
79371W        W47589  37.553  14.425   4.260
79372W        W47590  33.650  24.224   0.220
79373W        W47591  21.205  44.280   3.311
79374W        W47592  15.225  27.122  11.754
79375W        W47593  16.254  17.332  13.844
79376W        W47594   5.415  31.894  14.934
79377W        W47595  21.855  14.522   1.639
79378W        W47596  13.031   9.204   3.428
79379W        W47597   5.860  23.627   3.771
79380W        W47598  40.596  40.019  13.938
79381W        W47599  10.673  13.141  13.797
79382W        W47600  42.812  12.798   3.357
79383W        W47601  29.637  35.016   4.514
79384W        W47602  39.952  32.201   1.689
79385W        W47603  40.614  23.729  14.898
79386W        W47604  34.422  11.943   3.511
79387W        W47605   1.239   5.443  11.481
79388W        W47606   7.357  12.882   0.451
79389W        W47607  25.597  16.843  11.569
79390W        W47608  29.210   0.681  11.792
79391W        W47609  10.849  22.969  14.089
79392W        W47610  15.111  16.813  14.808
79393W        W47611  29.799  26.740  11.856
79394W        W47612  11.803  44.252  10.981
79395W        W47613  39.039  27.577   2.742
79396W        W47614  28.615  13.917   4.637
79397W        W47615  32.477  31.698   1.966
79398W        W47616  23.727  38.990  12.391
79399W        W47617  23.612   5.409   2.404
79400W        W47618  11.806  14.048  10.541
79401W        W47619  42.900  31.463   1.946
79402W        W47620  20.562  15.751   0.414
79403W        W47621   0.830  31.605  14.556
79404W        W47622  28.649  11.052  10.587
79405W        W47623  29.657   2.395  13.836
79406W        W47624  29.551  33.595   0.872
79407W        W47625  36.406   7.401  11.629
79408W        W47626  29.875  14.214  10.263
79409W        W47627  23.702  44.007   4.031
79410W        W47628  11.698  15.004  12.792
79411W        W47629  39.804  18.680   2.372
79412W        W47630   0.722  33.196   2.912
79413W        W47631  38.823  28.505   1.320
79414W        W47632  18.624  42.214  11.864
79415W        W47633  23.797   7.485  14.441
79416W        W47634  29.568  44.283  12.116
79417W        W47635  42.954  12.059   2.706
79418W        W47636   5.905  29.459   3.647
79419W        W47637  34.521   1.115   2.545
79420W        W47638  19.169  19.596  13.862
79421W        W47639   8.765  23.255  13.349
79422W        W47640  37.437   4.967  12.002
79423W        W47641  27.120   2.393  11.996
79424W        W47642  13.264  18.871   1.224
79425W        W47643  42.285  41.042  14.423
79426W        W47644   5.332  43.679  12.473
79427W        W47645  22.690  21.507  13.432
79428W        W47646  36.862   5.104  12.424
79429W        W47647  35.789  23.617   3.259
79430W        W47648   2.043  42.769   0.940
79431W        W47649  20.134  20.077   1.758
79432W        W47650  33.576   1.221  14.798
79433W        W47651  10.450  34.947  12.088
79434W        W47652   3.179  34.887   4.127
79435W        W47653  19.333  37.611  11.451
79436W        W47654  37.768  12.298   0.451
79437W        W47655   1.714  17.998  12.907
79438W        W47656   7.465  24.435  12.970
79439W        W47657  41.183   3.677  14.703
79440W        W47658  30.195   3.804  12.221
79441W        W47659  36.791  43.658  13.283
79442W        W47660  10.696  33.219   0.882
79443W        W47661  39.565  13.078   4.559
79444W        W47662  34.529   9.929   1.872
79445W        W47663  40.968   1.187  11.993
79446W        W47664  12.770  13.216   0.821
79447W        W47665  12.579  41.123  11.402
79448W        W47666  30.013  43.985   3.129
79449W        W47667   3.887  28.580   0.512
79450W        W47668  32.861  17.737  14.917
79451W        W47669  21.159  37.636  10.227
79452W        W47670  31.463  32.362  10.956
79453W        W47671  21.214  15.160   4.579
79454W        W47672  29.460  13.160  11.608
79455W        W47673   5.296   8.770  11.169
79456W        W47674  11.933  23.293  10.998
79457W        W47675   8.171  14.078   5.320
79458W        W47676  34.036  31.832   2.346
79459W        W47677  12.402   2.676  11.106
79460W        W47678   4.447  26.787   0.959
79461W        W47679  13.152  34.435  12.976
79462W        W47680  19.061  17.780  10.814
79463W        W47681  12.855  19.958   2.336
79464W        W47682   9.614  26.036   3.437
79465W        W47683  40.062  37.263   3.674
79466W        W47684  13.659   0.082  11.675
79467W        W47685  36.838   5.824  11.854
79468W        W47686  29.924   9.564  13.845
79469W        W47687   3.880  14.117  13.155
79470W        W47688  15.674   8.273   0.860
79471W        W47689  27.649  44.809  10.738
79472W        W47690  19.880   0.529   1.845
79473W        W47691   8.242  37.883   2.214
79474W        W47692  27.851   3.731   2.969
79475W        W47693  35.058  42.567  12.335
79476W        W47694  27.632  11.685   2.293
79477W        W47695  28.084  25.019   3.722
79478W        W47696  43.604  41.712  12.841
79479W        W47697  16.292  43.831  13.491
79480W        W47698  33.444  11.275  11.853
79481W        W47699   1.687   3.342  12.245
79482W        W47700  13.368  35.165   4.116
79483W        W47701  31.799   7.601  13.132
79484W        W47702  40.081  29.502  12.743
79485W        W47703  33.585   7.251   3.651
79486W        W47704  30.591  15.588  11.996
79487W        W47705  33.423  27.055  14.330
79488W        W47706  31.355  13.809   3.619
79489W        W47707   3.611  16.895   1.999
79490W        W47708   1.841  28.620  14.636
79491W        W47709   0.268   3.743   0.514
79492W        W47710  42.679  34.683  14.058
79493W        W47711  34.420   8.294  13.949
79494W        W47712  15.323   6.070  14.874
79495W        W47713  31.972  18.132  12.671
79496W        W47714   8.466  42.761   4.652
79497W        W47715  26.997   0.963  14.714
79498W        W47716  40.611  29.078  11.647
79499W        W47717  37.338  33.453  12.465
79500W        W47718  21.875  26.867  14.160
79501W        W47719   5.355  29.137   4.214
79502W        W47720  42.969  43.605   0.168
79503W        W47721   0.313  38.064  12.055
79504W        W47722   1.721  11.323  10.940
79505W        W47723  32.965   2.278   4.261
79506W        W47724  25.535  12.935   0.013
79507W        W47725  20.305   8.675   0.038
79508W        W47726  41.720  13.711  14.656
79509W        W47727   8.597  29.484  14.825
79510W        W47728  23.785  12.223  13.236
79511W        W47729  11.226  10.373   2.069
79512W        W47730   0.771  31.998  11.535
79513W        W47731  12.922  41.234   4.178
79514W        W47732  28.158  32.964   4.220
79515W        W47733   5.443  19.546  12.598
79516W        W47734  37.257  18.086   0.965
79517W        W47735  13.431  15.536   0.858
79518W        W47736  25.762   5.268   2.231
79519W        W47737  36.575  40.282  11.630
79520W        W47738  21.768  15.206  14.803
79521W        W47739  25.997   3.204   1.912
79522W        W47740  30.666  35.995  12.843
79523W        W47741  23.130  41.477  12.113
79524W        W47742  19.424   3.451  11.176
79525W        W47743  15.893   1.279  10.954
79526W        W47744   2.680  21.167   1.277
79527W        W47745  30.885  10.198   0.852
79528W        W47746  32.430  22.171   0.512
79529W        W47747   9.043  30.371   1.485
79530W        W47748   8.158  16.793  14.462
79531W        W47749  12.421  18.663   2.690
79532W        W47750  29.363   9.138  11.968
79533W        W47751  20.269  43.789   1.940
79534W        W47752  13.761  12.392  13.083
79535W        W47753  11.843   6.422  12.895
79536W        W47754  23.375   6.815   0.695
79537W        W47755  16.724   6.855  11.247
79538W        W47756   1.995  39.047  12.028
79539W        W47757  32.048  24.975  12.442
79540W        W47758   1.978  35.206   1.382
79541W        W47759  39.841  27.779   4.119
79542W        W47760   4.831  11.542  14.608
79543W        W47761  21.634  13.170   2.801
79544W        W47762  28.672  35.800   1.328
79545W        W47763  19.882  41.271   1.829
79546W        W47764  27.885  12.683  10.082
79547W        W47765  35.658  44.345  12.494
79548W        W47766  30.317  20.222   2.414
79549W        W47767  31.343  12.542  14.694
79550W        W47768   8.412   3.982   4.553
79551W        W47769   8.890  22.794  13.531
79552W        W47770   3.223  44.092  12.105
79553W        W47771  21.037   1.894   3.532
79554W        W47772  42.356  21.604   4.596
79555W        W47773  32.170  26.969  10.703
79556W        W47774  12.741  42.335   3.382
79557W        W47775  44.477   8.639  10.656
79558W        W47776  40.416  33.686  13.485
79559W        W47777  27.565  42.511  14.306
79560W        W47778  18.618  41.434  14.373
79561W        W47779  16.175  24.940  14.346
79562W        W47780  15.576  27.192   0.746
79563W        W47781   1.097  35.750   4.076
79564W        W47782  24.971  38.494   3.676
79565W        W47783  19.121   1.677  14.765
79566W        W47784   5.709   0.924   0.847
79567W        W47785  36.521  22.478  13.961
79568W        W47786  32.909  25.692  14.814
79569W        W47787   5.474  42.464   2.799
79570W        W47788  43.313  24.683  14.788
79571W        W47789   8.852  22.162   1.503
79572W        W47790  16.126  42.927  14.736
79573W        W47791   9.548  34.390  12.280
79574W        W47792  16.161  28.224   1.464
79575W        W47793  13.342  39.584   1.820
79576W        W47794  15.765  32.378  14.417
79577W        W47795  39.456  13.596   0.075
79578W        W47796   0.910  24.623   4.139
79579W        W47797   8.346  20.820   1.315
79580W        W47798  32.414   2.274  10.407
79581W        W47799   5.222  12.943  14.041
79582W        W47800  41.687  17.658   0.659
79583W        W47801  17.790  31.592   0.658
79584W        W47802  43.230  39.941   1.377
79585W        W47803  24.134  34.126  14.604
79586W        W47804   8.440  29.573  13.543
79587W        W47805  39.602   9.750   4.444
79588W        W47806  30.187   2.713   3.248
79589W        W47807  11.705   6.640  11.035
79590W        W47808  25.372   3.467   4.681
79591W        W47809  35.401  22.984   4.490
79592W        W47810   0.949  35.413   1.459
79593W        W47811  38.052  16.316  14.814
79594W        W47812  24.549   3.820   0.046
79595W        W47813  10.340  35.848   4.875
79596W        W47814  38.265  24.707   2.824
79597W        W47815  13.160   5.527  11.243
79598W        W47816   6.085  14.931   4.438
79599W        W47817  20.084  31.462   1.332
79600W        W47818  43.800  42.822  14.863
79601W        W47819  27.003  13.780  13.443
79602W        W47820  34.386   3.104  13.828
79603W        W47821  35.518   3.215  14.735
79604W        W47822  13.275  27.658   0.409
79605W        W47823  14.393   3.641  11.553
79606W        W47824  38.905  35.635  11.576
79607W        W47825  14.788  37.750  12.329
79608W        W47826  26.976  31.451   0.988
79609W        W47827   3.316  41.369  14.767
79610W        W47828  43.103  34.702   0.533
79611W        W47829  16.528  36.293  14.886
79612W        W47830  16.305   6.457  11.942
79613W        W47831  38.515  39.819   1.833
79614W        W47832  25.516   8.333   2.346
79615W        W47833  39.331   7.966  11.983
79616W        W47834  25.342  41.495  14.355
79617W        W47835  18.425  24.022   3.258
79618W        W47836  13.047  27.259  13.326
79619W        W47837  29.747   8.257   2.778
79620W        W47838  43.478  13.061   3.597
79621W        W47839  34.788   6.609   0.950
79622W        W47840  18.171   7.861  13.782
79623W        W47841  12.108  19.563   1.762
79624W        W47842  35.879  42.650  14.444
79625W        W47843  39.939  20.697  11.202
79626W        W47844  16.508  35.802   2.144
79627W        W47845  31.039  39.322  12.823
79628W        W47846  15.914  32.432  12.349
79629W        W47847   5.877  32.505   1.201
79630W        W47848  22.552  42.920  14.711
79631W        W47849  41.299  41.858   4.105
79632W        W47850  34.516  29.615   3.812
79633W        W47851  28.939  43.471   4.546
79634W        W47852  39.613   5.512   4.218
79635W        W47853  12.240  22.236  13.248
79636W        W47854  13.580   6.430  11.585
79637W        W47855  23.063  40.117  14.511
79638W        W47856  28.032  32.224  11.913
79639W        W47857  34.548  42.006   2.760
79640W        W47858  38.485  19.707  14.943
79641W        W47859   8.437  40.308  11.561
79642W        W47860  35.324  21.683  12.352
79643W        W47861  43.335  41.931   1.384
79644W        W47862  12.638   9.613  12.529
79645W        W47863  16.597  42.521   4.183
79646W        W47864  34.138  41.781  13.620
79647W        W47865  39.887  11.363  13.502
79648W        W47866  14.202  22.635   3.142
79649W        W47867  27.691  37.954   1.252
79650W        W47868  17.133  24.952   3.696
79651W        W47869  19.115  33.835   1.806
79652W        W47870  39.262   0.882  13.644
79653W        W47871  37.073  41.392  14.838
79654W        W47872  18.954  29.999   1.770
79655W        W47873  11.406  33.928  11.108
79656W        W47874  20.339   9.276   4.259
79657W        W47875   5.272   4.778  13.820
79658W        W47876  22.182  33.534  12.496
79659W        W47877  41.797  31.398   2.811
79660W        W47878  14.710   8.606   3.170
79661W        W47879   7.924  30.936  13.402
79662W        W47880  18.348  41.933   4.185
79663W        W47881  30.874  40.969  13.970
79664W        W47882  19.232  17.715   4.627
79665W        W47883  24.054  36.438  10.891
79666W        W47884  12.268  30.020   1.536
79667W        W47885  25.708  17.138  10.342
79668W        W47886  26.926   9.917  14.709
79669W        W47887   1.670  31.265  13.821
79670W        W47888   2.822   4.195  12.405
79671W        W47889   8.155  36.119  11.704
79672W        W47890   0.519  29.592   3.614
79673W        W47891   9.902  14.667   3.355
79674W        W47892  13.089  37.200  14.424
79675W        W47893  37.663   5.159   2.245
79676W        W47894  28.975   2.122  11.953
79677W        W47895  43.275  44.247  13.409
79678W        W47896  24.809  10.930  13.953
79679W        W47897   8.708  31.257  14.395
79680W        W47898  17.060  27.160  13.912
79681W        W47899  26.927  14.607  11.456
79682W        W47900  27.219  25.353   1.021
79683W        W47901  39.817  43.654  12.062
79684W        W47902  39.838  11.633  11.586
79685W        W47903   8.409  32.677  11.538
79686W        W47904  23.751  34.696  12.487
79687W        W47905  37.315  30.552  11.353
79688W        W47906   9.164   8.316  11.424
79689W        W47907  44.004  34.936  14.977
79690W        W47908  22.996  11.772   3.126
79691W        W47909  30.650  35.308  12.425
79692W        W47910  22.656  27.407   0.663
79693W        W47911  32.185  18.517  12.395
79694W        W47912  43.470  19.335  13.473
79695W        W47913   9.750  27.723   2.301
79696W        W47914  14.370  10.357  14.761
79697W        W47915  23.745  20.159   1.847
79698W        W47916  40.486  18.974  14.312
79699W        W47917  15.696  15.918  13.678
79700W        W47918  42.042  22.234  13.949
79701W        W47919   7.305  23.788  13.591
79702W        W47920   5.651  35.920  11.487
79703W        W47921  37.728  43.893  11.178
79704W        W47922  26.022   9.553   2.216
79705W        W47923  31.102  25.089  14.017
79706W        W47924   0.342  20.062   2.311
79707W        W47925   7.453  16.596  11.259
79708W        W47926  38.239   7.798  11.138
79709W        W47927  26.117  37.547  13.482
79710W        W47928   7.291  18.579   1.872
79711W        W47929  27.260  12.688   3.441
79712W        W47930   3.925   1.890   0.258
79713W        W47931   1.787  38.545   4.744
79714W        W47932  23.994  16.655   2.595
79715W        W47933  15.690  41.490  12.362
79716W        W47934  12.335  30.624   0.535
79717W        W47935   8.206  41.380  11.230
79718W        W47936  25.455  33.181   3.672
79719W        W47937  41.503  44.185   0.434
79720W        W47938   2.724   4.790  12.368
79721W        W47939  30.500  24.446   3.388
79722W        W47940  20.270   7.385   1.971
79723W        W47941  30.544   1.798  13.439
79724W        W47942   7.509  36.390   4.673
79725W        W47943  34.978  18.205   2.043
79726W        W47944  14.843  36.900   0.416
79727W        W47945  26.536   2.392  10.612
79728W        W47946  34.000  30.994  12.625
79729W        W47947  39.502  17.317  14.844
79730W        W47948  42.276  42.841  14.973
79731W        W47949  40.087  16.308  14.021
79732W        W47950  11.117  44.284   1.410
79733W        W47951  32.009  41.524   2.581
79734W        W47952  15.292  33.112   2.762
79735W        W47953  38.936  35.280   4.650
79736W        W47954   4.240   1.220   1.327
79737W        W47955  40.532  43.231   2.092
79738W        W47956  16.437  32.161  13.944
79739W        W47957  25.545  35.383   1.730
79740W        W47958  34.449  13.219  14.375
79741W        W47959  26.071  13.236  12.577
79742W        W47960  18.717  37.834   0.809
79743W        W47961  44.000  27.308  11.884
79744W        W47962  30.257  39.518  13.712
79745W        W47963  23.546  12.744  11.910
79746W        W47964  36.919   6.796   4.082
79747W        W47965  17.391  20.396   4.588
79748W        W47966  17.124  23.096   1.928
79749W        W47967  13.295  44.269  11.225
79750W        W47968  25.146  26.753   3.743
79751W        W47969  39.353   8.420   1.813
79752W        W47970  42.042   8.702   3.846
79753W        W47971  20.940  14.360   4.184
79754W        W47972  25.893   1.215   4.194
79755W        W47973  10.781  38.853  11.669
79756W        W47974   9.853  17.105  12.188
79757W        W47975  34.577  10.433   1.810
79758W        W47976  32.337  18.128  13.565
79759W        W47977  42.867   6.932   1.189
79760W        W47978   3.973  36.510  14.791
79761W        W47979  14.168  20.704  14.443
79762W        W47980  42.893  20.955   1.736
79763W        W47981   6.017  29.064   4.734
79764W        W47982  33.963  42.425  12.916
79765W        W47983  31.792  10.182  13.485
79766W        W47984  34.562  23.182   4.806
79767W        W47985   7.176  36.445   2.279
79768W        W47986  18.878  34.639  11.098
79769W        W47987  30.992  24.682  13.712
79770W        W47988  38.753  38.064  12.534
79771W        W47989   3.002  17.203   0.230
79772W        W47990   0.734   0.974  13.337
79773W        W47991  12.661  29.583   4.229
79774W        W47992  18.800  41.578  11.223
79775W        W47993   9.736  26.125   2.216
79776W        W47994  40.654  23.208  11.077
79777W        W47995  27.596  40.780  14.860
79778W        W47996   5.039  23.720  13.837
79779W        W47997  35.175  15.211  14.959
79780W        W47998   2.659  11.019   2.625
79781W        W47999  31.582  36.137   4.941
79782W        W48000   4.547   9.763  14.776
79783W        W48001  36.585  34.643  13.893
79784W        W48002  30.352   1.880  10.646
79785W        W48003  19.038  25.239  11.670
79786W        W48004  34.831  28.245  11.165
79787W        W48005  11.968   5.799   0.447
79788W        W48006  12.297   3.418  14.367
79789W        W48007  34.427  32.745  12.506
79790W        W48008  13.626  11.896  10.350
79791W        W48009  40.631  31.835   0.838
79792W        W48010  34.131  44.899  12.934
79793W        W48011  36.276  19.304   4.235
79794W        W48012  28.963  36.133   1.610
79795W        W48013  39.143  10.477  10.598
79796W        W48014  31.577  18.138  10.848
79797W        W48015  38.827  41.119   2.720
79798W        W48016   6.642  28.118  10.975
79799W        W48017  17.360  40.185   1.837
79800W        W48018  31.407  26.229   1.776
79801W        W48019  43.133  35.768   5.019
79802W        W48020  16.568  20.273  13.416
79803W        W48021   8.229   5.919   1.017
79804W        W48022  14.257  31.347   4.882
79805W        W48023  40.228  32.536  13.901
79806W        W48024   7.630  36.615   3.184
79807W        W48025   6.737   2.969   3.229
79808W        W48026  41.465  31.456   4.123
79809W        W48027   6.710  33.175  13.090
79810W        W48028  36.609  38.826   1.848
79811W        W48029  36.488  11.593   4.656
79812W        W48030   7.410  32.102  13.040
79813W        W48031  28.694  18.869  10.960
79814W        W48032   5.546  17.717   4.608
79815W        W48033  43.230  43.576   1.865
79816W        W48034  30.428  40.742   0.797
79817W        W48035  28.090  10.814  14.846
79818W        W48036  23.167  36.031   2.858
79819W        W48037  26.291  39.153   1.185
79820W        W48038  22.769  19.906  13.392
79821W        W48039  11.102  44.203   3.417
79822W        W48040   9.344  11.156   4.351
79823W        W48041  19.489   9.726   0.871
79824W        W48042  22.070   5.372   2.416
79825W        W48043  38.089  30.618  14.291
79826W        W48044  31.786   1.149   2.703
79827W        W48045  38.132  33.435   3.247
79828W        W48046   8.944  26.148   2.677
79829W        W48047  35.551   6.902   2.274
79830W        W48048  44.308  17.726  11.438
79831W        W48049   2.813  32.953  13.464
79832W        W48050  29.471  18.700  10.336
79833W        W48051  19.355  17.575   3.480
79834W        W48052  44.784  35.889  13.645
79835W        W48053  39.933   9.904  13.297
79836W        W48054  41.651  35.441  12.167
79837W        W48055  13.289   3.792  13.343
79838W        W48056  38.417  10.942   3.714
79839W        W48057  18.716  40.792  11.595
79840W        W48058  33.839  19.516   1.702
79841W        W48059   2.437  34.481  14.087
79842W        W48060   9.440   4.213  11.584
79843W        W48061  29.844   5.806   2.315
79844W        W48062  32.155  44.311   3.683
79845W        W48063   6.832  39.777  11.011
79846W        W48064  18.225  24.741  13.440
79847W        W48065  15.412  35.623   2.497
79848W        W48066  26.098   1.839  11.459
79849W        W48067  26.469  30.591   1.922
79850W        W48068  44.080   7.014  14.344
79851W        W48069  32.835  41.826  12.429
79852W        W48070   0.445  12.019   3.656
79853W        W48071  34.531   0.360   1.305
79854W        W48072  25.748  10.245  10.679
79855W        W48073  21.050  23.935   0.791
79856W        W48074  11.303  36.581  12.927
79857W        W48075  29.897  39.539   3.213
79858W        W48076   9.917  17.856  12.937
79859W        W48077  35.402  35.320   0.963
79860W        W48078   0.639  44.269   0.264
79861W        W48079  12.853  21.218   1.853
79862W        W48080  18.587  22.516   0.520
79863W        W48081  42.529  43.237   4.477
79864W        W48082  42.829  44.352   3.091
79865W        W48083  43.519  17.272  12.401
79866W        W48084   4.792  15.602  12.147
79867W        W48085  39.214  13.090   2.289
79868W        W48086  40.541  28.828   1.263
79869W        W48087   8.163  40.025   4.178
79870W        W48088   4.255  43.060   3.974
79871W        W48089  39.346  37.276   1.586
79872W        W48090  39.837  30.100  12.000
79873W        W48091   4.661   5.748  13.198
79874W        W48092  18.065  21.240   1.492
79875W        W48093  40.718  37.645  14.494
79876W        W48094  33.653  24.165   1.149
79877W        W48095  15.787  25.479  14.785
79878W        W48096   2.899   6.128  10.954
79879W        W48097  30.490   6.322  12.847
79880W        W48098   5.380  21.999   0.182
79881W        W48099  14.416   0.964  10.790
79882W        W48100  39.412  32.324   2.722
79883W        W48101  24.242  16.337   2.899
79884W        W48102  34.374  19.831   4.416
79885W        W48103  23.561  41.491  12.416
79886W        W48104  29.005  17.390   5.038
79887W        W48105  16.199  28.659   4.542
79888W        W48106  19.110   6.714   2.193
79889W        W48107   6.533  32.258   2.760
79890W        W48108  32.545  11.756  11.695
79891W        W48109  37.031  27.108  11.947
79892W        W48110  44.064  37.094   2.423
79893W        W48111  30.672   0.326   1.792
79894W        W48112  43.752  25.674  11.976
79895W        W48113  30.661  40.228   1.157
79896W        W48114  11.156   8.750  13.067
79897W        W48115   0.502  37.604  13.457
79898W        W48116  44.275  35.318  14.782
79899W        W48117  14.664   8.174  14.830
79900W        W48118  33.087  23.722  13.520
79901W        W48119  10.661   8.141   2.629
79902W        W48120  27.139  23.207   4.140
79903W        W48121  11.019  33.868  12.054
79904W        W48122  15.621   6.301  11.869
79905W        W48123  18.827  31.604  12.010
79906W        W48124  15.245   6.257   2.910
79907W        W48125   9.666  35.610   1.369
79908W        W48126  33.154   9.747  10.785
79909W        W48127   0.279  26.013  12.558
79910W        W48128  35.099  17.682  13.277
79911W        W48129  12.733  20.697   1.855
79912W        W48130   3.517  35.908  13.380
79913W        W48131  20.085  24.708   4.685
79914W        W48132   0.678   2.705   1.448
79915W        W48133   4.225   1.211   4.008
79916W        W48134  37.649  23.008  11.031
79917W        W48135  36.383   1.036  14.471
79918W        W48136  33.101  11.876   1.355
79919W        W48137  41.833   6.227  13.983
79920W        W48138  41.881  42.222  11.689
79921W        W48139   1.914  23.326   0.751
79922W        W48140   2.341  15.366  14.414
79923W        W48141  20.923   7.720  13.481
79924W        W48142  44.103  33.485   0.911
79925W        W48143  20.043  18.612  12.910
79926W        W48144   7.936  38.342   2.797
79927W        W48145  18.115  15.675  11.151
79928W        W48146   0.912  34.670  12.622
79929W        W48147  40.539  26.417   1.822
79930W        W48148   9.661  18.664   3.733
79931W        W48149   9.279  42.418  11.897
79932W        W48150  30.154  26.223   2.836
79933W        W48151  16.640  42.390  14.247
79934W        W48152  25.519   5.679   3.231
79935W        W48153   5.735  40.911  11.005
79936W        W48154  10.056  22.522   4.589
79937W        W48155   3.317  18.131   3.695
79938W        W48156  36.156  26.423  12.453
79939W        W48157  37.038  23.776  12.961
79940W        W48158  10.567  17.169  13.702
79941W        W48159  40.048  25.668  13.074
79942W        W48160  18.962  38.950   3.151
79943W        W48161  38.609  25.883  10.735
79944W        W48162  43.894  27.385  12.534
79945W        W48163  16.638   6.025  13.453
79946W        W48164  14.697  26.031  11.637
79947W        W48165  38.131  17.247  11.211
79948W        W48166  34.874  42.933   4.656
79949W        W48167  21.296  16.809  14.948
79950W        W48168  18.448  12.624   4.930
79951W        W48169  43.213   7.658  14.992
79952W        W48170   6.560  44.080   5.124
79953W        W48171  25.570  35.597  14.052
79954W        W48172  26.598   4.756   1.492
79955W        W48173   6.236  38.938   2.386
79956W        W48174   3.748  13.172   4.683
79957W        W48175  37.492  10.680  14.309
79958W        W48176  35.852  32.142   0.488
79959W        W48177  10.915  19.734  12.986
79960W        W48178  33.937  34.893   4.757
79961W        W48179  12.875   0.378   1.874
79962W        W48180  29.508  12.904   0.377
79963W        W48181  12.598  29.931  11.546
79964W        W48182  21.288  29.099   2.865
79965W        W48183  41.964  28.012   2.474
79966W        W48184  43.886  18.637  13.592
79967W        W48185   9.811  13.225  12.074
79968W        W48186   4.599   5.466   0.392
79969W        W48187  12.826  32.042  12.159
79970W        W48188  30.548   7.407   1.905
79971W        W48189  26.177  24.144   1.311
79972W        W48190  42.497   2.457  11.586
79973W        W48191   9.387  35.006  12.971
79974W        W48192  15.735  22.228  12.116
79975W        W48193  42.585   1.415  12.942
79976W        W48194  35.595   2.452   2.761
79977W        W48195  20.455  18.182  14.885
79978W        W48196  17.516   4.808  11.733
79979W        W48197  13.666  36.873  12.862
79980W        W48198   6.727  34.000   1.839
79981W        W48199  27.542  40.058   3.292
79982W        W48200  13.599  22.750  11.935
79983W        W48201   4.698  12.344   2.761
79984W        W48202  43.499  19.504   4.125
79985W        W48203  44.215  28.954  12.940
79986W        W48204  42.972  34.493   3.504
79987W        W48205  25.628  22.607  11.840
79988W        W48206  10.629  41.968  13.476
79989W        W48207   0.251  23.270  12.342
79990W        W48208  19.670  26.064   4.876
79991W        W48209  33.988  39.903  11.192
79992W        W48210  11.195  29.851  13.885
79993W        W48211   4.507  34.455  14.473
79994W        W48212  12.336  18.378   1.447
79995W        W48213  15.733   2.325   3.797
79996W        W48214   3.786  39.293  10.580
79997W        W48215   0.707  16.886  12.501
79998W        W48216  37.212  15.076  11.965
79999W        W48217  41.211  27.088  13.359
80000W        W48218  26.661   0.744   0.364
80001W        W48219  26.167   5.744   0.884
80002W        W48220  40.962  14.576  11.146
80003W        W48221   8.453   8.947  13.441
80004W        W48222  11.248  13.848  12.048
80005W        W48223   3.275  20.604  11.569
80006W        W48224  14.731   5.476  11.632
80007W        W48225  38.532  35.851   0.618
80008W        W48226   5.414   6.607   1.903
80009W        W48227   6.928  40.516   3.794
80010W        W48228  28.928  29.262   0.907
80011W        W48229  43.355  30.911   2.815
80012W        W48230  21.786  34.423   2.257
80013W        W48231  35.166   7.994  12.340
80014W        W48232  37.869   2.996   1.298
80015W        W48233  22.405   1.728  13.609
80016W        W48234  27.941  40.971   3.250
80017W        W48235  44.513  16.642   0.431
80018W        W48236  14.762   9.995   4.124
80019W        W48237  39.816  36.779   3.824
80020W        W48238  38.288  20.657   0.743
80021W        W48239   5.344  26.765  11.004
80022W        W48240   1.214  19.230   3.575
80023W        W48241  13.738  12.896   0.422
80024W        W48242  16.716   8.948   3.125
80025W        W48243   8.354  42.745   3.558
80026W        W48244  44.198   9.376  13.315
80027W        W48245  27.336  13.398  10.245
80028W        W48246  33.235   9.648   4.792
80029W        W48247  15.139  20.515  12.037
80030W        W48248  15.647  26.020   3.231
80031W        W48249   0.036   7.090  11.239
80032W        W48250   7.720  32.740   0.385
80033W        W48251  18.305  14.168  11.217
80034W        W48252  37.537  13.779   4.968
80035W        W48253  17.401   5.179  13.603
80036W        W48254   1.767  40.960  11.629
80037W        W48255  38.156  11.831  14.723
80038W        W48256  30.528  27.771   0.832
80039W        W48257   5.791  29.332  11.520
80040W        W48258  12.769  31.066   1.232
80041W        W48259  35.978  13.297   3.261
80042W        W48260   8.352   1.760   0.998
80043W        W48261   3.931  30.536  13.092
80044W        W48262  41.124  32.062  10.186
80045W        W48263  32.136  37.563  11.232
80046W        W48264   5.890  10.774  13.998
80047W        W48265  38.113  18.469   1.867
80048W        W48266  12.322  29.141   2.489
80049W        W48267  29.677  35.625   3.683
80050W        W48268   2.725  37.355  14.083
80051W        W48269   8.278   8.865   4.110
80052W        W48270  13.727  30.221   4.068
80053W        W48271  20.667  13.537   3.665
80054W        W48272   2.325  12.680   2.300
80055W        W48273  13.868   0.386   1.561
80056W        W48274  20.561  35.428   2.772
80057W        W48275  18.062  11.272  11.663
80058W        W48276   8.319  34.822   5.018
80059W        W48277  40.384   8.874   0.810
80060W        W48278  44.923  25.163  11.913
80061W        W48279   9.740  10.808   4.255
80062W        W48280  21.599   4.523   2.009
80063W        W48281  37.907   0.738  12.041
80064W        W48282   5.791  20.044   4.704
80065W        W48283  41.322  28.185   0.392
80066W        W48284  28.644   2.480   3.816
80067W        W48285   6.319  36.004  11.159
80068W        W48286  41.887  44.327   0.729
80069W        W48287  44.621  18.085   4.777
80070W        W48288  14.817  33.471  13.879
80071W        W48289   3.321   6.855  11.921
80072W        W48290  22.957  29.911  12.993
80073W        W48291  28.869  32.690   2.858
80074W        W48292  30.003  18.195  13.062
80075W        W48293  32.822  26.240   1.946
80076W        W48294  38.746  22.494  13.391
80077W        W48295   0.486  28.314   1.838
80078W        W48296   9.516  11.613   4.528
80079W        W48297  10.519  16.249  10.950
80080W        W48298  10.702   4.110  13.722
80081W        W48299   4.866  20.360  12.052
80082W        W48300  31.926  44.947   4.719
80083W        W48301   1.395  28.494  11.121
80084W        W48302  25.978   2.081   2.944
80085W        W48303  14.211  33.074  14.492
80086W        W48304  27.992  34.343   3.665
80087W        W48305  38.021   0.496  14.001
80088W        W48306  41.248  17.152  14.357
80089W        W48307  13.693  20.512  11.585
80090W        W48308  40.919   5.457  11.461
80091W        W48309  14.646  29.129  14.220
80092W        W48310  14.682  18.528  13.860
80093W        W48311   0.499  12.059  10.439
80094W        W48312   1.213  39.145  14.941
80095W        W48313   4.615   0.185   0.371
80096W        W48314  29.705  14.437  11.981
80097W        W48315  35.206  15.734  14.265
80098W        W48316  15.997  32.362   0.779
80099W        W48317   3.868  22.623   0.297
80100W        W48318  42.595  16.658   2.790
80101W        W48319  43.986   7.897   2.145
80102W        W48320   4.669  32.570  14.071
80103W        W48321  23.833  35.978  13.743
80104W        W48322  24.627  23.842  11.133
80105W        W48323   5.990  19.723  12.528
80106W        W48324  19.731  15.860  11.965
80107W        W48325  42.856  28.745   3.584
80108W        W48326  30.445  20.631  11.483
80109W        W48327   1.754  23.733  11.622
80110W        W48328  21.541  22.191   0.300
80111W        W48329  27.796  37.681   9.792
80112W        W48330  13.673  28.122  12.186
80113W        W48331  19.273  11.010   3.430
80114W        W48332  42.997   0.790  14.085
80115W        W48333   7.843  44.670  14.461
80116W        W48334  11.827  25.093   0.462
80117W        W48335  28.399  13.317  13.507
80118W        W48336   7.870  18.551  10.325
80119W        W48337  23.536  27.821  11.323
80120W        W48338  11.044  39.057  10.373
80121W        W48339  23.523  25.450  12.368
80122W        W48340   8.883  15.158  14.666
80123W        W48341  43.518  24.257   3.211
80124W        W48342  32.585  34.096  12.560
80125W        W48343   0.883  41.810   0.267
80126W        W48344  15.426  10.660   4.073
80127W        W48345  24.512  38.399   1.672
80128W        W48346   7.032  38.782   1.181
80129W        W48347  43.691  40.103   4.049
80130W        W48348  16.551  34.069  13.490
80131W        W48349  16.326  33.200  10.418
80132W        W48350   2.276  37.298  12.427
80133W        W48351  29.417  33.546  10.761
80134W        W48352   7.004   9.815   0.757
80135W        W48353  13.025   3.206   4.592
80136W        W48354  24.656   2.905  11.013
80137W        W48355  41.383  34.437  12.701
80138W        W48356  20.251  33.410   5.535
80139W        W48357  10.880  13.772   1.390
80140W        W48358  38.502  32.439  11.328
80141W        W48359  11.714   5.166  11.203
80142W        W48360  11.770  37.510  10.553
80143W        W48361   6.172   0.316  10.950
80144W        W48362  40.013  44.299  14.190
80145W        W48363  29.687   1.369  13.150
80146W        W48364  41.844  17.873   3.905
80147W        W48365   9.697  34.051  11.415
80148W        W48366  15.288  21.111   4.460
80149W        W48367  30.183  30.852   2.436
80150W        W48368  11.668   0.048  11.231
80151W        W48369  10.618   2.304  12.206
80152W        W48370  11.739  29.546  14.943
80153W        W48371  19.190  40.001   4.211
80154W        W48372  16.127   5.635  14.994
80155W        W48373  17.731  19.091  11.623
80156W        W48374  13.862  19.103  11.573
80157W        W48375  30.911  20.916   2.723
80158W        W48376  35.922  42.585   5.052
80159W        W48377  31.415  25.674   4.260
80160W        W48378  29.116  32.122   5.048
80161W        W48379  41.837  43.989  14.935
80162W        W48380   3.761  16.644   0.399
80163W        W48381  26.127  43.792  13.029
80164W        W48382  20.694  17.313   3.809
80165W        W48383  26.124  11.751  12.587
80166W        W48384  26.107  13.760  10.196
80167W        W48385  20.124  34.676  11.087
80168W        W48386  34.011  32.501  12.651
80169W        W48387   3.302  30.543  12.333
80170W        W48388  29.916  38.253   3.253
80171W        W48389  36.793   2.765  11.514
80172W        W48390   6.661  12.339   2.687
80173W        W48391  37.306  33.441  10.274
80174W        W48392  21.968   9.830  11.883
80175W        W48393  39.725  39.766  13.056
80176W        W48394  34.153  30.551  13.949
80177W        W48395  42.313  14.932  10.759
80178W        W48396  38.508  25.101   1.932
80179W        W48397   4.426  37.182  14.260
80180W        W48398  44.366  13.401   3.336
80181W        W48399  37.403  11.719  11.846
80182W        W48400   9.283   3.344  14.673
80183W        W48401   0.843  18.083  12.769
80184W        W48402   1.443  40.190  14.759
80185W        W48403  17.060   1.331   5.149
80186W        W48404  24.577  26.134  12.205
80187W        W48405  43.284   7.242  10.144
80188W        W48406   6.591  35.493  12.018
80189W        W48407  29.309  36.296  11.024
80190W        W48408  34.905  34.652   2.422
80191W        W48409   0.217  10.945   5.035
80192W        W48410   7.682  22.698   0.843
80193W        W48411  39.435  31.379   3.662
80194W        W48412   4.715  14.160  11.045
80195W        W48413  33.869  16.589   4.170
80196W        W48414  11.801  12.249   2.417
80197W        W48415  17.873  30.577  11.050
80198W        W48416   6.526  11.472  14.951
80199W        W48417  24.220  41.249  10.358
80200W        W48418  32.500   1.000  11.981
80201W        W48419  41.689  32.832  11.227
80202W        W48420  12.147  29.968  11.895
80203W        W48421  41.326  23.960  13.067
80204W        W48422  13.874  20.420   3.114
80205W        W48423  42.645  15.071  12.066
80206W        W48424  28.079  29.664  14.841
80207W        W48425  21.096   6.336   1.740
80208W        W48426  20.303  18.629   4.334
80209W        W48427  17.372   4.778  10.979
80210W        W48428   1.230  23.675  11.557
80211W        W48429  29.164  17.987   4.707
80212W        W48430  28.180  41.392   4.064
80213W        W48431  38.512  38.736  11.672
80214W        W48432  21.245  41.923   4.331
80215W        W48433  18.915  24.106   3.172
80216W        W48434  19.129   4.276  12.604
80217W        W48435  22.444  11.664   5.026
80218W        W48436   7.351  39.560   3.295
80219W        W48437  12.716  37.746   2.002
80220W        W48438  17.842  39.551   2.271
80221W        W48439  40.750  14.233  12.874
80222W        W48440   5.536  27.554  10.656
80223W        W48441  16.636  11.823  13.831
80224W        W48442   8.201  38.783   0.908
80225W        W48443  41.766   7.104  14.335
80226W        W48444  15.312  14.994   0.001
80227W        W48445  40.407  29.455   1.427
80228W        W48446  12.796  29.520   0.267
80229W        W48447   9.253  32.451  10.485
80230W        W48448  37.847  11.706  13.264
80231W        W48449  27.490  44.317  13.857
80232W        W48450  22.139  23.263  12.938
80233W        W48451  25.190  42.212   4.126
80234W        W48452   2.739  19.619  11.113
80235W        W48453  10.899   7.295   3.570
80236W        W48454  39.128   2.222  11.822
80237W        W48455  19.062  20.698  11.492
80238W        W48456  41.463  27.629   0.427
80239W        W48457  35.935  11.385   2.406
80240W        W48458  23.219  42.799  11.986
80241W        W48459  30.918  39.435  10.653
80242W        W48460  30.944  13.266   1.447
80243W        W48461  27.159  19.696  13.286
80244W        W48462  22.729  25.388   4.988
80245W        W48463  32.449  42.475  13.899
80246W        W48464   5.266  43.925  10.801
80247W        W48465  24.388   0.670   1.934
80248W        W48466   6.301  23.641  14.538
80249W        W48467  34.017  25.070   4.401
80250W        W48468  41.585  13.814  11.920
80251W        W48469  36.154   6.309  12.590
80252W        W48470   6.904  27.239   4.310
80253W        W48471  10.605  28.489  14.164
80254W        W48472  30.573  44.934   2.413
80255W        W48473  33.779  22.103  14.976
80256W        W48474  35.087  24.877  11.990
80257W        W48475  36.350   8.800  14.384
80258W        W48476  39.365  21.657   0.808
80259W        W48477   0.424  10.846   2.918
80260W        W48478   1.478  11.687  11.972
80261W        W48479  13.448  17.747  10.653
80262W        W48480   5.182  37.511   1.302
80263W        W48481  18.075   1.648  11.882
80264W        W48482  39.822  27.520   4.587
80265W        W48483  25.608  10.827   0.467
80266W        W48484  14.320  11.935   4.977
80267W        W48485   0.257  18.728   4.491
80268W        W48486  41.433  32.583   3.187
80269W        W48487  13.632  26.940  13.464
80270W        W48488  37.462  22.775  12.828
80271W        W48489  28.617  12.249   1.820
80272W        W48490   1.526  24.004   0.314
80273W        W48491  32.710  39.959  13.463
80274W        W48492  37.334  20.250  13.302
80275W        W48493   0.855  25.490  14.002
80276W        W48494  15.138  22.021   1.791
80277W        W48495  10.277   0.945   2.973
80278W        W48496  16.558  17.162   1.656
80279W        W48497  25.800  27.546   1.959
80280W        W48498   2.069  30.991  13.957
80281W        W48499  30.624  29.385  14.384
80282W        W48500  10.566   6.104  13.751
80283W        W48501  20.763  31.864  14.676
80284W        W48502   5.107  18.725  12.960
80285W        W48503  41.389  16.648   3.578
80286W        W48504   3.602  13.714  13.335
80287W        W48505  15.859  29.049   4.452
80288W        W48506  23.618  27.520   4.186
80289W        W48507  44.577  31.816   0.264
80290W        W48508   9.245   0.744   1.033
80291W        W48509   5.196  16.232   2.902
80292W        W48510  16.476  11.210   1.526
80293W        W48511  16.248  27.012   2.233
80294W        W48512  41.753  11.654   2.929
80295W        W48513  41.862  17.862  12.458
80296W        W48514  41.579   0.400  11.510
80297W        W48515  20.194  33.344   3.787
80298W        W48516  39.792  34.079   3.032
80299W        W48517  11.630  12.670   2.674
80300W        W48518   7.674  28.708  10.270
80301W        W48519   6.388  41.086   0.369
80302W        W48520   2.749  22.656  12.877
80303W        W48521   6.350  43.753   5.480
80304W        W48522   8.823  35.593   4.842
80305W        W48523  11.135  39.343   2.825
80306W        W48524  21.259   9.550  14.319
80307W        W48525  43.501   1.817  13.746
80308W        W48526  39.552  36.322   3.967
80309W        W48527  31.372  25.471   0.692
80310W        W48528  43.453   9.682   1.287
80311W        W48529   7.817   1.366   4.377
80312W        W48530  14.783  43.430   0.849
80313W        W48531  24.175  24.855   1.336
80314W        W48532  20.239  24.883  12.467
80315W        W48533  15.671  14.529   3.647
80316W        W48534  30.053  42.053  11.083
80317W        W48535  14.038  36.387  11.858
80318W        W48536  28.392  36.990   1.834
80319W        W48537  29.907  12.865   0.718
80320W        W48538  32.087  23.977  11.189
80321W        W48539  32.493  20.784  11.946
80322W        W48540  36.417  21.204  10.706
80323W        W48541  36.548  23.591   0.751
80324W        W48542  23.813  24.476  12.378
80325W        W48543  33.786  25.582   2.847
80326W        W48544  14.549  30.949  12.682
80327W        W48545  16.764   4.426   4.236
80328W        W48546  16.758  34.983   0.631
80329W        W48547  15.993  38.877   2.793
80330W        W48548  15.338  23.832   2.896
80331W        W48549   4.545  15.110   3.729
80332W        W48550  18.772  30.353   0.278
80333W        W48551   1.376  28.611   1.338
80334W        W48552  12.078  17.474  14.845
80335W        W48553  41.457  33.897  10.525
80336W        W48554  24.503  28.405   0.378
80337W        W48555   6.232  41.038  11.164
80338W        W48556  20.936  26.289  12.682
80339W        W48557  14.803  27.112   2.790
80340W        W48558  26.770  42.449  12.090
80341W        W48559  37.654  25.259   3.818
80342W        W48560   3.265  38.608   4.412
80343W        W48561  40.407  38.059  14.572
80344W        W48562  12.928   7.613  14.930
80345W        W48563  24.167  32.536  13.802
80346W        W48564  34.084   8.845   4.246
80347W        W48565   4.321  34.595  11.846
80348W        W48566  34.591  29.003  12.638
80349W        W48567   3.786   1.025  12.139
80350W        W48568  11.444   8.305  13.391
80351W        W48569  32.921  36.349   0.948
80352W        W48570  22.279   8.250  11.957
80353W        W48571  39.794  26.541  14.462
80354W        W48572   4.642  31.693  13.523
80355W        W48573  41.483  17.667   1.607
80356W        W48574  41.763  41.850  12.482
80357W        W48575  43.203  17.480   4.133
80358W        W48576  35.142  25.668  11.381
80359W        W48577  41.258   5.476  14.924
80360W        W48578  17.066   3.488  13.376
80361W        W48579  40.759   5.686   0.700
80362W        W48580   6.252  12.822  14.790
80363W        W48581  37.599  13.131   3.702
80364W        W48582  34.483  32.119   3.206
80365W        W48583   8.318  34.576   1.020
80366W        W48584  12.443   5.007   1.782
80367W        W48585  32.467   3.989   0.925
80368W        W48586  39.549  26.754  14.997
80369W        W48587  20.986  32.669  14.222
80370W        W48588  12.831  42.643  14.712
80371W        W48589  18.190   8.442  10.339
80372W        W48590  23.485  43.762   4.431
80373W        W48591  35.125  11.022  14.483
80374W        W48592   3.452  36.653  13.828
80375W        W48593  32.942   1.009   4.024
80376W        W48594   8.621  43.308  13.996
80377W        W48595  28.976  37.384   1.758
80378W        W48596  30.476  14.762   4.090
80379W        W48597   2.042  10.468  12.652
80380W        W48598  13.618  33.447  14.858
80381W        W48599  14.439  30.419  11.870
80382W        W48600  31.049  34.423   1.235
80383W        W48601   4.357  25.838  12.983
80384W        W48602  10.250  36.395  12.886
80385W        W48603   0.810  14.204  10.788
80386W        W48604  41.527   5.774  13.848
80387W        W48605  26.931  26.451  14.941
80388W        W48606  43.629   9.796  14.747
80389W        W48607  40.942  42.968  12.893
80390W        W48608  28.186  27.873   0.456
80391W        W48609  40.859  16.551  11.989
80392W        W48610   3.854  15.625   2.041
80393W        W48611  36.177  21.291  11.513
80394W        W48612  35.889  19.628  12.414
80395W        W48613  21.536  44.965  14.865
80396W        W48614   6.064  44.400  10.973
80397W        W48615  11.300  34.401  11.242
80398W        W48616  34.392  20.694   2.160
80399W        W48617  28.281  39.710  12.976
80400W        W48618  13.666  27.068   1.809
80401W        W48619  35.373   3.578   2.021
80402W        W48620   8.220  11.827  13.390
80403W        W48621  37.516  28.328   3.863
80404W        W48622  37.447  21.313  11.251
80405W        W48623  42.206  20.258   1.271
80406W        W48624  31.745   1.202  11.644
80407W        W48625  37.108   1.057  13.265
80408W        W48626  27.705  18.979  11.201
80409W        W48627   1.745  38.298  11.663
80410W        W48628  28.681  11.473  15.000
80411W        W48629   0.597  15.333  12.590
80412W        W48630   3.695  12.568   4.971
80413W        W48631  24.654   6.160   2.491
80414W        W48632  31.045   3.804   2.258
80415W        W48633   0.416  25.214  14.075
80416W        W48634  31.941  19.350   2.807
80417W        W48635  34.668   0.443  13.784
80418W        W48636  37.749   2.009   2.740
80419W        W48637   7.769  40.271   4.439
80420W        W48638   4.737  39.286   1.362
80421W        W48639  38.090  44.128  10.843
80422W        W48640   1.673   5.866   0.714
80423W        W48641  14.847  26.693   3.102
80424W        W48642  25.129  29.517  13.881
80425W        W48643  40.423  18.136   4.578
80426W        W48644  42.188  36.153   4.444
80427W        W48645  22.404  41.541  13.882
80428W        W48646  40.107  18.110  11.212
80429W        W48647  31.576  30.467   2.143
80430W        W48648  18.347  31.404   4.650
80431W        W48649   1.548  32.711  12.079
80432W        W48650  35.808  31.596  11.750
80433W        W48651  41.795  34.896   3.357
80434W        W48652   1.154   2.730  14.158
80435W        W48653  19.930  31.547  14.671
80436W        W48654  43.606  29.892  11.536
80437W        W48655  19.278  44.325  14.957
80438W        W48656  13.126  27.147   2.249
80439W        W48657   2.132  34.819  13.876
80440W        W48658  13.394   3.462  10.866
80441W        W48659   5.862  40.228   1.270
80442W        W48660  37.828  21.482   1.084
80443W        W48661  35.552  10.943  14.789
80444W        W48662   8.746  12.376   3.265
80445W        W48663  30.701   6.726   5.275
80446W        W48664  40.881   0.439  10.314
80447W        W48665  35.502  20.523   0.299
80448W        W48666   7.419   7.699   1.231
80449W        W48667  12.987  13.562   3.001
80450W        W48668  40.494  22.217   2.389
80451W        W48669  16.642  30.512   0.381
80452W        W48670   1.734   4.865   1.440
80453W        W48671  15.177  13.926   2.388
80454W        W48672  29.520  16.605   2.643
80455W        W48673   6.330  27.734   2.421
80456W        W48674  35.776   8.227   0.666
80457W        W48675  26.098  21.485  12.064
80458W        W48676  18.184  34.470  13.065
80459W        W48677   3.557   0.459   4.283
80460W        W48678  39.928  27.882   4.975
80461W        W48679  15.570  13.807  11.478
80462W        W48680  18.015   2.808  11.178
80463W        W48681  36.353  22.049   0.429
80464W        W48682  35.969  16.789  12.020
80465W        W48683   9.932  39.833  13.634
80466W        W48684  22.502  17.351   1.407
80467W        W48685   0.268   5.452   4.175
80468W        W48686  35.199  33.504   0.112
80469W        W48687  34.618  32.490   4.711
80470W        W48688  27.413  41.824   4.381
80471W        W48689  31.088   5.608  12.677
80472W        W48690  42.458   3.992  14.839
80473W        W48691  11.836  23.073  11.461
80474W        W48692  13.372   2.965   2.619
80475W        W48693  27.456  10.680   2.058
80476W        W48694  39.468  30.455   1.775
80477W        W48695  14.057  13.591  10.692
80478W        W48696   1.786   8.111  14.071
80479W        W48697  43.553  22.309  11.483
80480W        W48698  37.830  31.567  13.992
80481W        W48699  40.676   6.724   3.197
80482W        W48700   2.658  16.708   4.214
80483W        W48701  27.987  34.182  11.411
80484W        W48702   0.931  12.291   2.313
80485W        W48703  15.643  17.327  10.615
80486W        W48704  33.261  17.348  13.611
80487W        W48705   8.654  40.447  12.631
80488W        W48706   6.256  23.184  14.788
80489W        W48707  12.388  43.698  11.236
80490W        W48708  18.682  11.703   0.146
80491W        W48709  35.528  27.750  11.409
80492W        W48710  44.550  12.203   0.641
80493W        W48711  19.646  34.020   3.851
80494W        W48712  11.695  10.432   4.646
80495W        W48713  13.036  17.671  14.933
80496W        W48714  40.704  41.336   3.224
80497W        W48715  37.983  33.939   3.071
80498W        W48716   2.449  15.830   4.559
80499W        W48717  14.887  33.901  11.967
80500W        W48718   2.407  26.922   1.287
80501W        W48719   0.417  38.082  14.000
80502W        W48720  30.993  28.067   1.799
80503W        W48721  42.977   5.204  12.991
80504W        W48722   7.603  33.635  12.496
80505W        W48723  35.127  13.385   4.138
80506W        W48724  27.869  40.517  10.709
80507W        W48725  43.321   5.265  12.163
80508W        W48726  23.171  39.903  12.007
80509W        W48727  18.419   9.720   4.169
80510W        W48728  21.154  44.817   3.364
80511W        W48729  23.157  44.861  11.448
80512W        W48730  27.265  32.314  14.887
80513W        W48731  25.555  25.378  13.405
80514W        W48732   0.252   6.506  11.922
80515W        W48733  17.234   0.791  14.379
80516W        W48734  35.060   8.931  10.701
80517W        W48735  44.007  40.785   0.567
80518W        W48736  12.118   7.341  14.455
80519W        W48737  35.198  16.287  14.470
80520W        W48738   6.308  41.870   2.498
80521W        W48739  30.142  28.696   0.903
80522W        W48740  27.749  16.780  10.461
80523W        W48741  36.079  21.008  14.328
80524W        W48742  18.154  23.638  12.418
80525W        W48743  20.524  31.900  14.195
80526W        W48744  11.452  42.743  13.977
80527W        W48745  36.612  13.289   2.679
80528W        W48746   1.856  38.065  13.061
80529W        W48747   2.009  11.947   3.580
80530W        W48748  25.573   0.786   1.775
80531W        W48749   3.228  27.904   4.905
80532W        W48750  33.743   8.917   1.309
80533W        W48751  38.911   6.349   2.456
80534W        W48752  39.669  26.902   1.283
80535W        W48753  16.084  12.532   4.536
80536W        W48754  19.209  34.045   1.354
80537W        W48755  21.965  16.049  12.125
80538W        W48756   0.257  25.043  14.532
80539W        W48757  38.575  11.857  10.976
80540W        W48758  34.141  36.040  12.992
80541W        W48759  28.936   4.182   4.013
80542W        W48760   4.942  10.258  13.111
80543W        W48761   6.235  11.681   4.551
80544W        W48762  37.570  32.800   0.868
80545W        W48763   2.381  26.681   0.823
80546W        W48764  29.927  34.500  13.559
80547W        W48765   1.998  31.385   0.253
80548W        W48766   9.867   0.013   1.000
80549W        W48767  16.254   6.806  10.976
80550W        W48768  16.169  13.156   2.122
80551W        W48769  30.380  27.041   4.791
80552W        W48770   7.045   5.172  11.063
80553W        W48771  16.345  28.146  12.170
80554W        W48772  32.816  23.553   3.715
80555W        W48773  15.784  27.866  11.484
80556W        W48774  16.636  32.237   2.759
80557W        W48775   2.895  19.867  12.639
80558W        W48776  22.615  29.141  14.404
80559W        W48777   1.283  15.581   3.627
80560W        W48778  22.966  31.701   3.732
80561W        W48779  22.243  39.305   0.322
80562W        W48780  12.372   2.093  12.138
80563W        W48781  21.629  22.012   2.561
80564W        W48782  39.216   6.258  10.165
80565W        W48783   7.883  12.713  13.282
80566W        W48784  36.554  10.202  11.863
80567W        W48785  37.895  18.767  13.428
80568W        W48786  42.174  41.492   0.283
80569W        W48787  10.376  15.002  11.666
80570W        W48788  33.446  19.526   4.577
80571W        W48789  18.540  31.423   3.571
80572W        W48790  18.290  24.796  10.732
80573W        W48791  21.973  28.476  10.813
80574W        W48792  43.479  34.941  14.942
80575W        W48793  30.452  42.775   0.699
80576W        W48794  40.720  31.478  12.158
80577W        W48795  15.790  40.897   1.289
80578W        W48796   9.684   8.957   4.079
80579W        W48797  21.449  43.886  13.860
80580W        W48798  24.739  36.965   1.498
80581W        W48799  22.273   0.955   4.958
80582W        W48800  25.482  22.017  12.891
80583W        W48801   2.906   1.832  14.306
80584W        W48802  13.953  12.875   3.835
80585W        W48803  38.658   4.283   5.054
80586W        W48804  13.001  30.481  12.144
80587W        W48805  11.962  11.794  12.516
80588W        W48806  24.752  17.417  14.230
80589W        W48807   7.436  18.257   0.471
80590W        W48808  13.147  24.412  14.319
80591W        W48809   4.887  38.648  10.890
80592W        W48810  19.016  40.410   2.990
80593W        W48811  34.869  18.315   5.060
80594W        W48812  14.699  14.170  13.965
80595W        W48813  17.240  41.586  14.312
80596W        W48814  30.406   1.132  14.084
80597W        W48815  24.456  22.177   1.401
80598W        W48816  13.864   8.146   4.752
80599W        W48817  22.228  40.442   3.234
80600W        W48818  28.106  22.749   3.594
80601W        W48819  23.945  27.576  13.424
80602W        W48820  44.208  17.766   2.758
80603W        W48821  40.693  40.302  10.915
80604W        W48822  44.403   6.153   0.380
80605W        W48823  31.867  22.058  13.747
80606W        W48824  19.525   7.689  12.978
80607W        W48825  39.968   0.154  12.105
80608W        W48826  29.017  15.187  13.517
80609W        W48827   9.136  13.152  13.411
80610W        W48828   1.966   7.812   4.404
80611W        W48829   0.401   9.219  14.919
80612W        W48830  14.739  25.061   0.500
80613W        W48831  24.313  24.034  13.939
80614W        W48832   6.575  28.277  13.111
80615W        W48833   7.293  41.362   4.174
80616W        W48834   2.641  44.748   0.324
80617W        W48835  20.075  41.264   3.243
80618W        W48836   4.171  30.980  13.775
80619W        W48837  11.134  27.575   3.965
80620W        W48838  44.478  13.651   0.822
80621W        W48839   4.321   2.761  10.387
80622W        W48840  39.551  29.025   3.838
80623W        W48841  41.259  44.419   3.874
80624W        W48842  37.848  34.470   2.211
80625W        W48843  11.243  41.354  12.868
80626W        W48844  13.652  26.185   0.896
80627W        W48845  43.131  38.993  10.086
80628W        W48846   9.663  28.105  13.721
80629W        W48847  38.613  18.525   1.778
80630W        W48848   2.498  13.168   0.130
80631W        W48849   6.824  20.792   4.881
80632W        W48850   0.611  10.640  11.807
80633W        W48851  25.447  14.624  11.874
80634W        W48852  19.110  15.809   0.362
80635W        W48853  25.119  12.153  12.429
80636W        W48854  30.544   1.714   0.676
80637W        W48855  31.947  24.276  13.783
80638W        W48856  38.816  16.659  11.419
80639W        W48857  21.602  11.246  14.777
80640W        W48858  13.197   2.293   1.772
80641W        W48859  36.456   5.892   1.419
80642W        W48860   5.690  44.966  13.067
80643W        W48861  38.789  31.629  10.969
80644W        W48862   4.836  39.879  12.411
80645W        W48863  44.403  39.033  11.661
80646W        W48864  11.755  11.850   0.465
80647W        W48865  11.655   9.878  11.657
80648W        W48866  14.532  23.265  13.935
80649W        W48867  25.597  40.829   2.293
80650W        W48868  13.840  15.220  11.314
80651W        W48869   8.118  29.528   4.118
80652W        W48870  11.792   5.263  13.617
80653W        W48871  21.578  42.948   3.684
80654W        W48872  21.659  42.860  14.160
80655W        W48873   3.428   7.816   0.030
80656W        W48874  24.590  13.092  11.542
80657W        W48875  33.495   9.280  10.122
80658W        W48876  42.992  43.978   4.698
80659W        W48877  21.471   3.882  14.516
80660W        W48878  20.264  17.247   4.125
80661W        W48879   1.118  26.186   2.287
80662W        W48880   4.672  12.037   5.069
80663W        W48881   7.963  11.363   0.900
80664W        W48882  39.318  15.071  14.164
80665W        W48883  41.857  14.086  12.800
80666W        W48884   1.016  14.192   3.946
80667W        W48885   7.314  22.529  13.782
80668W        W48886  23.972  11.275  14.251
80669W        W48887  28.692  21.031  11.597
80670W        W48888  20.589  10.386   2.278
80671W        W48889  34.800  26.899   5.416
80672W        W48890  36.784   4.223   3.324
80673W        W48891  33.166   1.061   2.708
80674W        W48892  20.779  28.051  14.851
80675W        W48893   2.715  34.474   0.718
80676W        W48894   6.820   3.025   1.727
80677W        W48895   1.017  43.393  11.926
80678W        W48896  40.941   6.111  12.806
80679W        W48897   1.389   3.390  14.870
80680W        W48898   3.550  30.015  12.144
80681W        W48899  18.080  23.094  12.392
80682W        W48900  32.481   0.036   4.671
80683W        W48901   2.992   6.863  14.685
80684W        W48902  15.286  14.642  13.514
80685W        W48903  22.397  22.551   2.872
80686W        W48904  26.112  13.557   4.627
80687W        W48905  43.094  19.114  11.708
80688W        W48906   7.954  22.755  14.472
80689W        W48907  15.399   6.706   2.712
80690W        W48908  26.352  23.896  12.850
80691W        W48909   2.896  32.672  13.914
80692W        W48910  18.557  22.062   1.301
80693W        W48911  24.068  26.577   0.449
80694W        W48912  26.966  29.051  14.847
80695W        W48913  25.040  34.074  12.562
80696W        W48914   3.845  22.386   1.435
80697W        W48915  44.065   4.833   4.711
80698W        W48916  24.582  44.828  14.923
80699W        W48917  25.733  15.770  11.549
80700W        W48918  43.302  21.687  11.073
80701W        W48919  23.582  17.819  11.501
80702W        W48920  42.206  37.483  13.955
80703W        W48921  23.307  35.457  11.043
80704W        W48922  23.078  14.414   1.429
80705W        W48923  16.085  17.080  11.860
80706W        W48924   8.752  10.450  14.868
80707W        W48925  40.502  30.504   2.840
80708W        W48926  33.618   0.945   9.799
80709W        W48927   9.821  11.336  14.836
80710W        W48928  44.608  23.558  13.630
80711W        W48929   5.530   9.712   2.601
80712W        W48930   0.085  40.078  11.972
80713W        W48931  31.851  11.564   2.361
80714W        W48932  19.297   4.778   1.890
80715W        W48933  39.217  44.085   1.618
80716W        W48934  36.128  24.576   3.287
80717W        W48935  10.126  38.843   0.955
80718W        W48936   3.118  20.882  11.979
80719W        W48937  21.437  36.576   3.401
80720W        W48938  16.684   6.178   1.708
80721W        W48939  21.368   8.210  12.106
80722W        W48940  41.233   4.194  11.157
80723W        W48941  17.186   4.293   3.438
80724W        W48942  29.147  21.229   0.830
80725W        W48943  35.170   5.423  14.227
80726W        W48944  12.371  16.152  14.685
80727W        W48945  34.346   5.278   0.780
80728W        W48946   0.347  38.422   1.424
80729W        W48947  36.051  31.697   3.101
80730W        W48948  18.301  11.863  12.955
80731W        W48949  33.217  38.408   2.654
80732W        W48950   2.356   8.615  12.050
80733W        W48951   1.282  38.191   1.750
80734W        W48952  18.312  23.708  13.521
80735W        W48953   8.260  37.358   2.246
80736W        W48954  26.140   4.824  10.339
80737W        W48955   9.218  17.798  13.875
80738W        W48956  41.049  13.748   1.387
80739W        W48957  36.362  24.533   1.882
80740W        W48958   9.157  33.460   2.718
80741W        W48959  20.941  24.414   1.010
80742W        W48960  18.097   1.149   2.797
80743W        W48961  44.448  10.707   1.377
80744W        W48962  37.999  34.141   1.784
80745W        W48963  36.394  28.882   0.326
80746W        W48964  28.833  39.547  12.054
80747W        W48965  33.491   9.663   1.924
80748W        W48966   3.472  13.630   1.188
80749W        W48967   2.016   9.325  12.448
80750W        W48968  43.719   3.309   2.261
80751W        W48969  16.249  30.672   0.050
80752W        W48970   9.156  16.397   2.315
80753W        W48971  12.675  30.569  14.043
80754W        W48972  27.792  44.036   2.187
80755W        W48973  21.373   2.884  13.465
80756W        W48974   7.744   6.516  11.518
80757W        W48975  21.556   6.928   2.343
80758W        W48976  24.280  43.710   0.756
80759W        W48977  29.222   6.955  14.902
80760W        W48978  42.394  25.712   0.947
80761W        W48979  23.951   5.250   4.164
80762W        W48980  20.818   0.761   3.707
80763W        W48981   6.328   3.782  13.457
80764W        W48982  19.643  26.960   3.795
80765W        W48983  19.095  24.516  13.090
80766W        W48984  41.518  21.211  10.629
80767W        W48985  26.237  24.907  11.515
80768W        W48986  28.168   2.312  10.775
80769W        W48987  33.612  35.777   4.489
80770W        W48988  15.710  40.400   1.431
80771W        W48989   1.820  38.434   1.365
80772W        W48990  23.542  25.624  11.896
80773W        W48991  12.377  22.695  14.585
80774W        W48992  37.885  10.930   3.014
80775W        W48993  27.875  11.705   1.812
80776W        W48994  16.589   9.381  12.539
80777W        W48995   3.258  38.572  13.786
80778W        W48996  27.775  11.454   0.323
80779W        W48997  22.203   6.874   3.210
80780W        W48998  14.826  14.367   3.787
80781W        W48999  41.824  25.584  12.331
80782W        W49000   8.778   9.201  10.663
80783W        W49001  40.546  12.853   2.197
80784W        W49002   5.888  28.245  14.804
80785W        W49003   1.549   3.508  13.034
80786W        W49004  34.767   9.941   1.216
80787W        W49005  32.849  16.755   3.353
80788W        W49006   6.359  36.837   3.889
80789W        W49007  19.671  31.244   0.460
80790W        W49008  35.418   6.056  11.916
80791W        W49009   7.688   3.772   2.142
80792W        W49010  30.469  10.178  10.713
80793W        W49011  11.258   9.102  12.374
80794W        W49012  34.287  44.360   2.267
80795W        W49013  29.625   4.683  14.049
80796W        W49014  41.213  10.682  12.119
80797W        W49015  44.851  38.916  14.369
80798W        W49016  20.259  34.540  14.257
80799W        W49017  30.594  34.189   1.305
80800W        W49018  27.538  36.106   0.647
80801W        W49019  29.252  39.949   0.392
80802W        W49020   1.355  40.430   3.850
80803W        W49021  22.856  44.233  12.150
80804W        W49022   6.941  24.471  13.092
80805W        W49023  29.621  24.208  13.343
80806W        W49024  20.078  33.833   0.954
80807W        W49025  33.421   2.936  14.816
80808W        W49026   6.509  22.450   3.143
80809W        W49027  34.580  14.204   0.223
80810W        W49028  35.055   4.446   1.667
80811W        W49029  30.930  33.871   4.176
80812W        W49030   3.116  41.771   1.478
80813W        W49031  28.543  20.106   0.913
80814W        W49032  14.589  15.780   4.032
80815W        W49033   0.933  34.939   4.356
80816W        W49034   4.778   0.511   0.750
80817W        W49035  19.261  19.163   3.755
80818W        W49036  40.214  19.704   2.720
80819W        W49037   3.737   2.702   4.550
80820W        W49038  32.622   6.048   2.304
80821W        W49039  19.798  19.807  13.126
80822W        W49040  40.026  34.002   4.535
80823W        W49041  12.626  16.638  12.351
80824W        W49042   0.032  20.261  14.420
80825W        W49043  37.356  22.071  10.660
80826W        W49044   6.641  29.879  14.498
80827W        W49045  24.165  25.719  11.127
80828W        W49046  33.019   6.199  14.387
80829W        W49047   7.631   7.695  11.246
80830W        W49048  34.002  35.014  11.855
80831W        W49049  23.804  35.044   0.451
80832W        W49050  11.692   9.354  12.510
80833W        W49051  14.224  19.494   1.798
80834W        W49052   7.454  19.576   2.739
80835W        W49053  15.183  43.097   4.940
80836W        W49054   0.785  15.540   3.826
80837W        W49055  32.981  21.590   4.808
80838W        W49056  16.146  32.491   2.762
80839W        W49057  22.782  30.902  13.259
80840W        W49058   5.492  15.767   2.819
80841W        W49059  36.017  35.390  14.007
80842W        W49060  42.431  23.571  10.930
80843W        W49061  10.856  20.351  11.655
80844W        W49062  31.625  21.749  11.112
80845W        W49063  29.445  44.366   2.434
80846W        W49064  22.087  29.178  11.197
80847W        W49065  18.715   6.625  12.928
80848W        W49066   7.691   5.455  14.966
80849W        W49067  15.291  15.439   2.703
80850W        W49068  31.871   3.909  13.504
80851W        W49069   3.191  25.413   1.152
80852W        W49070   5.574  19.801  11.148
80853W        W49071  36.084  33.426   0.039
80854W        W49072   9.795  22.548  12.634
80855W        W49073   3.231  11.299  13.928
80856W        W49074  11.752  11.253  10.732
80857W        W49075  37.361  37.396  10.393
80858W        W49076   6.486  15.698  13.761
80859W        W49077  32.677  20.479  13.907
80860W        W49078   0.910  17.521   1.672
80861W        W49079  29.742  33.100  12.554
80862W        W49080  20.951   1.951   1.449
80863W        W49081   7.259  14.749   1.222
80864W        W49082  26.883  18.799  13.540
80865W        W49083   0.822  37.026   2.561
80866W        W49084   7.607  28.822  14.337
80867W        W49085  12.885   3.335   2.311
80868W        W49086  23.506   3.395  13.001
80869W        W49087  32.506  27.639   3.026
80870W        W49088  15.841  18.066  13.769
80871W        W49089   3.774  18.184  13.233
80872W        W49090   0.283  29.194  10.724
80873W        W49091  34.362  13.555  14.763
80874W        W49092  37.406  26.222  13.846
80875W        W49093  27.963   0.713  11.289
80876W        W49094  27.629  26.436   2.749
80877W        W49095   7.816  31.152   4.874
80878W        W49096  14.581  37.991   2.238
80879W        W49097  12.811  11.447  14.202
80880W        W49098   9.212  38.620   0.463
80881W        W49099  22.303   9.127  12.445
80882W        W49100  34.157  42.837   4.642
80883W        W49101  32.822   4.411  11.249
80884W        W49102  33.414  10.908  13.051
80885W        W49103  17.200  41.207   0.257
80886W        W49104  18.218  44.021  14.022
80887W        W49105   1.174  39.192  11.990
80888W        W49106  38.366  11.658  12.650
80889W        W49107  25.153  18.107  12.880
80890W        W49108  43.581  10.613   4.387
80891W        W49109   7.309  11.210   4.470
80892W        W49110  40.962   1.473  14.224
80893W        W49111  15.654   8.668   4.979
80894W        W49112  22.778  27.866   3.710
80895W        W49113  29.870  29.089   0.702
80896W        W49114  21.971  41.758  11.285
80897W        W49115  13.492  26.692   4.075
80898W        W49116  13.141  44.510  13.319
80899W        W49117  27.742  35.982  13.961
80900W        W49118  30.623   5.793   4.462
80901W        W49119  18.034  21.229  10.656
80902W        W49120  44.754  33.392  10.142
80903W        W49121  13.206  35.521   2.839
80904W        W49122   7.788  23.207   0.689
80905W        W49123  35.514   2.499  10.021
80906W        W49124  40.397   5.838   2.671
80907W        W49125  36.893  15.797  10.668
80908W        W49126  40.260  40.015  13.056
80909W        W49127  23.835  39.856   1.014
80910W        W49128  13.739  38.786  12.880
80911W        W49129  40.334  34.129  13.226
80912W        W49130  28.645  41.632  11.055
80913W        W49131  25.851   4.803  11.351
80914W        W49132  12.163  44.816   4.202
80915W        W49133  13.113  41.848  14.464
80916W        W49134  28.416  27.239   4.517
80917W        W49135  43.311  20.465  12.153
80918W        W49136  44.720  39.977  11.106
80919W        W49137  37.086  30.094   1.329
80920W        W49138   7.396  26.979   4.321
80921W        W49139  10.819   2.378   1.318
80922W        W49140  39.485  43.304  14.004
80923W        W49141  18.052  24.531   2.240
80924W        W49142  11.654  44.881   3.902
80925W        W49143  21.455   1.460   2.863
80926W        W49144  10.874  16.318   2.676
80927W        W49145  17.182  25.636  12.082
80928W        W49146  12.749  44.718   4.118
80929W        W49147  41.790  33.254  13.508
80930W        W49148  29.343  33.941   2.391
80931W        W49149  31.462  14.178   2.650
80932W        W49150  24.240  22.227  13.953
80933W        W49151  44.886  32.894  14.039
80934W        W49152   7.974  36.815  13.415
80935W        W49153  10.306  28.700   4.315
80936W        W49154  13.237  18.374   1.450
80937W        W49155  27.894  15.756  12.493
80938W        W49156  16.346  21.556  11.357
80939W        W49157  30.960  35.349  14.251
80940W        W49158   6.160  28.014  12.903
80941W        W49159  20.966  36.577   3.187
80942W        W49160   6.339   4.683  10.675
80943W        W49161  30.369   1.666  11.104
80944W        W49162  25.342   6.865   3.155
80945W        W49163  16.161  39.252   1.998
80946W        W49164   6.314  24.027   1.677
80947W        W49165  13.709  17.195  11.461
80948W        W49166  39.305   2.727   2.764
80949W        W49167   6.490  11.149   3.219
80950W        W49168  18.153  33.942   3.329
80951W        W49169  16.786  34.138  12.201
80952W        W49170   7.914  10.914   2.232
80953W        W49171  43.717  13.691   1.326
80954W        W49172  40.029   9.038   0.230
80955W        W49173  19.985   0.956   2.192
80956W        W49174   2.958  15.124   1.865
80957W        W49175  21.480  23.443   2.192
80958W        W49176   5.118  18.824  12.066
80959W        W49177  43.428  41.393  13.615
80960W        W49178  43.745  29.551  13.423
80961W        W49179  32.392   4.480   1.763
80962W        W49180  34.145  24.994   0.565
80963W        W49181  39.847  14.174  11.838
80964W        W49182   1.658  42.146   4.118
80965W        W49183  14.121  25.523   4.590
80966W        W49184  13.186  44.431   1.206
80967W        W49185  26.531  14.090   4.005
80968W        W49186  20.157  26.665  13.956
80969W        W49187  39.651  15.761  12.032
80970W        W49188  25.117  32.591  13.912
80971W        W49189  32.253  17.227  11.598
80972W        W49190   3.969  40.512   1.436
80973W        W49191  24.075  42.447  10.652
80974W        W49192  43.960   5.441   3.451
80975W        W49193  44.557   7.240  14.374
80976W        W49194   2.013  10.715   0.470
80977W        W49195  36.250  43.822   1.490
80978W        W49196  40.665   4.018   4.803
80979W        W49197  16.042  28.320  14.480
80980W        W49198  35.692   8.086  11.365
80981W        W49199  34.114  26.406   4.565
80982W        W49200  14.844  43.731  10.764
80983W        W49201   2.848  36.388   2.282
80984W        W49202   7.796  30.145  14.519
80985W        W49203  43.629  44.772   4.028
80986W        W49204   6.210   0.695   1.808
80987W        W49205  41.984  23.576   4.547
80988W        W49206  42.404   4.806  12.143
80989W        W49207   7.876  29.905  11.599
80990W        W49208   0.387  14.608  11.896
80991W        W49209   5.797  28.380  12.132
80992W        W49210  34.421  37.918   2.811
80993W        W49211   4.241  36.502  14.329
80994W        W49212  31.322  40.289  13.343
80995W        W49213   1.837  44.713   3.853
80996W        W49214   3.170  41.019  13.912
80997W        W49215   9.635  19.022  12.076
80998W        W49216  17.928  40.057   2.325
80999W        W49217  10.939  10.499  14.798
81000W        W49218  14.800  13.799  12.810
81001W        W49219  25.627  11.526  13.416
81002W        W49220  36.840   6.597   4.546
81003W        W49221  38.922   8.234  10.847
81004W        W49222  40.058  25.851  14.922
81005W        W49223  32.165  23.627   1.892
81006W        W49224   7.586  33.289   4.018
81007W        W49225  18.640  35.851   2.310
81008W        W49226  13.344   1.168  10.861
81009W        W49227  27.807  14.566   3.097
81010W        W49228  33.592  15.407  12.030
81011W        W49229  20.977  23.483   1.964
81012W        W49230  41.846  11.405   4.075
81013W        W49231   0.890  36.552   2.819
81014W        W49232  35.431   0.456  12.882
81015W        W49233   1.239  24.109  14.380
81016W        W49234  17.680   7.785   3.364
81017W        W49235   8.521  14.280  13.812
81018W        W49236  22.517  39.006  12.387
81019W        W49237  23.033  10.706  12.404
81020W        W49238  17.672  33.018   3.407
81021W        W49239  16.651  13.582  13.198
81022W        W49240  40.499  22.230   4.622
81023W        W49241  21.232  17.796   4.870
81024W        W49242  34.654  43.028   0.766
81025W        W49243  12.838  29.149   4.480
81026W        W49244  35.599  23.480  11.107
81027W        W49245  10.590  18.853   3.667
81028W        W49246  36.211  19.604  12.014
81029W        W49247  33.279  43.696   2.318
81030W        W49248   7.315  42.702   3.613
81031W        W49249  40.221   8.307  11.182
81032W        W49250  16.771  18.226   4.074
81033W        W49251   0.902  16.184   2.128
81034W        W49252  41.007  20.763   3.224
81035W        W49253  43.014   0.410   1.823
81036W        W49254  38.153  35.804   2.245
81037W        W49255  21.734  25.699  11.891
81038W        W49256  31.087  44.823   1.695
81039W        W49257   6.733  11.382   3.615
81040W        W49258  38.748  44.284   4.630
81041W        W49259  41.512   8.369   3.260
81042W        W49260  22.189  29.454  11.978
81043W        W49261  15.631   5.826  13.527
81044W        W49262  20.513   0.905  12.973
81045W        W49263  26.956  40.901   4.145
81046W        W49264   2.840  24.949  12.011
81047W        W49265  42.951   0.307  13.868
81048W        W49266  19.527   5.699  13.277
81049W        W49267   2.668  32.340   0.338
81050W        W49268  33.702   3.120   4.555
81051W        W49269   5.800  20.960  13.289
81052W        W49270  17.318  35.050  14.899
81053W        W49271   8.831  37.254   3.680
81054W        W49272   8.324  23.082   1.793
81055W        W49273  28.395  31.672   4.113
81056W        W49274  28.507  25.018   4.075
81057W        W49275  44.394   2.970   3.321
81058W        W49276  10.928  40.430  12.989
81059W        W49277   1.368  24.995  11.970
81060W        W49278   0.897  38.787   4.531
81061W        W49279  43.022   4.599  13.919
81062W        W49280  28.105  36.763  12.112
81063W        W49281  21.701  36.613   3.869
81064W        W49282   4.971  13.608  11.183
81065W        W49283  44.309  32.110  11.191
81066W        W49284  42.477  42.701   4.401
81067W        W49285  37.037  21.554  12.500
81068W        W49286   1.800  41.689   3.946
81069W        W49287  37.904  39.504   3.777
81070W        W49288  27.140   5.177  11.288
81071W        W49289  18.511  44.565  13.344
81072W        W49290  35.651  34.160   3.382
81073W        W49291  24.943  36.647  11.724
81074W        W49292  31.455  42.639  10.836
81075W        W49293  17.180  22.614   2.159
81076W        W49294  41.813  44.839  12.085
81077W        W49295  34.646  18.720   0.705
81078W        W49296   1.759  40.272  11.067
81079W        W49297  39.415  23.216  14.274
81080W        W49298  13.180  32.552   1.308
81081W        W49299  42.975  31.163  14.724
81082W        W49300   4.726  42.148  11.366
81083W        W49301  13.854  40.583   1.390
81084W        W49302  17.214   7.760   3.601
81085W        W49303   4.383  12.527  10.884
81086W        W49304  35.690  26.647   2.168
81087W        W49305   2.894  38.506   1.294
81088W        W49306  21.945  29.124   0.773
81089W        W49307  30.167   7.632  13.083
81090W        W49308   3.934   0.963  13.058
81091W        W49309   4.346   6.228  12.782
81092W        W49310  12.757  12.364  12.875
81093W        W49311  13.097  37.723  12.879
81094W        W49312  30.613  21.661  10.622
81095W        W49313  29.110   4.769  13.932
81096W        W49314  26.232  33.882  13.611
81097W        W49315  33.742  38.447   2.735
81098W        W49316   4.748  24.935  14.746
81099W        W49317  24.213   2.684  11.100
81100W        W49318  42.373  25.161  11.429
81101W        W49319  36.857  15.466   4.863
81102W        W49320  27.256  36.477   3.840
81103W        W49321  27.030  37.798   0.905
81104W        W49322  26.191  40.025   3.231
81105W        W49323  16.871  13.766   2.783
81106W        W49324  25.931  32.951   3.786
81107W        W49325  13.663  38.943   5.199
81108W        W49326  30.499  35.139   3.227
81109W        W49327  34.805  35.391  12.866
81110W        W49328  39.542   6.609   0.336
81111W        W49329  36.311   2.788  11.840
81112W        W49330  36.667  27.172   3.813
81113W        W49331  40.047  35.998   1.971
81114W        W49332  40.826  41.783   3.020
81115W        W49333  27.006   8.879   0.054
81116W        W49334   2.034  27.794  12.488
81117W        W49335  19.924  29.497   0.468
81118W        W49336  27.460   0.043  13.245
81119W        W49337  14.487  22.340  13.101
81120W        W49338   2.201  22.653   0.708
81121W        W49339  34.269   9.344   0.803
81122W        W49340  33.005  15.697   4.579
81123W        W49341   7.842  11.685  10.741
81124W        W49342  23.213  18.539  14.247
81125W        W49343  40.328  10.144  12.460
81126W        W49344  21.587  10.440   0.990
81127W        W49345  33.898  18.570  12.936
81128W        W49346  38.286  42.860  11.152
81129W        W49347   9.257   8.155  13.502
81130W        W49348  10.182  29.329  12.222
81131W        W49349  39.087  23.632  14.908
81132W        W49350  20.389   4.653   4.815
81133W        W49351  12.382  37.374  13.289
81134W        W49352   8.931  12.379   4.238
81135W        W49353  37.997  25.070   2.179
81136W        W49354  34.707  14.700   4.097
81137W        W49355  24.054  22.014   0.244
81138W        W49356   2.309  38.461   4.672
81139W        W49357  40.390  23.780  10.809
81140W        W49358  22.593  25.934  10.668
81141W        W49359   9.192   3.662   2.710
81142W        W49360  13.251  18.851  10.869
81143W        W49361  25.136  18.304  11.882
81144W        W49362  17.850  36.079  11.591
81145W        W49363  30.150   0.245   1.775
81146W        W49364  35.756  34.417   4.273
81147W        W49365  24.474   5.327  13.428
81148W        W49366  20.037  17.412  10.637
81149W        W49367   5.197  24.996   0.853
81150W        W49368   0.724  25.081  11.448
81151W        W49369  30.443  41.253   0.945
81152W        W49370  34.422  31.065   4.043
81153W        W49371  12.267  13.383   4.015
81154W        W49372  13.555   7.343  13.402
81155W        W49373  44.547  34.566  13.266
81156W        W49374  38.310  32.601   4.123
81157W        W49375   4.283  15.537  12.028
81158W        W49376  26.939  31.560   2.001
81159W        W49377  22.680   4.895   2.684
81160W        W49378  29.188  19.970   1.484
81161W        W49379   6.699  29.052   1.332
81162W        W49380   5.843   6.734   0.253
81163W        W49381  27.993  43.769  13.460
81164W        W49382  18.707  39.786  11.153
81165W        W49383  18.581  10.349  14.293
81166W        W49384  41.221  19.520   1.745
81167W        W49385   6.125  13.919  14.450
81168W        W49386  21.267  16.336   0.895
81169W        W49387  18.272  16.714  14.906
81170W        W49388  41.454   9.996   1.948
81171W        W49389  35.481  20.301   3.578
81172W        W49390  10.742  10.043   3.376
81173W        W49391   9.325   8.216   1.190
81174W        W49392  37.101  31.953   0.281
81175W        W49393   8.643   7.344  14.833
81176W        W49394  43.960  36.075  13.855
81177W        W49395   2.463  31.450   4.855
81178W        W49396  36.565  26.630  14.122
81179W        W49397  29.281  37.436   3.049
81180W        W49398  13.203  21.002   3.196
81181W        W49399  30.959  33.485  11.602
81182W        W49400  23.145  40.249  12.974
81183W        W49401   3.865   7.288  12.835
81184W        W49402  23.994   4.268   2.691
81185W        W49403   4.712  25.096   4.136
81186W        W49404  39.867   6.869   3.942
81187W        W49405   5.802  34.820   3.688
81188W        W49406  28.785   1.172  12.964
81189W        W49407  26.149   8.199  11.883
81190W        W49408   2.558  44.916   4.431
81191W        W49409   9.198  43.307   3.195
81192W        W49410  12.231   5.941   2.015
81193W        W49411  32.661  28.502  11.838
81194W        W49412  42.482   7.778   1.937
81195W        W49413   9.865  40.578  12.877
81196W        W49414   5.490  32.763   3.260
81197W        W49415  13.897   4.820  11.287
81198W        W49416  25.615  30.977   1.439
81199W        W49417  35.520  13.481   2.149
81200W        W49418   6.447  39.257   4.628
81201W        W49419   8.924  37.358   1.869
81202W        W49420  29.175  42.298   3.225
81203W        W49421  22.979  42.305  10.580
81204W        W49422  39.944  24.006   1.842
81205W        W49423  32.325  21.462   5.023
81206W        W49424  24.902  23.978  10.684
81207W        W49425   3.158   7.949  13.752
81208W        W49426  28.527  20.475   1.866
81209W        W49427  10.754  16.267   4.234
81210W        W49428  19.578  24.630   3.324
81211W        W49429  40.012   4.721  11.913
81212W        W49430  40.855   8.379  13.463
81213W        W49431  42.428  10.862  14.980
81214W        W49432  21.960  27.954   2.300
81215W        W49433   7.748  24.698  14.395
81216W        W49434  20.133  34.604   0.551
81217W        W49435  28.258  34.944   4.481
81218W        W49436  42.540   2.494   0.288
81219W        W49437  27.166  32.961   1.143
81220W        W49438  41.781   6.354   0.535
81221W        W49439   7.226  33.579  14.337
81222W        W49440  19.787   3.335   2.633
81223W        W49441  13.848  26.432  14.922
81224W        W49442  42.214   6.409  12.903
81225W        W49443  29.183  29.376   1.378
81226W        W49444  37.668  27.606   0.927
81227W        W49445   2.266   9.129  12.033
81228W        W49446  44.917  36.517  13.966
81229W        W49447  35.898  30.260  13.766
81230W        W49448  30.990   2.821  10.231
81231W        W49449  29.118  15.066  14.945
81232W        W49450  37.318   6.417  12.739
81233W        W49451  17.909  31.337  13.392
81234W        W49452  44.446  30.788  13.401
81235W        W49453  10.570  43.963  10.666
81236W        W49454  12.214  34.850   2.790
81237W        W49455  12.839  16.637  13.349
81238W        W49456  19.053  30.948   1.030
81239W        W49457  33.597  34.017   1.430
81240W        W49458  22.540  24.207   1.783
81241W        W49459   0.503  33.539  14.750
81242W        W49460  13.536  13.671  11.570
81243W        W49461  41.353  26.616   0.978
81244W        W49462  13.055  15.793   4.265
81245W        W49463  10.667  17.769  10.689
81246W        W49464  40.758  16.031   2.667
81247W        W49465  24.624  44.986  14.415
81248W        W49466  21.321  38.612   1.772
81249W        W49467  21.270  30.398  11.523
81250W        W49468  38.217   8.736  12.729
81251W        W49469  38.881  23.490  12.576
81252W        W49470  33.638   6.201   9.940
81253W        W49471  30.467  37.948   4.122
81254W        W49472  26.524  23.975   0.933
81255W        W49473  19.519  26.147  10.459
81256W        W49474  42.316  21.760   0.724
81257W        W49475  33.606   7.937  14.659
81258W        W49476  12.608  38.814  14.283
81259W        W49477   1.940  22.526   2.134
81260W        W49478  23.788   1.850  14.439
81261W        W49479   5.659  15.620   3.320
81262W        W49480  15.253  43.885  13.617
81263W        W49481  31.047  12.645  13.779
81264W        W49482   2.442  13.192   3.233
81265W        W49483   0.424  30.043   2.046
81266W        W49484  33.388  40.815   0.397
81267W        W49485  22.231  20.709  13.224
81268W        W49486  41.304  41.592  14.379
81269W        W49487  28.397  15.798   3.189
81270W        W49488  42.927  38.942  10.645
81271W        W49489   6.594   6.843   1.201
81272W        W49490  17.109   8.801  12.126
81273W        W49491  34.676  30.914   0.690
81274W        W49492  21.498  23.162  10.919
81275W        W49493  23.741   7.721  12.460
81276W        W49494  30.794  16.761   4.239
81277W        W49495  39.784  35.934   1.249
81278W        W49496  24.173  39.806   3.639
81279W        W49497  13.711  19.189   4.565
81280W        W49498  34.002  32.682   1.774
81281W        W49499  18.525  24.213  11.139
81282W        W49500  38.261  12.103   1.825
81283W        W49501  19.159   2.745   3.362
81284W        W49502  22.082  37.992  13.360
81285W        W49503  21.788  20.787  10.641
81286W        W49504  43.785  24.607   0.097
81287W        W49505  37.445   7.671  12.359
81288W        W49506  35.984   1.384  14.405
81289W        W49507  43.841  18.303  12.901
81290W        W49508  40.355  29.763  10.211
81291W        W49509  14.718   1.295   4.986
81292W        W49510  36.974  42.431   4.702
81293W        W49511  38.384  11.302  14.012
81294W        W49512  30.430   2.715  14.059
81295W        W49513   7.891   3.843  14.337
81296W        W49514  16.435  26.016   3.582
81297W        W49515  16.770  37.363  13.828
81298W        W49516   9.142  41.004  13.897
81299W        W49517  36.974  18.220  13.317
81300W        W49518   1.714   6.376  12.549
81301W        W49519   5.612  27.676   1.620
81302W        W49520  37.158  37.380  14.750
81303W        W49521  13.699  42.261  12.441
81304W        W49522  23.023   3.008  11.508
81305W        W49523   5.430  44.776   3.213
81306W        W49524  18.066  17.876   1.303
81307W        W49525  38.531  41.905   4.626
81308W        W49526  18.145  43.040  11.911
81309W        W49527  43.585  38.351   3.654
81310W        W49528  10.857  26.219  13.328
81311W        W49529  29.465  17.650   3.269
81312W        W49530  36.845  41.445  13.806
81313W        W49531   2.892  31.648  14.007
81314W        W49532  44.040  34.043  12.820
81315W        W49533  23.483  40.993   2.809
81316W        W49534  44.236   2.997   0.306
81317W        W49535  38.041  22.197   3.262
81318W        W49536  39.332   9.742   2.309
81319W        W49537  38.365  30.384  13.896
81320W        W49538   5.327  26.090  14.674
81321W        W49539  36.545  14.869   0.132
81322W        W49540  35.855   2.926  11.644
81323W        W49541   0.482  27.860  11.046
81324W        W49542  35.553   2.865  13.122
81325W        W49543   4.819  24.615   4.338
81326W        W49544  18.273  40.449  14.283
81327W        W49545  31.484  28.929  10.982
81328W        W49546   7.883   5.882   4.622
81329W        W49547  40.288   2.291   0.839
81330W        W49548  37.738   9.663  13.733
81331W        W49549  42.857  32.623  10.600
81332W        W49550  43.303  39.660   0.501
81333W        W49551  41.329   1.742   2.716
81334W        W49552  43.340  32.396   1.659
81335W        W49553  30.942   7.317   0.837
81336W        W49554  22.217   7.969  11.520
81337W        W49555  25.432  32.000   4.191
81338W        W49556  20.956   9.214   1.947
81339W        W49557  13.351  44.031   3.657
81340W        W49558  41.301   9.826  11.660
81341W        W49559  10.761   9.135  13.057
81342W        W49560  21.049  38.362  13.861
81343W        W49561  22.798   6.470  12.083
81344W        W49562   2.909  17.752   4.009
81345W        W49563  28.583  11.047  11.804
81346W        W49564  11.776  43.036  13.719
81347W        W49565  30.714   2.757   3.224
81348W        W49566  19.268  31.488   4.612
81349W        W49567  31.836  41.940  12.349
81350W        W49568  35.837  22.607   4.509
81351W        W49569  38.285  38.847   3.920
81352W        W49570  34.784  30.377   1.492
81353W        W49571  24.652  19.256  13.574
81354W        W49572   8.736  17.644  13.522
81355W        W49573   5.761  42.999  12.779
81356W        W49574  11.153  27.263  14.344
81357W        W49575  18.171  28.617  14.443
81358W        W49576  10.201  21.819   4.007
81359W        W49577  18.213  12.033  10.286
81360W        W49578   8.798   0.477  11.203
81361W        W49579  26.429  27.195  13.337
81362W        W49580  14.358  22.036  14.909
81363W        W49581   2.367  18.098   4.143
81364W        W49582   5.395  40.915  13.157
81365W        W49583   3.516  19.339   0.595
81366W        W49584  27.104   4.656  10.634
81367W        W49585  27.504  35.066   2.922
81368W        W49586  12.123  15.147  11.115
81369W        W49587  21.107  30.598   4.676
81370W        W49588  14.238  13.756   1.141
81371W        W49589  40.401  25.293  10.588
81372W        W49590  22.981  12.321  13.762
81373W        W49591  28.072  18.676   0.755
81374W        W49592  28.678   7.014   1.779
81375W        W49593  16.110  43.346  11.212
81376W        W49594  18.645  38.908  12.105
81377W        W49595  32.051  31.748   0.731
81378W        W49596   0.793  42.013  14.334
81379W        W49597  21.208  32.482  10.731
81380W        W49598  37.217  35.701  11.052
81381W        W49599   6.407  21.349   0.404
81382W        W49600  18.816  25.524  14.951
81383W        W49601  40.559  30.024  11.537
81384W        W49602  13.377   3.421   1.411
81385W        W49603  30.401  17.367  12.247
81386W        W49604  38.511  17.052  14.001
81387W        W49605   5.091  40.804  11.955
81388W        W49606   0.889  38.944  11.554
81389W        W49607  38.253  24.364   4.103
81390W        W49608  37.680  26.913  12.379
81391W        W49609   5.228   8.465   1.470
81392W        W49610   4.254  40.383   3.893
81393W        W49611  44.498  11.544   4.580
81394W        W49612   0.730  25.065   3.184
81395W        W49613   1.611  25.931  13.730
81396W        W49614  27.391  43.574   1.330
81397W        W49615  44.094  23.088   1.741
81398W        W49616  17.881  19.589  12.334
81399W        W49617  43.021  15.139   3.838
81400W        W49618  22.648  41.013   0.708
81401W        W49619  40.742   9.082   3.797
81402W        W49620  20.638   7.038  14.409
81403W        W49621  32.004  21.499  13.538
81404W        W49622  43.769  39.631  13.913
81405W        W49623  28.929  17.153  14.869
81406W        W49624   9.732  37.053  14.879
81407W        W49625  33.999  42.972  12.877
81408W        W49626  29.713   6.363  12.411
81409W        W49627   0.961  10.070   1.379
81410W        W49628  11.163   5.295   2.664
81411W        W49629  26.638  10.378  14.760
81412W        W49630   8.691   6.230   1.117
81413W        W49631  19.142   2.226   3.208
81414W        W49632  32.341  27.158  13.377
81415W        W49633  35.115  42.548  10.732
81416W        W49634  39.982  17.885   4.751
81417W        W49635   9.547  24.216  14.731
81418W        W49636  37.354   1.553  11.475
81419W        W49637   8.678  40.429   4.885
81420W        W49638   6.316  36.047   2.194
81421W        W49639  12.440  36.352   0.520
81422W        W49640  44.288  11.451  13.339
81423W        W49641  39.477  44.744  12.891
81424W        W49642  44.383  39.810   3.638
81425W        W49643  30.559   3.769   2.660
81426W        W49644  32.357  44.764  12.624
81427W        W49645  31.140  31.567   4.707
81428W        W49646  28.806  18.766   4.990
81429W        W49647  44.846   5.427   1.954
81430W        W49648  34.626  10.203   4.755
81431W        W49649  23.974  18.981   4.507
81432W        W49650  32.593   6.459  14.563
81433W        W49651  11.297  30.253   0.383
81434W        W49652  26.220  38.461  13.413
81435W        W49653   0.974  26.189  12.895
81436W        W49654  37.865  36.642  13.439
81437W        W49655  34.120  28.956  14.109
81438W        W49656  41.006   6.823  13.310
81439W        W49657   0.779  22.604   1.897
81440W        W49658  35.061  37.538   3.166
81441W        W49659  42.325  27.433  13.434
81442W        W49660  26.470  19.238   1.297
81443W        W49661  12.655  31.643   4.393
81444W        W49662  34.881  26.178  12.497
81445W        W49663  39.660  13.837   3.187
81446W        W49664  32.532  16.151  12.567
81447W        W49665  18.309  21.734  11.488
81448W        W49666  36.576   3.204   3.230
81449W        W49667  22.954  34.575  10.898
81450W        W49668  42.037  37.428  11.599
81451W        W49669  28.341  42.330   0.392
81452W        W49670  25.770   3.944   0.437
81453W        W49671  26.711  39.114   0.781
81454W        W49672  11.164  43.250   4.405
81455W        W49673  16.048   9.337   4.617
81456W        W49674  38.147   3.874   0.361
81457W        W49675  12.595  27.882  10.634
81458W        W49676  44.016   5.877  12.242
81459W        W49677   9.705  34.633  11.840
81460W        W49678  11.736   0.739  12.926
81461W        W49679  24.800  19.153  10.817
81462W        W49680  31.888   6.197   0.320
81463W        W49681  36.834  34.534  12.753
81464W        W49682  27.794  36.952  13.761
81465W        W49683  24.916  19.736   0.765
81466W        W49684  22.915  33.425   3.804
81467W        W49685  28.039  25.129  12.408
81468W        W49686  34.890   5.231   1.371
81469W        W49687  22.139  36.415  13.499
81470W        W49688  17.504  21.157  14.512
81471W        W49689  22.445  37.637  11.155
81472W        W49690  41.148  24.691   4.164
81473W        W49691   2.886  20.468  14.790
81474W        W49692  44.572  25.739  11.244
81475W        W49693  29.902  39.495  13.352
81476W        W49694  22.958  39.740   3.107
81477W        W49695  39.140  16.209   4.621
81478W        W49696  25.766  31.577   0.212
81479W        W49697  15.967  13.487  11.604
81480W        W49698  25.182  42.002   1.451
81481W        W49699   6.906   3.691  14.480
81482W        W49700  41.967  19.695   0.037
81483W        W49701  39.883  31.165   4.789
81484W        W49702  22.812  14.816   4.173
81485W        W49703  42.281  19.843   0.978
81486W        W49704  18.108  37.362   0.273
81487W        W49705  35.913   1.288   3.244
81488W        W49706  12.776   2.236  11.865
81489W        W49707  24.968  13.634  14.925
81490W        W49708  40.955  37.638   0.325
81491W        W49709   5.887  23.707   2.710
81492W        W49710   9.286  13.709  10.647
81493W        W49711  12.543  26.508  11.586
81494W        W49712   4.017  11.299  14.894
81495W        W49713   4.422  43.487   4.744
81496W        W49714  37.883  44.731  12.050
81497W        W49715  23.524  24.822   5.070
81498W        W49716   0.374  25.146  12.679
81499W        W49717   2.510  23.603   1.560
81500W        W49718   9.405  25.224   5.222
81501W        W49719  14.180  20.704   0.905
81502W        W49720   1.834  16.613  12.547
81503W        W49721  42.181  17.637   0.790
81504W        W49722  17.870  31.507   4.251
81505W        W49723  41.354   3.332   1.226
81506W        W49724  10.609  16.025   0.388
81507W        W49725   9.219  11.170   3.846
81508W        W49726  40.576  19.696  12.643
81509W        W49727  43.457  43.704  12.520
81510W        W49728  22.718  15.633  10.719
81511W        W49729  32.263   1.405   1.166
81512W        W49730  21.743  12.652  14.029
81513W        W49731  31.956  41.935   1.798
81514W        W49732   6.126  42.451  13.462
81515W        W49733   8.714  22.602   2.718
81516W        W49734  27.867   5.747  13.109
81517W        W49735   9.120  16.014   0.746
81518W        W49736  21.087  41.943  13.377
81519W        W49737  33.142  44.848   2.099
81520W        W49738  18.642  11.781   1.921
81521W        W49739  21.205  44.110   4.255
81522W        W49740  18.629  31.958  11.684
81523W        W49741   2.761  11.342  14.168
81524W        W49742  29.903  24.465   2.270
81525W        W49743  25.765  32.545  14.904
81526W        W49744  30.609  39.150  13.930
81527W        W49745  33.004  39.530   4.628
81528W        W49746  41.117   0.738   3.582
81529W        W49747   1.355  12.318   1.252
81530W        W49748  14.785  10.566  11.161
81531W        W49749   7.529   4.730   1.769
81532W        W49750  30.451  27.067   2.658
81533W        W49751  43.742  31.917   2.396
81534W        W49752  43.263   4.725   4.165
81535W        W49753  41.646  38.763  14.464
81536W        W49754   4.967  37.007   3.355
81537W        W49755  39.417  22.165  14.550
81538W        W49756  19.675  13.220  12.654
81539W        W49757  10.600  22.432   3.422
81540W        W49758   3.228   2.448   1.342
81541W        W49759  32.711  24.046  14.473
81542W        W49760  23.702  34.096   2.570
81543W        W49761   6.629  25.366  13.894
81544W        W49762  36.831  26.145  11.598
81545W        W49763  41.991  44.414   0.214
81546W        W49764   2.238  22.872  10.894
81547W        W49765  19.626  36.108   0.728
81548W        W49766  18.278  19.543  10.455
81549W        W49767  23.535  19.968  13.797
81550W        W49768  33.044  11.224   3.570
81551W        W49769  18.105  29.612  14.582
81552W        W49770   9.608  44.705  11.308
81553W        W49771   0.242  20.976  14.037
81554W        W49772  39.401  24.778   0.754
81555W        W49773   0.099   8.467   1.838
81556W        W49774  33.477  26.093  14.515
81557W        W49775  37.147  24.589  14.404
81558W        W49776  17.190   5.878  13.364
81559W        W49777  42.098  39.322  10.713
81560W        W49778  27.031  25.926  12.167
81561W        W49779  25.446  20.089  12.453
81562W        W49780  21.563  22.193   3.047
81563W        W49781  14.806  19.575  13.834
81564W        W49782   1.379   3.314  11.132
81565W        W49783   4.733  22.577  10.685
81566W        W49784  40.835  12.698   3.748
81567W        W49785  20.643  43.876  13.415
81568W        W49786  27.181  34.007   0.872
81569W        W49787  44.743   3.871  11.965
81570W        W49788  10.101  44.819  11.451
81571W        W49789  21.708  19.724   4.563
81572W        W49790  28.517  40.909   0.256
81573W        W49791  30.937  34.036   0.921
81574W        W49792  17.086  42.958  14.789
81575W        W49793  40.941  14.790  14.950
81576W        W49794  40.282  20.733  11.764
81577W        W49795   2.306  28.202  11.475
81578W        W49796  25.799   0.493  14.320
81579W        W49797  38.425  32.390  11.833
81580W        W49798  43.378  18.525   2.660
81581W        W49799  32.953   9.263  12.489
81582W        W49800  26.657  30.752   4.584
81583W        W49801  30.412  26.572  12.546
81584W        W49802   6.278  15.670   0.983
81585W        W49803  12.542  17.317  13.029
81586W        W49804  23.056  42.948   0.464
81587W        W49805  22.247  20.214  13.022
81588W        W49806  28.427   1.311   3.115
81589W        W49807   2.323   7.857   3.575
81590W        W49808  13.090   8.924  10.119
81591W        W49809  14.532   7.908  12.526
81592W        W49810  23.033   2.402  12.114
81593W        W49811  44.503  26.612  12.899
81594W        W49812   1.641   8.311  13.627
81595W        W49813  43.759  34.198   4.090
81596W        W49814  10.757  15.549   4.753
81597W        W49815   3.159  44.697   0.309
81598W        W49816  44.673  16.829  14.986
81599W        W49817  41.920   7.095  10.433
81600W        W49818  26.811  35.561  12.172
81601W        W49819  27.595  20.897   1.637
81602W        W49820  43.086  13.847  13.907
81603W        W49821   9.126  35.956   1.215
81604W        W49822  42.395  41.619  13.182
81605W        W49823   7.433  31.140  11.724
81606W        W49824  24.065  15.263  12.427
81607W        W49825   2.663  10.008  12.791
81608W        W49826  42.545  17.118   1.763
81609W        W49827   4.748   8.628   3.730
81610W        W49828  18.110   7.449   4.516
81611W        W49829  19.424  41.646   4.183
81612W        W49830  33.161  28.741  13.989
81613W        W49831  35.144   4.681   1.131
81614W        W49832  41.103  39.858   4.252
81615W        W49833   1.916  33.389  13.559
81616W        W49834  15.211  20.816  13.893
81617W        W49835  35.462  24.758   2.617
81618W        W49836  16.633  28.386   2.426
81619W        W49837  12.791   1.883  10.912
81620W        W49838  17.337  42.870   3.672
81621W        W49839  32.830  22.128   3.082
81622W        W49840   4.806  14.097   4.462
81623W        W49841   3.378   2.031  14.089
81624W        W49842  18.797   4.414  11.925
81625W        W49843  39.023  32.133  12.560
81626W        W49844  16.188   3.307   5.068
81627W        W49845  17.317  20.016  14.709
81628W        W49846  26.051  40.345  11.874
81629W        W49847   1.705  35.208   3.017
81630W        W49848   1.488  21.124   4.672
81631W        W49849  27.959  32.202  14.478
81632W        W49850  33.434  19.039   3.753
81633W        W49851  44.728  12.690   0.321
81634W        W49852  24.076  44.912  10.983
81635W        W49853  26.239   6.820   1.198
81636W        W49854  41.052  30.464   0.863
81637W        W49855  27.163   5.238  12.902
81638W        W49856  42.397  24.144   1.836
81639W        W49857  30.612  24.194   0.063
81640W        W49858  17.795  20.217   1.854
81641W        W49859   3.905  42.164   5.035
81642W        W49860  15.236  17.162   2.658
81643W        W49861  36.747  44.411  11.243
81644W        W49862  17.090   2.874   0.296
81645W        W49863  14.682  15.373  14.674
81646W        W49864  11.191  33.445   0.971
81647W        W49865  11.485  23.221   0.462
81648W        W49866   7.651  26.109  13.131
81649W        W49867  35.949  13.069  11.638
81650W        W49868   5.896  23.504  11.168
81651W        W49869  39.301  41.821   4.115
81652W        W49870   1.789  41.458  12.985
81653W        W49871   4.402   6.349   2.717
81654W        W49872  33.562   5.003  12.432
81655W        W49873  27.630   2.963   2.263
81656W        W49874  42.416  19.154  12.548
81657W        W49875  29.860  35.368   1.297
81658W        W49876  16.764  37.986   4.123
81659W        W49877  33.937   5.514   4.183
81660W        W49878  24.657  28.480   0.902
81661W        W49879   6.607  12.423  11.230
81662W        W49880   5.644  40.506  12.562
81663W        W49881  21.341  25.619  14.748
81664W        W49882  16.028  14.181   0.422
81665W        W49883  28.562  36.763   2.271
81666W        W49884  20.125   0.808   3.140
81667W        W49885   0.021   6.686   4.517
81668W        W49886  43.064  16.548   2.335
81669W        W49887   8.147  29.946   4.937
81670W        W49888  40.604  42.361   4.146
81671W        W49889   8.585   6.691  11.817
81672W        W49890   2.288  21.457   0.784
81673W        W49891  17.563  31.125   3.687
81674W        W49892  39.474  40.733   3.154
81675W        W49893   5.300  36.086  11.155
81676W        W49894  23.490  19.468   3.860
81677W        W49895  29.804  26.754   4.969
81678W        W49896  32.133  15.793  14.803
81679W        W49897  28.105  27.262  10.753
81680W        W49898  27.445   4.413   1.882
81681W        W49899   8.228   3.687   3.708
81682W        W49900  18.839  19.498   1.255
81683W        W49901   3.956   7.831   1.260
81684W        W49902  18.897  37.380   2.336
81685W        W49903  42.216  17.526   1.687
81686W        W49904  41.571  26.465   3.256
81687W        W49905  16.337  40.324   0.869
81688W        W49906  41.123  22.944   2.792
81689W        W49907   1.475  32.191   4.732
81690W        W49908  14.386  28.408   2.137
81691W        W49909  42.368  43.689   3.017
81692W        W49910  16.480  43.955   1.258
81693W        W49911  20.770  23.065   2.164
81694W        W49912  20.451  36.862  13.984
81695W        W49913   4.246  34.895  14.563
81696W        W49914  39.141  19.444   3.269
81697W        W49915   3.513  16.640   3.984
81698W        W49916  44.118   5.617  13.550
81699W        W49917  14.814  29.830   4.370
81700W        W49918  18.115  22.131   0.967
81701W        W49919  27.587   3.308  12.865
81702W        W49920   9.287  27.450  10.535
81703W        W49921  31.543   2.056  10.341
81704W        W49922  33.699  38.279   3.629
81705W        W49923   6.437  10.812  10.607
81706W        W49924  11.049  31.760  13.312
81707W        W49925   3.678  17.843   0.185
81708W        W49926  23.726   4.712   2.731
81709W        W49927   0.582  36.101  11.098
81710W        W49928  24.685  25.562  12.025
81711W        W49929   4.244  31.418   4.281
81712W        W49930  44.792  18.771  14.916
81713W        W49931   1.922  37.806  11.729
81714W        W49932  26.456   4.476   3.754
81715W        W49933  36.314  17.560   4.740
81716W        W49934   8.528  24.652   4.203
81717W        W49935  27.989  19.437   5.072
81718W        W49936  23.458   3.844  14.335
81719W        W49937  43.519  23.257  11.578
81720W        W49938   8.879  44.300  11.463
81721W        W49939  42.701  28.168  11.561
81722W        W49940  34.937  35.750   0.458
81723W        W49941  44.314  25.310  14.246
81724W        W49942   4.122  21.029   3.202
81725W        W49943  23.646  15.335   3.333
81726W        W49944  33.293  21.733   1.356
81727W        W49945  23.075  11.718   2.201
81728W        W49946  24.433  20.101  12.438
81729W        W49947  10.403  18.255   5.257
81730W        W49948  41.432  30.626  11.639
81731W        W49949   3.787  15.633   3.018
81732W        W49950  38.527   3.219  12.041
81733W        W49951  24.245  24.316  10.157
81734W        W49952   1.757   1.609   2.655
81735W        W49953  11.611  20.750  11.263
81736W        W49954  17.001   7.207   0.334
81737W        W49955  31.366  40.507  12.130
81738W        W49956  42.003  33.971  10.666
81739W        W49957  11.248  11.582   4.187
81740W        W49958  16.871  34.851  13.620
81741W        W49959   9.689  21.152  13.012
81742W        W49960   8.809  34.094   2.216
81743W        W49961   0.920  40.967  14.366
81744W        W49962  30.603   9.145  14.440
81745W        W49963   5.932  20.039  12.923
81746W        W49964  15.007  26.481  12.575
81747W        W49965  43.875  39.103  13.991
81748W        W49966  23.689  30.968   1.931
81749W        W49967  36.068  25.560   1.241
81750W        W49968  30.901  37.920   2.868
81751W        W49969  40.784   6.731  12.032
81752W        W49970  24.307  23.171   4.089
81753W        W49971  21.060  30.961  10.694
81754W        W49972   5.264  39.983   4.478
81755W        W49973  37.122  31.820  11.642
81756W        W49974  32.411   3.683  11.585
81757W        W49975   6.243   5.206  13.844
81758W        W49976  35.910  21.293   1.657
81759W        W49977  12.086  41.412  14.980
81760W        W49978   4.934   8.836  14.970
81761W        W49979  38.590  33.581  13.041
81762W        W49980   2.754   6.267   0.532
81763W        W49981  41.087  38.451   1.620
81764W        W49982   0.596   4.766   3.227
81765W        W49983  23.642  11.859   3.453
81766W        W49984   1.330  24.927   4.316
81767W        W49985  10.849   6.684   0.865
81768W        W49986  34.551   6.640   2.300
81769W        W49987  31.045   5.384  10.324
81770W        W49988  37.503   2.487   2.847
81771W        W49989  33.111  39.249  13.127
81772W        W49990  16.324  27.012  11.170
81773W        W49991  13.103  19.294   0.397
81774W        W49992   5.906  38.864  13.328
81775W        W49993  17.707   9.680   4.488
81776W        W49994  40.797   1.893  12.637
81777W        W49995  14.793  34.979  13.137
81778W        W49996   6.630   3.926   4.114
81779W        W49997  43.285  43.734  13.417
81780W        W49998  43.413  35.971   2.650
81781W        W49999  10.328  29.613   4.601
81782W        W50000  15.950  15.646  11.064
81783W        W50001  28.107  13.962  10.265
81784W        W50002  29.084  26.232  12.666
81785W        W50003  10.708  23.557  12.931
81786W        W50004  35.409  43.946  13.387
81787W        W50005  35.192  25.909  13.773
81788W        W50006  15.062  10.909  14.370
81789W        W50007   9.806  16.558  12.383
81790W        W50008  31.015  13.083  14.072
81791W        W50009  14.303   3.450  14.918
81792W        W50010  22.907   7.305   2.499
81793W        W50011  32.571  27.718   2.528
81794W        W50012  27.593   7.728  12.777
81795W        W50013   2.422  30.282  14.964
81796W        W50014  29.896  30.060   1.446
81797W        W50015   8.937  16.549  11.043
81798W        W50016  41.202  40.152  12.395
81799W        W50017  32.755   0.441  13.906
81800W        W50018  16.545  11.367   4.145
81801W        W50019  29.934  29.938  11.130
81802W        W50020  10.207  42.570  11.411
81803W        W50021  41.176  36.849  12.498
81804W        W50022  24.946  15.035  12.434
81805W        W50023   4.829  33.522   4.515
81806W        W50024  33.566  41.656  11.565
81807W        W50025   6.904  16.219   2.769
81808W        W50026  21.751  20.167  13.610
81809W        W50027  26.054  36.002   2.317
81810W        W50028   2.473  28.444   4.135
81811W        W50029  38.800  12.212   3.663
81812W        W50030  43.320  28.204  13.540
81813W        W50031  38.658  38.317   1.910
81814W        W50032  39.956   8.102  11.606
81815W        W50033  14.914  14.390  14.450
81816W        W50034   9.253   0.036   1.743
81817W        W50035   7.386  44.565  11.121
81818W        W50036  30.548  21.804   2.858
81819W        W50037  16.654  28.183  12.917
81820W        W50038  20.046   2.222   3.201
81821W        W50039  40.271  26.439  13.955
81822W        W50040  25.695  27.715  11.961
81823W        W50041  25.461  38.550   2.167
81824W        W50042  27.768  34.274   4.134
81825W        W50043  32.223  33.153   4.176
81826W        W50044  38.084  33.817  13.073
81827W        W50045  11.903  12.266   0.182
81828W        W50046  28.121  16.006  13.857
81829W        W50047  25.596  23.242   2.747
81830W        W50048  22.331  22.307   0.117
81831W        W50049  10.303  17.024   1.273
81832W        W50050   5.678  27.257   1.256
81833W        W50051  29.580   6.345   0.512
81834W        W50052   2.381   3.663  13.441
81835W        W50053  16.274  26.083   4.619
81836W        W50054  12.608  25.022   4.193
81837W        W50055   6.260  17.943  14.401
81838W        W50056  27.930  23.755   2.182
81839W        W50057  40.070  14.623  13.904
81840W        W50058  41.776  43.012   1.903
81841W        W50059  28.718  14.365   1.420
81842W        W50060  36.948  35.482  10.634
81843W        W50061  35.350  39.802   1.196
81844W        W50062   2.726   8.892   2.983
81845W        W50063  15.008  33.552  14.383
81846W        W50064  13.712  13.789   0.931
81847W        W50065  19.702  12.746  12.848
81848W        W50066  17.731  13.186  11.539
81849W        W50067  28.575  22.436   5.066
81850W        W50068   9.516  33.085   2.703
81851W        W50069  32.702   1.751   1.415
81852W        W50070  19.557  34.590   0.965
81853W        W50071   8.652  42.155  11.110
81854W        W50072  29.885  25.649   3.675
81855W        W50073  43.879  36.419   0.611
81856W        W50074  10.737  27.546   2.222
81857W        W50075  25.387   3.019   3.408
81858W        W50076  14.603  18.035  14.460
81859W        W50077  33.499  39.503  11.453
81860W        W50078  43.925  43.026  12.033
81861W        W50079   6.747  12.617  11.674
81862W        W50080  22.297  40.075  11.636
81863W        W50081  34.489  29.195  11.694
81864W        W50082  34.067  42.397  14.357
81865W        W50083  21.754  35.045   1.637
81866W        W50084  44.477  38.058   2.287
81867W        W50085  12.861  31.713   4.881
81868W        W50086  34.527   3.017  13.088
81869W        W50087  12.548   1.778   0.267
81870W        W50088   7.247   6.721   4.278
81871W        W50089   0.679  43.865  13.966
81872W        W50090  10.308  30.888  10.277
81873W        W50091   2.634  40.003  13.180
81874W        W50092  34.905  32.061  10.344
81875W        W50093  34.485  31.138  11.547
81876W        W50094   0.221  28.713   0.225
81877W        W50095   6.845  34.462   0.449
81878W        W50096  35.944  41.879  11.848
81879W        W50097  30.010   6.459   3.560
81880W        W50098   7.313   2.227  13.958
81881W        W50099  30.147   7.104   4.176
81882W        W50100   4.844  44.212   0.506
81883W        W50101  14.251   1.567  13.841
81884W        W50102  21.367  42.768   4.704
81885W        W50103   4.958  42.549  11.141
81886W        W50104  16.972   3.423   3.283
81887W        W50105  17.537   4.849  10.468
81888W        W50106  19.487  41.568  12.827
81889W        W50107  12.409  10.547  10.794
81890W        W50108  42.295  30.215  12.384
81891W        W50109  24.250  24.070  12.893
81892W        W50110  44.066  28.485   3.977
81893W        W50111  41.718  17.131  10.341
81894W        W50112  31.251  34.780  13.571
81895W        W50113  34.918  42.105  14.728
81896W        W50114   8.694  16.341   0.689
81897W        W50115  33.403   3.469  12.087
81898W        W50116   9.001  16.637   2.744
81899W        W50117  11.403  35.615  11.543
81900W        W50118  24.152  37.006  14.959
81901W        W50119   2.485  27.245  11.464
81902W        W50120  33.130  18.643   3.807
81903W        W50121  24.223   7.656  14.247
81904W        W50122  24.530  32.632   3.573
81905W        W50123  18.650  16.332   3.249
81906W        W50124   7.916   1.242  10.900
81907W        W50125  23.266  33.914   5.486
81908W        W50126   4.121  33.330  11.145
81909W        W50127  22.523  14.235   3.396
81910W        W50128   9.979  30.759   4.043
81911W        W50129  42.745  18.296   0.402
81912W        W50130  11.977  40.784   2.278
81913W        W50131   1.899  41.174  13.383
81914W        W50132   8.677   0.628   1.994
81915W        W50133   9.627  32.434  14.268
81916W        W50134   1.095  26.911   3.830
81917W        W50135  20.672  33.077   3.676
81918W        W50136  35.532  25.597   1.326
81919W        W50137  12.292  21.847   1.303
81920W        W50138  38.366  11.941   3.633
81921W        W50139  31.058  24.046  12.489
81922W        W50140   5.285  17.409   0.398
81923W        W50141  23.246  44.752   2.362
81924W        W50142   4.012  34.380  14.610
81925W        W50143  12.172  22.434   4.821
81926W        W50144   6.184   3.815   3.882
81927W        W50145  21.850  10.624   0.214
81928W        W50146  32.105  30.842   1.694
81929W        W50147   5.360   1.458   3.719
81930W        W50148  42.986  40.905   2.762
81931W        W50149  30.490  12.333  12.540
81932W        W50150   7.353  44.316   3.584
81933W        W50151  33.271  12.159  10.932
81934W        W50152   8.885  13.094  12.082
81935W        W50153   6.372  37.002  11.239
81936W        W50154   1.483  13.793   4.754
81937W        W50155  38.620  41.437  11.596
81938W        W50156  25.692   0.130  11.747
81939W        W50157  24.156  15.690   0.679
81940W        W50158   7.829   5.733   0.438
81941W        W50159   0.792   8.604   1.200
81942W        W50160  39.253  19.200   4.097
81943W        W50161  31.190  28.032   3.259
81944W        W50162  20.092  41.459  13.539
81945W        W50163  18.536  19.113   0.072
81946W        W50164  39.150  16.519  13.758
81947W        W50165  28.496  15.386  10.823
81948W        W50166  24.741  16.087  11.039
81949W        W50167  44.564   9.620   3.751
81950W        W50168  25.258  44.339  10.753
81951W        W50169   2.938   1.047  14.923
81952W        W50170  11.090  23.188  12.958
81953W        W50171   6.211  28.612  11.222
81954W        W50172   8.316   8.343   0.537
81955W        W50173  21.036  31.744   0.979
81956W        W50174   3.344   6.227   1.205
81957W        W50175   2.940  20.182   0.454
81958W        W50176  32.884   2.715   4.526
81959W        W50177  33.852  43.976  14.230
81960W        W50178   9.328  22.143   0.454
81961W        W50179  41.123  23.277  11.339
81962W        W50180  20.555   3.620  11.387
81963W        W50181  31.608  42.752   3.207
81964W        W50182   0.189  31.040  11.674
81965W        W50183  35.536   5.897   1.369
81966W        W50184   4.864  44.337   1.448
81967W        W50185  44.066  37.400  14.483
81968W        W50186  43.396  17.060  13.576
81969W        W50187   6.639  38.162   0.671
81970W        W50188  22.744  12.569   1.476
81971W        W50189  39.508   7.638   3.917
81972W        W50190  24.943  27.690  14.379
81973W        W50191  32.600  21.527  10.430
81974W        W50192  22.669  35.312   1.774
81975W        W50193   0.911   8.601   0.360
81976W        W50194  35.582  14.501  10.783
81977W        W50195  41.675   5.434   0.310
81978W        W50196   9.144  17.337  12.904
81979W        W50197   5.449  28.964  12.418
81980W        W50198  39.384  31.380  13.823
81981W        W50199  13.764  32.755  14.349
81982W        W50200  15.564  37.974  10.761
81983W        W50201  25.668  32.189   3.768
81984W        W50202  18.082  40.701   2.957
81985W        W50203  26.625   4.729   2.983
81986W        W50204  37.840  16.223  13.408
81987W        W50205   4.169  29.499   3.057
81988W        W50206  33.945  40.424  12.282
81989W        W50207   2.572  16.089  11.664
81990W        W50208  16.721  28.876  11.572
81991W        W50209  36.092  10.657   0.783
81992W        W50210  19.967   7.925  13.104
81993W        W50211  13.464  14.330  13.564
81994W        W50212  23.111   6.881   4.982
81995W        W50213  32.085  19.229   4.084
81996W        W50214   8.939  26.898  10.791
81997W        W50215  15.278  43.263  14.828
81998W        W50216  20.737  38.937   0.993
81999W        W50217  21.503  21.804  10.774
82000W        W50218  24.196  37.427   3.357
82001W        W50219  12.549   1.371   4.206
82002W        W50220   5.911  29.013  11.148
82003W        W50221  12.805  44.032  11.205
82004W        W50222  40.560   3.374  12.079
82005W        W50223   1.607  12.454   4.145
82006W        W50224  40.509  39.538  12.939
82007W        W50225  12.228   1.743  14.849
82008W        W50226  44.336  16.224  13.348
82009W        W50227  26.693  37.839   1.289
82010W        W50228  21.501   4.829   4.305
82011W        W50229   8.386  14.099   2.390
82012W        W50230  39.441  13.060   2.791
82013W        W50231  19.226  32.580   2.400
82014W        W50232   6.731  17.227   4.242
82015W        W50233  23.066  28.049   3.245
82016W        W50234  18.607  37.014   4.447
82017W        W50235  15.575  33.422   4.792
82018W        W50236  27.571  27.170  13.051
82019W        W50237  41.899  41.435   0.713
82020W        W50238   3.432   0.735  13.792
82021W        W50239  19.307  24.973  13.232
82022W        W50240   5.770  16.573   0.397
82023W        W50241   0.046  43.816   1.776
82024W        W50242  34.576  16.923   3.090
82025W        W50243  28.388  26.993  13.729
82026W        W50244  37.293  36.406   0.916
82027W        W50245  39.094  20.129   0.774
82028W        W50246  25.176  28.380   1.806
82029W        W50247   7.727   7.870  12.940
82030W        W50248  39.051  38.921   4.109
82031W        W50249  14.022  43.276  13.530
82032W        W50250   7.926  34.816  11.254
82033W        W50251  31.460   3.226   0.388
82034W        W50252  12.772  33.979   1.375
82035W        W50253   1.978  17.034  11.139
82036W        W50254  35.345   0.010   0.484
82037W        W50255  12.088   5.231  11.577
82038W        W50256  42.160  22.328   4.158
82039W        W50257  33.504  32.606   1.461
82040W        W50258  10.555   3.381   5.100
82041W        W50259  40.138   7.282   2.357
82042W        W50260   2.876  22.983   0.219
82043W        W50261   3.444  38.642  11.953
82044W        W50262   4.808   4.007  12.964
82045W        W50263  16.828  20.642  11.211
82046W        W50264  11.751  19.453   3.888
82047W        W50265  33.870  12.800   2.873
82048W        W50266  23.233   4.456   1.228
82049W        W50267   0.944  26.344   0.943
82050W        W50268   7.188  23.527  11.078
82051W        W50269  34.599  37.110  14.230
82052W        W50270  34.913  44.211  11.461
82053W        W50271  36.000  28.380  14.084
82054W        W50272  34.839  12.340  13.294
82055W        W50273   1.086   8.809   2.680
82056W        W50274  42.007  19.637   2.264
82057W        W50275  41.560  25.930  13.149
82058W        W50276   6.322   5.779   4.696
82059W        W50277  44.782   7.524   1.800
82060W        W50278   4.511  25.454   2.298
82061W        W50279  13.270  26.649  11.580
82062W        W50280  35.984  26.055   1.021
82063W        W50281   1.592  30.562  12.485
82064W        W50282  27.739  23.344  12.358
82065W        W50283  22.333  41.513   4.204
82066W        W50284  41.173  13.612   2.611
82067W        W50285   5.011   1.429  14.882
82068W        W50286  35.747  19.232  11.442
82069W        W50287  41.394  29.008  12.412
82070W        W50288  37.815  38.029  14.956
82071W        W50289  42.575  27.220   4.091
82072W        W50290   0.994  36.467  11.789
82073W        W50291  40.744  41.506  11.665
82074W        W50292   1.895  23.489  12.614
82075W        W50293  14.827  11.800  11.756
82076W        W50294  11.004  42.890  12.053
82077W        W50295  29.007  10.821  11.553
82078W        W50296  38.859   1.673  13.423
82079W        W50297  31.166   4.367   3.598
82080W        W50298  29.385   5.374   4.647
82081W        W50299   8.950  42.903  10.619
82082W        W50300  13.508  12.298   1.833
82083W        W50301  14.205   1.463  10.938
82084W        W50302  26.640  38.478   3.474
82085W        W50303  31.872  42.699  12.107
82086W        W50304  25.624  12.732   1.986
82087W        W50305  25.974   1.254   1.881
82088W        W50306  29.439   1.309   3.284
82089W        W50307  18.737  36.303   4.557
82090W        W50308  37.119  18.068  11.456
82091W        W50309  11.258  44.734   3.173
82092W        W50310   3.940  43.723   2.235
82093W        W50311  12.123  39.210  11.547
82094W        W50312  11.637  43.299  11.110
82095W        W50313  38.905  22.304  10.704
82096W        W50314  11.710  41.499  11.935
82097W        W50315  29.897  17.338  12.156
82098W        W50316  13.554  14.264   0.471
82099W        W50317  33.667  24.631   1.415
82100W        W50318   6.846  13.034   1.244
82101W        W50319  33.458   1.210   4.762
82102W        W50320  33.888  25.998   4.330
82103W        W50321   7.613   2.686  11.593
82104W        W50322  27.912  30.944   4.573
82105W        W50323  25.199  13.978   2.334
82106W        W50324  15.432  29.717  14.050
82107W        W50325   2.817   9.201   1.664
82108W        W50326  35.411   7.813  13.512
82109W        W50327  32.137  14.368  12.804
82110W        W50328  11.603  11.707  11.390
82111W        W50329  31.580   8.176  11.181
82112W        W50330  17.966  24.542  12.527
82113W        W50331  18.617   2.601  12.881
82114W        W50332   0.256  11.202  14.802
82115W        W50333  13.278  21.782   2.802
82116W        W50334   7.949   8.952  13.340
82117W        W50335   1.805   9.227  12.910
82118W        W50336   0.965  36.373  13.150
82119W        W50337  12.724  26.516  13.821
82120W        W50338   3.398  17.886   4.187
82121W        W50339  15.710  42.514  13.835
82122W        W50340   5.494   1.464  11.593
82123W        W50341  32.512  14.875   1.480
82124W        W50342  28.420  39.834  13.925
82125W        W50343   2.763   7.038   3.636
82126W        W50344  10.401  33.063  11.993
82127W        W50345  40.883  11.899   3.105
82128W        W50346   4.238  24.124   4.691
82129W        W50347  17.774  29.115  12.487
82130W        W50348  35.679  36.402   1.034
82131W        W50349   2.744  42.051   0.706
82132W        W50350  20.098  15.824   2.218
82133W        W50351  27.299   9.529  14.465
82134W        W50352   9.289   4.963  12.065
82135W        W50353  39.962  34.461   2.252
82136W        W50354  17.563  34.250   4.177
82137W        W50355  44.123  36.894   4.915
82138W        W50356   8.981  12.972  10.350
82139W        W50357  40.816   1.235   0.557
82140W        W50358  15.753   7.311  10.952
82141W        W50359  17.234  17.157  12.095
82142W        W50360  19.326  31.376   2.539
82143W        W50361  23.480  36.351   0.575
82144W        W50362  39.800  40.781  10.998
82145W        W50363   5.220  40.272  14.401
82146W        W50364  21.191  27.166  10.671
82147W        W50365  29.598  28.249  13.351
82148W        W50366  24.691  24.691   0.984
82149W        W50367   3.462   2.028  11.156
82150W        W50368   5.355  41.505   1.679
82151W        W50369  23.471  24.804  10.498
82152W        W50370  22.723  25.786  11.124
82153W        W50371  43.928   1.422  13.794
82154W        W50372  23.461   2.415   2.789
82155W        W50373  41.036  36.886  13.352
82156W        W50374  10.281  44.798   0.255
82157W        W50375  21.799   6.579   3.311
82158W        W50376  41.380  22.285   0.792
82159W        W50377  11.904  31.528  14.496
82160W        W50378  11.261  40.146  14.084
82161W        W50379  26.351  44.507  11.567
82162W        W50380  28.250  16.510   4.075
82163W        W50381  19.865   9.622   2.357
82164W        W50382  29.448   8.930  12.845
82165W        W50383  31.054   2.599  10.687
82166W        W50384  34.320  37.137  10.753
82167W        W50385  10.295  20.601  14.982
82168W        W50386  25.485  32.362   4.529
82169W        W50387  30.713  33.936  14.926
82170W        W50388  44.394  24.242  12.931
82171W        W50389  29.396  11.719  14.019
82172W        W50390  44.512  42.338   1.217
82173W        W50391  14.696  43.285   5.493
82174W        W50392   7.117  40.830   2.653
82175W        W50393  13.776   4.788  10.392
82176W        W50394  21.643  18.691   4.671
82177W        W50395  41.966   5.297  13.489
82178W        W50396  21.432  34.739   0.165
82179W        W50397  42.588  42.498  12.498
82180W        W50398  38.607  41.411   1.890
82181W        W50399  12.597  40.392  14.143
82182W        W50400  28.985  25.212  13.874
82183W        W50401  30.682  15.594  14.019
82184W        W50402  16.268  41.257   2.451
82185W        W50403  26.081  26.510  13.856
82186W        W50404  13.089   7.357  12.448
82187W        W50405   8.707  37.126   2.318
82188W        W50406   0.874   1.451   3.341
82189W        W50407  17.584  31.306   0.274
82190W        W50408   7.687   6.691  14.446
82191W        W50409  44.121   8.801  13.932
82192W        W50410  38.936   9.134  10.812
82193W        W50411   6.417   4.660  12.411
82194W        W50412  27.858  27.529  14.903
82195W        W50413  28.754  38.038   0.749
82196W        W50414  18.470  42.414  11.013
82197W        W50415  32.709  38.545   2.718
82198W        W50416  34.926   2.776   3.297
82199W        W50417  39.961  16.761   2.804
82200W        W50418  13.323  26.412  12.107
82201W        W50419  39.342  37.839  12.901
82202W        W50420  10.706  16.796   3.415
82203W        W50421   1.749  36.137   3.421
82204W        W50422  16.491   0.791  10.633
82205W        W50423  15.728  42.265   0.854
82206W        W50424  11.066  30.662   0.132
82207W        W50425  43.378  13.304   1.309
82208W        W50426  18.917  43.129   9.823
82209W        W50427  29.899  38.797   5.038
82210W        W50428  25.559   3.023  10.766
82211W        W50429  18.548  30.940   4.797
82212W        W50430  14.644  10.781   0.686
82213W        W50431   4.312  17.394   4.633
82214W        W50432  19.222   6.946  11.102
82215W        W50433   4.030  10.621  12.367
82216W        W50434   2.438  10.400   2.330
82217W        W50435  22.730  28.949   9.699
82218W        W50436  44.254  30.256   1.723
82219W        W50437  14.240  43.385   4.581
82220W        W50438   7.852   3.182   4.662
82221W        W50439  39.202  42.891  11.191
82222W        W50440  12.713  33.186   2.724
82223W        W50441  38.792  18.102   1.414
82224W        W50442   8.627   9.707  12.487
82225W        W50443   5.351  33.656  11.599
82226W        W50444   0.483  44.915   1.341
82227W        W50445  43.000   1.287  14.253
82228W        W50446  23.733  40.763  14.863
82229W        W50447  29.316  39.396  14.715
82230W        W50448  33.436   3.847  10.450
82231W        W50449  10.708  24.260  11.877
82232W        W50450  37.891  28.396  11.637
82233W        W50451   9.656  35.033  13.449
82234W        W50452  33.567  40.729  13.280
82235W        W50453  21.690  13.524  12.925
82236W        W50454  36.483  10.161   2.166
82237W        W50455   3.145  18.767   1.911
82238W        W50456   5.668  21.067   0.091
82239W        W50457  12.498  44.022   2.650
82240W        W50458  42.454  37.119   2.688
82241W        W50459  24.771  15.015   0.764
82242W        W50460  15.551   0.002   0.864
82243W        W50461  26.589  10.773   1.244
82244W        W50462   4.260  23.239  12.529
82245W        W50463  11.659  19.305   4.416
82246W        W50464  42.330  11.799  14.653
82247W        W50465  22.373  17.721  11.996
82248W        W50466  22.176  35.595   2.214
82249W        W50467  15.621  41.820  11.973
82250W        W50468  33.526  35.369  12.329
82251W        W50469  34.508   4.308  12.022
82252W        W50470   4.832  12.567  12.095
82253W        W50471  38.862  39.921   0.203
82254W        W50472   1.997  37.866  12.600
82255W        W50473  21.123  43.311   3.076
82256W        W50474   0.009  30.042  13.455
82257W        W50475   7.152  24.383   0.336
82258W        W50476   7.711  30.466  13.529
82259W        W50477  21.268  34.384   2.228
82260W        W50478  14.550  29.946   0.447
82261W        W50479  39.481   0.419   4.124
82262W        W50480   4.372  44.976  13.511
82263W        W50481  26.726   3.820   4.325
82264W        W50482   7.912  26.623   3.234
82265W        W50483   0.819  19.850  14.690
82266W        W50484  29.703  30.551   1.738
82267W        W50485  38.883  31.567  13.830
82268W        W50486   3.421  11.460   3.565
82269W        W50487  43.986  13.613   2.388
82270W        W50488  19.123  33.902   3.080
82271W        W50489   6.400  16.488   4.846
82272W        W50490  32.648  39.056  12.965
82273W        W50491  12.584  43.763   1.356
82274W        W50492  41.925  13.814  10.786
82275W        W50493  18.007  22.182  12.665
82276W        W50494   5.790  16.772  12.159
82277W        W50495  21.055  21.713  11.607
82278W        W50496  13.249  32.927  14.069
82279W        W50497  23.477   0.809  13.384
82280W        W50498  33.788  37.430  12.287
82281W        W50499  10.919   5.158  13.834
82282W        W50500  35.758   2.723   1.827
82283W        W50501  22.659  39.766  11.794
82284W        W50502  36.867  14.236  14.493
82285W        W50503  24.744  33.090   4.830
82286W        W50504  11.720   4.922  12.199
82287W        W50505  40.055  20.491  12.151
82288W        W50506  33.871  36.041  11.675
82289W        W50507   2.334  33.511  11.186
82290W        W50508  29.779  14.194   2.429
82291W        W50509   5.665   0.784  12.591
82292W        W50510   0.453   6.704   1.843
82293W        W50511  38.975  10.588  14.107
82294W        W50512  41.684   5.446   2.226
82295W        W50513  14.109  16.842  11.557
82296W        W50514  38.418  17.019   0.377
82297W        W50515  29.588  33.441   1.390
82298W        W50516  10.411  15.541   0.305
82299W        W50517  42.598  37.526   3.485
82300W        W50518  24.021  23.013   2.812
82301W        W50519  24.076  18.251  12.586
82302W        W50520  39.068  10.774  13.638
82303W        W50521  21.608  15.454   2.337
82304W        W50522   0.032   9.423   3.705
82305W        W50523  36.554  35.001   2.285
82306W        W50524   7.805  41.942  11.515
82307W        W50525  39.803  39.995  11.886
82308W        W50526  30.514  13.512  11.085
82309W        W50527  40.287   0.276  14.532
82310W        W50528  41.403  39.116  11.582
82311W        W50529   9.344  33.872  14.336
82312W        W50530  40.335  13.615  14.786
82313W        W50531   7.447  41.789  13.637
82314W        W50532   4.497  36.912   3.644
82315W        W50533   7.205  40.138  11.705
82316W        W50534  40.897  11.080   3.764
82317W        W50535   9.513  35.551  11.494
82318W        W50536   0.202  26.870  13.415
82319W        W50537  43.568  38.593   2.404
82320W        W50538   2.511  41.802   2.906
82321W        W50539  27.133  26.081   1.452
82322W        W50540  40.350   5.693  13.356
82323W        W50541  16.674  20.029  13.879
82324W        W50542  10.084  41.866   3.222
82325W        W50543  31.127  22.316   1.277
82326W        W50544   2.290   7.277  14.977
82327W        W50545  41.894  34.069  11.848
82328W        W50546  32.979  26.863   1.145
82329W        W50547   2.316   3.960   0.373
82330W        W50548  19.736  35.310  12.030
82331W        W50549  20.648  28.087  11.584
82332W        W50550   6.229  38.427   2.295
82333W        W50551  11.943  23.942  14.305
82334W        W50552  28.108   5.646   0.850
82335W        W50553  37.261   6.780   3.694
82336W        W50554  23.061  41.971   1.420
82337W        W50555  24.935  15.315  12.002
82338W        W50556  21.745  18.077  14.256
82339W        W50557   1.698   3.773  13.920
82340W        W50558  35.304  23.452   3.216
82341W        W50559   0.077   7.984   4.082
82342W        W50560  11.381  35.885  13.530
82343W        W50561   4.409   5.424  11.521
82344W        W50562  29.607  26.262  11.947
82345W        W50563  43.232   4.733  14.385
82346W        W50564  11.183  38.190  10.588
82347W        W50565  42.500   0.775  11.905
82348W        W50566   2.240  15.477   3.613
82349W        W50567   2.720  33.214   1.263
82350W        W50568  28.297  11.708  14.724
82351W        W50569  33.547  25.775   0.842
82352W        W50570   4.655   0.801   2.619
82353W        W50571  24.076   6.881   3.547
82354W        W50572  15.573  10.016  11.754
82355W        W50573  42.837  18.054  14.355
82356W        W50574  41.282  29.421   2.713
82357W        W50575  34.916  29.234   1.740
82358W        W50576  41.009  18.545  12.123
82359W        W50577  38.936  39.524   2.898
82360W        W50578  27.462  22.457   3.223
82361W        W50579  36.436  21.628  12.707
82362W        W50580  31.473  36.882  13.762
82363W        W50581  23.992   8.777  13.801
82364W        W50582   8.695  35.571  11.952
82365W        W50583   6.641  25.234   4.102
82366W        W50584  21.111  37.617  14.344
82367W        W50585  15.767  18.148   3.406
82368W        W50586  14.267   9.354   0.307
82369W        W50587  38.314  19.864   4.587
82370W        W50588  11.171   7.300   4.041
82371W        W50589   5.858  23.176  13.079
82372W        W50590  42.833  35.652  10.642
82373W        W50591  19.430   6.272   4.888
82374W        W50592   7.606  31.139   2.342
82375W        W50593  16.262  37.065   0.439
82376W        W50594   2.453   0.299  14.790
82377W        W50595  13.704  24.213  12.151
82378W        W50596  25.619  12.861   3.673
82379W        W50597  41.192   3.461  14.236
82380W        W50598   6.395   6.653   0.763
82381W        W50599  21.204  25.790  14.265
82382W        W50600  30.674  42.699   3.287
82383W        W50601  43.039   1.709  13.958
82384W        W50602  13.314   5.636   0.896
82385W        W50603   2.821  29.512  10.743
82386W        W50604  23.707  11.793  13.542
82387W        W50605  37.842   8.753  10.247
82388W        W50606  38.263  20.135  12.864
82389W        W50607   1.216  39.333  14.436
82390W        W50608  36.925  41.392  13.290
82391W        W50609  15.038  11.778  13.305
82392W        W50610  32.068  16.888  10.294
82393W        W50611  30.573   7.805  12.834
82394W        W50612  41.082   3.387  11.548
82395W        W50613  31.408  27.412   0.776
82396W        W50614  19.985  26.430   1.308
82397W        W50615  31.118  32.091  14.841
82398W        W50616   4.184  11.580  14.054
82399W        W50617   5.421  25.690  11.034
82400W        W50618  38.586  30.491   5.067
82401W        W50619  21.111  18.227   0.898
82402W        W50620  26.826   7.835   1.835
82403W        W50621   0.366  18.990  11.428
82404W        W50622  10.437  17.394  11.505
82405W        W50623  27.547  15.300  12.935
82406W        W50624   6.997  17.615   4.025
82407W        W50625  32.544   5.489  14.368
82408W        W50626   8.358   9.785   2.213
82409W        W50627   1.521  19.962  11.554
82410W        W50628  17.039  44.960  12.965
82411W        W50629  43.519  38.410   4.579
82412W        W50630  40.351  32.055   4.869
82413W        W50631   0.890   7.309   1.241
82414W        W50632  34.174  12.343   1.327
82415W        W50633  40.575  26.083   3.221
82416W        W50634  21.294  24.995   3.448
82417W        W50635  31.983  43.555   0.072
82418W        W50636  36.952  26.551   1.842
82419W        W50637  38.208  35.650   5.140
82420W        W50638  35.181  23.465  11.408
82421W        W50639   2.369  27.871  13.346
82422W        W50640   1.919  16.176   2.646
82423W        W50641   1.467   9.798  14.407
82424W        W50642  11.864  13.037   1.405
82425W        W50643  38.391  40.315  12.991
82426W        W50644  33.100  19.628  14.317
82427W        W50645  11.631  22.756   0.837
82428W        W50646  43.048  35.648   0.508
82429W        W50647  21.033  27.101   1.454
82430W        W50648  13.494  36.396  11.121
82431W        W50649  21.894  13.935   4.938
82432W        W50650  26.603  35.733   1.790
82433W        W50651  35.358   1.254   2.044
82434W        W50652  32.870  30.355  14.832
82435W        W50653  14.723   5.983  14.281
82436W        W50654  13.144  17.523  11.039
82437W        W50655  24.640  19.465   3.887
82438W        W50656  38.534   4.533   2.296
82439W        W50657  31.692   4.665   0.824
82440W        W50658  42.854   5.392   4.106
82441W        W50659  24.908   9.285  11.151
82442W        W50660  33.124  17.163  11.589
82443W        W50661  20.208  31.118  12.407
82444W        W50662  32.472  17.881  10.761
82445W        W50663  42.874  35.338  13.003
82446W        W50664  32.204  24.702   3.357
82447W        W50665  14.184  18.567  13.555
82448W        W50666  35.928  13.791  10.868
82449W        W50667   0.289  18.243   2.332
82450W        W50668  11.839  21.589   1.254
82451W        W50669  43.223   6.259   0.051
82452W        W50670  20.167  29.569  14.615
82453W        W50671  28.111  26.489   4.863
82454W        W50672  18.987  13.568  13.970
82455W        W50673  29.112  15.607   0.020
82456W        W50674  30.792  42.843  10.382
82457W        W50675   5.955  33.975  11.074
82458W        W50676  12.130  37.141   1.330
82459W        W50677   9.811   8.681   3.631
82460W        W50678   1.752  11.917   1.180
82461W        W50679  14.698   7.883  12.024
82462W        W50680  10.425  30.550  13.574
82463W        W50681  11.617  35.899   1.955
82464W        W50682  17.193   7.343   4.532
82465W        W50683   3.914   1.460   1.764
82466W        W50684   0.739  42.029   2.991
82467W        W50685  31.529  31.404  11.946
82468W        W50686  24.677   2.457   4.809
82469W        W50687  43.505  13.608   0.369
82470W        W50688  33.219   4.872  12.824
82471W        W50689  23.554  25.668  14.029
82472W        W50690  34.115  43.818   3.159
82473W        W50691  11.340  28.116   3.185
82474W        W50692  23.654  28.673   1.361
82475W        W50693  17.287  42.841  10.823
82476W        W50694  25.692   8.646  14.456
82477W        W50695  40.021  38.186  13.379
82478W        W50696  25.991  34.864  12.174
82479W        W50697  22.786  36.343  11.227
82480W        W50698   6.844  36.431   2.723
82481W        W50699   5.856  30.391   2.101
82482W        W50700  13.366  38.492  10.513
82483W        W50701  38.476  31.934   0.494
82484W        W50702  15.321  34.575   2.911
82485W        W50703  25.011  32.755   2.173
82486W        W50704  27.558  29.737   1.716
82487W        W50705  22.838   2.331   1.264
82488W        W50706   0.862  24.982  13.832
82489W        W50707   0.959  37.268  12.068
82490W        W50708   3.238  38.734   4.914
82491W        W50709  26.189  29.660  14.099
82492W        W50710   2.945  14.642   0.016
82493W        W50711  15.349  21.173   1.153
82494W        W50712   1.345  19.222  14.884
82495W        W50713   6.643   5.490   0.797
82496W        W50714  20.208  27.917   1.670
82497W        W50715  37.327  33.421  13.961
82498W        W50716  20.489  14.759   0.512
82499W        W50717  37.410   3.740  14.879
82500W        W50718  24.742  17.773  11.214
82501W        W50719  38.479  40.812  14.193
82502W        W50720   5.780   4.181   0.480
82503W        W50721  25.612  29.910  13.606
82504W        W50722  18.469  11.134  10.777
82505W        W50723  32.080  18.255  10.711
82506W        W50724  20.182  10.200   1.336
82507W        W50725  27.465  39.833   4.892
82508W        W50726  22.780  32.968  12.056
82509W        W50727  11.802  11.283   2.689
82510W        W50728  22.155  16.764   0.204
82511W        W50729  27.406  31.475   2.214
82512W        W50730  23.923  21.919  11.610
82513W        W50731  30.109   2.719  11.851
82514W        W50732  23.108  34.589   0.453
82515W        W50733  26.399  18.721   0.027
82516W        W50734  28.987  19.267   4.275
82517W        W50735  16.632  26.485  12.436
82518W        W50736  13.140  36.068   9.878
82519W        W50737   6.926  16.511  13.318
82520W        W50738  37.404  19.632   2.283
82521W        W50739   0.152  30.500   0.833
82522W        W50740  22.124  37.152   4.583
82523W        W50741  19.702   7.906  12.078
82524W        W50742  17.467  38.350   4.626
82525W        W50743  29.390  39.480   2.361
82526W        W50744  12.314  35.637  10.900
82527W        W50745  44.216  44.292   0.796
82528W        W50746  40.685  43.809  14.411
82529W        W50747  21.670  29.402   3.530
82530W        W50748   0.406   0.597  13.822
82531W        W50749  17.679  10.643   3.102
82532W        W50750  32.148  12.892   1.286
82533W        W50751  14.841  14.027  10.956
82534W        W50752   7.093  31.440  12.623
82535W        W50753   0.649  31.072  13.890
82536W        W50754  14.664  27.221   3.795
82537W        W50755  36.276   1.404  11.601
82538W        W50756  43.289  16.827  11.095
82539W        W50757  35.391  32.554  13.097
82540W        W50758  15.579   9.247  10.767
82541W        W50759   0.743  10.282  13.474
82542W        W50760  24.061  34.409   2.848
82543W        W50761   7.593  44.867  13.414
82544W        W50762  19.052  37.938  14.076
82545W        W50763   9.663   4.686   0.267
82546W        W50764  36.580   0.641   3.253
82547W        W50765  15.161  12.438   3.202
82548W        W50766   3.939  18.089   4.889
82549W        W50767  38.584  37.156   5.230
82550W        W50768  29.569  15.762  12.336
82551W        W50769  14.809  37.943  13.769
82552W        W50770  24.844   1.466   1.811
82553W        W50771  26.986  41.788  11.182
82554W        W50772  29.064  19.186  14.486
82555W        W50773  14.321  30.850   5.104
82556W        W50774  22.666  17.715   2.802
82557W        W50775   6.127  12.757   3.203
82558W        W50776   2.950  44.890   0.733
82559W        W50777  33.804  18.095   1.912
82560W        W50778  32.484  24.751  11.149
82561W        W50779  26.623  37.894  11.544
82562W        W50780  28.681  13.155  13.948
82563W        W50781  28.599  43.078   0.983
82564W        W50782  22.221  21.261  14.817
82565W        W50783  26.958   6.181  11.980
82566W        W50784   3.764  20.534   0.672
82567W        W50785   4.939   6.945   4.880
82568W        W50786   1.693   1.721  10.772
82569W        W50787  40.231  33.543  14.472
82570W        W50788  25.690   5.407  12.087
82571W        W50789  14.602   0.217   2.159
82572W        W50790  42.859  34.453  10.603
82573W        W50791  10.334  23.994   1.466
82574W        W50792  17.934   9.138  12.063
82575W        W50793  37.496  20.849  11.730
82576W        W50794  26.962  13.802   1.251
82577W        W50795  43.095  18.639   5.087
82578W        W50796  22.530  14.366  14.830
82579W        W50797  10.597  35.834   2.264
82580W        W50798  18.705  25.430  12.722
82581W        W50799  15.832   1.743  13.442
82582W        W50800  28.648  44.232  10.049
82583W        W50801  42.899  24.943  14.573
82584W        W50802  44.267  19.218  11.046
82585W        W50803  16.161  26.322   4.160
82586W        W50804  23.806  43.503   3.219
82587W        W50805  31.443  26.534  12.574
82588W        W50806  20.706  39.308  12.008
82589W        W50807  17.102  13.186   2.197
82590W        W50808  15.111  29.214  11.721
82591W        W50809  31.395  38.271   4.612
82592W        W50810  23.200  28.560   3.315
82593W        W50811  23.700  34.913   3.744
82594W        W50812   7.902  28.968  11.593
82595W        W50813  20.040  13.761   3.325
82596W        W50814  33.539  29.660   2.404
82597W        W50815  25.590  14.611   1.778
82598W        W50816   3.230   0.952  13.364
82599W        W50817  10.355  15.425   3.031
82600W        W50818  33.047  16.557   2.917
82601W        W50819  19.955  15.284   2.817
82602W        W50820  36.030  31.692   0.275
82603W        W50821  29.862  38.537   2.428
82604W        W50822  41.454  11.398   1.891
82605W        W50823  19.701  26.973   2.784
82606W        W50824  19.976  14.578   3.969
82607W        W50825  18.651  44.329  11.972
82608W        W50826   7.626  12.160  12.075
82609W        W50827  22.717  19.780   3.603
82610W        W50828  31.448   5.225  12.082
82611W        W50829  35.600  40.381  12.582
82612W        W50830  15.403   0.799  14.056
82613W        W50831   4.322  41.789   3.074
82614W        W50832  42.423  43.787   1.162
82615W        W50833  36.498  14.423  13.377
82616W        W50834   5.671  38.527   3.236
82617W        W50835   1.009   7.200  10.281
82618W        W50836  15.162   1.445  10.593
82619W        W50837  21.656  40.100  13.063
82620W        W50838  18.847   4.605  14.797
82621W        W50839  19.128  39.880  11.934
82622W        W50840  12.604  24.268  14.875
82623W        W50841  13.601  42.309  10.710
82624W        W50842  44.572  40.266   3.527
82625W        W50843   9.286  12.213  12.137
82626W        W50844  37.921  33.619  11.694
82627W        W50845  11.695  28.016  14.384
82628W        W50846  36.068  43.269  11.784
82629W        W50847   3.945  20.264   4.106
82630W        W50848  34.826  31.337  13.776
82631W        W50849  22.298  20.551   3.626
82632W        W50850  31.048  12.934   2.285
82633W        W50851  41.361  14.570  13.422
82634W        W50852   4.286  14.106   3.771
82635W        W50853  28.747  23.431   9.984
82636W        W50854  21.140  10.436  11.997
82637W        W50855  40.806  16.617  11.182
82638W        W50856   3.427   6.484   4.130
82639W        W50857  42.025  37.561  12.088
82640W        W50858  18.428   1.413   3.113
82641W        W50859  12.649  35.408  12.016
82642W        W50860  39.420  23.184  11.498
82643W        W50861  18.067  40.834  14.018
82644W        W50862  28.702  30.343  11.358
82645W        W50863  18.753  23.664  11.519
82646W        W50864  23.397  34.039  11.121
82647W        W50865  43.286  42.455   0.000
82648W        W50866   9.479  35.091  14.008
82649W        W50867   4.035  27.502  13.888
82650W        W50868  24.972  12.642  12.563
82651W        W50869  33.588  30.175  11.241
82652W        W50870   7.794  33.694  12.028
82653W        W50871  21.120  26.781  10.316
82654W        W50872   7.665  15.063   1.095
82655W        W50873  24.992  23.346   1.053
82656W        W50874   0.203  11.766  13.530
82657W        W50875   6.203  15.310  14.026
82658W        W50876  19.803  41.849   0.536
82659W        W50877  23.194  27.145   2.826
82660W        W50878  36.640  26.557   0.651
82661W        W50879  27.262  18.697   4.120
82662W        W50880  21.185  21.828   3.801
82663W        W50881  11.008  19.177   2.843
82664W        W50882   8.895  21.775  13.509
82665W        W50883  34.402  22.948   1.250
82666W        W50884  11.829  11.903   3.257
82667W        W50885  41.247  11.616   2.865
82668W        W50886  34.442   9.167  12.511
82669W        W50887  39.530  31.866   1.828
82670W        W50888  31.104   2.199  11.119
82671W        W50889   8.051  33.136   4.217
82672W        W50890  40.830  23.845  13.833
82673W        W50891   0.845  22.983  14.923
82674W        W50892   2.044   8.721  12.984
82675W        W50893  15.278  30.501   3.448
82676W        W50894  10.317  14.780  12.534
82677W        W50895   0.548  32.811   1.924
82678W        W50896   6.673  37.328   0.115
82679W        W50897  15.482  32.985  12.984
82680W        W50898  29.236  41.907   0.325
82681W        W50899  41.490   8.365  13.871
82682W        W50900  15.192  23.719   0.394
82683W        W50901  34.051   3.256  13.034
82684W        W50902  17.891  31.601   2.812
82685W        W50903  11.736   6.129   5.150
82686W        W50904  26.151  15.365  11.604
82687W        W50905  33.750  37.332   3.319
82688W        W50906  23.543  15.365   2.438
82689W        W50907  32.499  20.309  14.756
82690W        W50908  25.760  40.457  12.726
82691W        W50909  41.522  16.534  11.495
82692W        W50910  33.476  20.072   4.601
82693W        W50911  13.179  43.790   9.806
82694W        W50912  18.677   3.597   0.231
82695W        W50913   4.724  29.288  11.728
82696W        W50914   2.823  12.091   2.652
82697W        W50915  17.568  28.039  12.902
82698W        W50916  18.435  32.962  13.941
82699W        W50917  29.617  16.756  13.407
82700W        W50918   9.378  44.282  11.557
82701W        W50919  38.893   4.203  12.198
82702W        W50920  41.824  40.408  11.076
82703W        W50921  18.721  27.535  13.558
82704W        W50922   9.779   9.435   1.505
82705W        W50923  27.550  28.728   2.011
82706W        W50924  20.300  26.116  13.836
82707W        W50925  24.062  39.926  12.628
82708W        W50926  35.680  11.061   2.742
82709W        W50927  17.682  20.699  11.374
82710W        W50928   4.296  26.389   0.383
82711W        W50929  15.288   7.529   2.515
82712W        W50930   8.663  39.696  14.982
82713W        W50931  26.022  21.301  11.235
82714W        W50932  25.632  30.703  10.670
82715W        W50933  18.946  18.964   0.348
82716W        W50934   8.950  17.805  13.035
82717W        W50935  21.743  43.374   0.869
82718W        W50936   5.704  37.457  14.779
82719W        W50937  39.746  21.098  13.091
82720W        W50938  44.807  40.743   2.402
82721W        W50939  36.969  11.109   1.631
82722W        W50940  23.406  16.227   0.290
82723W        W50941  43.762  23.673  13.073
82724W        W50942  33.532  11.464   3.641
82725W        W50943   0.339  20.590   3.818
82726W        W50944   7.831  11.967   3.329
82727W        W50945  16.220  37.112   3.962
82728W        W50946   4.717  26.928   1.360
82729W        W50947  44.816   4.959  12.550
82730W        W50948  29.278  32.929  12.396
82731W        W50949  18.099   2.930   2.500
82732W        W50950  33.933  34.934   4.238
82733W        W50951  44.323  13.683   2.889
82734W        W50952  21.095  18.975   3.297
82735W        W50953  38.093   2.959  12.980
82736W        W50954  19.764  27.731   4.112
82737W        W50955  16.588  19.317  11.560
82738W        W50956  34.687  41.783   3.223
82739W        W50957  42.542  37.594  10.891
82740W        W50958   0.493   0.844  11.622
82741W        W50959  43.948  37.990   2.378
82742W        W50960  19.791  40.000  12.504
82743W        W50961  31.188  42.776   3.966
82744W        W50962  33.398   1.330   1.871
82745W        W50963  18.742  22.561   2.830
82746W        W50964  34.107  29.731   4.097
82747W        W50965  37.891   4.504  14.793
82748W        W50966  34.592  20.648   1.297
82749W        W50967   8.770  11.071   3.593
82750W        W50968  30.433   8.289  12.017
82751W        W50969  17.682  40.969   2.281
82752W        W50970   1.077  22.793   2.258
82753W        W50971  16.401  39.678   3.336
82754W        W50972   7.910  27.088   4.484
82755W        W50973  31.295  10.161  13.356
82756W        W50974  41.969  40.209  10.601
82757W        W50975  24.134   5.638   0.422
82758W        W50976  34.251  37.303   4.089
82759W        W50977  18.145  17.535  13.901
82760W        W50978  28.057  29.893   4.653
82761W        W50979  20.231  30.437   4.525
82762W        W50980  24.114   7.552  10.252
82763W        W50981  41.800  33.008  10.762
82764W        W50982  30.751  40.527  11.640
82765W        W50983  13.202   9.348  11.058
82766W        W50984  30.230  33.609   1.780
82767W        W50985  19.186  22.942   4.623
82768W        W50986  24.140  15.486   4.149
82769W        W50987  26.998  39.433  12.105
82770W        W50988   5.882   0.323   2.039
82771W        W50989  14.249  26.964   2.857
82772W        W50990  40.317  16.526  11.083
82773W        W50991  27.119  22.296  14.295
82774W        W50992   2.533   8.274   1.399
82775W        W50993   4.309  16.452   0.076
82776W        W50994  27.575  44.719   0.698
82777W        W50995   1.153  37.072  13.885
82778W        W50996  16.074  38.020   2.503
82779W        W50997   3.970  22.989  11.900
82780W        W50998  39.591  34.607  10.510
82781W        W50999  39.900   5.697   2.731
82782W        W51000  12.805  37.588  10.883
82783W        W51001  28.958  28.441   4.548
82784W        W51002  27.239  28.585  14.716
82785W        W51003  24.365  10.087   2.191
82786W        W51004  16.861  32.419   0.521
82787W        W51005  21.223  20.239  13.292
82788W        W51006  33.600  38.938   2.742
82789W        W51007   6.233  39.950  12.009
82790W        W51008   3.811  14.158  10.764
82791W        W51009  41.360  27.516  13.993
82792W        W51010  41.940  10.688   1.703
82793W        W51011   0.213  36.640  13.561
82794W        W51012  42.952  39.977  11.923
82795W        W51013  32.996  11.931  14.057
82796W        W51014  21.685  26.637  11.128
82797W        W51015  12.213  28.695   1.097
82798W        W51016  28.944  29.745   2.780
82799W        W51017  32.852  21.707   2.783
82800W        W51018  34.037  24.058   3.433
82801W        W51019   8.628   0.122  12.987
82802W        W51020   2.639  29.033  11.455
82803W        W51021  23.795  30.924  12.040
82804W        W51022  44.352  38.120   0.953
82805W        W51023  39.400   8.881   4.667
82806W        W51024  42.911  18.172  14.907
82807W        W51025  41.625  19.483  13.549
82808W        W51026  30.614   5.203  11.508
82809W        W51027   2.878  38.952  13.790
82810W        W51028  37.984  38.400  14.289
82811W        W51029  38.966   7.168   0.557
82812W        W51030  42.725   5.966  12.001
82813W        W51031   1.675  37.136  13.955
82814W        W51032  30.240  38.725   4.157
82815W        W51033  37.334  26.974  11.501
82816W        W51034  11.813  38.078   4.762
82817W        W51035  32.168  12.449   4.461
82818W        W51036  21.285  37.868   0.214
82819W        W51037  14.063  20.986   3.946
82820W        W51038  32.222   0.329  14.901
82821W        W51039   7.980  21.184   2.788
82822W        W51040  27.099  14.282  10.282
82823W        W51041  20.707   0.753  10.435
82824W        W51042  20.183   5.126   1.360
82825W        W51043  10.879  41.261  11.507
82826W        W51044  44.954  26.103   3.046
82827W        W51045  13.184  41.336   3.730
82828W        W51046  12.986   9.116   0.478
82829W        W51047  32.928  20.822   0.385
82830W        W51048  29.641  15.189   0.719
82831W        W51049  43.754  23.026  14.199
82832W        W51050  31.562  12.837   0.969
82833W        W51051  42.532  12.586  11.444
82834W        W51052   0.892   4.899   1.723
82835W        W51053  40.931  37.031  13.835
82836W        W51054  19.310  23.197   0.276
82837W        W51055  16.604  37.474   0.367
82838W        W51056   4.858  34.875  12.887
82839W        W51057   5.992  30.246  11.765
82840W        W51058   6.473  26.509  14.556
82841W        W51059  15.288  25.683  14.857
82842W        W51060  18.359   1.752   2.304
82843W        W51061   9.289  32.566  12.543
82844W        W51062  30.897  26.541   3.193
82845W        W51063   6.495  16.422  11.209
82846W        W51064  23.828  17.116   4.669
82847W        W51065  35.311  32.123   0.290
82848W        W51066  41.718  10.579  12.063
82849W        W51067   1.738  15.343   3.596
82850W        W51068  34.581  28.602  13.603
82851W        W51069  27.954  12.421  12.544
82852W        W51070  37.522   3.273   2.479
82853W        W51071   3.145  39.123  11.029
82854W        W51072  44.454   3.730   1.444
82855W        W51073  32.785  19.254   2.576
82856W        W51074   3.415  21.513  13.903
82857W        W51075  11.320  19.190   4.037
82858W        W51076  38.657  27.176   4.539
82859W        W51077  18.670   5.989  13.828
82860W        W51078   4.208   6.800   3.617
82861W        W51079  34.402  23.199  13.440
82862W        W51080   8.896  40.067   0.275
82863W        W51081  32.902  25.506  13.024
82864W        W51082  12.749  27.107   0.064
82865W        W51083  30.081  28.193   2.274
82866W        W51084  19.962   0.471  10.884
82867W        W51085  23.098  23.659   1.266
82868W        W51086  18.601  31.439  11.597
82869W        W51087  25.349  20.307  11.349
82870W        W51088  21.642  29.099   0.358
82871W        W51089  32.697  14.319   4.411
82872W        W51090  15.158   3.134  12.554
82873W        W51091  28.636   2.446  11.026
82874W        W51092  42.915  33.992  12.338
82875W        W51093  30.092  15.704  13.028
82876W        W51094  28.465   1.283  12.537
82877W        W51095  35.006   5.284  10.913
82878W        W51096  31.491  19.721   2.848
82879W        W51097  10.801   9.266   2.816
82880W        W51098  39.091   3.901  12.569
82881W        W51099   6.646  31.715  14.372
82882W        W51100   9.340  12.875   2.147
82883W        W51101  21.935   3.774  10.323
82884W        W51102  42.883  38.414   2.927
82885W        W51103  35.190  20.591  10.781
82886W        W51104  30.104  38.525  14.583
82887W        W51105  30.473   6.620  11.532
82888W        W51106   8.310  31.643  11.493
82889W        W51107  37.545  42.473  14.639
82890W        W51108  35.389  40.922   4.649
82891W        W51109  18.753  41.765   5.094
82892W        W51110  15.073  33.464   4.948
82893W        W51111  26.978  10.401   1.433
82894W        W51112  43.076  42.302   3.875
82895W        W51113  40.875  22.966  13.326
82896W        W51114  21.180  42.409   3.586
82897W        W51115   3.671  33.314   2.657
82898W        W51116  32.080  13.110   3.091
82899W        W51117  30.568  25.061   4.152
82900W        W51118  37.388  36.073  10.744
82901W        W51119   7.711   0.320  10.779
82902W        W51120  30.438  24.303   2.886
82903W        W51121  37.233  25.003  10.159
82904W        W51122   7.284  39.944   0.456
82905W        W51123  19.030  19.636   2.417
82906W        W51124  11.132  44.439   4.203
82907W        W51125  13.237  40.518   1.675
82908W        W51126  21.712  23.022  11.376
82909W        W51127  21.260  43.782   2.384
82910W        W51128  16.806  26.953  14.332
82911W        W51129   6.889  32.909  14.785
82912W        W51130  31.622   5.177   3.267
82913W        W51131   2.275  14.738  12.309
82914W        W51132  21.087  40.594   1.493
82915W        W51133  22.599   4.698  14.530
82916W        W51134  15.709  28.654  13.300
82917W        W51135   2.971  31.877   1.659
82918W        W51136  12.687  20.322  14.020
82919W        W51137  39.124  25.118  14.032
82920W        W51138  18.018  13.578  11.362
82921W        W51139  38.974   0.225  13.781
82922W        W51140  17.831  20.773   1.769
82923W        W51141  13.398   3.729   1.871
82924W        W51142  15.402  39.382   0.329
82925W        W51143  20.686  26.495   3.680
82926W        W51144  37.192  11.680  11.001
82927W        W51145  40.855   2.879  12.507
82928W        W51146  18.364  31.342   2.887
82929W        W51147  21.172  20.692   2.174
82930W        W51148   7.138  29.987  13.612
82931W        W51149  44.729  27.042   0.668
82932W        W51150  41.449  24.798  12.955
82933W        W51151  21.694  32.955   4.846
82934W        W51152   7.177  17.775   0.343
82935W        W51153  10.683   5.147   3.593
82936W        W51154  15.042   3.293  12.056
82937W        W51155  30.182   4.242  11.922
82938W        W51156  42.920  39.129  11.569
82939W        W51157  21.778  27.946  14.793
82940W        W51158  25.047  39.722  14.094
82941W        W51159  15.321  40.595  11.190
82942W        W51160  27.359   7.348  12.019
82943W        W51161  26.711  10.159   1.872
82944W        W51162  15.853  30.684  11.135
82945W        W51163   0.280   6.702  13.564
82946W        W51164  40.846  22.204   0.513
82947W        W51165   4.052  27.518   3.187
82948W        W51166  10.596   7.431  12.118
82949W        W51167  26.225  20.524   0.726
82950W        W51168  42.477   6.680  14.502
82951W        W51169   7.839  15.653  10.443
82952W        W51170   4.233  22.498   4.514
82953W        W51171  25.439  14.130  13.547
82954W        W51172  42.146  37.352   3.648
82955W        W51173   2.786   2.373   1.096
82956W        W51174  21.917  36.342   0.526
82957W        W51175  35.368  33.918   4.355
82958W        W51176  43.919  17.649  11.086
82959W        W51177  42.339  26.671   1.367
82960W        W51178   4.429   1.951  11.016
82961W        W51179  29.539  41.036   1.799
82962W        W51180  25.220  20.008  10.926
82963W        W51181  29.182  15.592   3.251
82964W        W51182  39.384   2.709   3.649
82965W        W51183  13.377  41.327  14.419
82966W        W51184   2.063  34.450  11.156
82967W        W51185  40.895  33.488  13.506
82968W        W51186  42.500  21.150   2.378
82969W        W51187  20.551  19.723  10.820
82970W        W51188  39.813   8.813  11.957
82971W        W51189  11.026  13.460   1.826
82972W        W51190  38.952  15.288  12.247
82973W        W51191  20.371   5.190   4.726
82974W        W51192  25.764   6.882  11.596
82975W        W51193   6.922  25.142   0.172
82976W        W51194   0.671  35.717   9.879
82977W        W51195  18.547  42.795   0.533
82978W        W51196  36.471  17.896  12.964
82979W        W51197   6.809   5.578   4.706
82980W        W51198  40.468  42.921   4.977
82981W        W51199   0.557  24.852   1.004
82982W        W51200  17.428  34.189  13.371
82983W        W51201  35.348  14.106  11.596
82984W        W51202  35.627   2.471  14.452
82985W        W51203  19.478  28.161   4.096
82986W        W51204  41.949  29.433   2.462
82987W        W51205   6.283   9.812   3.051
82988W        W51206   2.418   2.922   4.123
82989W        W51207  12.806  27.206  11.841
82990W        W51208  38.582  12.761   1.672
82991W        W51209  28.930  28.331   3.175
82992W        W51210  38.151  30.788  11.210
82993W        W51211  39.802  31.552   2.191
82994W        W51212  20.617  12.469  10.980
82995W        W51213  27.652  24.922  11.547
82996W        W51214  24.962  41.772   4.051
82997W        W51215   8.079  40.867   2.786
82998W        W51216  27.154  40.851   1.097
82999W        W51217  15.113  34.373  13.494
83000W        W51218  11.863  14.313   4.147
83001W        W51219  13.623  17.115   3.814
83002W        W51220  28.244   1.469  10.154
83003W        W51221  41.640  10.407   4.126
83004W        W51222   8.457  22.509  13.665
83005W        W51223  19.638  32.548   2.769
83006W        W51224  32.473  12.808  14.522
83007W        W51225  35.559   3.528  10.486
83008W        W51226  19.563  20.383   0.474
83009W        W51227   2.770  14.441   0.441
83010W        W51228  36.314  20.786  12.488
83011W        W51229  16.025   8.637  11.239
83012W        W51230  43.388  36.525   0.758
83013W        W51231  12.887  29.057   3.138
83014W        W51232  15.956   0.345  13.473
83015W        W51233   7.588  26.071  12.596
83016W        W51234  16.258  30.385   1.346
83017W        W51235  31.481  27.069   4.517
83018W        W51236  37.474  31.148  14.849
83019W        W51237   0.272  38.730   0.008
83020W        W51238  24.704  16.722   1.381
83021W        W51239  20.178   1.253  10.928
83022W        W51240  18.542   1.360   2.615
83023W        W51241  36.127  34.053   3.219
83024W        W51242  14.750   5.437  14.282
83025W        W51243  34.496  17.788   1.209
83026W        W51244  18.034  25.265   0.329
83027W        W51245  33.422  29.062  11.916
83028W        W51246   4.385  25.613  12.090
83029W        W51247  16.265  39.993  14.305
83030W        W51248  30.837   4.576   0.486
83031W        W51249  12.745   8.606   2.298
83032W        W51250  42.554  21.662   2.107
83033W        W51251  15.908  24.830   5.330
83034W        W51252  33.406  35.101   3.275
83035W        W51253  23.640  37.907   4.804
83036W        W51254  43.311   9.767  10.627
83037W        W51255  40.990  36.518   3.178
83038W        W51256  25.151   3.886   4.441
83039W        W51257   6.824  42.138   2.740
83040W        W51258  23.210  13.218  13.322
83041W        W51259  10.751  17.843   3.350
83042W        W51260  44.386   5.237   2.589
83043W        W51261  32.881  43.223  14.183
83044W        W51262  16.845   3.343   0.224
83045W        W51263  18.725  44.960   0.379
83046W        W51264   8.525  23.664  11.647
83047W        W51265  24.986  38.490   1.374
83048W        W51266  18.619  42.754  10.612
83049W        W51267  18.662  33.383   2.339
83050W        W51268  18.127   3.618   0.914
83051W        W51269  40.243  33.544   0.559
83052W        W51270  15.049   9.892  11.620
83053W        W51271  39.898  39.450   3.418
83054W        W51272  21.454  23.237  10.420
83055W        W51273   1.845  43.721  12.563
83056W        W51274  19.800  21.670   2.388
83057W        W51275  33.495  44.880  14.245
83058W        W51276  29.899  44.980  14.147
83059W        W51277  40.436  22.516   1.347
83060W        W51278  20.021  10.365  12.146
83061W        W51279   9.442   7.796  13.869
83062W        W51280  20.487   9.152   0.333
83063W        W51281  22.101  36.319  11.878
83064W        W51282  12.313  26.569   3.321
83065W        W51283  44.200  13.310   4.150
83066W        W51284   9.220  17.716   3.246
83067W        W51285  11.156  13.271   0.790
83068W        W51286  38.815  35.058  14.502
83069W        W51287  32.618  34.649  11.162
83070W        W51288   1.964  26.565  14.934
83071W        W51289   9.074  31.062   0.820
83072W        W51290  30.907  41.527  12.904
83073W        W51291   1.192   3.462   9.745
83074W        W51292  16.137  22.481   3.663
83075W        W51293  13.390  12.996   2.635
83076W        W51294  11.625  43.815  14.854
83077W        W51295  27.540  10.075  13.071
83078W        W51296   9.712  31.184   0.461
83079W        W51297  44.307  32.045   2.843
83080W        W51298   0.871  42.298   0.043
83081W        W51299  42.001  26.488   4.533
83082W        W51300  39.795   3.462   2.757
83083W        W51301   6.095  34.106   1.379
83084W        W51302   1.442  42.722   4.204
83085W        W51303  38.107  41.268  12.526
83086W        W51304  10.080  18.027   2.182
83087W        W51305  33.007  19.158  11.992
83088W        W51306  10.493  25.457   1.015
83089W        W51307   0.080  37.136   4.744
83090W        W51308   2.309   8.454  10.999
83091W        W51309   7.642   2.366  12.503
83092W        W51310  27.443  10.207   0.264
83093W        W51311   2.600  26.696  10.246
83094W        W51312  25.013  32.164  14.999
83095W        W51313   5.742  14.061   0.359
83096W        W51314  28.966  37.899   1.185
83097W        W51315   9.838  28.953   0.714
83098W        W51316  17.682  22.497   2.267
83099W        W51317  35.593  30.081  14.961
83100W        W51318  34.731  32.281   9.829
83101W        W51319  18.576  35.872  11.152
83102W        W51320  41.340  11.357   3.889
83103W        W51321  28.449  32.963   2.723
83104W        W51322  23.238  28.073  13.984
83105W        W51323  12.875  26.343   0.350
83106W        W51324  43.845  16.048   1.276
83107W        W51325  39.336   3.756   2.740
83108W        W51326  31.533  43.795  12.064
83109W        W51327  44.185  16.000   2.789
83110W        W51328  10.395  38.382   1.887
83111W        W51329  15.984   8.223   1.287
83112W        W51330  13.144   9.654   4.193
83113W        W51331   5.964  23.405  13.546
83114W        W51332  32.900  32.531   4.133
83115W        W51333  43.601  25.743  13.857
83116W        W51334   7.228  32.594  14.323
83117W        W51335  37.240  34.290  14.508
83118W        W51336  17.782   5.175   4.097
83119W        W51337  11.073  39.444  11.447
83120W        W51338  25.498  16.041  14.226
83121W        W51339   5.206  36.716   0.169
83122W        W51340  22.133  11.156  11.637
83123W        W51341  14.612   2.230  11.200
83124W        W51342  14.533   8.770   2.659
83125W        W51343   9.746  22.175  10.902
83126W        W51344  21.420  16.281  10.497
83127W        W51345  11.866  11.927  13.389
83128W        W51346  21.129   1.403   0.895
83129W        W51347  11.394  34.490   1.859
83130W        W51348  44.577  29.534  12.167
83131W        W51349  23.624  32.414   1.181
83132W        W51350  14.794   0.221  11.194
83133W        W51351  21.544  12.294   3.500
83134W        W51352  33.898  25.407  10.977
83135W        W51353  40.013  27.116   3.673
83136W        W51354  10.838  29.420   3.832
83137W        W51355  43.767  33.885   2.708
83138W        W51356  38.521  23.992   3.108
83139W        W51357  29.628   7.417   1.844
83140W        W51358  40.433   6.369  12.932
83141W        W51359   2.219  23.698   4.248
83142W        W51360  41.780   6.687  13.783
83143W        W51361  12.100  23.461  14.072
83144W        W51362   7.507  14.912   5.015
83145W        W51363  22.864   8.759   0.415
83146W        W51364  18.097  25.964  13.088
83147W        W51365  39.463  21.959  12.568
83148W        W51366  25.128  18.386   1.965
83149W        W51367  20.533  44.501  11.853
83150W        W51368  40.696   2.474  10.587
83151W        W51369  36.467   1.773   3.546
83152W        W51370  34.116  41.892   4.083
83153W        W51371  29.345  17.731  13.423
83154W        W51372  17.584  38.431  13.912
83155W        W51373  10.085  19.678  13.497
83156W        W51374   2.478  34.174   0.358
83157W        W51375  43.012  33.083  10.780
83158W        W51376  25.409  43.339  11.012
83159W        W51377  37.826  39.079  12.044
83160W        W51378  19.746   0.759  12.456
83161W        W51379  27.064  15.687  11.630
83162W        W51380  12.148  25.121  10.806
83163W        W51381  39.707  39.458   4.505
83164W        W51382   5.020  25.389   2.265
83165W        W51383  31.683  19.582   4.198
83166W        W51384  29.650  23.228   2.785
83167W        W51385  34.771   1.454  10.934
83168W        W51386  28.684  26.201  12.331
83169W        W51387  44.096   0.446   4.387
83170W        W51388  18.276  26.430   3.679
83171W        W51389  39.973  21.286   1.219
83172W        W51390  38.809  41.522  11.084
83173W        W51391  13.189  33.953   4.521
83174W        W51392  35.058  33.522  12.625
83175W        W51393  34.202  32.571  11.646
83176W        W51394  41.998   7.791   3.782
83177W        W51395  40.338  15.176   3.702
83178W        W51396  12.582  12.638   4.044
83179W        W51397  44.148  40.966   1.231
83180W        W51398   2.807  28.391  10.807
83181W        W51399  33.863  39.131  11.554
83182W        W51400  13.042  23.387  14.999
83183W        W51401  22.051  19.184   0.913
83184W        W51402  30.651  14.663  11.892
83185W        W51403   4.935   6.834   1.802
83186W        W51404  15.447  30.469   5.063
83187W        W51405   6.100  22.746  14.986
83188W        W51406  22.567   1.020   2.345
83189W        W51407   2.822  35.436   4.733
83190W        W51408  35.175  24.777  14.485
83191W        W51409   6.662  14.145  10.903
83192W        W51410  40.301   2.237  13.429
83193W        W51411  32.108   8.036  13.844
83194W        W51412  14.152   1.744   1.392
83195W        W51413  13.862   6.469   2.745
83196W        W51414  12.417  24.652  12.056
83197W        W51415  13.172   3.816   0.503
83198W        W51416  16.274  36.037   2.814
83199W        W51417   0.330  41.834   1.190
83200W        W51418   9.858  18.264  14.889
83201W        W51419  22.890  29.904  11.776
83202W        W51420  10.360  36.994   3.584
83203W        W51421  15.510  40.536   5.134
83204W        W51422   8.435  15.840   4.154
83205W        W51423  22.446   1.769   1.097
83206W        W51424  15.737  44.792  11.076
83207W        W51425   4.333  16.769  12.685
83208W        W51426  28.930  24.741  12.073
83209W        W51427   3.614  21.991   3.801
83210W        W51428   6.685  27.875  12.787
83211W        W51429  35.826  28.928   2.251
83212W        W51430  19.914   5.813   0.468
83213W        W51431  26.742  35.387  10.462
83214W        W51432   7.353  40.364  12.318
83215W        W51433   1.972  15.652  12.395
83216W        W51434  13.942  28.644   2.014
83217W        W51435  23.049  44.431   2.008
83218W        W51436  22.651  41.339   3.842
83219W        W51437  23.680   7.395  10.548
83220W        W51438  11.825  27.215   1.477
83221W        W51439   1.920  29.492   1.458
83222W        W51440  33.030  21.666   3.284
83223W        W51441  31.375  21.980  12.042
83224W        W51442  22.497  39.322   4.265
83225W        W51443  24.094  38.466   1.327
83226W        W51444  10.386  11.641   5.127
83227W        W51445   8.276  41.103   4.511
83228W        W51446  15.864  37.508  10.638
83229W        W51447   8.982   6.485   4.992
83230W        W51448  11.402  35.701   1.538
83231W        W51449  33.978  31.919   3.238
83232W        W51450   7.413  11.862   3.594
83233W        W51451  31.900  40.332   0.584
83234W        W51452   9.413  13.220  10.509
83235W        W51453  14.597  38.915   1.091
83236W        W51454  30.421   0.437  14.747
83237W        W51455  18.527  29.411   0.471
83238W        W51456  23.657  23.753   1.675
83239W        W51457   1.254  24.850   2.308
83240W        W51458  38.325  21.262  13.058
83241W        W51459  30.264  28.969   4.637
83242W        W51460   4.955  27.473   4.154
83243W        W51461  23.249   5.938   4.602
83244W        W51462  21.653   1.576  13.606
83245W        W51463   4.887  30.074  14.756
83246W        W51464  42.925   6.239   4.692
83247W        W51465   9.207  33.695  10.089
83248W        W51466  26.470  12.393   1.899
83249W        W51467  21.335  41.386  12.987
83250W        W51468   8.080  30.341   2.738
83251W        W51469  13.736   5.344  11.566
83252W        W51470  14.065  21.668   1.319
83253W        W51471  35.323  15.571  13.028
83254W        W51472  36.294  16.783   1.782
83255W        W51473  31.686  22.742   1.842
83256W        W51474  28.614  10.142   0.457
83257W        W51475   4.846  23.504   0.054
83258W        W51476  13.002  34.806   4.054
83259W        W51477  31.026  28.541   3.174
83260W        W51478  28.592  35.173   0.793
83261W        W51479  20.331  25.711  13.029
83262W        W51480   6.907  26.741   4.177
83263W        W51481  33.600   9.574   2.433
83264W        W51482   5.273   4.154   0.362
83265W        W51483   5.368   8.050  12.647
83266W        W51484   2.509   5.282   3.201
83267W        W51485   7.302  30.135  12.735
83268W        W51486  14.351   1.834  10.600
83269W        W51487  40.253  34.995   1.866
83270W        W51488  39.361   4.872  12.520
83271W        W51489  37.514  19.818  11.454
83272W        W51490   5.971   6.690   2.881
83273W        W51491   9.786   7.920   4.018
83274W        W51492  39.792  40.063   2.595
83275W        W51493  35.470   0.531   2.239
83276W        W51494  27.198  27.180   1.293
83277W        W51495  23.082  30.625   1.842
83278W        W51496   5.406  11.094  11.852
83279W        W51497   4.484  29.558   1.639
83280W        W51498  35.573  32.598  13.939
83281W        W51499  19.813   2.420   0.947
83282W        W51500  25.132  23.665   3.196
83283W        W51501  13.379  32.287   2.174
83284W        W51502  39.430  15.206  12.470
83285W        W51503  27.914  30.650  10.256
83286W        W51504  34.844  11.162  14.909
83287W        W51505   3.319  13.115   2.918
83288W        W51506   3.049  13.845   4.870
83289W        W51507  32.211   6.381   4.386
83290W        W51508  23.716  38.671   2.339
83291W        W51509  27.191   4.179   3.564
83292W        W51510  25.596  21.479  11.006
83293W        W51511  42.485   4.419   4.139
83294W        W51512  37.308  27.957   0.829
83295W        W51513  12.219  26.299  12.582
83296W        W51514  42.374  44.503  11.606
83297W        W51515  17.200   6.964   3.234
83298W        W51516  42.097  40.287  12.515
83299W        W51517  18.098  20.025  12.944
83300W        W51518  42.397  23.140  10.623
83301W        W51519  13.767  18.725   0.579
83302W        W51520  23.097  40.841   0.517
83303W        W51521   0.019  21.748  14.906
83304W        W51522  28.864  22.572  14.579
83305W        W51523  28.521   0.870   4.582
83306W        W51524  20.663  16.516   4.483
83307W        W51525   1.955  32.908   4.467
83308W        W51526  32.138   6.689  13.032
83309W        W51527  18.538  19.728   2.246
83310W        W51528  21.603  28.096   1.950
83311W        W51529  29.352  21.047   1.397
83312W        W51530  16.562  14.480  12.116
83313W        W51531  36.976  43.565  11.608
83314W        W51532  29.905  18.668  13.344
83315W        W51533  24.797   4.194   4.123
83316W        W51534   0.228  22.882   4.562
83317W        W51535  24.309  23.474   4.513
83318W        W51536   5.833   6.352  12.928
83319W        W51537  17.574  16.036   4.464
83320W        W51538  43.790  38.042  11.899
83321W        W51539  16.025  40.873  12.197
83322W        W51540  20.802  15.648  10.561
83323W        W51541  43.494  44.690   1.344
83324W        W51542  43.589  42.506  14.541
83325W        W51543  15.635  14.176  12.859
83326W        W51544  34.815   3.886  11.144
83327W        W51545  23.026  12.150   1.690
83328W        W51546  42.825  20.579   3.672
83329W        W51547  30.319  41.838  12.346
83330W        W51548  20.102   8.309   1.790
83331W        W51549  28.611  19.567   2.771
83332W        W51550  43.209  35.984  14.289
83333W        W51551  36.351  14.300   1.774
83334W        W51552  24.559  23.629   4.078
83335W        W51553   9.092   0.658  11.615
83336W        W51554  20.747  37.467  13.344
83337W        W51555  11.327  44.567   0.315
83338W        W51556  12.490  33.926  11.931
83339W        W51557  25.228  34.360  13.930
83340W        W51558  11.345  32.443   3.303
83341W        W51559  40.575   9.929  14.022
83342W        W51560  18.651  39.262   0.205
83343W        W51561  44.030  11.706  11.016
83344W        W51562  37.334   8.271   4.265
83345W        W51563   4.711  23.900  12.905
83346W        W51564   8.776  26.773  11.561
83347W        W51565   5.385  17.891  10.196
83348W        W51566  22.087  31.864   1.586
83349W        W51567  29.888  43.451  12.630
83350W        W51568   3.040  39.659  11.029
83351W        W51569   6.221  28.968   2.801
83352W        W51570  16.662  21.461   2.327
83353W        W51571  13.557  25.872  12.506
83354W        W51572  36.160  31.202  11.078
83355W        W51573  18.812  27.580  11.966
83356W        W51574  35.494   4.240   3.689
83357W        W51575  15.550  36.999  13.410
83358W        W51576  23.705   6.860  12.216
83359W        W51577  10.506  32.370  12.995
83360W        W51578  11.799  18.759   1.387
83361W        W51579  44.880  43.101  12.511
83362W        W51580  39.756   2.205  13.400
83363W        W51581  40.737   0.916  14.170
83364W        W51582  35.978  10.141  13.599
83365W        W51583  20.761   7.148   0.372
83366W        W51584  18.617  11.202   4.503
83367W        W51585  30.595  11.840   3.719
83368W        W51586  24.339  34.640  12.875
83369W        W51587   7.297  12.143  13.333
83370W        W51588  11.715  36.275  14.476
83371W        W51589   8.340  19.004   2.831
83372W        W51590  14.857  30.366  14.795
83373W        W51591  19.313   4.792   2.720
83374W        W51592  25.782   2.255   3.585
83375W        W51593  15.802  40.904  14.793
83376W        W51594  13.593  17.352  13.484
83377W        W51595  15.068  38.684   1.873
83378W        W51596  28.388   4.203  14.009
83379W        W51597  23.522  33.284   2.233
83380W        W51598   9.092  41.655  12.779
83381W        W51599  17.540  34.279   0.238
83382W        W51600  23.306  14.631   3.287
83383W        W51601  21.227   5.683   1.337
83384W        W51602  28.505  38.033   3.323
83385W        W51603  43.662  30.110  12.051
83386W        W51604  20.096  23.356   1.443
83387W        W51605  37.819   2.615  11.406
83388W        W51606  27.972  29.356  13.870
83389W        W51607  35.549  30.133   0.952
83390W        W51608  37.630  36.911  14.515
83391W        W51609  11.540   9.575   0.928
83392W        W51610  23.047  21.065   1.348
83393W        W51611   5.779  12.153  12.431
83394W        W51612   5.397  28.694  11.975
83395W        W51613   2.129  40.968   2.861
83396W        W51614   8.746  19.227   1.085
83397W        W51615  37.671  42.847  14.976
83398W        W51616  44.473  21.036  14.554
83399W        W51617  31.055  16.761   3.794
83400W        W51618  33.342  13.396   3.086
83401W        W51619  40.483  44.425   2.477
83402W        W51620  35.037  43.061  12.483
83403W        W51621  10.591  11.679   2.870
83404W        W51622  25.366  36.490   4.170
83405W        W51623  38.385  34.913  14.739
83406W        W51624  26.546  26.371   1.339
83407W        W51625  42.355  26.990   3.687
83408W        W51626  35.001  21.570  11.478
83409W        W51627  19.590   3.707   1.270
83410W        W51628  16.066   1.272  13.582
83411W        W51629  19.688  26.473  14.492
83412W        W51630  15.733  25.772  10.734
83413W        W51631   8.805  34.593   0.816
83414W        W51632  26.122  20.112  13.903
83415W        W51633  12.742  27.949   2.240
83416W        W51634  32.342   7.166  12.476
83417W        W51635  22.273   7.501   0.749
83418W        W51636  12.472  26.689   2.833
83419W        W51637   5.470  41.486  13.012
83420W        W51638  18.112   3.543   2.422
83421W        W51639  30.902   8.254  13.459
83422W        W51640  18.990  28.724  14.033
83423W        W51641  13.019  18.638   2.391
83424W        W51642  33.144  28.509  14.868
83425W        W51643  29.286  19.070   3.286
83426W        W51644  33.493  29.119   5.476
83427W        W51645   2.198  20.676   0.497
83428W        W51646  32.391  31.867  10.497
83429W        W51647  21.237  39.284   2.576
83430W        W51648   9.609   7.367  14.569
83431W        W51649  13.793  28.130  14.009
83432W        W51650  44.870   6.589  14.856
83433W        W51651  10.797  16.941  14.606
83434W        W51652   4.766  39.028  14.246
83435W        W51653  36.403  44.241   1.726
83436W        W51654   3.013   3.889   3.429
83437W        W51655  44.180  10.851   0.051
83438W        W51656  22.060  15.001  13.086
83439W        W51657   4.901  13.132   4.154
83440W        W51658  28.584  21.965  13.560
83441W        W51659  34.889  40.321  11.247
83442W        W51660  23.076  43.469  12.457
83443W        W51661  41.646  13.552   2.423
83444W        W51662  22.433  40.190   4.566
83445W        W51663  30.222  43.990  11.626
83446W        W51664  28.596   7.163  10.682
83447W        W51665   6.581  31.228   4.276
83448W        W51666  25.172  23.889   3.646
83449W        W51667  16.829  28.580   1.967
83450W        W51668  36.799  27.679   4.881
83451W        W51669   2.001   7.183   1.398
83452W        W51670  35.146   2.499  14.308
83453W        W51671  39.958   4.445   4.425
83454W        W51672  12.844  42.762  10.709
83455W        W51673  21.652  29.389   2.635
83456W        W51674  37.842  20.201   1.832
83457W        W51675   1.886  35.527   2.646
83458W        W51676  30.096  42.725   1.730
83459W        W51677  44.795  14.667  14.378
83460W        W51678  39.822  14.583   4.279
83461W        W51679  30.909   1.975  14.933
83462W        W51680  29.923  19.839   3.200
83463W        W51681  16.570  29.995   0.588
83464W        W51682  26.238  16.360   4.275
83465W        W51683   6.313  15.147  11.154
83466W        W51684   7.625   7.459  14.943
83467W        W51685  40.029  42.650   4.975
83468W        W51686   9.505   5.280   0.853
83469W        W51687   0.042   4.710   2.264
83470W        W51688  24.494  29.971   4.864
83471W        W51689  26.444  29.687  11.488
83472W        W51690  43.728  44.374   4.399
83473W        W51691  20.517  29.060  13.421
83474W        W51692   6.063  27.720   1.383
83475W        W51693  38.649  17.572   1.561
83476W        W51694  10.313  27.043   2.725
83477W        W51695  44.650   9.168  13.512
83478W        W51696   4.769   2.087   2.977
83479W        W51697  20.378  15.842  11.492
83480W        W51698   3.315  21.106   4.177
83481W        W51699   3.405  16.774   1.096
83482W        W51700   5.694  20.523   2.293
83483W        W51701  32.032  17.982  13.153
83484W        W51702  21.546   6.037  11.680
83485W        W51703  11.860  24.731   0.829
83486W        W51704  39.079  10.708  10.115
83487W        W51705   3.768  38.494   4.301
83488W        W51706  15.069  40.389   4.544
83489W        W51707  33.083   0.049   0.635
83490W        W51708   0.448   0.376  13.387
83491W        W51709   6.422  41.105  12.277
83492W        W51710   7.116  11.391  12.326
83493W        W51711  43.983  38.451   1.125
83494W        W51712   4.849  40.769  13.437
83495W        W51713   7.141  18.312   0.899
83496W        W51714  43.351  20.098  13.021
83497W        W51715  21.519  33.848   3.592
83498W        W51716   2.343  41.917  10.590
83499W        W51717  44.250   3.992  11.969
83500W        W51718   3.686  25.674   1.991
83501W        W51719  16.947  11.341  10.706
83502W        W51720  37.130  26.947   3.702
83503W        W51721  12.878   5.660   3.160
83504W        W51722  25.767  14.608  11.461
83505W        W51723  12.519  20.396  12.950
83506W        W51724  33.460   3.347  13.920
83507W        W51725  21.150  10.207  13.473
83508W        W51726  41.344   4.002  12.090
83509W        W51727  39.380   0.793  10.818
83510W        W51728   9.958   0.959  14.956
83511W        W51729  29.911   4.456  14.451
83512W        W51730  25.778   1.884  12.147
83513W        W51731   8.735  19.714   0.884
83514W        W51732  36.772  30.977   4.298
83515W        W51733  31.013  13.933   2.557
83516W        W51734  42.232   4.714  14.310
83517W        W51735   1.824  12.116  13.586
83518W        W51736   5.863  23.343  14.469
83519W        W51737  27.213  14.487   2.311
83520W        W51738  22.819  35.000   2.652
83521W        W51739  23.027  23.573   2.224
83522W        W51740  36.654  33.951  14.278
83523W        W51741   4.248  23.204   1.193
83524W        W51742  39.075   8.656   0.349
83525W        W51743  15.872  33.347  12.887
83526W        W51744  11.541  26.952   4.988
83527W        W51745  18.654  19.469  13.964
83528W        W51746  16.064   2.727  13.343
83529W        W51747  42.299  39.522   3.132
83530W        W51748  20.666  15.997   2.606
83531W        W51749  40.272   5.164   0.896
83532W        W51750   5.918  22.233  13.088
83533W        W51751  24.095   8.367   2.329
83534W        W51752   6.450  10.937   3.693
83535W        W51753  44.102  24.995   5.274
83536W        W51754  35.611  10.692   0.969
83537W        W51755   1.981  37.701   5.036
83538W        W51756   5.206  33.975   2.001
83539W        W51757   7.826   6.620  13.433
83540W        W51758  38.540  33.947  10.930
83541W        W51759  41.307  18.012   3.200
83542W        W51760  41.053  21.083  13.206
83543W        W51761  14.522  10.916  13.467
83544W        W51762  13.179  21.671   1.433
83545W        W51763  35.670  21.201  11.512
83546W        W51764  11.905  37.464  13.073
83547W        W51765  22.626  44.385   4.996
83548W        W51766  25.076  24.748   3.418
83549W        W51767  43.082  15.649   2.895
83550W        W51768  38.475   0.410  12.982
83551W        W51769  23.157   6.486   0.316
83552W        W51770   0.275  10.327  14.510
83553W        W51771   1.960   0.923  14.899
83554W        W51772  25.107   4.824  12.566
83555W        W51773  13.857   3.897  14.370
83556W        W51774  33.567  14.717   0.845
83557W        W51775  28.960  26.109   2.366
83558W        W51776  33.424  27.942  12.145
83559W        W51777  43.414   3.538   0.392
83560W        W51778  14.493  13.559  11.484
83561W        W51779  25.340  32.436  12.104
83562W        W51780  22.233  28.056   4.633
83563W        W51781  40.987   2.230   4.490
83564W        W51782   3.849   8.841  13.390
83565W        W51783   0.240  42.657   0.842
83566W        W51784  10.840   1.562   2.473
83567W        W51785   7.624  41.447  13.288
83568W        W51786  26.575  20.479   2.897
83569W        W51787  22.028  26.789  14.648
83570W        W51788   2.199  17.331   3.683
83571W        W51789  12.043   2.912   4.677
83572W        W51790  31.072   4.874  11.521
83573W        W51791  37.398  38.732  12.814
83574W        W51792  24.319  11.616   5.064
83575W        W51793   5.504  20.118   1.659
83576W        W51794   4.780  24.075   4.528
83577W        W51795  24.215  22.043  12.637
83578W        W51796  35.316   6.254   3.165
83579W        W51797  26.165  25.505   4.026
83580W        W51798  22.982  35.882  11.101
83581W        W51799   1.915   8.318  12.653
83582W        W51800   4.081   5.375   0.295
83583W        W51801  34.904  29.513  11.615
83584W        W51802  42.334  34.029   4.294
83585W        W51803  22.167   2.040   1.780
83586W        W51804  13.319  23.962  14.481
83587W        W51805  44.327   9.193  12.037
83588W        W51806  35.068  19.310  12.688
83589W        W51807  21.711  29.375   1.221
83590W        W51808  37.813   6.225  10.379
83591W        W51809  21.960   3.875   2.473
83592W        W51810  40.753  38.560  13.879
83593W        W51811  40.069  25.988   3.241
83594W        W51812   7.402  36.605  11.553
83595W        W51813   4.775  31.939   1.264
83596W        W51814  37.510  23.709  14.281
83597W        W51815  31.526  12.308  11.506
83598W        W51816  14.399  33.940   3.823
83599W        W51817  41.825  38.275  12.563
83600W        W51818   9.437  11.183  12.417
83601W        W51819   5.400  40.838   4.246
83602W        W51820  32.472  19.879  12.035
83603W        W51821  12.940  25.179   1.270
83604W        W51822  43.892  25.769   1.667
83605W        W51823  23.130   8.214  11.957
83606W        W51824  30.090  15.556  12.152
83607W        W51825  25.437   4.707  13.933
83608W        W51826  36.795  37.598   1.164
83609W        W51827  34.080  25.107   3.899
83610W        W51828  38.771  24.169  11.034
83611W        W51829  21.132   2.213   1.867
83612W        W51830  35.023  40.938   0.765
83613W        W51831   4.350  16.115   5.024
83614W        W51832  35.721  10.324   3.657
83615W        W51833  12.094  32.009   3.308
83616W        W51834  11.770   6.635   1.400
83617W        W51835  12.406  12.857   0.818
83618W        W51836  18.749   3.149  11.593
83619W        W51837   6.716  16.738   2.800
83620W        W51838   7.675  32.943   0.853
83621W        W51839  28.749  20.221  10.908
83622W        W51840  21.798   9.269  13.520
83623W        W51841  32.696  34.435  13.975
83624W        W51842   8.606  37.808  13.926
83625W        W51843  34.774  32.928   0.311
83626W        W51844   5.725  42.771  11.448
83627W        W51845   4.243  23.090   1.689
83628W        W51846  38.107  16.723   3.426
83629W        W51847  29.718  13.370  12.010
83630W        W51848   3.213  32.132  14.495
83631W        W51849  17.342  23.643   1.302
83632W        W51850  10.148  38.969   0.352
83633W        W51851   4.409  34.593  12.909
83634W        W51852  10.135  44.444  10.627
83635W        W51853   7.618  25.503   0.922
83636W        W51854  27.930  20.669  13.614
83637W        W51855  30.866  31.388  14.962
83638W        W51856  39.543  22.675   3.232
83639W        W51857   7.217  44.249  12.073
83640W        W51858   7.013   9.796   4.596
83641W        W51859  42.080  18.223   4.239
83642W        W51860  42.965   1.374   3.240
83643W        W51861  25.122  16.314  13.939
83644W        W51862  26.599   6.994  14.223
83645W        W51863   6.290  29.473  11.510
83646W        W51864  16.846  41.288  14.153
83647W        W51865   1.765   2.803   3.697
83648W        W51866  43.031  12.392  11.509
83649W        W51867  26.591   6.358   0.530
83650W        W51868   5.027   4.951  12.984
83651W        W51869   9.752  44.834  12.335
83652W        W51870  19.795  35.589  11.585
83653W        W51871  31.578  28.508   4.141
83654W        W51872  18.120   7.221  12.812
83655W        W51873  10.440   4.769  10.086
83656W        W51874   1.743  22.491  12.877
83657W        W51875  14.654  29.987  10.542
83658W        W51876  36.460  38.459  12.500
83659W        W51877  34.490  19.602  14.120
83660W        W51878   2.667  40.549   4.636
83661W        W51879  34.779  39.618  10.538
83662W        W51880  14.712  40.287   1.445
83663W        W51881  39.175   6.231   0.299
83664W        W51882  35.572  29.269   1.090
83665W        W51883   5.313   0.218   0.855
83666W        W51884  23.675  26.464   2.229
83667W        W51885  12.838  31.649  11.824
83668W        W51886  16.571  41.034  13.068
83669W        W51887   2.630  11.291   3.091
83670W        W51888  38.017   6.765  14.202
83671W        W51889  37.700  24.107  10.275
83672W        W51890  24.160   8.791   0.853
83673W        W51891  10.299  15.069   2.322
83674W        W51892  42.724  34.654   0.904
83675W        W51893  39.287   7.256  14.564
83676W        W51894  34.295  35.825  13.840
83677W        W51895   0.962  14.773  13.509
83678W        W51896   2.622  24.875  10.141
83679W        W51897   2.133  10.677   0.974
83680W        W51898   3.766  38.619   3.171
83681W        W51899  11.794  18.594  11.422
83682W        W51900  22.734  17.179   2.324
83683W        W51901  26.595   1.940   2.648
83684W        W51902  21.588   3.459   1.193
83685W        W51903  33.584  38.276  13.308
83686W        W51904   4.863  25.882   2.312
83687W        W51905   9.785   7.027  11.582
83688W        W51906  30.929  27.829   2.397
83689W        W51907  29.986  13.829   4.082
83690W        W51908   4.880  22.202  13.560
83691W        W51909  42.483  11.363   4.759
83692W        W51910   5.875   2.911  13.072
83693W        W51911   6.839   7.078   2.642
83694W        W51912  40.802   5.432   4.783
83695W        W51913   9.360  25.995   0.870
83696W        W51914  30.484  42.358  11.187
83697W        W51915   1.327  18.988  11.677
83698W        W51916   2.769   0.722   0.320
83699W        W51917  26.630  23.337  10.504
83700W        W51918  26.143  32.541   5.170
83701W        W51919   9.228   4.054   1.200
83702W        W51920  12.354  24.267  14.323
83703W        W51921  11.101   4.655   2.191
83704W        W51922  20.438   9.834   4.270
83705W        W51923  16.996  14.326  13.102
83706W        W51924  29.086   0.462  12.455
83707W        W51925  13.315   7.819  11.582
83708W        W51926  21.668  12.256   1.912
83709W        W51927  21.209  31.458   2.433
83710W        W51928  42.066  30.362   0.979
83711W        W51929   3.285  17.156  10.873
83712W        W51930  30.490  21.517   4.409
83713W        W51931  42.919  18.764   2.832
83714W        W51932  18.579   1.992  12.176
83715W        W51933   2.512   4.815   4.528
83716W        W51934  24.330  33.481   2.532
83717W        W51935   2.709   5.710  10.262
83718W        W51936  28.972  14.862  11.668
83719W        W51937  25.074  36.130   1.881
83720W        W51938  27.756  25.632   4.678
83721W        W51939  10.781  40.780  12.420
83722W        W51940   9.150  35.836  12.392
83723W        W51941  18.106  16.333   2.177
83724W        W51942  20.593   7.365  12.464
83725W        W51943  24.494  29.119   3.788
83726W        W51944  22.118  37.100  14.792
83727W        W51945  37.899   8.663   1.711
83728W        W51946  40.390  41.590  12.862
83729W        W51947  23.770   3.764  13.918
83730W        W51948   9.687  37.442  11.204
83731W        W51949  22.738  34.554  13.372
83732W        W51950  17.980  21.687   1.760
83733W        W51951  44.979  26.140  12.103
83734W        W51952  40.822  43.043  13.800
83735W        W51953   6.380   5.809   2.643
83736W        W51954  42.075   1.009   1.765
83737W        W51955  22.985  37.001   5.566
83738W        W51956  29.435  25.438   9.970
83739W        W51957  41.764  11.599   1.236
83740W        W51958  19.432  30.909   2.346
83741W        W51959  41.380  17.291   2.659
83742W        W51960   4.823   4.894   2.667
83743W        W51961  41.346  29.956  13.373
83744W        W51962  20.502  17.785  12.900
83745W        W51963  42.444   5.680   3.833
83746W        W51964  20.915  28.910   3.180
83747W        W51965  16.464  36.556  10.763
83748W        W51966   7.220  30.872   0.298
83749W        W51967   8.802  13.204   4.522
83750W        W51968   2.688  36.948  10.955
83751W        W51969  13.657  14.141   3.355
83752W        W51970  43.232  40.946   3.607
83753W        W51971  16.064  42.453   1.844
83754W        W51972   0.163  38.849   1.681
83755W        W51973  41.047  15.113  11.115
83756W        W51974  44.051  11.791  12.441
83757W        W51975  28.671  35.268  12.015
83758W        W51976   7.346  18.630  12.987
83759W        W51977   0.970  38.812   2.393
83760W        W51978  43.409   6.716   2.473
83761W        W51979  36.657  31.148  11.184
83762W        W51980  29.306  33.884  12.022
83763W        W51981   7.876  26.086   4.642
83764W        W51982  17.119  21.942   4.724
83765W        W51983  25.477   1.388   1.849
83766W        W51984   3.468  34.097  10.822
83767W        W51985   8.766  40.825   3.108
83768W        W51986   0.954  40.504  11.582
83769W        W51987   1.279  26.284   0.519
83770W        W51988  43.970  27.185  13.011
83771W        W51989  13.017  19.790   0.333
83772W        W51990  14.825  21.199  11.966
83773W        W51991  19.063  37.606  10.180
83774W        W51992  19.277  12.153  12.290
83775W        W51993  43.581  22.717   2.221
83776W        W51994  36.784  38.314   3.701
83777W        W51995  40.392  27.333  13.629
83778W        W51996  42.714  36.906   0.414
83779W        W51997  13.543  44.472   0.263
83780W        W51998   4.380  14.518  14.209
83781W        W51999  35.470  40.492   2.900
83782W        W52000  43.808   1.357  12.747
83783W        W52001  22.674  38.104  12.410
83784W        W52002  43.823  37.999  10.655
83785W        W52003  29.132  44.253   3.222
83786W        W52004  21.381  38.965   3.799
83787W        W52005   2.407  38.092   0.177
83788W        W52006  16.546  18.346   2.086
83789W        W52007   4.645  40.452   4.207
83790W        W52008  38.286  40.392  13.961
83791W        W52009   4.273   2.321  13.613
83792W        W52010   9.371  10.196   0.258
83793W        W52011  19.053  34.930   1.202
83794W        W52012  34.544  10.677  11.040
83795W        W52013   9.898   9.443  13.091
83796W        W52014  32.423  26.091   4.585
83797W        W52015  12.107   7.750  10.717
83798W        W52016  28.575   9.730   0.794
83799W        W52017   3.170  40.541   4.555
83800W        W52018  34.990  10.182   2.674
83801W        W52019  23.575  44.264  11.006
83802W        W52020  26.718  26.657  12.648
83803W        W52021  38.896  27.955   4.189
83804W        W52022  11.267  39.413   1.802
83805W        W52023  27.045   2.370   0.205
83806W        W52024   6.239   0.865   4.690
83807W        W52025  30.016  38.983  11.871
83808W        W52026  30.355   3.039   2.355
83809W        W52027  26.661  15.813  13.268
83810W        W52028  33.003  21.012   3.507
83811W        W52029  35.050  36.516   2.140
83812W        W52030  20.802  43.589  10.235
83813W        W52031   8.156  11.125   1.823
83814W        W52032  38.085  19.834  13.371
83815W        W52033  31.160  17.544  11.292
83816W        W52034  44.448   3.225  14.892
83817W        W52035  18.208  42.519  13.837
83818W        W52036  13.710  38.896  10.810
83819W        W52037  15.354  36.564  13.168
83820W        W52038   7.154  27.708   2.688
83821W        W52039  28.051  36.430  11.714
83822W        W52040  23.105  16.845   3.073
83823W        W52041   1.701  26.413   4.327
83824W        W52042  39.104  14.702   1.773
83825W        W52043  37.326  16.048  13.441
83826W        W52044  18.855  14.234  13.385
83827W        W52045   0.832  39.736   4.771
83828W        W52046  37.391  42.519  11.170
83829W        W52047  15.274  32.338  13.420
83830W        W52048  34.515  11.748   3.968
83831W        W52049  42.077  11.186   1.191
83832W        W52050  16.117  42.969   1.791
83833W        W52051  41.638  30.997  14.992
83834W        W52052   2.041  36.138  11.205
83835W        W52053  24.394   3.788  11.691
83836W        W52054  42.290  40.324   3.160
83837W        W52055   1.287   2.201   2.180
83838W        W52056   6.182  14.373   3.069
83839W        W52057   5.911  23.532   0.934
83840W        W52058  42.893  42.010  11.124
83841W        W52059  43.615  43.963  12.072
83842W        W52060  21.164  34.289  13.877
83843W        W52061  18.994   2.911   4.389
83844W        W52062  16.500   8.904   2.657
83845W        W52063   5.822  23.838  14.610
83846W        W52064  29.188  36.904   3.601
83847W        W52065   5.750  10.693  12.618
83848W        W52066  43.380   6.217   3.732
83849W        W52067  15.307  35.613  12.975
83850W        W52068  11.745  12.036   1.967
83851W        W52069  24.852  43.590  13.936
83852W        W52070  12.045  39.298  12.487
83853W        W52071  24.504  29.846   0.375
83854W        W52072  32.252   4.956   1.835
83855W        W52073  22.966   4.274   3.690
83856W        W52074   5.140  38.695  11.702
83857W        W52075  17.202  32.453  12.957
83858W        W52076  20.495  24.398  13.207
83859W        W52077   4.653  11.328   0.520
83860W        W52078  40.709  38.977   0.400
83861W        W52079   5.240  42.888   2.163
83862W        W52080  35.077   6.970  13.876
83863W        W52081  43.271  14.146   2.986
83864W        W52082  23.542  42.821  14.832
83865W        W52083   6.098  36.860  13.411
83866W        W52084  29.651  40.277  12.995
83867W        W52085  44.921  18.013  13.260
83868W        W52086  11.582  18.022  13.914
83869W        W52087   9.702  11.203  12.866
83870W        W52088   1.798  30.341  13.337
83871W        W52089   7.385  29.182  11.919
83872W        W52090   7.303  28.582   4.684
83873W        W52091  20.589  29.554   3.263
83874W        W52092  17.348  28.033   0.335
83875W        W52093  11.183  26.886  11.363
83876W        W52094  26.084  17.678   0.782
83877W        W52095  12.248   1.575  12.150
83878W        W52096  38.312   6.225  13.831
83879W        W52097   9.150  25.658  11.913
83880W        W52098   9.211  26.717   1.832
83881W        W52099  12.229  28.188   2.208
83882W        W52100  14.189  17.478   3.635
83883W        W52101  15.305  19.666  10.544
83884W        W52102   3.921  27.197  11.534
83885W        W52103  37.795   5.945  12.137
83886W        W52104  43.324  36.874  13.064
83887W        W52105  33.412  12.287   1.956
83888W        W52106  15.180  17.814   0.788
83889W        W52107  19.896  34.024   2.552
83890W        W52108  12.959   2.955  14.823
83891W        W52109  28.084   1.792   0.285
83892W        W52110  36.953  16.840  10.709
83893W        W52111  18.554  22.177   4.125
83894W        W52112  18.608  23.976   2.759
83895W        W52113  36.789  33.876   0.364
83896W        W52114  36.884  34.769   3.643
83897W        W52115  20.521  25.771   4.227
83898W        W52116  11.095  30.671  11.505
83899W        W52117  16.556  16.112   1.924
83900W        W52118   8.848  29.925   3.718
83901W        W52119  42.096  36.472  12.954
83902W        W52120  43.316  15.718   2.433
83903W        W52121   3.270   0.815   0.246
83904W        W52122  23.243  26.070   1.378
83905W        W52123  13.246  35.451  10.790
83906W        W52124  19.254  17.631   0.859
83907W        W52125  11.306  19.315   2.468
83908W        W52126  29.909  33.511  10.936
83909W        W52127  32.047  37.490   3.530
83910W        W52128   4.327   4.954  12.722
83911W        W52129  11.616  34.410   1.152
83912W        W52130   2.344  21.343  12.194
83913W        W52131   6.426   1.263   3.912
83914W        W52132  33.046  26.642   4.315
83915W        W52133  33.050  20.551   2.445
83916W        W52134  41.093  40.017   2.827
83917W        W52135  25.748  23.023  12.622
83918W        W52136  40.023  36.502   4.194
83919W        W52137  12.742  24.034   2.376
83920W        W52138  18.656   1.909   4.505
83921W        W52139   7.779  40.803  13.980
83922W        W52140  15.499  35.553   3.557
83923W        W52141  10.800   4.053  11.957
83924W        W52142  38.313  44.478   0.557
83925W        W52143   9.152  35.671  11.127
83926W        W52144  22.080   7.420   4.532
83927W        W52145   0.371  18.618  10.533
83928W        W52146  43.847   7.924  12.255
83929W        W52147  23.727  19.053  13.444
83930W        W52148  25.056  18.026   2.356
83931W        W52149   7.981   4.334   1.012
83932W        W52150  26.000   8.682  10.678
83933W        W52151  27.628  41.117   1.388
83934W        W52152   7.922  42.715   5.364
83935W        W52153  40.079  29.716  14.892
83936W        W52154  16.958  39.078   2.608
83937W        W52155  10.350  25.239   0.515
83938W        W52156  25.696  41.717   1.206
83939W        W52157  37.959   5.030  11.855
83940W        W52158  11.307  29.467   2.899
83941W        W52159  37.303  24.250  12.921
83942W        W52160  32.121  29.105  12.190
83943W        W52161  33.785  20.252  11.145
83944W        W52162  34.830  35.450  10.890
83945W        W52163  12.624  44.970  11.468
83946W        W52164  18.604  31.741  10.186
83947W        W52165  33.431   5.753   0.934
83948W        W52166   0.866   2.894  11.642
83949W        W52167   5.986   8.676  14.069
83950W        W52168   2.777  12.736  14.255
83951W        W52169  34.400  30.726   1.516
83952W        W52170   0.515   1.175   2.135
83953W        W52171   3.224  12.601  14.513
83954W        W52172  44.197  44.236  10.713
83955W        W52173   7.840  33.607   2.538
83956W        W52174  10.167  38.861  12.400
83957W        W52175   0.081   7.378  14.343
83958W        W52176  19.826   4.843   2.692
83959W        W52177   2.500  21.642   1.706
83960W        W52178  19.106  11.563  14.072
83961W        W52179  11.344  35.963   3.275
83962W        W52180  17.374  41.740   4.350
83963W        W52181   7.672  25.258  11.473
83964W        W52182  23.399  13.844   3.688
83965W        W52183  18.775  34.900   0.408
83966W        W52184  27.926  25.438  10.990
83967W        W52185  21.167  41.286  12.515
83968W        W52186  23.000  31.278  13.788
83969W        W52187  30.059  34.497   2.241
83970W        W52188  39.290  42.363  11.920
83971W        W52189  16.110  14.571   0.935
83972W        W52190  12.662  17.292   1.761
83973W        W52191  22.927  20.975   3.100
83974W        W52192  27.643  41.470   2.449
83975W        W52193  41.877  36.036  13.771
83976W        W52194  25.665  43.628  11.355
83977W        W52195  12.564  12.345   3.445
83978W        W52196  18.034  43.522   4.697
83979W        W52197  34.583  40.864   3.633
83980W        W52198  15.580  43.024  13.864
83981W        W52199  15.585  21.032  10.356
83982W        W52200  30.855  15.626  11.045
83983W        W52201  43.624  20.791   3.160
83984W        W52202  38.770  11.003   3.217
83985W        W52203  40.714  27.146   4.528
83986W        W52204  13.803  40.414  13.464
83987W        W52205  40.485   9.658  14.518
83988W        W52206   8.742  10.250  13.275
83989W        W52207   7.422   6.697  12.055
83990W        W52208   2.238   8.042  14.321
83991W        W52209  40.999  44.969  12.663
83992W        W52210  44.321   3.505  13.492
83993W        W52211  17.609  21.305   1.782
83994W        W52212  29.408  22.611   4.505
83995W        W52213  16.100   8.872  13.886
83996W        W52214  12.959   6.644   2.660
83997W        W52215  17.460   4.733   3.287
83998W        W52216   8.478  15.841  14.383
83999W        W52217   9.711  22.521   0.809
84000W        W52218  21.602   4.439  14.025
84001W        W52219  31.795  11.519  13.341
84002W        W52220  14.198  26.170  14.618
84003W        W52221  28.189  24.770  13.347
84004W        W52222  11.246  33.126  12.859
84005W        W52223   2.330  35.048   2.679
84006W        W52224  37.014  43.730  14.537
84007W        W52225  23.250  40.446   2.311
84008W        W52226  23.739  13.188  11.074
84009W        W52227  31.791   1.193   3.430
84010W        W52228  17.903  44.256  12.540
84011W        W52229  16.625   6.801  12.195
84012W        W52230   7.464   9.580   2.139
84013W        W52231  39.423  20.251   3.225
84014W        W52232  44.739   5.866  10.679
84015W        W52233  18.762  40.479  14.500
84016W        W52234   0.861  19.008  12.661
84017W        W52235  28.034  30.258  10.994
84018W        W52236  18.330  17.641   0.880
84019W        W52237  29.121  36.932   4.114
84020W        W52238  31.020  44.790   2.671
84021W        W52239  34.119  16.190   2.134
84022W        W52240   4.866  42.558  11.671
84023W        W52241  23.757   8.243   2.726
84024W        W52242  20.272   4.370  12.535
84025W        W52243  24.917  26.924   4.275
84026W        W52244  21.163  33.430   3.256
84027W        W52245   9.104  27.065  12.426
84028W        W52246  34.792  12.606   4.611
84029W        W52247   2.826   5.728  11.276
84030W        W52248  42.353   8.626   3.089
84031W        W52249  41.384  44.521  14.497
84032W        W52250  32.897  12.527   3.259
84033W        W52251  38.308  22.660   3.183
84034W        W52252  42.419  39.422   4.490
84035W        W52253  19.077  34.099  12.241
84036W        W52254  35.864  14.229   3.062
84037W        W52255  26.261  42.365  13.016
84038W        W52256   7.371   7.448   3.072
84039W        W52257  31.725  43.309   0.987
84040W        W52258  27.906  13.704   3.080
84041W        W52259  34.856  28.211   0.892
84042W        W52260   2.585   9.304  13.341
84043W        W52261  14.140  26.445   2.803
84044W        W52262  10.050  35.893   1.130
84045W        W52263  11.347  31.541   1.613
84046W        W52264   5.130  16.644  12.434
84047W        W52265  36.920  26.905   4.222
84048W        W52266  15.362  38.401  11.863
84049W        W52267  24.654  40.912   4.236
84050W        W52268  14.098   1.690  14.430
84051W        W52269   5.442  24.524   0.882
84052W        W52270   9.809  11.372  10.705
84053W        W52271  21.632  34.891  13.410
84054W        W52272   3.010  38.613  11.190
84055W        W52273  17.120  10.819   0.501
84056W        W52274  18.068  40.441   0.807
84057W        W52275  22.114  19.533  13.966
84058W        W52276   2.622   8.398   3.224
84059W        W52277   2.281  41.035   1.738
84060W        W52278  11.178   8.807  14.090
84061W        W52279  12.546  30.153   0.211
84062W        W52280  27.618  34.108   2.180
84063W        W52281   7.404  20.756  13.904
84064W        W52282   2.423  32.091  10.555
84065W        W52283  34.405   7.765  14.080
84066W        W52284  42.471  10.814   3.690
84067W        W52285   7.249  34.491   0.792
84068W        W52286  41.376  25.069   3.793
84069W        W52287   1.892  22.530   0.310
84070W        W52288  10.839  25.704   1.359
84071W        W52289  32.118   6.897   2.582
84072W        W52290  41.869  24.052   3.205
84073W        W52291   3.738   6.647  12.154
84074W        W52292   6.752  19.074   2.473
84075W        W52293   3.006  25.050   1.658
84076W        W52294  29.990   1.460   3.815
84077W        W52295  37.309   0.873  14.489
84078W        W52296  43.577  26.535   3.206
84079W        W52297  36.383   2.859  13.346
84080W        W52298  26.995  32.121   3.469
84081W        W52299  18.089  32.709   1.842
84082W        W52300  32.625  28.204   0.113
84083W        W52301  31.412   6.840  11.558
84084W        W52302  41.327  12.934  12.840
84085W        W52303   4.511  30.595   1.474
84086W        W52304   8.191  31.952   0.252
84087W        W52305   0.984  13.244  10.748
84088W        W52306  40.975  41.979   2.032
84089W        W52307  32.092  11.471  10.359
84090W        W52308  36.458  17.692   3.847
84091W        W52309  35.470  12.609   1.136
84092W        W52310  32.522   4.999  14.501
84093W        W52311  17.340   8.292  10.906
84094W        W52312  29.585  38.064   2.420
84095W        W52313   9.686  11.650   1.322
84096W        W52314  31.970  17.049   0.533
84097W        W52315  34.393  16.078   1.414
84098W        W52316  29.410   1.977   3.769
84099W        W52317   7.715  23.989  13.002
84100W        W52318  13.794  10.288  12.869
84101W        W52319  21.421  28.976  11.993
84102W        W52320  14.597  28.492   4.614
84103W        W52321  17.600  23.088  13.324
84104W        W52322  15.229  12.046   2.602
84105W        W52323  33.681   7.491   0.897
84106W        W52324  38.847  21.651   0.905
84107W        W52325  34.440   5.609  14.780
84108W        W52326  31.176  14.407  10.299
84109W        W52327  40.799  10.710   2.211
84110W        W52328  15.295  42.848   2.311
84111W        W52329   7.698  35.569  13.840
84112W        W52330  10.141  13.999  12.248
84113W        W52331  11.915  30.928   2.230
84114W        W52332   3.340   2.775  12.825
84115W        W52333  25.465  40.873   2.776
84116W        W52334  16.192   6.548  12.430
84117W        W52335  14.039  23.112   2.622
84118W        W52336   9.152   6.876   0.707
84119W        W52337   1.004  31.738  11.127
84120W        W52338  32.516  23.632   2.307
84121W        W52339   2.383  25.528  14.060
84122W        W52340  22.386   9.959  14.927
84123W        W52341  21.910  12.648   3.449
84124W        W52342   9.344  38.590   2.690
84125W        W52343   8.172  27.225   0.885
84126W        W52344   6.952  33.590  10.720
84127W        W52345  39.526  40.770   4.057
84128W        W52346   1.149  16.068   1.145
84129W        W52347  14.812  44.907  12.492
84130W        W52348  14.541  22.213   9.676
84131W        W52349  40.281   0.538   4.567
84132W        W52350   8.298  22.494  12.289
84133W        W52351  16.231   3.520  11.694
84134W        W52352  18.649  43.481   1.919
84135W        W52353  44.790  16.326   1.030
84136W        W52354  41.302   0.271  14.952
84137W        W52355  43.866  37.264  11.247
84138W        W52356  30.029  20.540   1.705
84139W        W52357  40.850  20.347  14.432
84140W        W52358  18.217  33.893  14.025
84141W        W52359  37.067  27.485   0.800
84142W        W52360  32.121  17.513   0.303
84143W        W52361  25.134  29.131   1.379
84144W        W52362  31.587   1.629   4.732
84145W        W52363  28.191   8.151   3.634
84146W        W52364  29.396  10.711   1.710
84147W        W52365  13.403  19.489  14.042
84148W        W52366  13.170   5.900   0.232
84149W        W52367  23.588   3.969  14.840
84150W        W52368  44.011  21.655   1.395
84151W        W52369  34.389  14.625   4.507
84152W        W52370  25.660   6.318  10.772
84153W        W52371  32.879  42.900   1.396
84154W        W52372  17.592  19.506   3.143
84155W        W52373   8.019   5.227  13.548
84156W        W52374  11.290   5.287   0.420
84157W        W52375  23.054  14.862   3.696
84158W        W52376  40.763   5.308   2.003
84159W        W52377  41.417  37.089   1.582
84160W        W52378  20.436  29.109   4.246
84161W        W52379  14.161  39.391  13.812
84162W        W52380  16.527  11.643  12.372
84163W        W52381   7.178  33.025   4.204
84164W        W52382  36.319   0.803  12.882
84165W        W52383  33.344  29.234  14.027
84166W        W52384  37.663  23.211   4.103
84167W        W52385  33.575  20.188  14.008
84168W        W52386  12.137  41.514   3.776
84169W        W52387  13.831  21.146  12.374
84170W        W52388  26.781  32.531  11.008
84171W        W52389   9.707  10.357  10.556
84172W        W52390   4.143  24.641   3.670
84173W        W52391  31.126   5.477   0.992
84174W        W52392  16.405  23.306  13.858
84175W        W52393  37.062  12.918  11.084
84176W        W52394  37.504  41.973  13.422
84177W        W52395  24.741   2.922   1.849
84178W        W52396  31.621   5.526  14.273
84179W        W52397  38.706   0.257  12.503
84180W        W52398  20.860  21.575   3.089
84181W        W52399  17.313  35.604   0.758
84182W        W52400  32.449  40.725  11.131
84183W        W52401  39.927  24.199   3.185
84184W        W52402  44.487   0.310  11.945
84185W        W52403   4.352  35.359   0.491
84186W        W52404   2.508  43.851   0.329
84187W        W52405   3.777  16.017  13.931
84188W        W52406   6.916  44.429  11.292
84189W        W52407  25.738  10.586  11.553
84190W        W52408  37.977  34.652   1.703
84191W        W52409  18.810  32.254   5.032
84192W        W52410  38.015   8.253  12.861
84193W        W52411   7.386  16.822  11.729
84194W        W52412   1.578  31.586   2.782
84195W        W52413  18.062  30.299   2.868
84196W        W52414  29.182  43.447   3.661
84197W        W52415  22.581  17.824  13.101
84198W        W52416  18.063  25.487   4.228
84199W        W52417  23.022   0.275  14.873
84200W        W52418   2.801  42.464  12.962
84201W        W52419  19.577  26.684   2.370
84202W        W52420  28.011  44.050  12.528
84203W        W52421  32.093   7.969   3.986
84204W        W52422  38.120  27.865  13.182
84205W        W52423  13.792  22.877  12.444
84206W        W52424  40.482   7.776   0.259
84207W        W52425  28.941   2.606   1.380
84208W        W52426  37.308  11.324   0.439
84209W        W52427  33.104  33.406   2.740
84210W        W52428  10.552  26.344  10.770
84211W        W52429  29.063   6.782  12.992
84212W        W52430  33.096  15.432   3.711
84213W        W52431  42.464  11.386   0.861
84214W        W52432  19.067   5.457  13.063
84215W        W52433   5.189  38.884  13.084
84216W        W52434  27.321  20.739  11.502
84217W        W52435  15.352   6.062  11.525
84218W        W52436  29.128  23.205  10.269
84219W        W52437  43.759   8.206  13.557
84220W        W52438  10.744  29.016  12.046
84221W        W52439  24.100  40.713  11.556
84222W        W52440  25.184  15.641  14.399
84223W        W52441   6.694  24.157  14.947
84224W        W52442   2.939  43.825  14.435
84225W        W52443  42.380  31.201  14.390
84226W        W52444  42.031  13.402  14.284
84227W        W52445  38.856  38.150  13.807
84228W        W52446  17.234  28.410  11.968
84229W        W52447  27.242   2.212  11.097
84230W        W52448   7.822  28.584  12.590
84231W        W52449  34.980  31.171  12.018
84232W        W52450  11.929  20.225   4.523
84233W        W52451   7.847   1.436  12.381
84234W        W52452  38.828   4.356  13.035
84235W        W52453   7.266   3.225  10.749
84236W        W52454  32.529  20.125   4.071
84237W        W52455  38.530   8.460  10.598
84238W        W52456   6.373  34.137   0.905
84239W        W52457   1.860  42.105   3.635
84240W        W52458  35.784  13.985  13.869
84241W        W52459  29.034  16.695   3.727
84242W        W52460  21.655   0.811  11.725
84243W        W52461  40.337  17.178   1.670
84244W        W52462  29.454  34.141  14.438
84245W        W52463   7.156  31.130   0.785
84246W        W52464  31.567  29.975   0.874
84247W        W52465   4.820  29.613  12.912
84248W        W52466  18.487   4.085  13.994
84249W        W52467  28.957   5.782   0.419
84250W        W52468  10.588   2.625   4.610
84251W        W52469   4.794  43.250  10.213
84252W        W52470  23.625  40.282   0.056
84253W        W52471  24.423  41.414   4.889
84254W        W52472  36.561  17.195   1.974
84255W        W52473  25.211  36.100  10.648
84256W        W52474   8.399  30.701  11.749
84257W        W52475  20.036  10.099   3.443
84258W        W52476  10.402  26.511   4.671
84259W        W52477  13.700  15.134   0.065
84260W        W52478  10.459  17.703   3.793
84261W        W52479  13.368  24.446   4.235
84262W        W52480   1.823  23.776  13.051
84263W        W52481  14.677  43.407  13.006
84264W        W52482   6.352  37.619  13.547
84265W        W52483  26.037  40.959   4.425
84266W        W52484  30.581   0.898  14.548
84267W        W52485  22.336   3.544   4.049
84268W        W52486  35.403   6.710   0.915
84269W        W52487  33.945  35.969  13.481
84270W        W52488   3.883   8.879  11.180
84271W        W52489  13.355  39.932  12.573
84272W        W52490  23.467  39.397  11.666
84273W        W52491  27.899  13.194  13.691
84274W        W52492  35.324   9.144   0.841
84275W        W52493  13.406  28.144  11.745
84276W        W52494  16.403   1.096  10.229
84277W        W52495  31.532  37.557  12.409
84278W        W52496  24.393   0.975   1.073
84279W        W52497   0.243  21.701  13.571
84280W        W52498  18.118   7.974  10.599
84281W        W52499   6.405  38.987   1.912
84282W        W52500  33.506  25.230  11.277
84283W        W52501  28.558  38.393  12.471
84284W        W52502  40.523  34.592   1.499
84285W        W52503   8.814  42.932   1.952
84286W        W52504  33.553  23.922   3.214
84287W        W52505  40.093  12.868   1.731
84288W        W52506   1.530  34.656  11.935
84289W        W52507  34.671  31.119   3.583
84290W        W52508  20.940  39.386   4.089
84291W        W52509  17.222  22.276   0.085
84292W        W52510  21.388  20.054  11.107
84293W        W52511  12.119  13.229  10.732
84294W        W52512   9.477  14.360  10.655
84295W        W52513  10.500  15.259  11.091
84296W        W52514  24.045   4.504  11.127
84297W        W52515  21.057  21.751  12.494
84298W        W52516  41.860  38.424  13.466
84299W        W52517  33.804  41.154   1.395
84300W        W52518  33.527  35.202   4.521
84301W        W52519  42.625  31.333  11.192
84302W        W52520  18.763  13.277  11.803
84303W        W52521  28.574  23.962   4.032
84304W        W52522  27.348  30.147  13.537
84305W        W52523   7.822  35.264  13.443
84306W        W52524  13.283   5.309   3.146
84307W        W52525  19.347  40.462  14.344
84308W        W52526  39.398   9.227   2.271
84309W        W52527  14.402   2.264  13.001
84310W        W52528   4.890  34.921  12.350
84311W        W52529  12.336   8.819  12.196
84312W        W52530  17.685  37.355  14.864
84313W        W52531  19.971  28.019  11.085
84314W        W52532  29.954  17.007  10.993
84315W        W52533  10.698  43.733  12.456
84316W        W52534  18.100   5.711  12.343
84317W        W52535  21.493  44.262  12.532
84318W        W52536  29.301  18.745   5.100
84319W        W52537  11.348  43.570  10.530
84320W        W52538  40.981  44.944   1.889
84321W        W52539  25.980  19.339  12.311
84322W        W52540  17.128  31.994   1.509
84323W        W52541  14.269  24.507   1.357
84324W        W52542  22.997  26.665   3.013
84325W        W52543  22.799  11.146  13.551
84326W        W52544  23.310  23.146  12.157
84327W        W52545  36.126   8.828   4.655
84328W        W52546   5.693  39.074   0.772
84329W        W52547   3.198  33.513   4.502
84330W        W52548   5.247   7.316   0.399
84331W        W52549  22.735  28.094  13.813
84332W        W52550  32.084  44.805  14.172
84333W        W52551  15.551  39.767   9.812
84334W        W52552  15.347  28.412  10.753
84335W        W52553  36.645  15.681  12.208
84336W        W52554  41.965  15.076  14.907
84337W        W52555  15.128   3.806   4.379
84338W        W52556  12.834  35.691  11.647
84339W        W52557  33.868  42.024   2.306
84340W        W52558  29.295  42.876   2.813
84341W        W52559   6.417   7.780   1.347
84342W        W52560  13.977  42.666   3.137
84343W        W52561   8.907   6.364  14.755
84344W        W52562   3.958  10.762   1.647
84345W        W52563  24.730  13.939  11.133
84346W        W52564   5.688  37.238   2.788
84347W        W52565  11.860   0.543  10.159
84348W        W52566   0.399  28.435  13.791
84349W        W52567   4.862   1.242  12.491
84350W        W52568  17.992   9.423   4.128
84351W        W52569  26.296  25.200   3.598
84352W        W52570  27.499  43.535   4.386
84353W        W52571   2.297  29.681   0.520
84354W        W52572  39.142   8.764  13.154
84355W        W52573  10.099  11.627  12.429
84356W        W52574  21.662  21.171   4.549
84357W        W52575  38.320  38.770   0.689
84358W        W52576  31.180  34.973  10.743
84359W        W52577   9.824  14.154   2.662
84360W        W52578  23.053  13.033   0.779
84361W        W52579   0.049  33.020  10.592
84362W        W52580  10.649  15.217  13.610
84363W        W52581  40.165  41.821  13.549
84364W        W52582  25.949  21.025   3.589
84365W        W52583  16.170  12.657  11.873
84366W        W52584  32.641   9.804  10.818
84367W        W52585  22.717   6.968  12.204
84368W        W52586  34.143  10.188   1.651
84369W        W52587  39.858  12.385   0.877
84370W        W52588  44.188  40.358   2.799
84371W        W52589   5.968  19.125  14.977
84372W        W52590   4.726  19.211   3.537
84373W        W52591  43.464  25.508   2.540
84374W        W52592  11.503  12.178  13.688
84375W        W52593   0.725  15.734   0.837
84376W        W52594  31.569  35.476  13.442
84377W        W52595  42.277  26.934   4.525
84378W        W52596  36.503  34.901  11.574
84379W        W52597  26.058  21.535   3.601
84380W        W52598   9.164   9.292   4.307
84381W        W52599  24.156   0.258   3.286
84382W        W52600  31.471  26.190   4.301
84383W        W52601  13.294   8.126  11.998
84384W        W52602  40.469  19.706  13.170
84385W        W52603  25.490  24.634   1.850
84386W        W52604  40.429  26.482   0.346
84387W        W52605   4.868  33.455  11.549
84388W        W52606  42.962  37.099   3.534
84389W        W52607  41.700  12.933  14.422
84390W        W52608  41.429  10.745  11.421
84391W        W52609  37.413  30.346   0.537
84392W        W52610   8.791  31.349   3.162
84393W        W52611  43.276  20.548   1.718
84394W        W52612  17.368  14.685  11.849
84395W        W52613  40.901  43.371  14.213
84396W        W52614  22.026  12.340  11.156
84397W        W52615   8.847   6.298  12.037
84398W        W52616  16.724  12.363  14.540
84399W        W52617  40.295  35.361   2.707
84400W        W52618   5.255  10.021  13.918
84401W        W52619  10.900  14.831   3.101
84402W        W52620  41.752   1.628  10.279
84403W        W52621   3.855  24.461  13.008
84404W        W52622  43.919   7.067  12.517
84405W        W52623  18.835  25.602   2.614
84406W        W52624   6.766  23.298  13.951
84407W        W52625  36.094  12.783   3.380
84408W        W52626  15.837   6.927  14.710
84409W        W52627  42.613  39.957   3.015
84410W        W52628  10.694  33.481  12.032
84411W        W52629   2.139  15.597  10.992
84412W        W52630  25.021  30.449  11.917
84413W        W52631  16.614  12.622   4.716
84414W        W52632  14.957  39.841   3.256
84415W        W52633  30.390  23.290  14.058
84416W        W52634  24.633  25.966   4.825
84417W        W52635   7.335  27.592  13.378
84418W        W52636  34.916  23.811   3.935
84419W        W52637  16.226  30.171  14.859
84420W        W52638  38.183  39.893   0.841
84421W        W52639  41.044  18.606  11.184
84422W        W52640   6.475  26.484   1.927
84423W        W52641   5.667  28.442   2.339
84424W        W52642  15.733  21.698   0.350
84425W        W52643  16.182  22.059   3.321
84426W        W52644  25.267  11.483  11.133
84427W        W52645   4.854   2.396   1.163
84428W        W52646  44.789  32.159  12.085
84429W        W52647   9.099  18.495  10.589
84430W        W52648   0.820  18.801   2.885
84431W        W52649   3.219   2.263  12.946
84432W        W52650   5.299   8.612   3.683
84433W        W52651  27.702  16.128   2.295
84434W        W52652  29.110  35.386   0.786
84435W        W52653   4.835  27.777  12.700
84436W        W52654  30.691  11.346   3.715
84437W        W52655   0.194  44.850   1.788
84438W        W52656  16.506  26.519  11.037
84439W        W52657  44.289   0.384   3.174
84440W        W52658  30.688  11.849  11.678
84441W        W52659  28.413  21.034  12.901
84442W        W52660  13.523   8.192  13.430
84443W        W52661  44.563  11.024  13.341
84444W        W52662  33.955  42.022   3.159
84445W        W52663  43.018  17.291  14.907
84446W        W52664  11.342  42.954   3.125
84447W        W52665  23.555   2.191  13.509
84448W        W52666  38.535  39.010  14.798
84449W        W52667  20.004   4.750   2.214
84450W        W52668   2.308   8.877  12.490
84451W        W52669  30.043  36.427  14.628
84452W        W52670   9.925  42.356   0.687
84453W        W52671  26.236  22.023   4.857
84454W        W52672  26.719  20.596   4.399
84455W        W52673  40.014  24.765   0.548
84456W        W52674   0.412   1.720  11.486
84457W        W52675  26.574  14.894   2.737
84458W        W52676   2.809  25.613   0.418
84459W        W52677  31.304  25.766  11.005
84460W        W52678  22.198  44.920  13.912
84461W        W52679  35.340   6.852  11.180
84462W        W52680  39.195  23.637   4.035
84463W        W52681   9.641   3.400   0.853
84464W        W52682  38.860  38.604  10.488
84465W        W52683  29.445  28.076  12.131
84466W        W52684  34.777  39.605   0.934
84467W        W52685  29.587  23.745   2.774
84468W        W52686  36.137  24.588  14.413
84469W        W52687  33.186  24.293  14.435
84470W        W52688  17.152  43.555   2.629
84471W        W52689  42.126  12.949   0.135
84472W        W52690  23.143  16.723   1.598
84473W        W52691  25.014   5.810   4.739
84474W        W52692  39.463   8.349  14.984
84475W        W52693  10.331  34.298   0.486
84476W        W52694  23.786  22.135   2.755
84477W        W52695   1.820  23.496   0.139
84478W        W52696  14.582  39.573   0.815
84479W        W52697  28.474  16.013   3.932
84480W        W52698  10.041  38.106   4.184
84481W        W52699   8.874  30.169  13.033
84482W        W52700  25.683  44.105  14.180
84483W        W52701  34.493   3.540   4.163
84484W        W52702  15.733  11.733   3.100
84485W        W52703  12.553  26.084   1.899
84486W        W52704  16.645  13.120   1.859
84487W        W52705  27.770  35.500   1.331
84488W        W52706  27.536  38.930   3.196
84489W        W52707  40.304  19.797  11.206
84490W        W52708   7.016   0.968  12.848
84491W        W52709   0.740  13.775   4.033
84492W        W52710  44.289  25.157  12.052
84493W        W52711  35.097  14.288   3.728
84494W        W52712  38.242   6.321  14.375
84495W        W52713  15.786  34.664   3.724
84496W        W52714  28.706   0.734  11.800
84497W        W52715  37.570  39.472   0.205
84498W        W52716  16.917  31.107   1.913
84499W        W52717   5.537   9.640  12.157
84500W        W52718  33.571  21.564  10.722
84501W        W52719   8.179  37.827   4.819
84502W        W52720   8.103   4.774  10.490
84503W        W52721   4.475  24.267  12.446
84504W        W52722  17.661  42.806   1.181
84505W        W52723   8.341   2.021  13.352
84506W        W52724  39.025  31.673  12.353
84507W        W52725  44.036  19.859   1.935
84508W        W52726  22.350  29.729   0.252
84509W        W52727  40.563  31.572   3.285
84510W        W52728  28.195  23.647  13.856
84511W        W52729  38.860  30.446   1.196
84512W        W52730  15.555  11.811  13.369
84513W        W52731  29.679   3.840   2.153
84514W        W52732  23.485  28.607   1.853
84515W        W52733  33.485  35.569   2.319
84516W        W52734  31.971  24.463  12.428
84517W        W52735   7.340   1.404   3.463
84518W        W52736  12.226  26.285  11.254
84519W        W52737  33.597  41.918   2.751
84520W        W52738  14.384   7.478  14.757
84521W        W52739   6.735  33.860   3.776
84522W        W52740  24.726   9.736   4.554
84523W        W52741  38.813  19.698   2.102
84524W        W52742   2.272  41.713   3.691
84525W        W52743  43.532  25.896   2.224
84526W        W52744  19.115  25.002   4.664
84527W        W52745  42.406  26.168  12.022
84528W        W52746  43.824   7.799   1.677
84529W        W52747  41.047  29.829  11.400
84530W        W52748  41.734  31.931   2.784
84531W        W52749  10.312  35.514   4.099
84532W        W52750  25.981  25.006  13.446
84533W        W52751  11.641   8.450   3.213
84534W        W52752  16.021  42.978   4.631
84535W        W52753  42.468  34.025  12.592
84536W        W52754  14.740  12.609  14.052
84537W        W52755   9.796   4.894   4.311
84538W        W52756   9.172   1.507  14.302
84539W        W52757  14.795   6.200  14.776
84540W        W52758  20.098  31.555   4.140
84541W        W52759  23.989   4.553  11.639
84542W        W52760   8.898   5.417  11.373
84543W        W52761  15.608   5.041   1.748
84544W        W52762  30.433  17.355   3.813
84545W        W52763  42.111  16.726   4.783
84546W        W52764  29.241  13.173   3.049
84547W        W52765  14.110  19.102  10.786
84548W        W52766  27.096  25.936  14.977
84549W        W52767  11.802  28.063   1.926
84550W        W52768   0.049  22.308  12.443
84551W        W52769  16.731  23.679  14.532
84552W        W52770  42.837   8.898  11.964
84553W        W52771   9.400   2.896  14.337
84554W        W52772  37.428  42.663   0.408
84555W        W52773   2.908  26.258   2.774
84556W        W52774  41.977  37.263  12.502
84557W        W52775  21.748  29.138   1.762
84558W        W52776  35.092  28.987  12.498
84559W        W52777  16.017   4.733   3.113
84560W        W52778  15.324  20.643   2.388
84561W        W52779  39.892  32.163  14.700
84562W        W52780  30.647  22.796  11.303
84563W        W52781  30.095  38.483   0.983
84564W        W52782  14.340   1.019  13.778
84565W        W52783  10.330   7.359  10.961
84566W        W52784  16.681  44.416   5.348
84567W        W52785  40.824   5.722  11.053
84568W        W52786  43.969  13.851   0.898
84569W        W52787   4.301  35.564  13.857
84570W        W52788  20.564   6.482   3.188
84571W        W52789  35.316   6.540  12.049
84572W        W52790  34.997   1.838   3.213
84573W        W52791  38.060   2.150   1.166
84574W        W52792  22.774  20.054   3.067
84575W        W52793  21.628  38.754   1.373
84576W        W52794  39.509  18.780  14.798
84577W        W52795   1.491  18.782  14.489
84578W        W52796  30.998  12.805  12.842
84579W        W52797  39.802  28.466   0.213
84580W        W52798  43.359  14.204  14.924
84581W        W52799  20.651  14.597   0.979
84582W        W52800   8.720  22.663  12.072
84583W        W52801  22.191  16.163  11.167
84584W        W52802  33.418   2.394   4.039
84585W        W52803  37.556  26.493  14.538
84586W        W52804  35.311   6.686   1.698
84587W        W52805  43.509  43.792   1.399
84588W        W52806   4.367  40.188   0.652
84589W        W52807   6.100   9.722  14.117
84590W        W52808   9.592  15.074   3.195
84591W        W52809  39.538   6.765  11.639
84592W        W52810   7.185  31.368  13.479
84593W        W52811  36.396   7.626  14.720
84594W        W52812  25.982  30.645   0.313
84595W        W52813  30.842  30.405  11.274
84596W        W52814  43.431  17.082  10.651
84597W        W52815  29.453  16.489   1.673
84598W        W52816   0.750  14.270   2.254
84599W        W52817  32.715  15.592  11.571
84600W        W52818   2.459  18.351  14.529
84601W        W52819  15.656  10.705  12.688
84602W        W52820  41.051  41.909  11.702
84603W        W52821  24.223  25.436  13.025
84604W        W52822  37.142  17.203  14.779
84605W        W52823   3.586   4.656  11.159
84606W        W52824  38.542  16.501  10.339
84607W        W52825  10.629  37.096  14.540
84608W        W52826  25.730  34.574   4.101
84609W        W52827  43.349  31.732   0.613
84610W        W52828  42.563  36.039   1.036
84611W        W52829   9.249   1.148  11.523
84612W        W52830  11.985  19.427  10.153
84613W        W52831  16.322   5.264   4.264
84614W        W52832  20.578  21.611   1.342
84615W        W52833  21.256  33.792  13.975
84616W        W52834  38.043  44.357   3.696
84617W        W52835  31.549   7.655  12.453
84618W        W52836   6.101  25.757   0.988
84619W        W52837  44.853  23.018   3.119
84620W        W52838  27.268  38.459  10.752
84621W        W52839  11.441  15.624   0.352
84622W        W52840   4.107  41.956  13.796
84623W        W52841   4.395   3.994  12.556
84624W        W52842  14.738  15.606  12.654
84625W        W52843  36.788  40.819  12.431
84626W        W52844  35.816  28.728   0.393
84627W        W52845   4.161  30.241   1.250
84628W        W52846  33.550  15.030  14.150
84629W        W52847  35.613   8.407  14.322
84630W        W52848  12.751  11.367  12.952
84631W        W52849   2.392  11.278   2.184
84632W        W52850  11.838   3.396   2.672
84633W        W52851  35.682  24.106   2.101
84634W        W52852  26.116  14.277   1.514
84635W        W52853  29.741  44.337   4.694
84636W        W52854   1.144   5.478  10.657
84637W        W52855  22.074  13.407   4.953
84638W        W52856  29.192  11.340   3.692
84639W        W52857  27.502   2.801   2.749
84640W        W52858  21.709  37.391   4.352
84641W        W52859  29.054  26.034   1.863
84642W        W52860  14.637   5.771  10.759
84643W        W52861  44.125  19.559   1.042
84644W        W52862  12.517  23.191  14.445
84645W        W52863   3.272  37.114  13.737
84646W        W52864  38.474   2.264   0.852
84647W        W52865  22.808  23.775   0.847
84648W        W52866  22.699  37.121  14.772
84649W        W52867  11.478  26.006  13.083
84650W        W52868   1.953  36.909   3.632
84651W        W52869  26.580  16.730   2.632
84652W        W52870  43.231  11.013   4.258
84653W        W52871  12.795  44.852   0.087
84654W        W52872  21.462  27.690   3.058
84655W        W52873  22.978  15.279  11.022
84656W        W52874  34.634  40.600   4.945
84657W        W52875  18.584  36.575  12.480
84658W        W52876  44.685  38.819  10.389
84659W        W52877  17.044  30.633  14.502
84660W        W52878  30.204  32.023  14.951
84661W        W52879   0.366  11.439  12.336
84662W        W52880  15.057   9.763  13.738
84663W        W52881  14.404  34.983   0.378
84664W        W52882  41.280  40.027  11.911
84665W        W52883  20.501  34.394  11.628
84666W        W52884  32.748  42.868  11.370
84667W        W52885  22.537  34.630  13.852
84668W        W52886   3.480  37.887   1.535
84669W        W52887   9.766  33.596   4.464
84670W        W52888  26.234  13.735  13.947
84671W        W52889  15.763  36.178   0.537
84672W        W52890   6.364   5.302   4.522
84673W        W52891  14.213  27.891  11.084
84674W        W52892  20.395  12.165   5.225
84675W        W52893  28.980  14.302   2.295
84676W        W52894  19.050  34.592  12.051
84677W        W52895  36.558  16.757   2.279
84678W        W52896  33.620   4.705  13.108
84679W        W52897   1.492  35.107   0.677
84680W        W52898  31.991   9.530  11.332
84681W        W52899  12.911  23.186  12.834
84682W        W52900   0.831  13.601  12.916
84683W        W52901  41.456  39.813  13.786
84684W        W52902  33.746   8.672   0.503
84685W        W52903  43.596  20.674   4.082
84686W        W52904  40.027   3.937   4.161
84687W        W52905  34.444  37.463  12.925
84688W        W52906  24.697  12.881   1.401
84689W        W52907  26.512  23.506   3.210
84690W        W52908   6.826   5.388  13.966
84691W        W52909   1.929  34.303  12.000
84692W        W52910  36.528  30.432  10.723
84693W        W52911   4.905  19.528  12.534
84694W        W52912  29.426  13.085   2.400
84695W        W52913   7.427  37.411  11.933
84696W        W52914   2.217   1.095  14.479
84697W        W52915  34.829  10.822   0.293
84698W        W52916  36.333   7.249  10.389
84699W        W52917  12.668   5.369   2.336
84700W        W52918  40.389   5.211   3.410
84701W        W52919  11.884  37.575   2.742
84702W        W52920  25.888  12.102   1.897
84703W        W52921  12.580  36.177   2.721
84704W        W52922   4.205  38.030  10.499
84705W        W52923  24.303   4.389   4.116
84706W        W52924  29.732  41.588   5.166
84707W        W52925  26.699  17.825  10.117
84708W        W52926  30.218  16.202   1.305
84709W        W52927  23.009  20.724  12.380
84710W        W52928  38.649   8.746  13.014
84711W        W52929   7.697  31.442  13.409
84712W        W52930  41.981  33.348   4.152
84713W        W52931  18.275  39.766   2.080
84714W        W52932  16.345   9.207  12.988
84715W        W52933  24.071   1.501   4.084
84716W        W52934  22.608  42.858   0.222
84717W        W52935  34.799  22.578  11.570
84718W        W52936  36.366   2.343   4.211
84719W        W52937  26.723  33.793   2.599
84720W        W52938  38.797  42.023   4.146
84721W        W52939  15.757  32.441  12.841
84722W        W52940   3.215  32.112  11.650
84723W        W52941  13.799  35.874   0.955
84724W        W52942  20.924  41.042   3.169
84725W        W52943  12.697  26.371  12.824
84726W        W52944  22.724   3.338  14.311
84727W        W52945  16.215  19.574  12.023
84728W        W52946  11.564  24.743   1.300
84729W        W52947  42.914  10.195   0.721
84730W        W52948  13.612  39.947  13.267
84731W        W52949   0.236   7.943  11.099
84732W        W52950  29.681  16.819  12.028
84733W        W52951   4.877  35.430  13.988
84734W        W52952   8.143  16.204  10.691
84735W        W52953   8.259  35.037   3.889
84736W        W52954  26.046  32.505   2.938
84737W        W52955  43.804  34.063   1.743
84738W        W52956   7.772  29.968  10.704
84739W        W52957  14.752  35.128   3.734
84740W        W52958  21.755  12.311   1.345
84741W        W52959  28.065  16.249  12.340
84742W        W52960  17.539  43.703   0.859
84743W        W52961  42.921   9.681  14.019
84744W        W52962  17.689  21.022   3.784
84745W        W52963  13.812  26.609   3.675
84746W        W52964  42.371  25.420   1.408
84747W        W52965  31.064   8.836   0.936
84748W        W52966   1.833  40.615  13.957
84749W        W52967  21.129  20.580  14.114
84750W        W52968  19.358  36.611   2.285
84751W        W52969  34.307  25.514   3.664
84752W        W52970  37.847   8.621  13.687
84753W        W52971   0.840   7.675  10.402
84754W        W52972  10.204   3.953   3.472
84755W        W52973   9.810  25.910  11.296
84756W        W52974  25.130  43.486  14.798
84757W        W52975  32.481  10.882   4.729
84758W        W52976   8.676   3.038  13.844
84759W        W52977  42.341  25.991   3.445
84760W        W52978  25.018  16.972   2.641
84761W        W52979   2.119  30.604   9.783
84762W        W52980  17.504  23.041   3.233
84763W        W52981  19.397  29.033   4.333
84764W        W52982  29.745  18.551  13.822
84765W        W52983  31.480   3.841   3.612
84766W        W52984  23.080  43.455   0.289
84767W        W52985  22.504  42.714   3.360
84768W        W52986  33.311   6.354   0.317
84769W        W52987  39.786  28.120   1.596
84770W        W52988   4.462  25.506   1.436
84771W        W52989  37.263  29.766   4.930
84772W        W52990  31.208  33.003   1.386
84773W        W52991  15.346  24.584  12.602
84774W        W52992  22.300  23.384   2.788
84775W        W52993  28.885  24.171   0.059
84776W        W52994  20.622  29.147  10.661
84777W        W52995   0.266  11.717   1.652
84778W        W52996  10.203  22.653   3.178
84779W        W52997  28.842  15.434   1.354
84780W        W52998  23.617  21.554  12.125
84781W        W52999  36.150  13.621  14.874
84782W        W53000  27.170  17.708   1.696
84783W        W53001  28.741  26.650   0.602
84784W        W53002  28.029  23.731   3.354
84785W        W53003  28.179  20.502   3.727
84786W        W53004  22.100   2.685   2.587
84787W        W53005  18.236  33.166  12.528
84788W        W53006  37.448  18.223  11.808
84789W        W53007  17.255   8.426   2.846
84790W        W53008  24.239  15.115   0.947
84791W        W53009  36.126   6.487   2.745
84792W        W53010   5.764   8.138  10.722
84793W        W53011   2.271  22.872  13.996
84794W        W53012  12.778  21.978   1.463
84795W        W53013   5.494   7.859  14.376
84796W        W53014  27.587  14.619  11.102
84797W        W53015  13.336  30.206   3.659
84798W        W53016  35.791  36.610   4.615
84799W        W53017  39.458  23.274   2.115
84800W        W53018  37.577  24.513   3.279
84801W        W53019   5.939  14.063   4.823
84802W        W53020  38.044  25.948   3.720
84803W        W53021  24.347  27.487  12.096
84804W        W53022  43.273  23.735  14.840
84805W        W53023  22.476  44.138   2.797
84806W        W53024   5.231  40.415  10.732
84807W        W53025  15.108  26.029   2.051
84808W        W53026  42.686  14.081   5.038
84809W        W53027  13.096  35.442   0.410
84810W        W53028   7.599  29.667  11.108
84811W        W53029  10.515  31.569   4.536
84812W        W53030  40.011  40.337   3.603
84813W        W53031  33.789  28.070   0.888
84814W        W53032  22.657  37.170  13.513
84815W        W53033  41.766  13.248  12.906
84816W        W53034  42.564  33.645   2.947
84817W        W53035   3.466  30.036   4.071
84818W        W53036  15.293  24.694   1.192
84819W        W53037  41.741   4.418  13.725
84820W        W53038   4.828  40.469   2.885
84821W        W53039  31.571  19.804   4.695
84822W        W53040  23.193   3.411   0.406
84823W        W53041   5.203   7.684   3.633
84824W        W53042  32.850   0.237   2.227
84825W        W53043   0.347  42.463  11.096
84826W        W53044  35.909  37.893   3.235
84827W        W53045   9.356  39.139  11.009
84828W        W53046  44.996  20.778  11.022
84829W        W53047  19.303  22.921  13.868
84830W        W53048  32.452  19.273   4.439
84831W        W53049  40.927  21.766   1.466
84832W        W53050  42.014  26.998   2.852
84833W        W53051  23.597  20.336  12.915
84834W        W53052   9.272  36.642  13.249
84835W        W53053   1.838  16.232  13.529
84836W        W53054  13.904  18.591  14.338
84837W        W53055  43.186  24.954  11.288
84838W        W53056  12.030   8.832  11.425
84839W        W53057  36.206  32.430  12.734
84840W        W53058  12.398   9.275   1.449
84841W        W53059  37.446  31.783   4.916
84842W        W53060   8.691  40.873   1.789
84843W        W53061  19.232  28.521   3.128
84844W        W53062   6.904  30.534  12.940
84845W        W53063  31.517  14.853   3.414
84846W        W53064   4.684  29.494   3.139
84847W        W53065  20.656   8.909   4.071
84848W        W53066  16.177  35.923   0.846
84849W        W53067  14.342  34.063  12.874
84850W        W53068  18.777  34.582  13.368
84851W        W53069   2.761  34.414   2.149
84852W        W53070  28.433  12.869   4.626
84853W        W53071   3.347  36.700  11.352
84854W        W53072  22.616  38.776   2.364
84855W        W53073  39.607  17.127  13.057
84856W        W53074  11.141  11.500  11.425
84857W        W53075  36.350  10.301  13.911
84858W        W53076  44.615  17.587  11.852
84859W        W53077  25.989  39.261  11.658
84860W        W53078  12.950   7.596  14.033
84861W        W53079  37.007  42.951   0.519
84862W        W53080  17.185  25.631  13.001
84863W        W53081  27.145  10.244   3.150
84864W        W53082  31.509  22.431   3.845
84865W        W53083  22.946  42.871   2.464
84866W        W53084  18.534  34.856   1.246
84867W        W53085   6.873  14.097   2.380
84868W        W53086  33.502   7.331  11.700
84869W        W53087   7.601  22.529  12.875
84870W        W53088  31.081  18.285   1.871
84871W        W53089  35.267  33.521   5.110
84872W        W53090   5.601  17.094   4.584
84873W        W53091   4.446  18.628   2.272
84874W        W53092  34.899  23.169  12.361
84875W        W53093  22.906  11.685   4.093
84876W        W53094  26.562   6.955   4.149
84877W        W53095  24.842  37.241  13.339
84878W        W53096  21.276   1.440   3.371
84879W        W53097  11.858  12.276   2.911
84880W        W53098  34.390   2.978  11.447
84881W        W53099   5.714   4.037   4.642
84882W        W53100  33.250   5.392  12.516
84883W        W53101   6.110  35.304  11.947
84884W        W53102  27.795  13.338   5.119
84885W        W53103   7.353  20.953   4.186
84886W        W53104  19.489   7.212  14.745
84887W        W53105  17.337  10.642  12.135
84888W        W53106  30.113  19.600  12.506
84889W        W53107  12.243  12.527   0.473
84890W        W53108  13.624   7.364  12.473
84891W        W53109  32.470  20.140  14.262
84892W        W53110   9.466   7.743   2.174
84893W        W53111   4.881  43.589   1.789
84894W        W53112  32.168  20.293  11.907
84895W        W53113  31.427  15.835  13.112
84896W        W53114  24.781  30.033   3.841
84897W        W53115  16.544  23.157   1.103
84898W        W53116  29.918  43.789   1.432
84899W        W53117   9.850  32.049   4.127
84900W        W53118  30.774  20.608  11.977
84901W        W53119  25.213  43.999  13.997
84902W        W53120  29.658   7.932  12.976
84903W        W53121  20.481   7.373  14.987
84904W        W53122  19.073  43.456   3.644
84905W        W53123  20.725   3.262  10.752
84906W        W53124  43.050  40.156  11.443
84907W        W53125   7.854  11.173   4.490
84908W        W53126  38.780   7.738  13.933
84909W        W53127  38.350   3.909   3.614
84910W        W53128  38.124  28.580   4.117
84911W        W53129  16.740  41.731  14.407
84912W        W53130  12.774  33.182  12.880
84913W        W53131  21.084  16.078   3.711
84914W        W53132  23.306  44.315   4.218
84915W        W53133  44.509   2.291  12.488
84916W        W53134  18.624  14.873   3.539
84917W        W53135  40.364   0.449   1.368
84918W        W53136  36.349  18.541  10.365
84919W        W53137  42.322  42.568   0.452
84920W        W53138  25.931  20.662  12.832
84921W        W53139  11.674  42.716   0.635
84922W        W53140  20.978  44.365   0.371
84923W        W53141  15.738   6.733   2.310
84924W        W53142   8.909  38.873   4.534
84925W        W53143  29.962   3.852   3.616
84926W        W53144  12.262  10.207   3.540
84927W        W53145  40.886  23.034   4.571
84928W        W53146  29.855  11.803  12.360
84929W        W53147  41.078   5.243   1.403
84930W        W53148  14.849  40.529   1.002
84931W        W53149  13.170  19.589  10.409
84932W        W53150  10.776  23.452  11.627
84933W        W53151  21.395  28.987   3.349
84934W        W53152  44.406   6.942   2.795
84935W        W53153   3.946  42.807  13.159
84936W        W53154   9.701  11.236   0.319
84937W        W53155  35.087  38.576  14.913
84938W        W53156  44.603  12.620   3.780
84939W        W53157  23.779  21.740  11.123
84940W        W53158  37.540  35.157   4.153
84941W        W53159  10.304  31.661  10.736
84942W        W53160  36.908  22.933   2.655
84943W        W53161  23.710   0.972   2.400
84944W        W53162  28.187  26.353   3.594
84945W        W53163   9.576  43.726  10.740
84946W        W53164  12.988  17.485  10.557
84947W        W53165   6.557   4.225  13.388
84948W        W53166  40.576  42.501  12.437
84949W        W53167  30.528  39.825  14.738
84950W        W53168  22.079  34.440   4.089
84951W        W53169   7.983  34.130   4.285
84952W        W53170  18.168   1.735  12.886
84953W        W53171  26.072   0.025  13.426
84954W        W53172  25.225  36.363  13.019
84955W        W53173  44.343  11.363  10.804
84956W        W53174  28.250   4.428  11.322
84957W        W53175  30.597  40.250   4.911
84958W        W53176  38.065   5.857   0.848
84959W        W53177  31.771   3.834   3.205
84960W        W53178  16.789   1.310  14.903
84961W        W53179  22.663  18.828   3.709
84962W        W53180  42.814  20.773   4.501
84963W        W53181  39.746  29.951  14.011
84964W        W53182  42.280   2.677  12.418
84965W        W53183  36.411  13.541   3.111
84966W        W53184  10.050  42.899  12.297
84967W        W53185   1.975   0.338   2.229
84968W        W53186  33.786   4.245  10.308
84969W        W53187   5.680   7.110   1.393
84970W        W53188  28.480  25.621   1.810
84971W        W53189  39.628  39.854  10.508
84972W        W53190  44.672  43.994   0.830
84973W        W53191  27.525  40.905  12.984
84974W        W53192  14.304   8.141  13.012
84975W        W53193  36.805  10.067  11.273
84976W        W53194   7.189   1.002   2.953
84977W        W53195  26.666  25.908  10.299
84978W        W53196   7.623  35.055  13.895
84979W        W53197  19.861  41.363  14.415
84980W        W53198  43.400   9.266   3.758
84981W        W53199   5.686  42.043  14.905
84982W        W53200  44.058  38.503   4.587
84983W        W53201  14.594  21.642   1.352
84984W        W53202  18.412  21.239  11.356
84985W        W53203  24.202  14.307  13.988
84986W        W53204  37.210  39.774  14.516
84987W        W53205   1.584  22.517   5.159
84988W        W53206  25.660  35.923  14.453
84989W        W53207  17.718  25.711  13.715
84990W        W53208  10.333   4.823   0.897
84991W        W53209  19.786  25.473  11.995
84992W        W53210  30.952   6.709   3.168
84993W        W53211  38.306  22.227   4.979
84994W        W53212   2.706  33.856  11.046
84995W        W53213  30.889   5.616  12.203
84996W        W53214  14.527  41.261   3.259
84997W        W53215  34.106  21.641   3.314
84998W        W53216  33.345  17.579   2.727
84999W        W53217  19.400   6.209  13.352
85000W        W53218   8.809  16.175   2.638
85001W        W53219  24.715  36.420  13.015
85002W        W53220  38.758   1.284  10.260
85003W        W53221   7.599  36.019   3.628
85004W        W53222  26.615  12.245  14.943
85005W        W53223  39.782  23.425   2.513
85006W        W53224  15.199  29.623  14.923
85007W        W53225   1.738  33.797   0.046
85008W        W53226  20.746  41.786   1.293
85009W        W53227  40.238  28.195   3.082
85010W        W53228  29.036  16.077   0.294
85011W        W53229  10.227  37.088   0.664
85012W        W53230   2.034  38.910   1.305
85013W        W53231  26.245  21.193  11.674
85014W        W53232  18.744  25.701  13.555
85015W        W53233  42.248  10.809   3.245
85016W        W53234  34.605  12.087   1.423
85017W        W53235  22.160  23.155  11.140
85018W        W53236  33.555   5.236  12.917
85019W        W53237  38.001  23.632  14.106
85020W        W53238  37.112   0.393   3.694
85021W        W53239   5.754   9.107  12.929
85022W        W53240  11.586   2.282   1.848
85023W        W53241  25.065  21.989  10.452
85024W        W53242  31.205  28.585  12.009
85025W        W53243  33.153   4.432   4.093
85026W        W53244   9.765  40.330   4.215
85027W        W53245  33.868  41.093  12.521
85028W        W53246  14.831  37.027  11.157
85029W        W53247  13.672   4.356   1.727
85030W        W53248  34.703  24.486  14.676
85031W        W53249   3.105  35.021  11.610
85032W        W53250  22.227  40.834   2.913
85033W        W53251   8.178  27.234   3.664
85034W        W53252  10.257  21.342  12.325
85035W        W53253  33.599  29.607  13.122
85036W        W53254   3.910  25.547  13.055
85037W        W53255  11.241  23.924   0.008
85038W        W53256  32.809  40.348   0.817
85039W        W53257   1.469  28.655  12.387
85040W        W53258  34.656  13.184  13.897
85041W        W53259  24.238  34.498  13.892
85042W        W53260  27.015  15.869  14.478
85043W        W53261   3.955   3.005  10.670
85044W        W53262  22.406   4.825   3.115
85045W        W53263  32.024  40.821   0.386
85046W        W53264  41.018  43.977  11.521
85047W        W53265  23.712   6.123   2.875
85048W        W53266  18.055  15.535  12.490
85049W        W53267  19.490  11.247  13.175
85050W        W53268  40.497   8.602  14.418
85051W        W53269   7.800  32.473  13.481
85052W        W53270  39.514   8.586   5.474
85053W        W53271  20.720   8.344  13.394
85054W        W53272  27.191  19.266  14.958
85055W        W53273  26.232  19.188  14.802
85056W        W53274  38.341  30.205  14.517
85057W        W53275  18.158  36.519   1.137
85058W        W53276  15.671  34.047  13.323
85059W        W53277  41.031  27.667  12.549
85060W        W53278  21.173  32.870   1.377
85061W        W53279  31.251  12.146   4.454
85062W        W53280   6.048  27.414   1.798
85063W        W53281  41.739  23.007   4.269
85064W        W53282  30.084  28.065  14.060
85065W        W53283   9.107  19.564  12.594
85066W        W53284   8.450   4.255  12.586
85067W        W53285  26.024   2.253  11.902
85068W        W53286  19.311  37.566  12.819
85069W        W53287   3.137  28.935   4.546
85070W        W53288  44.742   9.501  12.187
85071W        W53289  34.415  21.765  12.636
85072W        W53290  26.669  16.789  11.575
85073W        W53291  14.326  39.432  12.961
85074W        W53292  33.427  34.141   2.884
85075W        W53293  35.218   7.507  12.112
85076W        W53294  42.005  37.512  12.975
85077W        W53295  11.376  40.835   2.807
85078W        W53296  26.430   2.412   4.367
85079W        W53297   0.105   2.353  11.219
85080W        W53298  44.030  43.434   1.928
85081W        W53299  31.446  17.109  11.096
85082W        W53300  38.877  30.017  12.346
85083W        W53301   7.268   9.735  13.427
85084W        W53302  14.203  27.465   1.448
85085W        W53303  17.492   9.488   4.062
85086W        W53304  35.406  16.615   4.094
85087W        W53305   0.648  24.270  12.559
85088W        W53306   8.875  34.294   3.867
85089W        W53307   4.352   6.669  13.053
85090W        W53308  24.051  43.284   1.863
85091W        W53309  26.653  39.846   3.439
85092W        W53310  39.028  16.969  13.974
85093W        W53311  31.952  41.980   2.355
85094W        W53312  37.901  38.119   4.066
85095W        W53313  32.367  29.554   4.587
85096W        W53314  14.189   1.328  11.427
85097W        W53315  40.017  13.729  13.962
85098W        W53316  14.138  30.502   4.263
85099W        W53317  17.375  10.540   4.427
85100W        W53318  43.516  19.036  14.366
85101W        W53319   7.696  22.049   1.343
85102W        W53320  25.459  26.003   0.502
85103W        W53321  36.568  32.243  13.061
85104W        W53322  17.044  21.006  14.761
85105W        W53323   3.286   1.032   3.144
85106W        W53324  28.083  18.577  13.649
85107W        W53325  30.555  43.295   4.112
85108W        W53326  22.199  37.261  11.396
85109W        W53327  31.091  24.496  14.689
85110W        W53328  28.939   8.667   1.686
85111W        W53329   4.312  19.486   2.011
85112W        W53330   1.905  35.407   0.519
85113W        W53331   0.634  42.573  11.530
85114W        W53332  13.386   4.958  12.619
85115W        W53333  16.491   4.501   3.152
85116W        W53334  16.791  23.578   1.328
85117W        W53335  37.079  40.009  11.316
85118W        W53336  11.304  13.109   2.635
85119W        W53337   3.126  44.908   1.692
85120W        W53338   7.783   7.824   1.773
85121W        W53339  11.732  25.615  14.111
85122W        W53340  30.826  23.681  11.138
85123W        W53341  40.842   8.245   1.829
85124W        W53342  28.659  10.517   2.246
85125W        W53343  36.504  15.502   0.804
85126W        W53344  14.516  30.734   1.766
85127W        W53345  20.426  32.922   2.840
85128W        W53346  27.782  44.233  13.434
85129W        W53347  24.584  34.337   0.355
85130W        W53348  19.693  39.377   3.135
85131W        W53349  24.711   8.326   4.564
85132W        W53350  25.153  38.328  14.339
85133W        W53351   2.782   8.123   2.352
85134W        W53352  11.279  40.482   2.100
85135W        W53353  32.447  24.949  14.758
85136W        W53354  42.538  23.135   3.855
85137W        W53355   4.312  40.425  13.436
85138W        W53356   8.124   7.248  14.913
85139W        W53357   9.473  17.930  13.178
85140W        W53358  15.374  21.940   3.177
85141W        W53359   7.734  32.219   0.467
85142W        W53360  22.413  39.638  13.950
85143W        W53361  43.741  35.360  14.805
85144W        W53362  37.900  32.847  12.963
85145W        W53363  12.624   9.890   0.849
85146W        W53364  23.145  10.564   2.759
85147W        W53365   4.585   2.850  14.559
85148W        W53366  37.046  39.231   0.228
85149W        W53367  11.704  26.240   3.346
85150W        W53368  19.969   1.425   3.745
85151W        W53369   4.372  24.536  11.204
85152W        W53370  44.462  15.020  11.580
85153W        W53371  11.645  23.662  10.793
85154W        W53372  42.925   6.176  10.777
85155W        W53373   7.892  42.998   4.468
85156W        W53374  21.683  20.281  11.606
85157W        W53375   2.897   5.696   1.876
85158W        W53376  34.459  13.145  11.966
85159W        W53377  16.919  28.892   1.195
85160W        W53378  41.384  12.098  12.159
85161W        W53379  42.594  22.497   0.403
85162W        W53380   0.544  37.975  13.082
85163W        W53381  33.489  18.572   0.232
85164W        W53382  19.507  39.834   3.374
85165W        W53383  40.064  11.817  11.130
85166W        W53384  35.033  35.185  13.909
85167W        W53385  18.770  29.444   3.356
85168W        W53386  31.262   0.474  12.998
85169W        W53387  12.182  15.072  13.967
85170W        W53388  25.947  24.234  12.983
85171W        W53389  22.385  38.839   3.792
85172W        W53390  23.050   0.552  13.517
85173W        W53391  31.609  39.383   3.648
85174W        W53392  13.097  22.274   2.911
85175W        W53393  18.044   4.904   2.240
85176W        W53394  25.776  44.676   4.154
85177W        W53395  37.391  22.799   2.806
85178W        W53396  39.495   3.459   1.372
85179W        W53397   7.347  13.383   0.368
85180W        W53398  33.437  22.262  13.432
85181W        W53399  40.175  28.927  14.361
85182W        W53400  36.385   8.434   1.426
85183W        W53401   1.282  43.245  11.499
85184W        W53402  25.137  10.893   0.691
85185W        W53403  28.664  23.259  10.520
85186W        W53404  38.975  37.012   4.941
85187W        W53405  30.181  40.810  13.642
85188W        W53406  43.215  20.572  14.276
85189W        W53407  12.387  40.198  11.614
85190W        W53408   3.939   0.795  13.862
85191W        W53409  15.006   9.227   2.152
85192W        W53410  32.111  32.356   3.308
85193W        W53411  22.986  39.374   4.144
85194W        W53412  40.864   2.800   5.341
85195W        W53413   8.338  33.964   1.292
85196W        W53414  42.888  39.977   4.974
85197W        W53415  35.807  11.286  12.357
85198W        W53416  44.451   0.943   4.537
85199W        W53417  32.416   3.443  13.556
85200W        W53418  23.116  25.134   0.033
85201W        W53419   6.742   3.368  14.870
85202W        W53420   4.341  35.092  13.626
85203W        W53421  28.695   5.864  12.064
85204W        W53422  26.420  19.066  12.421
85205W        W53423   5.399  37.104  12.023
85206W        W53424  34.058  32.910   3.457
85207W        W53425  42.233  23.670   3.344
85208W        W53426  10.602  30.122   4.600
85209W        W53427   1.872  24.600   3.552
85210W        W53428  39.295   0.483   3.232
85211W        W53429   6.308  41.663   3.307
85212W        W53430  35.626   2.102   3.257
85213W        W53431  26.896  35.870   0.863
85214W        W53432  21.970  40.164  13.964
85215W        W53433  18.575   9.804   1.156
85216W        W53434  35.414   7.442   1.397
85217W        W53435   9.683   6.278   3.922
85218W        W53436  34.660   3.261   3.266
85219W        W53437  34.085  42.565   1.253
85220W        W53438   7.649   9.819  11.129
85221W        W53439  44.346   9.049  12.943
85222W        W53440   2.905  16.446  11.226
85223W        W53441  25.710  17.816  11.595
85224W        W53442   6.877  35.425  12.452
85225W        W53443  19.508  39.543  14.850
85226W        W53444  25.148  35.667  12.563
85227W        W53445   7.856  23.083  10.722
85228W        W53446  39.075  23.492  13.510
85229W        W53447   1.107  11.624   0.736
85230W        W53448  25.664   7.139  14.457
85231W        W53449  31.890  29.180  11.195
85232W        W53450  40.592  27.609  10.672
85233W        W53451  27.492  17.101  13.439
85234W        W53452  22.589   4.824  12.559
85235W        W53453  12.220  12.212   0.913
85236W        W53454  22.265  14.830   4.159
85237W        W53455  31.910   2.243  13.769
85238W        W53456  43.918  44.983   4.569
85239W        W53457   0.344  15.230   3.812
85240W        W53458  24.490  29.189   4.327
85241W        W53459   7.313   3.959   0.362
85242W        W53460  22.122  18.236   2.224
85243W        W53461  44.438  14.633   4.159
85244W        W53462   7.653  10.723   0.311
85245W        W53463  36.932   5.035  12.947
85246W        W53464   2.363  16.137   3.280
85247W        W53465  10.069  34.035   0.903
85248W        W53466  44.985  35.721   3.254
85249W        W53467   6.494  34.949   0.856
85250W        W53468   3.898   1.707   2.244
85251W        W53469  16.524  28.030   3.655
85252W        W53470  36.481  23.580   0.215
85253W        W53471  35.376  18.992  12.948
85254W        W53472   4.524  44.466  12.406
85255W        W53473  22.829  18.308   1.480
85256W        W53474  17.657  13.674  11.736
85257W        W53475   5.765  16.815  13.973
85258W        W53476  17.326   5.249  11.531
85259W        W53477  43.736  18.467  11.534
85260W        W53478  36.293  35.920   4.298
85261W        W53479   0.276  17.109   1.476
85262W        W53480   8.195   7.808   4.928
85263W        W53481  25.058  20.690  10.633
85264W        W53482  30.983  42.567  14.765
85265W        W53483   7.882  31.395  11.632
85266W        W53484   0.134  11.334  13.909
85267W        W53485  26.988  20.311  13.820
85268W        W53486   8.664  29.660  14.360
85269W        W53487  39.738  38.397  13.770
85270W        W53488  28.493   9.116  10.375
85271W        W53489  26.208  16.766  14.629
85272W        W53490  22.087  34.047  12.399
85273W        W53491  31.676   4.677  13.002
85274W        W53492  39.588  43.168   2.208
85275W        W53493  23.525  41.767   4.013
85276W        W53494  14.081  25.208   3.285
85277W        W53495  26.513  34.822   2.525
85278W        W53496  19.712  32.922   2.415
85279W        W53497  14.402  23.993  13.834
85280W        W53498  38.013  31.959   0.756
85281W        W53499  27.769  30.521   1.574
85282W        W53500  40.966   6.009   0.339
85283W        W53501  13.421   6.342  10.352
85284W        W53502   8.154  15.061  12.017
85285W        W53503  27.407  17.466   0.204
85286W        W53504  42.246   3.010   4.828
85287W        W53505  13.189  33.671   4.976
85288W        W53506   4.408  36.027   0.240
85289W        W53507   4.826  10.115  11.557
85290W        W53508   8.749  34.384   4.361
85291W        W53509   0.531  22.979  13.069
85292W        W53510  16.184  32.103  10.695
85293W        W53511  44.454  43.392   4.989
85294W        W53512   6.407  26.602   3.471
85295W        W53513   7.274  10.180  11.458
85296W        W53514  10.857  36.458  13.908
85297W        W53515   5.890  23.605   3.235
85298W        W53516  10.834  20.957  13.456
85299W        W53517  23.858  25.491   2.136
85300W        W53518  11.277  35.937  14.499
85301W        W53519   3.820   9.144   3.767
85302W        W53520   5.394   9.428   1.509
85303W        W53521   2.305  19.725  12.999
85304W        W53522  17.175  44.335   4.174
85305W        W53523   8.886  43.816   4.824
85306W        W53524  35.483  33.405   4.237
85307W        W53525  41.626  41.422   4.199
85308W        W53526  31.181  14.719   1.007
85309W        W53527  43.174   5.694   0.935
85310W        W53528   8.562   1.338   0.801
85311W        W53529  35.413  42.019  11.563
85312W        W53530  39.640  14.767   0.865
85313W        W53531   7.165   1.976   0.269
85314W        W53532  36.135  42.027   1.823
85315W        W53533  18.805   4.067  14.814
85316W        W53534  33.115  34.399   1.758
85317W        W53535  17.868  14.877   0.259
85318W        W53536  33.925  26.119  12.560
85319W        W53537  42.925  28.953  13.279
85320W        W53538  26.883  43.897  12.051
85321W        W53539   8.277  28.241   3.858
85322W        W53540   0.890  11.680   0.274
85323W        W53541  27.751  31.932  10.940
85324W        W53542   3.880  42.314  14.068
85325W        W53543  14.117   6.700  12.978
85326W        W53544  34.338  36.254  11.746
85327W        W53545  35.040  36.549  14.891
85328W        W53546  30.646   1.401   5.052
85329W        W53547  20.634  44.442   2.703
85330W        W53548   1.984   0.713  13.887
85331W        W53549  30.530   0.908   5.075
85332W        W53550  33.800  28.238   2.299
85333W        W53551  39.963  10.559  13.924
85334W        W53552   6.891  13.738  11.122
85335W        W53553  28.871  27.631  12.540
85336W        W53554   4.187  35.425  12.384
85337W        W53555   3.214  39.288   4.913
85338W        W53556   3.733  39.387   4.311
85339W        W53557  37.954  15.315  12.491
85340W        W53558   8.681  34.318   0.359
85341W        W53559  35.156  37.971  12.107
85342W        W53560   9.183  44.151  14.129
85343W        W53561  10.996  20.272   0.718
85344W        W53562  34.995   0.776  10.499
85345W        W53563  36.215  26.362  11.032
85346W        W53564  29.679  36.175  12.007
85347W        W53565  10.175   8.222   1.871
85348W        W53566   5.904  32.190  12.475
85349W        W53567   9.300  42.010  10.577
85350W        W53568  16.386  15.552   1.466
85351W        W53569   1.700  40.749   1.296
85352W        W53570  11.278   2.737  12.180
85353W        W53571  15.685   2.477  14.818
85354W        W53572  38.404  27.160   4.056
85355W        W53573   4.551  41.499   1.319
85356W        W53574   6.783  28.655   3.867
85357W        W53575   8.771  21.305  14.389
85358W        W53576  10.105  30.535  11.648
85359W        W53577  17.131  24.743  11.185
85360W        W53578  21.415  28.670  11.551
85361W        W53579  13.238  43.002  12.782
85362W        W53580   4.280  39.031  14.451
85363W        W53581  33.307  14.528  11.139
85364W        W53582  26.060  18.205  10.612
85365W        W53583  39.793  36.976   3.348
85366W        W53584  39.076   4.730  13.983
85367W        W53585  12.544   8.849  11.225
85368W        W53586   9.727  10.759   2.089
85369W        W53587  13.870   6.428  10.607
85370W        W53588  41.293   9.863   4.977
85371W        W53589  29.761  30.611   5.048
85372W        W53590  27.245  29.516   4.292
85373W        W53591  34.130   2.582   1.686
85374W        W53592  41.060  14.833   3.249
85375W        W53593  25.654  19.274  10.673
85376W        W53594   6.877  38.397   0.231
85377W        W53595   2.820   9.436  12.018
85378W        W53596  13.293  15.543   2.663
85379W        W53597  42.544  33.165  12.359
85380W        W53598  22.718  13.065  13.341
85381W        W53599  36.726  32.389   2.043
85382W        W53600  11.123  16.629  13.525
85383W        W53601  29.658  36.026  11.424
85384W        W53602   1.513  44.198   4.342
85385W        W53603   6.642  33.905  14.784
85386W        W53604  29.573  43.285   0.409
85387W        W53605   4.323  42.960   0.168
85388W        W53606  15.588   9.852   0.899
85389W        W53607  43.893  13.487  11.101
85390W        W53608  32.063  17.328   5.058
85391W        W53609  12.077  36.400  12.482
85392W        W53610  24.434  42.998  12.121
85393W        W53611  24.619  17.408  14.732
85394W        W53612   0.319  13.854   2.230
85395W        W53613   5.130  21.900  11.566
85396W        W53614  18.505  12.819   1.903
85397W        W53615   7.763   8.386   3.711
85398W        W53616  30.442  36.787  14.655
85399W        W53617  42.922  21.074  11.116
85400W        W53618  40.226   0.273  12.536
85401W        W53619  25.645   0.428   3.520
85402W        W53620  40.989  12.402   3.237
85403W        W53621   5.252  37.038   1.105
85404W        W53622  23.229  37.083  14.791
85405W        W53623  25.607  29.158  10.755
85406W        W53624  11.190  39.456  13.373
85407W        W53625  37.980  29.077   4.187
85408W        W53626  12.123  21.983  14.274
85409W        W53627  41.363  27.084   3.703
85410W        W53628  42.563   0.453  12.894
85411W        W53629   5.470  14.550  11.004
85412W        W53630  33.844  28.613  13.379
85413W        W53631  17.546  24.529   3.262
85414W        W53632   8.317  43.351  12.939
85415W        W53633   1.383  35.602  11.537
85416W        W53634  35.570   4.935   4.158
85417W        W53635  16.373  42.259  12.046
85418W        W53636  28.190   8.891  12.313
85419W        W53637   9.205  25.639  13.783
85420W        W53638  28.899   4.279  13.910
85421W        W53639   4.172  35.874  12.693
85422W        W53640  25.935  20.070   4.038
85423W        W53641  15.710  19.828   2.365
85424W        W53642  27.115  12.083  12.463
85425W        W53643  35.492   6.590  14.037
85426W        W53644  13.327  16.257   3.821
85427W        W53645  37.485   3.417   1.979
85428W        W53646   4.799   0.883  11.624
85429W        W53647  14.621  35.500   0.805
85430W        W53648   4.011  20.051  13.997
85431W        W53649  10.199  14.058   2.300
85432W        W53650  42.751  43.962   3.848
85433W        W53651   3.820   9.658   3.732
85434W        W53652  12.779  37.766   3.378
85435W        W53653  38.242  11.561   1.802
85436W        W53654  34.914  12.786  13.531
85437W        W53655   1.516  18.993   0.334
85438W        W53656  21.209  31.632  12.508
85439W        W53657  25.063  41.157  12.963
85440W        W53658  24.127  25.970  12.884
85441W        W53659  28.715   9.698  14.368
85442W        W53660  40.961  21.433  10.729
85443W        W53661  26.684   0.093   1.739
85444W        W53662  18.631   3.660   4.121
85445W        W53663  22.013   8.790   1.166
85446W        W53664  32.863  16.525   4.226
85447W        W53665  16.339   3.392   4.595
85448W        W53666   5.373   6.963   4.127
85449W        W53667  24.991  32.422  12.492
85450W        W53668  31.390  17.703   1.328
85451W        W53669  33.356   8.636  12.076
85452W        W53670  32.162  20.661   3.671
85453W        W53671   9.203  26.451  11.544
85454W        W53672   7.304  25.622  12.536
85455W        W53673  23.969  39.910   2.366
85456W        W53674  25.939  28.450   4.520
85457W        W53675  28.946  42.293  13.660
85458W        W53676  13.120  25.894   2.871
85459W        W53677  32.017  40.723   2.262
85460W        W53678  42.841  14.169  10.839
85461W        W53679   1.960  43.561   1.909
85462W        W53680  28.355  42.205   2.796
85463W        W53681   8.517  22.309   4.833
85464W        W53682  21.170   4.889   2.703
85465W        W53683  38.507  15.673   2.258
85466W        W53684  10.966  42.153   1.784
85467W        W53685   6.338  26.244   1.042
85468W        W53686  10.368   7.384   4.483
85469W        W53687  16.096  10.029  10.179
85470W        W53688  40.361  32.948   4.583
85471W        W53689  42.059  23.910   2.193
85472W        W53690  41.501   5.768  11.789
85473W        W53691   6.383  37.473   0.516
85474W        W53692  13.174  30.716   0.789
85475W        W53693  34.610   3.991   2.852
85476W        W53694  23.590  43.757  13.415
85477W        W53695  40.594   2.916   2.121
85478W        W53696  39.870  25.149   2.672
85479W        W53697  33.971  26.111   0.777
85480W        W53698  14.263  28.051  13.602
85481W        W53699  11.753  40.274  12.472
85482W        W53700  19.670  35.900  11.998
85483W        W53701   1.925  24.440   4.068
85484W        W53702   5.431  39.323   3.309
85485W        W53703  22.502  29.671   1.678
85486W        W53704  27.649  27.720   4.348
85487W        W53705  30.755  28.816   5.349
85488W        W53706  39.338  35.959  12.580
85489W        W53707  40.509  21.675  13.023
85490W        W53708  20.361  14.172   9.788
85491W        W53709   9.832  37.020   4.790
85492W        W53710  14.599  21.587  12.647
85493W        W53711   0.356  35.926  12.435
85494W        W53712  16.728  14.872   4.202
85495W        W53713   2.274  34.271   3.852
85496W        W53714  37.556   5.173  11.512
85497W        W53715  18.028  21.814   2.813
85498W        W53716   6.687   2.420  13.497
85499W        W53717  41.486  31.737   4.620
85500W        W53718  14.911   6.885  10.641
85501W        W53719  28.762  34.401  11.378
85502W        W53720   3.415   6.636   3.211
85503W        W53721  31.759   6.417  10.921
85504W        W53722  34.577  14.718   3.250
85505W        W53723  41.329  16.212   3.836
85506W        W53724  20.866   1.996  12.040
85507W        W53725  30.554  23.711  14.925
85508W        W53726  20.797  14.534  11.536
85509W        W53727  18.678  29.175   1.613
85510W        W53728  24.064  12.841  12.463
85511W        W53729  37.960   1.204   9.870
85512W        W53730   5.880  18.453   2.332
85513W        W53731  22.658   5.747   0.524
85514W        W53732  15.923  30.655  12.852
85515W        W53733   3.813  28.120  14.713
85516W        W53734  43.408  21.192  10.190
85517W        W53735   2.783  16.378   1.818
85518W        W53736  35.905   2.264  11.077
85519W        W53737   5.386  16.953   9.707
85520W        W53738   0.572  36.236  12.020
85521W        W53739   1.430   8.431   0.230
85522W        W53740   8.238  20.596   2.209
85523W        W53741  29.029   7.462   3.610
85524W        W53742  11.640  42.923   4.106
85525W        W53743  39.348  16.353  14.895
85526W        W53744  17.118  35.412  12.512
85527W        W53745   7.299  40.595   0.457
85528W        W53746  14.234  15.436  12.955
85529W        W53747  14.281  29.339  14.487
85530W        W53748  27.994  12.342  13.064
85531W        W53749  23.045  23.273   2.636
85532W        W53750  31.871  39.857   1.774
85533W        W53751  37.514  28.606  13.291
85534W        W53752  28.141  28.563  14.979
85535W        W53753  38.568  36.642   2.297
85536W        W53754   0.514  14.876  13.281
85537W        W53755  13.623  18.726   0.089
85538W        W53756  26.087  37.055  10.760
85539W        W53757  28.502  12.420   3.194
85540W        W53758  22.070  35.452  11.424
85541W        W53759  42.556  12.669   0.037
85542W        W53760  13.859  40.325  12.955
85543W        W53761  27.028  40.798  13.085
85544W        W53762  29.683  15.514  12.770
85545W        W53763  17.728  42.300   1.167
85546W        W53764  28.154  33.425  13.449
85547W        W53765  26.651  39.991  13.802
85548W        W53766  21.484  30.413  14.859
85549W        W53767  10.662  34.118  13.397
85550W        W53768  25.151  42.669  13.650
85551W        W53769   5.277  20.987  14.280
85552W        W53770  18.049  39.329   1.835
85553W        W53771  26.752  16.911   4.099
85554W        W53772   7.782  19.436  10.374
85555W        W53773  30.456  29.073   3.298
85556W        W53774   5.305   9.218   1.964
85557W        W53775  35.848  28.876  13.891
85558W        W53776  27.090   6.820  13.966
85559W        W53777  15.762  14.205   2.290
85560W        W53778   2.833  44.848  14.462
85561W        W53779   4.956  44.042   2.286
85562W        W53780  21.909  14.532  14.018
85563W        W53781  21.900  43.876  11.617
85564W        W53782  21.006  12.794   1.224
85565W        W53783  39.436  30.909  11.399
85566W        W53784  19.797  19.751   4.612
85567W        W53785  36.627   3.510   5.050
85568W        W53786  43.993  24.569  13.086
85569W        W53787  37.728  40.460   5.035
85570W        W53788   8.170   7.678   3.968
85571W        W53789  39.407  32.659  12.878
85572W        W53790  19.568   3.011   3.206
85573W        W53791   9.204   1.735  13.282
85574W        W53792   8.757   3.733   2.403
85575W        W53793  29.456  37.377   0.266
85576W        W53794   4.416  22.088  13.274
85577W        W53795  44.336  23.737  14.062
85578W        W53796  18.375   4.386  14.854
85579W        W53797  31.806  29.300  14.976
85580W        W53798  44.956  37.815  14.867
85581W        W53799  33.485   6.174  11.866
85582W        W53800  43.052  23.781   3.677
85583W        W53801  41.252  12.709  14.505
85584W        W53802   0.531  29.394  14.502
85585W        W53803  11.612   9.093  13.933
85586W        W53804  26.278  20.451   4.172
85587W        W53805  11.739  29.734  14.446
85588W        W53806   1.355  20.613   4.552
85589W        W53807  10.220  14.892  13.488
85590W        W53808  38.700  35.831   1.108
85591W        W53809  41.381  35.779  13.827
85592W        W53810  42.927   7.469   1.879
85593W        W53811  38.607  20.207   3.452
85594W        W53812  28.238  22.589  14.780
85595W        W53813   6.817  10.726   0.661
85596W        W53814  35.503  16.994  12.872
85597W        W53815  28.452  25.219  13.509
85598W        W53816  33.501  30.434  14.289
85599W        W53817  29.503   8.154   2.248
85600W        W53818  10.031  40.815   4.099
85601W        W53819  24.294  36.867   0.423
85602W        W53820   1.776  33.505   4.107
85603W        W53821  39.899  37.496   3.234
85604W        W53822  19.856  10.045   4.134
85605W        W53823  16.436  28.710   4.091
85606W        W53824  15.557  32.591   1.928
85607W        W53825  38.296  36.552   2.744
85608W        W53826  10.637  30.633   1.559
85609W        W53827  19.598  12.665  13.858
85610W        W53828  30.655  40.525  12.566
85611W        W53829  15.119  33.960  14.973
85612W        W53830   2.315   8.538  14.145
85613W        W53831  21.960  16.194   3.635
85614W        W53832  32.355  44.039  13.053
85615W        W53833  15.758  25.693  11.612
85616W        W53834  25.212  21.620  13.112
85617W        W53835  35.159  13.775   2.439
85618W        W53836  44.435  13.766   2.134
85619W        W53837  12.338  29.794  13.404
85620W        W53838  34.509   9.138   3.262
85621W        W53839   9.397  27.701  10.967
85622W        W53840  36.914  20.031   1.627
85623W        W53841  11.575  12.491   4.675
85624W        W53842  32.979   2.730  14.629
85625W        W53843  28.418   5.860   0.390
85626W        W53844  32.368  42.675  14.730
85627W        W53845   9.202  43.461  11.954
85628W        W53846  25.892  40.408   4.786
85629W        W53847  21.352  32.906  12.965
85630W        W53848  26.991  33.967   3.868
85631W        W53849   3.715  37.074  14.012
85632W        W53850  21.687  25.208  13.965
85633W        W53851  19.292  35.563  12.043
85634W        W53852   8.459   6.864  14.768
85635W        W53853   7.774  31.638  12.073
85636W        W53854  23.969  29.247   0.757
85637W        W53855  42.244   6.912  13.815
85638W        W53856  42.542   6.533  10.752
85639W        W53857   6.780   8.153  11.525
85640W        W53858   4.185  22.252  11.421
85641W        W53859  33.848  29.128   3.267
85642W        W53860  18.681  26.705  10.400
85643W        W53861  26.082   8.335   4.127
85644W        W53862  30.879  33.008  11.234
85645W        W53863  17.517  44.810  10.740
85646W        W53864  43.379  37.514   4.661
85647W        W53865  11.264   9.218   1.807
85648W        W53866  34.546  41.517   1.871
85649W        W53867  11.653  10.310  12.907
85650W        W53868  15.620  24.544  14.914
85651W        W53869  28.831  17.628   5.488
85652W        W53870  12.212  11.951   3.607
85653W        W53871  41.094  39.042  12.002
85654W        W53872  18.077  37.858  13.580
85655W        W53873   3.361   3.008  12.319
85656W        W53874  16.014  35.004  14.322
85657W        W53875   8.932  16.117  14.437
85658W        W53876  21.716  20.618  13.360
85659W        W53877  19.184  33.358  12.054
85660W        W53878  18.768  27.655   3.826
85661W        W53879  30.063  21.519  11.457
85662W        W53880  43.949  40.939  13.077
85663W        W53881  28.515  36.238  13.541
85664W        W53882   8.595  28.066   0.686
85665W        W53883  30.366  12.009  13.920
85666W        W53884  33.892  20.120  14.443
85667W        W53885  30.301   1.785   5.023
85668W        W53886  21.949   7.904  10.723
85669W        W53887  12.615  35.939   1.831
85670W        W53888  11.652   1.280   1.638
85671W        W53889  43.035  27.666   0.440
85672W        W53890   3.103   0.716   4.580
85673W        W53891  23.773  31.060   1.424
85674W        W53892   2.390  28.165  12.426
85675W        W53893   7.748   3.336  13.532
85676W        W53894  41.629  27.763  10.817
85677W        W53895  18.868   5.027   1.704
85678W        W53896   4.460  44.427   4.596
85679W        W53897   6.555  30.668  10.671
85680W        W53898  34.475  44.832   2.122
85681W        W53899  12.503  16.356   2.252
85682W        W53900  10.326  17.333   4.141
85683W        W53901  15.828  44.583   2.271
85684W        W53902  26.405  31.079  12.188
85685W        W53903  28.681  41.586   1.827
85686W        W53904  16.036  30.190  11.169
85687W        W53905  24.029  25.136   2.919
85688W        W53906   1.909  36.945   1.716
85689W        W53907   7.631  11.674  13.853
85690W        W53908  41.860  30.465   0.038
85691W        W53909  42.763   0.528   0.037
85692W        W53910  18.602  36.838   0.176
85693W        W53911  10.760  44.804  14.394
85694W        W53912  14.299  37.538  10.858
85695W        W53913  21.000  13.933  14.069
85696W        W53914  43.124  35.114   2.452
85697W        W53915  36.352  31.662  14.798
85698W        W53916  24.094  10.691  14.232
85699W        W53917  38.713  42.038  11.115
85700W        W53918  26.276  39.034   5.021
85701W        W53919  33.928  32.478   1.173
85702W        W53920   0.268   4.061  13.986
85703W        W53921  40.539  12.611   4.982
85704W        W53922  30.379  12.620  14.332
85705W        W53923   9.280  36.791  14.764
85706W        W53924  44.423  41.020   0.791
85707W        W53925  36.351  25.954   1.393
85708W        W53926  22.798  17.071  13.779
85709W        W53927   1.458  12.174   2.806
85710W        W53928  34.575  34.359  14.879
85711W        W53929  30.113  33.616   3.660
85712W        W53930  11.204  15.171   0.511
85713W        W53931  31.017  31.173   2.220
85714W        W53932   5.678   2.318   3.481
85715W        W53933  24.442  44.576  11.651
85716W        W53934  32.629  11.424  13.009
85717W        W53935  31.924  40.738  11.117
85718W        W53936  11.358  21.836  11.908
85719W        W53937   3.111  33.383  12.064
85720W        W53938  31.041  43.385   2.677
85721W        W53939  12.716  44.701  13.071
85722W        W53940  27.007  14.297  14.509
85723W        W53941  25.487  10.443  11.123
85724W        W53942  21.086   8.398  11.498
85725W        W53943  38.846  43.983  12.325
85726W        W53944  31.574  44.722  14.885
85727W        W53945   0.020  25.551  10.426
85728W        W53946   7.254  26.037   1.795
85729W        W53947  17.591   7.796   1.927
85730W        W53948  20.479  29.692   1.911
85731W        W53949   6.267  35.039  12.971
85732W        W53950  10.375  26.677  11.126
85733W        W53951  20.386  18.363   3.320
85734W        W53952   3.144  36.271  11.575
85735W        W53953   5.374  26.238  10.985
85736W        W53954  44.343   2.774  12.476
85737W        W53955  18.154   2.429  13.593
85738W        W53956  28.078  29.130  13.414
85739W        W53957  25.153   3.541  10.902
85740W        W53958  17.634  17.376  12.283
85741W        W53959   5.472   0.751   1.263
85742W        W53960  44.733   1.542   1.288
85743W        W53961   6.834  32.538   2.444
85744W        W53962  31.962  26.424   2.282
85745W        W53963  33.331   7.184  14.959
85746W        W53964   0.355   1.299  11.808
85747W        W53965   4.349  41.074   2.261
85748W        W53966  19.496  23.537   4.673
85749W        W53967  44.297  36.264  10.710
85750W        W53968  38.123  27.249   4.494
85751W        W53969  44.789  15.608   3.621
85752W        W53970  38.928  12.579  10.281
85753W        W53971  42.396   9.400  12.970
85754W        W53972  22.996  16.750  11.052
85755W        W53973  16.393   0.828   1.471
85756W        W53974  31.700  11.215  10.675
85757W        W53975  28.367  17.511  11.554
85758W        W53976  13.197  10.824  12.399
85759W        W53977  37.553  36.967  10.652
85760W        W53978  19.525  36.916  10.964
85761W        W53979  16.010  23.190   1.001
85762W        W53980  18.728  35.676   0.930
85763W        W53981  39.900  43.265   1.238
85764W        W53982  28.159  30.518  12.239
85765W        W53983   0.664  27.427  12.464
85766W        W53984  19.911  16.410   0.440
85767W        W53985  36.554   7.771   3.185
85768W        W53986   8.629  18.771   1.461
85769W        W53987  38.041  24.275   3.233
85770W        W53988  33.666  14.068  10.311
85771W        W53989  39.824   0.924   1.362
85772W        W53990  26.628  29.016  13.511
85773W        W53991  15.237  26.321  12.134
85774W        W53992  14.818  40.013   0.981
85775W        W53993  22.195  22.782   3.276
85776W        W53994   0.387   6.174   1.819
85777W        W53995   5.843  36.967   3.792
85778W        W53996  32.185  17.756   4.104
85779W        W53997   8.846  36.350   1.024
85780W        W53998  31.481  15.257  14.697
85781W        W53999  24.586  42.999   1.911
85782W        W54000  41.856  24.124   5.054
85783W        W54001   5.973   0.963  12.143
85784W        W54002  21.310  25.178   3.947
85785W        W54003  24.254  10.800   0.447
85786W        W54004  38.826  40.577  11.034
85787W        W54005   0.593  29.150  13.262
85788W        W54006  24.119  33.573  13.836
85789W        W54007  41.773  15.531   4.116
85790W        W54008   7.818  10.851  14.826
85791W        W54009   1.961  27.193   1.289
85792W        W54010   6.423  36.389   0.921
85793W        W54011  21.446  15.069   3.152
85794W        W54012   2.495  30.708  12.466
85795W        W54013  19.924  27.904   0.286
85796W        W54014  10.046   1.444  12.075
85797W        W54015  39.064   7.835  11.572
85798W        W54016  34.691  18.392  13.066
85799W        W54017  35.872  10.874  10.712
85800W        W54018   6.631  13.621   2.348
85801W        W54019   1.231   0.399   0.429
85802W        W54020  31.118   2.500   1.744
85803W        W54021  38.818  14.688   2.214
85804W        W54022  13.380  37.864   1.405
85805W        W54023   2.579  27.809  11.612
85806W        W54024  22.205  32.207   1.950
85807W        W54025  13.223   1.213  14.943
85808W        W54026  18.765  33.640   3.328
85809W        W54027   3.348   7.764   2.416
85810W        W54028  29.003  19.109   1.810
85811W        W54029  10.571  42.377   2.787
85812W        W54030   6.733  19.220  12.385
85813W        W54031   5.667  39.953  11.397
85814W        W54032   5.945   2.539   1.737
85815W        W54033  21.424   4.422  11.509
85816W        W54034  27.667  17.693  11.025
85817W        W54035  43.543  15.045   4.521
85818W        W54036  20.599  38.083  11.264
85819W        W54037  41.611  27.137   0.636
85820W        W54038  37.045  23.632   2.348
85821W        W54039  40.357  17.959  14.609
85822W        W54040   5.286  14.280   2.254
85823W        W54041  43.782   2.738   0.269
85824W        W54042  16.752  41.945   1.666
85825W        W54043   1.994   3.157   2.742
85826W        W54044   5.529   8.759  14.276
85827W        W54045  20.685  20.159  11.564
85828W        W54046  43.012  44.277  14.408
85829W        W54047  32.611  11.739  11.178
85830W        W54048  19.147  40.303  13.879
85831W        W54049   9.550  35.737  14.266
85832W        W54050  22.575  13.662   2.345
85833W        W54051  37.092  39.361  11.652
85834W        W54052  21.277  12.347   2.236
85835W        W54053  35.124  18.308   1.566
85836W        W54054  35.848  32.811   5.017
85837W        W54055   6.821   7.245  14.314
85838W        W54056   8.221  14.512   3.818
85839W        W54057  27.087  12.390  12.894
85840W        W54058  24.268  31.848   1.706
85841W        W54059   4.734  37.597  14.300
85842W        W54060  12.783  18.110   1.369
85843W        W54061  30.703  28.171  10.670
85844W        W54062  44.052  26.633  11.220
85845W        W54063  25.681  17.093  12.010
85846W        W54064  10.908  10.354  13.415
85847W        W54065  16.605  27.566   2.772
85848W        W54066  20.022  13.861  13.994
85849W        W54067  26.267  41.255   1.221
85850W        W54068  20.712  16.896  13.076
85851W        W54069   4.255  16.227  12.624
85852W        W54070  17.045  31.554  11.685
85853W        W54071  21.178  13.804  13.553
85854W        W54072  10.869   6.579   1.388
85855W        W54073  28.767  26.905   1.330
85856W        W54074  12.185   2.173  13.012
85857W        W54075  38.427   5.589  10.894
85858W        W54076  20.341  27.566  13.882
85859W        W54077  13.621  35.782   4.593
85860W        W54078  39.291   4.807  14.460
85861W        W54079  27.632  36.805   3.591
85862W        W54080  10.199  27.432  13.175
85863W        W54081  39.011  22.117   2.169
85864W        W54082   1.258  25.464  14.326
85865W        W54083  35.548  20.797  14.275
85866W        W54084   8.718   2.716  13.020
85867W        W54085  20.232  24.420   0.382
85868W        W54086  22.521  25.966  15.000
85869W        W54087   8.596  37.318   2.823
85870W        W54088   4.074   3.358  11.011
85871W        W54089  44.536  37.803  11.623
85872W        W54090   4.272  36.382  13.449
85873W        W54091  42.692  27.568   4.476
85874W        W54092   4.322  14.192  11.667
85875W        W54093   6.875  43.601   0.184
85876W        W54094   6.169  29.240  13.965
85877W        W54095  12.057   8.275  11.608
85878W        W54096  25.375   3.650  12.950
85879W        W54097  32.934  13.334   2.752
85880W        W54098  31.379  12.361  12.841
85881W        W54099  22.257  41.267  12.146
85882W        W54100  23.491  17.739   3.195
85883W        W54101   3.342  13.312  10.646
85884W        W54102  28.253  33.580   1.662
85885W        W54103   6.835  16.138  12.384
85886W        W54104   6.746  18.411   3.715
85887W        W54105   1.909  44.232  12.592
85888W        W54106  43.319   3.459   1.324
85889W        W54107  30.659  15.399   0.923
85890W        W54108  11.583   1.855   2.102
85891W        W54109  13.623  18.667   3.243
85892W        W54110  41.128  17.735  10.758
85893W        W54111  34.344  20.745  10.742
85894W        W54112  19.704  33.429  14.997
85895W        W54113  36.475  34.364  12.414
85896W        W54114  14.077  23.005  11.988
85897W        W54115  27.066  33.601  13.896
85898W        W54116   8.676  21.731  14.731
85899W        W54117   4.482  40.631   1.351
85900W        W54118  35.351   6.451   3.650
85901W        W54119  26.309   7.558  14.932
85902W        W54120  11.597   8.961  10.640
85903W        W54121  16.124  22.980   3.842
85904W        W54122  27.185  11.099   1.783
85905W        W54123  35.120  26.217  10.752
85906W        W54124  10.790  10.010   0.883
85907W        W54125  16.778  40.766  13.457
85908W        W54126  42.547  16.561   4.144
85909W        W54127  36.670  14.227  10.767
85910W        W54128  19.549  27.857  14.923
85911W        W54129  37.772  33.778  13.853
85912W        W54130  41.355  29.983  12.847
85913W        W54131  32.230  36.616   2.863
85914W        W54132   2.759   7.573  10.543
85915W        W54133  19.572   6.819   3.615
85916W        W54134  40.112   0.708   1.735
85917W        W54135  14.827  19.202  12.752
85918W        W54136  40.897  35.991  11.667
85919W        W54137  14.838  19.888   2.237
85920W        W54138  31.651  34.554   3.482
85921W        W54139  26.100  13.761  12.558
85922W        W54140  15.039   1.021  11.433
85923W        W54141   7.197  35.120   3.857
85924W        W54142  26.950  35.074  14.936
85925W        W54143  42.832   8.142  14.013
85926W        W54144   6.639  18.293  14.276
85927W        W54145   6.068  18.731  13.913
85928W        W54146   9.280  10.665  10.681
85929W        W54147  13.369   9.662  12.991
85930W        W54148  20.450  40.624   0.697
85931W        W54149  11.673  33.961   3.633
85932W        W54150  35.885  34.921  14.862
85933W        W54151  28.069  26.154  11.145
85934W        W54152  27.743  38.641  10.729
85935W        W54153  19.548  31.746   0.429
85936W        W54154  24.457  18.822   4.626
85937W        W54155  15.027  24.139  14.215
85938W        W54156   7.374  14.060  14.499
85939W        W54157  39.901   8.342  13.475
85940W        W54158  38.409  36.435  14.421
85941W        W54159  24.442  22.008  11.721
85942W        W54160  38.563   9.501   4.611
85943W        W54161  35.623  33.020  12.957
85944W        W54162  25.499   8.586  10.729
85945W        W54163  35.561  18.192  12.847
85946W        W54164  14.174  26.993  13.559
85947W        W54165  22.001  33.043  12.494
85948W        W54166  38.870   7.262  12.936
85949W        W54167  43.541  26.399  13.011
85950W        W54168  21.531  21.462   3.836
85951W        W54169  22.778  10.289  10.677
85952W        W54170  34.453  35.619   0.322
85953W        W54171  35.076  38.084  14.780
85954W        W54172  12.592  15.925   9.932
85955W        W54173  13.601  15.074  11.744
85956W        W54174  39.999  38.326  11.616
85957W        W54175  19.696  41.810   3.766
85958W        W54176  18.324  30.824  12.590
85959W        W54177  15.566  41.445   3.262
85960W        W54178  38.629  16.068  10.650
85961W        W54179   6.740  43.773   1.814
85962W        W54180  19.182  26.121   4.645
85963W        W54181   2.295  43.672  12.130
85964W        W54182  39.387  10.675  12.812
85965W        W54183  18.263   3.399   4.748
85966W        W54184  28.033  10.377   1.314
85967W        W54185  31.957   8.391   1.300
85968W        W54186  41.990  20.451  11.382
85969W        W54187   4.836   7.916   0.529
85970W        W54188  38.237  37.294  13.001
85971W        W54189  27.023   8.103   3.775
85972W        W54190  31.227  44.094  13.913
85973W        W54191  36.859  30.597   0.636
85974W        W54192  29.131  29.571   3.771
85975W        W54193   2.717   4.305  14.421
85976W        W54194  22.557  20.667   0.012
85977W        W54195  10.612  37.883   1.208
85978W        W54196  39.067  44.504  12.704
85979W        W54197  32.496  41.297  10.672
85980W        W54198  21.865   2.705  13.462
85981W        W54199  26.921  34.542  14.989
85982W        W54200  18.748  16.170   2.744
85983W        W54201  27.692  31.929   3.442
85984W        W54202  24.045  21.548  13.497
85985W        W54203  33.735  20.522   4.643
85986W        W54204  10.362  15.617  12.851
85987W        W54205  28.901   3.803   9.790
85988W        W54206  36.140  23.233   3.234
85989W        W54207  31.902   7.605   3.110
85990W        W54208  25.421  35.119  13.333
85991W        W54209  33.424  35.638  11.010
85992W        W54210  16.769  38.747   2.257
85993W        W54211  41.715  19.643   1.809
85994W        W54212  19.505  29.196   0.330
85995W        W54213  34.735  35.652  10.412
85996W        W54214   0.655  33.708  12.473
85997W        W54215  29.612  23.438   2.299
85998W        W54216   3.430   4.234  14.981
85999W        W54217  42.518  40.355  14.629
86000W        W54218   0.841   4.255   0.915
86001W        W54219   2.686  37.419  11.204
86002W        W54220  42.691  27.027   3.233
86003W        W54221  17.449  40.996  14.843
86004W        W54222  41.232  23.112  14.295
86005W        W54223  21.603   1.228  12.655
86006W        W54224  20.264   5.648   2.249
86007W        W54225  11.326  13.733   3.702
86008W        W54226  35.482  19.620   4.193
86009W        W54227   6.509  11.885   1.835
86010W        W54228  39.567   4.279  11.645
86011W        W54229  10.593  29.017   2.801
86012W        W54230  33.368  40.513   2.247
86013W        W54231   6.659  31.006   2.773
86014W        W54232   7.872  35.671   3.349
86015W        W54233   0.838  14.076   4.457
86016W        W54234   1.557  10.308   3.409
86017W        W54235   8.214  26.480   4.763
86018W        W54236  41.413   9.438  10.715
86019W        W54237  26.967  11.821   4.324
86020W        W54238  35.306   2.999  14.277
86021W        W54239  22.180  39.832   0.357
86022W        W54240  34.472  25.190   1.515
86023W        W54241  37.507  43.728   4.352
86024W        W54242   1.963  27.179   3.725
86025W        W54243   3.208  29.625   3.309
86026W        W54244  17.270   3.411   3.749
86027W        W54245   2.864   9.986  11.133
86028W        W54246   6.316  20.191   3.787
86029W        W54247   8.197  40.622  12.856
86030W        W54248   3.979  41.876  14.341
86031W        W54249  17.524   3.907   3.758
86032W        W54250  28.586  25.114   1.385
86033W        W54251  29.594  11.649   0.917
86034W        W54252  38.471   2.792  10.768
86035W        W54253  30.396   4.486   2.342
86036W        W54254  20.629  43.762  14.375
86037W        W54255  14.789   6.098   3.144
86038W        W54256  37.311  30.490   1.033
86039W        W54257   3.447  25.646   2.475
86040W        W54258  11.889  13.471   2.352
86041W        W54259   1.874  35.312   3.515
86042W        W54260  25.906  16.904   2.102
86043W        W54261  29.843  28.615   0.499
86044W        W54262  38.567  27.554  12.971
86045W        W54263   5.174  36.153   1.757
86046W        W54264   1.231   6.888   2.401
86047W        W54265  10.925   7.946   0.410
86048W        W54266  29.246  26.561   1.996
86049W        W54267  38.909  14.718   3.598
86050W        W54268  23.485   5.891  14.893
86051W        W54269   8.302  38.248   4.522
86052W        W54270  26.049  28.283  12.572
86053W        W54271  38.822   2.942  10.396
86054W        W54272  20.040  43.470  11.230
86055W        W54273  40.834  31.885   1.340
86056W        W54274  24.038  37.772   1.664
86057W        W54275   3.366   0.297  10.854
86058W        W54276  37.256  29.636   4.114
86059W        W54277  14.100   4.782   0.466
86060W        W54278  14.802  25.503   0.791
86061W        W54279  15.193  17.087   0.280
86062W        W54280  24.204  25.812   2.349
86063W        W54281   0.668  32.784  11.106
86064W        W54282  19.321  14.290   0.472
86065W        W54283  19.244  27.067   1.597
86066W        W54284  36.294   6.862  13.403
86067W        W54285  31.189  38.436   4.047
86068W        W54286  13.361  35.250   2.317
86069W        W54287  20.181   5.978  14.538
86070W        W54288  31.913  12.150  13.925
86071W        W54289  38.403   4.235  10.652
86072W        W54290  33.076  26.816   2.795
86073W        W54291  28.190  16.625  14.667
86074W        W54292  44.841   8.263  14.237
86075W        W54293  13.663  12.718   1.553
86076W        W54294  42.530   8.752   3.615
86077W        W54295  38.502  35.068  13.256
86078W        W54296  18.769   4.160   2.333
86079W        W54297  24.027   6.325  10.639
86080W        W54298   8.282  15.543  12.974
86081W        W54299  40.825  40.685   1.440
86082W        W54300  15.159  28.424  14.355
86083W        W54301  43.100   8.890   2.278
86084W        W54302  36.399  30.617   1.901
86085W        W54303  44.353  41.587   0.239
86086W        W54304  10.434  23.056  11.465
86087W        W54305   8.256  29.129  14.300
86088W        W54306  37.933   9.140  13.574
86089W        W54307  39.961  12.833   0.041
86090W        W54308  26.397  41.576  10.861
86091W        W54309  20.199  35.106   0.460
86092W        W54310  35.289  41.089   1.180
86093W        W54311  16.394  16.654   1.778
86094W        W54312  16.896  16.601  14.983
86095W        W54313  13.232  29.238   2.790
86096W        W54314  20.694  34.444  14.016
86097W        W54315  11.276  26.610  10.093
86098W        W54316  40.938  22.662  12.101
86099W        W54317   3.204  43.587   1.391
86100W        W54318  35.498  12.830   5.029
86101W        W54319  26.966  41.257   4.690
86102W        W54320  32.429  28.229  12.803
86103W        W54321  17.062  32.012   3.791
86104W        W54322  28.918  40.948   2.331
86105W        W54323  32.305  29.137  13.923
86106W        W54324   6.537  13.688   3.714
86107W        W54325   2.789   7.620   3.674
86108W        W54326   3.135  39.472   3.040
86109W        W54327   6.350  36.012   3.208
86110W        W54328  42.997  19.506  14.270
86111W        W54329  26.614  12.658  14.008
86112W        W54330  23.910  17.129   1.632
86113W        W54331   2.634   7.673  11.056
86114W        W54332  26.969  13.681   0.735
86115W        W54333  20.696  11.966  10.877
86116W        W54334   1.165  24.959  14.437
86117W        W54335  40.592  14.156  10.532
86118W        W54336   4.878  35.302  14.811
86119W        W54337  22.654  30.464  13.531
86120W        W54338  33.005  24.020  14.027
86121W        W54339   9.429  21.217   3.946
86122W        W54340  20.475  12.112  14.568
86123W        W54341  19.181  27.973   1.886
86124W        W54342   6.844  12.067   2.235
86125W        W54343  18.853   4.595   2.850
86126W        W54344  33.167  33.440  11.557
86127W        W54345  44.612   4.556  10.707
86128W        W54346   3.611  42.212   1.746
86129W        W54347  28.596  36.806  13.157
86130W        W54348  16.877  30.875  13.976
86131W        W54349   8.605  11.421  11.142
86132W        W54350  43.094  31.577  11.192
86133W        W54351   7.319   7.449  14.478
86134W        W54352  27.552   6.418   4.077
86135W        W54353  29.334  25.559   3.798
86136W        W54354  26.622  34.470  11.977
86137W        W54355   9.220   3.796  13.943
86138W        W54356  23.130  28.048   4.747
86139W        W54357  29.556   5.263  13.290
86140W        W54358  21.204  28.086   4.635
86141W        W54359  19.796  29.493   3.648
86142W        W54360   5.176  10.870  11.458
86143W        W54361   9.626  37.269   4.333
86144W        W54362  40.562   3.264   1.707
86145W        W54363   7.410  19.660  10.695
86146W        W54364   8.182  30.119  12.330
86147W        W54365  17.797  16.027  12.869
86148W        W54366  13.569  31.203  14.860
86149W        W54367  40.260  22.620   2.709
86150W        W54368  12.099  44.862  11.442
86151W        W54369   5.461  37.853  12.440
86152W        W54370  16.359  42.803  13.408
86153W        W54371  44.013  34.554  11.145
86154W        W54372  22.059  24.069  12.696
86155W        W54373  18.673   6.821  13.407
86156W        W54374  10.847  41.947  13.942
86157W        W54375  31.636   2.024   3.733
86158W        W54376   7.920  10.445  12.429
86159W        W54377  30.579   4.391  11.609
86160W        W54378  24.534  20.866  11.149
86161W        W54379  40.515  44.942   3.756
86162W        W54380  34.103  11.224  10.812
86163W        W54381  29.979  13.089   3.656
86164W        W54382   0.064  12.812  12.411
86165W        W54383   3.721   5.268  10.619
86166W        W54384  32.069  37.296  13.928
86167W        W54385  30.705  30.159  13.036
86168W        W54386  18.749  12.955  14.285
86169W        W54387   4.200  15.693  13.799
86170W        W54388   2.709   5.866  12.941
86171W        W54389  34.616   8.010  11.268
86172W        W54390  24.908  40.629   3.336
86173W        W54391   3.881  35.165  13.872
86174W        W54392  31.186  15.256  11.546
86175W        W54393   8.158  13.576  12.025
86176W        W54394  23.912   1.296   4.538
86177W        W54395  21.092  22.418   4.600
86178W        W54396   7.625  18.199  12.773
86179W        W54397  44.542   5.863   1.443
86180W        W54398  11.102  15.400   2.314
86181W        W54399  31.909  28.085   2.659
86182W        W54400  20.791   4.834  13.615
86183W        W54401  21.161   1.234   1.967
86184W        W54402  25.288  23.124  11.953
86185W        W54403  23.030  35.766  14.346
86186W        W54404  14.337   9.838  12.140
86187W        W54405  35.540  28.721   1.770
86188W        W54406  31.042   5.140  12.393
86189W        W54407  42.312  16.228   2.703
86190W        W54408  44.810  13.462  10.954
86191W        W54409  10.386  21.438   0.172
86192W        W54410  38.386  14.717  10.885
86193W        W54411  36.335  33.758  10.310
86194W        W54412  27.431  13.291   3.777
86195W        W54413  15.839  16.343  10.740
86196W        W54414   9.698  20.782   4.663
86197W        W54415  42.112  44.004   4.731
86198W        W54416  29.558   0.698  11.422
86199W        W54417  27.773  37.145  13.258
86200W        W54418  34.403   4.208   3.270
86201W        W54419   0.316  22.342   3.122
86202W        W54420   8.280   2.461  13.085
86203W        W54421  37.041  21.302   2.053
86204W        W54422  35.679   6.318  12.373
86205W        W54423  15.428  26.145   3.683
86206W        W54424  37.523  22.979   4.553
86207W        W54425  27.556  39.304   0.243
86208W        W54426  37.883  24.092  11.163
86209W        W54427  25.991  16.636   1.663
86210W        W54428  24.445   0.132   2.879
86211W        W54429  27.970  18.174   0.251
86212W        W54430   1.880   5.887   4.611
86213W        W54431  21.974  24.467   1.374
86214W        W54432  32.394  34.324  11.641
86215W        W54433  20.405   9.173  11.994
86216W        W54434  32.729  16.386   2.187
86217W        W54435   2.256  40.542   0.837
86218W        W54436  32.024   8.694  14.516
86219W        W54437   1.461   9.799  13.543
86220W        W54438  36.314  40.828  14.541
86221W        W54439  10.807  14.351   3.285
86222W        W54440  40.362  40.164   4.635
86223W        W54441  13.188  13.921   4.238
86224W        W54442   0.285  23.687   2.598
86225W        W54443   1.713  36.169   1.409
86226W        W54444  13.372   4.462   4.242
86227W        W54445  26.494   8.901   2.395
86228W        W54446  41.959  14.436  13.136
86229W        W54447  23.131   3.805   4.347
86230W        W54448   8.714   8.308   0.172
86231W        W54449  24.753   5.645   1.204
86232W        W54450  38.930   7.955   0.898
86233W        W54451  35.983  26.697  10.724
86234W        W54452   3.705   0.298   2.243
86235W        W54453  35.866  40.798   0.379
86236W        W54454  24.343  12.193   1.233
86237W        W54455  10.374  39.428  14.679
86238W        W54456   0.832   2.845   1.930
86239W        W54457  15.914  43.921   0.414
86240W        W54458  37.633  25.554  12.148
86241W        W54459  11.781  43.928   4.531
86242W        W54460  20.701  42.800  10.915
86243W        W54461  25.096  22.361  14.784
86244W        W54462  37.527  19.489   0.097
86245W        W54463  18.682  21.528   0.430
86246W        W54464   6.899  41.290  14.943
86247W        W54465   8.678  34.992  11.594
86248W        W54466   5.679   5.593  12.451
86249W        W54467  16.619  13.131  10.589
86250W        W54468  34.876   7.001   1.811
86251W        W54469  20.095  25.971  11.484
86252W        W54470  33.168  19.742  13.343
86253W        W54471  25.191   8.706   1.641
86254W        W54472   7.607  44.793   4.188
86255W        W54473  18.358  31.505   4.090
86256W        W54474  33.632  31.305   1.931
86257W        W54475   9.842  28.610   1.288
86258W        W54476  11.686  15.999  12.617
86259W        W54477  19.617  27.495  11.741
86260W        W54478  29.175  20.099  12.456
86261W        W54479   1.744  22.536  11.979
86262W        W54480  23.528  36.080   4.316
86263W        W54481  18.512  23.727   0.792
86264W        W54482  14.159   6.173  12.957
86265W        W54483   8.320  18.404   4.043
86266W        W54484  16.608   8.415   0.013
86267W        W54485  40.619  18.094  11.232
86268W        W54486  31.120  39.406   2.684
86269W        W54487  33.963  10.853   0.525
86270W        W54488  41.726  34.833   5.019
86271W        W54489  16.003  39.426  11.611
86272W        W54490  37.742  24.627  11.524
86273W        W54491   1.818  43.828   2.377
86274W        W54492  13.053   1.488  10.570
86275W        W54493   9.655  10.241  14.050
86276W        W54494   9.846  41.984  11.472
86277W        W54495  40.572   1.510   4.500
86278W        W54496  12.221  22.194  10.596
86279W        W54497  36.099  30.077  14.780
86280W        W54498   2.752   5.799   4.753
86281W        W54499   3.522  22.895  10.720
86282W        W54500   4.719  20.756  13.664
86283W        W54501  32.430  41.754   1.980
86284W        W54502  16.421  26.478   0.449
86285W        W54503  43.649  40.005  12.609
86286W        W54504  14.045  27.611   4.243
86287W        W54505  37.154  19.161  10.714
86288W        W54506   0.309  30.088   3.587
86289W        W54507   9.753  16.062   1.429
86290W        W54508  24.950  37.577   2.814
86291W        W54509   1.529   6.669  12.946
86292W        W54510  29.429  10.332  14.347
86293W        W54511   4.231  30.526  11.946
86294W        W54512   3.332  25.084   2.743
86295W        W54513  13.703  39.266   0.401
86296W        W54514  19.542  16.536  13.785
86297W        W54515  43.283  15.699   0.925
86298W        W54516  32.116  36.657   4.566
86299W        W54517  36.876  44.133  10.796
86300W        W54518  39.917   8.289  12.953
86301W        W54519  39.219   9.847   0.814
86302W        W54520  39.854   0.631   3.759
86303W        W54521  14.294   0.765   1.397
86304W        W54522  35.466  13.991  10.733
86305W        W54523   6.228  14.718  11.443
86306W        W54524  30.017  30.457  11.155
86307W        W54525  12.274  10.223   4.079
86308W        W54526  42.510  26.677  11.922
86309W        W54527  13.401  30.044   4.441
86310W        W54528  29.959  17.707  14.730
86311W        W54529   3.705  44.940  11.998
86312W        W54530  32.976  41.549  11.822
86313W        W54531  34.483  13.916   4.151
86314W        W54532   1.231  34.461  11.503
86315W        W54533  38.064  29.955   4.433
86316W        W54534  29.128  39.314   2.805
86317W        W54535   2.256  27.782  14.541
86318W        W54536   3.627   0.828   3.915
86319W        W54537  39.576  44.394   1.876
86320W        W54538  29.128  17.058   4.665
86321W        W54539  36.207  33.506   0.522
86322W        W54540  24.012  44.335  14.386
86323W        W54541  26.139  33.012   4.683
86324W        W54542  30.620  40.077   3.155
86325W        W54543   5.465  14.595   3.650
86326W        W54544  16.782   2.221   2.814
86327W        W54545  40.370  16.507   2.308
86328W        W54546  17.069   3.651  14.194
86329W        W54547  13.782  33.342   4.108
86330W        W54548  41.884  14.351   4.652
86331W        W54549  40.831   6.673   1.897
86332W        W54550  18.059   5.275  14.561
86333W        W54551  33.829  43.090   0.335
86334W        W54552   1.151  11.722   1.943
86335W        W54553  30.997  25.967   4.426
86336W        W54554  42.992  31.401   4.308
86337W        W54555  17.087   5.495  14.868
86338W        W54556  26.259  42.421  11.281
86339W        W54557  23.294  26.663   4.944
86340W        W54558  32.951   8.221  11.593
86341W        W54559  34.085  13.294   2.785
86342W        W54560   4.905  39.231   0.084
86343W        W54561  32.143  38.309  10.323
86344W        W54562  22.043  19.184  10.699
86345W        W54563  39.053  21.431   1.439
86346W        W54564   2.285  25.279  13.069
86347W        W54565  26.223  33.398   3.739
86348W        W54566  19.139  38.409  12.998
86349W        W54567  10.653  36.679  12.536
86350W        W54568   0.691  33.973  10.677
86351W        W54569  34.183  38.456   3.834
86352W        W54570  25.021   5.124   1.829
86353W        W54571  24.235  34.126   4.714
86354W        W54572   6.696  38.648   2.205
86355W        W54573  17.670  32.363  10.636
86356W        W54574  36.372  38.001  11.683
86357W        W54575  40.309   3.570   4.436
86358W        W54576  29.984  14.802   5.216
86359W        W54577  26.036  14.770  14.000
86360W        W54578   7.172  31.397   0.256
86361W        W54579   8.908   4.638  12.021
86362W        W54580  40.821   7.212   3.155
86363W        W54581  35.602  16.028   2.749
86364W        W54582  39.944  35.065   1.441
86365W        W54583  25.632   3.820  14.380
86366W        W54584  12.349   0.066   0.253
86367W        W54585  17.040  35.246   2.860
86368W        W54586  20.682  33.321   0.442
86369W        W54587  36.056  35.957  14.483
86370W        W54588   8.408   3.925   0.329
86371W        W54589   0.360  22.579  10.363
86372W        W54590  42.021  17.372   3.864
86373W        W54591   8.888   9.872  12.044
86374W        W54592  19.058  22.530   2.386
86375W        W54593   0.920   3.001   1.003
86376W        W54594  37.354  30.101  11.096
86377W        W54595  23.788  22.619   0.997
86378W        W54596  37.053  43.041  11.609
86379W        W54597  25.548   3.189  12.803
86380W        W54598  31.500  36.908  13.240
86381W        W54599  35.379  25.243   2.812
86382W        W54600  24.915  33.460  11.425
86383W        W54601  29.611   5.472   4.185
86384W        W54602   5.185  17.613  14.874
86385W        W54603  27.387  20.471  11.926
86386W        W54604   9.720  39.764  13.149
86387W        W54605  16.325  39.474  13.973
86388W        W54606  12.434  31.581  12.121
86389W        W54607  22.388  13.919   3.800
86390W        W54608  41.312   4.334  11.660
86391W        W54609   6.271  31.473   0.506
86392W        W54610  28.345  27.256  14.966
86393W        W54611  29.537  29.548   4.167
86394W        W54612  12.138  36.428   0.932
86395W        W54613  34.183  34.027   2.328
86396W        W54614  44.450  14.465   1.307
86397W        W54615  42.006  44.314  11.959
86398W        W54616  36.297   3.482  11.077
86399W        W54617   0.779  11.141  12.421
86400W        W54618  18.974  13.688   2.141
86401W        W54619  14.861   2.456   4.324
86402W        W54620  21.488  23.082  14.269
86403W        W54621  35.885  44.222  13.370
86404W        W54622  13.259  12.231  14.480
86405W        W54623  17.841  18.571   3.483
86406W        W54624  41.077  16.958   4.544
86407W        W54625  26.576   4.978   5.099
86408W        W54626  22.711  25.485   0.677
86409W        W54627  42.849  42.445  12.053
86410W        W54628   3.167  16.684   1.900
86411W        W54629  26.553  28.441   0.319
86412W        W54630  11.280  35.020   3.335
86413W        W54631   7.148  26.438   2.955
86414W        W54632  42.421  10.720  10.772
86415W        W54633  11.281  31.002  12.013
86416W        W54634  16.050  37.616   4.513
86417W        W54635  30.136  16.702  12.867
86418W        W54636  12.155   6.414   3.632
86419W        W54637   2.860  43.254   4.288
86420W        W54638  30.687  20.308   0.362
86421W        W54639  25.176   9.277  14.880
86422W        W54640  18.719  44.442   2.314
86423W        W54641  44.516   1.444   3.209
86424W        W54642  14.361  19.200   3.366
86425W        W54643  26.521   1.476   3.377
86426W        W54644  12.934   4.148  12.057
86427W        W54645  32.891  43.845  14.573
86428W        W54646  10.834   1.815  14.734
86429W        W54647  32.923   6.618  12.501
86430W        W54648  41.096  11.000   4.212
86431W        W54649  34.916  22.340   2.131
86432W        W54650  28.990  26.602   4.440
86433W        W54651  35.983  13.679   1.958
86434W        W54652  22.702  40.915   4.772
86435W        W54653  24.470   9.827   1.741
86436W        W54654  34.622  12.301   0.779
86437W        W54655  30.500  28.997  11.199
86438W        W54656  19.878   7.332  10.648
86439W        W54657  39.545   8.405  12.037
86440W        W54658   9.734  25.479   3.602
86441W        W54659  26.698  40.110   3.860
86442W        W54660  32.134  39.387   1.733
86443W        W54661   7.232  36.378  12.832
86444W        W54662  10.648  22.519  14.230
86445W        W54663  39.018   0.007  12.884
86446W        W54664   3.927  18.660   2.204
86447W        W54665  28.204  27.697   1.872
86448W        W54666   6.360  28.029  14.868
86449W        W54667  16.702  44.234   1.726
86450W        W54668   3.456  35.961  10.819
86451W        W54669  25.777  34.125   1.003
86452W        W54670  32.209  13.818  11.339
86453W        W54671   0.680  12.099   4.118
86454W        W54672  24.450  24.977   5.103
86455W        W54673  36.496  11.228  14.465
86456W        W54674  31.285   7.747  14.555
86457W        W54675  24.676   6.242  14.616
86458W        W54676  13.593   5.709   3.194
86459W        W54677  22.684  15.311   2.957
86460W        W54678  29.055  26.610   1.001
86461W        W54679  17.626  44.897   5.464
86462W        W54680  41.790   5.771  13.402
86463W        W54681  16.175  41.768  11.183
86464W        W54682  23.498  23.159   3.699
86465W        W54683  37.358  18.814   1.789
86466W        W54684  29.992  13.757   0.799
86467W        W54685  22.036  17.152  10.535
86468W        W54686  29.707  22.287  14.416
86469W        W54687  35.031  20.665  14.229
86470W        W54688  40.038  25.098   3.180
86471W        W54689   6.912  32.378   3.749
86472W        W54690  31.511  18.074   4.010
86473W        W54691  32.195  21.971  12.543
86474W        W54692  20.041  31.915   0.448
86475W        W54693  12.286  32.904  12.037
86476W        W54694  43.299   6.706   1.002
86477W        W54695  28.725  32.533  11.594
86478W        W54696   3.743  17.725   2.561
86479W        W54697  14.045  24.515  13.019
86480W        W54698   2.165  15.188  12.573
86481W        W54699  29.973  44.498   3.140
86482W        W54700  19.668  42.503   5.118
86483W        W54701  30.378  30.189   1.368
86484W        W54702   7.679  26.711  14.710
86485W        W54703   2.156  32.832  13.309
86486W        W54704  43.971   0.048   3.539
86487W        W54705   8.749  33.821   0.214
86488W        W54706  27.592  32.860  13.919
86489W        W54707   9.815  42.885  10.228
86490W        W54708  40.766   9.140  14.865
86491W        W54709  21.767   2.390   4.831
86492W        W54710  31.131   9.201  13.760
86493W        W54711  33.822  43.778  10.276
86494W        W54712  16.159  27.612   2.347
86495W        W54713  43.633  13.265   5.012
86496W        W54714  20.175   7.893   2.603
86497W        W54715  13.601   4.769   1.405
86498W        W54716  39.925  33.957  11.895
86499W        W54717  29.590  25.261  13.421
86500W        W54718   6.465  27.197   0.155
86501W        W54719  28.148  20.756  11.269
86502W        W54720  23.073   3.929   0.490
86503W        W54721  33.396   3.300   3.608
86504W        W54722  25.639  42.258   2.935
86505W        W54723  33.299  32.934  14.022
86506W        W54724  44.444  38.657  14.587
86507W        W54725  40.092  34.439   3.232
86508W        W54726  16.557   1.304   1.384
86509W        W54727  13.647  17.432   2.839
86510W        W54728   2.992   6.182  12.602
86511W        W54729  15.090  36.319   3.368
86512W        W54730  26.960  32.613   1.464
86513W        W54731   7.705   8.567  11.208
86514W        W54732  34.632   5.376   9.514
86515W        W54733  44.829  19.581  13.621
86516W        W54734   8.349  25.756  13.969
86517W        W54735  30.666  19.493  10.422
86518W        W54736   0.932  20.754   0.764
86519W        W54737  11.278  27.098   4.150
86520W        W54738   2.987  44.546   3.047
86521W        W54739  39.559   8.677  14.314
86522W        W54740   0.938  12.967  13.877
86523W        W54741  39.539  36.035  10.979
86524W        W54742   8.689  44.419   2.850
86525W        W54743  32.008  17.259   2.222
86526W        W54744   5.901  43.208  11.968
86527W        W54745   9.934  37.409   1.856
86528W        W54746  44.339  14.261  11.160
86529W        W54747  22.738  13.178   1.315
86530W        W54748   7.670  19.788   3.702
86531W        W54749  29.839  13.313  12.518
86532W        W54750  40.447  23.032   1.324
86533W        W54751   6.256   8.730   1.196
86534W        W54752  39.410  38.830  12.796
86535W        W54753  20.460  29.175  14.331
86536W        W54754  10.020  30.564   2.406
86537W        W54755  23.706   4.100  12.617
86538W        W54756   0.790  38.473   1.154
86539W        W54757  32.815  32.997  13.827
86540W        W54758  39.360  37.387  14.123
86541W        W54759  36.178  19.277  14.023
86542W        W54760  33.824  23.703   2.729
86543W        W54761  26.881  19.934   3.101
86544W        W54762  43.275  32.753   2.370
86545W        W54763  19.486  27.142  10.944
86546W        W54764  20.702  38.580  10.584
86547W        W54765  24.633  16.243  13.634
86548W        W54766  13.148  29.395  11.234
86549W        W54767  43.598  29.946  10.634
86550W        W54768  41.996   9.605   4.267
86551W        W54769  39.168  34.004   4.696
86552W        W54770   5.219  43.847  11.991
86553W        W54771  18.621  18.158   2.439
86554W        W54772   2.999  23.711   1.771
86555W        W54773  28.843  23.215  13.055
86556W        W54774  11.400  23.679   2.642
86557W        W54775  18.329  27.617  10.663
86558W        W54776   1.798   7.749   0.698
86559W        W54777  20.695  38.807  11.977
86560W        W54778  41.878  43.985   2.748
86561W        W54779  30.809  30.001   4.185
86562W        W54780  13.829   1.820  14.003
86563W        W54781   2.836  15.323   0.864
86564W        W54782   7.185  10.448   0.434
86565W        W54783  37.804  35.912  10.454
86566W        W54784   2.491   0.999   1.046
86567W        W54785  33.304  38.812  12.015
86568W        W54786  29.841   1.779  10.446
86569W        W54787  20.534  10.738   4.460
86570W        W54788  33.387  11.400   1.456
86571W        W54789  14.756  21.873   0.215
86572W        W54790   2.714  13.760   0.901
86573W        W54791  41.272  17.013   0.268
86574W        W54792  23.088  40.276   3.205
86575W        W54793  23.067   9.722   4.531
86576W        W54794  34.812  12.971   4.991
86577W        W54795   0.374  13.313  12.924
86578W        W54796  24.127  31.486   2.395
86579W        W54797   5.509  25.695   1.394
86580W        W54798  17.971  26.566  11.141
86581W        W54799   3.226  36.332  13.454
86582W        W54800   2.806  27.176   4.805
86583W        W54801  34.394  23.588  12.027
86584W        W54802  34.532  28.143  13.388
86585W        W54803  12.102  29.396   4.182
86586W        W54804  27.773   7.689   3.469
86587W        W54805  20.686  16.008  13.515
86588W        W54806  39.961  43.777   3.538
86589W        W54807  14.314  22.603   3.649
86590W        W54808  31.467  20.425  12.438
86591W        W54809   7.371  13.862   1.830
86592W        W54810  13.087   5.179   4.945
86593W        W54811  43.818  41.501   4.092
86594W        W54812  41.873  43.573  13.199
86595W        W54813  33.371  21.183   0.239
86596W        W54814  18.755   9.409  14.782
86597W        W54815  29.268  12.716   2.763
86598W        W54816   5.046  25.900   4.996
86599W        W54817  28.895  23.604   5.012
86600W        W54818  29.220  10.793   2.928
86601W        W54819  25.322  17.638   2.036
86602W        W54820  21.061  10.284  12.490
86603W        W54821  25.719  36.627   2.267
86604W        W54822   0.785  28.534  13.486
86605W        W54823  14.112  12.838   0.785
86606W        W54824  40.477  44.292  14.421
86607W        W54825  28.144  25.090   1.669
86608W        W54826  39.792   5.507  12.579
86609W        W54827   7.226  26.970  12.591
86610W        W54828  29.393  23.000  11.410
86611W        W54829  37.050  16.338   1.722
86612W        W54830  12.598  12.130   3.904
86613W        W54831  28.556  26.720   3.663
86614W        W54832   2.736  14.966   4.701
86615W        W54833  43.706  31.819  11.469
86616W        W54834   4.452  13.190  14.611
86617W        W54835  21.636  24.473   2.290
86618W        W54836  32.995  31.638  14.797
86619W        W54837  28.179  11.070  13.890
86620W        W54838  34.662  34.028   3.570
86621W        W54839   3.810   4.499  10.411
86622W        W54840  26.074  17.029   1.352
86623W        W54841  31.605  23.262   0.207
86624W        W54842   9.291  35.331  14.483
86625W        W54843  25.834   7.594  11.038
86626W        W54844   6.164  10.359  10.613
86627W        W54845  18.096  31.610   2.141
86628W        W54846  18.125  29.542   2.684
86629W        W54847   9.710  37.395   2.992
86630W        W54848   2.779  43.572  11.479
86631W        W54849  24.300  22.951   5.551
86632W        W54850  26.663   0.065  12.833
86633W        W54851  35.463  12.114  10.389
86634W        W54852  44.833  12.520   2.479
86635W        W54853  21.593  30.430  12.969
86636W        W54854  41.515   6.730   0.748
86637W        W54855  16.727   4.732  14.757
86638W        W54856  31.894  23.829  13.027
86639W        W54857  41.513  31.770   0.508
86640W        W54858  21.550  33.202   1.145
86641W        W54859  37.732   0.435   5.111
86642W        W54860  34.870  10.701   2.770
86643W        W54861   1.254   7.914  12.366
86644W        W54862  25.705  16.123   0.184
86645W        W54863  42.355  15.795   1.154
86646W        W54864  18.617  26.172  11.971
86647W        W54865  19.688  33.581   4.128
86648W        W54866  15.818  35.306   2.613
86649W        W54867  28.716  29.815  10.714
86650W        W54868  39.327  35.290  10.285
86651W        W54869   3.501  34.135   1.740
86652W        W54870  11.188  21.062  14.867
86653W        W54871   6.251  20.781  12.991
86654W        W54872  37.341   5.343   3.747
86655W        W54873  23.625  22.885   1.419
86656W        W54874   6.215  36.620   1.418
86657W        W54875  41.031   6.458  11.521
86658W        W54876  44.322   5.841  13.054
86659W        W54877  14.803  15.590   3.226
86660W        W54878  29.533  14.464   4.538
86661W        W54879  35.681  42.757   0.833
86662W        W54880  26.462  38.046   3.714
86663W        W54881  30.034  38.982  13.282
86664W        W54882  12.105  27.717  13.482
86665W        W54883   5.947  22.892  13.521
86666W        W54884   5.384  28.452  12.442
86667W        W54885  41.009  18.823  14.291
86668W        W54886  22.076  28.114   1.691
86669W        W54887  32.100  37.777  10.390
86670W        W54888  12.098  15.747   4.077
86671W        W54889  41.533  32.474   2.131
86672W        W54890  16.416   3.368   4.100
86673W        W54891  34.073   7.063  10.749
86674W        W54892   7.308   2.868   2.404
86675W        W54893  19.604  29.461  11.568
86676W        W54894   7.435   3.884   1.694
86677W        W54895   2.954  22.730   3.849
86678W        W54896  37.050  25.663   1.435
86679W        W54897  36.277   5.926  13.367
86680W        W54898  22.266  19.393   1.840
86681W        W54899  44.353  44.763  13.180
86682W        W54900  35.976  37.597  13.395
86683W        W54901  24.930  18.697  12.119
86684W        W54902   1.281  29.654   3.231
86685W        W54903  16.055  12.967  13.756
86686W        W54904  10.881  14.508  13.855
86687W        W54905  13.836  17.752   1.666
86688W        W54906  13.232  23.989   2.533
86689W        W54907  37.031  27.694  10.632
86690W        W54908  10.683  12.551  11.471
86691W        W54909  29.533  30.408  14.362
86692W        W54910  29.686  44.757   3.722
86693W        W54911  24.137   4.166  11.924
86694W        W54912  12.410  41.357   3.359
86695W        W54913   3.978  43.826   0.356
86696W        W54914  35.870  18.778   0.005
86697W        W54915   8.000  13.243   4.254
86698W        W54916  21.292  32.155  11.117
86699W        W54917  12.561  25.789   3.668
86700W        W54918   0.448  26.163   2.889
86701W        W54919  29.892  28.714   4.132
86702W        W54920  10.233   5.411  10.869
86703W        W54921   6.268  27.504  10.238
86704W        W54922  18.356  44.615   9.797
86705W        W54923   5.749   7.893   0.947
86706W        W54924  32.937  43.521  10.747
86707W        W54925  14.558  38.266  12.974
86708W        W54926  31.888  26.619   3.144
86709W        W54927  38.070  13.047  14.504
86710W        W54928  12.595  41.908   0.427
86711W        W54929  38.060   5.213  13.417
86712W        W54930  10.403  12.250   1.271
86713W        W54931  16.690  19.350   0.955
86714W        W54932  12.242  24.043   3.904
86715W        W54933  44.243   8.402   4.204
86716W        W54934  25.592   3.178   2.941
86717W        W54935   6.387  30.926  14.863
86718W        W54936  10.582   3.737   3.777
86719W        W54937  18.305  12.166  12.531
86720W        W54938  19.230   9.164   3.527
86721W        W54939  27.455  26.888  11.229
86722W        W54940  36.970  36.608   0.384
86723W        W54941  43.083  43.972  11.185
86724W        W54942   2.514  44.861  13.489
86725W        W54943   9.154  39.341  12.665
86726W        W54944  26.156  28.605   4.061
86727W        W54945  38.563  19.232  11.182
86728W        W54946  22.657  42.999   2.919
86729W        W54947   7.194  28.151   2.377
86730W        W54948   9.470  22.626   0.338
86731W        W54949  30.543   1.626   4.595
86732W        W54950  40.688  27.921   1.242
86733W        W54951  14.425  36.109  11.030
86734W        W54952  11.115  28.596  12.022
86735W        W54953   2.559  39.499  13.996
86736W        W54954  20.226  10.676  11.593
86737W        W54955  28.426  16.331  11.974
86738W        W54956  21.583  31.795   4.181
86739W        W54957   0.012  12.149   1.804
86740W        W54958  28.150   1.170   2.365
86741W        W54959  32.119  26.525   3.591
86742W        W54960  27.135  13.557  13.896
86743W        W54961  17.271  11.651   2.266
86744W        W54962   4.245  10.272  13.539
86745W        W54963  35.667  23.271   3.634
86746W        W54964  26.732  26.134   3.633
86747W        W54965  44.995  42.396   4.118
86748W        W54966  23.744  17.209   2.113
86749W        W54967  22.746  27.172  13.638
86750W        W54968  35.977  23.407   0.272
86751W        W54969  15.802  12.437   0.390
86752W        W54970  41.943  21.620   2.892
86753W        W54971  39.367   9.395   4.770
86754W        W54972  14.611  12.117  14.056
86755W        W54973  38.616  12.872  11.162
86756W        W54974  44.124  26.886  11.647
86757W        W54975  42.219  38.303   0.353
86758W        W54976  13.560  19.624  12.509
86759W        W54977   4.831  19.372  13.241
86760W        W54978   5.917   2.754  14.986
86761W        W54979   9.485  20.612  11.666
86762W        W54980  36.543  27.463  10.539
86763W        W54981  30.922  28.916  12.325
86764W        W54982  42.523   2.274   3.676
86765W        W54983  22.613  36.159  12.577
86766W        W54984  18.354  17.664   4.429
86767W        W54985  37.611   7.170   0.428
86768W        W54986  32.387   9.800   2.718
86769W        W54987   0.317  23.999   1.797
86770W        W54988  17.554  24.696   1.696
86771W        W54989  16.873  28.347  10.678
86772W        W54990   9.729  18.963  11.160
86773W        W54991  17.818  11.158  12.551
86774W        W54992  10.894  33.064  13.566
86775W        W54993  38.301  14.631  10.358
86776W        W54994  39.817  17.712  12.476
86777W        W54995  24.890  37.562  12.148
86778W        W54996   5.743  22.674   3.105
86779W        W54997   1.540  39.644  12.484
86780W        W54998  13.881  33.912  13.052
86781W        W54999  22.697   0.441  10.970
86782W        W55000   9.437  29.247   1.494
86783W        W55001  10.319  39.799  11.612
86784W        W55002   4.302  34.005   3.810
86785W        W55003  26.033  15.683  14.968
86786W        W55004  15.793  32.884   2.850
86787W        W55005  15.219  31.141  10.520
86788W        W55006  19.955  13.698   0.404
86789W        W55007   5.400   1.725  12.504
86790W        W55008  39.437  19.623  13.045
86791W        W55009  15.854  23.700   3.682
86792W        W55010   2.938  15.256  13.289
86793W        W55011  37.537  21.472  12.640
86794W        W55012  43.120   5.388   0.519
86795W        W55013  34.531  18.078  12.191
86796W        W55014   3.018  28.238  14.284
86797W        W55015  23.062  13.828   0.315
86798W        W55016  39.370  29.264   2.911
86799W        W55017  11.852  40.335   3.340
86800W        W55018  24.518  33.835   1.240
86801W        W55019  32.925   4.849  14.805
86802W        W55020   4.689  19.094  12.326
86803W        W55021  32.896  35.217   3.234
86804W        W55022   2.331  42.227   2.654
86805W        W55023  15.471   5.329  12.055
86806W        W55024  12.873   2.513  12.548
86807W        W55025   8.649  15.758   2.388
86808W        W55026  10.853  27.427   4.871
86809W        W55027   9.659  39.977   1.754
86810W        W55028  17.623  15.194  14.902
86811W        W55029  35.813  38.008  12.999
86812W        W55030  24.611   6.644   3.810
86813W        W55031  40.934   0.311   1.471
86814W        W55032  35.020   8.421   3.365
86815W        W55033  38.477   7.789   3.813
86816W        W55034  40.329  16.002   1.390
86817W        W55035  36.572  22.558  12.267
86818W        W55036  41.390  43.800  12.927
86819W        W55037  28.259   6.261   4.040
86820W        W55038  10.643  22.032   3.795
86821W        W55039   5.058  40.514   3.345
86822W        W55040   9.625   2.390  14.950
86823W        W55041  26.918  39.833   5.077
86824W        W55042  35.839  17.064  12.469
86825W        W55043  41.357  20.797   2.119
86826W        W55044   3.845  44.149  10.756
86827W        W55045  41.574  13.746  13.036
86828W        W55046   1.708  16.090  12.441
86829W        W55047  10.841  37.872   2.335
86830W        W55048  29.398  32.399  14.297
86831W        W55049  32.162  33.384  11.615
86832W        W55050  42.943  37.095   2.486
86833W        W55051  10.250  41.834  10.755
86834W        W55052  29.536   5.172  13.806
86835W        W55053  32.617   0.969   4.401
86836W        W55054  34.337  10.817   2.706
86837W        W55055  39.006  22.564  12.939
86838W        W55056  25.613   1.869   1.716
86839W        W55057  28.100  17.702  13.949
86840W        W55058  20.453  36.005  11.149
86841W        W55059  31.919  31.010   1.228
86842W        W55060  13.809  20.720  14.834
86843W        W55061   1.329   2.529   3.623
86844W        W55062  38.569  32.824   0.816
86845W        W55063  29.919   7.250   0.946
86846W        W55064  38.253  35.527  11.266
86847W        W55065   3.727  14.561   1.894
86848W        W55066   6.305   2.591  13.781
86849W        W55067  34.913  24.259   4.551
86850W        W55068  24.577  11.837  14.829
86851W        W55069  21.656  39.728   2.352
86852W        W55070  32.844  43.379   2.310
86853W        W55071  25.767  14.172  12.587
86854W        W55072  23.464  41.077  13.892
86855W        W55073   6.545  36.964   0.454
86856W        W55074  39.224  17.898   2.763
86857W        W55075   2.202  10.841   1.922
86858W        W55076  41.581   2.778   3.748
86859W        W55077  24.820   3.651   4.101
86860W        W55078  21.752   9.589   4.851
86861W        W55079   1.856  43.946  11.014
86862W        W55080   9.629  34.411   0.690
86863W        W55081  18.157  23.678   4.171
86864W        W55082  26.499  40.815  14.934
86865W        W55083   9.367   4.400   2.211
86866W        W55084  33.001  35.908  12.057
86867W        W55085  14.221  36.363  12.336
86868W        W55086  31.964  15.855   4.488
86869W        W55087  35.070  22.698   0.858
86870W        W55088  33.375  27.073  10.820
86871W        W55089  22.725   0.455   0.440
86872W        W55090   2.316  40.072   3.129
86873W        W55091  28.063   1.479   2.790
86874W        W55092   5.220  21.709   2.350
86875W        W55093  35.371   7.752  11.640
86876W        W55094   9.293   6.539  11.938
86877W        W55095  21.916  19.289  12.781
86878W        W55096  12.226  27.448   3.278
86879W        W55097  28.644  28.548   0.856
86880W        W55098  19.670  12.942   2.858
86881W        W55099  33.479  12.147  12.143
86882W        W55100   9.254   3.273   4.622
86883W        W55101  30.132  17.009   4.758
86884W        W55102   5.967  16.829  11.175
86885W        W55103  33.790  27.652  10.255
86886W        W55104  43.910  37.490  12.662
86887W        W55105  37.333  11.890  13.340
86888W        W55106   5.264  35.091  11.587
86889W        W55107  42.305  20.070   0.240
86890W        W55108  33.966  30.477  12.479
86891W        W55109  37.052  36.701   1.321
86892W        W55110   2.897  37.486  11.663
86893W        W55111  19.321  12.432   4.442
86894W        W55112  14.379  30.192  14.954
86895W        W55113  30.669   7.736   0.949
86896W        W55114  14.896  18.064   2.299
86897W        W55115  35.112  30.553   2.754
86898W        W55116  31.834  20.420  14.272
86899W        W55117   9.226  39.631  14.390
86900W        W55118  26.579   2.765  13.977
86901W        W55119   6.549  18.925  11.908
86902W        W55120   2.138   8.426  13.669
86903W        W55121   6.207  19.758   4.618
86904W        W55122   1.101  35.704  12.529
86905W        W55123  33.139  25.924  10.540
86906W        W55124   4.403  15.618   1.454
86907W        W55125  30.596  24.930   0.285
86908W        W55126   2.727  37.344  12.671
86909W        W55127  41.713  36.816   0.331
86910W        W55128  32.206  12.244  14.325
86911W        W55129  31.247  20.541   1.192
86912W        W55130  23.651  34.783   2.363
86913W        W55131  10.668  18.057   0.764
86914W        W55132   1.854  21.752   4.567
86915W        W55133  30.700  28.110   3.166
86916W        W55134  44.720  15.832   0.771
86917W        W55135  14.162  27.503  12.326
86918W        W55136   0.832   2.375   3.606
86919W        W55137   2.741  29.972   0.542
86920W        W55138   8.987  12.651  13.388
86921W        W55139  12.819   4.359   3.554
86922W        W55140  28.592  28.224  13.235
86923W        W55141  17.213   1.473  10.706
86924W        W55142  11.376  32.693  11.439
86925W        W55143  36.755  29.512   4.157
86926W        W55144  10.196  16.113  12.943
86927W        W55145  36.594  16.252   2.881
86928W        W55146  28.027  35.450   0.201
86929W        W55147  12.648  41.421  13.965
86930W        W55148   8.671  15.554  13.961
86931W        W55149   2.921  28.911  11.871
86932W        W55150  35.106  30.079  10.965
86933W        W55151   9.091  17.626   2.749
86934W        W55152  28.578  27.107   0.417
86935W        W55153  21.734  25.962  14.583
86936W        W55154  32.910  24.256  14.915
86937W        W55155  40.589  20.918  14.248
86938W        W55156   5.365  31.199   2.335
86939W        W55157   8.283   1.531   3.017
86940W        W55158   1.758  11.270  11.482
86941W        W55159  16.042  13.976  13.120
86942W        W55160  36.937  11.392   4.806
86943W        W55161  44.054  24.467   1.916
86944W        W55162  28.617  24.268  12.513
86945W        W55163  35.356   9.208  14.898
86946W        W55164  39.134  22.529  11.665
86947W        W55165  18.211  43.845  13.506
86948W        W55166   2.401   1.743   5.171
86949W        W55167  43.101  12.164  12.998
86950W        W55168  43.024  15.207  13.907
86951W        W55169  26.985  24.428  13.115
86952W        W55170   2.588  15.116   3.748
86953W        W55171  16.395   6.929  13.976
86954W        W55172  17.787  44.804  13.704
86955W        W55173  33.654  44.387   4.839
86956W        W55174  42.039  23.515   0.226
86957W        W55175  37.311   9.919   0.075
86958W        W55176   5.228  35.063  11.020
86959W        W55177   0.348  30.323  12.423
86960W        W55178   2.332  32.186   1.941
86961W        W55179  13.232  11.303   1.982
86962W        W55180   7.176  27.283   2.367
86963W        W55181  22.661  38.910   4.572
86964W        W55182  34.035  13.248   4.578
86965W        W55183   0.878  39.441   3.831
86966W        W55184   1.903  11.116  14.239
86967W        W55185  36.607  33.444   0.137
86968W        W55186  18.999  13.371   9.941
86969W        W55187  44.638  22.965   1.496
86970W        W55188   0.388   0.433  11.901
86971W        W55189  41.358   4.846  11.747
86972W        W55190   9.339  31.243  14.772
86973W        W55191  25.178  38.564   0.474
86974W        W55192  40.496   2.039  10.410
86975W        W55193  33.621  31.126   5.020
86976W        W55194   2.222  34.380   2.151
86977W        W55195  32.871   8.428  12.072
86978W        W55196  39.626  28.590   0.680
86979W        W55197  40.015  30.222   3.358
86980W        W55198   0.411  11.644   4.188
86981W        W55199  23.252  17.276  14.940
86982W        W55200  10.385  34.096  12.119
86983W        W55201  15.744  11.892   4.538
86984W        W55202  19.295  24.474   3.725
86985W        W55203  42.346  11.649  11.068
86986W        W55204   4.896  19.502  13.781
86987W        W55205  25.172  41.175   1.877
86988W        W55206  21.473  28.615  10.714
86989W        W55207  10.240  27.691  10.767
86990W        W55208  44.739  24.655   0.544
86991W        W55209  29.596  27.230  13.514
86992W        W55210  35.502  21.706   0.915
86993W        W55211  33.031  13.080  10.958
86994W        W55212  37.444  13.105  10.731
86995W        W55213   1.910  29.940   1.795
86996W        W55214   3.819  22.452  12.964
86997W        W55215  21.835  37.405   3.327
86998W        W55216   0.819   4.333   4.759
86999W        W55217  18.031  38.342  14.983
87000W        W55218   9.637  19.587  12.599
87001W        W55219  32.226   0.480   1.693
87002W        W55220   7.233  42.230  13.822
87003W        W55221   5.204  35.914   3.198
87004W        W55222  26.065   2.995   3.728
87005W        W55223  38.813  38.888   0.354
87006W        W55224   4.338   4.045   2.231
87007W        W55225  23.506  18.191   2.695
87008W        W55226  33.101   9.333  12.995
87009W        W55227  10.133   4.854   0.423
87010W        W55228  14.316   3.986  11.106
87011W        W55229  21.935  23.729  13.048
87012W        W55230  33.074  42.365   2.218
87013W        W55231   1.510  26.820  12.562
87014W        W55232  18.180  43.781  12.457
87015W        W55233  34.381   4.712  13.934
87016W        W55234   3.123  41.042  12.966
87017W        W55235  28.123  32.551  14.835
87018W        W55236  23.936   4.931   3.208
87019W        W55237  31.007  13.908  12.402
87020W        W55238  26.086   7.899  12.628
87021W        W55239  11.738  41.367  10.909
87022W        W55240   1.340  16.338  13.367
87023W        W55241  28.462   4.937  13.119
87024W        W55242   2.330  43.372  10.804
87025W        W55243  38.351  38.280   2.823
87026W        W55244   0.348  14.085   3.148
87027W        W55245  20.742   9.383  14.921
87028W        W55246  39.904  31.985  12.614
87029W        W55247  21.429  12.839   3.655
87030W        W55248   2.813  24.144  14.388
87031W        W55249  14.350   1.255   0.516
87032W        W55250   4.722   7.745   3.840
87033W        W55251   2.002  10.607   4.208
87034W        W55252  17.631  38.083  14.340
87035W        W55253  19.597   7.397   3.242
87036W        W55254  36.861  17.850   2.253
87037W        W55255  25.606  27.887  12.426
87038W        W55256  14.326  16.822   0.456
87039W        W55257  25.917   3.217  14.415
87040W        W55258  26.482   4.923   0.905
87041W        W55259  14.576   3.831  13.714
87042W        W55260   1.640   5.882  12.838
87043W        W55261   6.923  34.908   0.153
87044W        W55262  20.528  24.655   1.303
87045W        W55263  15.879  13.720   0.246
87046W        W55264  15.617  44.824   3.678
87047W        W55265  44.666  41.213   2.524
87048W        W55266  44.335   4.215   2.738
87049W        W55267  20.518  29.621   4.146
87050W        W55268  43.999  42.942  11.005
87051W        W55269  27.139  34.001  12.963
87052W        W55270  26.704  25.238  10.682
87053W        W55271   0.371  36.936  10.728
87054W        W55272  43.278  20.638  10.577
87055W        W55273  33.791  25.484   3.671
87056W        W55274  37.512  30.480   3.663
87057W        W55275   6.867  24.257   0.877
87058W        W55276   6.649  18.318   0.773
87059W        W55277   6.188  42.888  14.033
87060W        W55278  11.046  32.333   2.907
87061W        W55279  11.204   1.395  12.593
87062W        W55280   3.163  26.504   4.186
87063W        W55281  12.265  30.489   4.256
87064W        W55282  16.351  15.999  14.849
87065W        W55283  13.550   8.179   3.915
87066W        W55284  41.531   3.877   4.928
87067W        W55285  36.816  17.338  10.750
87068W        W55286  24.876  17.379   2.927
87069W        W55287  13.620  38.955  10.313
87070W        W55288   8.845  14.776   5.376
87071W        W55289  25.399  17.279   2.834
87072W        W55290  41.018   7.364   3.607
87073W        W55291   5.806  20.044  11.926
87074W        W55292  13.889  18.218  13.973
87075W        W55293  21.561  33.409  14.265
87076W        W55294  26.665  32.754  11.963
87077W        W55295  23.265  17.132   4.604
87078W        W55296  30.551  25.041   1.846
87079W        W55297  33.600   0.217  14.897
87080W        W55298   7.428  15.108  12.719
87081W        W55299  12.552  17.052   3.224
87082W        W55300  10.209   4.501  10.679
87083W        W55301   5.369  40.926   0.417
87084W        W55302  21.432  36.030   4.974
87085W        W55303   3.733  32.336  12.605
87086W        W55304   1.464  36.001  12.325
87087W        W55305  15.569  27.547  14.390
87088W        W55306  27.055  22.256   0.215
87089W        W55307   0.256  10.646   4.577
87090W        W55308   7.851  21.117  10.442
87091W        W55309  27.477  16.799  13.895
87092W        W55310   3.004  10.385  10.339
87093W        W55311  11.584   7.403   0.849
87094W        W55312  22.084  17.056  13.017
87095W        W55313   2.483  36.036   3.555
87096W        W55314  24.913  15.253   0.302
87097W        W55315  10.785  13.075  12.475
87098W        W55316  26.237   9.864   2.575
87099W        W55317  31.183   6.384  12.400
87100W        W55318  15.706  43.876   2.804
87101W        W55319  13.131  19.039  11.339
87102W        W55320  18.983  32.530  12.399
87103W        W55321  17.350  35.186   0.423
87104W        W55322  33.197  43.605   2.815
87105W        W55323  22.622  16.390   4.158
87106W        W55324  29.042  35.102   3.385
87107W        W55325  12.115  28.412   0.258
87108W        W55326  15.542  22.719  14.463
87109W        W55327  12.624  17.282   2.771
87110W        W55328  13.827  18.337  14.832
87111W        W55329  44.212  41.018   3.298
87112W        W55330  11.844  29.825   3.943
87113W        W55331  19.775  32.920  14.983
87114W        W55332  40.285  32.501  10.568
87115W        W55333  32.499  21.236  12.957
87116W        W55334  26.090  12.678   3.678
87117W        W55335  44.960   2.032  11.650
87118W        W55336  38.975   0.495  10.800
87119W        W55337   5.726   6.172   1.177
87120W        W55338  19.182  44.970  11.606
87121W        W55339  11.846  12.253   5.048
87122W        W55340  43.865   5.797   4.663
87123W        W55341   7.366  11.395   1.510
87124W        W55342   8.311  14.012   3.810
87125W        W55343   1.825  20.529  13.280
87126W        W55344  35.749   4.993   5.143
87127W        W55345  34.566  21.271   3.673
87128W        W55346  18.631  30.396  11.657
87129W        W55347  37.764   7.892  14.894
87130W        W55348  20.503   2.051   4.865
87131W        W55349  27.986  25.668  11.799
87132W        W55350  22.719  44.246  10.789
87133W        W55351  25.425   6.363   3.947
87134W        W55352  28.934  14.363   3.703
87135W        W55353   5.400  24.645   3.451
87136W        W55354  10.714   9.682   2.387
87137W        W55355  29.608  37.708   0.638
87138W        W55356   1.308  21.272   2.325
87139W        W55357   5.036  20.184   0.338
87140W        W55358   8.792  14.304   1.176
87141W        W55359  21.645  31.558  13.403
87142W        W55360  42.304  15.118  11.655
87143W        W55361   6.661  41.042   1.761
87144W        W55362  17.303  37.001   4.917
87145W        W55363  21.986  22.233  12.692
87146W        W55364  27.627  37.102  12.132
87147W        W55365  26.913  42.576   2.983
87148W        W55366  33.376  15.726   1.858
87149W        W55367  40.476  20.442   1.117
87150W        W55368  43.210  21.034   4.866
87151W        W55369  36.634  11.182  11.996
87152W        W55370   2.789   2.970   1.979
87153W        W55371   2.351  25.381   1.286
87154W        W55372  29.373  30.540  13.870
87155W        W55373  43.943  23.732   3.736
87156W        W55374  32.486   7.277  10.728
87157W        W55375  29.422  29.603  14.914
87158W        W55376  42.798  22.469   2.648
87159W        W55377  13.195  43.537  11.846
87160W        W55378  18.626  15.536   0.390
87161W        W55379  33.414  26.479  14.866
87162W        W55380  30.696   6.731   1.347
87163W        W55381   8.893  34.014  11.379
87164W        W55382   1.988  35.741   4.248
87165W        W55383  16.058  29.438  11.818
87166W        W55384  42.964  40.249   2.221
87167W        W55385  28.930  32.488  14.474
87168W        W55386  40.983   3.325   9.821
87169W        W55387   4.462  21.549  12.476
87170W        W55388   5.974  17.151  10.543
87171W        W55389  38.676  10.385  11.259
87172W        W55390  13.583   0.692   4.460
87173W        W55391  38.220   6.496  11.068
87174W        W55392  13.823  39.526   2.020
87175W        W55393  37.647  26.471  11.590
87176W        W55394  28.925  34.422   0.680
87177W        W55395  11.723  26.143   4.303
87178W        W55396  26.929  21.501   1.207
87179W        W55397   0.059  44.803   4.202
87180W        W55398  25.169  24.868   4.842
87181W        W55399   8.371  42.421  14.426
87182W        W55400  43.834  21.490   0.410
87183W        W55401  34.071   8.820  13.378
87184W        W55402  36.421  15.548   3.218
87185W        W55403  15.807  36.042  14.595
87186W        W55404  26.005  36.274   0.770
87187W        W55405  38.556  35.988  14.123
87188W        W55406  35.634   9.458   4.679
87189W        W55407  16.729  41.686  11.342
87190W        W55408  19.196  27.009  12.982
87191W        W55409  41.661  21.727   2.246
87192W        W55410  29.336   7.252  12.033
87193W        W55411  22.871  35.995  12.996
87194W        W55412  24.724  17.572  13.547
87195W        W55413  22.534  26.607   4.229
87196W        W55414  24.802   4.299   1.270
87197W        W55415  21.805   0.910   0.377
87198W        W55416   0.341   4.337  14.659
87199W        W55417  38.497  36.422  11.197
87200W        W55418  34.300  26.203   4.113
87201W        W55419  13.423  19.207   5.001
87202W        W55420  24.464  31.543   3.658
87203W        W55421   8.173  39.591   1.316
87204W        W55422  42.560  29.882  14.327
87205W        W55423  26.552   7.354   3.293
87206W        W55424  24.056  30.685  11.664
87207W        W55425  21.199  40.200   3.003
87208W        W55426  41.015  29.085  12.072
87209W        W55427  15.837  22.641  14.049
87210W        W55428  25.910  16.889  12.825
87211W        W55429  37.613  42.449  13.254
87212W        W55430  18.136  30.179   3.733
87213W        W55431  28.435  33.974  10.651
87214W        W55432  43.277   8.817   0.484
87215W        W55433  24.909  34.668  14.840
87216W        W55434  43.777  38.318   0.209
87217W        W55435   9.649  26.359  13.587
87218W        W55436   2.789  18.707   4.852
87219W        W55437  15.680  25.420   4.482
87220W        W55438  35.446   4.620  12.982
87221W        W55439  31.956   0.433   3.141
87222W        W55440  13.812   8.309   1.767
87223W        W55441  21.818  37.442  14.490
87224W        W55442  44.368  23.481   3.615
87225W        W55443  35.525  36.954   3.628
87226W        W55444  30.468   0.433  12.096
87227W        W55445  37.355  30.479  13.845
87228W        W55446  14.017  15.488  14.385
87229W        W55447  12.210  42.522  12.129
87230W        W55448  32.490  28.730   4.992
87231W        W55449  34.744  20.912  13.862
87232W        W55450  12.188  21.477   1.648
87233W        W55451  40.994  41.048   1.840
87234W        W55452  34.030   2.965   3.779
87235W        W55453  23.076  19.486   4.724
87236W        W55454   2.325   8.424  10.494
87237W        W55455  24.006  41.621   5.143
87238W        W55456  39.960   6.230   1.804
87239W        W55457   5.382  10.935  12.878
87240W        W55458  15.716   2.314  12.366
87241W        W55459  39.985  15.637   0.217
87242W        W55460   3.091  27.977   4.240
87243W        W55461  31.069  37.512   0.636
87244W        W55462   9.039  14.211  13.825
87245W        W55463  34.035  15.471   3.304
87246W        W55464  38.200  36.727  14.797
87247W        W55465  44.263  12.638  10.627
87248W        W55466  42.267   1.240   3.978
87249W        W55467  36.288  17.603  11.618
87250W        W55468   6.982  23.629   2.651
87251W        W55469   7.882  21.819  14.341
87252W        W55470  40.793  14.558  12.047
87253W        W55471  24.226   2.950   1.739
87254W        W55472   4.300  41.928   0.279
87255W        W55473  10.946  43.279  13.367
87256W        W55474  34.783  18.616   0.209
87257W        W55475  40.957  10.545   2.672
87258W        W55476   8.281  24.373  12.321
87259W        W55477  26.481  28.040  14.972
87260W        W55478  11.220  44.801  11.364
87261W        W55479  10.959  29.387   2.502
87262W        W55480  21.536  43.519   1.418
87263W        W55481  38.686  40.878  13.730
87264W        W55482  18.510  24.309   2.392
87265W        W55483  10.044  32.978   2.749
87266W        W55484  37.381  37.967   2.885
87267W        W55485   1.738   4.846  11.299
87268W        W55486  42.394  31.700   0.712
87269W        W55487  24.480   5.675  13.843
87270W        W55488  20.531  19.392  14.381
87271W        W55489   3.957  25.825  13.539
87272W        W55490  25.942   0.307  14.786
87273W        W55491  17.548   0.584   9.880
87274W        W55492   9.092   4.122  14.384
87275W        W55493  35.365  38.818  10.567
87276W        W55494   9.793  18.512   1.197
87277W        W55495   4.035  15.243  14.351
87278W        W55496  43.848   2.386  13.432
87279W        W55497  19.108  18.178   0.778
87280W        W55498  20.248  44.912  11.606
87281W        W55499  27.888   3.684  11.083
87282W        W55500  23.208  22.751   4.053
87283W        W55501  20.263   6.901  11.522
87284W        W55502  28.014  15.740   2.150
87285W        W55503  17.550  26.974   1.734
87286W        W55504  24.524  11.146  12.039
87287W        W55505  13.557   1.682  13.113
87288W        W55506  43.818  43.686  13.530
87289W        W55507   0.655  39.829  13.501
87290W        W55508   3.414   8.652  14.854
87291W        W55509  29.580  36.923   3.255
87292W        W55510  39.481  15.282  11.958
87293W        W55511  17.221  13.957   3.624
87294W        W55512  12.689  23.291  11.963
87295W        W55513  14.654  44.326   4.033
87296W        W55514  18.259  25.059   9.882
87297W        W55515  29.112  40.477   1.477
87298W        W55516  23.609   0.942   4.298
87299W        W55517  42.019  22.086   3.701
87300W        W55518   6.973  17.102   1.363
87301W        W55519  40.403  11.326   3.176
87302W        W55520  29.602  27.452  13.004
87303W        W55521   9.986  11.460   4.826
87304W        W55522  23.092  37.582  11.647
87305W        W55523  10.387  27.756  13.963
87306W        W55524  20.065  39.889  11.488
87307W        W55525   2.994  33.278  12.550
87308W        W55526  43.258  18.790   3.640
87309W        W55527   2.914  44.481  14.846
87310W        W55528   9.965  20.862  11.661
87311W        W55529   6.678  34.124  11.562
87312W        W55530   6.989   0.876   1.263
87313W        W55531  16.245  44.392   1.942
87314W        W55532  33.878  10.607  11.393
87315W        W55533  32.430   6.489   2.476
87316W        W55534  24.165   6.196   2.663
87317W        W55535  13.218  13.246   1.738
87318W        W55536  24.028  25.483  14.389
87319W        W55537  16.776  35.924   0.203
87320W        W55538  41.547   8.679   3.731
87321W        W55539  14.678  32.968   0.785
87322W        W55540   0.923   7.083   3.293
87323W        W55541  37.175  28.957   4.542
87324W        W55542  10.914  41.010   0.497
87325W        W55543  26.269  42.932   2.486
87326W        W55544   3.819  31.672   1.373
87327W        W55545  35.935   7.871  13.458
87328W        W55546   0.825  22.682   4.633
87329W        W55547  37.425  32.344   1.842
87330W        W55548  13.346   3.856  12.459
87331W        W55549  23.060  20.953  12.850
87332W        W55550   2.858   1.226  13.599
87333W        W55551  37.645  24.572  14.524
87334W        W55552  19.536   9.305  14.477
87335W        W55553  18.340   4.190  13.126
87336W        W55554  20.274  20.802   2.310
87337W        W55555  41.239  23.493  13.865
87338W        W55556   0.854   0.706  12.436
87339W        W55557  18.068   1.154   0.938
87340W        W55558  10.653   6.366   1.863
87341W        W55559  15.134  37.242   3.749
87342W        W55560   5.688  23.194   2.844
87343W        W55561  31.871   3.406  13.462
87344W        W55562  39.053   3.681   3.948
87345W        W55563  25.952   0.637  12.552
87346W        W55564   2.715  34.405   4.726
87347W        W55565   7.888  21.631   0.299
87348W        W55566  28.994  24.281   2.466
87349W        W55567  10.154  19.243  11.093
87350W        W55568  39.876  26.750  13.997
87351W        W55569  32.916   9.125   0.966
87352W        W55570  41.897  19.696  12.073
87353W        W55571  35.637  11.281  13.828
87354W        W55572  32.679  19.121   1.410
87355W        W55573  21.057  28.554   4.463
87356W        W55574  24.734   1.843  10.733
87357W        W55575  28.571  22.617   2.762
87358W        W55576   3.204   4.536  12.496
87359W        W55577   4.462  17.658  11.956
87360W        W55578  21.082   3.775  12.079
87361W        W55579   2.436  23.603   2.921
87362W        W55580  15.358  36.142  12.349
87363W        W55581  39.098  40.332  14.344
87364W        W55582   0.493   9.688   4.194
87365W        W55583  36.142  35.507   4.053
87366W        W55584  32.330   6.658   3.972
87367W        W55585  10.445  44.417   5.058
87368W        W55586   3.958   0.156   4.134
87369W        W55587  18.545  37.587  12.438
87370W        W55588  22.160  32.707   1.794
87371W        W55589   5.255  23.844   4.353
87372W        W55590  18.751   4.469  11.127
87373W        W55591   2.795  29.410   2.377
87374W        W55592  19.202   2.788   0.911
87375W        W55593  41.811  20.722   4.356
87376W        W55594  34.535   8.821  13.122
87377W        W55595   4.160  21.494   4.511
87378W        W55596  40.387  31.625   1.339
87379W        W55597  33.011  14.471  10.727
87380W        W55598  39.017  17.138   3.243
87381W        W55599  15.960  31.281  11.108
87382W        W55600  29.664  17.612   4.092
87383W        W55601  28.878   8.661  13.839
87384W        W55602  44.024  35.182  14.343
87385W        W55603   8.666  21.213   3.303
87386W        W55604  26.534  35.524   4.319
87387W        W55605  37.573   1.703   4.116
87388W        W55606  26.325  36.520  12.973
87389W        W55607   9.726  43.553  12.895
87390W        W55608  43.398  31.167  11.246
87391W        W55609  18.136  22.189   0.437
87392W        W55610   8.799  37.390  12.509
87393W        W55611  36.513  33.926  11.441
87394W        W55612  26.396   9.427  11.012
87395W        W55613  38.274  27.919   1.671
87396W        W55614  15.510  17.734   0.386
87397W        W55615  27.906  42.875   0.952
87398W        W55616  43.966  20.741   2.331
87399W        W55617   2.106  14.367  11.982
87400W        W55618  26.687  43.064   1.203
87401W        W55619  43.254  40.090   0.211
87402W        W55620  39.066  39.646  11.406
87403W        W55621   3.365  30.009   1.840
87404W        W55622  24.485  24.002   3.668
87405W        W55623  19.583   8.433   4.073
87406W        W55624  35.416   0.382   1.749
87407W        W55625  11.885  34.156   3.213
87408W        W55626  10.101  42.012  13.449
87409W        W55627  22.093  10.756  10.735
87410W        W55628  12.366   8.097   2.720
87411W        W55629  31.838  28.514  13.514
87412W        W55630  35.594  23.214  13.760
87413W        W55631   1.537   9.476  13.931
87414W        W55632   7.632  10.715  12.046
87415W        W55633  38.409  13.329  11.170
87416W        W55634  12.880   7.108  14.845
87417W        W55635  22.965  10.782   3.183
87418W        W55636  33.313  24.015  10.563
87419W        W55637  13.595  34.168  11.540
87420W        W55638  26.090  20.478   2.721
87421W        W55639  31.025   4.863  13.754
87422W        W55640  41.557  34.468   3.198
87423W        W55641  20.702   9.600  11.941
87424W        W55642  28.202  42.823   0.503
87425W        W55643  32.579  31.201  13.804
87426W        W55644  28.994  33.350  12.575
87427W        W55645   5.314  14.879   1.652
87428W        W55646  18.070  19.711   4.690
87429W        W55647  38.381   6.958  10.873
87430W        W55648  27.635  44.491   1.196
87431W        W55649  32.342   3.228  11.335
87432W        W55650  37.144  43.334   1.284
87433W        W55651  38.554  21.306  13.530
87434W        W55652  22.987   2.933   0.565
87435W        W55653  43.518  11.213  14.011
87436W        W55654   3.548  12.321   4.149
87437W        W55655  17.939  20.812   0.428
87438W        W55656  20.183  28.203  12.950
87439W        W55657  14.315  26.649  14.936
87440W        W55658  40.355  40.992  12.890
87441W        W55659   6.538  29.452  12.097
87442W        W55660  44.261  40.541   0.952
87443W        W55661   0.491   7.857   2.349
87444W        W55662  19.547   8.449   0.825
87445W        W55663  11.384  43.967   4.194
87446W        W55664  28.926   2.026   1.402
87447W        W55665   7.579  41.369   0.479
87448W        W55666  17.223  13.130  14.271
87449W        W55667  25.998   2.589  14.744
87450W        W55668  30.674  34.513  14.017
87451W        W55669  42.770   4.869   4.161
87452W        W55670  42.518  39.415   3.613
87453W        W55671  16.947   4.732   3.287
87454W        W55672  16.035  22.675   0.845
87455W        W55673  29.348  38.815  13.025
87456W        W55674  17.766   3.353   4.605
87457W        W55675  31.970  17.715  10.685
87458W        W55676  30.595  42.189  12.024
87459W        W55677  33.523  10.173   4.210
87460W        W55678  30.408  42.986  13.505
87461W        W55679  34.891  43.732   1.875
87462W        W55680  16.141  13.674  12.058
87463W        W55681   4.419  38.825  11.081
87464W        W55682  30.566  20.285   1.397
87465W        W55683  40.603  24.727   0.819
87466W        W55684  33.969  14.942   4.099
87467W        W55685  18.811   2.336   2.822
87468W        W55686  16.393   7.021  11.660
87469W        W55687  21.358  23.848  13.651
87470W        W55688  19.126   6.637  13.242
87471W        W55689  27.875  32.992  14.939
87472W        W55690  20.111  33.167   0.325
87473W        W55691   9.302  15.596  10.985
87474W        W55692   5.791  15.815   4.365
87475W        W55693  32.636  34.460  12.069
87476W        W55694   6.361  18.263   4.115
87477W        W55695   1.334  18.601  14.976
87478W        W55696   4.923   9.919  11.070
87479W        W55697  24.296   4.765  13.005
87480W        W55698  13.241  24.017   4.962
87481W        W55699  35.130  19.598  13.335
87482W        W55700  25.369  24.327  12.447
87483W        W55701  39.458  32.965   0.808
87484W        W55702   2.917  20.979   3.789
87485W        W55703  32.815   0.500  13.353
87486W        W55704  24.047  43.519  13.445
87487W        W55705  27.092  39.552   0.304
87488W        W55706  21.209  24.723  13.294
87489W        W55707  32.423  26.497  14.932
87490W        W55708  42.007  19.625   3.157
87491W        W55709  43.987  15.293  11.592
87492W        W55710   5.325  13.830   1.910
87493W        W55711  24.436  42.622   2.265
87494W        W55712   1.828  38.747   0.241
87495W        W55713  21.231  21.974  13.403
87496W        W55714  30.493   9.131   4.677
87497W        W55715   0.708   9.934   2.894
87498W        W55716  40.378  11.245  12.344
87499W        W55717  24.195  26.972   3.741
87500W        W55718  23.689  23.117   0.944
87501W        W55719  13.119  17.440   2.804
87502W        W55720   8.373  44.344  11.359
87503W        W55721   3.639  15.091   0.331
87504W        W55722  25.789   0.939  12.101
87505W        W55723   9.103  43.749  12.423
87506W        W55724   4.959  13.107  14.467
87507W        W55725   1.925   0.792  11.901
87508W        W55726  37.874  34.887   2.621
87509W        W55727  27.416  35.460   2.589
87510W        W55728  39.690  12.800  14.204
87511W        W55729  33.974  10.210   3.645
87512W        W55730   1.315   4.957  11.590
87513W        W55731  39.485  40.019  11.445
87514W        W55732  38.954  16.200   0.299
87515W        W55733   4.479   2.807  11.918
87516W        W55734  34.164  10.044   2.212
87517W        W55735  38.401  41.520  13.467
87518W        W55736  13.513  37.242   0.567
87519W        W55737   3.151  20.639   4.110
87520W        W55738  40.100   2.483   2.662
87521W        W55739  25.099  22.500  11.137
87522W        W55740  42.061  14.131  10.399
87523W        W55741  16.194   2.489   4.106
87524W        W55742   9.852  20.318   3.219
87525W        W55743  35.530   3.423   5.409
87526W        W55744  27.481  35.777  12.652
87527W        W55745  28.529   3.481  12.835
87528W        W55746   0.397  24.867   4.030
87529W        W55747  20.378  16.993   0.938
87530W        W55748   6.711  27.682  14.601
87531W        W55749  16.344  35.392   2.413
87532W        W55750  36.407  12.909  13.384
87533W        W55751  16.308  34.044   2.717
87534W        W55752  44.776  20.610   1.904
87535W        W55753  18.513  24.136  11.952
87536W        W55754   0.400  13.354   0.599
87537W        W55755  43.828  35.886  14.912
87538W        W55756  37.437  21.220   3.138
87539W        W55757   7.534  42.266   9.887
87540W        W55758   6.975  21.170   2.667
87541W        W55759   7.264   8.980   0.277
87542W        W55760  21.695  36.683  14.670
87543W        W55761  14.287   2.921  12.071
87544W        W55762   1.997  12.221   1.523
87545W        W55763   7.760   0.992   0.788
87546W        W55764  34.635  30.461   3.189
87547W        W55765  22.080   9.655   3.665
87548W        W55766   4.817   9.122   2.133
87549W        W55767  20.985  14.701   4.607
87550W        W55768  44.262  44.769   0.030
87551W        W55769  41.806  24.496  14.783
87552W        W55770  17.594  13.915   2.362
87553W        W55771  14.702  35.639   1.777
87554W        W55772  39.068  16.550  12.406
87555W        W55773  37.512   6.423   4.412
87556W        W55774  43.449  42.723   3.743
87557W        W55775   5.247  29.952   3.734
87558W        W55776  22.241   6.319   0.268
87559W        W55777  41.582  36.490   1.281
87560W        W55778  26.072  32.081  10.998
87561W        W55779   9.590   0.398  13.150
87562W        W55780  11.584  10.303  11.040
87563W        W55781  42.905  42.958  12.074
87564W        W55782  20.259  33.398   0.769
87565W        W55783  37.850  17.146   2.707
87566W        W55784   8.680  43.737  13.026
87567W        W55785   6.036  33.001   4.131
87568W        W55786  26.669  23.987   2.303
87569W        W55787  42.208  25.231   0.959
87570W        W55788   2.817  31.626  14.877
87571W        W55789  26.025  34.621   1.805
87572W        W55790  39.295  14.228  12.812
87573W        W55791  32.067  22.304   2.235
87574W        W55792  19.689  10.832  11.410
87575W        W55793  30.666  30.650   4.853
87576W        W55794  14.821  16.604   3.203
87577W        W55795  29.329  21.741  11.949
87578W        W55796   9.567  40.711  11.154
87579W        W55797  38.756  20.465  12.615
87580W        W55798   4.426  35.632   2.834
87581W        W55799  19.491  43.456   0.908
87582W        W55800  36.459  21.960   4.689
87583W        W55801  26.705  21.642  13.332
87584W        W55802   7.250  28.528  11.187
87585W        W55803  17.160  38.141  13.960
87586W        W55804  43.921  19.659   2.867
87587W        W55805   5.700  29.899   2.448
87588W        W55806  25.539  30.839   2.748
87589W        W55807  39.882  36.069   0.199
87590W        W55808  35.818  11.847  10.695
87591W        W55809  38.259  25.730  13.485
87592W        W55810  32.513   3.636  12.866
87593W        W55811  35.065   0.281   3.516
87594W        W55812   4.807  25.542   2.742
87595W        W55813   6.785  22.486  10.762
87596W        W55814   1.945  11.542  14.562
87597W        W55815  40.734  22.204   3.381
87598W        W55816  28.650   3.484   3.516
87599W        W55817   7.371   6.681  13.810
87600W        W55818  20.818  35.495  12.569
87601W        W55819   4.344  21.870   0.156
87602W        W55820  24.702   1.883   4.719
87603W        W55821  31.194  34.016  10.681
87604W        W55822  32.376   6.675  10.291
87605W        W55823  26.488   0.828   1.326
87606W        W55824   5.944  41.015  14.530
87607W        W55825   8.903  40.008  10.197
87608W        W55826  14.644  43.481  14.017
87609W        W55827  32.878  25.720  13.911
87610W        W55828   7.327  13.658   0.824
87611W        W55829  14.998  17.842   4.470
87612W        W55830  20.594   2.494  14.707
87613W        W55831  38.568  17.367   3.371
87614W        W55832   4.621  12.607  12.593
87615W        W55833  13.824  15.033  14.510
87616W        W55834  20.718  11.180  12.166
87617W        W55835   6.755   4.158   0.412
87618W        W55836  25.083   2.275   4.554
87619W        W55837  39.091  34.840  12.637
87620W        W55838  30.035   0.788  13.926
87621W        W55839  37.550  37.430  11.396
87622W        W55840  12.142  27.978   4.863
87623W        W55841  42.752  21.483   1.646
87624W        W55842   2.993  11.329  14.641
87625W        W55843  37.527  44.394   3.802
87626W        W55844  33.453   2.773  14.246
87627W        W55845  43.826  21.141  12.059
87628W        W55846  15.995  32.877  13.003
87629W        W55847  11.353   5.722  11.636
87630W        W55848  41.541  28.538  13.965
87631W        W55849  18.038  12.261  10.720
87632W        W55850   3.888   9.329   1.910
87633W        W55851  25.567  26.893  11.229
87634W        W55852   6.167  11.982   1.344
87635W        W55853  44.694  34.175   0.414
87636W        W55854  43.973   0.753   3.298
87637W        W55855  29.775  35.868  10.405
87638W        W55856  36.902   2.856   2.379
87639W        W55857  44.257   2.159  14.868
87640W        W55858   9.172  38.406   4.562
87641W        W55859  33.031  20.763  10.687
87642W        W55860  44.277  27.810   1.867
87643W        W55861  19.773   7.398  12.041
87644W        W55862  13.738   7.917  11.879
87645W        W55863  23.771  33.940   4.979
87646W        W55864  43.463  15.215  13.571
87647W        W55865   9.485   6.648   1.368
87648W        W55866  37.617  21.008   0.924
87649W        W55867   8.659  28.634   1.297
87650W        W55868   9.381  14.044  14.352
87651W        W55869  41.718  11.268  13.337
87652W        W55870  17.238  11.216   0.833
87653W        W55871  30.447  42.285   3.585
87654W        W55872  24.538  44.253  10.669
87655W        W55873  31.908   4.848   1.459
87656W        W55874  21.781  28.648  14.324
87657W        W55875  26.710  24.628   3.385
87658W        W55876  39.936  41.757   4.489
87659W        W55877  11.188   4.759   3.589
87660W        W55878  18.251   0.258  11.746
87661W        W55879  20.941  17.059  12.621
87662W        W55880  33.612   9.143  12.961
87663W        W55881  22.022  19.157   3.706
87664W        W55882  42.265   2.898   1.550
87665W        W55883  30.807   3.202  12.545
87666W        W55884  41.169  24.194   5.186
87667W        W55885  21.240  40.917  10.693
87668W        W55886  21.693  39.832  13.496
87669W        W55887  15.659   8.424   4.075
87670W        W55888  20.100  34.645   3.265
87671W        W55889  14.827  29.373  14.642
87672W        W55890   3.009  40.013   0.435
87673W        W55891  43.409   8.259   4.686
87674W        W55892  42.893  14.628  12.016
87675W        W55893  10.848  17.724  13.033
87676W        W55894  32.669  44.279   3.630
87677W        W55895  27.529  20.290   0.961
87678W        W55896  18.580  41.348  11.627
87679W        W55897   5.689   0.918  13.556
87680W        W55898  15.290  14.393   3.223
87681W        W55899  31.452  22.254   2.753
87682W        W55900  36.819   7.993   3.685
87683W        W55901   6.141  13.577  10.679
87684W        W55902  16.648   9.626  12.988
87685W        W55903   7.422  40.516  11.391
87686W        W55904  28.102   9.129  13.997
87687W        W55905   2.727  10.932  12.366
87688W        W55906   1.684  25.626   0.860
87689W        W55907  11.867  24.076   2.895
87690W        W55908  38.115  20.588  11.774
87691W        W55909  34.358   9.269  13.425
87692W        W55910   6.445  33.180   1.474
87693W        W55911  26.344  37.988   1.653
87694W        W55912  40.913  21.953  10.787
87695W        W55913   6.899   5.172   1.215
87696W        W55914   6.884   2.013  13.760
87697W        W55915   2.896  33.765  12.632
87698W        W55916  11.904   4.910  13.234
87699W        W55917  22.512  27.476   0.153
87700W        W55918  12.752  13.696   3.545
87701W        W55919  41.579   1.368  14.339
87702W        W55920  31.638  25.000   3.294
87703W        W55921   1.901  24.542   1.311
87704W        W55922  36.842   3.135  12.776
87705W        W55923  24.661  29.299  13.803
87706W        W55924   3.512  15.062   1.814
87707W        W55925  36.450  42.727  14.279
87708W        W55926  33.441  15.052  11.150
87709W        W55927  11.333  20.512   1.549
87710W        W55928  28.606  43.194  14.925
87711W        W55929  40.366  10.669  13.192
87712W        W55930  15.590  25.050  12.563
87713W        W55931  25.010  42.689   4.186
87714W        W55932  29.079  10.794   3.735
87715W        W55933  39.421  42.969   0.374
87716W        W55934  27.522  43.550  13.119
87717W        W55935   2.588  18.799  13.394
87718W        W55936  14.291  38.504  10.782
87719W        W55937  28.087  39.316   2.801
87720W        W55938  25.246  38.322   4.118
87721W        W55939  35.033  39.676  11.853
87722W        W55940  40.122  36.907   2.935
87723W        W55941  25.203  15.331   1.736
87724W        W55942  23.180  14.965  11.865
87725W        W55943   4.850   7.340   3.522
87726W        W55944  16.824  32.500   2.276
87727W        W55945  22.055   2.230  11.576
87728W        W55946  26.489  17.273  10.709
87729W        W55947  35.308   5.834  13.227
87730W        W55948  30.809  22.072   4.283
87731W        W55949  38.572  12.696  11.923
87732W        W55950  42.997  38.984   5.216
87733W        W55951   7.383  31.848  13.487
87734W        W55952  39.385  42.539   0.695
87735W        W55953  32.863   6.185   1.605
87736W        W55954  35.780  28.666  14.483
87737W        W55955  43.892  23.969  13.788
87738W        W55956  12.317  38.200  11.490
87739W        W55957  17.856  22.016   2.360
87740W        W55958  19.612  27.038  14.328
87741W        W55959  27.515  37.958  11.660
87742W        W55960   3.260  39.987   1.854
87743W        W55961  22.338   2.774   0.011
87744W        W55962  27.045  11.381  13.057
87745W        W55963  41.968  38.337   1.768
87746W        W55964  18.206  16.332   0.365
87747W        W55965  22.665  42.477   2.636
87748W        W55966  11.944  19.064   1.782
87749W        W55967  19.195  39.247  13.957
87750W        W55968  23.986  28.461   1.819
87751W        W55969  14.808  32.119  13.544
87752W        W55970   4.867  22.114  11.963
87753W        W55971  39.302  38.865   5.181
87754W        W55972  26.927   8.874   4.515
87755W        W55973  10.658  24.576  12.926
87756W        W55974  39.839  22.245  13.753
87757W        W55975  38.811  36.439   2.720
87758W        W55976  42.553  23.634  14.360
87759W        W55977  23.663  31.417  11.115
87760W        W55978  16.812  32.618   3.234
87761W        W55979  12.590  15.854   2.209
87762W        W55980  13.133   6.854   1.215
87763W        W55981  30.133  17.223   1.221
87764W        W55982  13.398  37.089  14.892
87765W        W55983   5.686  25.478   4.224
87766W        W55984  13.779  39.048  13.972
87767W        W55985   3.743  36.423  13.409
87768W        W55986  38.363  41.724   3.212
87769W        W55987  14.331  25.502   2.311
87770W        W55988  20.916  10.146   2.777
87771W        W55989  39.355  16.059   3.647
87772W        W55990  24.264  30.390  11.262
87773W        W55991  42.433   7.080  12.453
87774W        W55992  22.579  22.256   1.112
87775W        W55993  39.085   4.126  11.728
87776W        W55994   2.453  33.731  13.580
87777W        W55995  23.494  21.370   1.399
87778W        W55996   1.478  34.498   1.393
87779W        W55997  23.245  34.513  13.321
87780W        W55998  25.119  33.314   1.397
87781W        W55999  41.239  16.127   1.296
87782W        W56000  11.411   5.333  12.170
87783W        W56001  32.082  37.619  14.347
87784W        W56002  36.853  34.729   0.418
87785W        W56003  17.066  25.038   2.767
87786W        W56004   2.299  19.787   3.428
87787W        W56005  25.521  17.720   4.813
87788W        W56006  10.549  24.098   0.756
87789W        W56007  14.326  13.588  12.783
87790W        W56008  37.567  24.493  11.050
87791W        W56009  35.969   3.047  12.137
87792W        W56010   1.038  16.011   1.648
87793W        W56011   2.784   7.137  10.829
87794W        W56012  21.646  44.627   4.619
87795W        W56013  15.727  29.741   4.792
87796W        W56014  10.354  26.973  14.916
87797W        W56015  14.379  21.553   4.588
87798W        W56016   6.388  36.471  11.902
87799W        W56017   8.074   1.435   0.647
87800W        W56018   1.781   8.806  13.487
87801W        W56019  43.755  33.185   3.859
87802W        W56020  21.135  16.658   2.350
87803W        W56021  27.671  26.689  10.791
87804W        W56022   2.039  25.996   2.695
87805W        W56023  12.119  24.199  13.418
87806W        W56024  24.472  26.777   2.520
87807W        W56025  39.779  41.696   4.003
87808W        W56026   2.440   0.502   2.442
87809W        W56027  40.796  34.313  13.958
87810W        W56028   1.521  15.605   3.170
87811W        W56029  44.665   0.720   4.936
87812W        W56030  43.790  39.986  13.502
87813W        W56031  40.676   6.791   4.471
87814W        W56032   0.927  38.767  10.668
87815W        W56033  22.058  14.769   0.470
87816W        W56034   6.263  35.640  10.778
87817W        W56035  16.606  20.736   5.062
87818W        W56036  33.479  22.957  14.863
87819W        W56037   4.523  38.356  13.897
87820W        W56038  19.753  15.766   2.804
87821W        W56039  28.144  27.465  12.042
87822W        W56040  38.453   1.829  11.411
87823W        W56041  16.245  12.260  14.845
87824W        W56042  38.383  44.326   1.468
87825W        W56043  33.997  14.553  12.879
87826W        W56044   5.842   2.404  12.469
87827W        W56045  19.605  24.928   4.836
87828W        W56046  42.528  16.086  13.121
87829W        W56047  14.761   1.754  14.360
87830W        W56048  29.845  37.016   0.901
87831W        W56049  24.520  28.517   3.738
87832W        W56050  27.930  33.115  10.670
87833W        W56051  44.560  27.521   1.481
87834W        W56052  10.251   8.711  11.618
87835W        W56053  16.859   5.137   0.227
87836W        W56054  24.053  18.227   0.956
87837W        W56055   4.355  33.013  12.959
87838W        W56056  14.235  25.078   0.581
87839W        W56057  33.787  18.342  11.163
87840W        W56058  43.069  26.259   4.530
87841W        W56059   7.433  11.951  12.899
87842W        W56060  14.656  11.300  14.422
87843W        W56061  34.010   0.460  14.593
87844W        W56062  13.397  29.744   2.732
87845W        W56063  38.382  42.410   3.838
87846W        W56064   6.467  43.602  10.889
87847W        W56065   3.214  25.310  12.076
87848W        W56066  28.800   6.137   0.876
87849W        W56067  38.464  42.989   2.658
87850W        W56068   8.446   0.607  13.736
87851W        W56069   0.787   9.155   4.314
87852W        W56070  36.138  28.548  12.112
87853W        W56071   9.293  32.298   2.245
87854W        W56072  14.215   4.422   1.766
87855W        W56073  15.603  10.920   0.828
87856W        W56074  34.636   1.448  13.755
87857W        W56075   8.282  29.289  12.799
87858W        W56076  18.812  19.284   2.117
87859W        W56077  23.573   3.369   2.871
87860W        W56078  35.630  22.764  12.516
87861W        W56079  12.248  43.414  11.923
87862W        W56080  17.878  28.748   4.229
87863W        W56081  43.360  33.847   2.361
87864W        W56082   6.620  31.548  11.464
87865W        W56083  29.912   7.594  13.925
87866W        W56084  11.873  21.365   4.246
87867W        W56085  25.115  31.816   2.416
87868W        W56086  35.100  17.817   4.782
87869W        W56087  20.082  23.672  10.739
87870W        W56088  29.053  20.094   1.013
87871W        W56089  35.927  14.785   3.685
87872W        W56090  26.257  40.475   1.774
87873W        W56091  31.380   4.103   4.417
87874W        W56092   5.098  25.772  14.316
87875W        W56093  36.315  29.885   2.282
87876W        W56094  16.081  26.541   4.900
87877W        W56095  26.023  24.138  14.920
87878W        W56096  16.315  19.135  12.796
87879W        W56097  34.657  35.789   3.253
87880W        W56098  28.948  35.872   4.062
87881W        W56099  13.324  39.526  14.870
87882W        W56100  23.104  37.606   1.181
87883W        W56101  37.526   8.489  11.154
87884W        W56102  14.639  25.115   2.766
87885W        W56103  40.950  43.461  11.518
87886W        W56104  36.997   5.227   3.382
87887W        W56105  37.562  37.888  13.248
87888W        W56106   7.733   0.945   2.237
87889W        W56107  15.181  24.463  12.090
87890W        W56108   8.234  21.012   0.660
87891W        W56109  17.056  30.448   0.031
87892W        W56110   4.839  15.748   2.203
87893W        W56111  31.549  37.503   3.764
87894W        W56112  36.958  17.847  13.707
87895W        W56113  32.417  25.170   1.251
87896W        W56114   0.027  20.898   2.275
87897W        W56115  14.445  42.014   3.691
87898W        W56116  38.035  29.078  12.544
87899W        W56117  25.829   8.042   3.784
87900W        W56118  21.528  42.616  11.446
87901W        W56119   8.454   7.643   1.267
87902W        W56120  22.990  30.120   2.609
87903W        W56121  39.896  26.116   4.275
87904W        W56122  12.885   5.409  10.553
87905W        W56123  25.660  19.185  11.933
87906W        W56124   8.095  12.633   1.526
87907W        W56125   4.288  27.910   3.825
87908W        W56126   5.496  43.689  11.230
87909W        W56127  32.665  22.598  10.488
87910W        W56128  27.855  11.467  13.971
87911W        W56129   3.012  32.542   2.402
87912W        W56130   1.749  15.142  10.640
87913W        W56131  29.613  40.605  14.528
87914W        W56132  25.184   1.866   4.947
87915W        W56133  22.224   0.276  10.750
87916W        W56134  13.494  23.091  13.267
87917W        W56135   5.606  43.015   5.128
87918W        W56136  38.390  18.741   2.260
87919W        W56137  14.774  33.678  10.369
87920W        W56138  17.119  16.724  12.908
87921W        W56139  18.973   7.763  10.445
87922W        W56140  24.893  41.819   3.553
87923W        W56141  32.103  27.675   2.341
87924W        W56142  30.911  24.236   3.655
87925W        W56143  33.506   8.188   1.395
87926W        W56144  19.089  43.747   0.774
87927W        W56145  34.122  29.494   0.451
87928W        W56146  14.242  23.166   3.633
87929W        W56147   9.896   2.930  11.116
87930W        W56148   3.731  19.525   2.784
87931W        W56149  27.866  37.768   2.759
87932W        W56150   9.499  41.049   0.755
87933W        W56151   3.723  19.760   4.106
87934W        W56152  43.768  26.862   0.205
87935W        W56153  14.647  21.332   2.198
87936W        W56154  34.585   9.455   2.001
87937W        W56155  36.969   1.417  12.906
87938W        W56156  36.638  27.539   2.113
87939W        W56157  27.929  36.491   3.302
87940W        W56158  44.039  39.877   2.669
87941W        W56159  32.945   5.308  11.132
87942W        W56160   1.391  13.779  12.362
87943W        W56161   3.753   8.650   0.551
87944W        W56162  44.999  34.505   1.286
87945W        W56163  37.604  32.450   2.343
87946W        W56164  37.797   7.212  12.372
87947W        W56165  11.393  30.008   3.533
87948W        W56166  23.604  20.111  11.913
87949W        W56167  35.993  39.095   3.734
87950W        W56168  27.756  12.840   0.007
87951W        W56169  13.098   4.724   2.357
87952W        W56170   0.066   6.450   1.108
87953W        W56171  31.190  14.580  13.499
87954W        W56172  18.964  40.877  13.782
87955W        W56173   4.033  21.652  14.762
87956W        W56174  38.790  10.705   0.437
87957W        W56175  20.741   6.400   0.882
87958W        W56176  10.654  18.344   3.575
87959W        W56177  17.534  21.965  11.992
87960W        W56178  23.045  40.571  11.623
87961W        W56179   0.254   9.379  11.996
87962W        W56180  24.479  43.835  11.087
87963W        W56181   3.961  33.573  12.535
87964W        W56182  37.709   8.135  11.511
87965W        W56183   7.194  39.685   1.801
87966W        W56184  32.551  16.219   1.251
87967W        W56185   4.370  11.393  11.890
87968W        W56186  13.317  31.913   0.419
87969W        W56187   9.280  12.367  14.063
87970W        W56188  31.689  44.680  11.533
87971W        W56189  18.507  23.261   2.244
87972W        W56190  14.881   2.972  10.242
87973W        W56191  14.057  29.105   2.256
87974W        W56192  13.671  37.047  13.337
87975W        W56193  25.189  38.501  14.972
87976W        W56194  24.570   0.804  13.983
87977W        W56195  39.102  24.425  11.329
87978W        W56196  36.607  27.126  13.905
87979W        W56197  38.406  39.346   2.771
87980W        W56198  29.200  28.998  10.696
87981W        W56199  32.432  22.091   1.022
87982W        W56200   7.357  35.541   4.877
87983W        W56201  40.315   3.377   4.925
87984W        W56202  43.914  21.579  12.348
87985W        W56203  26.777  34.640   4.044
87986W        W56204  20.910  33.096  13.527
87987W        W56205  40.804  24.301  14.054
87988W        W56206   7.656  18.308  13.269
87989W        W56207  24.503  22.134   3.265
87990W        W56208  33.208  24.295   3.101
87991W        W56209  42.111  29.934   1.686
87992W        W56210  34.520  44.088  10.997
87993W        W56211  14.056  16.782  13.910
87994W        W56212  44.211   8.850  12.483
87995W        W56213  26.546  21.571  11.479
87996W        W56214  32.858  10.351  13.390
87997W        W56215  35.130  19.009  14.542
87998W        W56216  29.004  41.313  11.680
87999W        W56217  28.144  26.233  10.644
88000W        W56218  22.591  14.703   1.252
88001W        W56219  30.723   6.918   1.834
88002W        W56220   7.581  43.243   0.885
88003W        W56221  32.981  41.030   3.553
88004W        W56222  26.135  13.211  14.384
88005W        W56223  15.608   8.808   0.800
88006W        W56224  42.864  38.802  11.166
88007W        W56225  42.426  15.579   3.284
88008W        W56226   9.668  43.040   0.047
88009W        W56227   9.499  17.289   0.434
88010W        W56228   4.747  24.721  12.471
88011W        W56229   3.196   6.174   0.254
88012W        W56230  15.506   1.269  14.345
88013W        W56231  28.390   5.374   3.643
88014W        W56232  23.691  13.631   0.468
88015W        W56233  38.100  16.773   3.941
88016W        W56234  11.128  14.869  10.641
88017W        W56235   5.886  12.362   4.533
88018W        W56236  34.563   8.119   3.133
88019W        W56237  11.891  21.243   3.748
88020W        W56238  37.900  41.056   1.398
88021W        W56239  22.863   9.887  11.990
88022W        W56240   8.321  35.841   1.876
88023W        W56241  38.273  24.232  14.850
88024W        W56242   9.272  10.924   2.250
88025W        W56243  12.494  22.085  11.351
88026W        W56244   7.127  20.294   2.458
88027W        W56245  29.599  43.446  13.072
88028W        W56246   7.268  16.547  12.145
88029W        W56247  20.257  17.509   1.040
88030W        W56248  37.905  29.909  11.329
88031W        W56249  13.589  35.253   4.578
88032W        W56250  28.287  33.266   1.227
88033W        W56251  20.791  14.167   9.496
88034W        W56252  33.947  33.836   0.465
88035W        W56253  28.765  25.483   0.407
88036W        W56254   7.274  19.615   3.249
88037W        W56255  43.016  16.251  10.675
88038W        W56256  29.538  40.686  11.300
88039W        W56257   8.665   0.678   0.453
88040W        W56258  30.545   1.028   3.678
88041W        W56259  18.652  22.961   1.822
88042W        W56260  27.996  38.379  12.914
88043W        W56261  32.512  38.565  10.577
88044W        W56262  20.137  36.146  10.569
88045W        W56263  37.873  33.615   2.195
88046W        W56264  30.159  11.567   3.691
88047W        W56265  20.629  43.076   0.900
88048W        W56266  28.552   5.042  12.410
88049W        W56267  30.998  12.456  12.430
88050W        W56268  41.989  18.174   3.223
88051W        W56269  34.795  17.891   1.625
88052W        W56270  11.643  26.976   2.855
88053W        W56271  37.938   2.320   2.157
88054W        W56272  40.305  22.778  14.852
88055W        W56273  23.609  41.464  11.889
88056W        W56274  39.932  21.594  11.007
88057W        W56275  12.543  34.185   0.205
88058W        W56276  25.649  12.797   2.525
88059W        W56277  12.773   7.692  13.519
88060W        W56278  25.616  19.787  10.649
88061W        W56279  28.416   7.348  13.014
88062W        W56280  13.157  43.605  13.811
88063W        W56281  11.574  31.095   2.633
88064W        W56282  23.399   2.176   0.889
88065W        W56283   9.734   1.219  11.715
88066W        W56284  13.134  43.733   3.232
88067W        W56285  17.093  36.342  11.986
88068W        W56286  25.484  16.722   2.432
88069W        W56287  31.916  31.033  14.394
88070W        W56288  21.460  40.386   0.779
88071W        W56289   2.709  16.340  12.120
88072W        W56290  25.540  15.586   0.849
88073W        W56291   0.432  24.645   2.451
88074W        W56292  19.050  24.759   1.831
88075W        W56293  15.579   0.891   0.459
88076W        W56294  12.209  20.328  14.936
88077W        W56295  25.758  14.326   3.558
88078W        W56296  33.495  10.980   3.742
88079W        W56297   2.363  43.127  12.124
88080W        W56298  27.899  16.015   3.173
88081W        W56299  43.907  28.858  10.749
88082W        W56300  28.666  12.216   2.733
88083W        W56301  11.719  17.670  10.993
88084W        W56302   6.741  33.427   0.676
88085W        W56303   1.095  13.717  11.518
88086W        W56304  33.533   8.200   2.301
88087W        W56305   0.903  32.181   1.386
88088W        W56306  23.762  14.801   1.717
88089W        W56307  26.193  44.815  12.969
88090W        W56308  24.301  36.497   4.197
88091W        W56309  33.359  16.149  13.595
88092W        W56310  44.443  22.262   4.079
88093W        W56311  15.223  31.664  12.585
88094W        W56312  24.948  43.906   3.711
88095W        W56313  21.910  10.095  12.345
88096W        W56314   8.360   5.671  14.352
88097W        W56315  29.143  39.352   1.919
88098W        W56316   0.414  43.429   4.648
88099W        W56317  43.463  28.584  11.690
88100W        W56318   3.436  30.484  13.377
88101W        W56319   6.223   8.898   2.261
88102W        W56320  31.901  38.919   1.824
88103W        W56321  44.300   1.951   1.786
88104W        W56322  41.772  43.769  10.483
88105W        W56323  42.709  24.064  13.036
88106W        W56324   8.891  19.253   4.133
88107W        W56325  27.227   9.820   2.252
88108W        W56326  39.144  11.793  10.941
88109W        W56327   7.467  11.109   2.372
88110W        W56328  23.499  26.239   2.713
88111W        W56329   0.092  16.962  11.118
88112W        W56330   9.833  18.619  14.357
88113W        W56331  13.684  27.180   2.320
88114W        W56332  40.184  31.863  13.056
88115W        W56333  18.466   0.461  13.693
88116W        W56334  39.543  19.618   4.168
88117W        W56335  35.513   4.240   1.479
88118W        W56336   7.302   6.965  12.487
88119W        W56337   2.773  42.744   4.243
88120W        W56338   0.427   1.235  11.314
88121W        W56339  36.356   5.692  10.889
88122W        W56340  17.483  14.653  13.930
88123W        W56341   0.800  16.317  13.440
88124W        W56342  31.091  36.256  11.197
88125W        W56343  18.780  10.851   3.539
88126W        W56344   6.734  21.225  13.529
88127W        W56345   1.224   4.492   3.981
88128W        W56346  12.904  14.409  14.630
88129W        W56347  41.192   8.882   1.227
88130W        W56348  44.494  11.029  11.161
88131W        W56349  15.405  44.691   0.377
88132W        W56350  15.353  25.992   0.432
88133W        W56351   5.667   5.321   1.904
88134W        W56352  40.219  23.775   3.677
88135W        W56353  23.548  32.516  10.936
88136W        W56354  34.097  22.512  12.339
88137W        W56355  16.154  41.225   4.407
88138W        W56356  33.622  13.581   2.116
88139W        W56357   8.329   2.407   3.196
88140W        W56358  32.990   8.520  14.346
88141W        W56359  15.188  38.482   3.339
88142W        W56360  10.452   5.785  13.318
88143W        W56361  18.959   2.538   2.367
88144W        W56362   6.905  12.554   1.426
88145W        W56363  24.046  41.106  11.997
88146W        W56364   7.274  10.699   0.903
88147W        W56365  10.806  11.745  10.586
88148W        W56366  18.230  36.437   4.534
88149W        W56367  13.571  36.430  14.576
88150W        W56368  34.429  39.835   3.631
88151W        W56369  34.951  24.288   0.341
88152W        W56370  39.864  14.499   2.891
88153W        W56371  35.829  24.113   2.585
88154W        W56372  38.873  12.489   4.471
88155W        W56373  32.797  11.145   2.278
88156W        W56374  24.804   3.359  13.436
88157W        W56375  17.826  42.905  11.386
88158W        W56376  43.901  29.643   4.545
88159W        W56377  30.268   1.562  13.809
88160W        W56378  24.680  20.212   3.632
88161W        W56379   5.376  20.127  11.517
88162W        W56380  43.739  15.726  13.760
88163W        W56381  41.844  26.064   0.864
88164W        W56382  36.933  31.678   2.168
88165W        W56383  11.221  28.540  13.373
88166W        W56384  18.707  35.089  10.641
88167W        W56385   2.472  14.346  10.993
88168W        W56386   8.957  20.166   9.752
88169W        W56387   5.424  11.602   2.772
88170W        W56388   8.738   7.692   0.828
88171W        W56389  40.473  33.473  10.528
88172W        W56390  30.690   6.254  13.882
88173W        W56391   7.299  35.388   1.155
88174W        W56392  21.548  20.643   0.505
88175W        W56393  30.268   7.069   0.046
88176W        W56394  18.428  35.573   1.715
88177W        W56395  23.076  30.658  14.994
88178W        W56396  18.170   4.391  14.333
88179W        W56397  44.837  22.495   1.728
88180W        W56398   2.790  13.974  14.472
88181W        W56399   7.149  36.863   4.009
88182W        W56400  32.674   4.121  11.658
88183W        W56401  13.686  10.598  12.428
88184W        W56402  34.357  13.758   2.843
88185W        W56403  25.529  17.378   0.696
88186W        W56404  25.198  10.097  13.991
88187W        W56405   1.982  43.724  14.378
88188W        W56406  21.646  35.631  13.895
88189W        W56407  35.227  33.899   1.446
88190W        W56408   3.654  17.180  14.782
88191W        W56409   5.809  37.616   3.105
88192W        W56410  42.456  10.248  10.963
88193W        W56411  38.609  17.277   4.729
88194W        W56412  13.835   9.214   0.530
88195W        W56413   2.021  27.641   2.397
88196W        W56414  14.294  13.228   2.797
88197W        W56415  37.671  20.961   4.579
88198W        W56416  44.514   5.375   3.088
88199W        W56417  10.700  35.046   1.983
88200W        W56418  32.444   5.609  10.236
88201W        W56419  19.519  25.278   1.901
88202W        W56420  28.886  29.889   0.408
88203W        W56421   6.702  37.957  13.930
88204W        W56422  10.093  21.004   0.257
88205W        W56423  12.932  38.251  13.055
88206W        W56424  17.347  16.892  11.128
88207W        W56425  21.710   2.974  10.745
88208W        W56426   6.148  17.648  10.606
88209W        W56427  39.398  17.253   2.855
88210W        W56428  36.462  36.581  12.421
88211W        W56429   3.785  22.046  10.585
88212W        W56430  42.286  22.191  11.158
88213W        W56431  26.994  22.026  10.144
88214W        W56432   7.863  19.672   2.363
88215W        W56433  36.810  11.253   0.410
88216W        W56434  17.332  35.583  13.817
88217W        W56435   6.169  17.297  10.998
88218W        W56436   7.367  28.306   0.791
88219W        W56437  19.038  15.839  11.435
88220W        W56438  14.164  18.225   4.162
88221W        W56439  11.108   0.399   1.514
88222W        W56440  36.383  42.233   3.180
88223W        W56441  21.077  13.728  12.467
88224W        W56442  14.961   5.757  12.812
88225W        W56443  37.504  11.584   0.827
88226W        W56444  39.304   1.353   1.954
88227W        W56445  19.628   2.560  10.736
88228W        W56446  36.794   0.966   3.595
88229W        W56447  33.171   4.239  11.635
88230W        W56448  41.044   2.616  14.071
88231W        W56449  20.817  21.431  11.260
88232W        W56450   7.368  14.562  14.410
88233W        W56451   8.362  24.422   2.522
88234W        W56452   1.227  40.906   3.568
88235W        W56453  42.576  17.738  12.383
88236W        W56454  39.026  39.094  14.908
88237W        W56455  12.047  25.217   3.355
88238W        W56456  43.680  43.416   2.897
88239W        W56457  33.514  44.699   0.630
88240W        W56458  36.918   1.013   3.096
88241W        W56459   8.677   1.018   0.086
88242W        W56460  25.865   7.987   1.635
88243W        W56461  38.979  29.940   4.411
88244W        W56462  36.976  18.030   4.393
88245W        W56463  37.602  39.320  13.370
88246W        W56464  39.196  11.951  13.346
88247W        W56465   1.367  24.874   1.473
88248W        W56466  19.570   4.293  13.463
88249W        W56467   0.739   6.708   2.415
88250W        W56468  12.560  32.699   2.676
88251W        W56469   2.178   2.273  11.133
88252W        W56470   5.689   0.379  10.069
88253W        W56471   8.204  30.488  10.403
88254W        W56472  17.322  43.392  12.634
88255W        W56473  32.275  15.271  11.630
88256W        W56474  19.617  27.488   2.737
88257W        W56475  40.000  34.008   0.428
88258W        W56476  14.314   2.937   0.003
88259W        W56477  27.004   5.750  12.718
88260W        W56478  38.185  21.160   0.885
88261W        W56479   3.383  39.538  12.951
88262W        W56480  39.396  12.151  13.768
88263W        W56481   1.415  22.107   2.712
88264W        W56482  36.281  38.607  11.054
88265W        W56483   5.835   4.278  11.687
88266W        W56484  18.143  10.073   3.535
88267W        W56485   0.552  42.498   3.601
88268W        W56486   7.513   3.172   4.148
88269W        W56487  38.426  20.634  10.940
88270W        W56488  39.385   6.267   0.760
88271W        W56489   9.889  19.077   1.897
88272W        W56490  25.001  13.490   2.282
88273W        W56491  43.704  21.444   3.041
88274W        W56492  31.466  23.553  11.960
88275W        W56493  35.946  27.376   1.523
88276W        W56494  40.893   9.961  14.420
88277W        W56495  11.880  16.068  14.784
88278W        W56496   6.493   4.186   4.574
88279W        W56497  43.076  33.680  11.581
88280W        W56498  25.019   4.509  14.701
88281W        W56499   8.140  18.298   2.309
88282W        W56500  17.610  25.239   1.519
88283W        W56501  41.312  43.042  12.511
88284W        W56502  30.630  41.703  11.921
88285W        W56503   8.539  36.992   4.016
88286W        W56504  23.368  33.132   5.032
88287W        W56505  22.173   1.026  14.942
88288W        W56506  20.346  15.109   4.641
88289W        W56507   7.803  31.128   3.664
88290W        W56508  15.560  14.223   4.279
88291W        W56509   0.819  36.601  12.729
88292W        W56510  27.527  20.272   4.821
88293W        W56511  24.122   1.188  11.200
88294W        W56512  30.700  14.748  14.263
88295W        W56513  21.248   9.780   0.243
88296W        W56514   8.755  41.943  12.513
88297W        W56515  38.295   3.917  11.602
88298W        W56516   4.370  42.914   1.188
88299W        W56517  20.128   7.766  14.838
88300W        W56518  12.171   5.178   2.269
88301W        W56519  15.211  14.510  14.859
88302W        W56520  38.761  26.512   3.313
88303W        W56521  22.151  29.644   2.617
88304W        W56522  10.178  33.619  12.110
88305W        W56523  36.957  33.201  14.841
88306W        W56524  12.340  14.634   2.095
88307W        W56525  15.157  24.307  11.564
88308W        W56526  18.668  12.657   3.221
88309W        W56527   3.780  27.489   3.638
88310W        W56528  39.360  28.394  10.652
88311W        W56529  12.197   0.719  14.031
88312W        W56530  19.234  16.215  14.302
88313W        W56531   3.268  36.825   0.220
88314W        W56532  38.560  10.479   2.788
88315W        W56533   4.166  37.733   2.699
88316W        W56534  17.851  44.309   3.656
88317W        W56535  26.654   4.838  10.428
88318W        W56536  38.770  39.301  10.992
88319W        W56537  18.799  30.575  11.159
88320W        W56538  33.940  19.668   4.687
88321W        W56539  24.103   0.286   4.552
88322W        W56540   9.712  38.828   0.609
88323W        W56541  13.117  36.946   4.601
88324W        W56542  17.566  43.272  13.979
88325W        W56543   4.444  22.957  12.128
88326W        W56544  39.746  20.055   0.334
88327W        W56545  29.409  33.809  14.039
88328W        W56546  43.868  32.365  14.941
88329W        W56547  24.300  14.615  14.376
88330W        W56548  24.179  12.319   0.750
88331W        W56549   4.404  26.543   4.631
88332W        W56550  27.318  15.142   3.626
88333W        W56551  18.369   4.718  13.905
88334W        W56552   0.075  19.327   2.775
88335W        W56553  24.873   4.451  13.559
88336W        W56554   2.454  33.141  12.474
88337W        W56555  13.818  41.819   1.692
88338W        W56556   9.952   9.929   4.445
88339W        W56557   6.005  19.698   2.848
88340W        W56558   5.974  15.253  12.396
88341W        W56559  41.313  39.300   3.203
88342W        W56560  44.291  40.229  13.509
88343W        W56561   2.196  40.772  12.610
88344W        W56562   1.274  29.112   1.875
88345W        W56563  33.421   9.416   2.894
88346W        W56564   8.791  32.409   3.290
88347W        W56565   5.719  10.239   4.596
88348W        W56566  20.575  11.389  14.921
88349W        W56567  34.837  14.173   1.789
88350W        W56568  24.587  19.741   0.346
88351W        W56569  12.542   2.451   9.978
88352W        W56570  37.111   3.819   1.917
88353W        W56571  16.052  40.089   3.309
88354W        W56572   7.921  31.217   1.138
88355W        W56573  15.977  11.849   2.171
88356W        W56574  19.523  38.956   0.912
88357W        W56575  39.038  29.968   4.918
88358W        W56576  36.566  17.450   2.431
88359W        W56577  32.663  16.587  10.990
88360W        W56578  30.947  15.219  12.080
88361W        W56579  25.021   9.791   3.245
88362W        W56580  12.449   2.832  14.858
88363W        W56581  24.686   3.097   0.800
88364W        W56582  37.167   9.211   3.650
88365W        W56583   6.944  42.269  11.031
88366W        W56584  17.260  32.609  11.637
88367W        W56585  18.221  32.786   3.560
88368W        W56586  23.643  21.624  14.562
88369W        W56587  31.818  21.122  12.468
88370W        W56588  20.654  30.938  11.183
88371W        W56589   1.769   9.234   4.147
88372W        W56590  41.975  20.981   0.939
88373W        W56591  20.718  39.316   4.561
88374W        W56592  11.529  13.590   2.726
88375W        W56593  39.076   7.536  12.002
88376W        W56594  36.120  40.386  12.513
88377W        W56595   7.397  41.923  14.670
88378W        W56596  37.916  34.676  14.800
88379W        W56597  13.201  36.981  13.507
88380W        W56598  35.122  26.919  13.999
88381W        W56599  19.448  17.049   4.037
88382W        W56600   4.918  31.386  12.773
88383W        W56601   8.111   6.397   3.263
88384W        W56602   2.831  34.216  13.911
88385W        W56603  24.306  44.695   3.758
88386W        W56604  13.007  31.119   3.062
88387W        W56605  18.301  21.040  14.015
88388W        W56606  26.950   5.561   1.878
88389W        W56607   8.432  41.425  11.681
88390W        W56608   6.734  32.479   1.939
88391W        W56609  23.305   6.622   2.092
88392W        W56610  16.210  44.027   0.812
88393W        W56611  20.050  20.677   0.287
88394W        W56612  24.870  22.711   4.824
88395W        W56613  28.986  14.139   1.791
88396W        W56614  12.244   0.688  14.937
88397W        W56615   8.198  15.456   5.402
88398W        W56616   8.376  20.129  10.489
88399W        W56617  40.439  36.493  12.954
88400W        W56618  38.480  36.096   2.546
88401W        W56619  23.507   2.867  10.596
88402W        W56620  15.105  32.141   3.624
88403W        W56621  33.515  22.525   4.922
88404W        W56622   4.033  43.560   3.347
88405W        W56623  12.667   3.727   0.486
88406W        W56624  30.898  27.048   3.402
88407W        W56625  10.474   2.178   0.315
88408W        W56626  36.594  20.553   4.210
88409W        W56627   2.110  20.587   3.212
88410W        W56628  10.163   9.189   4.091
88411W        W56629  28.585  17.722   5.048
88412W        W56630   8.858   7.221  10.673
88413W        W56631   7.349  19.983  13.516
88414W        W56632  16.001  12.101  12.935
88415W        W56633  16.657  37.648  13.401
88416W        W56634  20.531  44.213   1.778
88417W        W56635  24.228  17.236  12.081
88418W        W56636  39.697  23.056  12.415
88419W        W56637   3.349  17.523  13.474
88420W        W56638  17.364  13.096  13.269
88421W        W56639  13.628   6.216  12.915
88422W        W56640  19.710   9.653  10.803
88423W        W56641   7.905  32.833   1.818
88424W        W56642  34.977  36.069   2.431
88425W        W56643  10.152  37.559   2.437
88426W        W56644  28.534  32.427   4.756
88427W        W56645  33.576  20.011   0.826
88428W        W56646   5.304  31.688  11.166
88429W        W56647  13.791   0.280  14.292
88430W        W56648   6.665  20.847  14.804
88431W        W56649  18.315  32.901  10.543
88432W        W56650  28.553  18.748   2.251
88433W        W56651  22.647  12.211  14.960
88434W        W56652  29.834   7.180   2.405
88435W        W56653  17.545  25.230   3.819
88436W        W56654  23.371  23.104  10.402
88437W        W56655   2.020  39.821  11.086
88438W        W56656  28.168   7.883  11.051
88439W        W56657  21.013  29.711   2.096
88440W        W56658  14.340  22.676   1.328
88441W        W56659   1.204  26.590  10.990
88442W        W56660  25.153  32.886  14.360
88443W        W56661   0.082  22.117  12.919
88444W        W56662  32.873  24.072   3.884
88445W        W56663  22.678  28.527  13.539
88446W        W56664  35.655  39.431  13.391
88447W        W56665  37.818   8.162  13.942
88448W        W56666  22.097  19.643   0.668
88449W        W56667   9.403  31.300  13.955
88450W        W56668   0.575  21.715   1.831
88451W        W56669   3.497  31.052   0.332
88452W        W56670  10.168   1.838  12.423
88453W        W56671  11.391  12.055  14.514
88454W        W56672   2.884  33.386  11.260
88455W        W56673  22.212  39.910  13.559
88456W        W56674   3.288  26.985  13.920
88457W        W56675   8.422  40.143  10.330
88458W        W56676   6.958  42.288   3.719
88459W        W56677  42.848  34.165   1.217
88460W        W56678   6.650  42.344  13.483
88461W        W56679  34.231  12.499  10.850
88462W        W56680   2.020  30.922   1.902
88463W        W56681  15.865  19.577  13.379
88464W        W56682  19.578  18.822  12.949
88465W        W56683  25.238   7.879   4.783
88466W        W56684  12.384  27.008  11.613
88467W        W56685  30.207   7.732  11.942
88468W        W56686   0.319  13.183   1.430
88469W        W56687  31.423  29.355  11.255
88470W        W56688  35.584  24.033  13.802
88471W        W56689   1.301  28.423  11.952
88472W        W56690  17.201   2.893  10.408
88473W        W56691  42.356   7.228  10.716
88474W        W56692  13.902  24.361  10.431
88475W        W56693   7.082  44.866  13.406
88476W        W56694  18.175   8.276   4.694
88477W        W56695  11.433   7.835   0.485
88478W        W56696  21.727  43.026   1.461
88479W        W56697  36.466  24.494  12.023
88480W        W56698  41.712  33.889   2.782
88481W        W56699  30.494  21.039  12.146
88482W        W56700   4.730  43.232   3.740
88483W        W56701  25.056  24.144  11.139
88484W        W56702  25.435  31.808  12.896
88485W        W56703   2.448  29.362   3.599
88486W        W56704  40.411  27.895  12.163
88487W        W56705  15.747  11.257   4.122
88488W        W56706  42.437  36.457   0.413
88489W        W56707   5.631  10.147   2.366
88490W        W56708   6.099  21.121   2.245
88491W        W56709  24.454  20.694   0.333
88492W        W56710  31.920  26.923   1.367
88493W        W56711  27.544   6.150  14.506
88494W        W56712  36.921  31.975   0.873
88495W        W56713  38.552  26.268   1.995
88496W        W56714  42.539  10.295   3.871
88497W        W56715  43.345  30.957  12.948
88498W        W56716  19.414  33.032   2.849
88499W        W56717  38.984  34.343   4.314
88500W        W56718   7.447  16.529  13.406
88501W        W56719  40.502  10.395   4.615
88502W        W56720  32.867   4.940  13.813
88503W        W56721  12.114  19.755   3.666
88504W        W56722  39.586  39.654  14.656
88505W        W56723  36.978  41.347   1.626
88506W        W56724  16.287  41.088   3.087
88507W        W56725  32.124   1.669  11.638
88508W        W56726   5.436   0.312   3.290
88509W        W56727  33.407   1.657   4.509
88510W        W56728  43.816  27.162   0.614
88511W        W56729  10.212  22.327   3.876
88512W        W56730   4.615   4.643  11.258
88513W        W56731  40.397  42.116   3.745
88514W        W56732  16.284  29.113  10.840
88515W        W56733  29.910  35.650  12.755
88516W        W56734  44.942   3.805   1.222
88517W        W56735  42.060  19.045  11.583
88518W        W56736  32.521  26.370  10.186
88519W        W56737  20.239  33.612   3.175
88520W        W56738  30.736  24.168  12.032
88521W        W56739  29.587  41.247   1.338
88522W        W56740  40.801   4.468   5.024
88523W        W56741   5.119  14.219   4.873
88524W        W56742  39.897   1.272  14.322
88525W        W56743   8.115  16.670  12.537
88526W        W56744  19.863   5.965   2.301
88527W        W56745   4.204  18.295  14.077
88528W        W56746  44.857  18.354  12.339
88529W        W56747   9.112  40.744   4.997
88530W        W56748  13.190   7.923   3.643
88531W        W56749  41.330  42.069  10.652
88532W        W56750   2.308  44.972   3.965
88533W        W56751  20.966  24.057   4.553
88534W        W56752  41.890  20.330   0.012
88535W        W56753  25.712  36.265   4.526
88536W        W56754  31.921   2.216   4.143
88537W        W56755  36.128   3.386   3.649
88538W        W56756  18.254  33.995   0.991
88539W        W56757   4.905  28.310  12.486
88540W        W56758  16.583   7.973  12.500
88541W        W56759  32.282   0.945   1.431
88542W        W56760   9.370   8.786  14.839
88543W        W56761  20.992  29.164  14.337
88544W        W56762  26.424  21.724  12.386
88545W        W56763   5.232   2.677   3.257
88546W        W56764  20.499  22.703   2.401
88547W        W56765  41.837  14.089   3.782
88548W        W56766  22.308  37.068   1.754
88549W        W56767  26.059  21.770   5.323
88550W        W56768  27.299  11.299  11.151
88551W        W56769  29.911  25.740   1.982
88552W        W56770  42.934  41.929   0.516
88553W        W56771  26.981  36.118  14.941
88554W        W56772  20.228  35.900  13.804
88555W        W56773   3.802  19.554  10.670
88556W        W56774  27.655  20.611   4.417
88557W        W56775  24.646  17.278   2.392
88558W        W56776  36.419  13.325   4.044
88559W        W56777   9.649  24.230   2.910
88560W        W56778  23.598  36.269   1.917
88561W        W56779  22.204   1.250  11.494
88562W        W56780  10.628   6.795  12.505
88563W        W56781  18.921   2.344   5.065
88564W        W56782  42.467   5.166   3.825
88565W        W56783  40.566   2.110  14.503
88566W        W56784  12.212  35.708   3.622
88567W        W56785  13.159  14.024  12.444
88568W        W56786  38.147  34.905   2.151
88569W        W56787  26.469  32.532   1.302
88570W        W56788   3.638  34.053   3.129
88571W        W56789  44.750  21.527   0.345
88572W        W56790  11.767  13.693  14.347
88573W        W56791   6.588  29.644   3.156
88574W        W56792  44.451  21.738   4.086
88575W        W56793  30.469  37.759   3.641
88576W        W56794  25.043  31.673   4.193
88577W        W56795  19.979  23.017  12.494
88578W        W56796  29.660  32.571  12.558
88579W        W56797  37.060  24.173   1.719
88580W        W56798  43.767   1.900  12.135
88581W        W56799  16.792   1.922   5.013
88582W        W56800  29.942  43.311   1.243
88583W        W56801  13.124  27.712   4.152
88584W        W56802  44.883  15.857   1.250
88585W        W56803  38.424  37.837  11.589
88586W        W56804  33.671  33.099   1.564
88587W        W56805  14.360  32.809   4.676
88588W        W56806  23.146   5.734  11.851
88589W        W56807  22.545  30.168   0.402
88590W        W56808  22.703   1.836  10.279
88591W        W56809  35.073  27.624  11.080
88592W        W56810  18.762  38.901   2.305
88593W        W56811  12.232  16.576  12.701
88594W        W56812  28.570   6.158  10.993
88595W        W56813   5.985   9.393   3.810
88596W        W56814  20.437  11.268   0.891
88597W        W56815  26.444  10.321   3.698
88598W        W56816  11.904  21.217  12.635
88599W        W56817  38.632   7.313   3.823
88600W        W56818  25.687   5.631   0.717
88601W        W56819  12.751  15.121  12.059
88602W        W56820  24.073  32.092   0.245
88603W        W56821  44.896  23.065   4.222
88604W        W56822  28.903   9.237  11.727
88605W        W56823  32.799   3.854  11.225
88606W        W56824  43.254  10.225   2.293
88607W        W56825  10.775  31.653   3.562
88608W        W56826   3.463  27.495  11.513
88609W        W56827   0.493  42.626  14.219
88610W        W56828  29.039  17.662  13.904
88611W        W56829   3.232   3.860  12.023
88612W        W56830  19.403   8.754   2.120
88613W        W56831  16.866  17.159  13.011
88614W        W56832   0.201  44.154  14.954
88615W        W56833   1.067  15.759  10.398
88616W        W56834  18.693   7.813   0.909
88617W        W56835  43.219  28.402   1.179
88618W        W56836   1.340  28.539  14.809
88619W        W56837  38.272  30.176   3.120
88620W        W56838  31.414  25.053   1.480
88621W        W56839  13.203  10.921  11.060
88622W        W56840   8.394   0.578   3.751
88623W        W56841  40.483  23.665   3.252
88624W        W56842   2.861  44.508  10.753
88625W        W56843   1.862  43.335  13.435
88626W        W56844   4.261  11.946  13.085
88627W        W56845  28.755   5.918   4.370
88628W        W56846  25.094  23.597   4.061
88629W        W56847  30.371  36.778   0.175
88630W        W56848  17.995  12.665   5.172
88631W        W56849   0.788   6.258  11.511
88632W        W56850   4.260  30.007  13.824
88633W        W56851   7.695  14.050  13.585
88634W        W56852   7.170  14.823   4.510
88635W        W56853  25.818  17.710   2.108
88636W        W56854  29.447  10.783   0.256
88637W        W56855  27.555   4.057  13.397
88638W        W56856  30.059  23.128  10.676
88639W        W56857  14.859  15.151   1.810
88640W        W56858  16.270  11.232  12.618
88641W        W56859  10.672  28.968   0.389
88642W        W56860  23.291  13.913  10.992
88643W        W56861  39.059  31.492   4.416
88644W        W56862   8.708   7.468  13.359
88645W        W56863  42.220  36.467  14.937
88646W        W56864  35.979  43.609   4.196
88647W        W56865   7.891   9.522  11.560
88648W        W56866  17.800  42.494   4.591
88649W        W56867  13.259  11.231  12.015
88650W        W56868  35.811  35.614  13.575
88651W        W56869  41.428  11.919   2.034
88652W        W56870  43.600  26.920  11.670
88653W        W56871  32.055  41.370  14.675
88654W        W56872  19.197  11.391  14.971
88655W        W56873  34.117   8.394   3.159
88656W        W56874  13.741  35.679  11.474
88657W        W56875  41.296   4.524  12.146
88658W        W56876  17.020  42.972  12.596
88659W        W56877  17.086  15.276  14.844
88660W        W56878  34.219  42.019  12.732
88661W        W56879  15.277  33.588   0.371
88662W        W56880  30.325  22.049   4.142
88663W        W56881  22.531   2.686   1.007
88664W        W56882   1.803  31.891  13.396
88665W        W56883  27.650  37.460  11.587
88666W        W56884  40.610  31.633   0.248
88667W        W56885  20.589  17.516   2.819
88668W        W56886  39.411  24.380   3.294
88669W        W56887  36.539  27.663   2.618
88670W        W56888  10.651   2.935   2.085
88671W        W56889   1.691  40.749  12.584
88672W        W56890  37.091  21.314  14.357
88673W        W56891  33.819  28.791  11.128
88674W        W56892   9.133  32.899  12.162
88675W        W56893  24.631  29.013   2.213
88676W        W56894  37.943  12.294  14.954
88677W        W56895  14.069  33.297   0.058
88678W        W56896  23.146  27.507   3.451
88679W        W56897  19.670  19.939  11.592
88680W        W56898  25.458  37.369  12.132
88681W        W56899   1.418   9.276  11.600
88682W        W56900  41.432  21.557  12.065
88683W        W56901  31.700  31.518   3.639
88684W        W56902  31.871  17.122   0.039
88685W        W56903  40.771  36.101   2.915
88686W        W56904  36.516  19.494   1.812
88687W        W56905  10.412  41.074  13.543
88688W        W56906   3.304  29.723   1.401
88689W        W56907  35.881   8.082  13.936
88690W        W56908  32.704  32.351  12.078
88691W        W56909  41.820  14.466  11.338
88692W        W56910  41.841  44.709   2.189
88693W        W56911  41.289  21.994  11.146
88694W        W56912  12.093  11.844  11.264
88695W        W56913  17.553  42.748  14.755
88696W        W56914   0.390   3.079  12.519
88697W        W56915   9.396  26.202  11.123
88698W        W56916  13.553  41.580  13.995
88699W        W56917  38.966  36.589  11.411
88700W        W56918  17.585  23.477   2.315
88701W        W56919  27.649  23.608  10.897
88702W        W56920  32.835  34.770   4.128
88703W        W56921  26.036   9.326   1.309
88704W        W56922  15.065  28.999   3.982
88705W        W56923   1.062  17.201  12.312
88706W        W56924  30.919  44.172   4.099
88707W        W56925  22.766  40.998  11.498
88708W        W56926  20.549  13.528   2.240
88709W        W56927  10.570  44.661  12.245
88710W        W56928  39.580  13.265  11.778
88711W        W56929  35.863   6.017   2.677
88712W        W56930  10.346  26.237   3.194
88713W        W56931  42.218  43.942   3.825
88714W        W56932  32.673   4.779   2.137
88715W        W56933   9.438  40.670   1.725
88716W        W56934  23.182  36.701  11.241
88717W        W56935  35.879  31.240   3.267
88718W        W56936  33.644  28.896  14.304
88719W        W56937   0.778  28.454  10.722
88720W        W56938  43.549  37.125   2.417
88721W        W56939  22.224  14.340   0.804
88722W        W56940  18.319  36.375   0.237
88723W        W56941  36.445  43.966   3.604
88724W        W56942  36.380  32.560  14.522
88725W        W56943  29.210  10.213   1.359
88726W        W56944  44.122   2.435  12.941
88727W        W56945  24.376  28.567   2.321
88728W        W56946   4.764  34.561   0.311
88729W        W56947  38.072  36.742  12.041
88730W        W56948  16.191  24.172   4.819
88731W        W56949  14.596   9.166  12.114
88732W        W56950  21.724  36.366  12.582
88733W        W56951  27.939  15.553   1.689
88734W        W56952  16.124   1.496   4.360
88735W        W56953  21.045  35.830  13.006
88736W        W56954  38.501   6.215   1.709
88737W        W56955   9.186  19.089   0.794
88738W        W56956  36.593  30.983  13.791
88739W        W56957  14.631  12.358   4.839
88740W        W56958  19.209  24.973   3.635
88741W        W56959  41.292  41.806   2.815
88742W        W56960  25.190  13.186  10.981
88743W        W56961  21.614  40.996  14.148
88744W        W56962  23.435  17.724  12.713
88745W        W56963  10.322  26.700   0.361
88746W        W56964  40.128  16.571  11.819
88747W        W56965   6.702  10.919  12.964
88748W        W56966  37.934  37.383  14.398
88749W        W56967  41.946  36.875   1.327
88750W        W56968  29.491  16.677   4.502
88751W        W56969  16.950  37.480   2.266
88752W        W56970  15.818  41.735   1.841
88753W        W56971  26.147   1.769  14.513
88754W        W56972  14.488  21.446  11.637
88755W        W56973   6.154  30.748   0.857
88756W        W56974  12.097  33.927   0.204
88757W        W56975  38.742  26.984   0.343
88758W        W56976  18.360  15.745   5.495
88759W        W56977   1.520  13.106   2.285
88760W        W56978  38.821   8.099   1.823
88761W        W56979  20.202  23.361   2.738
88762W        W56980  32.050   1.486   3.078
88763W        W56981  31.626  43.468   4.654
88764W        W56982  29.463  32.559   2.739
88765W        W56983  25.155   6.937  12.416
88766W        W56984  37.330  37.015  11.158
88767W        W56985  39.541  44.212  10.763
88768W        W56986  10.376  44.954  13.594
88769W        W56987  41.793  28.626  10.634
88770W        W56988  38.351  44.390   0.030
88771W        W56989  44.007  41.328   3.641
88772W        W56990  32.554   1.414   4.669
88773W        W56991  32.450  42.762   0.582
88774W        W56992  17.766  23.118  11.958
88775W        W56993  41.283  24.264   0.994
88776W        W56994  23.656   1.078  14.079
88777W        W56995  21.449  24.209   4.619
88778W        W56996  39.818  15.300   1.767
88779W        W56997  11.654  21.241   5.150
88780W        W56998  39.855   4.798   3.581
88781W        W56999  41.966  21.458  11.243
88782W        W57000  21.168  25.506   2.275
88783W        W57001  13.138   6.668  14.820
88784W        W57002  14.263   8.364   2.942
88785W        W57003   4.403  42.429   1.366
88786W        W57004  23.281  23.661   3.786
88787W        W57005  32.130  15.123   1.963
88788W        W57006  22.943  27.069   4.193
88789W        W57007  25.632  29.423  13.796
88790W        W57008  25.761  34.917  13.012
88791W        W57009  44.382  40.836   2.725
88792W        W57010  25.613  35.367   3.007
88793W        W57011   9.156  25.384   2.321
88794W        W57012  42.552  44.775  12.581
88795W        W57013  38.788  26.025   2.930
88796W        W57014  22.965  44.247   3.818
88797W        W57015   1.701  32.920   1.291
88798W        W57016   5.455  20.393  11.095
88799W        W57017   0.525  10.732   2.433
88800W        W57018   3.268  11.520  11.108
88801W        W57019  13.853  32.424   3.133
88802W        W57020  18.327  20.213   0.988
88803W        W57021  42.423  19.023  13.053
88804W        W57022  20.920  19.118  14.203
88805W        W57023  16.076   2.522   0.839
88806W        W57024   4.737  35.827   3.864
88807W        W57025  11.227  10.079  12.462
88808W        W57026  26.093  37.528   0.005
88809W        W57027  30.564  36.458  12.018
88810W        W57028   9.387  32.620   0.885
88811W        W57029  19.716  25.031  11.619
88812W        W57030   5.111  12.033   2.791
88813W        W57031  25.942  33.657  13.032
88814W        W57032   8.338  23.275   0.870
88815W        W57033  36.528  33.387  10.630
88816W        W57034   2.474  44.811   3.061
88817W        W57035  13.248  33.846   1.206
88818W        W57036  43.669  31.009   4.857
88819W        W57037  17.814  30.591  13.836
88820W        W57038  28.955  43.899   1.574
88821W        W57039   0.118   4.570  10.849
88822W        W57040   5.498   8.878   3.214
88823W        W57041   8.378  13.102   1.427
88824W        W57042   4.146  24.126   2.874
88825W        W57043  33.139  32.008   4.226
88826W        W57044  12.378   1.921  11.664
88827W        W57045   7.859  39.908   0.370
88828W        W57046  12.029  44.096  10.510
88829W        W57047  21.096  31.488  10.623
88830W        W57048  31.693  32.885   3.542
88831W        W57049  39.957  22.731   1.402
88832W        W57050   8.951  38.360   0.857
88833W        W57051   8.264  31.544  14.376
88834W        W57052  10.343  34.397  14.966
88835W        W57053   8.994   5.319   0.739
88836W        W57054  33.757  43.476   2.306
88837W        W57055  30.946  15.394   2.895
88838W        W57056  33.061  23.390  11.997
88839W        W57057  35.505  18.783   3.799
88840W        W57058  40.700  29.017   3.022
88841W        W57059  12.867  40.403   1.336
88842W        W57060  15.801  29.624   2.182
88843W        W57061  21.688  17.162   1.611
88844W        W57062  33.129  10.035   3.173
88845W        W57063   0.446  44.963  11.103
88846W        W57064  22.621   1.189  12.525
88847W        W57065  24.505  25.970   2.780
88848W        W57066  43.836  34.955  10.884
88849W        W57067  44.106  24.194   2.349
88850W        W57068   0.190  29.279   1.512
88851W        W57069  12.776   8.212   3.716
88852W        W57070  34.308  39.592  10.929
88853W        W57071  36.084   2.934  13.955
88854W        W57072  36.512   2.249  13.904
88855W        W57073  23.589  16.828   2.903
88856W        W57074  28.209  35.508   0.681
88857W        W57075  20.754  14.213   3.729
88858W        W57076  13.255  17.070  10.757
88859W        W57077  17.281  32.622   0.300
88860W        W57078  36.472  43.009   1.261
88861W        W57079  38.302  28.293  13.472
88862W        W57080  22.058  23.646   1.336
88863W        W57081  16.675  43.900  12.541
88864W        W57082  24.774  13.011   2.344
88865W        W57083  11.260  42.529   2.160
88866W        W57084   5.246  34.140   3.002
88867W        W57085  32.025  24.978   2.024
88868W        W57086  35.982   8.805   1.670
88869W        W57087  15.686   1.449   2.651
88870W        W57088  23.827  35.035  14.039
88871W        W57089  22.595  12.696   2.392
88872W        W57090  11.603  23.719   3.147
88873W        W57091  40.032  17.599  12.933
88874W        W57092   2.019  29.441  12.804
88875W        W57093  15.801  21.693   4.603
88876W        W57094  30.108  30.507  12.503
88877W        W57095   9.215  23.843   3.242
88878W        W57096   4.651  44.750  12.837
88879W        W57097  28.246  27.999  14.284
88880W        W57098  24.177   9.452   4.160
88881W        W57099  33.302  38.063  14.367
88882W        W57100  30.973  18.390   0.728
88883W        W57101   4.378  31.748   3.155
88884W        W57102  22.650  13.838   0.672
88885W        W57103  17.468  30.422  14.732
88886W        W57104  39.445   3.218   3.639
88887W        W57105  41.574   3.813   2.786
88888W        W57106   7.186  18.878   3.792
88889W        W57107  43.792  33.080  11.052
88890W        W57108  27.929  33.555   0.280
88891W        W57109  38.451   8.678   0.895
88892W        W57110  27.871  38.504   3.374
88893W        W57111  15.625  18.926  11.773
88894W        W57112  17.646   6.821  14.851
88895W        W57113  27.970  24.902  14.285
88896W        W57114  38.860  38.636  13.005
88897W        W57115  37.006  35.440  13.856
88898W        W57116  29.900  43.871  12.021
88899W        W57117  28.613  44.512   0.397
88900W        W57118  23.043  25.481  11.880
88901W        W57119  35.427  39.292  11.950
88902W        W57120  17.654  16.138  14.859
88903W        W57121  33.978  18.128   0.748
88904W        W57122  18.202  28.000   1.786
88905W        W57123  26.228  37.588  11.398
88906W        W57124  43.586  31.943   1.293
88907W        W57125  40.475  16.819   2.715
88908W        W57126  33.568  11.999   4.527
88909W        W57127   1.363  30.195  13.114
88910W        W57128  24.044  16.713  14.711
88911W        W57129   5.903  28.964  12.801
88912W        W57130  20.162  34.443   2.311
88913W        W57131  12.290  21.752  13.420
88914W        W57132  22.273  30.798  12.502
88915W        W57133   6.713   2.919  13.730
88916W        W57134   0.868  29.877   4.853
88917W        W57135   4.796  43.121  12.878
88918W        W57136  17.966  22.463   3.647
88919W        W57137  23.015   2.473  11.611
88920W        W57138  32.511   1.534  11.309
88921W        W57139  10.692  27.422  12.972
88922W        W57140   7.943  20.487  12.058
88923W        W57141   6.370  28.243   2.743
88924W        W57142   0.906  34.967  14.466
88925W        W57143  42.217  42.101  12.457
88926W        W57144  19.492   0.777   2.210
88927W        W57145  33.576   1.841  10.773
88928W        W57146  41.433   3.007   1.776
88929W        W57147   2.318  16.052  11.131
88930W        W57148  30.536  15.315   3.212
88931W        W57149  17.829  39.869  13.714
88932W        W57150  40.438  33.585   5.029
88933W        W57151  14.666   7.784   2.345
88934W        W57152  44.327  18.009  12.015
88935W        W57153  24.469  15.300   1.406
88936W        W57154  30.950   6.690   4.060
88937W        W57155   4.792  29.587   4.105
88938W        W57156   4.932  32.645  11.942
88939W        W57157  34.385  16.436   0.753
88940W        W57158  24.379  30.098  10.721
88941W        W57159  43.514   3.822   3.825
88942W        W57160  19.191   9.302   0.760
88943W        W57161  43.810  32.537   0.441
88944W        W57162  26.724  23.240   4.524
88945W        W57163  35.211  11.347  11.317
88946W        W57164  12.734  25.633   1.474
88947W        W57165   7.720  15.691  13.860
88948W        W57166   9.419  39.087   4.001
88949W        W57167  25.633  10.960   3.095
88950W        W57168  44.453   4.326  11.614
88951W        W57169  41.924  25.014   0.605
88952W        W57170  22.329  27.378  11.205
88953W        W57171  17.803  39.354  10.677
88954W        W57172  24.497   7.141   3.771
88955W        W57173  30.845   3.162  13.459
88956W        W57174  25.030  29.911   0.900
88957W        W57175  10.586  24.415   0.346
88958W        W57176   2.929  27.095   1.718
88959W        W57177  24.367  23.030   9.713
88960W        W57178  17.175  28.306   4.800
88961W        W57179  33.489   6.216   3.256
88962W        W57180  36.256   0.512   4.099
88963W        W57181  11.691  29.620   1.453
88964W        W57182  25.543  29.061  12.506
88965W        W57183  23.945  40.914   2.613
88966W        W57184  44.974   1.850  11.161
88967W        W57185  18.288   1.808   4.093
88968W        W57186   5.638  40.107   1.743
88969W        W57187   9.904  18.808   4.174
88970W        W57188  25.668   9.407   3.339
88971W        W57189  39.296  27.530  11.099
88972W        W57190   3.081  11.725   5.109
88973W        W57191  34.863  35.920  14.496
88974W        W57192  15.046  13.914   9.770
88975W        W57193  33.550  36.427  10.609
88976W        W57194  11.319  15.512   2.773
88977W        W57195  24.460  41.887   4.101
88978W        W57196  15.237   1.736  14.989
88979W        W57197   4.786  10.796   3.616
88980W        W57198  24.625  36.405   1.193
88981W        W57199  10.225  12.260  12.607
88982W        W57200   0.898   1.207  11.114
88983W        W57201  24.121  41.722  10.578
88984W        W57202  37.285  26.978   1.887
88985W        W57203   0.992  17.151   4.121
88986W        W57204  38.383  17.017  14.502
88987W        W57205  27.149  16.032   2.727
88988W        W57206  36.921  12.501   1.289
88989W        W57207  34.007   1.986  10.516
88990W        W57208  38.938  34.210   0.883
88991W        W57209  22.582  23.203  11.564
88992W        W57210  41.239  42.253  12.954
88993W        W57211  17.341   0.854   4.004
88994W        W57212  13.671  27.406   1.397
88995W        W57213  26.731  10.383  10.691
88996W        W57214  33.445   6.836   1.884
88997W        W57215  32.408  28.167   2.757
88998W        W57216   8.796  37.418  11.670
88999W        W57217  40.899   2.475  11.053
89000W        W57218   7.363  27.032   2.863
89001W        W57219  33.533  16.071  14.067
89002W        W57220  37.028  24.941  12.486
89003W        W57221  44.226  20.441   0.377
89004W        W57222  19.583  37.566   5.066
89005W        W57223   6.978   8.191   4.352
89006W        W57224   6.644  11.681  13.909
89007W        W57225  20.752   9.767   3.326
89008W        W57226  20.826  37.337  12.334
89009W        W57227  37.415  39.407   2.747
89010W        W57228  16.006  21.572   1.802
89011W        W57229  44.574  19.375  12.515
89012W        W57230  14.608  26.234   1.815
89013W        W57231  32.168   5.179   3.194
89014W        W57232   9.558  16.223   0.962
89015W        W57233  38.681   1.089  12.991
89016W        W57234  28.448  32.650   3.410
89017W        W57235  14.408  22.728   2.676
89018W        W57236   5.714   2.380   1.289
89019W        W57237   6.461  20.573   4.115
89020W        W57238  27.062  28.681   4.321
89021W        W57239  10.388   5.813   1.901
89022W        W57240  21.163   1.211  12.944
89023W        W57241   5.463  28.422   2.842
89024W        W57242  42.364  10.878  14.398
89025W        W57243  40.033  16.208   1.990
89026W        W57244  16.952  20.166  12.057
89027W        W57245  31.745  36.833  11.436
89028W        W57246   8.603  10.887  11.143
89029W        W57247   6.763  11.187  13.430
89030W        W57248  14.911  43.233  11.636
89031W        W57249  30.116  31.931  13.091
89032W        W57250  22.692   9.202   9.857
89033W        W57251  20.610  28.475   0.489
89034W        W57252  30.578   6.861  10.262
89035W        W57253  32.687  26.755   2.011
89036W        W57254  29.556  36.996  11.130
89037W        W57255   4.685   1.820  14.749
89038W        W57256   0.386  39.299   1.669
89039W        W57257  44.983   0.018   2.656
89040W        W57258  44.328   0.283   1.340
89041W        W57259  12.796  32.573   4.812
89042W        W57260   4.119  41.916   9.806
89043W        W57261   4.833  40.420  11.682
89044W        W57262  39.518  27.627  13.391
89045W        W57263  35.212  43.547   1.464
89046W        W57264   7.798  23.306   3.212
89047W        W57265  13.846  21.502  11.455
89048W        W57266   7.280  26.028  10.705
89049W        W57267  21.184  17.544  11.885
89050W        W57268  14.821  32.629  14.267
89051W        W57269  24.564  11.691  14.314
89052W        W57270  14.052  39.762  14.466
89053W        W57271  32.920  34.507  12.512
89054W        W57272  24.361   8.754   0.360
89055W        W57273  19.767  13.847   1.875
89056W        W57274   3.492  15.174  11.105
89057W        W57275  38.165  37.386  13.850
89058W        W57276  39.608  19.538  10.607
89059W        W57277   6.171   3.220  11.451
89060W        W57278  21.607  42.956  10.504
89061W        W57279  29.120  28.614   2.756
89062W        W57280  14.803  15.302   2.785
89063W        W57281   9.692  26.166   4.324
89064W        W57282  33.341   3.697   3.283
89065W        W57283   0.726  24.090   4.077
89066W        W57284  19.928  36.827  13.817
89067W        W57285  37.528   2.285  11.122
89068W        W57286  42.418  33.737  13.003
89069W        W57287  14.110  34.881  10.636
89070W        W57288   9.277   0.296  13.564
89071W        W57289  42.501  27.472   3.619
89072W        W57290   6.706   3.879  14.937
89073W        W57291  19.190  41.772   1.396
89074W        W57292  24.107  26.028  12.365
89075W        W57293   9.086  44.288   4.160
89076W        W57294  25.531   4.367   3.761
89077W        W57295  37.129  44.306  11.601
89078W        W57296  31.511   8.700   4.837
89079W        W57297  10.213  24.109   4.019
89080W        W57298  27.423  28.408  11.539
89081W        W57299   9.310  33.875  11.668
89082W        W57300  18.281   4.987   3.989
89083W        W57301   1.474  21.911   3.195
89084W        W57302  42.535  32.883  13.915
89085W        W57303  44.467   8.878   3.272
89086W        W57304  38.189  30.657  13.410
89087W        W57305   8.978  33.130  14.162
89088W        W57306  36.183  29.000  13.373
89089W        W57307   9.638   3.328  11.280
89090W        W57308  15.598  17.235   4.365
89091W        W57309  11.415  31.460  14.727
89092W        W57310  26.826  17.733   4.529
89093W        W57311  20.588  28.963   1.274
89094W        W57312  20.322  30.562   4.038
89095W        W57313  21.627   7.915  14.902
89096W        W57314   5.079  43.572   2.838
89097W        W57315  25.104  39.717  10.844
89098W        W57316  35.180  31.567  12.952
89099W        W57317  37.934  24.396   4.631
89100W        W57318   1.981  19.243   1.230
89101W        W57319  16.129  30.577  14.555
89102W        W57320  35.440   0.049  11.485
89103W        W57321  16.570  40.862  11.005
89104W        W57322  22.750   5.740   2.308
89105W        W57323  44.976  25.430  14.759
89106W        W57324  37.910  37.608  11.075
89107W        W57325   1.811   7.237  10.770
89108W        W57326   1.986  29.988  14.933
89109W        W57327  18.679  21.603   4.604
89110W        W57328  12.305  28.714  14.343
89111W        W57329   9.939  21.275   4.662
89112W        W57330  24.084   3.789   4.855
89113W        W57331  30.164  43.266   3.787
89114W        W57332  41.743  44.342   4.056
89115W        W57333  25.866  41.367   3.457
89116W        W57334  18.514  25.112   0.900
89117W        W57335  24.711   0.281   1.204
89118W        W57336  40.980  23.379   1.994
89119W        W57337  11.763  44.801   0.479
89120W        W57338  18.585  43.810  12.000
89121W        W57339   1.291  18.268  13.620
89122W        W57340  10.183   9.185  13.456
89123W        W57341  28.563   8.690  11.167
89124W        W57342  16.728  33.876  12.647
89125W        W57343   8.641  42.177  14.819
89126W        W57344  19.667  31.777   1.320
89127W        W57345  22.330   6.568   1.813
89128W        W57346  31.576  15.218   5.024
89129W        W57347  37.329  42.133   2.135
89130W        W57348  15.763   2.326   4.903
89131W        W57349  10.351   0.920   2.430
89132W        W57350  15.932  41.937   0.494
89133W        W57351  16.235  33.477  11.647
89134W        W57352  21.396  26.981   4.128
89135W        W57353  26.306  39.966  12.099
89136W        W57354   3.476  13.707   0.250
89137W        W57355  24.489  22.004   5.040
89138W        W57356  24.556  25.513  14.943
89139W        W57357  40.036  10.102   1.918
89140W        W57358  44.237  35.083   0.468
89141W        W57359  37.367  31.976  14.539
89142W        W57360  39.399  37.535   3.117
89143W        W57361  27.919  44.250   4.269
89144W        W57362  25.250   5.193  13.881
89145W        W57363  21.751   6.213   2.934
89146W        W57364  35.653  41.888   1.754
89147W        W57365  36.572  34.675  14.917
89148W        W57366  23.396   1.903  11.012
89149W        W57367  35.333   0.816   0.371
89150W        W57368  31.231  23.746   3.202
89151W        W57369  42.046  36.832  13.419
89152W        W57370  35.017  13.029  12.113
89153W        W57371  33.894  15.405  14.070
89154W        W57372  35.061  28.703  11.238
89155W        W57373  35.084  31.176   0.447
89156W        W57374   5.427  38.424  14.389
89157W        W57375  35.398  10.865  14.033
89158W        W57376  33.077   6.245  12.157
89159W        W57377  41.953   1.805  10.725
89160W        W57378  28.383  44.717  12.893
89161W        W57379   6.313  20.453   1.441
89162W        W57380  41.035  41.387   0.752
89163W        W57381  43.742  12.730  12.418
89164W        W57382  38.030  24.915   4.626
89165W        W57383  22.311   9.838  12.849
89166W        W57384   5.860  12.855   4.350
89167W        W57385  28.513  35.944   1.814
89168W        W57386  42.273  11.831   0.702
89169W        W57387   4.259  34.128  10.567
89170W        W57388   6.169  28.987  11.619
89171W        W57389  10.714  26.228   1.908
89172W        W57390  29.173   6.500   0.810
89173W        W57391  21.177  36.128   3.349
89174W        W57392  25.194  34.827  13.717
89175W        W57393  24.258  16.307   2.019
89176W        W57394  18.010  13.384   2.224
89177W        W57395  29.982  31.318   2.291
89178W        W57396   1.843  44.065   1.933
89179W        W57397   3.478  30.483   1.616
89180W        W57398  11.245  42.539   3.571
89181W        W57399   0.827   3.274   3.777
89182W        W57400  37.310  30.135   2.358
89183W        W57401  44.044  18.973   4.893
89184W        W57402  11.832  29.868  12.538
89185W        W57403  26.117  40.950   1.612
89186W        W57404  44.798  19.812  14.550
89187W        W57405  10.147  29.530  11.334
89188W        W57406   5.971   2.207  13.883
89189W        W57407   3.166  40.456   0.150
89190W        W57408  29.005  31.128   3.711
89191W        W57409   8.266  21.207  11.625
89192W        W57410  13.074  22.050   3.864
89193W        W57411  14.242  38.897  12.914
89194W        W57412  24.042   5.786  13.038
89195W        W57413  20.792  12.592   4.417
89196W        W57414  18.774  23.318   0.979
89197W        W57415   3.285  18.457  11.519
89198W        W57416  30.095  31.291  14.247
89199W        W57417  25.486   2.519  10.645
89200W        W57418   8.161   6.361  14.158
89201W        W57419  42.520   4.542  13.052
89202W        W57420  11.101  32.667  12.291
89203W        W57421  25.932  13.771   2.863
89204W        W57422  29.898   4.959  11.128
89205W        W57423  30.996  12.610   4.606
89206W        W57424  18.558   0.208  14.909
89207W        W57425  15.192  35.558  10.679
89208W        W57426  23.791   8.217  10.483
89209W        W57427   0.040  33.111   4.150
89210W        W57428  31.475  22.787   2.803
89211W        W57429  39.543  22.003   2.685
89212W        W57430   4.525  11.094  13.277
89213W        W57431  13.007  13.182  10.754
89214W        W57432  10.277  25.899  10.795
89215W        W57433  20.114  14.647   0.903
89216W        W57434  29.939  34.737   1.771
89217W        W57435   7.365  27.513  12.035
89218W        W57436  26.440  27.501   3.849
89219W        W57437   9.731  17.305  14.479
89220W        W57438  12.114  24.556  12.943
89221W        W57439  20.672  27.489  14.283
89222W        W57440   2.835  30.983  12.861
89223W        W57441  42.482  34.283   3.591
89224W        W57442  20.519  44.988  13.098
89225W        W57443  43.417  33.918   0.518
89226W        W57444  32.417  38.275   3.718
89227W        W57445  39.514  44.734   4.528
89228W        W57446  22.548   2.504   4.187
89229W        W57447  34.424  26.806   2.665
89230W        W57448  27.670  17.017  12.536
89231W        W57449  39.522  12.063  14.966
89232W        W57450  29.519   2.349   0.802
89233W        W57451   0.492  23.755  12.361
89234W        W57452  14.806  27.114   4.284
89235W        W57453   3.034  37.873   1.962
89236W        W57454  40.784  11.797  11.618
89237W        W57455  35.139  12.802  14.942
89238W        W57456   9.840  31.158  11.032
89239W        W57457  22.228  27.538   0.964
89240W        W57458  31.988  29.814   1.695
89241W        W57459  30.457  26.754   3.336
89242W        W57460  31.360  43.500   4.198
89243W        W57461   6.228  21.135  13.547
89244W        W57462  20.091   2.652  14.861
89245W        W57463  44.803  29.085   3.866
89246W        W57464  37.866  40.278   1.071
89247W        W57465  10.216   5.860  11.127
89248W        W57466  24.433   6.419   4.247
89249W        W57467   3.411  43.235  12.529
89250W        W57468  35.978  20.241   4.215
89251W        W57469  17.733  15.636   2.118
89252W        W57470  44.438  33.559   4.067
89253W        W57471  43.503  42.814   0.322
89254W        W57472  25.891  14.013   4.781
89255W        W57473  18.509   6.123  10.267
89256W        W57474   2.407   1.430  13.214
89257W        W57475  15.708  31.842   4.841
89258W        W57476   7.080  19.152   0.792
89259W        W57477  18.643  30.940  14.680
89260W        W57478  14.221  18.984   1.956
89261W        W57479  13.387  23.533  12.446
89262W        W57480  11.709  25.350   2.757
89263W        W57481   6.271  31.358   3.634
89264W        W57482  27.035  21.502  10.181
89265W        W57483  29.610   1.018  13.683
89266W        W57484  12.885  10.827   0.478
89267W        W57485  38.411   4.746  10.575
89268W        W57486  19.708  30.662   3.669
89269W        W57487   5.215  39.190  11.768
89270W        W57488   9.779  23.187  14.428
89271W        W57489  41.821  11.734   1.742
89272W        W57490  27.978   3.595   4.551
89273W        W57491  18.537  10.197  13.473
89274W        W57492  37.455  40.374   0.747
89275W        W57493   8.684  14.363  11.498
89276W        W57494  23.935  17.287   3.776
89277W        W57495  26.107  35.936  13.729
89278W        W57496  30.371  17.130  14.807
89279W        W57497   3.457  36.408   0.491
89280W        W57498  33.652  12.684   1.748
89281W        W57499  17.068   0.047   0.757
89282W        W57500   6.142  25.531  13.986
89283W        W57501  26.290   4.338   1.394
89284W        W57502  29.422  23.743   0.204
89285W        W57503  19.579  10.098   3.174
89286W        W57504   2.301  38.109  10.987
89287W        W57505  41.507  23.779  11.380
89288W        W57506  20.131  29.912   3.736
89289W        W57507  24.977   9.211   4.689
89290W        W57508  25.192  26.102  14.987
89291W        W57509  31.710   7.826  13.600
89292W        W57510   2.307  19.721   2.920
89293W        W57511  21.815  33.650  11.470
89294W        W57512  26.197  12.923  12.965
89295W        W57513  10.101  17.403  13.332
89296W        W57514   4.644  30.475  12.364
89297W        W57515  25.488  40.042  12.562
89298W        W57516  23.231   3.332  14.528
89299W        W57517   0.321  35.185   1.845
89300W        W57518  32.549  39.530  11.480
89301W        W57519  17.520  29.895   1.932
89302W        W57520  17.255   2.221  12.026
89303W        W57521  31.512  37.347   0.406
89304W        W57522  33.281   5.289   2.583
89305W        W57523   1.390  35.592   2.791
89306W        W57524  43.943  37.978   2.909
89307W        W57525  43.548   6.139  13.935
89308W        W57526  18.693   1.687  13.947
89309W        W57527  34.135  18.695   2.194
89310W        W57528   5.860   1.767   0.915
89311W        W57529   0.398  35.395  11.626
89312W        W57530  15.112  44.241  10.644
89313W        W57531   3.422   6.823   4.549
89314W        W57532   7.868   5.918  12.776
89315W        W57533  10.191   6.155  12.416
89316W        W57534  18.031   9.995  11.135
89317W        W57535  20.589  33.969   3.845
89318W        W57536  16.797  42.199   3.366
89319W        W57537  37.341  26.375   2.779
89320W        W57538  19.119  14.311   2.790
89321W        W57539   1.753  12.083  12.145
89322W        W57540   2.390   0.633  12.038
89323W        W57541   5.858  37.173  10.590
89324W        W57542   5.911   0.375  12.792
89325W        W57543  41.208   7.865   2.342
89326W        W57544  16.046  14.686   3.967
89327W        W57545  22.182  21.085   4.582
89328W        W57546  21.239  24.345   1.446
89329W        W57547   2.220   3.968   2.684
89330W        W57548  22.717  19.087  14.713
89331W        W57549  37.874  14.280   3.677
89332W        W57550  21.555   1.915  11.422
89333W        W57551  36.391  43.278   4.222
89334W        W57552  22.348   6.194  11.607
89335W        W57553  19.819  25.816  10.693
89336W        W57554  28.065  27.165   2.555
89337W        W57555  17.836  41.366   1.368
89338W        W57556  34.348  34.090   0.262
89339W        W57557  33.370  11.121   2.265
89340W        W57558  44.964  24.562  10.661
89341W        W57559  28.572  17.111  12.470
89342W        W57560  25.398  37.096  10.996
89343W        W57561   4.690  10.336   4.530
89344W        W57562  43.710  29.153   3.634
89345W        W57563   0.859   6.924  14.575
89346W        W57564  34.346  30.051   3.392
89347W        W57565  16.617  43.703   4.719
89348W        W57566  12.403  13.211   1.203
89349W        W57567  26.022  19.412   0.656
89350W        W57568  22.317  40.314  11.193
89351W        W57569  27.214  21.237  11.592
89352W        W57570  22.469  36.870  14.367
89353W        W57571  33.789   0.316  13.984
89354W        W57572  44.395  35.945   2.923
89355W        W57573  28.822  12.483  10.703
89356W        W57574  37.692  35.648   4.218
89357W        W57575  31.238   6.424   9.704
89358W        W57576  18.343   6.468  13.613
89359W        W57577  42.433  13.958   2.464
89360W        W57578   8.572  13.884   0.954
89361W        W57579  19.752   3.676  12.898
89362W        W57580  11.717  31.962  11.898
89363W        W57581  40.473  22.721   2.255
89364W        W57582  13.672   5.461   3.693
89365W        W57583  25.927   8.642   2.178
89366W        W57584  39.878   5.512   0.947
89367W        W57585   7.706  23.552  14.312
89368W        W57586  33.717  36.050   2.256
89369W        W57587  34.048   5.605   2.433
89370W        W57588  25.963  32.398   1.912
89371W        W57589   2.333  39.417  11.128
89372W        W57590   2.644  32.259   1.529
89373W        W57591  36.143   3.592   3.177
89374W        W57592  12.681  35.679   2.761
89375W        W57593  36.978  26.052  13.511
89376W        W57594  15.116  29.671  11.499
89377W        W57595  38.321  22.656   4.696
89378W        W57596  21.470   4.742   3.413
89379W        W57597  33.401   8.728  14.074
89380W        W57598   0.221  21.117  14.887
89381W        W57599  41.624  20.795  13.807
89382W        W57600  31.627  15.815  14.802
89383W        W57601  20.603   1.061   0.933
89384W        W57602  36.849   7.616  11.553
89385W        W57603  43.958  31.089  14.320
89386W        W57604  42.421  14.627  12.996
89387W        W57605   3.873   5.248  14.274
89388W        W57606   5.833  27.614   0.920
89389W        W57607   4.035  24.271  12.053
89390W        W57608  44.426  36.704  14.810
89391W        W57609  40.808  42.527  13.935
89392W        W57610  18.377   5.937  11.159
89393W        W57611  28.153  16.608   1.875
89394W        W57612   9.634  36.698   2.339
89395W        W57613   0.888   8.874   1.640
89396W        W57614  15.568  31.383   2.734
89397W        W57615  38.509  23.498  13.998
89398W        W57616  23.748  11.348  13.276
89399W        W57617  44.736  37.387   0.502
89400W        W57618  24.474   0.889  14.533
89401W        W57619  39.368  33.792   2.760
89402W        W57620  38.041   8.544   2.873
89403W        W57621  30.671  11.807   0.082
89404W        W57622  15.760   2.282   4.308
89405W        W57623  25.145   9.268  10.674
89406W        W57624  18.598  16.569   1.308
89407W        W57625  23.976   1.383   0.298
89408W        W57626   3.835  20.971   1.872
89409W        W57627   7.371  38.135   1.781
89410W        W57628  11.975  13.786   1.911
89411W        W57629  38.972  37.407   0.434
89412W        W57630  11.830  42.003   4.138
89413W        W57631  41.357  31.133  11.588
89414W        W57632   0.204  40.977   3.730
89415W        W57633  33.989  27.414  11.368
89416W        W57634  21.581  22.429  12.985
89417W        W57635   8.650  39.756   4.187
89418W        W57636  44.692   8.788  11.615
89419W        W57637   7.870  26.424   1.798
89420W        W57638  25.572  29.437  11.192
89421W        W57639  36.051   7.778   0.717
89422W        W57640   1.716  43.230   1.422
89423W        W57641   1.434  43.250  14.718
89424W        W57642  35.985  29.148  10.534
89425W        W57643   0.722  25.750   2.733
89426W        W57644   1.805  13.186  13.487
89427W        W57645  24.958  21.117   4.403
89428W        W57646  18.813   5.979   4.091
89429W        W57647  43.942   3.381   2.720
89430W        W57648  23.157  39.210   1.698
89431W        W57649  18.315  37.373   2.784
89432W        W57650   6.389  15.754   0.255
89433W        W57651   0.602  27.992  12.458
89434W        W57652  19.327   4.835   0.893
89435W        W57653   2.394  26.060   3.825
89436W        W57654  23.046  29.380   3.741
89437W        W57655  27.893  22.049  13.981
89438W        W57656  18.845   0.446  13.208
89439W        W57657  14.867  19.718   0.974
89440W        W57658   1.363  27.145   1.943
89441W        W57659   3.658  34.132  12.900
89442W        W57660   1.067  30.487   2.155
89443W        W57661  12.900   4.914   2.818
89444W        W57662  13.730  22.972   4.690
89445W        W57663  19.518  28.982   2.785
89446W        W57664  11.986  31.327   1.023
89447W        W57665  11.741   4.341   2.629
89448W        W57666  21.944   8.332   1.429
89449W        W57667  28.153  10.434  13.007
89450W        W57668  32.571   2.299   2.147
89451W        W57669  42.110  35.536  11.957
89452W        W57670  15.691  14.720   2.216
89453W        W57671  42.520   4.705   4.619
89454W        W57672  14.134   4.254   0.813
89455W        W57673  12.406  26.790  12.086
89456W        W57674  29.946  24.988   3.909
89457W        W57675   0.670  44.054  12.942
89458W        W57676  35.867   3.560  14.601
89459W        W57677  25.439  42.569   3.862
89460W        W57678   6.156  29.506   0.732
89461W        W57679  22.275   7.358  14.426
89462W        W57680  35.865   6.187  13.990
89463W        W57681  27.370  33.549  13.019
89464W        W57682  28.466  41.066  13.022
89465W        W57683  35.080  31.867   3.185
89466W        W57684  18.805  40.315  12.578
89467W        W57685  20.486  21.020   0.249
89468W        W57686   4.607  42.443   1.822
89469W        W57687  36.536  33.596   1.496
89470W        W57688  16.637  19.715   3.437
89471W        W57689   1.639  17.689   4.479
89472W        W57690  31.484   8.667   1.238
89473W        W57691  44.464   4.503  12.085
89474W        W57692  44.402  24.543   3.643
89475W        W57693  15.362  14.169  14.352
89476W        W57694   0.392  39.771  14.814
89477W        W57695  30.912  26.223  12.961
89478W        W57696  26.021   9.650   1.722
89479W        W57697  25.066  16.689  11.539
89480W        W57698   6.741  36.736   1.806
89481W        W57699  39.930  14.690  14.994
89482W        W57700  33.725  24.150  11.844
89483W        W57701  33.102  37.139  14.148
89484W        W57702   6.408  17.609  12.884
89485W        W57703  44.005  23.059  10.469
89486W        W57704  34.412   6.812   3.600
89487W        W57705  24.463   4.984   0.588
89488W        W57706  31.637  15.796  11.617
89489W        W57707  40.923  30.174  14.548
89490W        W57708  39.888  15.670  10.539
89491W        W57709  43.295  17.494  12.806
89492W        W57710   5.252   2.514   2.278
89493W        W57711  34.889   0.492  12.850
89494W        W57712  37.114   6.312   0.353
89495W        W57713  21.615  36.334  13.362
89496W        W57714   5.991   9.815   4.548
89497W        W57715  39.190  32.877  13.772
89498W        W57716  24.331  26.101  10.420
89499W        W57717  38.111   2.430  12.965
89500W        W57718   7.657   1.803   3.608
89501W        W57719  10.660   5.613  11.181
89502W        W57720  12.564   8.201   4.192
89503W        W57721  14.043   2.833   0.416
89504W        W57722  31.004   5.482   1.775
89505W        W57723  36.951  18.100   1.761
89506W        W57724  21.605  43.256   3.262
89507W        W57725   4.812   5.236  13.385
89508W        W57726  39.072  14.146   2.320
89509W        W57727  10.338  36.806  13.199
89510W        W57728  12.114  24.524   4.647
89511W        W57729  14.616   1.897  11.721
89512W        W57730  39.565   6.774  10.766
89513W        W57731  42.895   5.225   3.167
89514W        W57732  12.512  15.711   4.414
89515W        W57733  40.559  29.060  11.143
89516W        W57734  25.549  32.156  13.281
89517W        W57735  21.969  12.115   3.708
89518W        W57736  19.701  27.752   3.180
89519W        W57737   1.452  10.536  10.254
89520W        W57738  27.444  18.199   2.930
89521W        W57739   6.800  21.266   0.770
89522W        W57740  19.440  24.097   3.107
89523W        W57741  34.527  29.123   3.642
89524W        W57742  17.137  31.623  11.156
89525W        W57743  36.238  41.945  13.596
89526W        W57744  43.530  26.658  11.225
89527W        W57745  13.766  36.795   2.840
89528W        W57746  23.426  42.818   2.299
89529W        W57747  18.841  31.165   3.192
89530W        W57748  44.201   9.368   9.909
89531W        W57749   5.329  29.532  11.532
89532W        W57750  35.336  40.547  11.126
89533W        W57751  21.569  29.990  12.402
89534W        W57752  15.293  28.956  13.426
89535W        W57753  27.560   6.604  13.683
89536W        W57754  38.848   3.855  10.899
89537W        W57755  35.374  29.155   1.540
89538W        W57756  36.073   9.645  11.155
89539W        W57757  41.021  34.070  14.392
89540W        W57758  25.930  15.066   3.404
89541W        W57759  23.894   8.666   3.018
89542W        W57760  40.841  17.619  11.175
89543W        W57761  12.112  41.440  14.091
89544W        W57762  37.558  17.284  12.953
89545W        W57763  32.615  35.035   1.206
89546W        W57764  21.306  28.002   5.132
89547W        W57765  32.837   6.896   3.315
89548W        W57766   3.904  27.710  11.716
89549W        W57767  11.928  36.610  11.100
89550W        W57768  20.688  22.102  11.638
89551W        W57769  23.229  29.492  12.014
89552W        W57770  12.655  19.750   0.733
89553W        W57771  33.584   8.817   4.076
89554W        W57772  36.645  22.805  14.356
89555W        W57773  24.474   2.947  11.971
89556W        W57774  24.296   3.771   0.502
89557W        W57775  12.818   9.854  12.098
89558W        W57776  31.869   0.471  14.407
89559W        W57777  33.629   0.140   0.925
89560W        W57778  33.372  41.917   2.254
89561W        W57779  31.500  22.279  11.597
89562W        W57780  14.058  28.508   4.671
89563W        W57781  16.477  15.002   9.719
89564W        W57782  24.663  18.327   0.771
89565W        W57783  40.901  33.130  10.516
89566W        W57784   8.399  32.356  10.497
89567W        W57785  18.205  27.040   4.321
89568W        W57786  13.102   7.843  12.629
89569W        W57787  10.842  10.231   2.377
89570W        W57788  41.984  13.823   2.171
89571W        W57789  40.746   5.604   0.130
89572W        W57790  36.413  10.311   3.189
89573W        W57791  22.636  35.828   1.731
89574W        W57792  24.928   3.708   0.401
89575W        W57793   8.140  13.939  13.846
89576W        W57794  31.159  25.638   2.918
89577W        W57795  38.382  34.790   3.180
89578W        W57796   5.173  18.246   1.224
89579W        W57797  12.298  13.055  12.604
89580W        W57798  41.267  12.825   1.503
89581W        W57799  28.615  37.369  11.757
89582W        W57800  27.468  35.961   3.773
89583W        W57801  17.740  35.321  12.914
89584W        W57802  35.861  38.779   3.353
89585W        W57803   1.962  40.472  11.599
89586W        W57804  19.044  30.925   4.958
89587W        W57805   4.181  22.457   2.268
89588W        W57806   5.862   4.426  10.725
89589W        W57807  41.359  25.215  14.318
89590W        W57808  39.920  14.067   4.306
89591W        W57809  40.777   3.902   1.667
89592W        W57810   9.867  30.698  12.903
89593W        W57811   3.807  41.920   4.600
89594W        W57812  20.527  31.508   1.578
89595W        W57813   4.172  23.441   0.439
89596W        W57814  33.027  20.450   1.933
89597W        W57815  22.677  42.717  10.695
89598W        W57816  24.988  28.237  11.768
89599W        W57817  41.822  44.939  14.987
89600W        W57818  42.875  20.142  11.173
89601W        W57819  39.301  12.820  14.562
89602W        W57820   9.481  33.360  13.473
89603W        W57821   3.531  26.634  10.778
89604W        W57822  38.262  14.652  12.932
89605W        W57823  31.158  30.589   4.987
89606W        W57824  21.946  24.203   4.506
89607W        W57825  40.222  28.617  12.031
89608W        W57826  29.028  22.718  13.099
89609W        W57827  32.707  12.231  14.401
89610W        W57828  32.795  41.868   4.326
89611W        W57829  44.627  12.321  11.009
89612W        W57830  44.190  12.410  14.340
89613W        W57831   2.810  26.110  11.626
89614W        W57832  34.082   5.276   4.628
89615W        W57833  21.610   3.690   5.189
89616W        W57834  17.719  36.941   4.570
89617W        W57835  32.941  44.417  12.028
89618W        W57836  34.083   8.246  14.380
89619W        W57837   0.742  16.815  14.749
89620W        W57838  33.560  23.116  13.156
89621W        W57839  22.220   7.589   1.815
89622W        W57840   7.230  16.523   1.224
89623W        W57841  18.064  15.331   1.305
89624W        W57842  41.301  36.471   0.817
89625W        W57843  21.365  41.919   2.144
89626W        W57844  31.894  18.107   4.376
89627W        W57845  33.974  38.294   3.178
89628W        W57846  17.201  30.894   2.755
89629W        W57847  28.972  44.796   1.003
89630W        W57848  29.519  12.639  11.604
89631W        W57849  20.801   7.950  11.402
89632W        W57850  16.552   4.969   1.234
89633W        W57851  33.777  36.286   0.770
89634W        W57852  44.967   7.311   4.597
89635W        W57853  38.921  16.342   1.341
89636W        W57854  37.415  34.332  11.509
89637W        W57855  39.452  31.993  14.911
89638W        W57856   1.348  25.248  12.400
89639W        W57857  26.032  44.448   1.636
89640W        W57858  38.508  14.616  13.867
89641W        W57859  32.705  20.324  12.060
89642W        W57860  26.453   5.867   2.180
89643W        W57861  41.378   2.809  13.720
89644W        W57862  10.870  23.986  11.063
89645W        W57863  15.851   6.080   3.152
89646W        W57864   6.748  44.045   2.350
89647W        W57865   8.602   4.190   1.790
89648W        W57866   7.845  34.875   1.257
89649W        W57867  41.888  21.083   3.619
89650W        W57868  23.631  24.008  14.241
89651W        W57869  13.691  21.019  14.434
89652W        W57870  34.667  10.237   2.278
89653W        W57871  44.743  11.776   3.255
89654W        W57872  16.981  17.710  13.349
89655W        W57873  38.094  14.676   2.899
89656W        W57874  18.314  36.464   1.669
89657W        W57875  18.671  31.201  13.826
89658W        W57876  15.577  33.479  10.625
89659W        W57877  14.653  41.788  14.403
89660W        W57878  32.849  30.969   2.277
89661W        W57879  18.816   7.426  14.048
89662W        W57880  23.776  10.824  11.244
89663W        W57881  41.499  22.906  12.496
89664W        W57882  27.898  14.691   0.305
89665W        W57883   8.068  34.065  14.444
89666W        W57884   1.968  27.414   0.469
89667W        W57885  38.565  16.873   0.876
89668W        W57886  17.238   1.532   0.818
89669W        W57887  39.565  24.235   2.806
89670W        W57888   2.987   5.214  14.519
89671W        W57889  39.401  21.303   4.406
89672W        W57890  23.974  30.450  12.942
89673W        W57891  25.803  13.560   5.050
89674W        W57892  33.439   2.416  12.962
89675W        W57893  11.389  15.388  11.996
89676W        W57894  21.237  41.986   0.399
89677W        W57895  35.918   2.897   4.253
89678W        W57896  43.919   5.355  10.970
89679W        W57897  17.269  19.096  11.323
89680W        W57898  10.552  14.312  12.513
89681W        W57899   4.360  18.914   3.283
89682W        W57900  41.804  25.370   3.825
89683W        W57901  24.213  27.623  14.889
89684W        W57902  24.293  37.554   9.756
89685W        W57903   9.885  39.606  11.856
89686W        W57904  29.035  30.041   4.700
89687W        W57905  30.517   1.900  12.089
89688W        W57906   0.787   8.483   2.939
89689W        W57907  11.877   0.289   4.168
89690W        W57908  12.689  30.466  10.738
89691W        W57909  40.517   6.357   3.504
89692W        W57910  15.311   2.485   4.065
89693W        W57911  23.084  25.469   4.612
89694W        W57912  36.907   5.279   2.891
89695W        W57913  14.114  21.633  12.413
89696W        W57914  16.748  13.391  14.290
89697W        W57915  11.142  11.735   2.290
89698W        W57916  34.064  27.924   1.366
89699W        W57917   4.842  25.436  14.675
89700W        W57918   1.928  17.774   1.852
89701W        W57919  12.202  28.359  11.912
89702W        W57920   0.237  17.171   0.331
89703W        W57921  30.203  21.055  11.707
89704W        W57922  33.212  38.003   3.422
89705W        W57923   5.139  32.006  14.041
89706W        W57924   8.892  21.635   1.735
89707W        W57925  38.439  19.592   2.453
89708W        W57926  11.681  22.171  14.048
89709W        W57927  41.029  29.715  13.857
89710W        W57928  21.169  43.360  12.532
89711W        W57929  30.523  11.519  13.850
89712W        W57930  29.118  24.006  12.522
89713W        W57931   3.441  14.297   0.917
89714W        W57932  25.457  40.345   1.093
89715W        W57933  42.463  40.604  12.331
89716W        W57934  10.975  27.484   1.712
89717W        W57935  17.953  27.834  10.953
89718W        W57936   1.206  37.242   1.272
89719W        W57937  30.908  39.456   0.785
89720W        W57938   2.666  37.091   0.724
89721W        W57939  12.569  38.989  10.582
89722W        W57940   3.238  12.287  10.801
89723W        W57941  33.013  35.998  13.015
89724W        W57942  25.591  43.447   4.636
89725W        W57943  20.640  25.991  11.769
89726W        W57944  17.907  14.385  14.004
89727W        W57945  12.330  17.234  13.963
89728W        W57946  37.934  10.656   4.803
89729W        W57947  29.108  26.243   2.837
89730W        W57948  26.983  24.470   3.792
89731W        W57949  44.125  27.660  14.517
89732W        W57950   1.427   3.980   1.183
89733W        W57951  28.418  15.030   2.466
89734W        W57952  40.542  44.794   2.866
89735W        W57953  12.618  21.650   0.938
89736W        W57954   7.881  30.459  13.044
89737W        W57955   6.867  42.317  11.545
89738W        W57956  27.934   0.600   1.690
89739W        W57957  34.064   8.964   2.335
89740W        W57958   3.849   6.721   0.346
89741W        W57959  39.791  41.048  14.903
89742W        W57960   8.419  43.298   0.399
89743W        W57961  31.614   9.224  13.538
89744W        W57962  14.615  32.175   0.404
89745W        W57963  32.495  15.108  12.612
89746W        W57964  10.790  43.606   1.000
89747W        W57965  22.685  26.182   4.497
89748W        W57966   1.925  33.596  14.029
89749W        W57967   2.143  21.012  14.277
89750W        W57968   6.871  18.135  12.430
89751W        W57969  29.845  23.555   0.498
89752W        W57970  43.267  38.203  12.580
89753W        W57971   6.976  19.796   4.628
89754W        W57972  20.025  37.254  14.609
89755W        W57973   5.663  16.802   4.110
89756W        W57974  17.026  12.208  12.975
89757W        W57975   2.421  27.925   2.989
89758W        W57976   3.577  15.645  12.382
89759W        W57977   9.845  15.539  12.626
89760W        W57978  12.095  38.886  13.408
89761W        W57979  40.496   3.011   0.198
89762W        W57980  29.265   8.786  14.160
89763W        W57981  35.084  20.508   1.413
89764W        W57982  44.840  27.146   1.177
89765W        W57983  16.235  41.614  12.581
89766W        W57984  21.923  10.913   3.311
89767W        W57985   5.432  34.120   4.628
89768W        W57986  21.588   0.081  13.546
89769W        W57987   6.273   7.123   4.205
89770W        W57988   7.622   4.003   0.784
89771W        W57989  27.903   2.186  12.489
89772W        W57990  39.520  10.711  14.896
89773W        W57991  35.991  10.206   0.528
89774W        W57992  11.897   5.118   0.968
89775W        W57993  44.498  32.863   3.341
89776W        W57994  40.898  35.321   0.907
89777W        W57995  23.042   1.503   4.970
89778W        W57996  19.173  23.453  13.788
89779W        W57997  17.633  42.480  10.694
89780W        W57998  11.799  24.718   4.075
89781W        W57999  14.582  41.944  12.835
89782W        W58000  24.140  33.555  12.824
89783W        W58001  41.689   3.362   0.503
89784W        W58002  25.700  37.585   1.235
89785W        W58003   5.418  38.027  11.135
89786W        W58004  30.762  14.568   3.699
89787W        W58005  23.644  14.123  10.705
89788W        W58006  25.606  35.496   3.907
89789W        W58007  16.355  43.468  12.518
89790W        W58008  24.962  28.658   4.132
89791W        W58009  30.562  29.436  11.493
89792W        W58010   1.293  21.405  11.141
89793W        W58011  24.122  19.149  14.867
89794W        W58012   9.013  42.564   2.798
89795W        W58013  33.296  38.225   1.324
89796W        W58014   6.369  34.773  10.297
89797W        W58015  15.103  38.210  11.066
89798W        W58016  22.117  22.648  14.706
89799W        W58017  22.598  14.233  10.576
89800W        W58018  40.643   1.506   1.373
89801W        W58019  31.158  19.513   1.601
89802W        W58020  33.281  26.784   0.715
89803W        W58021   5.637  35.077   0.499
89804W        W58022  22.722  12.058  13.390
89805W        W58023  21.938  24.079   0.924
89806W        W58024   7.655  38.152  12.852
89807W        W58025  24.951  29.108   4.512
89808W        W58026   0.753  14.437  12.566
89809W        W58027   0.938  20.026   4.218
89810W        W58028  11.112  15.649   3.777
89811W        W58029  14.862   0.914  14.973
89812W        W58030  14.644  23.043  10.730
89813W        W58031  22.465  15.698   3.248
89814W        W58032   8.335  39.031  10.892
89815W        W58033  34.279   8.276  12.538
89816W        W58034  13.777  37.015  13.926
89817W        W58035  28.100  24.647  11.455
89818W        W58036   4.767   0.719   4.193
89819W        W58037  11.827  32.619   3.822
89820W        W58038  21.679  40.244   2.280
89821W        W58039  21.337  37.028   1.771
89822W        W58040   3.183  13.756   1.684
89823W        W58041   7.682  28.150  11.966
89824W        W58042  22.946  16.040   9.952
89825W        W58043  13.612  22.247   2.879
89826W        W58044  21.065  41.956   2.787
89827W        W58045  41.409  40.981  11.723
89828W        W58046   4.503  33.399   1.416
89829W        W58047  30.927  12.298   3.091
89830W        W58048  40.377  42.532   4.586
89831W        W58049  28.018  33.434   2.094
89832W        W58050   3.548  14.685   1.372
89833W        W58051  13.792  20.737  13.768
89834W        W58052  17.117  29.207   0.839
89835W        W58053  17.380   8.901   5.161
89836W        W58054   7.820  28.499   1.846
89837W        W58055  12.811  13.617  12.123
89838W        W58056  17.627   0.875   5.012
89839W        W58057  41.889  26.358   3.660
89840W        W58058  34.435  42.704  12.831
89841W        W58059   6.726   8.783   4.816
89842W        W58060   3.111   3.683   1.797
89843W        W58061  27.038  42.560  14.337
89844W        W58062  36.376  26.580  10.015
89845W        W58063  34.066  40.351  14.840
89846W        W58064   7.422  29.865   3.437
89847W        W58065  40.270  21.875  14.011
89848W        W58066  28.122  32.753   1.287
89849W        W58067  26.139   3.366   4.195
89850W        W58068   5.158  21.284  13.796
89851W        W58069   4.772  18.540   1.385
89852W        W58070  12.983   5.148  10.987
89853W        W58071  33.481  31.775  14.917
89854W        W58072  19.669  16.737   4.968
89855W        W58073   2.662  21.667  11.423
89856W        W58074  22.127  11.611  12.971
89857W        W58075  18.839  24.191  11.536
89858W        W58076  42.402  18.231  12.417
89859W        W58077  43.465  16.833   1.605
89860W        W58078  19.103  18.293  13.473
89861W        W58079  31.577  34.624  10.607
89862W        W58080   1.090  33.998   2.801
89863W        W58081  44.916   9.232  12.618
89864W        W58082   3.536   2.230   0.972
89865W        W58083  29.189   8.262   1.414
89866W        W58084  34.452  12.224   4.614
89867W        W58085  20.715  15.608   4.215
89868W        W58086  10.645   8.122   2.123
89869W        W58087  40.698  28.779   0.348
89870W        W58088  39.381  33.453   0.950
89871W        W58089  34.689  37.785   1.450
89872W        W58090  38.698  24.509  11.718
89873W        W58091  36.134  32.502  11.772
89874W        W58092  25.108  18.534   0.616
89875W        W58093  39.451  39.349  10.564
89876W        W58094  17.021   5.755   4.500
89877W        W58095  37.239  43.742   2.481
89878W        W58096  35.074  36.372  11.886
89879W        W58097  32.613   9.792   0.434
89880W        W58098  18.854   4.545  13.957
89881W        W58099  35.626  32.341   3.776
89882W        W58100   5.777  15.841  13.112
89883W        W58101  26.531  19.720  10.274
89884W        W58102  20.820  20.948  14.336
89885W        W58103   6.244   6.295   4.763
89886W        W58104  33.399  24.999  14.856
89887W        W58105  44.455  24.748  12.915
89888W        W58106  44.426  11.396  10.233
89889W        W58107   9.513  31.009  13.532
89890W        W58108  44.178  16.831  11.981
89891W        W58109  33.497  23.516   1.811
89892W        W58110  38.968  38.127  10.285
89893W        W58111   1.844  20.966  10.586
89894W        W58112   3.713  21.530  12.957
89895W        W58113  20.689  43.511  12.435
89896W        W58114   4.526   6.762   5.146
89897W        W58115  44.026  18.263   1.826
89898W        W58116   8.806  16.765   3.204
89899W        W58117  11.201  21.229   2.314
89900W        W58118  40.553   1.186  10.707
89901W        W58119  41.660  40.443  12.827
89902W        W58120   1.711  34.321  11.520
89903W        W58121  35.434   8.821  11.034
89904W        W58122  43.804   9.926  10.669
89905W        W58123   1.279   5.864  12.461
89906W        W58124  23.734  32.406  13.482
89907W        W58125  15.349   3.300  11.617
89908W        W58126  29.746   8.979  11.660
89909W        W58127  22.637  31.889  12.314
89910W        W58128  21.093   0.772  14.738
89911W        W58129  29.186  13.281   4.564
89912W        W58130  29.027   9.278  10.610
89913W        W58131  21.163  36.643  13.429
89914W        W58132  41.090   3.357   5.403
89915W        W58133   2.765   5.317  12.395
89916W        W58134   9.939   3.950   2.917
89917W        W58135  11.140  37.096  11.915
89918W        W58136  41.816  17.613   4.919
89919W        W58137  39.410  17.412  11.921
89920W        W58138  44.593  32.217  10.758
89921W        W58139  19.503  15.598  12.371
89922W        W58140  36.034  16.361  10.737
89923W        W58141  39.746  40.392   0.748
89924W        W58142  30.646  37.903  12.493
89925W        W58143  12.150  33.348   2.683
89926W        W58144  13.415  36.147  12.400
89927W        W58145   3.802  28.367   3.340
89928W        W58146  37.967  25.512   4.614
89929W        W58147  26.836  15.325  13.480
89930W        W58148   8.663   6.162   3.133
89931W        W58149  14.782  44.018   0.823
89932W        W58150   9.459   5.955  12.879
89933W        W58151  18.597   9.952   3.760
89934W        W58152  17.383   6.824   1.816
89935W        W58153  27.172   1.972  13.043
89936W        W58154   9.726  29.807  11.148
89937W        W58155  41.840  40.640  14.482
89938W        W58156  43.555  12.704   1.135
89939W        W58157   9.994  28.999  13.287
89940W        W58158  41.004  10.133   0.808
89941W        W58159  27.901  14.107  11.701
89942W        W58160  41.477  10.843  10.393
89943W        W58161  26.875   7.678   2.330
89944W        W58162   3.492   6.817  14.953
89945W        W58163  25.570  44.903   2.204
89946W        W58164  31.688  20.913  14.366
89947W        W58165  43.074   7.308  13.811
89948W        W58166  24.122  31.192  12.434
89949W        W58167  37.277  37.163   1.114
89950W        W58168  32.587  17.891  13.099
89951W        W58169  17.663  19.193  12.603
89952W        W58170   0.470  19.833  11.587
89953W        W58171  31.914   0.212   3.618
89954W        W58172  37.852  18.592   0.111
89955W        W58173   2.427   0.777   4.701
89956W        W58174  24.171  21.635  10.780
89957W        W58175  12.960  10.665  10.669
89958W        W58176  11.477   9.373   0.447
89959W        W58177   9.335  25.992  10.573
89960W        W58178   3.907  26.200   4.251
89961W        W58179  35.203  32.592   0.062
89962W        W58180  11.768   9.892  10.650
89963W        W58181  28.458  36.597  10.908
89964W        W58182   1.268  38.572  11.564
89965W        W58183  18.492  20.797   4.087
89966W        W58184  19.258  28.011   3.329
89967W        W58185  29.989  18.720  14.928
89968W        W58186  13.640  39.980   2.169
89969W        W58187  36.540  18.091   4.785
89970W        W58188  34.297  42.202  13.922
89971W        W58189  10.446   3.990   3.007
89972W        W58190  31.700   5.876  13.466
89973W        W58191  23.904  22.879   4.585
89974W        W58192  29.422  14.085   2.072
89975W        W58193   2.354  38.921   2.325
89976W        W58194  14.453  30.030   0.961
89977W        W58195  25.996   7.974   0.494
89978W        W58196  21.112  10.354   1.194
89979W        W58197  32.022  44.055   4.667
89980W        W58198   5.042   9.322  10.078
89981W        W58199  42.521   8.053  12.796
89982W        W58200   2.077  33.052  11.047
89983W        W58201  29.889  26.465   3.205
89984W        W58202   7.679  23.424  13.819
89985W        W58203  32.429  42.394   0.168
89986W        W58204   0.735  35.335   4.069
89987W        W58205   0.058  31.426   0.902
89988W        W58206  33.413   3.068   1.296
89989W        W58207  36.896  30.686  12.466
89990W        W58208  10.689   1.630  12.468
89991W        W58209  27.432  11.189   2.236
89992W        W58210  44.069  21.284   3.399
89993W        W58211  44.310  38.417   4.119
89994W        W58212  19.224  30.046  13.435
89995W        W58213   9.812  15.584   3.171
89996W        W58214   2.753  22.001   2.231
89997W        W58215   4.769  29.655   2.646
89998W        W58216  37.576   9.272  14.075
89999W        W58217  29.069  31.087  14.748
90000W        W58218  40.616  36.889   3.162
90001W        W58219  39.426  29.049  12.364
90002W        W58220  15.342   5.256   1.360
90003W        W58221  36.054   8.106   1.807
90004W        W58222  31.914  42.294   0.840
90005W        W58223  33.436  37.086   4.502
90006W        W58224  31.045  30.578   2.233
90007W        W58225  28.977  18.854   5.487
90008W        W58226   9.755  44.329  13.441
90009W        W58227   3.445  31.920  12.944
90010W        W58228  20.682  35.326   0.506
90011W        W58229  29.709   5.957   4.071
90012W        W58230  23.068  13.903   1.480
90013W        W58231   6.773  37.433  14.624
90014W        W58232  11.296  28.713  10.661
90015W        W58233  27.947  32.481  13.846
90016W        W58234  25.371   4.839   0.502
90017W        W58235  15.056   4.726   9.985
90018W        W58236  39.628   7.293   2.327
90019W        W58237  27.647  11.326   3.159
90020W        W58238  44.338   6.851  11.613
90021W        W58239   6.189   6.170  13.999
90022W        W58240  38.389  43.822   1.342
90023W        W58241  38.880   5.319  13.100
90024W        W58242  15.279  23.303   2.730
90025W        W58243  27.311  10.292  11.556
90026W        W58244   6.419  29.951  14.972
90027W        W58245  15.770  25.114   1.526
90028W        W58246  35.617  11.564   4.718
90029W        W58247  35.440  33.933  12.223
90030W        W58248  41.020   0.049   4.558
90031W        W58249  16.716  33.558  14.648
90032W        W58250  26.348   0.388  14.466
90033W        W58251  24.903   3.766   3.597
90034W        W58252  26.948  33.554   3.567
90035W        W58253  19.231  20.501   3.615
90036W        W58254  35.893  41.110  10.790
90037W        W58255   5.605  16.588  12.625
90038W        W58256   2.167  21.325   2.088
90039W        W58257  12.782   0.526   3.747
90040W        W58258  34.090  17.496   3.256
90041W        W58259  20.602  15.858   3.729
90042W        W58260   3.737  13.277   0.506
90043W        W58261  28.997   7.495   2.677
90044W        W58262  39.329  38.030   0.911
90045W        W58263   6.789  35.242  13.520
90046W        W58264  40.997  36.010  13.529
90047W        W58265  42.424  29.594   0.189
90048W        W58266  12.739  27.939  11.605
90049W        W58267   0.392  30.711  12.019
90050W        W58268  11.800  35.073  13.457
90051W        W58269  36.942   2.795  13.447
90052W        W58270  30.918  19.623  10.869
90053W        W58271  27.697  12.865   3.696
90054W        W58272   0.795  31.709  12.597
90055W        W58273  36.508   0.494   4.552
90056W        W58274  13.469   6.755  10.686
90057W        W58275  26.113  14.288   2.890
90058W        W58276  32.927  32.871  12.804
90059W        W58277  14.887  34.273   4.618
90060W        W58278  14.756   3.620   2.293
90061W        W58279  25.941  32.528   1.392
90062W        W58280  15.614  24.303  11.778
90063W        W58281   4.706   1.444  12.034
90064W        W58282  23.293  24.497  12.407
90065W        W58283   9.460  43.501   0.242
90066W        W58284   0.375  16.759   2.600
90067W        W58285  11.570  14.139  11.558
90068W        W58286  35.198  33.220  11.143
90069W        W58287   4.797   0.260   2.634
90070W        W58288  29.984  10.385   0.899
90071W        W58289  36.698  27.788   3.566
90072W        W58290   6.874   0.388  12.767
90073W        W58291   0.387  28.187   0.255
90074W        W58292   0.711   3.470   0.880
90075W        W58293  12.215  19.616  14.355
90076W        W58294  19.327   8.299   2.492
90077W        W58295  28.657  41.405   2.319
90078W        W58296   6.190  10.844   4.130
90079W        W58297  38.456   0.674   3.166
90080W        W58298  16.500  23.429   4.062
90081W        W58299   3.404   4.390  11.553
90082W        W58300  35.974  20.299  10.584
90083W        W58301  35.539  37.306  13.354
90084W        W58302  31.706  33.102  11.562
90085W        W58303  20.793  21.808  12.058
90086W        W58304  36.108  15.584  11.147
90087W        W58305  10.604  41.516   2.788
90088W        W58306  17.061  28.918  14.865
90089W        W58307  17.357  15.784   2.445
90090W        W58308  18.677  14.493  13.782
90091W        W58309  39.952  25.327  13.620
90092W        W58310  17.790  35.566   3.683
90093W        W58311  22.572  23.441  10.272
90094W        W58312   9.189  27.489  11.683
90095W        W58313   6.824   5.441  14.888
90096W        W58314  24.174  44.463   2.149
90097W        W58315  11.321  36.225   1.359
90098W        W58316  44.868  35.809   0.103
90099W        W58317  19.657   1.932  13.575
90100W        W58318   2.537  32.015  10.019
90101W        W58319  40.859   1.102  10.273
90102W        W58320  35.139   8.836  12.889
90103W        W58321   6.266  22.867   1.331
90104W        W58322  38.357  26.530   0.912
90105W        W58323  42.316  31.475   1.209
90106W        W58324  19.739  14.184   3.139
90107W        W58325  35.434  16.817  14.936
90108W        W58326   4.843   0.853   4.706
90109W        W58327  26.817  38.089  12.922
90110W        W58328   6.542   5.897   1.149
90111W        W58329  23.988  37.633   2.937
90112W        W58330  24.285   1.952  14.565
90113W        W58331  42.515   0.272   2.780
90114W        W58332  17.246  18.771   1.426
90115W        W58333   5.178   4.464  12.121
90116W        W58334   1.708  42.805   2.352
90117W        W58335  14.064  27.455  14.779
90118W        W58336  21.242  41.786  11.623
90119W        W58337  26.938  42.040  14.362
90120W        W58338  33.919  11.396   2.239
90121W        W58339  30.431   3.272   0.800
90122W        W58340  23.207   4.985   0.794
90123W        W58341  40.994  34.435  11.452
90124W        W58342  20.324  36.461   1.562
90125W        W58343   3.033  27.676  14.878
90126W        W58344  40.127   1.161   4.575
90127W        W58345  31.004  35.057  14.927
90128W        W58346  17.174  39.384   3.356
90129W        W58347  44.694  36.237  14.847
90130W        W58348  30.926  26.549  12.555
90131W        W58349  16.721  35.129  12.703
90132W        W58350  18.315  26.048   1.330
90133W        W58351  12.196  35.397  11.822
90134W        W58352  32.922  36.112   2.644
90135W        W58353   9.791  38.324  14.438
90136W        W58354   1.741  18.004   2.394
90137W        W58355   0.762  16.643   4.460
90138W        W58356  27.390  13.245  11.809
90139W        W58357  29.903  44.409  10.348
90140W        W58358  26.502  39.351  10.938
90141W        W58359  23.641   5.777  11.013
90142W        W58360   6.370  26.892  14.186
90143W        W58361  17.220  13.674   0.421
90144W        W58362  17.032  35.622  11.729
90145W        W58363  28.360  17.809   0.415
90146W        W58364  19.271  26.656  14.233
90147W        W58365  37.861  18.493   2.892
90148W        W58366  44.148  14.160  12.070
90149W        W58367  29.330   2.901   0.203
90150W        W58368  38.665  23.663  11.177
90151W        W58369   9.214  14.189   1.463
90152W        W58370  31.058  29.455  11.590
90153W        W58371  19.117   9.279   4.048
90154W        W58372  10.235  38.109  13.509
90155W        W58373  41.249  23.189   0.482
90156W        W58374  20.247  40.854   1.821
90157W        W58375   3.754  29.005   0.255
90158W        W58376  18.506  43.490   2.926
90159W        W58377  21.839  15.668  11.754
90160W        W58378  38.584  37.542   3.626
90161W        W58379  12.235  22.517   0.512
90162W        W58380  34.043  39.313  10.596
90163W        W58381  32.776   6.248  10.680
90164W        W58382   6.913  29.536  13.820
90165W        W58383  33.171  16.587   2.420
90166W        W58384  17.762  40.873   1.213
90167W        W58385   6.563  40.212   5.589
90168W        W58386  15.295  42.272   1.202
90169W        W58387   8.256  31.157  12.009
90170W        W58388  42.202   3.949   3.171
90171W        W58389   5.878  17.004  14.453
90172W        W58390  13.676   8.162  13.950
90173W        W58391  32.995  14.106  13.251
90174W        W58392   9.419   2.987  12.524
90175W        W58393  34.449  11.429   3.554
90176W        W58394  38.666  28.080   4.648
90177W        W58395  29.970  29.662  10.296
90178W        W58396  41.655   8.102  14.290
90179W        W58397  32.436  39.310   0.892
90180W        W58398   7.367  25.054   3.743
90181W        W58399  37.020  34.870  11.470
90182W        W58400   8.295   3.630   1.193
90183W        W58401  12.623  27.903   1.466
90184W        W58402  27.980   2.979   2.676
90185W        W58403   7.272  19.502  14.448
90186W        W58404  24.047  36.932   2.176
90187W        W58405  43.240   2.828   3.258
90188W        W58406  28.282  24.614   1.864
90189W        W58407  28.273   4.565   4.705
90190W        W58408  12.624  35.182   3.649
90191W        W58409  11.208  26.927   2.581
90192W        W58410  44.283  18.848  14.906
90193W        W58411  13.196  18.288   0.393
90194W        W58412  19.569   3.835   2.721
90195W        W58413  23.120  28.739  13.430
90196W        W58414   0.702  14.883   2.591
90197W        W58415  32.356  17.322  10.601
90198W        W58416  17.578  30.413  13.387
90199W        W58417  16.085   0.400   3.375
90200W        W58418  28.063  14.743   2.202
90201W        W58419  16.258  18.190   3.640
90202W        W58420  19.222  31.243   4.136
90203W        W58421  39.934  20.079   1.768
90204W        W58422  13.055   8.869  11.075
90205W        W58423  10.663   6.137  11.166
90206W        W58424  42.681  17.805  11.519
90207W        W58425  43.088  24.219  13.427
90208W        W58426  13.354  29.823  14.818
90209W        W58427   4.742  14.411  11.488
90210W        W58428  41.474  25.994  11.436
90211W        W58429  10.847  17.273  10.694
90212W        W58430  21.212   7.307  11.921
90213W        W58431  21.469  26.445  12.661
90214W        W58432   2.249  17.657  12.107
90215W        W58433  12.285   9.734   4.307
90216W        W58434   5.909  14.528  13.501
90217W        W58435   7.257  10.632  11.143
90218W        W58436  37.490  27.494   4.284
90219W        W58437  44.529  13.571   1.655
90220W        W58438  38.127  21.931   2.267
90221W        W58439  19.131   3.499  14.412
90222W        W58440  20.024  25.884  12.502
90223W        W58441  27.821  38.796  13.551
90224W        W58442  30.082   8.986   4.981
90225W        W58443  39.438  23.237  14.817
90226W        W58444  16.913  10.595  14.750
90227W        W58445  35.553  42.237  14.318
90228W        W58446   7.194  25.499  11.574
90229W        W58447  22.048  44.709   0.648
90230W        W58448  15.197  44.561  11.040
90231W        W58449  23.654  33.153  10.093
90232W        W58450  17.522  34.540  12.464
90233W        W58451  29.157  30.121  12.985
90234W        W58452   6.805  24.300   4.705
90235W        W58453  35.953  40.404   1.730
90236W        W58454  39.615  33.171  13.768
90237W        W58455  40.588  43.331  11.182
90238W        W58456   7.519  13.277   4.425
90239W        W58457   6.186  22.102   3.887
90240W        W58458  37.022   7.116   2.682
90241W        W58459  12.495  31.430  11.502
90242W        W58460  21.447   3.061  12.716
90243W        W58461   5.296   6.365   2.350
90244W        W58462   0.810  42.472  12.009
90245W        W58463  43.812  26.940  13.436
90246W        W58464  43.872  30.088   0.286
90247W        W58465   8.319  26.695   1.755
90248W        W58466  39.081  23.671   1.280
90249W        W58467  28.612  30.272   3.637
90250W        W58468  20.783   0.352  12.861
90251W        W58469   6.656  42.866   2.351
90252W        W58470   8.139  43.329   1.725
90253W        W58471   4.262  23.152  13.852
90254W        W58472  38.885   1.006  14.360
90255W        W58473  18.017  26.591  12.237
90256W        W58474  39.381   9.370   3.603
90257W        W58475  10.121   8.323   4.780
90258W        W58476  44.867   0.471   3.639
90259W        W58477   7.819  43.123  12.072
90260W        W58478  13.827   6.814  11.368
90261W        W58479  42.498  34.964  13.614
90262W        W58480  11.682  22.245   1.887
90263W        W58481  17.487  10.080   4.170
90264W        W58482  44.955  21.673   3.785
90265W        W58483  11.220  11.380  11.979
90266W        W58484   8.238  12.136   2.654
90267W        W58485  24.004  27.967  10.467
90268W        W58486  16.457  43.890   4.283
90269W        W58487   6.450  15.604   3.896
90270W        W58488   7.137  14.803   2.243
90271W        W58489   6.711  34.869   3.770
90272W        W58490   8.418  44.781   2.544
90273W        W58491  12.322  44.699  13.894
90274W        W58492  17.544  37.484  14.363
90275W        W58493  30.631   3.470   2.263
90276W        W58494   9.231   4.846   0.890
90277W        W58495  29.469   7.118   5.041
90278W        W58496  21.201  39.414  13.029
90279W        W58497  25.911  16.614   1.097
90280W        W58498  44.433  16.590  14.263
90281W        W58499  39.470  23.018   4.505
90282W        W58500  41.859  39.914  13.120
90283W        W58501  32.142  10.904  14.429
90284W        W58502  23.761  11.034  12.562
90285W        W58503  41.718  27.824  11.322
90286W        W58504  39.968  41.413   0.868
90287W        W58505  40.728  26.921   0.359
90288W        W58506   0.524  44.333   1.335
90289W        W58507  22.139  43.769  13.494
90290W        W58508  16.172  42.832   3.191
90291W        W58509  23.723   2.301   0.503
90292W        W58510  44.099  22.793   2.177
90293W        W58511  16.897  24.077  10.701
90294W        W58512  43.213   3.412   4.687
90295W        W58513   5.165   7.163   1.352
90296W        W58514  18.557  32.935  13.055
90297W        W58515  36.442  18.275  13.334
90298W        W58516  18.100   6.701  12.610
90299W        W58517  40.513  39.835  10.765
90300W        W58518  28.493  27.471  14.286
90301W        W58519  43.256  30.278  13.558
90302W        W58520  28.399  44.467   4.073
90303W        W58521  38.202   7.256   2.809
90304W        W58522   0.992  36.381  11.261
90305W        W58523  19.231   1.250   1.444
90306W        W58524  34.710  21.071  14.355
90307W        W58525  18.117  18.096   0.692
90308W        W58526  10.151   3.501   0.864
90309W        W58527  17.143   7.616   4.984
90310W        W58528  28.681  43.994  14.449
90311W        W58529  28.550  13.686  13.958
90312W        W58530  42.927  26.011  14.467
90313W        W58531  41.046  21.784   3.324
90314W        W58532   0.351  24.676  11.896
90315W        W58533  23.282  42.325  14.787
90316W        W58534   0.434  43.210  14.908
90317W        W58535   1.568  28.005   4.317
90318W        W58536  12.383  39.263   4.111
90319W        W58537  29.024  12.890  11.667
90320W        W58538  15.727   8.812  11.623
90321W        W58539  34.359   2.204   1.410
90322W        W58540   8.375  16.819  11.644
90323W        W58541  11.025  44.398  12.099
90324W        W58542  24.289  30.685   0.869
90325W        W58543  41.947  36.463   4.115
90326W        W58544  26.198  28.708   3.264
90327W        W58545  34.612  21.167   4.529
90328W        W58546   3.931  42.799   3.667
90329W        W58547  19.463   5.972  11.959
90330W        W58548  10.294  15.805  12.346
90331W        W58549   6.141  20.348  11.031
90332W        W58550  37.348  44.827  13.332
90333W        W58551  23.680  17.807   1.277
90334W        W58552   4.830   3.261   1.648
90335W        W58553  16.743  23.348   3.235
90336W        W58554  37.586  19.779  13.198
90337W        W58555   1.341  27.056  12.981
90338W        W58556   2.206   9.613  12.943
90339W        W58557  33.536  43.867  13.314
90340W        W58558  33.877   6.595   1.751
90341W        W58559  42.414   5.052  13.546
90342W        W58560  25.056  44.290  11.776
90343W        W58561   4.128  14.825  13.317
90344W        W58562  39.475  24.711  12.824
90345W        W58563  30.842  37.505  10.309
90346W        W58564  38.486  25.055   3.436
90347W        W58565   4.671  14.585  13.271
90348W        W58566  32.774   1.295  10.359
90349W        W58567  32.378  30.868   3.324
90350W        W58568  17.312   5.179   1.324
90351W        W58569  31.147  18.199   2.766
90352W        W58570  37.583   4.992  13.592
90353W        W58571  43.134   9.856  14.819
90354W        W58572  34.884  13.292  10.414
90355W        W58573   7.996  35.134   3.416
90356W        W58574   6.120  12.385   0.924
90357W        W58575  39.893  15.349  12.296
90358W        W58576   8.464   8.131   1.042
90359W        W58577   2.103  39.068   3.194
90360W        W58578  35.165  10.427   0.867
90361W        W58579  15.245  41.835   1.939
90362W        W58580  38.444  24.017  10.473
90363W        W58581  21.285  23.056   3.246
90364W        W58582  33.810  44.481  14.356
90365W        W58583  34.431  28.128  13.907
90366W        W58584  29.498  21.277  12.113
90367W        W58585   4.804  40.856  11.400
90368W        W58586  44.920   9.452   1.174
90369W        W58587  34.141   9.751  13.372
90370W        W58588  31.612  26.543  10.197
90371W        W58589  37.872  35.179   1.809
90372W        W58590  40.018  18.596  11.591
90373W        W58591  27.607   4.701   2.326
90374W        W58592   2.399  40.856   2.428
90375W        W58593  33.562  12.463   2.651
90376W        W58594  17.131  14.630  14.310
90377W        W58595  16.046   4.751  11.421
90378W        W58596  30.981  36.169  12.135
90379W        W58597   2.487   4.806   0.820
90380W        W58598   3.010  29.854   0.978
90381W        W58599  21.645   9.589   2.320
90382W        W58600  36.538  38.828  12.843
90383W        W58601   5.513   6.652  12.607
90384W        W58602   3.188   2.731   1.787
90385W        W58603  33.521  11.975   2.779
90386W        W58604  39.417   4.819  12.000
90387W        W58605  34.524  12.253  12.912
90388W        W58606   6.633  20.307  11.914
90389W        W58607  20.542   3.449  12.118
90390W        W58608   2.657  28.502   3.644
90391W        W58609  32.663   7.564  12.605
90392W        W58610  29.047  17.173   3.099
90393W        W58611   7.941   3.935  11.943
90394W        W58612  11.139  30.394   3.734
90395W        W58613   8.687   5.712   0.935
90396W        W58614   2.642  36.757   4.959
90397W        W58615  28.744  11.810   4.535
90398W        W58616   9.486   3.097  13.341
90399W        W58617  21.513   3.620   2.382
90400W        W58618  19.303  12.253  11.368
90401W        W58619  39.046  19.376   1.218
90402W        W58620  41.889  15.546   0.877
90403W        W58621  26.825  35.629   1.322
90404W        W58622   9.715  25.251   4.085
90405W        W58623  44.473   2.973  13.571
90406W        W58624  12.130   9.221   3.452
90407W        W58625  26.459  35.800  12.457
90408W        W58626  30.027  42.434   0.808
90409W        W58627   4.961  38.603   1.947
90410W        W58628  13.441  23.325   2.008
90411W        W58629  20.594  41.715  14.171
90412W        W58630  34.235   4.789   0.913
90413W        W58631  35.110  43.985   4.423
90414W        W58632  41.349  23.369  14.802
90415W        W58633  19.133  44.234  12.529
90416W        W58634  35.118  32.709   4.590
90417W        W58635  40.762   1.398   0.070
90418W        W58636  35.047  40.462   1.029
90419W        W58637  36.193  34.605   2.257
90420W        W58638  21.704  19.814   4.062
90421W        W58639  40.320  11.387  11.023
90422W        W58640  17.144   7.778   1.038
90423W        W58641  28.556  10.869   3.219
90424W        W58642  15.787  30.109  14.015
90425W        W58643  32.569  23.253   1.946
90426W        W58644  17.591  38.246   3.665
90427W        W58645  39.983   3.007  11.187
90428W        W58646  11.469  37.705   1.762
90429W        W58647   4.957  44.407  13.086
90430W        W58648   5.262  38.524  11.238
90431W        W58649   8.279  19.715  12.205
90432W        W58650   2.556  42.524  12.508
90433W        W58651  18.698  24.437   0.291
90434W        W58652  22.231   2.144   4.012
90435W        W58653  16.560  30.955   4.701
90436W        W58654  39.595   1.798   1.934
90437W        W58655  19.209  28.763   4.723
90438W        W58656  24.457  26.985  12.140
90439W        W58657  19.857  20.688  13.502
90440W        W58658  11.689  44.561  11.369
90441W        W58659   9.423  40.987   1.261
90442W        W58660  19.156   3.414  13.882
90443W        W58661  19.685   0.100   4.958
90444W        W58662  10.459   9.210   4.652
90445W        W58663  41.059  39.908   1.306
90446W        W58664  26.901  38.036  11.105
90447W        W58665  13.000   0.476   2.711
90448W        W58666  39.840   0.037   2.469
90449W        W58667  43.328  23.741  12.165
90450W        W58668  35.718   5.448   4.282
90451W        W58669   5.139  29.386   2.867
90452W        W58670   0.772   7.639  11.391
90453W        W58671  18.713  16.506  11.548
90454W        W58672  27.626  41.439   3.267
90455W        W58673  38.840  23.068  12.882
90456W        W58674   7.232  37.290  13.838
90457W        W58675  12.285  36.536  13.811
90458W        W58676  37.246  10.427   2.729
90459W        W58677  29.638  20.280  11.233
90460W        W58678  44.777  35.360  14.815
90461W        W58679   1.529  18.615  12.544
90462W        W58680  15.111  41.883  12.934
90463W        W58681   5.928  23.264   1.689
90464W        W58682  31.441  22.187  13.488
90465W        W58683  27.014  21.902   3.647
90466W        W58684  16.903   6.143  13.014
90467W        W58685  40.842  16.301   2.219
90468W        W58686  19.383  20.027  11.159
90469W        W58687  42.009  35.333   4.139
90470W        W58688  34.941  28.632  14.380
90471W        W58689   7.813  19.779  14.340
90472W        W58690   6.464  33.453   2.454
90473W        W58691  27.635   4.123   3.813
90474W        W58692  29.939  10.307  14.462
90475W        W58693   7.581   4.417   0.499
90476W        W58694  10.076  28.585   3.375
90477W        W58695  13.331  14.412   4.199
90478W        W58696  25.079  14.134   4.164
90479W        W58697  34.588  35.819   2.154
90480W        W58698  31.789   0.112  12.506
90481W        W58699  17.049  22.963  12.490
90482W        W58700  19.626  25.935  13.623
90483W        W58701  31.626   4.656   4.481
90484W        W58702   0.548  41.719   3.976
90485W        W58703  27.127  36.417  11.065
90486W        W58704  40.254  40.804   2.066
90487W        W58705   0.476  19.668  10.746
90488W        W58706   0.293   4.908   4.164
90489W        W58707  22.156   4.743   2.651
90490W        W58708   0.649  13.289  14.181
90491W        W58709   6.876   9.180  10.678
90492W        W58710  35.584  43.289  11.050
90493W        W58711  12.907   9.903  12.959
90494W        W58712  28.963  39.543   0.251
90495W        W58713  38.331   1.551  10.125
90496W        W58714  11.583  11.107   1.657
90497W        W58715  12.582  41.459   4.526
90498W        W58716  23.250  20.420   4.791
90499W        W58717  19.699   0.310   2.285
90500W        W58718  35.511   9.192  10.674
90501W        W58719  41.297  32.614  13.341
90502W        W58720  36.971  14.834  11.600
90503W        W58721  13.586   5.663   0.455
90504W        W58722  13.634  33.443  13.085
90505W        W58723  27.038  44.401  10.874
90506W        W58724  30.969  39.993  13.979
90507W        W58725  36.429  29.458   0.302
90508W        W58726   2.399  30.244  13.908
90509W        W58727   9.430  25.699  10.990
90510W        W58728  19.411  39.381  13.021
90511W        W58729  41.791  10.610   0.674
90512W        W58730  38.253  18.175   1.247
90513W        W58731  33.380  30.566  11.011
90514W        W58732   5.386   5.756   2.036
90515W        W58733  12.353  13.208   2.684
90516W        W58734  25.216   1.500  13.557
90517W        W58735  25.442  13.534   0.778
90518W        W58736  18.652  44.243  10.367
90519W        W58737  21.116  22.890   0.982
90520W        W58738  24.566   2.463  11.862
90521W        W58739   2.040  33.849   2.799
90522W        W58740  42.217   5.154   0.783
90523W        W58741  37.502  34.581  10.469
90524W        W58742  25.777  36.428   0.318
90525W        W58743  38.458  19.804   2.927
90526W        W58744  12.880  22.535  14.721
90527W        W58745  19.954  40.496   2.055
90528W        W58746  35.088  44.277  13.865
90529W        W58747  29.958  26.190   0.156
90530W        W58748  35.605  20.773  14.827
90531W        W58749   4.224  27.658  12.772
90532W        W58750  32.842  26.601  13.965
90533W        W58751  42.134  38.722  13.853
90534W        W58752  25.063   8.790   4.322
90535W        W58753  26.678  27.320   2.889
90536W        W58754  31.189   4.704  12.864
90537W        W58755   5.285  28.308   1.391
90538W        W58756  37.045  43.948  11.973
90539W        W58757  34.725  19.667   1.513
90540W        W58758  29.693   1.647  11.612
90541W        W58759  28.993  24.688  13.880
90542W        W58760   2.744  41.029  10.685
90543W        W58761  42.019   1.846   0.583
90544W        W58762  10.178  22.968  13.290
90545W        W58763  23.148  26.593  10.753
90546W        W58764  23.654  31.644   3.228
90547W        W58765  10.056  37.495   5.062
90548W        W58766   5.150  21.318  12.114
90549W        W58767   5.275   3.896  12.740
90550W        W58768  16.635  29.174  13.122
90551W        W58769  19.440  12.140  13.219
90552W        W58770  26.897  28.190   1.373
90553W        W58771   7.850  28.571   3.933
90554W        W58772  18.202  36.643  11.122
90555W        W58773  16.448  20.448  12.939
90556W        W58774   8.816  27.945  13.919
90557W        W58775  41.785  14.345   1.322
90558W        W58776  21.071  29.669  14.422
90559W        W58777  21.862  21.068  13.135
90560W        W58778  41.634  32.676  12.479
90561W        W58779  37.621  33.981  14.288
90562W        W58780  23.812  18.531  13.446
90563W        W58781   7.855  36.977   0.919
90564W        W58782  30.211   6.126   3.937
90565W        W58783  27.565  32.676   0.829
90566W        W58784  27.763   2.382  11.141
90567W        W58785  44.482  43.604  14.091
90568W        W58786  14.667  26.260   3.370
90569W        W58787  29.899  44.956   4.171
90570W        W58788   3.143  21.248   3.238
90571W        W58789  10.555  19.498   2.777
90572W        W58790  31.013   5.681   3.185
90573W        W58791  15.768   2.777   3.546
90574W        W58792  20.132  37.913  10.455
90575W        W58793  41.307  32.087  13.288
90576W        W58794  14.278   8.425  11.137
90577W        W58795   1.801  38.757  12.461
90578W        W58796   4.040  16.499   4.840
90579W        W58797  31.447   8.314   2.211
90580W        W58798  16.313  22.988  13.024
90581W        W58799  15.732  37.261   0.927
90582W        W58800  44.338  20.137  12.085
90583W        W58801  20.193  44.823   1.215
90584W        W58802  12.596  12.398   1.672
90585W        W58803  15.678   5.032   4.957
90586W        W58804  28.056   1.976  12.030
90587W        W58805  19.118  27.654   0.125
90588W        W58806  25.437  30.212  10.690
90589W        W58807  26.732   4.231  14.710
90590W        W58808   9.159  33.423   1.347
90591W        W58809  13.576  28.582   2.369
90592W        W58810  23.732   4.438  12.148
90593W        W58811  27.867  19.342   1.210
90594W        W58812  34.131  31.040   3.627
90595W        W58813  25.021   7.891   2.471
90596W        W58814  33.346   0.401   2.354
90597W        W58815  31.076   0.075   3.104
90598W        W58816  36.841  32.483   2.569
90599W        W58817  32.435  29.954  12.607
90600W        W58818  42.943   5.210   2.261
90601W        W58819  13.354  44.029  14.056
90602W        W58820   6.520  32.445   0.522
90603W        W58821  43.270  10.919   3.474
90604W        W58822   9.934  16.577   0.239
90605W        W58823  18.328  19.031   3.964
90606W        W58824  28.220  37.116  13.533
90607W        W58825  38.357   6.876   3.788
90608W        W58826   8.393  19.106  11.006
90609W        W58827  14.787  27.186  11.019
90610W        W58828  17.838  19.774  11.139
90611W        W58829  24.988   6.985  14.308
90612W        W58830  37.440   1.772  11.016
90613W        W58831  44.870  33.992  14.878
90614W        W58832  28.004  10.455  11.021
90615W        W58833  26.251  34.319   0.864
90616W        W58834   8.762  18.685  10.238
90617W        W58835  36.351   6.880  14.325
90618W        W58836   4.975  11.768   0.513
90619W        W58837  19.762   6.858  10.793
90620W        W58838  34.134  38.637  11.427
90621W        W58839  17.809   7.485  13.793
90622W        W58840   8.881  28.068   4.186
90623W        W58841  19.992  32.116   2.770
90624W        W58842  17.609   6.291   1.663
90625W        W58843   5.733  10.229  14.049
90626W        W58844  13.512  35.062   3.242
90627W        W58845  41.021  31.596  14.314
90628W        W58846  26.620   3.220   0.687
90629W        W58847  31.385  18.361   3.175
90630W        W58848  43.901  44.116   3.919
90631W        W58849   6.133   8.390   4.515
90632W        W58850  42.448  43.094  14.540
90633W        W58851  19.211   6.398  12.012
90634W        W58852  14.410   4.331   1.261
90635W        W58853  22.791  26.439  12.866
90636W        W58854  43.985   8.360   4.759
90637W        W58855   7.087  26.675  11.997
90638W        W58856   3.908  31.367   0.413
90639W        W58857   6.411  27.012   3.061
90640W        W58858  18.432  15.047   1.509
90641W        W58859  14.902  32.487  12.362
90642W        W58860  11.749  17.737  13.481
90643W        W58861  32.195  40.057   1.394
90644W        W58862  24.576  32.044  11.181
90645W        W58863  24.747  19.321   4.620
90646W        W58864  14.563   3.420  14.022
90647W        W58865  21.030  24.964  12.020
90648W        W58866  21.316  39.412   2.092
90649W        W58867  42.851  24.878   2.384
90650W        W58868  12.908   2.406  14.539
90651W        W58869  39.323  18.614  13.902
90652W        W58870   0.046  40.453  13.849
90653W        W58871  11.302   7.324  12.928
90654W        W58872  14.647  38.937  11.236
90655W        W58873  17.582  21.765   4.623
90656W        W58874  26.655  28.482   4.085
90657W        W58875  32.921  35.730  12.563
90658W        W58876   7.482  32.198  10.603
90659W        W58877  31.155  25.641   3.820
90660W        W58878   8.430  15.918   1.342
90661W        W58879  19.804   2.460   1.710
90662W        W58880  33.600  36.425   3.102
90663W        W58881  26.589  10.245  14.237
90664W        W58882  26.894  28.984  11.103
90665W        W58883  25.128  31.043  12.107
90666W        W58884  14.953  15.051   5.021
90667W        W58885   5.053  12.346  12.844
90668W        W58886  32.658  26.526   1.509
90669W        W58887  39.812   3.895  14.291
90670W        W58888  12.582  44.950  10.952
90671W        W58889   1.022   6.378  10.500
90672W        W58890  30.854  38.157  14.802
90673W        W58891   1.503  30.706   3.290
90674W        W58892  26.232  22.187  12.487
90675W        W58893  30.953  14.894   4.261
90676W        W58894  11.578  25.724   2.439
90677W        W58895   5.725  14.615  11.507
90678W        W58896  14.616  27.133  13.279
90679W        W58897  36.494  27.183   4.357
90680W        W58898  16.237  37.944   0.987
90681W        W58899  35.578  41.340   2.387
90682W        W58900  40.359  31.604   3.773
90683W        W58901  24.417   6.699  10.654
90684W        W58902  41.455  33.135  11.578
90685W        W58903  35.406  41.495   0.327
90686W        W58904  17.155  27.994  14.263
90687W        W58905  21.478  20.374   1.352
90688W        W58906  32.088   5.414  12.625
90689W        W58907   0.860  10.570  10.629
90690W        W58908   9.307  31.699   4.221
90691W        W58909  30.398  34.114   2.284
90692W        W58910  32.083  34.369  14.228
90693W        W58911  38.694  40.175   0.654
90694W        W58912  23.974  39.396  11.553
90695W        W58913  23.563   8.124  13.761
90696W        W58914  33.542   7.797  14.160
90697W        W58915  13.604  10.292   3.275
90698W        W58916  37.969  22.224   1.701
90699W        W58917  32.673  42.401  14.382
90700W        W58918  35.330   3.774  12.485
90701W        W58919  33.113  11.617   4.961
90702W        W58920  41.264   2.447   4.073
90703W        W58921  21.055  15.268  11.626
90704W        W58922  34.573   1.606   2.386
90705W        W58923   1.201  41.375  11.444
90706W        W58924  31.804   6.012  13.973
90707W        W58925  41.566   7.158  10.794
90708W        W58926  27.678   1.411  10.947
90709W        W58927   5.475   3.272  13.006
90710W        W58928  18.134  40.337  12.063
90711W        W58929  10.920  23.804  11.978
90712W        W58930  43.343  17.360  13.987
90713W        W58931  21.375  12.452  14.422
90714W        W58932  25.612  28.428   1.513
90715W        W58933  26.598   0.874   2.373
90716W        W58934  33.030  19.508   0.313
90717W        W58935  19.503  11.126   2.953
90718W        W58936   1.926  16.003  12.949
90719W        W58937  41.030   8.649   3.672
90720W        W58938  44.703  42.027  13.504
90721W        W58939  16.368  37.476   5.054
90722W        W58940  24.278  40.733  13.930
90723W        W58941  31.471  12.351   3.883
90724W        W58942   5.994  27.273   0.344
90725W        W58943   1.510  40.939  12.095
90726W        W58944  13.208  32.895  13.004
90727W        W58945  33.862  35.614  13.125
90728W        W58946  24.688  43.081  11.675
90729W        W58947   8.972  16.251   3.116
90730W        W58948  18.699  36.351  13.794
90731W        W58949  10.600  40.432   2.484
90732W        W58950  17.992  22.052  11.091
90733W        W58951  41.329  43.141  11.553
90734W        W58952  18.394  44.436   4.510
90735W        W58953   4.981  20.807   3.747
90736W        W58954  17.439  44.845  10.237
90737W        W58955  43.290  42.937   4.371
90738W        W58956  35.860  40.337  13.973
90739W        W58957  12.814   5.529   0.425
90740W        W58958  29.137  19.408   2.233
90741W        W58959  17.022  10.718  12.532
90742W        W58960  10.655  26.110   0.390
90743W        W58961  20.174  15.583   1.163
90744W        W58962  22.524  21.266   3.672
90745W        W58963  31.181  17.071  12.594
90746W        W58964   7.998  42.200  11.927
90747W        W58965   1.364  23.940  12.894
90748W        W58966  15.378  43.486   1.603
90749W        W58967  11.175  27.013   4.660
90750W        W58968   8.122  11.809  13.905
90751W        W58969   7.934  32.667   2.374
90752W        W58970  29.135  10.834  10.679
90753W        W58971  44.831  39.054   3.778
90754W        W58972   0.958  38.237  10.684
90755W        W58973  30.024   8.343  14.446
90756W        W58974  44.308  43.755  10.549
90757W        W58975  43.786  37.508   0.706
90758W        W58976  17.166  36.899  12.526
90759W        W58977  43.058   6.678  10.935
90760W        W58978  27.390  11.915  14.595
90761W        W58979   2.440  22.158   3.454
90762W        W58980   8.757  40.372   2.450
90763W        W58981  24.985   5.623   3.140
90764W        W58982   0.833  38.935   3.684
90765W        W58983  44.456  15.038  10.741
90766W        W58984  37.243  10.639  13.845
90767W        W58985   0.486  18.227   3.774
90768W        W58986  40.097  28.132  14.005
90769W        W58987  22.007  32.605  13.826
90770W        W58988   9.728  42.786   0.919
90771W        W58989   5.065  18.157  11.685
90772W        W58990  31.589  25.271   2.000
90773W        W58991  27.010  19.443   3.190
90774W        W58992  29.323   3.845   3.650
90775W        W58993  17.219  25.658  13.924
90776W        W58994  10.693  30.984   0.503
90777W        W58995  36.224  32.620   0.014
90778W        W58996  35.178  33.870  10.834
90779W        W58997  21.969  39.845   3.927
90780W        W58998  28.839  14.104   5.081
90781W        W58999   5.935  41.371  14.908
90782W        W59000  29.417   3.787  14.951
90783W        W59001  27.095  42.551  11.659
90784W        W59002  13.069  33.480   1.522
90785W        W59003  31.364  44.353  14.556
90786W        W59004  43.076  13.024  13.553
90787W        W59005  11.167   5.816   4.686
90788W        W59006  14.816  23.758  11.218
90789W        W59007  22.392  38.971  13.344
90790W        W59008  41.349  38.040  10.767
90791W        W59009   9.737  36.786  14.423
90792W        W59010  14.995  30.557  11.851
90793W        W59011  15.265   1.807   3.309
90794W        W59012  22.249  36.895  13.322
90795W        W59013  34.254  40.747  12.541
90796W        W59014  25.638  18.623   0.653
90797W        W59015  10.301  16.193  10.461
90798W        W59016  21.707   9.771   0.022
90799W        W59017  36.916  44.432   4.458
90800W        W59018  19.303   4.344   1.611
90801W        W59019   6.932  25.630  14.255
90802W        W59020  28.628  16.442   2.032
90803W        W59021  42.875  10.954  10.693
90804W        W59022   2.986  41.385  11.879
90805W        W59023  21.203  38.128  14.366
90806W        W59024  13.179   2.783  14.343
90807W        W59025  12.147  15.841   5.057
90808W        W59026  37.248  44.745  12.428
90809W        W59027   4.629  13.320  11.483
90810W        W59028  14.227   4.996  14.994
90811W        W59029  22.655   9.022  12.067
90812W        W59030  11.882  37.598   4.951
90813W        W59031  10.791  33.508  11.536
90814W        W59032  38.081  29.735   3.416
90815W        W59033  24.968  23.811  14.125
90816W        W59034   4.139  31.944  14.439
90817W        W59035  40.277  21.653   1.745
90818W        W59036  16.809  31.616  12.158
90819W        W59037   0.365  15.661   4.102
90820W        W59038   3.696   5.707  14.352
90821W        W59039  27.972  21.600  12.554
90822W        W59040  41.438  12.773   4.304
90823W        W59041  24.980  23.769   1.886
90824W        W59042  33.515   1.295   3.426
90825W        W59043  36.514  12.383   2.365
90826W        W59044   4.982  30.448   1.629
90827W        W59045  21.823  28.978  14.883
90828W        W59046  35.982  42.991   2.674
90829W        W59047  15.773  35.938   3.301
90830W        W59048  15.805  20.966   4.496
90831W        W59049   0.334  26.726   2.711
90832W        W59050  40.011  12.304   0.012
90833W        W59051  23.119  32.430   1.301
90834W        W59052  17.320  11.151  12.359
90835W        W59053  13.161  35.091   1.873
90836W        W59054  18.583  17.767   2.769
90837W        W59055  19.769  16.383  11.993
90838W        W59056  41.709  19.266  11.865
90839W        W59057   1.661  30.986   1.529
90840W        W59058   3.455  19.786  12.798
90841W        W59059  40.273   2.811   1.718
90842W        W59060   4.653  17.522   3.709
90843W        W59061   8.903  42.325   1.135
90844W        W59062   7.400   4.458  11.322
90845W        W59063  23.238  26.819  11.810
90846W        W59064   3.153  35.906   3.188
90847W        W59065  10.253  40.005   3.207
90848W        W59066  36.721  11.447  11.142
90849W        W59067  16.432  34.688  14.339
90850W        W59068  17.295  21.729  14.337
90851W        W59069  34.849  35.386  13.366
90852W        W59070  13.488  10.139  12.344
90853W        W59071  28.651   7.877  11.279
90854W        W59072  16.865  25.484  13.390
90855W        W59073  42.410  33.826  12.131
90856W        W59074  41.291  13.589  12.255
90857W        W59075  21.264  12.205  13.462
90858W        W59076  37.491  21.695  12.173
90859W        W59077  11.746  18.798   5.240
90860W        W59078  21.599  37.790  10.007
90861W        W59079  32.368  29.127   1.308
90862W        W59080  34.833   2.111   3.909
90863W        W59081  17.308  35.947   2.609
90864W        W59082  13.306  16.604  13.117
90865W        W59083  36.374  34.201  14.779
90866W        W59084  20.466   9.072   1.741
90867W        W59085  24.756  33.936  14.030
90868W        W59086  33.059   8.981  13.788
90869W        W59087  29.528  33.229   0.494
90870W        W59088  34.081  15.788   0.734
90871W        W59089   3.711   9.914   4.179
90872W        W59090  42.277   6.832  12.022
90873W        W59091  28.431  14.142  10.660
90874W        W59092  39.395   5.357   4.692
90875W        W59093  31.031   7.684  11.225
90876W        W59094  31.502   8.098  10.577
90877W        W59095  41.374  22.154   2.216
90878W        W59096   1.149  37.102  11.540
90879W        W59097  15.923  38.481   9.966
90880W        W59098  43.791  18.675   0.035
90881W        W59099   2.987  43.604  13.779
90882W        W59100  26.142  32.479   0.871
90883W        W59101  23.705   6.193  12.900
90884W        W59102  33.536  28.939  12.394
90885W        W59103  19.301  22.216  10.718
90886W        W59104  25.979  30.313  10.758
90887W        W59105  22.265  27.625  11.992
90888W        W59106   6.756  26.523   1.219
90889W        W59107  30.222  41.258   2.261
90890W        W59108  31.834   6.911   3.402
90891W        W59109  39.326  14.992   0.473
90892W        W59110  24.706  25.338  12.836
90893W        W59111  17.191  32.197   2.488
90894W        W59112  10.272   3.400  13.624
90895W        W59113  40.238  43.431   2.733
90896W        W59114  22.708  45.000   3.821
90897W        W59115  17.537  26.206  14.865
90898W        W59116  42.058  27.547   2.264
90899W        W59117   4.626  11.665   1.517
90900W        W59118  10.626   5.099   4.536
90901W        W59119  19.230  37.396  10.625
90902W        W59120  20.954   7.479  11.520
90903W        W59121  15.604  11.430  11.480
90904W        W59122  41.487  19.798  14.867
90905W        W59123  39.195  42.315   3.951
90906W        W59124   4.230  40.815  10.195
90907W        W59125  30.220  22.648  10.610
90908W        W59126  40.192   6.741   2.946
90909W        W59127   9.958  41.341   4.130
90910W        W59128  36.600  35.602   1.416
90911W        W59129  16.365  29.805   3.237
90912W        W59130  38.519   6.579   3.372
90913W        W59131  31.849  44.571   2.118
90914W        W59132  28.116   1.575  14.787
90915W        W59133   0.540  15.601  13.401
90916W        W59134  10.172  37.256   3.158
90917W        W59135  37.483   6.657   0.880
90918W        W59136  19.870   9.494   4.202
90919W        W59137  17.211  32.661  13.817
90920W        W59138  23.347  23.120   2.217
90921W        W59139  40.139  36.403   4.696
90922W        W59140  25.176  33.171   4.537
90923W        W59141  28.690  10.547  10.576
90924W        W59142  27.484  12.871   2.617
90925W        W59143  23.153  20.085  11.642
90926W        W59144  17.955  39.357  12.528
90927W        W59145   1.401  17.096  11.936
90928W        W59146   9.491  25.411  14.738
90929W        W59147  17.623   1.993   0.369
90930W        W59148  32.328  26.061   0.173
90931W        W59149  30.371   9.986   2.638
90932W        W59150  10.833  16.242  14.143
90933W        W59151  35.108   4.735  13.413
90934W        W59152   6.950  25.928   2.819
90935W        W59153  38.013  10.660   1.493
90936W        W59154  44.405  25.576   3.612
90937W        W59155  15.045  44.256   1.273
90938W        W59156  31.894  12.903   4.494
90939W        W59157  26.146  22.248   4.359
90940W        W59158  11.433  42.009   2.724
90941W        W59159   1.257  26.655   4.242
90942W        W59160  26.185  36.526   1.196
90943W        W59161   7.461  11.964   2.860
90944W        W59162  43.946  27.267  14.914
90945W        W59163  16.853   0.853   1.248
90946W        W59164  35.702  12.122  12.785
90947W        W59165   2.816  35.299   0.596
90948W        W59166  28.124  44.544  12.452
90949W        W59167  25.209  25.145   1.421
90950W        W59168  11.212  22.480   1.726
90951W        W59169   7.346  44.852  10.675
90952W        W59170   5.969  16.333   5.075
90953W        W59171  15.625   9.454  11.235
90954W        W59172  28.485  43.042  13.463
90955W        W59173  20.772  44.597   4.572
90956W        W59174   0.991   9.305   2.848
90957W        W59175  44.928  43.700  13.842
90958W        W59176   9.148  22.836  11.828
90959W        W59177   0.307  36.872   2.852
90960W        W59178  38.996  32.441  11.500
90961W        W59179  37.757  19.769  10.958
90962W        W59180  39.338  22.061   1.768
90963W        W59181   8.580  12.060   1.788
90964W        W59182  22.368  23.723   1.749
90965W        W59183  13.009  21.153  11.994
90966W        W59184   0.982  43.944  14.392
90967W        W59185  29.922  10.896   3.239
90968W        W59186  26.194   3.968   2.740
90969W        W59187  23.154  17.609   1.846
90970W        W59188  19.019   6.491   4.028
90971W        W59189  27.689  20.274   3.668
90972W        W59190   5.372  33.208  10.955
90973W        W59191   4.306  30.433   3.352
90974W        W59192   1.215  28.219   3.379
90975W        W59193   6.808  18.766   2.041
90976W        W59194  35.385  13.711  14.464
90977W        W59195  27.906  35.671  11.015
90978W        W59196   8.350  19.356   4.305
90979W        W59197  25.876  26.052   1.874
90980W        W59198  20.744  14.795   5.484
90981W        W59199  22.733   6.884   1.867
90982W        W59200   2.708  20.652   0.506
90983W        W59201  43.555  16.147   4.158
90984W        W59202  33.445  14.340   0.033
90985W        W59203   8.687  10.473   0.776
90986W        W59204  36.028  39.005  13.131
90987W        W59205  34.523  41.049  11.476
90988W        W59206  32.684  13.699   1.884
90989W        W59207  24.995  17.314   0.800
90990W        W59208   8.831  42.399  11.585
90991W        W59209  14.571   0.961  11.663
90992W        W59210  23.006  12.044  12.938
90993W        W59211  26.677  21.724  12.828
90994W        W59212  26.197  43.965  10.466
90995W        W59213  23.569  40.909  11.932
90996W        W59214  41.112  16.132  12.850
90997W        W59215  31.393  25.129   3.740
90998W        W59216  27.066   0.809  12.479
90999W        W59217   6.229   6.423   0.335
91000W        W59218  28.870  12.846   2.424
91001W        W59219  11.592   3.902   2.886
91002W        W59220   9.404   9.423  12.881
91003W        W59221   6.044  30.114   3.374
91004W        W59222  22.285  15.050   2.803
91005W        W59223  26.953  12.036   1.856
91006W        W59224  31.365  20.099   2.483
91007W        W59225  13.805  14.681  13.329
91008W        W59226  32.990  14.382   2.756
91009W        W59227  35.335  39.938  13.434
91010W        W59228  27.622  30.590   0.547
91011W        W59229  19.246  44.290   3.118
91012W        W59230  28.872  39.517   3.226
91013W        W59231  23.179  19.840  10.809
91014W        W59232  44.838   5.967  13.135
91015W        W59233  27.185  43.753   0.806
91016W        W59234  43.764  36.531  14.803
91017W        W59235  41.695  17.217   1.351
91018W        W59236  27.901  35.769  12.323
91019W        W59237   5.425  44.348  11.975
91020W        W59238  35.526   0.557   1.253
91021W        W59239  17.187   2.597   0.759
91022W        W59240  17.530   1.328  12.453
91023W        W59241  42.464  37.468  12.367
91024W        W59242  21.485  31.128   4.577
91025W        W59243  20.254   9.377   3.381
91026W        W59244  28.633  33.377   0.306
91027W        W59245  25.529  30.365   4.257
91028W        W59246   6.956  33.392  13.887
91029W        W59247  20.334  36.141   3.297
91030W        W59248  39.776  14.183  13.901
91031W        W59249   0.510  14.855  12.759
91032W        W59250   8.385  39.270  14.993
91033W        W59251  16.728  31.018   4.189
91034W        W59252   4.764  22.219   4.610
91035W        W59253  41.395  40.815  13.900
91036W        W59254  29.983  21.128  13.897
91037W        W59255  30.839  16.948   5.146
91038W        W59256   6.844  40.056   4.690
91039W        W59257   4.492  27.584  14.963
91040W        W59258   5.943  24.528  10.848
91041W        W59259   4.213  40.524  14.408
91042W        W59260   2.721  36.490   4.155
91043W        W59261  40.202  37.042  12.724
91044W        W59262   7.685  32.359   4.244
91045W        W59263  28.175  18.977  10.587
91046W        W59264  25.043  16.817  13.901
91047W        W59265  33.524  15.771   4.574
91048W        W59266  43.502  41.910   4.236
91049W        W59267  20.642  15.374  11.338
91050W        W59268  27.172  35.338  11.864
91051W        W59269  30.397   5.740  13.943
91052W        W59270   4.168  34.870   1.448
91053W        W59271  41.316   3.465   0.158
91054W        W59272  34.071  43.557   4.919
91055W        W59273  39.015   4.240  13.493
91056W        W59274  19.806  29.088   2.366
91057W        W59275  29.233   3.155  10.650
91058W        W59276  16.858  25.190  11.959
91059W        W59277  42.346  29.405  11.764
91060W        W59278  34.034  31.068  13.975
91061W        W59279  28.834  42.802  14.297
91062W        W59280   7.746  28.688  11.128
91063W        W59281   6.379  12.717  12.035
91064W        W59282  43.723   5.315  13.819
91065W        W59283  31.917  33.813   3.135
91066W        W59284  12.648   0.025   3.691
91067W        W59285  13.807  31.619  12.865
91068W        W59286   7.523  10.266   4.173
91069W        W59287  26.968  32.051  13.028
91070W        W59288  27.228  43.000   0.413
91071W        W59289  35.922  36.302   2.220
91072W        W59290  11.744  28.656   4.549
91073W        W59291  33.513  35.422  11.471
91074W        W59292  29.384   2.478  12.007
91075W        W59293  15.412  42.008   0.473
91076W        W59294   1.408  41.848   3.655
91077W        W59295  17.608  36.298  12.043
91078W        W59296   3.291  24.015   0.872
91079W        W59297  21.203  39.785   3.306
91080W        W59298  40.860  44.793   0.889
91081W        W59299  18.733  40.646   0.034
91082W        W59300  26.978   9.748  11.597
91083W        W59301  13.780  15.856   2.735
91084W        W59302  32.554  14.374   1.493
91085W        W59303  40.752   5.230  13.073
91086W        W59304  19.192  22.724  11.560
91087W        W59305  38.363  16.702  14.953
91088W        W59306  38.427  11.446   3.730
91089W        W59307   4.363  41.945  13.324
91090W        W59308  15.636  15.295   4.090
91091W        W59309  37.555  36.040   2.218
91092W        W59310  31.718  43.016  11.605
91093W        W59311  38.609  20.285  13.996
91094W        W59312   7.155  11.775   1.238
91095W        W59313  37.284  25.591   4.103
91096W        W59314  33.969   3.742   4.094
91097W        W59315  24.197   1.778   3.079
91098W        W59316  26.599  21.368   0.826
91099W        W59317  44.400  40.635  10.081
91100W        W59318  10.803  20.732  13.934
91101W        W59319  38.672  24.841  14.426
91102W        W59320  43.770   9.249  13.573
91103W        W59321   2.229  13.670   0.720
91104W        W59322   6.741  14.830  10.579
91105W        W59323  40.333  19.041  11.449
91106W        W59324  35.972  40.422   4.668
91107W        W59325  32.886  44.048   0.572
91108W        W59326  13.668   2.454  11.391
91109W        W59327  15.129  29.546   3.422
91110W        W59328   4.452  40.009  14.518
91111W        W59329   4.500   0.692   0.277
91112W        W59330  43.609   2.434  12.960
91113W        W59331   6.201  31.393   1.469
91114W        W59332  10.985  39.800  14.397
91115W        W59333  42.472  40.415   4.770
91116W        W59334   3.204  44.810   1.177
91117W        W59335  15.872   4.451  11.822
91118W        W59336   9.261  34.012  12.656
91119W        W59337  38.795  20.087   1.706
91120W        W59338  37.119  43.979   4.652
91121W        W59339  14.777   2.210   0.417
91122W        W59340  43.973  25.270   4.835
91123W        W59341   0.817  25.985   1.832
91124W        W59342  35.965   5.925   2.184
91125W        W59343   9.905   2.890  14.228
91126W        W59344  30.891  10.280  14.281
91127W        W59345  23.367  35.859  12.999
91128W        W59346  20.995  23.270  14.304
91129W        W59347  42.407  44.538   3.353
91130W        W59348  20.978  22.542  11.888
91131W        W59349  17.372  41.290   1.130
91132W        W59350  16.137   7.334   1.425
91133W        W59351  25.400   2.669   4.240
91134W        W59352  20.932  21.275   0.315
91135W        W59353   3.834  22.151  13.400
91136W        W59354  20.028  27.756  11.862
91137W        W59355   3.870   4.513  14.008
91138W        W59356  40.683  38.043   0.428
91139W        W59357   3.682   1.780   4.627
91140W        W59358  22.810  42.709   5.074
91141W        W59359   2.319  31.221  11.191
91142W        W59360   7.800   4.616   5.055
91143W        W59361  12.239   8.897   1.757
91144W        W59362   6.178  15.595  13.366
91145W        W59363  21.617  22.610   4.542
91146W        W59364  26.954  19.801  13.757
91147W        W59365  26.683   7.063   1.018
91148W        W59366   7.896  35.703   2.399
91149W        W59367  14.367  27.438   0.519
91150W        W59368   7.791  39.932   3.233
91151W        W59369  39.566  17.106   1.698
91152W        W59370  27.492   4.851   2.829
91153W        W59371  28.020  40.925  14.552
91154W        W59372   4.347  32.625  12.583
91155W        W59373  25.062  35.174  10.375
91156W        W59374  32.341   7.739   3.372
91157W        W59375  42.094   4.868  12.555
91158W        W59376  34.168   4.501  10.556
91159W        W59377  43.228  25.969  12.517
91160W        W59378   0.197  30.090   0.280
91161W        W59379  38.785  32.293   4.091
91162W        W59380  10.671  42.859  13.553
91163W        W59381  36.780  29.642   0.678
91164W        W59382   3.475  13.347   3.353
91165W        W59383  22.296  33.022  13.926
91166W        W59384  41.758  35.143  13.849
91167W        W59385  39.592  42.871   1.040
91168W        W59386  25.546   2.003   3.204
91169W        W59387   5.858   4.428   0.029
91170W        W59388  12.401   3.187   2.271
91171W        W59389  15.070  20.626   3.240
91172W        W59390  25.371  29.570  12.319
91173W        W59391  41.474  15.565   2.347
91174W        W59392  23.226  17.696   3.641
91175W        W59393  12.135  16.083  12.845
91176W        W59394  40.840   8.859  11.683
91177W        W59395  34.611  24.072  12.070
91178W        W59396  37.939   8.739   3.856
91179W        W59397  33.669  31.571   1.186
91180W        W59398  16.557  38.915   0.815
91181W        W59399  40.844  35.896  14.573
91182W        W59400  24.671   8.967   2.978
91183W        W59401  25.151  20.064  12.896
91184W        W59402  26.530  17.068  13.525
91185W        W59403  28.346  32.372  12.893
91186W        W59404  27.638  21.388   1.845
91187W        W59405  24.905   4.861   4.826
91188W        W59406  38.078  16.410  11.713
91189W        W59407   5.841  41.911   3.294
91190W        W59408  22.712  21.464  14.305
91191W        W59409  33.031   2.585   2.014
91192W        W59410   8.020  10.606   1.826
91193W        W59411  15.534   1.681   5.041
91194W        W59412  27.778  34.236   3.189
91195W        W59413  11.199  11.223   4.640
91196W        W59414  44.459  39.574   0.775
91197W        W59415  35.740  33.117   1.362
91198W        W59416  44.901  25.429  11.470
91199W        W59417  30.823  16.401   4.628
91200W        W59418  12.805  19.062   3.294
91201W        W59419  31.046  20.597  11.545
91202W        W59420   5.649   8.966   4.980
91203W        W59421  41.126  40.720  13.488
91204W        W59422  21.813  32.096  13.431
91205W        W59423  18.494   1.018  11.180
91206W        W59424  26.226  18.747  11.529
91207W        W59425  38.261  44.473  12.968
91208W        W59426   7.843   0.729  14.432
91209W        W59427  20.237   2.205   0.782
91210W        W59428  39.980  38.475  14.248
91211W        W59429  40.900  12.852  13.112
91212W        W59430   1.871   9.409   4.635
91213W        W59431  28.675  12.344  14.557
91214W        W59432  40.565  35.227  11.727
91215W        W59433  40.783  35.370   3.772
91216W        W59434  23.745  42.497   0.913
91217W        W59435  42.262   3.401  10.765
91218W        W59436  12.837   2.355  10.404
91219W        W59437  36.996  34.346   2.724
91220W        W59438  34.073  33.405  11.543
91221W        W59439   4.501  25.379   4.532
91222W        W59440  14.257   4.723  14.562
91223W        W59441  39.502   2.198  11.492
91224W        W59442  25.203   3.317   4.207
91225W        W59443  20.755  26.477  11.953
91226W        W59444  23.062   2.248  14.904
91227W        W59445  37.008  29.870  14.730
91228W        W59446  23.610   9.601   3.131
91229W        W59447  36.412  34.848  12.642
91230W        W59448  42.476  22.113   2.375
91231W        W59449  29.771  28.912  13.876
91232W        W59450   8.473   6.832   1.088
91233W        W59451  22.644  39.053  14.117
91234W        W59452   2.354  12.212  13.524
91235W        W59453  41.425  43.267   2.770
91236W        W59454  29.983  38.532  14.063
91237W        W59455   7.712   6.370   3.708
91238W        W59456  12.884  22.765   4.512
91239W        W59457  44.294  16.324   1.220
91240W        W59458   4.769  13.753  10.720
91241W        W59459   9.939  44.343  11.119
91242W        W59460  43.040  37.859   0.246
91243W        W59461  26.048  29.772   3.357
91244W        W59462   7.201   3.768  13.996
91245W        W59463  30.878  39.051   0.128
91246W        W59464  16.096  40.448   3.700
91247W        W59465  35.480  35.334   2.396
91248W        W59466  41.999  11.420  11.940
91249W        W59467  16.727  38.898   4.422
91250W        W59468  24.000  30.855   4.717
91251W        W59469  42.496   9.892  13.092
91252W        W59470   9.325  36.801  12.475
91253W        W59471  24.670  33.537   2.159
91254W        W59472  26.639  37.366  11.593
91255W        W59473  28.525  38.047   1.918
91256W        W59474  12.666   3.525   4.864
91257W        W59475  44.932   1.871   0.442
91258W        W59476  21.554  43.857   1.010
91259W        W59477  21.721  12.749  11.599
91260W        W59478  16.302  12.674   2.244
91261W        W59479   1.262  38.558  13.284
91262W        W59480  17.171  35.027   3.312
91263W        W59481  24.854  22.245  13.481
91264W        W59482  27.411  21.737  13.271
91265W        W59483  37.616  30.776   0.732
91266W        W59484  42.835  13.381   2.713
91267W        W59485  20.820   4.229  10.851
91268W        W59486  39.428  22.191   3.922
91269W        W59487   3.352  23.654   2.789
91270W        W59488  38.159  16.251  10.606
91271W        W59489  27.586  42.320   2.231
91272W        W59490  31.022  24.265   2.157
91273W        W59491   6.983  21.508  11.424
91274W        W59492  10.136  41.277   1.968
91275W        W59493  37.587   3.260   3.397
91276W        W59494  43.076   3.802   3.543
91277W        W59495  22.252   4.727  12.933
91278W        W59496   1.713   3.837  12.097
91279W        W59497  12.096  18.314  14.577
91280W        W59498  31.617   3.150  13.870
91281W        W59499  12.655  33.611   4.822
91282W        W59500  38.510  27.052  12.893
91283W        W59501  11.642  21.808   4.302
91284W        W59502  36.225  26.913  11.122
91285W        W59503  17.646  41.504  13.464
91286W        W59504  12.232  15.381   3.242
91287W        W59505  29.108  24.988  10.176
91288W        W59506  32.631  39.756   3.623
91289W        W59507  19.537  25.163   4.384
91290W        W59508   6.987  27.175  12.110
91291W        W59509  12.368  33.319  12.339
91292W        W59510   9.270  15.107   0.020
91293W        W59511  29.253  23.465   1.908
91294W        W59512   3.820  44.180  14.730
91295W        W59513  41.507  41.482   1.038
91296W        W59514  33.734  28.592   0.787
91297W        W59515  32.076  22.999   4.517
91298W        W59516  44.999  36.991   0.210
91299W        W59517  14.067  30.610   0.934
91300W        W59518  23.093  15.297  10.528
91301W        W59519  44.358  11.084   1.052
91302W        W59520  12.723   6.908  13.050
91303W        W59521  42.797  29.968  13.424
91304W        W59522  37.830   1.686   1.120
91305W        W59523  36.285  43.789  12.406
91306W        W59524  32.446  34.920  13.114
91307W        W59525   5.232  27.578   4.570
91308W        W59526  28.360  21.424   0.276
91309W        W59527  17.643  36.344   1.000
91310W        W59528  16.689  36.459   0.358
91311W        W59529  16.176   1.640   2.823
91312W        W59530  26.734  14.129  13.018
91313W        W59531  16.827  11.661   1.972
91314W        W59532  14.761  44.570   0.900
91315W        W59533  40.094  11.410   1.826
91316W        W59534  20.625   7.088  13.867
91317W        W59535  41.190  22.157  12.008
91318W        W59536   4.763  16.274  13.517
91319W        W59537  36.837  11.669  14.087
91320W        W59538  12.299  23.134  11.658
91321W        W59539  19.732  31.028  14.989
91322W        W59540  11.899  38.825  12.593
91323W        W59541  41.878  15.832   0.436
91324W        W59542  28.225  26.265  13.596
91325W        W59543  27.255  24.842   3.525
91326W        W59544  13.677  20.694  13.248
91327W        W59545  39.996   9.388  13.329
91328W        W59546   6.414  43.107  10.204
91329W        W59547  30.715  20.189  11.610
91330W        W59548  37.827   1.463  14.351
91331W        W59549  12.556  25.221  10.494
91332W        W59550   5.989   5.739   1.318
91333W        W59551  39.098  20.187   3.620
91334W        W59552   2.366   2.184   1.341
91335W        W59553   6.634   2.462   3.244
91336W        W59554  26.093  26.033  14.735
91337W        W59555  11.193  35.883  11.126
91338W        W59556  37.665  30.664  13.453
91339W        W59557  42.377  34.522  12.491
91340W        W59558  42.172  24.144  13.757
91341W        W59559  25.972  24.716  14.382
91342W        W59560  30.930  13.234   0.548
91343W        W59561  16.325  27.350   3.606
91344W        W59562  35.122  24.978  14.002
91345W        W59563  22.147  32.905   0.323
91346W        W59564  21.144  38.904  12.855
91347W        W59565  11.634   9.739   1.412
91348W        W59566  11.878  19.220  14.419
91349W        W59567  38.111  38.663   1.189
91350W        W59568  21.524   6.779   0.651
91351W        W59569  36.871  33.412   3.349
91352W        W59570  41.547   5.404  14.493
91353W        W59571  40.876  15.371  11.531
91354W        W59572  26.015  42.076   0.885
91355W        W59573  27.172  10.805  12.273
91356W        W59574   2.725  44.910   3.487
91357W        W59575   2.774  28.975  14.880
91358W        W59576   2.624  38.921   0.455
91359W        W59577  18.665  34.212  11.967
91360W        W59578  26.962  11.877  12.902
91361W        W59579   2.372   9.443  13.787
91362W        W59580  17.104   1.343   1.326
91363W        W59581   6.249  31.936   1.410
91364W        W59582  24.938  39.592   2.307
91365W        W59583  27.621   5.461  13.497
91366W        W59584  22.780  14.695   3.267
91367W        W59585  10.184  30.619   1.235
91368W        W59586  25.518  19.209   3.899
91369W        W59587  19.129  27.760  12.510
91370W        W59588  24.597  10.620  11.175
91371W        W59589  18.236  26.984   2.294
91372W        W59590  27.525  31.309   4.707
91373W        W59591  20.006  21.114  10.721
91374W        W59592  31.930   5.200  12.180
91375W        W59593  20.229  43.080   3.550
91376W        W59594  18.659  41.915  10.850
91377W        W59595  27.513  12.634  14.065
91378W        W59596  24.749  38.747   0.222
91379W        W59597  28.058  16.104  11.643
91380W        W59598  20.949   6.835  13.076
91381W        W59599   9.597  33.073  12.294
91382W        W59600  21.049  12.074   4.143
91383W        W59601  32.704  39.284   3.846
91384W        W59602  12.042   2.101   4.338
91385W        W59603  16.906  11.843  11.121
91386W        W59604  38.976  38.652   2.194
91387W        W59605  33.014  10.892   3.967
91388W        W59606  39.899  10.712   3.688
91389W        W59607  33.663   9.912   2.839
91390W        W59608  28.176   1.673   3.651
91391W        W59609  32.423  22.175  13.068
91392W        W59610   9.661  32.538  14.784
91393W        W59611  37.482  33.953   3.826
91394W        W59612  25.695   9.909   2.372
91395W        W59613   3.509  37.018   4.049
91396W        W59614  14.605  20.631  13.065
91397W        W59615  32.486   5.407   3.624
91398W        W59616   3.370  42.379  11.450
91399W        W59617   6.392  27.949   1.723
91400W        W59618  31.657  36.031   2.319
91401W        W59619  20.853  14.826  10.716
91402W        W59620   5.540  15.685  10.633
91403W        W59621   7.766  16.194   2.096
91404W        W59622   4.942  25.266  14.197
91405W        W59623   0.474   1.218  12.943
91406W        W59624  29.599  19.302  13.375
91407W        W59625  43.464  33.098   2.682
91408W        W59626  36.087  22.794  10.609
91409W        W59627  39.357  30.985  10.845
91410W        W59628   7.852  39.138   0.727
91411W        W59629  40.672  42.383   1.869
91412W        W59630  40.029  22.570  10.753
91413W        W59631  28.537  13.853   1.295
91414W        W59632  31.084  34.593  13.085
91415W        W59633  23.204  42.021  14.391
91416W        W59634  44.694  37.964   1.796
91417W        W59635  33.996  22.458   2.293
91418W        W59636  15.057   4.010  12.883
91419W        W59637  25.015   8.925  14.422
91420W        W59638  44.920  35.493  11.446
91421W        W59639  40.978  18.673   1.435
91422W        W59640  36.941  44.080   3.678
91423W        W59641  35.540   4.231   2.796
91424W        W59642  36.296  43.815  10.690
91425W        W59643  30.622  15.080   4.633
91426W        W59644  21.804  33.140   0.017
91427W        W59645  38.155  18.665  12.025
91428W        W59646  24.028  37.090   0.809
91429W        W59647   3.316  27.754   3.541
91430W        W59648   4.284  28.001  11.516
91431W        W59649  10.567  24.385   1.221
91432W        W59650  40.813  40.317   4.389
91433W        W59651  28.672   6.330   3.586
91434W        W59652   7.179   4.626  10.416
91435W        W59653  29.914   1.029  12.426
91436W        W59654   8.157   6.938   1.903
91437W        W59655   1.376  38.572  10.785
91438W        W59656  28.992   6.713   3.133
91439W        W59657   8.382  41.110  12.874
91440W        W59658  44.453  16.964   1.746
91441W        W59659  27.389   0.973  12.103
91442W        W59660  12.808  14.031   0.915
91443W        W59661  35.824   6.496  11.913
91444W        W59662  27.970   7.613   0.629
91445W        W59663  43.675  13.903  11.527
91446W        W59664  36.974  13.296  13.051
91447W        W59665  14.437  14.208  14.441
91448W        W59666  19.997  21.159  11.228
91449W        W59667  12.002  25.495   0.191
91450W        W59668  23.593   6.358   2.416
91451W        W59669  10.653  13.531   4.832
91452W        W59670   2.116   0.716   1.361
91453W        W59671  26.016  10.237   4.596
91454W        W59672  18.641  27.093   4.591
91455W        W59673   1.339  22.971  13.085
91456W        W59674  23.235   7.600  13.362
91457W        W59675  42.817  15.635   1.924
91458W        W59676  29.850  35.589  11.219
91459W        W59677  11.915  41.320   3.178
91460W        W59678   4.320  21.041  14.719
91461W        W59679  44.672  34.962  10.638
91462W        W59680  42.360  35.766   3.584
91463W        W59681  34.322  12.286   3.141
91464W        W59682  32.494   9.540   1.926
91465W        W59683  14.198  27.018  12.139
91466W        W59684  43.328  18.485  13.072
91467W        W59685  43.890  33.866  14.269
91468W        W59686  15.131   9.651   0.757
91469W        W59687  15.992   3.427  14.911
91470W        W59688  28.108   0.477  13.063
91471W        W59689  30.991  42.337  10.714
91472W        W59690  12.135   5.807   0.968
91473W        W59691  10.767  16.308   3.221
91474W        W59692  21.603  14.194  12.987
91475W        W59693  44.903  41.909  12.654
91476W        W59694   1.784  12.659   2.238
91477W        W59695   3.831  24.615  11.076
91478W        W59696  44.246  13.476  10.689
91479W        W59697  14.376  40.560  14.341
91480W        W59698  37.251   4.397   3.279
91481W        W59699  16.755   7.709   1.410
91482W        W59700  39.833  35.431   3.554
91483W        W59701   4.845   4.457  13.923
91484W        W59702  17.577  42.955   2.531
91485W        W59703   8.758  22.234   4.397
91486W        W59704  42.506  38.981   3.317
91487W        W59705  40.823  30.960   0.811
91488W        W59706  37.270   6.766  13.362
91489W        W59707  30.907  25.189   2.790
91490W        W59708   4.970   3.533   1.222
91491W        W59709  37.553  15.722  11.108
91492W        W59710  43.704  20.657  10.868
91493W        W59711  11.304  25.394  12.397
91494W        W59712  25.585  29.927   4.519
91495W        W59713  30.172  41.449  14.272
91496W        W59714  38.805  43.892   2.596
91497W        W59715  25.656  38.502  14.318
91498W        W59716  29.643  27.187   0.408
91499W        W59717  27.597  28.607   4.275
91500W        W59718  30.641  29.005  13.995
91501W        W59719   3.527  35.356  11.538
91502W        W59720  26.562  17.033   2.219
91503W        W59721  43.458   8.242   3.658
91504W        W59722  23.024  27.985   2.254
91505W        W59723  25.437   7.815   3.447
91506W        W59724   4.853  15.903   1.181
91507W        W59725  31.588   0.690  11.587
91508W        W59726  28.105   8.929  11.002
91509W        W59727  42.153  41.444   4.218
91510W        W59728  13.379  24.635  14.907
91511W        W59729  19.519  39.304  13.518
91512W        W59730  21.582  32.021   4.644
91513W        W59731  33.023  39.278   3.267
91514W        W59732  31.542  18.147  14.023
91515W        W59733  15.297  10.014   4.695
91516W        W59734  14.737  34.250   2.175
91517W        W59735  31.829   1.268   3.953
91518W        W59736   8.389  17.219   2.296
91519W        W59737  34.934   8.845  11.184
91520W        W59738  21.881  37.542   0.012
91521W        W59739  44.926  43.698   3.345
91522W        W59740  13.788   5.007  13.398
91523W        W59741   5.707   8.102   4.569
91524W        W59742  20.260   9.931   2.174
91525W        W59743  33.036   7.663   4.953
91526W        W59744  23.719  12.764   2.925
91527W        W59745  12.061  41.932  11.011
91528W        W59746  36.707  28.515   4.007
91529W        W59747  43.531  16.729   1.111
91530W        W59748   3.608  16.598   4.496
91531W        W59749  34.200  18.723  14.416
91532W        W59750   9.772  20.247  13.258
91533W        W59751  28.247   4.469  13.138
91534W        W59752   4.824   7.087  10.559
91535W        W59753  24.216  44.927   0.299
91536W        W59754  19.491  12.215   2.315
91537W        W59755  22.034  21.997   0.421
91538W        W59756  18.379   8.645  12.671
91539W        W59757  15.755  33.156  13.372
91540W        W59758  18.873  37.848  14.889
91541W        W59759  20.627  35.668   5.077
91542W        W59760  44.196  31.625   3.664
91543W        W59761  42.973  36.153  10.647
91544W        W59762   1.363   7.392   3.311
91545W        W59763  14.961  13.357  11.550
91546W        W59764  44.719  37.154  14.757
91547W        W59765   0.485  18.244  10.865
91548W        W59766  43.386   7.824   3.301
91549W        W59767  20.939  19.292  11.503
91550W        W59768   3.502  11.869   4.826
91551W        W59769   3.995   0.895   4.711
91552W        W59770  37.321  25.609   1.909
91553W        W59771  23.138  12.283  12.411
91554W        W59772  17.417  20.663  10.103
91555W        W59773  34.394   5.208  13.002
91556W        W59774  33.872  34.500  11.627
91557W        W59775  33.524  24.031  13.914
91558W        W59776  31.613  35.904  13.140
91559W        W59777   2.083  35.897   0.463
91560W        W59778  21.132  35.447  11.656
91561W        W59779   7.293  35.620   3.792
91562W        W59780  41.858  28.205  10.999
91563W        W59781  13.971  13.382   3.806
91564W        W59782  41.559  29.152   1.211
91565W        W59783  28.144   2.469   4.091
91566W        W59784   5.562  39.911  10.632
91567W        W59785   7.646  25.265   3.380
91568W        W59786  38.846   7.333  11.513
91569W        W59787   7.149  13.498  11.916
91570W        W59788  24.080  20.191  12.076
91571W        W59789  30.511  25.813   4.500
91572W        W59790  38.512  34.550   1.459
91573W        W59791  11.896   0.286  13.151
91574W        W59792  17.646   9.462   1.411
91575W        W59793  12.450  40.068   4.547
91576W        W59794  30.985  21.207   0.366
91577W        W59795  16.755   3.146  14.449
91578W        W59796  38.056  42.501   0.858
91579W        W59797  23.637  40.381   4.081
91580W        W59798  21.646  19.312   4.036
91581W        W59799  16.220  25.965  13.990
91582W        W59800  18.857  42.986   3.535
91583W        W59801  26.245   3.334  14.822
91584W        W59802  16.240  39.160  13.158
91585W        W59803  22.021  10.905  14.806
91586W        W59804  15.964  11.173   1.409
91587W        W59805  33.482  13.867   4.372
91588W        W59806  27.169   2.698  12.421
91589W        W59807  29.044  33.847  12.469
91590W        W59808  14.322  40.933  11.965
91591W        W59809  39.169   5.414  14.447
91592W        W59810  14.695  17.531  14.428
91593W        W59811  42.809  21.086   0.266
91594W        W59812  37.436   4.440  12.268
91595W        W59813  22.962  39.030  10.665
91596W        W59814  44.554  32.636  12.067
91597W        W59815  23.340  43.312   0.733
91598W        W59816  15.654  12.179  13.830
91599W        W59817  24.035  43.884   0.321
91600W        W59818  12.627   8.803  14.254
91601W        W59819  44.612  37.509  12.042
91602W        W59820  39.492   2.423  14.397
91603W        W59821  20.624  37.087   0.439
91604W        W59822  12.816  11.728   4.191
91605W        W59823  39.478  32.368   1.891
91606W        W59824  35.449  37.416   1.262
91607W        W59825   5.252  24.172   0.560
91608W        W59826  40.922  31.071  14.446
91609W        W59827   2.407  28.993  13.831
91610W        W59828  11.360   8.558  14.908
91611W        W59829   3.277  26.395  11.185
91612W        W59830  17.337   9.770   2.447
91613W        W59831   6.142   9.402   2.291
91614W        W59832   6.455   8.956  11.905
91615W        W59833  34.942   0.734   4.968
91616W        W59834   6.940  11.264   1.254
91617W        W59835   9.752  15.201  14.880
91618W        W59836  17.397  18.261  14.478
91619W        W59837   7.939   6.203  11.150
91620W        W59838  35.691  24.014  12.014
91621W        W59839  28.779  11.591  14.510
91622W        W59840  24.224  16.585   0.176
91623W        W59841  14.359  24.476  10.643
91624W        W59842  19.538   6.714  13.953
91625W        W59843  20.738  30.919  14.873
91626W        W59844  24.619  39.633   4.774
91627W        W59845  36.295  42.023   1.324
91628W        W59846  28.593  17.613  14.187
91629W        W59847   5.935  26.610  14.840
91630W        W59848  44.442  18.885   2.431
91631W        W59849  19.108  44.578  11.947
91632W        W59850  27.865  30.165  13.522
91633W        W59851   4.396  30.507  13.899
91634W        W59852  13.193  20.614  11.576
91635W        W59853  21.121  23.442  11.864
91636W        W59854  19.730  24.044   0.269
91637W        W59855  16.681  23.622   2.795
91638W        W59856   1.207  41.811  12.557
91639W        W59857  19.832  39.051  12.987
91640W        W59858  38.615   7.958   0.222
91641W        W59859  37.742  18.163   1.124
91642W        W59860  34.128  42.750  14.924
91643W        W59861  41.111  30.711   0.398
91644W        W59862  39.647  16.312   4.470
91645W        W59863   7.804   4.695  11.521
91646W        W59864  23.065  22.596  11.195
91647W        W59865   2.877  19.285  10.738
91648W        W59866  24.604   6.669  12.128
91649W        W59867  15.072   7.136   2.773
91650W        W59868   4.867  37.514   3.310
91651W        W59869  32.078   5.231  14.377
91652W        W59870  12.511  25.547   0.302
91653W        W59871  41.684  40.506   4.463
91654W        W59872  19.577  31.193  13.100
91655W        W59873  21.078   2.497   2.320
91656W        W59874   1.823   4.370  14.372
91657W        W59875  36.509  33.280   1.947
91658W        W59876  19.734  29.210  12.403
91659W        W59877  21.749   7.288  13.524
91660W        W59878  38.938  40.612   2.767
91661W        W59879  32.860   5.074   3.750
91662W        W59880  27.071  38.405  12.045
91663W        W59881   5.182  38.780  10.459
91664W        W59882  25.377   9.438  11.095
91665W        W59883   0.701  31.929  13.788
91666W        W59884  42.399   4.389   2.835
91667W        W59885  10.728   7.065   1.354
91668W        W59886  44.497   6.291  10.460
91669W        W59887  41.946  17.896   0.288
91670W        W59888   6.785  33.177   0.221
91671W        W59889  21.001   9.605   1.612
91672W        W59890  29.187  41.873  10.855
91673W        W59891  10.678  24.910   0.290
91674W        W59892  32.983  43.609   1.861
91675W        W59893  38.330  29.701  13.600
91676W        W59894   4.908  17.677  11.649
91677W        W59895  19.659   4.726  11.431
91678W        W59896  15.261  32.361   2.317
91679W        W59897   1.459  43.857  13.462
91680W        W59898  18.879   3.348  10.308
91681W        W59899   9.643  41.426  14.361
91682W        W59900  44.315  43.033   2.321
91683W        W59901  30.910   6.877  12.490
91684W        W59902  17.236  41.705   0.185
91685W        W59903  17.604  28.228   3.686
91686W        W59904  30.750  10.856   3.617
91687W        W59905  26.006  22.699   3.468
91688W        W59906  35.143  33.951  13.306
91689W        W59907  25.563   8.245  11.583
91690W        W59908  26.184  19.134  10.662
91691W        W59909  24.898   7.438   0.343
91692W        W59910  12.676   7.319  12.110
91693W        W59911  21.372  42.444  12.882
91694W        W59912  28.146  12.220  14.620
91695W        W59913  37.355  26.047  14.340
91696W        W59914  24.627  20.762  13.450
91697W        W59915  42.546  11.103   0.427
91698W        W59916  27.495  18.683  12.089
91699W        W59917  41.258  14.552  14.567
91700W        W59918   6.806  24.679  11.683
91701W        W59919   2.321   7.323   4.832
91702W        W59920  27.680   9.799   1.974
91703W        W59921  16.077  19.518   1.206
91704W        W59922  27.899  19.469  14.182
91705W        W59923  16.823  15.776   2.305
91706W        W59924   9.908  15.862  10.279
91707W        W59925   8.211  43.869  14.474
91708W        W59926  18.164   5.388   0.705
91709W        W59927  31.651   9.374  12.011
91710W        W59928  27.083  18.676   4.616
91711W        W59929   1.399  44.354  14.994
91712W        W59930  24.078  20.696   4.223
91713W        W59931  36.398  32.729  13.120
91714W        W59932   8.144  37.434   3.142
91715W        W59933  40.014   3.223   2.372
91716W        W59934  33.090  11.350  14.772
91717W        W59935   4.793  39.723  14.904
91718W        W59936  21.859   8.034  12.114
91719W        W59937  13.616  35.967   1.447
91720W        W59938  24.599  38.043   2.425
91721W        W59939  26.179  36.609   3.277
91722W        W59940  36.397  18.577   3.901
91723W        W59941   0.903  37.215   0.650
91724W        W59942  39.560  11.213   3.140
91725W        W59943  22.155   6.827  14.389
91726W        W59944  25.162   4.654  10.124
91727W        W59945  35.988  15.235  12.388
91728W        W59946   1.719  43.975  13.020
91729W        W59947  30.472  25.329   4.648
91730W        W59948   4.822  15.113  14.860
91731W        W59949  43.741   8.950  14.281
91732W        W59950  40.158  33.447   4.556
91733W        W59951  14.035  29.527   4.540
91734W        W59952  44.638  40.334  14.533
91735W        W59953  14.786  23.548  10.763
91736W        W59954  23.302   6.414  14.270
91737W        W59955   3.264   5.316   3.729
91738W        W59956  15.623   4.503   4.988
91739W        W59957   5.457  39.001   4.083
91740W        W59958  43.503  15.078   4.009
91741W        W59959   8.344  32.869  13.988
91742W        W59960  13.454  33.516   2.795
91743W        W59961  21.484  13.187  12.560
91744W        W59962  17.837  30.542   4.922
91745W        W59963   4.238  32.471  10.770
91746W        W59964  15.994  24.973  12.974
91747W        W59965  20.693  42.858  14.873
91748W        W59966  25.130  17.147   2.146
91749W        W59967   2.770   8.696  10.455
91750W        W59968  20.090  30.492   1.355
91751W        W59969  37.031   7.136   1.344
91752W        W59970   1.211  43.896  13.921
91753W        W59971  37.348  20.683  13.588
91754W        W59972  35.039   3.366  14.008
91755W        W59973   0.951  30.376   4.837
91756W        W59974  36.476  37.022   3.670
91757W        W59975  37.126  33.010   3.092
91758W        W59976  32.338   0.957  10.299
91759W        W59977  28.032  37.819  10.523
91760W        W59978  11.633  36.304   0.952
91761W        W59979  41.672  39.850   4.800
91762W        W59980  40.342   1.040   0.514
91763W        W59981  25.672  17.536   3.656
91764W        W59982  44.931  23.852   4.669
91765W        W59983  40.370   2.939   2.630
91766W        W59984  16.841  35.804  13.865
91767W        W59985  10.689   9.930  12.475
91768W        W59986  21.244  35.953   1.409
91769W        W59987  31.362  20.942  12.417
91770W        W59988  38.076  44.532  13.958
91771W        W59989   5.777  14.701  13.972
91772W        W59990  33.737  21.473   1.943
91773W        W59991  10.744  28.205  12.439
91774W        W59992   7.316  38.947   0.761
91775W        W59993   9.109  42.360  13.918
91776W        W59994  17.782  36.535  13.817
91777W        W59995  19.703  37.419   3.803
91778W        W59996  40.891   7.717   1.788
91779W        W59997  42.693   2.317   2.296
91780W        W59998  36.547  31.672   1.806
91781W        W59999   6.731   5.207   0.342
91782W        W60000  42.941  39.118   3.635
91783W        W60001  38.961  13.313  11.098
91784W        W60002  29.193   4.664  12.457
91785W        W60003  18.071   6.867   1.019
91786W        W60004  33.696  19.119  12.564
91787W        W60005   6.663  28.734   2.774
91788W        W60006  34.280  15.163   0.420
91789W        W60007  43.850  18.721   2.787
91790W        W60008  28.067   1.783  11.011
91791W        W60009  44.767  26.886  12.519
91792W        W60010  32.389   7.908  10.820
91793W        W60011  16.259  19.924   4.926
91794W        W60012   6.429   9.952  13.766
91795W        W60013  44.451  42.820   5.022
91796W        W60014   1.311   2.511  14.672
91797W        W60015  24.503   4.282   2.735
91798W        W60016   8.779   7.188  12.456
91799W        W60017  10.078  22.616  11.865
91800W        W60018  25.919  12.578   4.610
91801W        W60019  24.259  26.988   2.938
91802W        W60020  28.314  13.745   0.800
91803W        W60021   5.202  16.275   4.931
91804W        W60022  16.294  27.014  14.348
91805W        W60023  22.703  13.881  14.772
91806W        W60024   4.633  43.985   4.881
91807W        W60025  20.331  21.550  11.186
91808W        W60026  18.711  21.135   5.298
91809W        W60027  13.153  26.660  11.053
91810W        W60028  41.342  22.387  12.479
91811W        W60029  39.433  14.542   3.638
91812W        W60030  21.260  23.250   0.044
91813W        W60031   8.454  20.319  11.494
91814W        W60032   0.244  36.336   4.616
91815W        W60033  18.549   4.400   0.999
91816W        W60034  26.373  27.000  11.928
91817W        W60035   2.365  34.452   1.123
91818W        W60036  38.269   1.106  10.385
91819W        W60037  16.872   7.199  11.609
91820W        W60038   9.822   1.062  12.649
91821W        W60039   2.936  35.437   0.091
91822W        W60040   9.274  28.508   4.498
91823W        W60041   7.445  25.228  13.435
91824W        W60042   6.361  22.245   0.657
91825W        W60043  23.933  40.289   1.711
91826W        W60044  30.469  42.581  11.684
91827W        W60045  19.465  28.109   2.317
91828W        W60046  29.870   2.436   2.879
91829W        W60047   5.228  41.295   3.090
91830W        W60048   9.999  40.958   0.907
91831W        W60049  26.501   6.392  12.078
91832W        W60050  26.034   0.840   1.563
91833W        W60051  25.592  36.829   0.024
91834W        W60052   9.084  26.267   1.225
91835W        W60053   3.862  29.598  13.614
91836W        W60054   4.141  20.220   2.602
91837W        W60055   5.330   3.654   3.116
91838W        W60056  38.016  15.794   0.079
91839W        W60057  33.679  32.576   2.937
91840W        W60058  26.066  22.525  13.788
91841W        W60059  25.065  18.628  13.572
91842W        W60060  38.002  16.317   4.663
91843W        W60061  44.058  14.101  14.119
91844W        W60062  30.069   8.546  13.809
91845W        W60063  36.017  11.137   3.170
91846W        W60064  19.644  30.595  13.386
91847W        W60065  36.885  39.254   2.744
91848W        W60066  19.154   4.680   4.976
91849W        W60067   0.770  34.389   2.577
91850W        W60068  15.845  18.039  14.283
91851W        W60069   7.807  41.586  14.744
91852W        W60070  25.810  36.980   4.590
91853W        W60071  25.226   9.610  13.857
91854W        W60072  34.444  43.205  12.065
91855W        W60073  30.522   7.200  11.653
91856W        W60074  40.022  18.293  14.286
91857W        W60075  11.316  19.189  11.449
91858W        W60076   5.399  20.838  10.806
91859W        W60077  11.015  29.023  14.405
91860W        W60078  35.445   7.914  14.433
91861W        W60079   4.408  11.624   2.841
91862W        W60080  20.200  36.364  11.416
91863W        W60081  40.991  23.433   2.518
91864W        W60082  38.713   2.280  10.797
91865W        W60083  43.765  19.133   0.283
91866W        W60084  15.313  41.834  12.465
91867W        W60085   4.948   7.413  13.919
91868W        W60086  39.891  29.992   4.336
91869W        W60087  37.391  41.592   2.204
91870W        W60088  12.667  14.011  10.853
91871W        W60089  12.357  40.300   1.351
91872W        W60090   6.178   9.260  12.658
91873W        W60091  33.106   5.224  11.618
91874W        W60092   0.917  37.555  12.524
91875W        W60093   3.738  13.289   1.501
91876W        W60094  16.138  41.917   0.977
91877W        W60095  32.351  44.525   2.054
91878W        W60096  23.673  33.117   0.909
91879W        W60097  37.597   9.321  11.813
91880W        W60098  33.165  43.399  14.580
91881W        W60099  18.110  23.939   3.689
91882W        W60100  37.496  39.294   0.962
91883W        W60101  37.821  23.226  12.805
91884W        W60102  26.323  26.030   9.944
91885W        W60103  37.321  41.758   1.180
91886W        W60104   8.838  39.323   2.640
91887W        W60105  15.375  18.457  12.032
91888W        W60106  41.317  42.087  12.474
91889W        W60107  15.238  21.201  11.186
91890W        W60108  12.287  12.541  12.612
91891W        W60109   2.550  33.922   4.183
91892W        W60110   5.310  21.415  11.414
91893W        W60111  17.508  34.840  12.007
91894W        W60112  32.596  36.543  14.768
91895W        W60113  26.207  32.655   4.297
91896W        W60114   0.001  44.462  12.662
91897W        W60115  40.604  44.162   1.617
91898W        W60116  30.433  27.102  10.230
91899W        W60117   6.282  12.391  11.649
91900W        W60118  17.042   2.812   1.796
91901W        W60119  23.089   0.005  12.470
91902W        W60120   7.714   6.182  14.397
91903W        W60121   0.850  39.309   2.329
91904W        W60122  19.655  19.837  10.757
91905W        W60123  11.930  23.651  13.610
91906W        W60124   6.657   1.898   3.824
91907W        W60125  25.182  42.829  12.526
91908W        W60126   2.253  23.582  14.800
91909W        W60127  24.002   3.393   2.587
91910W        W60128  35.687  36.603  10.704
91911W        W60129  35.609  43.423  11.562
91912W        W60130  42.997  40.791  14.046
91913W        W60131  29.373  32.463  12.987
91914W        W60132  10.266   2.933  13.873
91915W        W60133  10.788  24.114  14.769
91916W        W60134   7.564  39.091   4.605
91917W        W60135  31.419  11.408  11.517
91918W        W60136  43.450  24.579  13.393
91919W        W60137  35.832  23.112  14.794
91920W        W60138  18.283   3.805  11.933
91921W        W60139  25.860  11.861  11.629
91922W        W60140  20.413  28.681  11.540
91923W        W60141   2.417  27.109  12.876
91924W        W60142  19.543   6.677   1.886
91925W        W60143   9.366   9.363   3.365
91926W        W60144  43.125  35.618   2.419
91927W        W60145  17.710  39.705   3.776
91928W        W60146  28.227  44.214  14.286
91929W        W60147  17.517  12.409  12.146
91930W        W60148  41.579  27.680  12.953
91931W        W60149   8.863  34.055  10.844
91932W        W60150  41.783  34.329   0.739
91933W        W60151  32.441  16.593  14.431
91934W        W60152  41.617  16.750   4.535
91935W        W60153  19.022  36.930  13.445
91936W        W60154   1.571  20.585  14.945
91937W        W60155  17.886   1.955   2.327
91938W        W60156  10.251  23.245   0.743
91939W        W60157  11.723  27.915  10.606
91940W        W60158   3.191   0.005  12.327
91941W        W60159   0.270  35.074  12.012
91942W        W60160  40.599   8.305  12.152
91943W        W60161   5.316  42.952   1.667
91944W        W60162  37.882  36.450   3.750
91945W        W60163   3.592  27.136   2.394
91946W        W60164  30.970  25.172  12.910
91947W        W60165  27.408  22.257   1.792
91948W        W60166  32.983  43.587   0.022
91949W        W60167  21.576   5.412   2.616
91950W        W60168  15.987  36.397   0.948
91951W        W60169  42.539  44.744   4.721
91952W        W60170  10.335  27.342   5.000
91953W        W60171  23.514   8.813  11.528
91954W        W60172  37.434  38.015   1.366
91955W        W60173  36.989  38.440  14.326
91956W        W60174  24.062   5.144   0.291
91957W        W60175  32.951   0.064  13.588
91958W        W60176  44.748  35.138  12.068
91959W        W60177  13.825  31.373  14.431
91960W        W60178  22.042  10.425   3.191
91961W        W60179  10.295  17.893  13.292
91962W        W60180  17.850  44.945   1.239
91963W        W60181  37.542   5.533  12.367
91964W        W60182  27.744  22.393  12.225
91965W        W60183   7.778  32.707  12.051
91966W        W60184  21.130  31.130   2.829
91967W        W60185  14.298  35.008  12.387
91968W        W60186   0.933  39.212   4.804
91969W        W60187  21.535   1.032   3.141
91970W        W60188  35.409   7.924   0.481
91971W        W60189   6.427  11.111  14.574
91972W        W60190  12.336  37.838   2.707
91973W        W60191  34.889   0.731   2.412
91974W        W60192  13.620  42.365  11.570
91975W        W60193  20.993  26.666   4.119
91976W        W60194  16.310  26.473  12.835
91977W        W60195  38.021   1.531   0.289
91978W        W60196  43.106   8.359   2.426
91979W        W60197  41.617  35.963   0.189
91980W        W60198  25.012  40.434  11.597
91981W        W60199  19.593   2.701  11.241
91982W        W60200  26.947  25.105  10.226
91983W        W60201  26.015  25.259  14.373
91984W        W60202  12.179   8.006  13.837
91985W        W60203  37.879  43.277   1.897
91986W        W60204  22.000  37.117  12.515
91987W        W60205  11.416  33.325   1.906
91988W        W60206  13.212   2.158  11.103
91989W        W60207   1.122  10.801   0.787
91990W        W60208  28.744  32.859   3.806
91991W        W60209  11.556  21.491  13.005
91992W        W60210   9.645  13.018  13.548
91993W        W60211   9.798  42.295   4.798
91994W        W60212  16.698  34.346   3.676
91995W        W60213  11.705   3.401  12.162
91996W        W60214  17.259  32.273   4.251
91997W        W60215  14.271  28.608  11.645
91998W        W60216  12.542  18.876  11.982
91999W        W60217   3.765  10.618  10.898
92000W        W60218   0.848  17.061   2.155
92001W        W60219  27.979  24.173   1.837
92002W        W60220   6.058  39.820  10.585
92003W        W60221  40.749  21.545   1.923
92004W        W60222   4.760  36.466   1.918
92005W        W60223  33.858  41.958  11.218
92006W        W60224  33.112  10.519   2.993
92007W        W60225  23.539   3.411  14.994
92008W        W60226  29.442  32.976  12.937
92009W        W60227  16.273  22.295   2.685
92010W        W60228   3.164  10.177   2.798
92011W        W60229   4.764   4.271  10.637
92012W        W60230   9.501   5.788   1.317
92013W        W60231   4.813  34.320  13.520
92014W        W60232  40.462  16.847  12.112
92015W        W60233  17.539  41.615   3.796
92016W        W60234  39.017  25.520   3.781
92017W        W60235  16.717   0.278  10.089
92018W        W60236  25.738  18.551   4.215
92019W        W60237  44.239  16.347  11.131
92020W        W60238  23.437  33.466   3.629
92021W        W60239  43.779  40.514  12.780
92022W        W60240  40.900  23.964   0.397
92023W        W60241  35.623  13.678   3.324
92024W        W60242  25.014  37.179   1.881
92025W        W60243  34.822  17.247  12.336
92026W        W60244  20.728  19.504   0.474
92027W        W60245  11.832   0.812   4.525
92028W        W60246   1.050  33.843  13.809
92029W        W60247  14.387   6.582   2.600
92030W        W60248  23.168  33.867   0.716
92031W        W60249   7.325  13.323  13.907
92032W        W60250  35.036   1.428   0.853
92033W        W60251  16.460   3.397   3.186
92034W        W60252  19.824  28.571  13.096
92035W        W60253  30.181  43.029  13.960
92036W        W60254  12.719  11.647  13.367
92037W        W60255   5.737   4.703   0.474
92038W        W60256  36.124  37.801  11.201
92039W        W60257   2.694   8.680  11.686
92040W        W60258  42.168  14.230   5.093
92041W        W60259  33.344  27.216   1.335
92042W        W60260  17.774  22.611  12.460
92043W        W60261   7.752  14.735  12.871
92044W        W60262  30.134  41.705  13.817
92045W        W60263  13.676   1.098   0.775
92046W        W60264   1.223  20.931  14.898
92047W        W60265  29.904  16.813   5.167
92048W        W60266  14.296   8.201  10.690
92049W        W60267  20.730  23.125   3.164
92050W        W60268  10.760  35.102  13.364
92051W        W60269  24.444  12.081   2.536
92052W        W60270  35.860  25.099   2.741
92053W        W60271   2.226  43.804   0.903
92054W        W60272   9.506  29.434  10.671
92055W        W60273   4.139  31.522  13.504
92056W        W60274   9.302  14.918  13.032
92057W        W60275  14.062  32.906  11.056
92058W        W60276  24.603  27.900   0.713
92059W        W60277   2.205   5.933  11.614
92060W        W60278  38.004  17.681  12.379
92061W        W60279   2.718   0.473  11.495
92062W        W60280  16.561  16.721   4.201
92063W        W60281  18.524   8.362  13.972
92064W        W60282   6.649  10.777  12.011
92065W        W60283  20.560  16.889   1.408
92066W        W60284  34.879  27.381   0.042
92067W        W60285   3.943  37.128   0.988
92068W        W60286  32.982  42.496  10.454
92069W        W60287  17.921  38.957   3.388
92070W        W60288  33.533  10.434   4.657
92071W        W60289  43.310  22.631  11.806
92072W        W60290  44.422  35.578  12.020
92073W        W60291  19.630  21.161   2.417
92074W        W60292  35.566  40.442   3.892
92075W        W60293   6.197  36.530   1.963
92076W        W60294  44.763  40.002   2.427
92077W        W60295  43.295  34.018   1.024
92078W        W60296  24.727  40.609   2.185
92079W        W60297  40.889  18.544  13.849
92080W        W60298  37.907  38.588  13.807
92081W        W60299  14.878  43.725  11.767
92082W        W60300  24.700  25.558   0.495
92083W        W60301  26.144  19.169  13.811
92084W        W60302  12.525   5.373   4.154
92085W        W60303  17.102  44.448  12.810
92086W        W60304  35.972   4.522   0.579
92087W        W60305   9.246  25.725   4.541
92088W        W60306  43.918  41.332   0.033
92089W        W60307  32.539   6.449   4.743
92090W        W60308  25.206  19.588   4.633
92091W        W60309  26.620  43.843   3.238
92092W        W60310  31.026  43.318  10.886
92093W        W60311   3.978   7.895  14.424
92094W        W60312   4.380   0.434   3.922
92095W        W60313  25.346   9.799  12.852
92096W        W60314   0.408   1.437  13.982
92097W        W60315  38.965  44.764  14.045
92098W        W60316  42.346  15.579   0.641
92099W        W60317  19.765  39.954   1.986
92100W        W60318  34.471  31.944  11.922
92101W        W60319   5.936  13.598  12.796
92102W        W60320   8.800  41.340   3.218
92103W        W60321   2.735  38.862   5.032
92104W        W60322  24.555  33.690  10.616
92105W        W60323  22.677  43.731  13.602
92106W        W60324  22.049   0.307  12.638
92107W        W60325  15.268  19.006   3.785
92108W        W60326   5.891   3.341  14.247
92109W        W60327  23.069  23.290  11.726
92110W        W60328  29.710   1.731   4.157
92111W        W60329  19.173  12.168   0.462
92112W        W60330   1.162   5.414   4.032
92113W        W60331  13.319  19.724  11.293
92114W        W60332  17.404  44.809   5.001
92115W        W60333  28.856  32.395  12.952
92116W        W60334  32.152   1.483   2.558
92117W        W60335  43.845  31.136   2.843
92118W        W60336  24.627  22.605  10.488
92119W        W60337  19.405  29.467  12.068
92120W        W60338  37.548  16.272   4.931
92121W        W60339  36.374  37.326   1.375
92122W        W60340  24.456  20.624   3.856
92123W        W60341   2.920  28.492   0.446
92124W        W60342  36.770  11.663  14.610
92125W        W60343   5.323  17.383  11.756
92126W        W60344  38.404  43.280   3.069
92127W        W60345  23.634  21.753   0.053
92128W        W60346  25.919   9.931  14.528
92129W        W60347  37.484  10.805   3.651
92130W        W60348  26.248  36.921   3.711
92131W        W60349   7.414  21.098   3.652
92132W        W60350  22.586  33.196   0.360
92133W        W60351  20.255  23.996  12.453
92134W        W60352   8.712  25.480  13.090
92135W        W60353  16.302   5.835   0.427
92136W        W60354  37.924  36.156   1.887
92137W        W60355  24.534  32.541   2.176
92138W        W60356  33.640  38.012   4.900
92139W        W60357  25.483  13.193   1.766
92140W        W60358  37.593  31.284   0.826
92141W        W60359  21.084  27.679   4.345
92142W        W60360   3.484  10.522   3.230
92143W        W60361  20.302  17.238  13.817
92144W        W60362   7.717  28.197   2.248
92145W        W60363   4.337   8.216  14.728
92146W        W60364  26.281  37.401   0.463
92147W        W60365  22.211  17.041  12.008
92148W        W60366  10.941  35.949  10.695
92149W        W60367  30.541  20.095   0.884
92150W        W60368  26.040  21.678  11.598
92151W        W60369  27.755   9.114  12.766
92152W        W60370   8.732  17.539  14.465
92153W        W60371  40.054  38.317  12.557
92154W        W60372  33.500  21.276  11.189
92155W        W60373  38.428  19.769   1.019
92156W        W60374  38.277  17.398  13.610
92157W        W60375  20.622  36.761  12.998
92158W        W60376  22.052  43.477  14.352
92159W        W60377  17.784  22.580   1.401
92160W        W60378  16.147  37.559   2.754
92161W        W60379  17.725   0.074   3.304
92162W        W60380   7.807  16.985  13.451
92163W        W60381  21.805  44.270  13.815
92164W        W60382  23.468  39.417  14.836
92165W        W60383  14.197   3.439  12.023
92166W        W60384  16.188  28.530  13.489
92167W        W60385  12.046   3.174  13.986
92168W        W60386  16.648  25.626  12.908
92169W        W60387  29.911  32.472  13.011
92170W        W60388   6.248  44.351   2.802
92171W        W60389  28.745  27.946  14.410
92172W        W60390  31.081   7.898  12.543
92173W        W60391  34.620   8.648  10.796
92174W        W60392   0.944  40.369  13.741
92175W        W60393  11.738  43.063  12.796
92176W        W60394  14.245  39.519   4.663
92177W        W60395  41.362  44.367   4.897
92178W        W60396  30.928  27.216   9.923
92179W        W60397  26.393   6.730  10.610
92180W        W60398  44.833  12.971  13.902
92181W        W60399  21.792  30.594  14.470
92182W        W60400  15.740   7.382  11.457
92183W        W60401  34.147  32.227  14.331
92184W        W60402  26.059  43.594   0.963
92185W        W60403  31.404   5.672  13.826
92186W        W60404   4.226  10.675  11.123
92187W        W60405   9.000  12.699   1.173
92188W        W60406  32.617  42.444   1.393
92189W        W60407  21.982   6.105   3.455
92190W        W60408  31.549  37.546  10.280
92191W        W60409   9.321  41.991   3.664
92192W        W60410  22.620  16.501  10.672
92193W        W60411  12.916  34.002  12.817
92194W        W60412  41.057  10.076  12.810
92195W        W60413  40.809   7.230  11.143
92196W        W60414   3.841  18.491  12.491
92197W        W60415  44.106  26.779   1.635
92198W        W60416  35.271  18.041   4.233
92199W        W60417   6.624  13.184   3.613
92200W        W60418  27.717  19.655  14.845
92201W        W60419  15.526  25.727   1.141
92202W        W60420  26.394  28.934  11.086
92203W        W60421  33.384  11.206   3.182
92204W        W60422  15.735  25.933  14.223
92205W        W60423  11.902  39.282   0.735
92206W        W60424  18.566  27.387  14.426
92207W        W60425  10.840   0.225  13.038
92208W        W60426  42.892  38.336  12.073
92209W        W60427  34.811  13.749  14.937
92210W        W60428  31.077  29.649  14.500
92211W        W60429   4.723  44.280   4.160
92212W        W60430  23.625  43.417  14.844
92213W        W60431  19.153  37.304   9.749
92214W        W60432  14.553   2.900   3.096
92215W        W60433  43.142  21.276  14.713
92216W        W60434  20.894  18.610  13.231
92217W        W60435   9.141  28.091   1.988
92218W        W60436  27.212  23.550  14.803
92219W        W60437   4.716  10.621  12.347
92220W        W60438  23.753  17.316   0.719
92221W        W60439  16.497  18.100   0.855
92222W        W60440   8.644   7.203  13.799
92223W        W60441  29.518   8.141   3.228
92224W        W60442   4.887  16.832   0.755
92225W        W60443  14.830  39.787  11.608
92226W        W60444  21.931  11.889  12.603
92227W        W60445  22.743  14.860  11.548
92228W        W60446  44.421  41.199  12.504
92229W        W60447  34.955  36.270  13.429
92230W        W60448  35.030  42.910   3.035
92231W        W60449  37.004  34.967   0.861
92232W        W60450  20.491  17.696   1.884
92233W        W60451   7.043   4.723   0.941
92234W        W60452  33.098  38.501  12.383
92235W        W60453  43.104  17.047  12.595
92236W        W60454  23.625  22.498   3.356
92237W        W60455   9.227  26.673  12.025
92238W        W60456  18.727   2.819  11.997
92239W        W60457   5.940  30.600  13.047
92240W        W60458   1.243   8.855  13.483
92241W        W60459   3.631   7.898  12.806
92242W        W60460  19.533  35.831   2.355
92243W        W60461   4.846  35.306  13.133
92244W        W60462  17.613  37.333   0.796
92245W        W60463   1.898  22.971   2.475
92246W        W60464  21.164  10.999  10.112
92247W        W60465  39.374  20.546   2.333
92248W        W60466  42.482  32.472  11.217
92249W        W60467   0.587  44.662   4.208
92250W        W60468  30.794  26.560   0.791
92251W        W60469  25.529  21.711   2.780
92252W        W60470   1.855  14.392  13.890
92253W        W60471   1.256  44.481   0.843
92254W        W60472  43.284  27.510  14.753
92255W        W60473  20.731  19.137  10.745
92256W        W60474  21.596  15.766  12.947
92257W        W60475  38.328  38.482  10.911
92258W        W60476   6.365   1.993  13.573
92259W        W60477  39.330  42.707   2.152
92260W        W60478  43.331  34.269  10.683
92261W        W60479   9.281  39.940  11.524
92262W        W60480  11.849  19.395  12.723
92263W        W60481  23.348  34.843  11.608
92264W        W60482  18.786  34.047  13.398
92265W        W60483  39.118  15.047  14.654
92266W        W60484   8.278  42.400  11.505
92267W        W60485  28.218   2.800   4.536
92268W        W60486  39.310   2.752  11.683
92269W        W60487  33.537  38.885   0.382
92270W        W60488  42.463  20.850  14.914
92271W        W60489  38.741  43.603  11.063
92272W        W60490  23.127  33.179  10.817
92273W        W60491  39.711   6.102   0.409
92274W        W60492  32.450   8.214  11.653
92275W        W60493  43.810   1.083   1.398
92276W        W60494  37.117   8.059  12.011
92277W        W60495  10.870  13.034  11.875
92278W        W60496  42.756  24.349  10.942
92279W        W60497  28.064   9.102  14.859
92280W        W60498  23.991  14.706   2.656
92281W        W60499  25.444   0.103  14.289
92282W        W60500   2.318   7.407  10.747
92283W        W60501   2.880  16.688  13.590
92284W        W60502   5.145  23.714  13.338
92285W        W60503  34.263  10.097  14.847
92286W        W60504   7.684  32.522  11.180
92287W        W60505  15.222  15.295  10.225
92288W        W60506  21.667  15.249  12.851
92289W        W60507  18.244  11.871   2.564
92290W        W60508   6.710   9.857  12.871
92291W        W60509  26.429  42.792   0.294
92292W        W60510  31.619  22.000   2.321
92293W        W60511  16.141  27.475  14.192
92294W        W60512  17.218   5.690   1.429
92295W        W60513  10.449   3.793  13.327
92296W        W60514   9.187  28.936  12.990
92297W        W60515   2.763  44.020  13.982
92298W        W60516  20.460  43.489  10.908
92299W        W60517   1.854  34.031  14.275
92300W        W60518   9.318  27.143   2.820
92301W        W60519  39.478   4.300   2.741
92302W        W60520   0.482  14.149   2.658
92303W        W60521  12.084  24.190  11.578
92304W        W60522  10.632   9.881  13.495
92305W        W60523  22.629  12.310  11.187
92306W        W60524   9.170  26.024  14.418
92307W        W60525  25.092  19.307   4.221
92308W        W60526  31.240  44.349   0.283
92309W        W60527  44.341   6.131   2.258
92310W        W60528  38.607   4.376   4.198
92311W        W60529   5.902  11.849   2.872
92312W        W60530  12.833  31.147  14.765
92313W        W60531  35.026   6.368   1.360
92314W        W60532  34.632  24.935   2.476
92315W        W60533  23.273  13.341   0.332
92316W        W60534  24.337  18.746   0.915
92317W        W60535  36.590  17.383  12.962
92318W        W60536  44.160  20.518  12.587
92319W        W60537  41.823  32.626   4.633
92320W        W60538   2.506   2.448  12.432
92321W        W60539  19.814  41.835   4.505
92322W        W60540   4.429  12.232  13.544
92323W        W60541  28.443  27.496  11.108
92324W        W60542   8.188   1.068   4.162
92325W        W60543   8.254   5.183   4.055
92326W        W60544  42.554   2.823  13.620
92327W        W60545  17.062  14.678   1.887
92328W        W60546  20.185  10.744   2.670
92329W        W60547  22.023  18.596   1.212
92330W        W60548  26.224  26.430   0.069
92331W        W60549  31.647  21.933   4.825
92332W        W60550  10.654  40.551   0.665
92333W        W60551  38.842  34.889  11.831
92334W        W60552  42.306   6.187   2.855
92335W        W60553  17.305   4.349  11.274
92336W        W60554  27.658  37.298   2.866
92337W        W60555  30.994  24.538  11.304
92338W        W60556  11.196  41.452   4.531
92339W        W60557  33.989  19.107   2.713
92340W        W60558  15.675   5.690   1.298
92341W        W60559  12.308   0.477   0.560
92342W        W60560  15.732  44.275   0.798
92343W        W60561   3.928  30.217  11.201
92344W        W60562  17.590  37.675  11.960
92345W        W60563  25.057  44.392   3.860
92346W        W60564  35.887  34.113   0.338
92347W        W60565  24.255  20.093   1.273
92348W        W60566   9.164  38.189  11.178
92349W        W60567  28.063  42.690   5.093
92350W        W60568  30.889  29.564  10.616
92351W        W60569   5.850  24.713  14.074
92352W        W60570  38.702  44.845  11.435
92353W        W60571  11.349   5.641   2.210
92354W        W60572  22.138  12.274   1.691
92355W        W60573  38.592  18.092  13.118
92356W        W60574  29.084  25.619   4.924
92357W        W60575  38.440  35.311   3.177
92358W        W60576  44.652  27.909   0.999
92359W        W60577  10.947  28.646   2.830
92360W        W60578  25.968  15.286  13.050
92361W        W60579  11.805   3.537  10.833
92362W        W60580  30.550  27.091  13.380
92363W        W60581   1.739  25.167   4.568
92364W        W60582  33.042  36.550   4.359
92365W        W60583  28.006  26.307   3.104
92366W        W60584  38.843  22.814   1.551
92367W        W60585  17.817  10.798   1.309
92368W        W60586  29.493  31.082  13.117
92369W        W60587  30.628  27.682  12.865
92370W        W60588  39.597  41.881   2.743
92371W        W60589  22.220  12.570   3.840
92372W        W60590  14.581   7.324   3.708
92373W        W60591   2.250  30.071  14.427
92374W        W60592   2.625  33.310   3.629
92375W        W60593  44.278  32.213   4.153
92376W        W60594   3.604  11.179  12.938
92377W        W60595  26.438  33.555   1.323
92378W        W60596  10.125  30.786   1.731
92379W        W60597  43.837  30.141  11.131
92380W        W60598  18.238   7.178   1.371
92381W        W60599   8.268   4.240   2.781
92382W        W60600  42.619   0.236   4.134
92383W        W60601  32.886  34.360   1.296
92384W        W60602  12.355   7.754   2.347
92385W        W60603  37.554  16.315  11.722
92386W        W60604   5.411  43.206  11.098
92387W        W60605  22.281  24.091  10.739
92388W        W60606  36.900   9.075  12.202
92389W        W60607   8.121   1.903   3.830
92390W        W60608  22.094   1.032   1.926
92391W        W60609  42.591  16.642   1.514
92392W        W60610  31.092  28.918  13.767
92393W        W60611  27.553  33.210   1.833
92394W        W60612  38.745   7.800  12.972
92395W        W60613  12.184  23.099  12.165
92396W        W60614  18.033  27.684  12.571
92397W        W60615   7.826  13.137  14.019
92398W        W60616  26.683   1.132  13.933
92399W        W60617  14.759  30.065   1.387
92400W        W60618   3.368  42.286   2.976
92401W        W60619  34.437  26.894   4.528
92402W        W60620  44.668   7.268  11.581
92403W        W60621  15.025   7.766   4.443
92404W        W60622   1.735  33.121  14.106
92405W        W60623  35.453  41.045  11.544
92406W        W60624  28.961  34.848  12.086
92407W        W60625  43.388   5.403  12.664
92408W        W60626  34.578  38.376  11.095
92409W        W60627  42.344  29.077  13.908
92410W        W60628  36.500   5.797   0.391
92411W        W60629  11.750   3.360   4.652
92412W        W60630   1.840  12.690   2.766
92413W        W60631  38.669  43.196   0.764
92414W        W60632   1.504  27.451  11.217
92415W        W60633  28.868  30.070  13.475
92416W        W60634  37.857  33.860   0.941
92417W        W60635   2.898   6.328  13.104
92418W        W60636  37.098  14.141   5.089
92419W        W60637  26.744  25.732  11.782
92420W        W60638   7.961  23.571  12.122
92421W        W60639  15.392  15.764   1.402
92422W        W60640  27.233  38.824  11.460
92423W        W60641  15.544  10.876  13.526
92424W        W60642  19.268  32.860  12.115
92425W        W60643  11.693  16.637   2.642
92426W        W60644  22.545  27.127  12.047
92427W        W60645  36.286  36.358   1.860
92428W        W60646  23.053   2.032   1.889
92429W        W60647  17.289   1.774  12.331
92430W        W60648  26.118  17.336   2.301
92431W        W60649  15.372  22.796   2.579
92432W        W60650  14.207  38.803   0.349
92433W        W60651  12.455  16.677   3.895
92434W        W60652   0.813  39.502  12.224
92435W        W60653  28.659  25.177  14.721
92436W        W60654  15.588  17.244   1.516
92437W        W60655  44.243   6.992   0.838
92438W        W60656  24.485  15.626  12.014
92439W        W60657   4.002   7.881   3.236
92440W        W60658  10.386  37.842  13.909
92441W        W60659   0.576  10.164   1.873
92442W        W60660  32.217  38.473   1.826
92443W        W60661  32.328  28.794  14.401
92444W        W60662  37.713  35.061   0.383
92445W        W60663  29.489  10.945   4.044
92446W        W60664  29.761   7.876  14.364
92447W        W60665  38.508  13.870  14.322
92448W        W60666   5.513   6.144   1.674
92449W        W60667  12.098  16.077   0.884
92450W        W60668  27.026  24.525  11.192
92451W        W60669  22.633   5.410   4.270
92452W        W60670  39.875  19.113   2.684
92453W        W60671  37.393   7.353  14.096
92454W        W60672  19.535   0.917  12.975
92455W        W60673  30.485  18.713  14.776
92456W        W60674  44.877  27.156  12.065
92457W        W60675  21.189   5.776  13.129
92458W        W60676   9.804  41.466   0.838
92459W        W60677   6.855  38.605   3.585
92460W        W60678  16.157  28.182   2.383
92461W        W60679  12.538  15.641  10.354
92462W        W60680  36.461  37.936   1.396
92463W        W60681  40.586  44.995   1.281
92464W        W60682   8.732   2.285  12.764
92465W        W60683  14.405  29.438   2.702
92466W        W60684  15.057   0.929   3.182
92467W        W60685  16.192  31.586  14.815
92468W        W60686  27.007  42.109   3.252
92469W        W60687  39.424  37.401  13.138
92470W        W60688   7.946  29.733   1.391
92471W        W60689  43.577  34.274  13.788
92472W        W60690  36.665  41.812   3.322
92473W        W60691  32.667   3.167   4.398
92474W        W60692   2.819  38.122  13.077
92475W        W60693  22.206  38.044   1.763
92476W        W60694  13.595  21.263  14.007
92477W        W60695  33.402   1.228  12.431
92478W        W60696  34.109  14.096   4.473
92479W        W60697  43.060  12.569  13.789
92480W        W60698  38.803   4.761   3.777
92481W        W60699  33.324  11.770  11.766
92482W        W60700  42.520  31.342   2.500
92483W        W60701  35.824  35.382  12.319
92484W        W60702  21.650  11.663   3.709
92485W        W60703  28.704   8.932  12.215
92486W        W60704  12.822   9.253  11.421
92487W        W60705  27.560  20.721  13.984
92488W        W60706  21.696  22.724   3.116
92489W        W60707  23.403  31.817  12.023
92490W        W60708  38.392  28.114   4.147
92491W        W60709  23.620   3.494   1.244
92492W        W60710  34.874  17.855  11.114
92493W        W60711  24.640  24.374  10.489
92494W        W60712  14.621  10.827   3.829
92495W        W60713  27.870  37.456   5.026
92496W        W60714  36.875  37.193   1.464
92497W        W60715  25.635   9.069  10.822
92498W        W60716   3.701  44.237   2.264
92499W        W60717  21.494  41.996   4.790
92500W        W60718   8.604  30.688  10.702
92501W        W60719   4.012   0.453  12.998
92502W        W60720  13.685  16.199  14.253
92503W        W60721  33.184  23.029  12.356
92504W        W60722  16.730   0.761  14.212
92505W        W60723  19.263   0.865  13.832
92506W        W60724  20.491  30.469  10.277
92507W        W60725  19.897  14.061   4.087
92508W        W60726  21.183   6.650  14.926
92509W        W60727  17.800  15.239   5.085
92510W        W60728  36.376  30.707  12.020
92511W        W60729  26.472  27.631   4.377
92512W        W60730  32.015  41.434  14.169
92513W        W60731  29.929  18.890  12.065
92514W        W60732  21.319  25.193  12.455
92515W        W60733  35.947  42.843   1.278
92516W        W60734   3.852  21.690   0.243
92517W        W60735  32.543  10.857   3.389
92518W        W60736   1.247  11.289  11.663
92519W        W60737  18.113  12.757  12.024
92520W        W60738  38.811  30.384   3.193
92521W        W60739  14.635  28.427   2.652
92522W        W60740   9.263   3.754   4.085
92523W        W60741  25.937  18.375   1.607
92524W        W60742  12.775  39.470   0.520
92525W        W60743   5.984  32.572   3.267
92526W        W60744  38.264  15.694  10.548
92527W        W60745  38.770  25.572  13.449
92528W        W60746  17.236   0.258   0.284
92529W        W60747  44.873   0.435  10.711
92530W        W60748  13.249  37.992   4.109
92531W        W60749  24.402  12.124   0.271
92532W        W60750   9.268  16.159   1.878
92533W        W60751   1.633   6.310   1.016
92534W        W60752  14.357   3.325  10.538
92535W        W60753   5.354  37.110   3.700
92536W        W60754   3.433   6.133  14.402
92537W        W60755  38.051  37.639  13.387
92538W        W60756  19.612  35.623  14.237
92539W        W60757  24.141  35.347   5.239
92540W        W60758  38.226  25.000  10.672
92541W        W60759   5.272   9.779   3.255
92542W        W60760  43.325  11.208  10.735
92543W        W60761  18.130   1.333  13.662
92544W        W60762  10.372  41.360  11.635
92545W        W60763   8.328  41.082   3.244
92546W        W60764  22.724  24.214  13.747
92547W        W60765  14.748  19.252   4.663
92548W        W60766   9.237   2.289  12.564
92549W        W60767  19.652  26.754  13.889
92550W        W60768  15.124   8.685  14.507
92551W        W60769  23.554  32.317  12.088
92552W        W60770  37.271   8.028  11.202
92553W        W60771  36.897  41.544   0.342
92554W        W60772   8.539   3.311  10.122
92555W        W60773  25.916  33.543  12.534
92556W        W60774  20.467  24.896   2.340
92557W        W60775  34.959  26.483  14.886
92558W        W60776  28.665  12.338   0.442
92559W        W60777  12.773  30.562  13.043
92560W        W60778  16.626   0.319   0.915
92561W        W60779  13.598  19.281  11.172
92562W        W60780   0.731  38.475   0.160
92563W        W60781   6.912  16.718   4.148
92564W        W60782  14.353  12.045   3.641
92565W        W60783  13.419   7.935   0.429
92566W        W60784  34.349  39.549  14.160
92567W        W60785   5.933  24.596   4.400
92568W        W60786  44.701   0.207   4.990
92569W        W60787   4.933  30.394  13.813
92570W        W60788   2.823  18.666  14.709
92571W        W60789  26.563  42.365  14.385
92572W        W60790  22.591   2.474  13.855
92573W        W60791  19.528  39.996   0.105
92574W        W60792  41.464   2.001   4.608
92575W        W60793  40.483  29.392  14.902
92576W        W60794  40.548   6.983   2.235
92577W        W60795  23.641  24.163  11.111
92578W        W60796  41.393  43.795   2.684
92579W        W60797  16.593  11.609   4.679
92580W        W60798  26.661  11.053   1.696
92581W        W60799   0.865   5.358   2.960
92582W        W60800   9.413  32.633   1.780
92583W        W60801   4.859   8.114  10.634
92584W        W60802   9.685   4.018   2.003
92585W        W60803  17.981  32.368  11.058
92586W        W60804  29.469  15.691  11.492
92587W        W60805   2.404  16.808  10.970
92588W        W60806  22.729   6.349   2.736
92589W        W60807  13.596  43.783  13.479
92590W        W60808   1.499   7.685   2.920
92591W        W60809  39.526  23.550  11.845
92592W        W60810   5.601  20.016   2.172
92593W        W60811   8.830  35.587   2.241
92594W        W60812  42.564  26.782  11.424
92595W        W60813  12.235  36.786   2.643
92596W        W60814  44.838   2.809  14.736
92597W        W60815  10.135  10.687   0.890
92598W        W60816   1.281  41.002   0.393
92599W        W60817  24.541  19.681  11.470
92600W        W60818   8.552  20.977   4.152
92601W        W60819  43.302  35.660   3.041
92602W        W60820  30.940  32.361   5.086
92603W        W60821  34.832   2.283   3.439
92604W        W60822  28.647   4.534   3.674
92605W        W60823  40.063  37.342   1.227
92606W        W60824   2.562  35.089  13.961
92607W        W60825  29.812  32.699  14.300
92608W        W60826  19.090   0.418   4.418
92609W        W60827  11.248  26.541  14.837
92610W        W60828  24.696  35.332   1.794
92611W        W60829  17.536  14.732   1.719
92612W        W60830  30.321  30.196   4.105
92613W        W60831  26.214  41.404   3.081
92614W        W60832  18.275   0.918   1.891
92615W        W60833  43.011  41.952   2.798
92616W        W60834   9.665  19.656   4.561
92617W        W60835  15.164   7.385  14.300
92618W        W60836  35.336  21.038   0.429
92619W        W60837  30.858  27.199   5.039
92620W        W60838   7.779   2.575   2.454
92621W        W60839  18.608  25.176   4.628
92622W        W60840  13.703  10.347   0.323
92623W        W60841   4.136  30.289   0.733
92624W        W60842  28.782  23.702   1.849
92625W        W60843  10.886  15.816   2.805
92626W        W60844  10.858  19.170  10.527
92627W        W60845   3.409   7.840  12.317
92628W        W60846  32.639  34.011   0.346
92629W        W60847  26.945  30.034   0.747
92630W        W60848  43.419  19.408  11.246
92631W        W60849  28.690  41.052   1.850
92632W        W60850  16.036  38.535  11.201
92633W        W60851  25.416  10.631   2.741
92634W        W60852   7.410   4.259  10.793
92635W        W60853  27.110  29.610   0.506
92636W        W60854  10.232  16.368  13.431
92637W        W60855  29.425  41.848   3.216
92638W        W60856  44.469  25.751   4.361
92639W        W60857  21.787  12.323  13.505
92640W        W60858   8.213  37.917  12.328
92641W        W60859  22.536  36.452  14.027
92642W        W60860  15.711  17.117  12.943
92643W        W60861  18.061  10.891  11.012
92644W        W60862  18.279  17.254   1.693
92645W        W60863   0.484   1.757   4.920
92646W        W60864  29.634  19.494  14.829
92647W        W60865  27.009  25.550  12.617
92648W        W60866  34.072   7.132   3.804
92649W        W60867  21.938   0.941   4.568
92650W        W60868   9.348  43.261  13.362
92651W        W60869   4.863  17.529  12.533
92652W        W60870  38.076  14.599  12.059
92653W        W60871  13.612  34.878   0.884
92654W        W60872   5.354   2.165  13.226
92655W        W60873  17.526   7.637  13.394
92656W        W60874  40.365   2.567   0.407
92657W        W60875  19.944   3.760  14.900
92658W        W60876  20.004  18.074   4.728
92659W        W60877  43.942  25.369  12.388
92660W        W60878  37.436  44.723  11.437
92661W        W60879  19.705  15.478  10.301
92662W        W60880  13.185  39.254   0.301
92663W        W60881  34.173  22.696  12.821
92664W        W60882   3.589  42.667  14.280
92665W        W60883  28.112   9.273   2.803
92666W        W60884  39.834  20.768  10.688
92667W        W60885   2.865  22.450   3.402
92668W        W60886  35.279  33.847   0.545
92669W        W60887  26.080  18.150   4.114
92670W        W60888  41.950  34.369   4.170
92671W        W60889  37.374  30.951   0.324
92672W        W60890  10.882  36.915  13.059
92673W        W60891  25.208   1.445  12.566
92674W        W60892  21.191  17.967  10.361
92675W        W60893  24.793  41.341   4.512
92676W        W60894  26.999  44.442  11.378
92677W        W60895  28.472   2.384  14.227
92678W        W60896  34.434   8.748   1.946
92679W        W60897   1.390  28.666   4.151
92680W        W60898  39.523  13.837   0.874
92681W        W60899   3.967  23.433  10.450
92682W        W60900  31.883  43.028  13.466
92683W        W60901   8.911  25.491   1.393
92684W        W60902  41.010  15.349   3.261
92685W        W60903  22.904  34.432   1.990
92686W        W60904  34.491   8.398   4.846
92687W        W60905  41.984   1.760  12.468
92688W        W60906  34.033  14.994   4.636
92689W        W60907  36.498  42.795   4.621
92690W        W60908  12.392  25.592   0.814
92691W        W60909  34.427  42.063  11.505
92692W        W60910  17.705   5.265   0.968
92693W        W60911  42.565  15.564  11.528
92694W        W60912   1.729  33.020   2.644
92695W        W60913  34.540  24.187  11.029
92696W        W60914  30.033  42.568  11.951
92697W        W60915  31.056  42.052   2.808
92698W        W60916   2.768  17.175  10.707
92699W        W60917  20.499   1.077   2.143
92700W        W60918  35.552  24.134   3.814
92701W        W60919   8.419   3.934  11.029
92702W        W60920  23.744   3.886  12.165
92703W        W60921  18.289  13.030  14.936
92704W        W60922   2.337  30.804  14.889
92705W        W60923  17.116   6.221   1.370
92706W        W60924  29.912  35.499   0.446
92707W        W60925   7.773  34.564   0.824
92708W        W60926   6.336  19.422   1.486
92709W        W60927  15.583  24.782  12.113
92710W        W60928  18.686   9.201  11.953
92711W        W60929  15.918  37.394  12.938
92712W        W60930  42.761  10.468   1.413
92713W        W60931  40.534   2.297  11.406
92714W        W60932  24.702  32.027   1.478
92715W        W60933  23.124   3.938   4.858
92716W        W60934  29.966  33.496  12.811
92717W        W60935  35.643  35.808   2.197
92718W        W60936  39.417   9.259   4.250
92719W        W60937   9.296  14.897  13.970
92720W        W60938  36.258  27.485   3.609
92721W        W60939  24.669  30.438   2.641
92722W        W60940   9.937  42.095   1.649
92723W        W60941  40.763   9.837   1.443
92724W        W60942   1.880   2.798   4.212
92725W        W60943  17.257  43.779  13.485
92726W        W60944   5.940  36.188   4.707
92727W        W60945  25.287  38.953   0.787
92728W        W60946  11.403  22.136   2.415
92729W        W60947   9.319  12.820  12.978
92730W        W60948   4.054  12.004   4.127
92731W        W60949  10.573   9.406  12.641
92732W        W60950   0.042  18.582   0.440
92733W        W60951  17.898   0.272  12.324
92734W        W60952   5.946   6.298   4.346
92735W        W60953  21.114  14.084   3.248
92736W        W60954  43.504   8.358   0.332
92737W        W60955  30.674  15.909   3.249
92738W        W60956   9.690  40.585   3.767
92739W        W60957  14.135  11.890  13.916
92740W        W60958   7.290  15.324  11.579
92741W        W60959  24.535  42.397   3.475
92742W        W60960  23.479  24.902   0.358
92743W        W60961   1.392  18.172  11.686
92744W        W60962   7.752  38.152  12.355
92745W        W60963  24.665  36.125   3.295
92746W        W60964  44.756  12.631  12.844
92747W        W60965   2.757  17.302  12.066
92748W        W60966  44.517   7.270   3.703
92749W        W60967  44.339  30.712  10.777
92750W        W60968  31.992   5.396   1.757
92751W        W60969  18.688  15.845   1.768
92752W        W60970  36.030   9.580  14.949
92753W        W60971  31.428   2.833  12.078
92754W        W60972  13.210  27.169   1.325
92755W        W60973   0.757  39.951  11.675
92756W        W60974  15.333  33.969   0.830
92757W        W60975  44.144  27.881   5.002
92758W        W60976  13.782  18.172  10.578
92759W        W60977   2.301  15.660  12.833
92760W        W60978   4.359  13.426  13.031
92761W        W60979  31.132  10.862  12.036
92762W        W60980   0.387  22.656  13.763
92763W        W60981  36.142   8.210   1.026
92764W        W60982  31.147  44.347   4.532
92765W        W60983  14.175   0.016  11.671
92766W        W60984  16.204  25.799   4.155
92767W        W60985  15.594   4.940   0.472
92768W        W60986  16.672  36.294   2.259
92769W        W60987  21.062  29.930  10.660
92770W        W60988  28.642   0.453  14.393
92771W        W60989  44.278  21.301   0.148
92772W        W60990  34.955  37.316  10.042
92773W        W60991   3.346  12.348   4.642
92774W        W60992  29.873  25.426  12.112
92775W        W60993   6.637  10.208  10.747
92776W        W60994   6.747   0.744  10.649
92777W        W60995  23.549  33.183  12.608
92778W        W60996  36.518   3.870   4.098
92779W        W60997  37.568  22.554   0.062
92780W        W60998  32.116  16.261   4.146
92781W        W60999  37.560  24.208   1.894
92782W        W61000  35.530  12.231  10.895
92783W        W61001  12.240  24.054   1.643
92784W        W61002  13.110  18.492   0.906
92785W        W61003   6.015  37.365   0.881
92786W        W61004  36.486  22.544   2.649
92787W        W61005   6.325  18.739  14.890
92788W        W61006   3.303  18.942   0.847
92789W        W61007  22.594  13.378  10.721
92790W        W61008   8.147  27.422   1.357
92791W        W61009  40.003  10.171   2.871
92792W        W61010   8.204  11.829   2.214
92793W        W61011  36.618  16.895   0.412
92794W        W61012  39.779  10.382  12.029
92795W        W61013  13.713  16.082   4.517
92796W        W61014   8.653  19.526   3.406
92797W        W61015  33.093  44.060  12.573
92798W        W61016  26.664  31.987   1.977
92799W        W61017  25.482  37.604   2.654
92800W        W61018  44.273   0.824   4.085
92801W        W61019  42.915   6.875  12.762
92802W        W61020  26.735  44.395   4.518
92803W        W61021  42.917  43.245   4.111
92804W        W61022  41.869  35.045  11.859
92805W        W61023   8.990  27.496  14.166
92806W        W61024  44.748   6.769  10.676
92807W        W61025  37.560   2.852   0.390
92808W        W61026  29.136  16.150   2.890
92809W        W61027  18.277  15.804  12.864
92810W        W61028  31.103  24.097  11.072
92811W        W61029  33.779  10.209  14.745
92812W        W61030   2.817  31.028   3.293
92813W        W61031  23.650  22.774   0.054
92814W        W61032   3.906   6.452   3.912
92815W        W61033  40.243  17.233  11.536
92816W        W61034  18.079   7.464  10.610
92817W        W61035  34.358  20.912   1.676
92818W        W61036  21.536  24.258   1.844
92819W        W61037  42.895  35.527  12.476
92820W        W61038  16.543  19.782   1.215
92821W        W61039  42.793  23.858   4.661
92822W        W61040  15.110   2.007  11.856
92823W        W61041  12.285  12.168  14.331
92824W        W61042  10.287  33.649  10.795
92825W        W61043  42.272  36.515   1.019
92826W        W61044  12.364   9.856  13.970
92827W        W61045  10.262   0.419  13.860
92828W        W61046   9.788  26.709  14.811
92829W        W61047  33.936  28.019  14.022
92830W        W61048  31.881   0.532  13.495
92831W        W61049  43.361  15.940   1.453
92832W        W61050  23.153  27.483   1.475
92833W        W61051  20.473  20.449  13.010
92834W        W61052  27.554  32.237   1.992
92835W        W61053  20.007  26.219  14.847
92836W        W61054  27.638   7.251   0.836
92837W        W61055  33.440   9.477  14.898
92838W        W61056  33.602  11.482   4.543
92839W        W61057  32.909   5.233   2.188
92840W        W61058  42.287   8.860  11.772
92841W        W61059  22.205  38.491  13.373
92842W        W61060   5.720  21.085  11.515
92843W        W61061  35.518   0.462  13.443
92844W        W61062  33.651  23.289   2.264
92845W        W61063  13.379  39.051  12.626
92846W        W61064  17.416   0.845  10.302
92847W        W61065  36.644   9.301   0.477
92848W        W61066  31.819  33.548   0.465
92849W        W61067  16.697  19.055  13.569
92850W        W61068  39.912  11.062   1.008
92851W        W61069   7.116  30.202   2.648
92852W        W61070  14.715  17.142   2.549
92853W        W61071  42.318  27.938   4.522
92854W        W61072  35.481  43.779  11.118
92855W        W61073  13.824   1.683  14.899
92856W        W61074  22.447  40.960   3.373
92857W        W61075  10.343  40.442  10.696
92858W        W61076  15.025  24.691  12.999
92859W        W61077  29.101  30.527  13.432
92860W        W61078  34.998  29.732   4.556
92861W        W61079  30.933  40.525  13.060
92862W        W61080  16.224  33.090   2.603
92863W        W61081   8.458   2.887  12.461
92864W        W61082   3.390  23.195   2.288
92865W        W61083  43.938  21.683   4.633
92866W        W61084  23.189  18.471   1.172
92867W        W61085   5.907  41.404  11.082
92868W        W61086  32.410  37.505  10.055
92869W        W61087  14.513  38.412  13.774
92870W        W61088  14.101  12.379  14.839
92871W        W61089  37.983  27.366  11.154
92872W        W61090  26.811   3.712   1.957
92873W        W61091  25.610  37.243  14.664
92874W        W61092   6.128  18.190  11.515
92875W        W61093  13.723  42.409  13.829
92876W        W61094  27.602  36.535  11.501
92877W        W61095  28.128  22.974  14.291
92878W        W61096  38.369  29.547  13.104
92879W        W61097  18.936   7.387  10.836
92880W        W61098  24.204  32.644  10.341
92881W        W61099  43.413  11.787   2.698
92882W        W61100  21.184  26.465   4.550
92883W        W61101  14.628  42.303  10.663
92884W        W61102  20.237  43.925  10.761
92885W        W61103  31.941   3.435  12.151
92886W        W61104   4.887  34.803   1.880
92887W        W61105  16.464   5.190  14.854
92888W        W61106   1.225  18.198  11.209
92889W        W61107  37.518  25.077   2.413
92890W        W61108   9.874  29.023   4.117
92891W        W61109   0.720  40.661   0.933
92892W        W61110  44.408  32.295  11.676
92893W        W61111  34.576  27.178   1.157
92894W        W61112  43.257  29.225   3.427
92895W        W61113   3.495  19.313   3.221
92896W        W61114  24.754  17.252  11.125
92897W        W61115  13.289  14.393   0.019
92898W        W61116   8.753   9.932   3.782
92899W        W61117   2.273  40.437   0.320
92900W        W61118  30.081  40.702  10.725
92901W        W61119  21.815  33.111   4.002
92902W        W61120  30.273   6.800   1.045
92903W        W61121  31.138   9.696   2.039
92904W        W61122  25.061  29.428   1.798
92905W        W61123  42.711  24.675   0.257
92906W        W61124   8.668  19.187  10.221
92907W        W61125   2.831  23.743  11.187
92908W        W61126  10.275  13.411  13.579
92909W        W61127  38.573  27.624   1.966
92910W        W61128  35.423   7.684  12.635
92911W        W61129  13.964  15.128  13.543
92912W        W61130  26.178  26.192   2.919
92913W        W61131  19.117  42.843   4.443
92914W        W61132  33.359  43.381   3.256
92915W        W61133  36.880   2.685  12.505
92916W        W61134  21.823  39.123   2.898
92917W        W61135   0.283  33.438   3.169
92918W        W61136   9.328   6.315   4.312
92919W        W61137  25.420  38.059   2.892
92920W        W61138  42.027   3.416   1.813
92921W        W61139   8.906  14.621  11.889
92922W        W61140  40.050  12.873   0.931
92923W        W61141  14.845  28.143   0.801
92924W        W61142   1.900  25.527  13.509
92925W        W61143   3.779   2.430  13.484
92926W        W61144  43.982  30.393   3.203
92927W        W61145  18.093  31.146   2.471
92928W        W61146   5.810   7.235   4.009
92929W        W61147  35.357  26.848  14.449
92930W        W61148  43.426  10.374  13.812
92931W        W61149  35.826  11.538   2.893
92932W        W61150  13.599  19.183  10.664
92933W        W61151  35.623  39.065   1.939
92934W        W61152   2.687  41.806   3.380
92935W        W61153  11.202  27.251  11.732
92936W        W61154  26.632  16.699   4.974
92937W        W61155   9.755  22.676  14.609
92938W        W61156  16.096  18.476   1.308
92939W        W61157  19.689   9.812   1.334
92940W        W61158  24.689  27.793   2.770
92941W        W61159  26.713   6.220   2.545
92942W        W61160  15.974  42.608   5.009
92943W        W61161  42.466  37.557  14.503
92944W        W61162  13.368  11.034   4.586
92945W        W61163  25.753  40.786  13.351
92946W        W61164  27.703  42.769   0.503
92947W        W61165   5.862  22.195  12.154
92948W        W61166   2.702   0.830  13.300
92949W        W61167  24.884  27.927  13.906
92950W        W61168  42.318  17.965   2.423
92951W        W61169  31.697  16.266   2.312
92952W        W61170  12.137  12.354   1.941
92953W        W61171  41.790   1.293  12.455
92954W        W61172  28.233  18.194  13.986
92955W        W61173  18.125  27.689  14.372
92956W        W61174  28.270  34.077   4.180
92957W        W61175  10.934  35.884   1.456
92958W        W61176  24.606  29.544  12.044
92959W        W61177  10.333  43.744   0.218
92960W        W61178  33.299  13.518   0.438
92961W        W61179  24.640   2.814   1.364
92962W        W61180  24.030  14.847  12.729
92963W        W61181  41.336  22.752  13.438
92964W        W61182   7.000   3.382   4.867
92965W        W61183   7.709  33.080  12.851
92966W        W61184  16.578  27.506  11.253
92967W        W61185  26.656  36.919   2.579
92968W        W61186  10.118  35.687   1.663
92969W        W61187  25.138   0.542   1.462
92970W        W61188  43.920  35.529  10.586
92971W        W61189  25.743  38.477   1.202
92972W        W61190  34.848  21.657   2.626
92973W        W61191   8.192   7.760  14.807
92974W        W61192  11.591   0.777   1.717
92975W        W61193  19.202  27.042   2.112
92976W        W61194  32.799  35.566   0.441
92977W        W61195  36.821  17.623   4.685
92978W        W61196  38.796  13.865   3.651
92979W        W61197   3.521  34.087  11.338
92980W        W61198  40.349  34.687   4.192
92981W        W61199  20.961  17.505  12.352
92982W        W61200  19.061  40.651   0.431
92983W        W61201  39.396  31.878   3.602
92984W        W61202  22.649  21.594   4.638
92985W        W61203  16.136  14.216  12.664
92986W        W61204  29.673   2.718   3.295
92987W        W61205  24.205  21.499   1.102
92988W        W61206  39.318  18.789   2.534
92989W        W61207  25.571  28.999  14.548
92990W        W61208  33.306   6.845   0.934
92991W        W61209  17.664  41.102  13.107
92992W        W61210  40.279  37.322  13.303
92993W        W61211   9.116  12.263  14.941
92994W        W61212  37.995  28.701  10.684
92995W        W61213  35.303  42.460  11.846
92996W        W61214   4.342   4.872  11.641
92997W        W61215  26.264   3.723  13.002
92998W        W61216  44.367   9.715   0.290
92999W        W61217  43.039  40.471   3.736
93000W        W61218  38.752  14.099   1.383
93001W        W61219  23.548  40.409  14.340
93002W        W61220   6.730  26.839   0.424
93003W        W61221  28.214  18.863  12.571
93004W        W61222  39.547   8.960  13.421
93005W        W61223  21.628  11.339  14.279
93006W        W61224   8.110  18.165  10.616
93007W        W61225  15.594  28.407   2.554
93008W        W61226  40.446  42.039   2.763
93009W        W61227  18.208  29.431   3.189
93010W        W61228  25.222  16.649  10.472
93011W        W61229  11.648  25.688  11.553
93012W        W61230   7.600  27.458   2.667
93013W        W61231  41.597  19.016  13.172
93014W        W61232  36.413  44.967  13.426
93015W        W61233  16.513  27.836  13.298
93016W        W61234  17.192  17.782   3.287
93017W        W61235   2.169   9.219   0.267
93018W        W61236  40.564  15.046   3.256
93019W        W61237  14.173  36.438   4.014
93020W        W61238  37.845  11.482  13.888
93021W        W61239  32.488  41.038  12.441
93022W        W61240  35.013  41.337   1.866
93023W        W61241  29.424  29.233   1.843
93024W        W61242  42.287  24.521   1.480
93025W        W61243   3.699  31.649  14.377
93026W        W61244   2.090  37.899   2.232
93027W        W61245   3.234  33.109   1.304
93028W        W61246  28.247  34.001   4.743
93029W        W61247  11.659   7.159   1.374
93030W        W61248  35.524  18.566   0.378
93031W        W61249  29.747  35.121   3.625
93032W        W61250  32.718   8.810   1.327
93033W        W61251   5.797  11.927   4.850
93034W        W61252  17.122   8.442   2.017
93035W        W61253  19.581  38.826   3.714
93036W        W61254  43.125  38.352   4.930
93037W        W61255  24.277  35.093  13.140
93038W        W61256  25.533  37.560  14.222
93039W        W61257  38.898  42.396  12.470
93040W        W61258  21.563  28.432   4.303
93041W        W61259  23.979  35.629   2.244
93042W        W61260  21.114  27.645  10.873
93043W        W61261  16.371  30.377  12.838
93044W        W61262  42.594   1.435   2.263
93045W        W61263  14.734  20.224  12.096
93046W        W61264  34.048   5.135  13.393
93047W        W61265  16.807  31.668   0.434
93048W        W61266   3.915  40.292  10.532
93049W        W61267  42.583  16.853   4.572
93050W        W61268  20.475  26.835   3.345
93051W        W61269  19.661  23.963  10.747
93052W        W61270  29.442   3.352  13.859
93053W        W61271   7.872  11.683   4.372
93054W        W61272  40.847  20.221   4.085
93055W        W61273  27.485  39.729   0.599
93056W        W61274  32.284   2.925  12.625
93057W        W61275  25.779  35.338  10.755
93058W        W61276  15.109  36.779   1.160
93059W        W61277  13.214  11.878  11.112
93060W        W61278   7.776  19.541   3.259
93061W        W61279  33.651  40.503  10.610
93062W        W61280  36.615   6.426  13.513
93063W        W61281  26.724  11.777   1.390
93064W        W61282  26.623   0.430  13.224
93065W        W61283  11.606   8.296  11.860
93066W        W61284   8.757  26.254   2.205
93067W        W61285  34.434  10.275  14.038
93068W        W61286  18.405   4.498   4.074
93069W        W61287  10.281  24.679  11.131
93070W        W61288  13.085  39.560  14.411
93071W        W61289   3.787  35.704  13.824
93072W        W61290  24.605  33.367  12.946
93073W        W61291   7.316  38.259   3.816
93074W        W61292   9.961  24.662   2.942
93075W        W61293  38.884   1.018   4.871
93076W        W61294   3.849  38.828  11.707
93077W        W61295  30.424   2.780   0.630
93078W        W61296   0.742   1.968  11.888
93079W        W61297  22.738  23.492  11.164
93080W        W61298  32.566   8.128   0.259
93081W        W61299  16.767  26.493  10.561
93082W        W61300  32.313  41.213  11.146
93083W        W61301  19.286  18.420   2.132
93084W        W61302   5.194  41.961  14.762
93085W        W61303  36.118  42.025   2.726
93086W        W61304   5.288  19.528  13.461
93087W        W61305   4.910   2.242  12.490
93088W        W61306  23.751  14.185   4.826
93089W        W61307  41.425  40.291  13.278
93090W        W61308  18.576  41.930  14.533
93091W        W61309  43.751  22.217  12.520
93092W        W61310   3.778  12.812   3.756
93093W        W61311  27.992  30.554   3.109
93094W        W61312  40.839  18.266  12.528
93095W        W61313   8.642  19.845   0.375
93096W        W61314  23.548  13.731  13.014
93097W        W61315  40.382  34.558  12.934
93098W        W61316  43.586  28.390  13.960
93099W        W61317  39.936   9.132  11.597
93100W        W61318  18.018  38.937  11.879
93101W        W61319  13.121  25.814  11.191
93102W        W61320   1.593  10.853   3.154
93103W        W61321  35.153  26.989  14.892
93104W        W61322  30.705  17.718  14.916
93105W        W61323  32.016  19.528   4.608
93106W        W61324  17.638  18.590   0.395
93107W        W61325   6.804   1.638   0.622
93108W        W61326   2.407  31.203   1.706
93109W        W61327  37.079  26.599  14.284
93110W        W61328  17.537  33.416   2.281
93111W        W61329  25.510  16.698   3.460
93112W        W61330   5.073  26.970   4.058
93113W        W61331  32.355  24.613   2.167
93114W        W61332   3.532  41.545   3.702
93115W        W61333  41.567   9.894   4.124
93116W        W61334  11.854  31.972  11.414
93117W        W61335  39.398  36.783  11.541
93118W        W61336  24.672  35.982  10.607
93119W        W61337  24.007   0.025  12.572
93120W        W61338  35.972  36.927  11.066
93121W        W61339  15.321   5.396  14.178
93122W        W61340  30.067   4.805   3.396
93123W        W61341  15.392   1.418   0.759
93124W        W61342   2.232   0.779  12.517
93125W        W61343  15.544  33.141  13.839
93126W        W61344   0.895  21.241  13.091
93127W        W61345  30.231  23.983   3.262
93128W        W61346  31.762  18.099   4.914
93129W        W61347  42.968   4.957   0.868
93130W        W61348  22.661  44.239  13.509
93131W        W61349  14.377  20.138   4.261
93132W        W61350   5.935  14.355  12.660
93133W        W61351  12.356  10.137  14.435
93134W        W61352  24.521  32.194  14.447
93135W        W61353  35.556  11.158  11.920
93136W        W61354  28.996  18.268  11.115
93137W        W61355  19.848   7.582   1.706
93138W        W61356  37.468  11.241  14.962
93139W        W61357  38.306  44.888  12.340
93140W        W61358  16.856  16.780  11.133
93141W        W61359  18.852  21.053   1.903
93142W        W61360  44.521   7.872  13.706
93143W        W61361  18.209  21.514  14.200
93144W        W61362  18.059  21.710  10.492
93145W        W61363  26.025  30.830   1.734
93146W        W61364  15.121  42.028  10.587
93147W        W61365   5.918  25.163  14.312
93148W        W61366  18.155  40.718   1.689
93149W        W61367  38.858   6.638   3.772
93150W        W61368  35.559  36.956  11.369
93151W        W61369   6.228  42.026   2.962
93152W        W61370  19.555   8.632  13.943
93153W        W61371  40.965  21.993  11.568
93154W        W61372  38.119  19.375   1.324
93155W        W61373  16.628   8.297   2.191
93156W        W61374  42.386  12.261   1.446
93157W        W61375  15.109  13.991  14.794
93158W        W61376   6.315  23.604  14.010
93159W        W61377  13.563  16.246  12.830
93160W        W61378  40.969   9.391   1.235
93161W        W61379  11.086   3.188   1.913
93162W        W61380   3.617  23.724  13.544
93163W        W61381  23.016  14.207   3.297
93164W        W61382  24.723  44.281   1.360
93165W        W61383  23.293  35.808  11.993
93166W        W61384  19.173  44.008   0.347
93167W        W61385   6.411  19.425  12.037
93168W        W61386  36.400  37.230   0.057
93169W        W61387   9.048  38.085   4.109
93170W        W61388  22.493  43.762  14.395
93171W        W61389   0.390  20.194  14.077
93172W        W61390  26.169  25.153   2.451
93173W        W61391  33.009   9.221   1.528
93174W        W61392  20.211  13.245   0.317
93175W        W61393   3.003  37.338   0.433
93176W        W61394  11.334   0.746  13.899
93177W        W61395  20.614   8.861   0.746
93178W        W61396  19.114  21.555   0.695
93179W        W61397  34.641  33.407  10.536
93180W        W61398  35.875  35.940  10.968
93181W        W61399   8.816  24.464  12.325
93182W        W61400  14.564  40.998   0.995
93183W        W61401  15.091  32.014   0.498
93184W        W61402  16.576  21.819   1.904
93185W        W61403   0.466  15.257   0.642
93186W        W61404   3.650   4.116  13.742
93187W        W61405   0.026  37.411  10.829
93188W        W61406  34.429  42.296  13.111
93189W        W61407  29.061  13.893  11.315
93190W        W61408  12.733  44.456   2.859
93191W        W61409  35.713  15.152   0.477
93192W        W61410   0.287  18.652   0.003
93193W        W61411  42.381  36.057   1.891
93194W        W61412  13.787   7.074   0.318
93195W        W61413   3.411  33.641  12.629
93196W        W61414   2.875  39.043   2.219
93197W        W61415   7.021   0.014   0.042
93198W        W61416  15.083  21.529   3.060
93199W        W61417  12.719  42.578  12.327
93200W        W61418  44.879  21.052  11.959
93201W        W61419  43.961  23.511   3.264
93202W        W61420  26.883   3.384  14.170
93203W        W61421  30.023  26.958  13.438
93204W        W61422  21.460  21.638   4.699
93205W        W61423   8.883   7.978   1.295
93206W        W61424  17.594  25.959   3.272
93207W        W61425  44.509  16.152   0.200
93208W        W61426  33.707  27.157  10.430
93209W        W61427  40.799   4.987  14.469
93210W        W61428   4.810  30.584   2.623
93211W        W61429  23.585  34.195  12.498
93212W        W61430  17.823  23.176  14.036
93213W        W61431  44.293  44.909   4.938
93214W        W61432   0.441   9.528   0.346
93215W        W61433  29.147  39.025   2.353
93216W        W61434  32.455  23.643  11.050
93217W        W61435  44.775  10.081   0.899
93218W        W61436  38.467   1.099   9.886
93219W        W61437  15.266  39.454   2.486
93220W        W61438  29.448   2.692  10.682
93221W        W61439  41.013  20.003  14.813
93222W        W61440   2.002   5.206   3.203
93223W        W61441   6.856  13.681  13.401
93224W        W61442  10.334  19.872   3.684
93225W        W61443  32.423  44.319   4.117
93226W        W61444  12.583   9.159   3.190
93227W        W61445  44.932  29.187  11.131
93228W        W61446  43.011  32.495  11.073
93229W        W61447  31.595  23.286  14.252
93230W        W61448  32.060  15.296  12.917
93231W        W61449  35.982  10.130   1.821
93232W        W61450  21.242  22.751  14.599
93233W        W61451  16.739  24.143   3.687
93234W        W61452  22.425  32.323   4.450
93235W        W61453  29.649   8.221  13.792
93236W        W61454   5.382  35.382  13.837
93237W        W61455  22.643   2.723   2.808
93238W        W61456  26.612   5.335   4.725
93239W        W61457  25.418   1.013   4.927
93240W        W61458  44.469   6.420   2.683
93241W        W61459  42.995  36.520   4.289
93242W        W61460   5.866  42.870  13.591
93243W        W61461  39.527  27.980  12.984
93244W        W61462  10.165  41.267   2.811
93245W        W61463  42.935  33.971  10.844
93246W        W61464   7.661   7.756  10.737
93247W        W61465  35.138  12.215  11.248
93248W        W61466   1.895   0.419  14.741
93249W        W61467  33.708  32.527  13.914
93250W        W61468  20.030  12.710   0.447
93251W        W61469   0.187   0.168   0.390
93252W        W61470   6.492  23.257   4.710
93253W        W61471  44.192  41.454  12.979
93254W        W61472  21.649  19.032   0.295
93255W        W61473  39.839  21.783  10.545
93256W        W61474   6.754   6.371   0.989
93257W        W61475  32.436  16.354   1.743
93258W        W61476   0.822  28.665   1.601
93259W        W61477  21.258   4.147   4.933
93260W        W61478  15.172  15.539   4.103
93261W        W61479  32.723   8.100  13.444
93262W        W61480   4.850   0.363   3.184
93263W        W61481  40.400  20.106  10.637
93264W        W61482   8.333  39.287   0.894
93265W        W61483  17.806  41.519   0.871
93266W        W61484  18.516  38.297   0.328
93267W        W61485  25.207  27.472   1.684
93268W        W61486  21.706  10.308  11.527
93269W        W61487  30.144  29.201  12.521
93270W        W61488  32.491  37.294   2.245
93271W        W61489   2.912  23.630   3.599
93272W        W61490  32.640   8.741  13.974
93273W        W61491   0.498   8.386  12.500
93274W        W61492  15.290  34.505   4.917
93275W        W61493  30.708  41.195  11.820
93276W        W61494  15.167  16.003  13.502
93277W        W61495   3.249  31.388   4.349
93278W        W61496  42.316  33.220  12.967
93279W        W61497  13.617  27.917   4.127
93280W        W61498  20.649  12.867  14.841
93281W        W61499  37.098  22.036  13.889
93282W        W61500  44.774  38.431   3.152
93283W        W61501  28.461  42.850   3.250
93284W        W61502  40.731  30.035  11.043
93285W        W61503  15.581   7.237   3.747
93286W        W61504  35.503  14.080   1.309
93287W        W61505  33.600   3.857   1.735
93288W        W61506  33.915  12.337  11.375
93289W        W61507  34.533  18.417   1.877
93290W        W61508   7.430  40.779  12.888
93291W        W61509  39.192  33.484   4.571
93292W        W61510   3.397   2.789   3.800
93293W        W61511  16.463  22.984  11.228
93294W        W61512   0.486  24.332   0.908
93295W        W61513  16.334   4.404  11.172
93296W        W61514  10.582   0.389   1.708
93297W        W61515  18.275  18.664   1.986
93298W        W61516  22.147  43.254  14.836
93299W        W61517  42.309  25.013   0.251
93300W        W61518  21.759  32.925   2.035
93301W        W61519  36.040  22.129   4.404
93302W        W61520  39.545  12.705   1.484
93303W        W61521   3.562  16.730  10.141
93304W        W61522  25.487  30.872   4.355
93305W        W61523   3.216   8.809   0.321
93306W        W61524  14.876  33.506   4.095
93307W        W61525  37.788  18.123  14.090
93308W        W61526  20.995   7.818  14.452
93309W        W61527   8.423  29.868   1.894
93310W        W61528  44.531  33.526  11.662
93311W        W61529  20.480  11.165   0.381
93312W        W61530  41.391  34.803  13.973
93313W        W61531  24.000  39.922  14.902
93314W        W61532  42.369  28.083  10.695
93315W        W61533  19.707  33.781  12.952
93316W        W61534  11.826  29.644   4.837
93317W        W61535  39.763   9.839   3.168
93318W        W61536   0.037  22.107   3.517
93319W        W61537  18.917  23.530   2.400
93320W        W61538  27.417   3.296   0.955
93321W        W61539  22.257  40.795   0.436
93322W        W61540  28.592  25.629   3.240
93323W        W61541  43.316   8.198  13.306
93324W        W61542   8.688   2.867   2.293
93325W        W61543   1.730  40.529   0.807
93326W        W61544  39.585  14.293  14.875
93327W        W61545  41.223  17.142   1.165
93328W        W61546  38.248  12.608  13.779
93329W        W61547   8.504  29.800   0.222
93330W        W61548   5.864  44.938  14.531
93331W        W61549  27.237  36.880  14.469
93332W        W61550  40.489  24.797  12.893
93333W        W61551  18.777   0.848  13.529
93334W        W61552  15.663  20.452   0.479
93335W        W61553   8.966  28.530   1.748
93336W        W61554  20.616  19.994   3.360
93337W        W61555  25.702  36.853   2.760
93338W        W61556  38.398  42.186   2.199
93339W        W61557   9.900  11.817   1.766
93340W        W61558  43.349   6.972  11.625
93341W        W61559  44.352   9.413  11.070
93342W        W61560  18.231  34.844  13.394
93343W        W61561  19.798  12.130  10.674
93344W        W61562  25.393  24.954   0.000
93345W        W61563  12.838  21.767  14.561
93346W        W61564   9.695  12.758   4.186
93347W        W61565  43.520  21.261  11.665
93348W        W61566  31.488  19.994  14.397
93349W        W61567   0.354  26.445  10.871
93350W        W61568  14.324  44.385  14.308
93351W        W61569  29.543  13.013  10.128
93352W        W61570  20.638  14.595  13.500
93353W        W61571   5.395   9.446  12.752
93354W        W61572  38.263   8.880  11.156
93355W        W61573  36.466   9.071  12.607
93356W        W61574  16.766  33.250   2.691
93357W        W61575   3.837  23.467  14.722
93358W        W61576  31.115  36.227   4.569
93359W        W61577  35.388  10.674   1.428
93360W        W61578  31.503  40.392  14.258
93361W        W61579   8.982  14.306  10.674
93362W        W61580   7.620  16.080   4.363
93363W        W61581   8.283  14.504   2.763
93364W        W61582  32.832  30.677  11.829
93365W        W61583  11.585   3.753   1.272
93366W        W61584  15.631   9.229   0.460
93367W        W61585  36.688  23.185  11.108
93368W        W61586  32.992  38.381   3.124
93369W        W61587  37.285  17.027   0.241
93370W        W61588  42.943  11.346   3.365
93371W        W61589  33.145   6.626  10.614
93372W        W61590  31.828  38.996   5.099
93373W        W61591  30.883  11.343   5.027
93374W        W61592  18.868   2.191  13.052
93375W        W61593  20.236   0.770   2.622
93376W        W61594  31.508  41.551  10.725
93377W        W61595   7.840   7.280  10.854
93378W        W61596  41.267   8.566   1.726
93379W        W61597  28.130  12.311   4.009
93380W        W61598  26.674  24.499  13.827
93381W        W61599   1.997  13.416  11.493
93382W        W61600  13.661  36.766   0.861
93383W        W61601  16.521  38.793  12.918
93384W        W61602  16.450  16.798   4.704
93385W        W61603  17.615   2.790   1.444
93386W        W61604  11.262  40.446   4.124
93387W        W61605   1.392  37.345   0.788
93388W        W61606  19.108  21.228   1.499
93389W        W61607  42.160  20.988  12.086
93390W        W61608   8.706  39.049   3.464
93391W        W61609  37.311  21.443   3.602
93392W        W61610  15.805  43.651   3.262
93393W        W61611  43.002   6.677   4.271
93394W        W61612  12.832  44.775   1.362
93395W        W61613  13.181  31.412  11.526
93396W        W61614  24.761  35.434   0.377
93397W        W61615   3.228   9.768  11.954
93398W        W61616  37.343  33.392   4.736
93399W        W61617  42.867  26.461   0.873
93400W        W61618  34.734  41.690  10.738
93401W        W61619   6.237  14.494   4.705
93402W        W61620  33.907  24.004  14.834
93403W        W61621  36.224  17.062   2.542
93404W        W61622  24.005  23.719  14.684
93405W        W61623   7.315  34.055   0.530
93406W        W61624   2.252   1.988  14.338
93407W        W61625  17.499   3.325  10.541
93408W        W61626  43.068  26.929   4.074
93409W        W61627  42.931  16.013  14.970
93410W        W61628  41.447   6.227   2.963
93411W        W61629  38.478  28.034  11.061
93412W        W61630   4.893  17.131   2.178
93413W        W61631  15.113   3.447   3.683
93414W        W61632  18.510  28.983   3.235
93415W        W61633  31.603   8.199   4.054
93416W        W61634  41.559  14.241  10.549
93417W        W61635  42.035  27.526  11.577
93418W        W61636  23.176  44.852  10.451
93419W        W61637  22.098  37.628  11.721
93420W        W61638  38.058   8.184   4.819
93421W        W61639  28.534  24.922  13.934
93422W        W61640  37.296  40.397  14.837
93423W        W61641  25.996  34.704   4.514
93424W        W61642  38.490  40.622   2.386
93425W        W61643  20.983  28.515  10.548
93426W        W61644  19.577   6.322  11.590
93427W        W61645  17.233  16.995  11.616
93428W        W61646  14.019  12.316   1.650
93429W        W61647  16.232  37.578  11.007
93430W        W61648  17.524  35.563  11.641
93431W        W61649   5.326  25.534   0.892
93432W        W61650  31.807  13.748  10.406
93433W        W61651   2.729  25.079   0.278
93434W        W61652  36.374   0.195   3.080
93435W        W61653  19.468  44.524   4.200
93436W        W61654  44.366  31.196   0.256
93437W        W61655  17.741  23.026  11.029
93438W        W61656  31.129   6.718   2.218
93439W        W61657  13.109  38.629   1.790
93440W        W61658   2.502  15.835   2.269
93441W        W61659  27.729   9.206   4.303
93442W        W61660  28.183  27.685   4.231
93443W        W61661  26.134  37.839   0.823
93444W        W61662  34.551   9.892  12.010
93445W        W61663  30.203  44.361  13.167
93446W        W61664  29.390   4.479   4.031
93447W        W61665  40.801  35.535  13.741
93448W        W61666   4.321  37.413   0.424
93449W        W61667  14.131  12.873   1.732
93450W        W61668  16.748  20.449   3.869
93451W        W61669  27.998   5.860  12.615
93452W        W61670  18.444  15.582  13.312
93453W        W61671   9.881  26.518   3.357
93454W        W61672  16.627  40.486   3.686
93455W        W61673  19.014   0.954  11.137
93456W        W61674  20.349  33.131  13.084
93457W        W61675  29.183   0.897   3.859
93458W        W61676  13.579   9.451  13.427
93459W        W61677   9.333  14.188   2.422
93460W        W61678  26.513   9.619   1.905
93461W        W61679  44.691   7.904   0.630
93462W        W61680  30.255  37.890   1.898
93463W        W61681   1.973  27.625   0.962
93464W        W61682  40.700  30.130   1.532
93465W        W61683  30.181  17.286  12.734
93466W        W61684  27.957   8.810   4.601
93467W        W61685   7.251  37.545   0.926
93468W        W61686  16.330  34.023  10.559
93469W        W61687  15.861  33.489  12.391
93470W        W61688  33.473  16.756  14.654
93471W        W61689  25.054  30.507   1.763
93472W        W61690  10.789  41.956   2.588
93473W        W61691  32.393  30.484  10.909
93474W        W61692  14.142   5.746  14.543
93475W        W61693   5.748  32.404  13.283
93476W        W61694  31.468  33.011  12.124
93477W        W61695  40.606  10.474  12.795
93478W        W61696  37.938   9.117  10.616
93479W        W61697  26.771   1.517  14.858
93480W        W61698  38.389   1.743   4.708
93481W        W61699  26.997   1.838   4.242
93482W        W61700   5.943  33.073  14.644
93483W        W61701  22.870  37.341   5.187
93484W        W61702  37.262   6.185  14.487
93485W        W61703  28.453  42.525  13.386
93486W        W61704  22.686  32.507  11.183
93487W        W61705  12.308  15.295  13.514
93488W        W61706  44.769   6.318  11.440
93489W        W61707  40.848  32.373   4.233
93490W        W61708  26.085  13.533  13.505
93491W        W61709  26.596   7.501  14.110
93492W        W61710  37.341  41.276   0.281
93493W        W61711   2.732  21.209   2.901
93494W        W61712   7.840  10.136  12.042
93495W        W61713  43.225   3.931  12.179
93496W        W61714  17.345  30.788   5.008
93497W        W61715  37.841   0.921  11.143
93498W        W61716  33.135  34.375  12.046
93499W        W61717  13.672  34.649  11.919
93500W        W61718  14.842  29.924   4.927
93501W        W61719  20.621  34.883  14.589
93502W        W61720  27.543  44.045  12.990
93503W        W61721  11.639   2.430  10.005
93504W        W61722  30.737  39.785   0.385
93505W        W61723  37.051   0.453  12.982
93506W        W61724  23.332  31.452   2.819
93507W        W61725  28.028  36.266  12.217
93508W        W61726  15.559   1.432   2.147
93509W        W61727  27.650  35.443  12.011
93510W        W61728  38.290   0.859   5.671
93511W        W61729  35.257   1.885   3.651
93512W        W61730  43.271  29.264   0.841
93513W        W61731  35.374   6.088  13.920
93514W        W61732  31.429  24.977  10.672
93515W        W61733  35.716  35.462  10.815
93516W        W61734  10.811  18.790   3.218
93517W        W61735  21.592  11.629  12.145
93518W        W61736  37.893  22.761  10.628
93519W        W61737  34.515  40.545  11.580
93520W        W61738   2.595  20.178  14.374
93521W        W61739  13.739  16.057  11.889
93522W        W61740   0.880   2.900  12.644
93523W        W61741  20.204  32.824   3.764
93524W        W61742  33.180  12.261   4.241
93525W        W61743  22.471  23.243   3.792
93526W        W61744  28.724  37.524  10.781
93527W        W61745  12.054  26.633  11.627
93528W        W61746  37.653  17.763  11.957
93529W        W61747   5.269  30.668   4.912
93530W        W61748   8.642   5.898   0.013
93531W        W61749  19.791  42.496   2.802
93532W        W61750  26.077  17.960   0.305
93533W        W61751  15.391  27.685  13.007
93534W        W61752  29.391  27.641  12.571
93535W        W61753   5.943   4.201   2.758
93536W        W61754  25.976   1.398   0.418
93537W        W61755  30.557  12.287   3.502
93538W        W61756  40.325  36.332  12.477
93539W        W61757   6.457  38.125  13.495
93540W        W61758   7.314   4.693  12.398
93541W        W61759  34.654  30.928  14.795
93542W        W61760  29.328  31.928   1.411
93543W        W61761  24.982  13.120  12.328
93544W        W61762  37.136  32.801  14.487
93545W        W61763  16.638  29.954  14.584
93546W        W61764  20.989  24.985   0.702
93547W        W61765  43.592  29.695   0.772
93548W        W61766   5.076   1.310   0.446
93549W        W61767  42.287  22.118   1.355
93550W        W61768  22.658  22.552  14.349
93551W        W61769  23.023   5.839  13.836
93552W        W61770  41.969  39.722  10.322
93553W        W61771  21.669   0.921  10.722
93554W        W61772  44.806  10.111  14.451
93555W        W61773  11.626  38.635   1.325
93556W        W61774   4.585   8.676  12.000
93557W        W61775  11.584  14.520   4.614
93558W        W61776  40.574   1.590   2.641
93559W        W61777  38.917   0.288   0.797
93560W        W61778  44.242  21.495  14.541
93561W        W61779   7.917  29.062   0.269
93562W        W61780  41.377   2.272  14.354
93563W        W61781   7.781   8.673  10.245
93564W        W61782  28.984   3.771   0.941
93565W        W61783   4.960   5.676   2.313
93566W        W61784  37.967   0.451  13.046
93567W        W61785  17.626   9.552  12.024
93568W        W61786  41.772  19.189   2.274
93569W        W61787  25.422  27.595  10.684
93570W        W61788  19.184  13.262   3.887
93571W        W61789  26.290  22.513   0.152
93572W        W61790  32.266  22.292  12.165
93573W        W61791  22.458   7.795  13.856
93574W        W61792  38.768  15.627   3.140
93575W        W61793   9.109  15.056   3.481
93576W        W61794   2.711   7.215   2.562
93577W        W61795  33.857   3.269  13.525
93578W        W61796  27.103   2.837   2.300
93579W        W61797   1.239  32.132  14.845
93580W        W61798   2.289  19.317   2.191
93581W        W61799  17.624  29.216   3.729
93582W        W61800  19.552  20.694  14.723
93583W        W61801  37.622   7.971  11.971
93584W        W61802  36.346  41.860  12.686
93585W        W61803  34.273  33.621  13.429
93586W        W61804  20.089  40.387   1.030
93587W        W61805   3.095  30.723   1.192
93588W        W61806  21.683  11.107   1.301
93589W        W61807   6.425  37.430   2.285
93590W        W61808  29.477  14.761   0.399
93591W        W61809  42.341   1.967   2.177
93592W        W61810  10.221  20.736   0.950
93593W        W61811  12.079  31.040  14.326
93594W        W61812  37.885  26.487   2.819
93595W        W61813  26.206  32.690  13.969
93596W        W61814  24.177  35.175  11.360
93597W        W61815  13.204  12.556  10.380
93598W        W61816  21.964  29.575  11.525
93599W        W61817  16.766  12.420  11.994
93600W        W61818  15.814   0.029  14.933
93601W        W61819  19.591  20.891   0.199
93602W        W61820  38.009  35.168  10.979
93603W        W61821  38.089  32.573  12.177
93604W        W61822  33.304   0.931  14.427
93605W        W61823  16.367  13.891   3.656
93606W        W61824  16.220  10.513   1.354
93607W        W61825  28.561  16.476   3.680
93608W        W61826  44.361  44.182  11.611
93609W        W61827  44.030  12.682   1.370
93610W        W61828  22.122  11.917  13.419
93611W        W61829  42.419  33.504  13.475
93612W        W61830  17.304  14.782  14.777
93613W        W61831   6.989  19.125   4.219
93614W        W61832  24.268  36.981   3.058
93615W        W61833   4.810  35.844  10.423
93616W        W61834   9.390  20.622   4.269
93617W        W61835   7.118   2.844   4.094
93618W        W61836  43.048  14.631  12.504
93619W        W61837  39.935  41.315   3.623
93620W        W61838  16.587  38.853  14.084
93621W        W61839  26.673  27.191  14.699
93622W        W61840  33.449  26.322   5.456
93623W        W61841  15.694  14.115   3.338
93624W        W61842  12.512   8.695  10.740
93625W        W61843   8.500  23.663  10.283
93626W        W61844  24.063  30.703  13.381
93627W        W61845  44.878  29.967   3.283
93628W        W61846  25.228  23.366   3.611
93629W        W61847  36.835   4.450  13.049
93630W        W61848  39.861  13.663   0.458
93631W        W61849  15.352  29.518   3.893
93632W        W61850  10.184  41.223   0.040
93633W        W61851  15.077   9.329  12.089
93634W        W61852  41.227  41.496   3.221
93635W        W61853  34.650  29.001   0.787
93636W        W61854   0.362   4.328   2.057
93637W        W61855  15.500  38.886   2.583
93638W        W61856   5.094  13.467  11.649
93639W        W61857  34.219  41.534   3.176
93640W        W61858  39.840  10.588   0.772
93641W        W61859  19.523  31.977  13.343
93642W        W61860  42.483  30.381  11.441
93643W        W61861  27.911   3.239   3.186
93644W        W61862  13.468  19.644   0.537
93645W        W61863  12.349  30.067  14.751
93646W        W61864  34.040  14.750   0.640
93647W        W61865  32.735   4.407  13.443
93648W        W61866   5.146  32.403  10.637
93649W        W61867  10.162  18.657  13.965
93650W        W61868   9.445  19.312   2.361
93651W        W61869   6.458  13.942  11.611
93652W        W61870  16.220  12.423   5.017
93653W        W61871  23.807  11.733   5.008
93654W        W61872  28.174  40.350  13.916
93655W        W61873  22.930  31.627  11.992
93656W        W61874   4.184  40.536  11.548
93657W        W61875  14.503  14.536  12.074
93658W        W61876  41.390   7.121   0.450
93659W        W61877   2.438  15.331   2.194
93660W        W61878  27.689  43.290   0.392
93661W        W61879  15.653  21.094  13.835
93662W        W61880  13.876  20.288  12.005
93663W        W61881  32.453  23.000   0.506
93664W        W61882  30.478  11.643   0.584
93665W        W61883   3.155  35.002   3.208
93666W        W61884  16.715  21.420  14.836
93667W        W61885  23.060   4.069  13.339
93668W        W61886  33.622  18.737   2.281
93669W        W61887  39.022   8.230   1.348
93670W        W61888  20.748  40.992  13.359
93671W        W61889  15.394  32.225   5.032
93672W        W61890  28.219  32.437  11.462
93673W        W61891  10.655  25.644   0.581
93674W        W61892  41.013   4.373   1.856
93675W        W61893  13.156  15.096   0.761
93676W        W61894  14.598  43.400   3.278
93677W        W61895  35.545  44.370   1.804
93678W        W61896  31.103  21.315  13.534
93679W        W61897  44.778   3.462  13.725
93680W        W61898  39.329   5.783  10.923
93681W        W61899  44.044  42.735   3.705
93682W        W61900  27.786  22.253   2.331
93683W        W61901  27.003  24.145   0.950
93684W        W61902   1.707   0.773   5.010
93685W        W61903  36.840   6.272  12.117
93686W        W61904  25.863  30.838   2.301
93687W        W61905  21.175  33.546   2.736
93688W        W61906  32.206  37.810   4.638
93689W        W61907  36.064  12.816  12.993
93690W        W61908   5.742  30.474   3.663
93691W        W61909  18.021  15.344  10.763
93692W        W61910  43.595  37.553   3.150
93693W        W61911  18.273  35.704   4.988
93694W        W61912  14.613   4.206  11.466
93695W        W61913  36.501  38.149  11.196
93696W        W61914   1.039   4.694  11.944
93697W        W61915  43.289  44.766  12.448
93698W        W61916  20.785  30.569   3.771
93699W        W61917  28.677  14.769  14.122
93700W        W61918  10.329  28.383  12.910
93701W        W61919   1.211  28.722  10.685
93702W        W61920  31.319  37.779   4.445
93703W        W61921  25.726  39.835   3.099
93704W        W61922  37.977  32.865   2.828
93705W        W61923   1.212  34.625   2.413
93706W        W61924  29.421   9.694  12.134
93707W        W61925  44.313  27.078  11.184
93708W        W61926  44.210  11.764   4.203
93709W        W61927  39.013   5.782   2.539
93710W        W61928  17.593  38.987  11.605
93711W        W61929  10.121   7.798   0.934
93712W        W61930  16.819  30.642  12.820
93713W        W61931  43.077  23.570  14.379
93714W        W61932  29.666  20.134   1.633
93715W        W61933   4.192   7.924  12.090
93716W        W61934   2.772  26.659  13.371
93717W        W61935  20.668   2.148  10.723
93718W        W61936  12.070   7.477  12.536
93719W        W61937  26.187  42.868   4.815
93720W        W61938   4.895  39.157  10.764
93721W        W61939  27.648  25.068   1.466
93722W        W61940  36.744  23.297  14.235
93723W        W61941  40.896  24.515   1.776
93724W        W61942  24.691   2.803  11.507
93725W        W61943  32.926  10.154  10.555
93726W        W61944  35.548  36.959  13.748
93727W        W61945  35.414   4.125  13.953
93728W        W61946  11.244  42.316  11.231
93729W        W61947  17.136  19.049  13.852
93730W        W61948  33.598   1.736   0.027
93731W        W61949  42.133  24.483   4.423
93732W        W61950   1.871  20.345  11.467
93733W        W61951  39.631  25.657   4.286
93734W        W61952  42.762  34.473  11.561
93735W        W61953  40.007   8.602  11.525
93736W        W61954   8.377  40.517   1.619
93737W        W61955  10.944   9.272   0.506
93738W        W61956  25.662  37.802  13.531
93739W        W61957  27.932  15.309   3.666
93740W        W61958  41.096   9.891  10.766
93741W        W61959   5.180  29.323   1.311
93742W        W61960   6.800  16.832  12.916
93743W        W61961  17.733  20.539  11.863
93744W        W61962  24.675   4.202  10.534
93745W        W61963  30.977  36.945   4.723
93746W        W61964  38.819  31.128  13.568
93747W        W61965  13.728  14.129   0.003
93748W        W61966  32.243  34.021   1.329
93749W        W61967  28.516  18.336  13.537
93750W        W61968   5.523   1.642  10.724
93751W        W61969  16.048  27.317  14.684
93752W        W61970  26.385  23.007   0.361
93753W        W61971  37.733  29.002  14.919
93754W        W61972  44.857  32.952  11.819
93755W        W61973  29.333   7.273   2.279
93756W        W61974  43.362  19.307  14.836
93757W        W61975  41.222  28.776   0.270
93758W        W61976  44.748   6.766   3.739
93759W        W61977  30.872  19.378   3.746
93760W        W61978   0.077   8.677   2.403
93761W        W61979  18.819  23.556  12.849
93762W        W61980  18.617  23.043  10.767
93763W        W61981  24.814  13.369  11.918
93764W        W61982  44.850  20.251   2.292
93765W        W61983  11.436  20.290  12.413
93766W        W61984  37.625  15.752   0.461
93767W        W61985  32.408  36.363   0.754
93768W        W61986   7.375  32.706  14.793
93769W        W61987   6.317  39.346   3.766
93770W        W61988   9.928   1.236   2.188
93771W        W61989  25.930  32.055  14.762
93772W        W61990  33.855   2.221   3.257
93773W        W61991  21.304  44.402  13.928
93774W        W61992  10.567  20.281   1.357
93775W        W61993  36.318   5.421   1.170
93776W        W61994   0.624  20.332  11.574
93777W        W61995  17.707   0.349  10.315
93778W        W61996   1.696   3.229   0.779
93779W        W61997  17.700  17.037   0.333
93780W        W61998  35.575  17.753   4.545
93781W        W61999  35.641  21.154   4.247
93782W        W62000  28.621   1.392   0.671
93783W        W62001  11.542  17.311  11.627
93784W        W62002   4.430  27.108   3.248
93785W        W62003  36.595   9.080   4.647
93786W        W62004   1.831   4.137   0.477
93787W        W62005  30.132  40.008   3.332
93788W        W62006  36.866  39.406  12.901
93789W        W62007   9.000  15.937  13.966
93790W        W62008  37.300  21.204  10.222
93791W        W62009  14.314  11.427  11.171
93792W        W62010  23.654  25.403   0.516
93793W        W62011  35.955  34.548   3.231
93794W        W62012  44.192   0.431  14.387
93795W        W62013  20.240  16.196  13.366
93796W        W62014  37.357  37.831   1.892
93797W        W62015   2.773  42.508   1.834
93798W        W62016  21.845   0.960   3.744
93799W        W62017  13.246  40.452   4.747
93800W        W62018   0.959  38.987  12.425
93801W        W62019  31.013  14.765  10.642
93802W        W62020  35.826   2.031  12.291
93803W        W62021  31.561  12.306   0.259
93804W        W62022  28.557  38.849  10.741
93805W        W62023  34.752  11.816   1.007
93806W        W62024  24.528  26.843  14.190
93807W        W62025  32.749  43.010   9.828
93808W        W62026  25.120  12.576   1.382
93809W        W62027  19.066  18.308   1.691
93810W        W62028  27.563  25.409   4.264
93811W        W62029   9.972  10.341  14.449
93812W        W62030  41.421   4.882   1.141
93813W        W62031  19.684  29.367   1.741
93814W        W62032  14.418  41.967  14.002
93815W        W62033  39.774  38.556  11.233
93816W        W62034  41.921   1.937   3.747
93817W        W62035  42.327  43.678   1.637
93818W        W62036  21.070  44.842   0.174
93819W        W62037  35.828  11.091   0.201
93820W        W62038  44.348   4.730   2.721
93821W        W62039  39.529  24.193  11.144
93822W        W62040  34.348  27.180  13.449
93823W        W62041  28.483   0.772   0.735
93824W        W62042  43.802   5.248  11.927
93825W        W62043  16.210  17.120   2.126
93826W        W62044   2.235   0.264  13.271
93827W        W62045  30.940  32.907   0.303
93828W        W62046  12.270  13.085  14.340
93829W        W62047  36.578   2.014   1.843
93830W        W62048  44.269  33.911   3.216
93831W        W62049  36.981  30.734  10.766
93832W        W62050  35.905  15.089   1.898
93833W        W62051  44.183  31.935  12.663
93834W        W62052   1.992  40.980   4.203
93835W        W62053   3.749  22.848   3.551
93836W        W62054  33.794  14.352   1.773
93837W        W62055   6.259  44.353  13.478
93838W        W62056  33.755  40.778  11.038
93839W        W62057  39.007  42.867   3.385
93840W        W62058  19.332  29.066  12.842
93841W        W62059  36.303  23.209  13.442
93842W        W62060  18.871  30.484   3.855
93843W        W62061   8.552  11.955  14.151
93844W        W62062  43.331  39.487   4.672
93845W        W62063   7.702  37.680  13.033
93846W        W62064  32.899  25.223   2.751
93847W        W62065  32.974  22.230   4.063
93848W        W62066  41.777  30.902  11.195
93849W        W62067  23.482  41.551   3.556
93850W        W62068   5.726  42.967  14.556
93851W        W62069  30.385  29.632  14.776
93852W        W62070  43.778  10.784  13.885
93853W        W62071  32.281   6.372  10.783
93854W        W62072  38.270  44.870   0.195
93855W        W62073  11.462  22.555   1.277
93856W        W62074  15.021  39.960  14.930
93857W        W62075   3.890  23.592  12.643
93858W        W62076  23.526   7.698   2.883
93859W        W62077  12.758  38.791   2.153
93860W        W62078  32.040  16.526  13.557
93861W        W62079   3.148  11.802   2.344
93862W        W62080  42.578  21.282  11.794
93863W        W62081  23.429  12.691   3.345
93864W        W62082   9.692  23.594  14.104
93865W        W62083   4.165  24.953  13.575
93866W        W62084  37.422   8.686   4.568
93867W        W62085  19.456  20.039   3.691
93868W        W62086  36.304  27.391  10.082
93869W        W62087  13.389  34.692  12.604
93870W        W62088  16.410  25.075  13.332
93871W        W62089  44.277  42.175   1.637
93872W        W62090   9.252   7.355   3.405
93873W        W62091  16.105   7.418  11.848
93874W        W62092  29.965  23.098   1.285
93875W        W62093  11.334   8.255  12.889
93876W        W62094  34.688  39.176   4.726
93877W        W62095  27.570  27.474   0.343
93878W        W62096  33.822  42.573   0.336
93879W        W62097  31.313  31.631   2.704
93880W        W62098  30.502   6.389  14.386
93881W        W62099  20.322  31.250   3.263
93882W        W62100  32.813  16.182   4.614
93883W        W62101  18.680  38.078  14.422
93884W        W62102   6.197  38.577   3.245
93885W        W62103   4.865  28.677  11.034
93886W        W62104  28.450  18.737  14.589
93887W        W62105  10.267  18.797  12.638
93888W        W62106   8.375  36.052   4.210
93889W        W62107  27.934  37.767   1.865
93890W        W62108  18.648  18.602   1.624
93891W        W62109  11.743   0.458   3.168
93892W        W62110  26.457   6.822  12.382
93893W        W62111  33.810   8.768  14.398
93894W        W62112  24.059  27.454  10.550
93895W        W62113  23.493  20.949   3.172
93896W        W62114  38.900  23.464   0.842
93897W        W62115  15.710  28.340  13.727
93898W        W62116  31.913   4.287  12.265
93899W        W62117  14.832  23.232   4.760
93900W        W62118  16.856  40.335   4.147
93901W        W62119  17.182  27.068   4.580
93902W        W62120  25.018  12.917   3.045
93903W        W62121   2.246  42.397  10.737
93904W        W62122  32.886  29.764   4.526
93905W        W62123   5.202   5.407  11.141
93906W        W62124  14.420  35.355   1.430
93907W        W62125  23.418  34.591   1.804
93908W        W62126  26.210  15.296   2.278
93909W        W62127  18.496  38.410   3.850
93910W        W62128   4.706  43.960   0.943
93911W        W62129  12.331  19.242   2.091
93912W        W62130  23.108  37.495   4.220
93913W        W62131  34.477  34.302  10.596
93914W        W62132  13.035   2.596   2.771
93915W        W62133  28.677  40.789  12.509
93916W        W62134  44.854  44.344   3.945
93917W        W62135  35.655   7.774  12.165
93918W        W62136  17.999  23.914  13.878
93919W        W62137  30.442  25.974   0.163
93920W        W62138   3.464   4.294   1.535
93921W        W62139  15.134   8.172   0.967
93922W        W62140   8.356  34.123   3.067
93923W        W62141  15.568   0.366   2.622
93924W        W62142   6.273  31.248   0.974
93925W        W62143   9.624  16.987  11.105
93926W        W62144   9.471  19.117   1.467
93927W        W62145  23.334  23.054  14.013
93928W        W62146  33.009   0.479   3.806
93929W        W62147  36.924  30.491   3.023
93930W        W62148  41.317  33.568  10.125
93931W        W62149   2.970  23.605   4.766
93932W        W62150  29.101  21.266   1.825
93933W        W62151  35.926  38.120  13.522
93934W        W62152   0.899   3.886   1.851
93935W        W62153   2.742  37.417   2.782
93936W        W62154   3.292  31.010  12.603
93937W        W62155  37.081   3.737   0.314
93938W        W62156  39.428   3.940  13.513
93939W        W62157   2.792  39.091   3.640
93940W        W62158  17.632   8.749  11.924
93941W        W62159  34.715  32.540  11.531
93942W        W62160  26.690  13.681   3.734
93943W        W62161  22.204  29.598   3.123
93944W        W62162  18.867  17.228   3.985
93945W        W62163  14.329  19.851   2.244
93946W        W62164  18.552  10.699   3.098
93947W        W62165  28.321  40.449   4.072
93948W        W62166  29.200  20.503   1.324
93949W        W62167  20.224  20.682  11.256
93950W        W62168  42.082  32.165  12.993
93951W        W62169  30.685  29.592  13.432
93952W        W62170  14.252  22.971  11.135
93953W        W62171  43.905  25.884  13.411
93954W        W62172   1.508  32.730   0.846
93955W        W62173  10.965   4.730  10.157
93956W        W62174  20.785  20.243   1.011
93957W        W62175   1.341  41.913  10.604
93958W        W62176   8.297  16.532   4.592
93959W        W62177  21.189  18.907   2.408
93960W        W62178   9.801  10.094   3.146
93961W        W62179  25.036  32.843   3.579
93962W        W62180  44.807   5.837   0.555
93963W        W62181  43.860  36.863  13.522
93964W        W62182  41.542  33.516   3.126
93965W        W62183  25.038  16.476   3.412
93966W        W62184  24.138  23.543   1.714
93967W        W62185  30.164  38.976   2.444
93968W        W62186   8.550   0.194   4.058
93969W        W62187  43.889  15.670  12.817
93970W        W62188   4.815  36.005   2.862
93971W        W62189  17.422  29.611  13.450
93972W        W62190   6.182  17.471   1.131
93973W        W62191  31.416  11.262   0.269
93974W        W62192  14.582  20.482   3.284
93975W        W62193  36.037  26.187   2.335
93976W        W62194   4.230  42.727   3.169
93977W        W62195  11.662  25.094  14.066
93978W        W62196  24.003  15.164   2.379
93979W        W62197  31.700  31.407   1.469
93980W        W62198   8.378  15.572   4.589
93981W        W62199  16.842  17.650  11.695
93982W        W62200  33.858  35.431   1.470
93983W        W62201  27.083  16.866   3.643
93984W        W62202  26.594  31.884  12.415
93985W        W62203  35.133  30.653  13.129
93986W        W62204  34.877  28.118  14.535
93987W        W62205  33.594  17.037   4.288
93988W        W62206  16.584   7.215   1.681
93989W        W62207   4.212  28.945   0.784
93990W        W62208  40.298  21.385   2.191
93991W        W62209  43.321  40.458   1.266
93992W        W62210   9.988  25.541  14.595
93993W        W62211  10.823  25.915  12.864
93994W        W62212   2.315  33.591   2.174
93995W        W62213  26.041   3.183  10.684
93996W        W62214  24.206  35.470   3.565
93997W        W62215  26.531  35.844  14.982
93998W        W62216   6.452   6.138   4.257
93999W        W62217  16.781  27.992  12.416
94000W        W62218  21.253  19.044  11.141
94001W        W62219  16.234  43.364   4.934
94002W        W62220  37.868  13.164  10.401
94003W        W62221  36.327  23.949   2.773
94004W        W62222  31.083  12.579   0.142
94005W        W62223  31.615  33.358   0.010
94006W        W62224   2.658   3.230  13.334
94007W        W62225   3.549  25.008  13.890
94008W        W62226   2.757  24.582  10.943
94009W        W62227   2.807   2.500   2.711
94010W        W62228  26.682  11.048  12.918
94011W        W62229  10.111   1.158   4.240
94012W        W62230  11.943  13.726  12.480
94013W        W62231  35.928   6.002  12.069
94014W        W62232   0.765   9.847  13.055
94015W        W62233  29.456  25.699   1.708
94016W        W62234   7.335  38.552  12.994
94017W        W62235  12.456   9.177   0.438
94018W        W62236  27.860  31.662  12.860
94019W        W62237  26.987   1.913   1.023
94020W        W62238  23.120  20.230  13.587
94021W        W62239  18.629  43.737  13.801
94022W        W62240  24.649  35.517   4.358
94023W        W62241  38.821  20.272   4.074
94024W        W62242  41.497  20.415  13.127
94025W        W62243  20.888  43.333  13.535
94026W        W62244  17.675   5.309   2.690
94027W        W62245  42.078  26.449   2.844
94028W        W62246   4.381  42.804   2.160
94029W        W62247   2.660   5.584   2.749
94030W        W62248  21.634  27.017  11.655
94031W        W62249  20.044  23.006   1.823
94032W        W62250  17.236  26.789   4.153
94033W        W62251  15.762  27.293  12.883
94034W        W62252  25.937  14.217  10.701
94035W        W62253  33.539  18.751  11.428
94036W        W62254  35.797  43.922  11.561
94037W        W62255  19.654   2.685  12.629
94038W        W62256  38.383  36.409   4.008
94039W        W62257   6.047   6.711  12.055
94040W        W62258  30.041  27.094   1.380
94041W        W62259   5.756  11.691   4.380
94042W        W62260  19.544  43.388  11.233
94043W        W62261   2.815  23.465   0.341
94044W        W62262  29.185   5.473   0.793
94045W        W62263  19.742  18.668  14.760
94046W        W62264  35.214  10.318  10.399
94047W        W62265  41.874  17.821   1.926
94048W        W62266  21.260  35.305  13.909
94049W        W62267  12.658  41.528   3.850
94050W        W62268  11.740  35.584  11.921
94051W        W62269   7.349  39.878  12.121
94052W        W62270  15.420  20.439   5.036
94053W        W62271  28.111   7.845  12.587
94054W        W62272  19.047  13.673   3.566
94055W        W62273  32.066  31.471  10.638
94056W        W62274  14.435  19.473  12.106
94057W        W62275  44.082  22.281  12.980
94058W        W62276  16.976  34.849  10.570
94059W        W62277  32.568   2.356   3.627
94060W        W62278  21.282  40.888   0.816
94061W        W62279  42.024  27.125   4.139
94062W        W62280   2.066  31.692  10.525
94063W        W62281  37.839  24.730   4.174
94064W        W62282  10.763  28.973  11.053
94065W        W62283  28.106  32.411  12.413
94066W        W62284   6.774  37.623   4.284
94067W        W62285  19.625   6.775  14.983
94068W        W62286   2.642   4.911  13.610
94069W        W62287  37.083  32.939   0.753
94070W        W62288  15.524  40.090  11.097
94071W        W62289  41.980   9.714  13.056
94072W        W62290   4.014  41.320   3.634
94073W        W62291  33.424  27.748   1.893
94074W        W62292   0.917   2.802   2.567
94075W        W62293  37.702  43.891   2.002
94076W        W62294  28.926  17.838   1.378
94077W        W62295   7.912   8.802   1.718
94078W        W62296  19.163  18.819   2.926
94079W        W62297  12.033  10.000  13.594
94080W        W62298  41.181   3.921   4.079
94081W        W62299  11.204  17.716  13.550
94082W        W62300  14.089  27.397   4.806
94083W        W62301  25.263  10.257   3.140
94084W        W62302  10.294  27.500   0.853
94085W        W62303  14.863  39.788  12.556
94086W        W62304  20.904   1.356  10.718
94087W        W62305   4.917  19.205  10.549
94088W        W62306  15.290  43.389  10.737
94089W        W62307  31.034  37.948  13.815
94090W        W62308  26.832  19.684   2.304
94091W        W62309  41.016   3.214   2.141
94092W        W62310   4.899   2.899  11.098
94093W        W62311  22.164  30.669  13.518
94094W        W62312  14.554  33.684  10.834
94095W        W62313  35.350  27.756  13.074
94096W        W62314  22.570   2.622  13.311
94097W        W62315  15.595  22.280   1.735
94098W        W62316  41.589  19.706   0.443
94099W        W62317  24.209  32.513  14.962
94100W        W62318  44.654  24.078  12.364
94101W        W62319  44.419  37.744   2.683
94102W        W62320   4.366  18.776  14.213
94103W        W62321  31.434  42.492   3.630
94104W        W62322  44.120  26.681   2.141
94105W        W62323  16.560  12.345  13.975
94106W        W62324  35.766  19.608  14.017
94107W        W62325  30.907   3.503   1.835
94108W        W62326  17.808   0.214  10.795
94109W        W62327  14.248   9.278  14.801
94110W        W62328  26.445   2.423  12.699
94111W        W62329  21.685  18.777  10.728
94112W        W62330   2.270  38.195  11.595
94113W        W62331   1.010  18.266   4.541
94114W        W62332  11.126  21.096  10.633
94115W        W62333  23.531  25.273   1.802
94116W        W62334  35.088  24.991  11.178
94117W        W62335   7.772  28.654  14.911
94118W        W62336   5.690  15.700   1.720
94119W        W62337  35.471   6.196   0.865
94120W        W62338  26.200   3.497  13.498
94121W        W62339  16.566  42.886  10.352
94122W        W62340   4.065  17.797  13.916
94123W        W62341  20.794  42.986  12.380
94124W        W62342  10.523  13.512   1.725
94125W        W62343   9.764  35.119   4.616
94126W        W62344  32.568  44.932   0.921
94127W        W62345  22.256  24.668  13.359
94128W        W62346   2.456  27.226  10.853
94129W        W62347   1.741  13.413  13.974
94130W        W62348  23.978  42.591   3.471
94131W        W62349  10.801  18.582   5.115
94132W        W62350  26.295  13.083  13.447
94133W        W62351   4.445  39.293  13.939
94134W        W62352   3.889  43.433  12.357
94135W        W62353  44.470  40.507   4.651
94136W        W62354  15.810  15.228  14.441
94137W        W62355  38.423  30.147   1.202
94138W        W62356  21.658  16.941   0.295
94139W        W62357  36.050   1.709   9.897
94140W        W62358  12.681  34.527   0.557
94141W        W62359   7.216  39.546  13.336
94142W        W62360  11.282  15.569   0.836
94143W        W62361   2.552  11.550   3.558
94144W        W62362  23.195  44.261   0.757
94145W        W62363  27.683  11.137  14.875
94146W        W62364   5.248  37.404   4.137
94147W        W62365  43.315  18.069  14.534
94148W        W62366   6.419  30.996  11.499
94149W        W62367  27.548   3.821  12.903
94150W        W62368  20.983  20.971  11.148
94151W        W62369  34.596  16.767  11.765
94152W        W62370  25.632  25.440   1.303
94153W        W62371  25.495   9.239   3.797
94154W        W62372  44.446   4.042  10.659
94155W        W62373  20.536  30.894  12.041
94156W        W62374   9.772   4.769  12.003
94157W        W62375  16.273  41.282  13.530
94158W        W62376   8.814  32.632  10.712
94159W        W62377  36.932  44.776  11.671
94160W        W62378  44.025  29.611  11.472
94161W        W62379  31.602  11.743  13.785
94162W        W62380  23.347  43.479  11.665
94163W        W62381  12.367  37.016   2.204
94164W        W62382   8.568  14.296   0.180
94165W        W62383  13.123  37.049   3.629
94166W        W62384  37.065   9.307   4.706
94167W        W62385   8.886   4.205   4.822
94168W        W62386  21.157  41.409   3.632
94169W        W62387   5.580  39.492   1.045
94170W        W62388   1.990  20.852  11.446
94171W        W62389  36.440  29.056  10.317
94172W        W62390  42.220   6.431  11.199
94173W        W62391  10.618  10.832  10.379
94174W        W62392  11.683  43.515   3.696
94175W        W62393  40.757  16.848  10.730
94176W        W62394  42.729  27.814  11.185
94177W        W62395  15.371  38.017  11.517
94178W        W62396   7.044   2.295  14.436
94179W        W62397  29.691  21.311   4.995
94180W        W62398  43.079   8.628  11.136
94181W        W62399  33.584  25.021   3.624
94182W        W62400  17.413  22.555  13.383
94183W        W62401  36.025   6.618  11.452
94184W        W62402  36.591  29.538   3.266
94185W        W62403  29.075   2.121   4.567
94186W        W62404   4.898   8.773   0.951
94187W        W62405   1.906   9.929   4.726
94188W        W62406   8.692  13.672   2.281
94189W        W62407   5.051  44.801   4.858
94190W        W62408   4.365  40.596  12.950
94191W        W62409  18.285   3.319   3.782
94192W        W62410  20.101   3.748   1.393
94193W        W62411  42.529  40.347   3.682
94194W        W62412  32.907   3.500   1.814
94195W        W62413  11.297  22.992   1.495
94196W        W62414  41.490  24.757  10.542
94197W        W62415   2.725  42.150  10.851
94198W        W62416  32.147  25.633   0.376
94199W        W62417  41.102  19.327   3.243
94200W        W62418   6.306  14.849   1.394
94201W        W62419  28.111  34.088   2.813
94202W        W62420  36.804  21.339  10.081
94203W        W62421  34.668  24.025  14.373
94204W        W62422  17.501  22.600  14.753
94205W        W62423  42.306  26.243   1.678
94206W        W62424  28.211  12.898  11.854
94207W        W62425  42.826   3.435   1.139
94208W        W62426  30.479  22.541  13.445
94209W        W62427  29.349  35.301   1.269
94210W        W62428  16.037  35.850  11.646
94211W        W62429  24.997  15.278   2.200
94212W        W62430  12.962   9.836   2.688
94213W        W62431  28.075  34.541   1.209
94214W        W62432   4.902  44.562  14.538
94215W        W62433  22.251  11.541  10.331
94216W        W62434  36.708  16.841  13.996
94217W        W62435  15.036   6.722   1.786
94218W        W62436  40.354  43.562   3.792
94219W        W62437  16.726   3.705  13.817
94220W        W62438  29.925  43.476   2.216
94221W        W62439  32.526  27.005  13.841
94222W        W62440  23.683  18.477  11.978
94223W        W62441  34.516  25.966  10.703
94224W        W62442  21.728  18.843  13.487
94225W        W62443   4.288  18.447   4.613
94226W        W62444  10.700  27.776   4.159
94227W        W62445  33.317  37.044   3.176
94228W        W62446  38.455  22.009  10.653
94229W        W62447  10.829  38.918  12.609
94230W        W62448   2.242  17.249  10.722
94231W        W62449  34.385  41.344  10.574
94232W        W62450  37.841  43.701   0.079
94233W        W62451   4.712  34.408  11.583
94234W        W62452   7.127  35.065  11.573
94235W        W62453  20.451  42.393  10.704
94236W        W62454  29.241  33.357   2.872
94237W        W62455  21.511  35.645   5.324
94238W        W62456  15.475  13.605   9.836
94239W        W62457  39.049  36.431   0.254
94240W        W62458  28.484  15.171   4.408
94241W        W62459  14.219   9.294   1.340
94242W        W62460  44.400  24.607  12.372
94243W        W62461  19.595   4.883   3.144
94244W        W62462  35.210  32.474   0.992
94245W        W62463  40.624  16.761   1.581
94246W        W62464  26.536  15.064   1.363
94247W        W62465  42.000   8.259   2.579
94248W        W62466  40.944  31.699   1.810
94249W        W62467   8.857   2.459   3.880
94250W        W62468  38.410   4.031  11.118
94251W        W62469  22.513   6.273   4.810
94252W        W62470  28.237  36.083  11.042
94253W        W62471  30.532  35.346  13.768
94254W        W62472  19.478  34.883   3.848
94255W        W62473  18.793   8.980   2.702
94256W        W62474   9.834   9.535   4.769
94257W        W62475  18.973  42.039  12.215
94258W        W62476   1.681   0.028  12.576
94259W        W62477  19.155  33.643  12.493
94260W        W62478  15.208  24.455  13.419
94261W        W62479   3.092   9.452  13.276
94262W        W62480   7.634   2.115   3.188
94263W        W62481  32.405  36.445   0.240
94264W        W62482  37.279   8.173   1.836
94265W        W62483   4.152  43.387  11.639
94266W        W62484  10.170  23.993  14.027
94267W        W62485  28.398  27.560   3.234
94268W        W62486  40.063   8.898   3.229
94269W        W62487  12.842   9.433   1.812
94270W        W62488  30.669  33.863  10.995
94271W        W62489  38.010  32.022  13.792
94272W        W62490  24.770   4.792   4.320
94273W        W62491  29.949  44.835  13.641
94274W        W62492  43.982  35.405  11.089
94275W        W62493   3.828   1.460   0.546
94276W        W62494  16.398   2.130   0.970
94277W        W62495  38.914  29.646   2.673
94278W        W62496  10.843  30.612   2.915
94279W        W62497  25.867  19.793  12.529
94280W        W62498  40.542  15.165  11.197
94281W        W62499  28.183  12.412   1.389
94282W        W62500  10.777   7.285  12.576
94283W        W62501  34.989  12.629   0.925
94284W        W62502  27.112  20.706   1.768
94285W        W62503  30.275  32.556   3.663
94286W        W62504  26.685  42.001  10.806
94287W        W62505  44.902   2.229  10.766
94288W        W62506  23.685  31.873  13.046
94289W        W62507  38.805  36.263   4.630
94290W        W62508  36.169  15.159  11.932
94291W        W62509  21.571  17.455   0.301
94292W        W62510  13.706   2.190  14.822
94293W        W62511  27.148  21.151   0.884
94294W        W62512   3.458  17.082  14.333
94295W        W62513   3.506  38.512  11.076
94296W        W62514  27.794  36.360   3.802
94297W        W62515  21.710  38.842  14.181
94298W        W62516  27.635  26.089  14.272
94299W        W62517  25.517  18.639  14.295
94300W        W62518   9.473  42.976  10.595
94301W        W62519   9.585   6.893  13.361
94302W        W62520   8.689  31.373  11.749
94303W        W62521  16.304  26.173  12.080
94304W        W62522   8.423  19.742  14.350
94305W        W62523  19.562  20.630  13.073
94306W        W62524  28.474  31.101  13.584
94307W        W62525  22.681   3.334   4.443
94308W        W62526   2.732  29.286  12.634
94309W        W62527  33.135  22.565  10.708
94310W        W62528  18.789  25.022  10.723
94311W        W62529  22.733  33.459   5.003
94312W        W62530  24.953  15.828  10.214
94313W        W62531   2.455  22.686   3.686
94314W        W62532  39.551  19.070  14.375
94315W        W62533   9.252  19.660   3.130
94316W        W62534  12.411  24.989   1.321
94317W        W62535  40.353   0.349  11.185
94318W        W62536  44.936  27.142  12.965
94319W        W62537  12.092   0.896  11.486
94320W        W62538  15.816  39.873  10.708
94321W        W62539  31.385  31.003  14.412
94322W        W62540  28.939  21.064  12.870
94323W        W62541  16.024  34.494   0.909
94324W        W62542  10.662   2.902   1.106
94325W        W62543  20.752   4.710   0.710
94326W        W62544  13.690  35.047   1.812
94327W        W62545  14.611  12.680   0.790
94328W        W62546  43.241   9.556   3.335
94329W        W62547  39.928   0.538  12.953
94330W        W62548  42.592  11.140   1.835
94331W        W62549  15.727  43.796   5.560
94332W        W62550  31.997  16.164   0.490
94333W        W62551   7.882  21.822   0.855
94334W        W62552  25.017  25.915  12.316
94335W        W62553  39.876  34.298   0.840
94336W        W62554  31.597  29.583   0.415
94337W        W62555   5.960  41.277  12.621
94338W        W62556   8.179  40.965   1.818
94339W        W62557  25.598  33.961  14.721
94340W        W62558  20.695   4.984   2.938
94341W        W62559  16.555  39.760  11.108
94342W        W62560  38.423  14.370   2.203
94343W        W62561  27.855  25.487   2.956
94344W        W62562   4.088   4.513   2.214
94345W        W62563  40.163   5.988   4.831
94346W        W62564  23.545   1.320   2.758
94347W        W62565  12.755  14.112  12.121
94348W        W62566   6.437   0.745  11.088
94349W        W62567  28.513  15.182  12.288
94350W        W62568  18.077  32.068  12.655
94351W        W62569   7.186  33.026  12.967
94352W        W62570  31.660  38.927   0.317
94353W        W62571  23.593  21.406   0.479
94354W        W62572  28.510  25.730  12.500
94355W        W62573  28.280  39.796  11.161
94356W        W62574  20.902  12.791  11.960
94357W        W62575  20.000  40.864  12.896
94358W        W62576  20.332  37.476  12.419
94359W        W62577   8.522   6.725  11.315
94360W        W62578  16.649  43.515   5.204
94361W        W62579   1.358  10.056  12.776
94362W        W62580  14.741   6.298   0.913
94363W        W62581   3.671   8.744  14.397
94364W        W62582  33.797  29.434  12.468
94365W        W62583   1.922  20.624  10.962
94366W        W62584  20.650  14.323  11.072
94367W        W62585  18.949   5.887   0.850
94368W        W62586   9.671  23.089  11.010
94369W        W62587  34.116  39.726  12.562
94370W        W62588  11.705  32.081   1.730
94371W        W62589  22.723  36.870   0.813
94372W        W62590  24.631   5.229   3.137
94373W        W62591  14.396  43.393   1.839
94374W        W62592  14.413  27.065  11.363
94375W        W62593  38.130   0.723  10.032
94376W        W62594  30.669  13.305  14.894
94377W        W62595  37.024  29.347  14.800
94378W        W62596  19.196   6.394  12.812
94379W        W62597   4.836  38.270   0.855
94380W        W62598   1.267   4.072  13.857
94381W        W62599  15.774  21.138  11.931
94382W        W62600  18.235   7.744  12.917
94383W        W62601  11.182   0.912   2.846
94384W        W62602  18.737   8.545  10.172
94385W        W62603  11.912   7.177   0.479
94386W        W62604  43.525  32.059   3.330
94387W        W62605  39.975  34.346  12.683
94388W        W62606  37.045  42.596   3.655
94389W        W62607  34.100  32.415  13.589
94390W        W62608   9.879  26.206   2.939
94391W        W62609   4.348   6.454   1.039
94392W        W62610  18.285  36.988   1.320
94393W        W62611  29.451  16.554  12.913
94394W        W62612   9.337  26.615   9.949
94395W        W62613  14.213  10.192   0.229
94396W        W62614  32.901  42.040  10.951
94397W        W62615  43.944  31.008   1.339
94398W        W62616  39.190  34.173  14.287
94399W        W62617  21.218  30.911  11.614
94400W        W62618  38.194   8.348   2.024
94401W        W62619   7.084  19.578   1.870
94402W        W62620   3.695   6.829   3.636
94403W        W62621  24.080  44.202   3.734
94404W        W62622  38.495   2.187   3.207
94405W        W62623  13.573   2.449   0.767
94406W        W62624  41.504   6.142   3.577
94407W        W62625  42.944  13.394   4.311
94408W        W62626  10.211  37.856  10.594
94409W        W62627  12.762  32.412  12.579
94410W        W62628  23.109  10.718  14.815
94411W        W62629  34.014  21.457   4.641
94412W        W62630  20.487  26.558   1.279
94413W        W62631   8.164  15.034  12.882
94414W        W62632  34.439  28.741  13.096
94415W        W62633  22.199   7.393  11.549
94416W        W62634  29.412  18.640  12.086
94417W        W62635  19.962  40.948   4.825
94418W        W62636  11.363  21.437  13.480
94419W        W62637  24.577   7.866   0.358
94420W        W62638  40.346  40.469  12.136
94421W        W62639  18.856   8.888  13.586
94422W        W62640  19.832  26.720  11.691
94423W        W62641  35.883  19.211  11.926
94424W        W62642  30.461   0.986  11.624
94425W        W62643  20.126  30.416  13.611
94426W        W62644  36.372  44.295  10.901
94427W        W62645   0.917  15.058   4.727
94428W        W62646  21.514  19.918   2.343
94429W        W62647  11.050  42.344  14.864
94430W        W62648  28.178   9.633   2.301
94431W        W62649   0.977  31.265   1.882
94432W        W62650   4.398  44.420  13.764
94433W        W62651   5.109  14.203  11.798
94434W        W62652  42.913  33.933  12.897
94435W        W62653  21.592  11.798  13.499
94436W        W62654  10.565  28.380   1.989
94437W        W62655  39.204   7.509  11.183
94438W        W62656  31.959  42.463  10.781
94439W        W62657  28.877  44.099   2.781
94440W        W62658  15.638   5.665   2.335
94441W        W62659   9.108  10.368  11.093
94442W        W62660   0.810   4.295  11.709
94443W        W62661  35.088  26.561  12.764
94444W        W62662  11.144  15.753  10.649
94445W        W62663  38.706  34.966  12.309
94446W        W62664   9.418  16.803   1.211
94447W        W62665  16.648  21.705  10.559
94448W        W62666  35.427  16.026   0.388
94449W        W62667  18.779   1.382  10.918
94450W        W62668   1.334   4.229   3.087
94451W        W62669  23.730  18.077  11.077
94452W        W62670  21.558  10.786   4.561
94453W        W62671  21.734  36.819  13.410
94454W        W62672  37.769  32.586   4.667
94455W        W62673  29.867  30.435  12.957
94456W        W62674  33.817  16.216  11.552
94457W        W62675  44.867   5.003  10.628
94458W        W62676  10.169  39.583   3.539
94459W        W62677  24.892  44.130  11.039
94460W        W62678  35.705   8.914  12.903
94461W        W62679   7.806  19.161   1.449
94462W        W62680  31.421   8.445  12.932
94463W        W62681  21.004   0.751  13.069
94464W        W62682   8.722  43.528   3.084
94465W        W62683  38.880  22.299   1.669
94466W        W62684  11.904   4.777  12.644
94467W        W62685  41.120   1.762   1.378
94468W        W62686  32.630  21.268   3.798
94469W        W62687   5.986  26.564  14.325
94470W        W62688  14.395  12.541  11.663
94471W        W62689  38.426   1.695  14.743
94472W        W62690   7.469  10.335   0.004
94473W        W62691  43.206   2.534   1.272
94474W        W62692  37.250  12.339   0.355
94475W        W62693   0.242   2.796   0.351
94476W        W62694  11.032  17.407  11.727
94477W        W62695  41.808   8.879  13.458
94478W        W62696   1.091  21.240  11.598
94479W        W62697  11.794   3.360  13.576
94480W        W62698   0.512  16.083   1.773
94481W        W62699  33.990  10.939   4.410
94482W        W62700  15.296  29.656   0.470
94483W        W62701  23.617   3.819   1.700
94484W        W62702  37.010  27.257   5.112
94485W        W62703  16.618  25.388   2.456
94486W        W62704  13.391  24.113  13.977
94487W        W62705  14.824  41.698   0.225
94488W        W62706  12.551  30.851   2.912
94489W        W62707  16.724  35.181   4.083
94490W        W62708   5.059  29.349  13.308
94491W        W62709  35.497   1.691  14.006
94492W        W62710   0.318  29.431  12.912
94493W        W62711  20.614  23.600   0.704
94494W        W62712  21.227   9.810   3.076
94495W        W62713   6.918  15.784   1.796
94496W        W62714  20.431  20.590  11.705
94497W        W62715  40.328  41.466   1.437
94498W        W62716   7.711   2.175  11.491
94499W        W62717  25.236  29.991  14.593
94500W        W62718  40.402  10.276   0.240
94501W        W62719  26.630  27.092   0.565
94502W        W62720  28.135  13.745   3.562
94503W        W62721  27.481  28.773   1.505
94504W        W62722  25.911  27.509   2.599
94505W        W62723  34.872   4.843  11.125
94506W        W62724  38.180  27.460  12.068
94507W        W62725  39.062   5.837   4.579
94508W        W62726  26.299  16.254   0.898
94509W        W62727  17.667  44.876  14.208
94510W        W62728   4.308  38.676   2.790
94511W        W62729  37.579  38.379  11.457
94512W        W62730  39.997   1.411   1.232
94513W        W62731  10.181  39.487   0.332
94514W        W62732   5.120  33.622  11.140
94515W        W62733  37.035  24.970   2.177
94516W        W62734  14.141   0.303   2.420
94517W        W62735  35.130  44.977  11.062
94518W        W62736  15.638   1.385  11.932
94519W        W62737  18.314  12.370  13.949
94520W        W62738  20.823  23.952  13.372
94521W        W62739   3.329   3.859  13.406
94522W        W62740  26.120  37.788   4.040
94523W        W62741   1.419  24.619   1.014
94524W        W62742   3.549   6.138   3.126
94525W        W62743  41.976  35.040  13.392
94526W        W62744   6.303  13.208   2.421
94527W        W62745   3.204   6.833  13.790
94528W        W62746  13.061  24.150   4.511
94529W        W62747  32.499  25.996  14.693
94530W        W62748  33.007  31.489  12.832
94531W        W62749   3.351  39.365   0.330
94532W        W62750  27.114  35.569   1.771
94533W        W62751  32.933  12.277  14.894
94534W        W62752  27.556  38.454   2.034
94535W        W62753  21.177  17.257   4.008
94536W        W62754  30.044  26.121   1.661
94537W        W62755  13.649   3.347   0.998
94538W        W62756   7.786  29.089  12.828
94539W        W62757  32.588  10.327   0.509
94540W        W62758   5.629  18.267  10.478
94541W        W62759  37.006  41.868  13.512
94542W        W62760  38.253  26.476   3.307
94543W        W62761  32.901  17.075  13.371
94544W        W62762  41.062  27.575   1.349
94545W        W62763  14.609  18.616   0.373
94546W        W62764  15.581  10.759   0.291
94547W        W62765  36.950  10.581   4.361
94548W        W62766  37.590  10.755  14.823
94549W        W62767   4.788  26.118  10.743
94550W        W62768  43.495  16.027  10.693
94551W        W62769  26.167  10.587  13.321
94552W        W62770  17.400  16.594   1.863
94553W        W62771  41.284   8.547   4.559
94554W        W62772  22.944   6.269   4.309
94555W        W62773   9.052  25.282  11.582
94556W        W62774  17.781  14.950  12.112
94557W        W62775  17.770  24.244   1.911
94558W        W62776  18.403  31.201   1.744
94559W        W62777  43.650  21.773  13.837
94560W        W62778  24.690  20.178   0.578
94561W        W62779  13.152   2.467  12.109
94562W        W62780  19.618  32.964   3.330
94563W        W62781  37.993  30.570  10.774
94564W        W62782  24.670  18.823  12.766
94565W        W62783  37.995  14.308  13.820
94566W        W62784  19.033  35.862  13.393
94567W        W62785   8.185  40.961  11.529
94568W        W62786   9.883  24.762   4.187
94569W        W62787   4.256  17.796   1.309
94570W        W62788  16.267  20.902   4.705
94571W        W62789  10.380  43.532   0.705
94572W        W62790  42.847  23.535  12.958
94573W        W62791  29.730  44.677  12.391
94574W        W62792  39.757  19.156   3.202
94575W        W62793  26.733  29.938  14.450
94576W        W62794  38.847  15.554   0.975
94577W        W62795   4.211   0.163   2.304
94578W        W62796  44.271   4.869   1.309
94579W        W62797   2.300  33.173   0.442
94580W        W62798  33.409  21.377  12.057
94581W        W62799  42.209  13.333   2.992
94582W        W62800  37.326   0.087  11.806
94583W        W62801  41.586  38.864  13.965
94584W        W62802  14.819   7.193   3.240
94585W        W62803  13.111  18.156  12.904
94586W        W62804  20.214   9.808   0.644
94587W        W62805  32.631  28.715   0.252
94588W        W62806  42.076  35.365  11.470
94589W        W62807  16.174  21.440  12.031
94590W        W62808  33.913  24.169   2.938
94591W        W62809   0.409   5.637   3.185
94592W        W62810  20.475  28.261  14.487
94593W        W62811  19.594  37.262  14.986
94594W        W62812  20.646  39.993  13.415
94595W        W62813  17.585   6.718  14.331
94596W        W62814  23.487  16.379   2.670
94597W        W62815  37.994   7.689  11.650
94598W        W62816   0.390  13.868   0.690
94599W        W62817   1.989   3.863  14.377
94600W        W62818  36.062   9.924  11.876
94601W        W62819  10.623  36.846   0.422
94602W        W62820   3.323  10.763  10.627
94603W        W62821  22.208  33.033  10.787
94604W        W62822   9.355  43.340   1.316
94605W        W62823  40.468  35.113   1.387
94606W        W62824   3.388   8.285   2.630
94607W        W62825   2.539  28.482  14.972
94608W        W62826  24.025  29.136   4.091
94609W        W62827  14.234  10.959   2.735
94610W        W62828  14.230  42.006   1.435
94611W        W62829  42.528  16.574  13.311
94612W        W62830   2.693  32.123  11.568
94613W        W62831  39.296  38.343  12.932
94614W        W62832  28.006  29.136  11.391
94615W        W62833   6.841  13.564  13.934
94616W        W62834  12.608   0.102  14.687
94617W        W62835  44.773  16.200   4.807
94618W        W62836  44.264  32.436  14.536
94619W        W62837  17.547  33.996   4.783
94620W        W62838   3.913  13.641   4.792
94621W        W62839  17.201   8.289  14.766
94622W        W62840  36.188  26.926   5.182
94623W        W62841  41.519  39.966  10.406
94624W        W62842  12.630  39.733  14.636
94625W        W62843  23.101  13.375  12.458
94626W        W62844  21.670   1.325   1.811
94627W        W62845   0.390  25.461  13.110
94628W        W62846  17.278  14.269   1.614
94629W        W62847  15.730   7.036   3.289
94630W        W62848   4.297  17.921   4.549
94631W        W62849  33.298   5.709  12.916
94632W        W62850  40.038  15.286   2.426
94633W        W62851  39.198  20.680  10.616
94634W        W62852  12.851  27.813  13.998
94635W        W62853  31.344   4.211  12.968
94636W        W62854  11.607  37.053  14.939
94637W        W62855  21.948  23.192  10.670
94638W        W62856   8.752  22.467  11.608
94639W        W62857  21.551  38.357  14.047
94640W        W62858   1.418  25.333   2.405
94641W        W62859  39.831  36.088   2.432
94642W        W62860   2.390  25.214   4.200
94643W        W62861   4.697  19.025  11.826
94644W        W62862   9.497  24.595  13.903
94645W        W62863  36.742  27.566  14.971
94646W        W62864   9.857  41.449  11.628
94647W        W62865  32.136  38.854  12.550
94648W        W62866   4.822  39.312  13.577
94649W        W62867  40.139  39.127  13.638
94650W        W62868  21.018  31.530   5.046
94651W        W62869  27.910  33.871   3.850
94652W        W62870  40.479  19.002   2.190
94653W        W62871  17.638  28.533  13.772
94654W        W62872  15.693  41.997  13.616
94655W        W62873  37.094  29.096   2.683
94656W        W62874   1.671  23.222   1.703
94657W        W62875   1.362  11.880  10.642
94658W        W62876  16.332  34.621   1.315
94659W        W62877   4.252  26.298   2.653
94660W        W62878  22.084  19.584  11.979
94661W        W62879  21.197   9.461   3.817
94662W        W62880  16.126  10.944   3.384
94663W        W62881  29.383  42.896  12.325
94664W        W62882  20.406  12.799  12.087
94665W        W62883  39.798  10.679  14.403
94666W        W62884  34.955   1.185   0.384
94667W        W62885  36.125  42.036   0.721
94668W        W62886  31.058  24.451   4.108
94669W        W62887  38.844  43.127  12.991
94670W        W62888   7.286   1.807  13.437
94671W        W62889  39.278  38.938   1.304
94672W        W62890   0.770   5.843   2.809
94673W        W62891   3.325  31.103  13.622
94674W        W62892  20.403  17.683  11.426
94675W        W62893  28.444   4.624  12.681
94676W        W62894   7.942   7.319   3.435
94677W        W62895  23.264  15.895   1.160
94678W        W62896  34.892   3.646  14.980
94679W        W62897   1.260  14.270  12.492
94680W        W62898  18.160   6.303   0.405
94681W        W62899  17.573  40.845  12.180
94682W        W62900   6.691  16.165   4.557
94683W        W62901  42.501  19.001  14.420
94684W        W62902  22.067   1.849   0.180
94685W        W62903  31.534  22.962   3.308
94686W        W62904  26.633   6.876   3.644
94687W        W62905  24.929  43.024  14.944
94688W        W62906   2.262  15.262   1.222
94689W        W62907  26.023  37.465   2.133
94690W        W62908  19.240  34.836  13.348
94691W        W62909  28.582   9.638   2.638
94692W        W62910  33.709  22.194   2.716
94693W        W62911  13.926  15.024   3.084
94694W        W62912  37.118  17.531  14.333
94695W        W62913   1.486  10.723   0.382
94696W        W62914  44.042  21.696   3.754
94697W        W62915  19.513  40.443  10.453
94698W        W62916  38.582   1.945   3.715
94699W        W62917  20.509  35.558   0.038
94700W        W62918  32.612  42.883   0.114
94701W        W62919   7.369  12.469  10.778
94702W        W62920  39.431  31.420  11.436
94703W        W62921  38.337  21.734  12.330
94704W        W62922   9.161   4.180   2.650
94705W        W62923  12.209  22.605   3.405
94706W        W62924  38.779  43.963  14.813
94707W        W62925  11.741  12.245  14.188
94708W        W62926  35.628   2.447   0.919
94709W        W62927   0.314  14.775   0.803
94710W        W62928  19.571  34.040   4.367
94711W        W62929  18.250  35.503   0.763
94712W        W62930  37.948  17.233  10.728
94713W        W62931  26.571  17.860  11.689
94714W        W62932  34.292  27.938   0.901
94715W        W62933  35.685  11.175  11.410
94716W        W62934  19.074  27.032   3.132
94717W        W62935  39.378  20.600  14.461
94718W        W62936  10.229  33.081  12.879
94719W        W62937  21.233  21.279   1.650
94720W        W62938  31.699  27.447   3.423
94721W        W62939  20.855  31.484  12.869
94722W        W62940  38.103  31.441   0.838
94723W        W62941   2.293  26.206  11.550
94724W        W62942  25.541   2.186   4.093
94725W        W62943  18.732  11.679   4.673
94726W        W62944   3.747  23.838   3.652
94727W        W62945  19.625   5.228  13.499
94728W        W62946  16.250  12.535  12.840
94729W        W62947  44.848  22.960   1.020
94730W        W62948  38.158  20.660  12.285
94731W        W62949  17.638  39.825  11.931
94732W        W62950  27.947  10.747   1.877
94733W        W62951  26.758  34.018  12.212
94734W        W62952   6.976   6.578   2.632
94735W        W62953  39.721  41.301  10.781
94736W        W62954   5.372  12.927  10.792
94737W        W62955   8.366   9.398   1.342
94738W        W62956   4.331  36.882  12.155
94739W        W62957  18.789  24.037   1.792
94740W        W62958  12.794  28.859  14.278
94741W        W62959  17.760  41.966   1.951
94742W        W62960  18.839  31.468   1.903
94743W        W62961   9.420  38.539   0.931
94744W        W62962  35.546  15.022  10.696
94745W        W62963  37.042  26.928   3.183
94746W        W62964   3.774  19.610  14.194
94747W        W62965  30.280   2.984   4.520
94748W        W62966   2.390  23.276  11.162
94749W        W62967  17.611   0.567   0.473
94750W        W62968  28.323  13.711  12.429
94751W        W62969  35.040   3.394  14.546
94752W        W62970  13.741  19.825  13.289
94753W        W62971  10.063  34.426   2.581
94754W        W62972  10.164  33.084   0.864
94755W        W62973  19.724   2.922   0.908
94756W        W62974   2.347  27.346  13.325
94757W        W62975  27.898  24.886   0.163
94758W        W62976  35.451  25.169  11.625
94759W        W62977  43.231   6.218   3.196
94760W        W62978  12.205   1.985   3.832
94761W        W62979  34.613  15.614  13.603
94762W        W62980   6.204  17.602   9.850
94763W        W62981  17.105  33.376   1.815
94764W        W62982  17.685  24.971  12.507
94765W        W62983  38.306   4.370  13.035
94766W        W62984   8.304  22.276   3.823
94767W        W62985  27.814  28.537   3.812
94768W        W62986  23.561   1.692  13.357
94769W        W62987  26.947  17.293  14.967
94770W        W62988  14.164  10.250   1.304
94771W        W62989  37.531   7.538  14.579
94772W        W62990   5.742  33.075  12.660
94773W        W62991  12.620  10.905   1.897
94774W        W62992  22.581  43.209   2.424
94775W        W62993  25.265  27.513   1.163
94776W        W62994   6.459  29.055   3.283
94777W        W62995  31.471  16.043  11.020
94778W        W62996  13.671  25.638   1.691
94779W        W62997   4.175   2.791   2.792
94780W        W62998  43.497  29.384  14.358
94781W        W62999  29.779  32.625  11.736
94782W        W63000   1.461  37.857   4.613
94783W        W63001  31.912  17.127  10.814
94784W        W63002  19.245  35.473   0.177
94785W        W63003  28.309  37.167   5.011
94786W        W63004  22.935  34.441  12.901
94787W        W63005  31.840  15.709   0.275
94788W        W63006   6.791  40.770  14.909
94789W        W63007  43.888  42.498   4.142
94790W        W63008  20.874  37.402  14.773
94791W        W63009  35.644  41.827   3.230
94792W        W63010  22.375  34.071   4.341
94793W        W63011  12.618   7.975  14.149
94794W        W63012  37.294  10.151   3.376
94795W        W63013   6.370  28.426  12.643
94796W        W63014  23.684  16.764   1.371
94797W        W63015  18.209  34.009   5.470
94798W        W63016  28.118   7.981  14.500
94799W        W63017  13.729  30.791  11.588
94800W        W63018  40.112  11.364  11.924
94801W        W63019   8.589  26.125  12.668
94802W        W63020   2.111  18.445   3.202
94803W        W63021  20.688  18.758  12.075
94804W        W63022   7.657  23.938  11.923
94805W        W63023  17.125  27.095  12.952
94806W        W63024  15.518  17.962  11.435
94807W        W63025  26.446  31.229   2.621
94808W        W63026  43.945  20.294   4.235
94809W        W63027  44.517  20.134   1.886
94810W        W63028  13.007  33.952  11.880
94811W        W63029   1.774  11.068   3.580
94812W        W63030  33.334  42.787   4.346
94813W        W63031   6.454  15.356   3.146
94814W        W63032  32.591  34.533   0.423
94815W        W63033   3.265  37.150  14.773
94816W        W63034  21.144   5.657  11.036
94817W        W63035  27.755   9.348   0.738
94818W        W63036  30.010  13.536   4.515
94819W        W63037  35.801  12.232  12.040
94820W        W63038  19.488  44.962  12.011
94821W        W63039   3.793  15.163   0.826
94822W        W63040   8.213  10.269  13.818
94823W        W63041   2.958  25.909   2.373
94824W        W63042   9.014  44.873   4.578
94825W        W63043  25.447  29.035   4.590
94826W        W63044  15.808  29.971   0.039
94827W        W63045   5.302  18.610  11.618
94828W        W63046  10.104  15.708   4.966
94829W        W63047  35.499   8.137  10.460
94830W        W63048  32.622  11.125  12.313
94831W        W63049  15.196   4.973  12.855
94832W        W63050  11.073  40.975   4.217
94833W        W63051  26.596  13.431  11.434
94834W        W63052  24.997   3.740   2.188
94835W        W63053  28.927   0.720  13.367
94836W        W63054  32.967  42.189   0.785
94837W        W63055  11.328  39.060   4.455
94838W        W63056  41.541  25.541  11.186
94839W        W63057  15.247  15.498  13.335
94840W        W63058  36.619  15.221  13.033
94841W        W63059  27.634  44.431   3.105
94842W        W63060   9.949   1.391  13.039
94843W        W63061  21.220   9.328   3.310
94844W        W63062  31.579  42.220   3.223
94845W        W63063  12.092  19.090   3.834
94846W        W63064  15.847  18.597  12.893
94847W        W63065   6.983   8.489  14.986
94848W        W63066  39.869  29.467   1.634
94849W        W63067   5.435  35.372   4.202
94850W        W63068  28.502  10.304  10.143
94851W        W63069   3.546  42.384  10.561
94852W        W63070  13.136  42.561   1.768
94853W        W63071  30.182   1.363   0.836
94854W        W63072   4.923  22.541   2.708
94855W        W63073  29.930   4.203  12.407
94856W        W63074  44.332  22.677  10.752
94857W        W63075  13.432  15.170   3.027
94858W        W63076  15.104  42.962   9.589
94859W        W63077  17.499  31.952   2.852
94860W        W63078  11.084  27.306  12.474
94861W        W63079  41.581  21.175   4.312
94862W        W63080  15.905  41.389   0.669
94863W        W63081   3.798  14.679   0.039
94864W        W63082  31.166  23.690   4.526
94865W        W63083  42.144  18.528   0.993
94866W        W63084  33.572   4.906   2.360
94867W        W63085  40.938   8.886  14.401
94868W        W63086   8.655  21.538  13.933
94869W        W63087  21.002  36.854  11.292
94870W        W63088  19.892   7.251  11.549
94871W        W63089   9.868  23.617  12.630
94872W        W63090  36.541   0.306  10.234
94873W        W63091  44.340  31.337  11.586
94874W        W63092  15.051   2.647  13.457
94875W        W63093  41.636  11.076  12.095
94876W        W63094  20.147   8.174  11.920
94877W        W63095  36.311  26.483   4.955
94878W        W63096  10.365  22.476  10.738
94879W        W63097  24.066  33.653  11.821
94880W        W63098  28.154  15.662  12.960
94881W        W63099  22.672  11.689   3.589
94882W        W63100  41.529  39.711   3.469
94883W        W63101  30.087  17.674   0.643
94884W        W63102  31.910  11.697   4.102
94885W        W63103  27.028  37.455  12.800
94886W        W63104  13.831  30.114  14.843
94887W        W63105  10.586   1.763  11.536
94888W        W63106  40.524  23.999  12.539
94889W        W63107  42.849   9.155   4.613
94890W        W63108  31.397   5.267   3.753
94891W        W63109  38.613  33.338   0.647
94892W        W63110  36.395  34.922  12.124
94893W        W63111  16.578   6.371  11.082
94894W        W63112  33.494  37.767  13.334
94895W        W63113  33.836  44.909   0.278
94896W        W63114  37.459  29.646  10.803
94897W        W63115  27.545  19.466   0.290
94898W        W63116  23.589  43.462   2.716
94899W        W63117  36.411  30.505  14.754
94900W        W63118  36.413  38.472   2.196
94901W        W63119  10.784  24.574  10.914
94902W        W63120  10.082   3.579  12.479
94903W        W63121  10.375  30.356  12.058
94904W        W63122   3.531  28.200  14.277
94905W        W63123   1.360  21.553   0.499
94906W        W63124  36.123  19.582   2.774
94907W        W63125  17.629  29.977   0.631
94908W        W63126  37.038  13.713   4.816
94909W        W63127  39.236   0.176   4.555
94910W        W63128  36.573   6.341   1.645
94911W        W63129  37.807  21.293  13.055
94912W        W63130  12.706  18.522   3.960
94913W        W63131   1.922   1.276  10.671
94914W        W63132   9.291  24.375  11.110
94915W        W63133  12.724  38.509  11.608
94916W        W63134   1.235  25.976   3.165
94917W        W63135  28.815   7.249  12.056
94918W        W63136   1.280  41.368  12.834
94919W        W63137  24.798  22.466   0.728
94920W        W63138  44.038  36.465  14.308
94921W        W63139  29.692  27.214  12.523
94922W        W63140  31.761  10.531  11.229
94923W        W63141   4.810  39.720   2.339
94924W        W63142  22.136  25.065   4.604
94925W        W63143  28.957  32.420   0.415
94926W        W63144  23.944  33.343   4.262
94927W        W63145  12.167   8.978   0.820
94928W        W63146  43.270  22.533   3.922
94929W        W63147  42.603  38.536  10.471
94930W        W63148  20.320  18.122  13.858
94931W        W63149  39.357  31.016  12.738
94932W        W63150  37.022  40.407   1.255
94933W        W63151  17.216  40.776   1.158
94934W        W63152   4.107   2.962  14.850
94935W        W63153  13.203  31.947  11.657
94936W        W63154   5.924  11.485  13.312
94937W        W63155  38.339  29.098   0.983
94938W        W63156  18.367   9.837   2.252
94939W        W63157   3.862  17.723   4.017
94940W        W63158  38.807  39.377  14.513
94941W        W63159  35.940  40.583  12.940
94942W        W63160  36.163   4.929  13.427
94943W        W63161  38.553   0.182   4.029
94944W        W63162   2.377  29.012   3.208
94945W        W63163  20.161  28.062   3.141
94946W        W63164   0.969  22.363   2.558
94947W        W63165  16.132   8.646   1.019
94948W        W63166  12.874  10.325   4.580
94949W        W63167  23.226  15.374  14.249
94950W        W63168  22.813  11.654   1.688
94951W        W63169  38.938  18.848  11.155
94952W        W63170  15.081  14.933  10.562
94953W        W63171  10.109  24.239   2.660
94954W        W63172   1.312   9.924   2.246
94955W        W63173  41.924  43.985  12.479
94956W        W63174  31.949  25.575   4.269
94957W        W63175  31.638  39.802   2.213
94958W        W63176  26.689   1.942   0.236
94959W        W63177   9.141  12.830  14.945
94960W        W63178  19.675   3.159   0.459
94961W        W63179  15.604   1.977  13.881
94962W        W63180   4.023  35.299   2.699
94963W        W63181  14.734  27.996  10.668
94964W        W63182  28.733  44.436   1.298
94965W        W63183  42.031  37.833   1.558
94966W        W63184  14.250   5.311  11.598
94967W        W63185   8.709  20.800  10.670
94968W        W63186  29.203   8.764   1.220
94969W        W63187  27.715   3.407   1.357
94970W        W63188   3.342  25.931  14.005
94971W        W63189  44.886  16.264   0.535
94972W        W63190  40.949  22.484  13.634
94973W        W63191  13.127  16.951   2.681
94974W        W63192  33.872  11.375   3.138
94975W        W63193  31.128   2.305  12.256
94976W        W63194  17.302   3.660   2.305
94977W        W63195   8.684  10.457  14.020
94978W        W63196  15.249  17.492   1.203
94979W        W63197   9.821   1.285   1.436
94980W        W63198  34.996  27.164   0.516
94981W        W63199  35.839  31.955  10.439
94982W        W63200  41.229  27.097   4.614
94983W        W63201  22.721  33.408  10.220
94984W        W63202  41.299  16.372  12.329
94985W        W63203  23.112   4.767  13.799
94986W        W63204  32.945  19.135   0.690
94987W        W63205  19.300  30.026  14.973
94988W        W63206  20.718  18.273  13.572
94989W        W63207  24.182   9.248   2.249
94990W        W63208   4.810  30.444   5.019
94991W        W63209  19.518  43.717  13.796
94992W        W63210   4.783  29.237   5.042
94993W        W63211  11.787  37.095  14.003
94994W        W63212  36.748  16.120   0.183
94995W        W63213   1.635   5.341  10.641
94996W        W63214  23.113  33.573  12.205
94997W        W63215  10.116  33.338  11.187
94998W        W63216  44.887  10.346  11.315
94999W        W63217  18.184  37.148  11.123
95000W        W63218  14.627  35.591  10.631
95001W        W63219   9.908  18.308  11.608
95002W        W63220  17.685  10.252  12.433
95003W        W63221   1.656  10.247   0.290
95004W        W63222   4.805   3.258   2.213
95005W        W63223  15.519  19.680   1.115
95006W        W63224   3.846  32.804  12.487
95007W        W63225  25.627  27.068  12.606
95008W        W63226  27.098  20.551  14.248
95009W        W63227  23.187   0.481  11.153
95010W        W63228  30.477  41.586   4.197
95011W        W63229  19.021  10.682  11.101
95012W        W63230   1.813  17.880   1.153
95013W        W63231  29.992  19.313   2.569
95014W        W63232  21.017  27.463  13.379
95015W        W63233  34.066   9.138  11.927
95016W        W63234  34.176  31.438   1.424
95017W        W63235  42.931  28.078  14.358
95018W        W63236  15.333   8.211   3.677
95019W        W63237  10.603  37.375  13.796
95020W        W63238   8.235  15.236   1.826
95021W        W63239  37.651  18.593  12.087
95022W        W63240  28.525  33.170   1.843
95023W        W63241  27.202  28.378  12.891
95024W        W63242   1.958  20.503  12.749
95025W        W63243  12.892  17.787  13.988
95026W        W63244  31.978   8.398   4.330
95027W        W63245   6.387  17.035  12.011
95028W        W63246  38.820  39.363   4.362
95029W        W63247  32.007  11.950  14.695
95030W        W63248   2.985  39.901   2.803
95031W        W63249  12.927  40.554  14.526
95032W        W63250  11.669  39.311  14.433
95033W        W63251  32.530  41.281   4.240
95034W        W63252  21.615  24.977   0.439
95035W        W63253  31.440   7.323  14.275
95036W        W63254  35.266  38.955   1.530
95037W        W63255  41.369  30.506  14.996
95038W        W63256   3.497   6.372  13.948
95039W        W63257   0.943   2.817   4.479
95040W        W63258   9.773  27.655  10.568
95041W        W63259  37.968  23.991  12.157
95042W        W63260  29.074   7.861   4.791
95043W        W63261   3.668  11.067   2.665
95044W        W63262  20.815   2.383   0.318
95045W        W63263   1.187   1.259  11.966
95046W        W63264  43.364  32.552   3.311
95047W        W63265  15.772  27.221  12.030
95048W        W63266   8.847  13.152   3.764
95049W        W63267  20.609  44.969  14.944
95050W        W63268   9.867  12.683  14.459
95051W        W63269  23.069  29.237  13.487
95052W        W63270   6.315  33.711   2.875
95053W        W63271  43.330  42.047  11.453
95054W        W63272  36.466  31.492  12.472
95055W        W63273  28.947   4.932  13.359
95056W        W63274  14.633  39.334  11.694
95057W        W63275  37.920   4.335  12.096
95058W        W63276  28.546  20.048  14.830
95059W        W63277   6.788   4.371   2.798
95060W        W63278   3.705  17.305  13.762
95061W        W63279  23.969  22.017   4.713
95062W        W63280  12.271  25.411  12.199
95063W        W63281  38.997   6.902   4.201
95064W        W63282  20.862  15.521  13.456
95065W        W63283  44.746  33.038   2.293
95066W        W63284  34.886  40.858  11.131
95067W        W63285   0.798   6.187  13.074
95068W        W63286  23.141  13.096   4.109
95069W        W63287  20.056  35.138   1.440
95070W        W63288  23.510  18.623  11.106
95071W        W63289  11.181  41.909  12.590
95072W        W63290  31.481  32.667   1.653
95073W        W63291  23.705  16.426  12.047
95074W        W63292   3.217   2.507  12.096
95075W        W63293  20.504  31.964   2.878
95076W        W63294  26.593  13.762   4.647
95077W        W63295  36.641   0.321   2.626
95078W        W63296  11.421  44.295   3.790
95079W        W63297   1.761  36.026  14.814
95080W        W63298  16.202   1.676   1.858
95081W        W63299  38.348  21.481   1.974
95082W        W63300  40.356  24.547   1.632
95083W        W63301  38.480   9.965   4.918
95084W        W63302   8.126  32.601   4.338
95085W        W63303  32.010  24.518   1.728
95086W        W63304  11.340  43.510  12.447
95087W        W63305  39.114  18.659  12.599
95088W        W63306  19.491   4.775   1.387
95089W        W63307  27.915  40.355  13.460
95090W        W63308   3.933  26.575  12.393
95091W        W63309   7.367  28.659  12.022
95092W        W63310  35.570  17.055   0.380
95093W        W63311  27.484   7.249   3.689
95094W        W63312  41.405  11.165  14.918
95095W        W63313  39.422  16.960  10.676
95096W        W63314   7.483  27.672  10.764
95097W        W63315  16.063   1.451   1.391
95098W        W63316  13.224  30.201   1.245
95099W        W63317  14.538  26.252  12.457
95100W        W63318   1.836  10.139  12.323
95101W        W63319   3.908  41.551  11.466
95102W        W63320  18.782  33.694  12.064
95103W        W63321   7.331  11.863  14.231
95104W        W63322  10.784  32.557   3.503
95105W        W63323  41.915   2.175  10.334
95106W        W63324   4.413  35.356   1.415
95107W        W63325   4.721  24.923  11.996
95108W        W63326  24.016  28.765  13.910
95109W        W63327  18.074  40.864  10.990
95110W        W63328  42.732   4.851  14.319
95111W        W63329  13.082  32.444  13.900
95112W        W63330  20.181   5.951  12.415
95113W        W63331   9.889   1.665   1.851
95114W        W63332   5.894  34.851  13.325
95115W        W63333  19.743  12.137   4.424
95116W        W63334  36.038  35.255   3.624
95117W        W63335  20.264  10.626  12.537
95118W        W63336  18.031  39.069  14.320
95119W        W63337  37.356  44.216   4.260
95120W        W63338  34.887  10.420  13.752
95121W        W63339   6.469   8.525   0.777
95122W        W63340   6.204  28.226   1.296
95123W        W63341   5.084  22.553  12.860
95124W        W63342   1.204  42.264   4.291
95125W        W63343  14.193   0.982  13.271
95126W        W63344  27.978  43.753  12.938
95127W        W63345  28.908  27.267  12.895
95128W        W63346   6.741  39.509  10.179
95129W        W63347  26.968  27.148  11.122
95130W        W63348  24.123   5.843  10.350
95131W        W63349   1.251  40.552  12.817
95132W        W63350  29.108  33.456  11.602
95133W        W63351  30.935  10.631  13.901
95134W        W63352   1.877  36.347  11.658
95135W        W63353  16.601  13.346   1.391
95136W        W63354  23.667  33.350  12.083
95137W        W63355  16.298  33.858  13.923
95138W        W63356  37.449  22.740  12.294
95139W        W63357  24.222  11.342   2.065
95140W        W63358  39.990   4.759  11.097
95141W        W63359  44.265  38.515  11.593
95142W        W63360  30.609  35.815   4.950
95143W        W63361  44.791  34.368  12.415
95144W        W63362  19.437   0.792   1.297
95145W        W63363   9.858   5.370   2.212
95146W        W63364   5.712  31.653  11.466
95147W        W63365  32.096   4.963   0.946
95148W        W63366   2.720  12.731  11.517
95149W        W63367   5.729  20.996   1.877
95150W        W63368  11.519  33.382   1.380
95151W        W63369  39.532  32.241  13.555
95152W        W63370  26.030  30.373   3.866
95153W        W63371  16.704  15.888  11.060
95154W        W63372  40.770  40.496   0.946
95155W        W63373  24.536  13.848  10.678
95156W        W63374   6.312  38.246  14.843
95157W        W63375  14.617  19.698   2.657
95158W        W63376   3.409  22.242  14.342
95159W        W63377  24.467  21.677   1.908
95160W        W63378  29.582  41.569   1.762
95161W        W63379  25.558  38.659  11.001
95162W        W63380  29.675  42.994   1.934
95163W        W63381  18.039  33.178  14.251
95164W        W63382  21.318  37.836   5.745
95165W        W63383  12.414  22.324   1.495
95166W        W63384  42.011  28.932   2.436
95167W        W63385  28.135  25.091   1.141
95168W        W63386  30.721  21.082  14.937
95169W        W63387   1.054   0.640  10.974
95170W        W63388  15.448  42.880   3.813
95171W        W63389  26.676  18.804   1.029
95172W        W63390  25.485  41.232   5.143
95173W        W63391  39.525  32.318  12.486
95174W        W63392  38.794   4.880  14.537
95175W        W63393  41.287  13.231   2.279
95176W        W63394  25.086  37.335  13.868
95177W        W63395  23.918  19.277   2.188
95178W        W63396  18.708  20.789   0.340
95179W        W63397  31.281   1.469  13.962
95180W        W63398  34.006  10.734  10.923
95181W        W63399  24.618   6.633   4.687
95182W        W63400   7.206  39.585  14.481
95183W        W63401   6.923  15.599  13.493
95184W        W63402  40.426  35.830  14.285
95185W        W63403  41.879  14.199  11.792
95186W        W63404   0.214   2.710   1.151
95187W        W63405  27.135  42.849   4.414
95188W        W63406  34.233  36.124  12.470
95189W        W63407   0.837   3.681   2.328
95190W        W63408  35.838  32.565   3.142
95191W        W63409  39.441  12.252   1.280
95192W        W63410  33.275  33.491  12.422
95193W        W63411  42.590  37.101   3.896
95194W        W63412  12.943  15.727   0.887
95195W        W63413  28.931  18.368   2.279
95196W        W63414  28.554   2.832   4.159
95197W        W63415  41.306  11.581  13.353
95198W        W63416  17.929   7.958  13.327
95199W        W63417   2.564   7.498   0.384
95200W        W63418  30.103  12.690   2.107
95201W        W63419  38.963  33.598  12.092
95202W        W63420  15.637  29.667   1.314
95203W        W63421  27.602  12.969  10.446
95204W        W63422  34.708  41.298  13.051
95205W        W63423  24.031   1.651  11.430
95206W        W63424  24.419  38.339   3.708
95207W        W63425   3.874  20.995   0.932
95208W        W63426  17.298   0.879  12.383
95209W        W63427   7.966  27.985  14.380
95210W        W63428   2.892  11.811  11.360
95211W        W63429  16.877  16.515   1.861
95212W        W63430  37.419  37.012   3.914
95213W        W63431  21.145   6.321  13.611
95214W        W63432  11.305  16.626   3.029
95215W        W63433   4.467  35.058   0.950
95216W        W63434  34.225  38.022  14.468
95217W        W63435   1.543  42.906   0.124
95218W        W63436   1.083  39.910  12.409
95219W        W63437  17.592  44.275  14.871
95220W        W63438  41.843   7.244   9.913
95221W        W63439  41.513   2.764   2.768
95222W        W63440   4.819   3.783  13.434
95223W        W63441   1.195  40.767   1.226
95224W        W63442  28.868   2.041  14.238
95225W        W63443  25.977   0.004  14.347
95226W        W63444  30.580   4.312   0.876
95227W        W63445   9.111   0.891   0.560
95228W        W63446  36.930  17.597   4.133
95229W        W63447   7.855  15.275  14.131
95230W        W63448  22.745   5.448  11.957
95231W        W63449  35.427  29.913  14.482
95232W        W63450  14.991  41.428  13.492
95233W        W63451   1.444  37.362  11.892
95234W        W63452  43.736  44.612   4.875
95235W        W63453  25.615   0.260   1.352
95236W        W63454  22.986   6.189  12.486
95237W        W63455  28.223  10.720  10.427
95238W        W63456  31.679  10.602   3.479
95239W        W63457  42.976  17.256   4.654
95240W        W63458  18.752  16.782   1.767
95241W        W63459  17.592   2.823   2.469
95242W        W63460  23.063   7.947  11.535
95243W        W63461  32.370  19.004   2.769
95244W        W63462   2.247  14.133   4.576
95245W        W63463   0.998  26.289  14.527
95246W        W63464   8.878  19.094  11.163
95247W        W63465  27.133  37.218  13.234
95248W        W63466  30.127  30.595   0.468
95249W        W63467  29.981   2.882  12.333
95250W        W63468  20.249   3.799  12.863
95251W        W63469  11.195  29.178   0.263
95252W        W63470  44.511  42.714   0.004
95253W        W63471  25.084   1.332  10.782
95254W        W63472  41.363  38.488   2.462
95255W        W63473   0.220  12.441   2.831
95256W        W63474  28.220  13.768   2.641
95257W        W63475  37.505  19.305   2.725
95258W        W63476  19.504  36.882   1.834
95259W        W63477  25.695  16.237   2.643
95260W        W63478  41.373  28.211  10.682
95261W        W63479  17.770   1.802   3.185
95262W        W63480  44.274  28.636  13.444
95263W        W63481  35.038  33.556  12.131
95264W        W63482  28.402  25.251  11.042
95265W        W63483   4.310  35.894  12.172
95266W        W63484  18.586  33.656   0.721
95267W        W63485  34.458  27.461   0.733
95268W        W63486   5.992  29.498  10.614
95269W        W63487  29.696  12.180   4.470
95270W        W63488   1.962   9.584   1.296
95271W        W63489  26.281   5.944   0.423
95272W        W63490  24.978   8.701   4.834
95273W        W63491  11.847  22.960   1.291
95274W        W63492  35.518   1.657   4.929
95275W        W63493  29.258  17.038  13.072
95276W        W63494  20.163  27.500  11.072
95277W        W63495   2.921  16.193  13.407
95278W        W63496  37.824  32.856   1.355
95279W        W63497  28.997  13.311   3.497
95280W        W63498   5.927  35.917  13.410
95281W        W63499   9.190   5.518   3.546
95282W        W63500  35.408  36.140  10.985
95283W        W63501  41.264  29.704   0.366
95284W        W63502  32.183  33.662   0.849
95285W        W63503  44.370  41.270  11.610
95286W        W63504  34.524  21.556  12.189
95287W        W63505  44.766  14.637   2.266
95288W        W63506  15.787  21.641   2.625
95289W        W63507  31.641  27.993   1.664
95290W        W63508   7.867  39.300  14.829
95291W        W63509  19.447   1.572  11.568
95292W        W63510   6.394  29.563   1.703
95293W        W63511  32.939  37.122   0.449
95294W        W63512   5.663  24.741   2.610
95295W        W63513  44.153   1.827  10.271
95296W        W63514  31.611  18.085  14.837
95297W        W63515  24.940  28.101  14.751
95298W        W63516  40.809  39.361   2.430
95299W        W63517   8.638  31.045   4.210
95300W        W63518  14.661  36.395   4.268
95301W        W63519  34.567  36.094  11.283
95302W        W63520  33.456  20.673   1.747
95303W        W63521   8.393  27.962  12.680
95304W        W63522   9.354  40.838  12.855
95305W        W63523  22.085  34.335  11.962
95306W        W63524   3.966   7.692   4.319
95307W        W63525   9.884  19.866   4.141
95308W        W63526  29.908  11.518  11.603
95309W        W63527  37.458  44.781  14.222
95310W        W63528   6.011  26.846   4.342
95311W        W63529  22.486  34.189   3.351
95312W        W63530   6.123   2.367   2.188
95313W        W63531  34.096  16.093   4.164
95314W        W63532  32.508  44.993  13.923
95315W        W63533  27.932   6.773  14.032
95316W        W63534  38.287  24.659   1.652
95317W        W63535  34.399  33.544   1.430
95318W        W63536  13.939  34.624   4.316
95319W        W63537   9.345   5.369  14.005
95320W        W63538  12.421  20.741  11.000
95321W        W63539  35.201   5.209   0.961
95322W        W63540  32.065  29.660  12.859
95323W        W63541  30.624   5.969  13.429
95324W        W63542  25.992  36.086  12.380
95325W        W63543  40.648  20.165  12.448
95326W        W63544  14.796  39.850  13.975
95327W        W63545  43.438  27.712  10.595
95328W        W63546  43.309  40.317  12.823
95329W        W63547  19.188  13.274   1.237
95330W        W63548  33.273  21.820   4.267
95331W        W63549  31.994   9.388   1.213
95332W        W63550  13.605  35.475   0.282
95333W        W63551  25.475  35.981   3.633
95334W        W63552  43.254  27.641  12.103
95335W        W63553  32.847   4.366   0.734
95336W        W63554  29.879  39.945   1.872
95337W        W63555   6.594  21.437  13.976
95338W        W63556  33.000  32.917   0.892
95339W        W63557  11.169   1.853  12.381
95340W        W63558  17.729  33.773   4.355
95341W        W63559  37.408   7.326  10.463
95342W        W63560   3.422  44.062   3.490
95343W        W63561  18.179  37.389  10.661
95344W        W63562   2.327   4.647   5.008
95345W        W63563  20.662   1.674  13.393
95346W        W63564   3.528  26.602   2.306
95347W        W63565  12.107   2.457   2.781
95348W        W63566  38.370   7.853   2.021
95349W        W63567   5.349  42.819  13.525
95350W        W63568  41.289  42.640   3.665
95351W        W63569   1.314  20.987  12.361
95352W        W63570  38.076  13.780   3.328
95353W        W63571  25.261  24.121   1.312
95354W        W63572   2.430  44.048   2.599
95355W        W63573  36.416  35.034  13.576
95356W        W63574  19.658   3.137  11.606
95357W        W63575  39.445   9.934   2.763
95358W        W63576   9.080   3.866  11.452
95359W        W63577  25.869  16.907  14.261
95360W        W63578  37.968  28.540   2.730
95361W        W63579   3.436   4.016   5.038
95362W        W63580   6.751  11.392  11.171
95363W        W63581  40.363   3.443  14.902
95364W        W63582  26.567  19.936  13.137
95365W        W63583  12.219   5.384  13.324
95366W        W63584  21.150  21.498  14.136
95367W        W63585  31.103  33.321  13.404
95368W        W63586  25.645  35.100   0.797
95369W        W63587  20.042  31.088  12.902
95370W        W63588  18.648  31.060  10.976
95371W        W63589  32.729  10.181  11.892
95372W        W63590  29.313  20.209   0.230
95373W        W63591  26.121  14.537  13.536
95374W        W63592  13.870  23.996  11.354
95375W        W63593  30.691  27.592  11.121
95376W        W63594  33.437  39.092  12.418
95377W        W63595  12.554  39.354  12.576
95378W        W63596  35.652   0.665  14.023
95379W        W63597   5.985  13.190   4.737
95380W        W63598  36.998  17.001  12.935
95381W        W63599  12.670  28.986   0.364
95382W        W63600  20.246  12.395  14.922
95383W        W63601  36.482   9.665   2.405
95384W        W63602  20.296  44.048  12.143
95385W        W63603  13.245  29.626   1.309
95386W        W63604  10.863  23.257   3.724
95387W        W63605  38.950  43.270  11.533
95388W        W63606  30.246  22.006   3.647
95389W        W63607  21.501  21.686  11.336
95390W        W63608  28.673  42.093   1.795
95391W        W63609  14.364   6.139   4.945
95392W        W63610  41.591  28.464   3.242
95393W        W63611   4.696  15.462  10.788
95394W        W63612  24.366  17.027   4.670
95395W        W63613  13.023  42.916   0.987
95396W        W63614  18.081  39.807  12.812
95397W        W63615  17.030  38.442  11.489
95398W        W63616   2.866  43.018  14.707
95399W        W63617  15.660   3.016  14.842
95400W        W63618  38.211  17.748  11.939
95401W        W63619  16.092   1.501  10.348
95402W        W63620  18.041  32.122  13.173
95403W        W63621   0.299   8.226   1.402
95404W        W63622  13.844  43.155   3.275
95405W        W63623  44.647  28.981  14.223
95406W        W63624  19.978  15.799   3.697
95407W        W63625  26.616   0.080  14.797
95408W        W63626  35.317  26.210   4.264
95409W        W63627  31.441  22.980   3.842
95410W        W63628   9.082   2.321   1.728
95411W        W63629  40.491  18.565  11.379
95412W        W63630  35.506  17.213   1.930
95413W        W63631  38.889  19.932   1.222
95414W        W63632  19.253  14.336  12.433
95415W        W63633  32.944  14.105  14.872
95416W        W63634  12.099  18.342   2.363
95417W        W63635  19.183  15.729  11.952
95418W        W63636  39.886  35.521   3.061
95419W        W63637  15.743  37.780   1.770
95420W        W63638  30.991  28.230   2.753
95421W        W63639  16.472  19.377   2.858
95422W        W63640   9.793  12.085  12.880
95423W        W63641  37.327  24.758   2.892
95424W        W63642  16.179  36.254   3.765
95425W        W63643  10.091  27.538   2.646
95426W        W63644  44.950  12.215  13.501
95427W        W63645  33.877  44.688  13.334
95428W        W63646  15.177   0.781  14.525
95429W        W63647   7.791  43.873  10.838
95430W        W63648  29.962  35.390   2.384
95431W        W63649   0.592  19.014  14.784
95432W        W63650   9.959  27.192   4.121
95433W        W63651  19.220  13.695  14.470
95434W        W63652   0.783  29.522  13.649
95435W        W63653  13.867  44.621  11.957
95436W        W63654   4.868  22.517  14.025
95437W        W63655  19.108   6.930  12.813
95438W        W63656  28.695  11.360   1.875
95439W        W63657  17.837   4.814   2.760
95440W        W63658  31.308   2.525   5.405
95441W        W63659  28.573  16.896   2.867
95442W        W63660  14.800  41.538   2.752
95443W        W63661  36.369  28.113   3.824
95444W        W63662   3.322   3.494  10.309
95445W        W63663  20.105  25.186  14.796
95446W        W63664  13.648   6.593   0.535
95447W        W63665   5.118  23.030   4.808
95448W        W63666  38.991  23.166   0.101
95449W        W63667  30.609  22.023  11.040
95450W        W63668  24.516  11.368  11.560
95451W        W63669  35.140  28.818  10.337
95452W        W63670   7.906  34.623   4.118
95453W        W63671  18.014  14.005   3.541
95454W        W63672  25.033  42.830   0.406
95455W        W63673  21.569  14.106   1.723
95456W        W63674   2.516  10.677   4.200
95457W        W63675  22.214   1.476  11.024
95458W        W63676  25.603  21.497  12.796
95459W        W63677   7.790  22.448   3.713
95460W        W63678  30.293  20.585   3.534
95461W        W63679  36.532   3.185  10.735
95462W        W63680  29.962  42.304   1.387
95463W        W63681  16.822  20.045   3.092
95464W        W63682   1.268  37.343   0.286
95465W        W63683  13.040   3.742  11.125
95466W        W63684  16.771  34.123  14.821
95467W        W63685  32.874   3.430   2.704
95468W        W63686   3.791  32.042  11.040
95469W        W63687  44.480  30.012  13.401
95470W        W63688  16.122  13.103  14.240
95471W        W63689  18.715  13.744  13.340
95472W        W63690  16.060   0.761  12.426
95473W        W63691  25.281   4.129   0.426
95474W        W63692  35.000  25.689  12.390
95475W        W63693  20.350  14.471   5.467
95476W        W63694   7.272   9.583  10.814
95477W        W63695  31.390  24.164   4.376
95478W        W63696  23.714  41.536  13.972
95479W        W63697  20.614  17.149   0.328
95480W        W63698  40.421  34.687  11.688
95481W        W63699  35.078  17.811   0.290
95482W        W63700   6.334  18.286  13.843
95483W        W63701  39.037  10.206   0.487
95484W        W63702  44.575  27.627  14.254
95485W        W63703  38.082  12.080  10.744
95486W        W63704  14.200   9.850  13.948
95487W        W63705  31.595  26.971   0.547
95488W        W63706  29.448  26.584   3.712
95489W        W63707  24.157  33.931   1.933
95490W        W63708   6.768   7.144  11.643
95491W        W63709   0.851  20.790   4.539
95492W        W63710  43.586  42.174  12.635
95493W        W63711  11.914   3.908  13.505
95494W        W63712  13.707  41.071  11.139
95495W        W63713  15.243  31.668  14.803
95496W        W63714   6.154  33.469  13.393
95497W        W63715  22.961  15.824  12.191
95498W        W63716  41.483   2.022  10.568
95499W        W63717  14.806  12.848  12.968
95500W        W63718  36.492  17.866   4.330
95501W        W63719  11.089   7.432  13.430
95502W        W63720   4.270  11.049  14.105
95503W        W63721  22.039  21.023  13.837
95504W        W63722  35.521  34.474   2.967
95505W        W63723  36.799  22.005  12.572
95506W        W63724  28.668  26.206  13.330
95507W        W63725  23.036   4.359  12.889
95508W        W63726  22.705  22.171   1.631
95509W        W63727  33.879   3.202  14.885
95510W        W63728  32.909  29.653   0.773
95511W        W63729  34.088  17.788   4.500
95512W        W63730  21.539  18.422   1.721
95513W        W63731   7.070  35.780   1.941
95514W        W63732   4.594  27.249  14.532
95515W        W63733  17.151  27.627   3.538
95516W        W63734   8.740  36.089   4.721
95517W        W63735  17.984   1.722   1.869
95518W        W63736  16.197  36.364  14.486
95519W        W63737  28.912  24.224  12.098
95520W        W63738  28.043  38.597   0.821
95521W        W63739  11.451  37.782   2.909
95522W        W63740  27.268   4.805  13.964
95523W        W63741  20.691   6.484   4.108
95524W        W63742  33.048  38.070  12.045
95525W        W63743  27.104  36.075  13.944
95526W        W63744   5.760  29.423  13.073
95527W        W63745  22.549  11.237   2.852
95528W        W63746  42.723  40.709  13.597
95529W        W63747  39.444  28.066  10.225
95530W        W63748  32.840  22.906   3.344
95531W        W63749  33.380  23.465  14.838
95532W        W63750  29.666   6.557   5.052
95533W        W63751  25.144   1.945  12.459
95534W        W63752   2.170  23.533  13.351
95535W        W63753  26.912   5.211   1.096
95536W        W63754  21.914  26.964   4.143
95537W        W63755  12.710  22.260  11.941
95538W        W63756  25.216  37.914   0.693
95539W        W63757  32.059  38.195  13.008
95540W        W63758   6.230   0.651  14.769
95541W        W63759  16.743  20.776  13.458
95542W        W63760   2.383   9.716   0.366
95543W        W63761   6.888  22.698   3.456
95544W        W63762   3.291  41.913  11.684
95545W        W63763  14.507  27.479   4.526
95546W        W63764  28.908   8.245  13.025
95547W        W63765  11.113  33.660   2.120
95548W        W63766  40.794  16.271   3.921
95549W        W63767  38.544  41.192   3.196
95550W        W63768  33.402  19.520  14.829
95551W        W63769  21.564  29.608  12.756
95552W        W63770  27.578  12.812  12.533
95553W        W63771   3.230   3.779   0.797
95554W        W63772  20.454  13.091  12.511
95555W        W63773   0.941  21.898  13.899
95556W        W63774  38.002  22.205   3.786
95557W        W63775  32.256  29.502  14.776
95558W        W63776  35.435   1.573   2.433
95559W        W63777   8.719  31.122   1.847
95560W        W63778  20.627  31.056  13.993
95561W        W63779  17.247  20.626  11.982
95562W        W63780  21.882  22.092  14.924
95563W        W63781  21.638  18.515   0.302
95564W        W63782  24.325  38.603  12.440
95565W        W63783   3.198  37.584  13.903
95566W        W63784  21.027  34.540   2.663
95567W        W63785  27.505  26.659  12.167
95568W        W63786  34.859  34.610   3.378
95569W        W63787   4.726   6.455   4.672
95570W        W63788   2.936   5.842  13.387
95571W        W63789  13.049   8.918  14.524
95572W        W63790  13.736  37.395  11.074
95573W        W63791  38.476  11.783   2.776
95574W        W63792   6.257   9.008   3.585
95575W        W63793  36.866  40.525   2.872
95576W        W63794  12.196  13.544  14.089
95577W        W63795  44.432  14.854  14.717
95578W        W63796  24.905  22.925   4.336
95579W        W63797  33.898  12.809   4.363
95580W        W63798  16.722  21.718   4.463
95581W        W63799   9.854  40.933   2.266
95582W        W63800  18.699  27.565   0.435
95583W        W63801  19.065  10.212  14.338
95584W        W63802  30.755   5.715  14.325
95585W        W63803  15.535   2.707   1.571
95586W        W63804  15.793  20.099  12.733
95587W        W63805   0.939  40.249   4.668
95588W        W63806  25.120  27.162   3.242
95589W        W63807  39.074   9.302  14.018
95590W        W63808  20.137  35.634   1.313
95591W        W63809   2.469  23.594   3.839
95592W        W63810  26.034   6.420   3.120
95593W        W63811  25.545  36.132   2.209
95594W        W63812  32.651  21.644   0.250
95595W        W63813  18.713  42.583   0.094
95596W        W63814  38.546  12.698   1.177
95597W        W63815   0.191  16.237   1.392
95598W        W63816  29.449  30.875   3.805
95599W        W63817  38.053  21.342  12.575
95600W        W63818  13.172  40.949   4.595
95601W        W63819   1.089  32.479   0.694
95602W        W63820  38.429   4.832   2.758
95603W        W63821  16.818  36.772   1.294
95604W        W63822  14.432   0.421   4.889
95605W        W63823   1.805  26.838  13.007
95606W        W63824  31.562  34.646  11.951
95607W        W63825  32.863  31.626  14.284
95608W        W63826   7.934  19.620  11.824
95609W        W63827  34.736  23.552  12.666
95610W        W63828  39.342  37.311  14.638
95611W        W63829   1.239  28.221   3.912
95612W        W63830   1.576  42.335  11.461
95613W        W63831  15.234   8.215   4.591
95614W        W63832   1.977   6.823   0.651
95615W        W63833   1.290  21.467  12.212
95616W        W63834  31.345   2.766   0.569
95617W        W63835  37.323  29.017  13.989
95618W        W63836   1.408  15.703  14.177
95619W        W63837  33.482  26.611  11.485
95620W        W63838  19.779   0.933   3.628
95621W        W63839  39.876  23.211   4.240
95622W        W63840   2.051  33.937   4.272
95623W        W63841  42.298   0.411  10.631
95624W        W63842  42.889  24.036   0.018
95625W        W63843  36.710  26.718   2.280
95626W        W63844   3.493  17.114   4.584
95627W        W63845  15.809   9.906  10.832
95628W        W63846  21.163  23.837   1.294
95629W        W63847  43.189  33.398  14.461
95630W        W63848   8.808  11.756  10.811
95631W        W63849   0.900  35.454  13.096
95632W        W63850  27.126  23.227   0.464
95633W        W63851  29.608  39.425   1.049
95634W        W63852  42.287   6.194   0.820
95635W        W63853  10.836   2.804  14.382
95636W        W63854  43.455   1.239   0.010
95637W        W63855  31.979  43.449  11.725
95638W        W63856  29.763  31.157  11.068
95639W        W63857  36.642  38.450   3.221
95640W        W63858  33.556   3.744  13.454
95641W        W63859  39.970  28.664  12.482
95642W        W63860  13.061  25.124  10.657
95643W        W63861  17.349  39.954  11.008
95644W        W63862  32.986  39.592  11.131
95645W        W63863   5.254  18.212   3.575
95646W        W63864   4.206  21.581  12.037
95647W        W63865  17.614  14.262   3.784
95648W        W63866  32.633   8.445   2.714
95649W        W63867  23.679  35.000  11.174
95650W        W63868  43.573  15.320   2.236
95651W        W63869  40.795  32.392  11.100
95652W        W63870   9.022   1.217   2.717
95653W        W63871  33.663  32.642  11.533
95654W        W63872   1.859  16.848  12.062
95655W        W63873  11.661  32.109   0.831
95656W        W63874  41.940  13.143   1.443
95657W        W63875  35.484  31.369   2.957
95658W        W63876  32.371   0.503  12.075
95659W        W63877   2.039   5.035   0.886
95660W        W63878  36.447  11.636  12.791
95661W        W63879  34.344  13.643  13.848
95662W        W63880  40.828  40.375   3.374
95663W        W63881   4.112  11.813  13.578
95664W        W63882  22.336  29.059  13.028
95665W        W63883  22.161  34.659  14.898
95666W        W63884   8.991  17.301   0.388
95667W        W63885  10.213  30.151  12.521
95668W        W63886  24.144  43.886   3.288
95669W        W63887   4.380  23.913  14.335
95670W        W63888   9.879  36.603  11.692
95671W        W63889  12.679  44.949  14.186
95672W        W63890   6.191   4.407  12.024
95673W        W63891  22.733  19.154   3.162
95674W        W63892  32.836  17.286   3.850
95675W        W63893  14.675  43.847   2.051
95676W        W63894  25.479  32.869  12.988
95677W        W63895  14.735   3.790   3.767
95678W        W63896  20.257  26.629   1.737
95679W        W63897  10.805   1.552  11.115
95680W        W63898  21.719   9.825   2.819
95681W        W63899  17.589  16.306  12.429
95682W        W63900  34.822  42.238   0.232
95683W        W63901  13.110  15.191   3.678
95684W        W63902   5.058   5.948   0.661
95685W        W63903  40.760  41.858  11.288
95686W        W63904   1.978  25.053  13.907
95687W        W63905   7.880  29.236  12.012
95688W        W63906  39.488  44.477  13.425
95689W        W63907   6.745   4.370  13.852
95690W        W63908   5.435  21.993  13.458
95691W        W63909  21.670   1.377   2.346
95692W        W63910  32.053  34.694  12.853
95693W        W63911  18.039   0.252   0.841
95694W        W63912  24.631  14.835   1.218
95695W        W63913  13.825  43.267   9.827
95696W        W63914  28.202  29.392   4.625
95697W        W63915  22.445   2.313  10.284
95698W        W63916  12.067   0.477  10.633
95699W        W63917  12.869  19.087  13.465
95700W        W63918  25.497   1.864   0.251
95701W        W63919  14.780  14.164  12.311
95702W        W63920  33.988  27.243   2.357
95703W        W63921  27.730  29.141   2.270
95704W        W63922   1.406   9.834   4.585
95705W        W63923  35.207  12.159  12.921
95706W        W63924  28.203  41.815   1.868
95707W        W63925  29.989  36.227   1.619
95708W        W63926  36.340   4.330  13.069
95709W        W63927  12.555   4.232  11.687
95710W        W63928  21.518   8.878  12.740
95711W        W63929   6.610  20.214   2.402
95712W        W63930  35.297  34.183  11.222
95713W        W63931   9.423   3.878  11.063
95714W        W63932  16.610  25.643  11.986
95715W        W63933  31.494   7.677   0.064
95716W        W63934  41.325  28.467   3.897
95717W        W63935  32.608  24.321  12.112
95718W        W63936  35.239   9.038   3.753
95719W        W63937  11.330  25.538  11.145
95720W        W63938  30.049  12.110   1.271
95721W        W63939  25.974  17.176   0.866
95722W        W63940  22.729   8.346   1.800
95723W        W63941  19.068  19.517   4.488
95724W        W63942  35.413  20.644   2.693
95725W        W63943  11.639  12.562   2.027
95726W        W63944  43.507  43.258   0.014
95727W        W63945  18.557  20.494  11.522
95728W        W63946  21.980  13.223  12.405
95729W        W63947  28.434  17.994  14.481
95730W        W63948   8.339  13.056   0.567
95731W        W63949   7.237  20.572   0.952
95732W        W63950   9.296   2.842   2.414
95733W        W63951  43.685   8.849   0.178
95734W        W63952  18.048  24.430  12.029
95735W        W63953   8.678  12.680  14.729
95736W        W63954  31.724  18.640  12.594
95737W        W63955  21.117   5.160   1.353
95738W        W63956   3.241  29.161   2.256
95739W        W63957  18.781  29.656   1.386
95740W        W63958  27.393  40.500  12.060
95741W        W63959  25.795   8.199  10.554
95742W        W63960  33.856  29.409  11.084
95743W        W63961   5.992  11.371  14.712
95744W        W63962  37.870  26.949   0.225
95745W        W63963  34.850  14.850  12.375
95746W        W63964   0.504   3.161  13.827
95747W        W63965  23.543  41.253  11.051
95748W        W63966  18.148  44.939  13.350
95749W        W63967  21.185   1.125   5.120
95750W        W63968  37.359  17.689   4.675
95751W        W63969  42.487  22.651  14.361
95752W        W63970  44.911  15.963  13.863
95753W        W63971  38.794  17.132  11.655
95754W        W63972  36.395  24.475   3.750
95755W        W63973  23.684  21.429  11.583
95756W        W63974  29.715  30.331   0.304
95757W        W63975  17.171   3.950  13.787
95758W        W63976  40.784  37.375   3.344
95759W        W63977  10.606  32.012   4.822
95760W        W63978  31.391   9.862   2.864
95761W        W63979  16.223  24.613  13.521
95762W        W63980  28.991   0.212  13.485
95763W        W63981   3.043  25.205   4.735
95764W        W63982   6.857  38.942  13.484
95765W        W63983  20.122  30.121   3.149
95766W        W63984   4.236   0.885  11.882
95767W        W63985  34.070  36.378   3.324
95768W        W63986  35.087  11.610   4.546
95769W        W63987  19.004  25.988   3.150
95770W        W63988   4.637   7.615   2.289
95771W        W63989   8.406  40.048   1.407
95772W        W63990   9.243  23.347  11.078
95773W        W63991  33.352  26.144   1.784
95774W        W63992  29.561  39.112  13.451
95775W        W63993  33.556  43.226  11.392
95776W        W63994   6.579  29.399  10.747
95777W        W63995  28.943  32.647  12.072
95778W        W63996  22.423  44.711   0.275
95779W        W63997  40.928  29.095   3.478
95780W        W63998   0.804  23.706   4.435
95781W        W63999  39.299   6.298   4.637
95782W        W64000  22.073   6.272  13.877
95783W        W64001  38.246  21.094   0.373
95784W        W64002   7.888   7.725   0.325
95785W        W64003  27.596  21.515  11.741
95786W        W64004   7.387  18.057   1.301
95787W        W64005  40.728  23.756   1.649
95788W        W64006  12.252  25.496   1.306
95789W        W64007  32.893  42.468  12.201
95790W        W64008  25.626   7.675  12.439
95791W        W64009   5.862   5.119  12.570
95792W        W64010   5.944  22.780   2.611
95793W        W64011  16.197  21.116  11.605
95794W        W64012  32.705  11.305  10.908
95795W        W64013  38.820  10.261  10.257
95796W        W64014  32.842   2.567   2.491
95797W        W64015   7.261  28.263  12.958
95798W        W64016  37.401   2.836  12.484
95799W        W64017  25.996  37.436   3.684
95800W        W64018  18.921  22.903   0.456
95801W        W64019  16.318  42.005   1.933
95802W        W64020  31.981  26.966   4.481
95803W        W64021  39.690   2.070   3.317
95804W        W64022  25.620  31.111   0.506
95805W        W64023   6.384  39.515  10.826
95806W        W64024  21.575   8.006  13.888
95807W        W64025  39.695  12.383  13.321
95808W        W64026  16.412  14.991  11.872
95809W        W64027  40.065  10.103  11.631
95810W        W64028  42.740  31.796   2.357
95811W        W64029  22.703  18.593   2.775
95812W        W64030  23.689  35.797   2.667
95813W        W64031   8.620  25.752   2.245
95814W        W64032  36.369  32.835  12.456
95815W        W64033  19.512  16.076  11.551
95816W        W64034  20.845  22.216   3.715
95817W        W64035  17.070  11.852   5.078
95818W        W64036  33.515   1.306   0.311
95819W        W64037  14.380  22.137   3.318
95820W        W64038   1.656  36.503   3.755
95821W        W64039  23.482  21.316  11.103
95822W        W64040  19.142   9.311  13.459
95823W        W64041  30.188  20.178  12.490
95824W        W64042  42.351  42.478   2.250
95825W        W64043  43.400  39.818  14.224
95826W        W64044  40.399   6.254   3.001
95827W        W64045  40.488  36.408  14.495
95828W        W64046  37.255  15.807   0.944
95829W        W64047  20.049  41.106  12.009
95830W        W64048  31.384   1.724   0.002
95831W        W64049   5.798  30.224   0.230
95832W        W64050  44.419   0.705  10.649
95833W        W64051  39.437   0.928   1.697
95834W        W64052  18.851  16.860   3.270
95835W        W64053  22.989  36.039   4.299
95836W        W64054  30.531   4.004  14.856
95837W        W64055  19.240  38.281  14.972
95838W        W64056  40.524  17.672   3.732
95839W        W64057  19.695  31.820   4.438
95840W        W64058   8.651  28.112   1.711
95841W        W64059  20.681  26.466   2.674
95842W        W64060  44.881  21.245   4.052
95843W        W64061  21.991  33.832  11.922
95844W        W64062   4.332  32.128   2.168
95845W        W64063  37.377  22.095   4.624
95846W        W64064   8.211  39.149  10.397
95847W        W64065  42.347  25.017   2.235
95848W        W64066  24.949  24.267   1.710
95849W        W64067  32.978  20.587  11.173
95850W        W64068   0.508  44.888  13.295
95851W        W64069  40.144  23.642  12.687
95852W        W64070   0.472  11.325  13.522
95853W        W64071  39.194  30.893  13.850
95854W        W64072  44.743  33.531  14.373
95855W        W64073  31.416  12.647   1.983
95856W        W64074  29.036  28.177   0.912
95857W        W64075  42.049  34.081   0.203
95858W        W64076  38.826  18.381  13.961
95859W        W64077  19.054   5.674   3.647
95860W        W64078  36.059  38.472  13.133
95861W        W64079   2.009   3.055   0.406
95862W        W64080  43.124  30.970   2.141
95863W        W64081   7.103  18.198  14.503
95864W        W64082  18.151  33.097   1.173
95865W        W64083   1.652  25.700   4.557
95866W        W64084   8.000  41.960   1.962
95867W        W64085  29.339  12.144  11.615
95868W        W64086  15.052  36.874  13.480
95869W        W64087  37.678  36.076  14.124
95870W        W64088   9.618  37.415  13.031
95871W        W64089  29.542  11.945   1.339
95872W        W64090  43.574  26.049   2.735
95873W        W64091   7.852  22.942  13.058
95874W        W64092  42.208  24.464  11.984
95875W        W64093  42.849  10.682   0.543
95876W        W64094   1.191   9.638  14.815
95877W        W64095   2.003   4.278   4.246
95878W        W64096  14.629  11.632   3.731
95879W        W64097  19.835  12.577   2.464
95880W        W64098  11.577  16.682  10.592
95881W        W64099  25.485  30.056  11.584
95882W        W64100   2.855  12.380   2.202
95883W        W64101  22.180  34.150   2.699
95884W        W64102  25.038   0.475   4.320
95885W        W64103  23.523  31.952   4.322
95886W        W64104  43.280   2.703   2.685
95887W        W64105  30.597  19.728  12.314
95888W        W64106  44.297   3.823   3.648
95889W        W64107  23.582  15.159  11.611
95890W        W64108  23.702  33.010   3.643
95891W        W64109   5.703   7.613   3.668
95892W        W64110  44.475   6.667   0.348
95893W        W64111   2.711   1.358  12.151
95894W        W64112   6.702  39.040   0.843
95895W        W64113   5.277  24.143  14.577
95896W        W64114  42.352  16.193  12.646
95897W        W64115  38.783  31.407   2.334
95898W        W64116   5.836  22.272   2.740
95899W        W64117   4.239  13.625   2.925
95900W        W64118  12.695  34.670  11.509
95901W        W64119  14.831  34.589  11.643
95902W        W64120  41.309  26.216  11.913
95903W        W64121  19.238   9.106  13.919
95904W        W64122  17.819   0.687   4.576
95905W        W64123  36.353  16.872   0.874
95906W        W64124  21.732  13.613   1.891
95907W        W64125  15.350  18.449  12.951
95908W        W64126  17.096   0.068   1.594
95909W        W64127  30.956   1.030   2.905
95910W        W64128   6.343  39.823  11.240
95911W        W64129   8.392  18.183   9.758
95912W        W64130  31.526  25.620  13.530
95913W        W64131   8.899  13.375  12.530
95914W        W64132  42.950  19.080   1.502
95915W        W64133  30.905  35.604   2.299
95916W        W64134  30.156  14.673  12.008
95917W        W64135  17.343   5.324  10.634
95918W        W64136  24.235  29.376  10.967
95919W        W64137  15.323  15.561   0.472
95920W        W64138  41.274   4.484  13.062
95921W        W64139  29.310  29.063  14.050
95922W        W64140  14.787   9.324  13.053
95923W        W64141  13.217  27.493   4.639
95924W        W64142  19.197  34.858   0.715
95925W        W64143  35.925   7.778   4.240
95926W        W64144   9.582  36.907  11.154
95927W        W64145  17.666  18.334  13.069
95928W        W64146   4.768  27.786  11.415
95929W        W64147  11.182  17.255  14.877
95930W        W64148   3.740  24.013  11.666
95931W        W64149  19.473  22.992  12.400
95932W        W64150  26.513  23.569  14.221
95933W        W64151  35.541  36.990  10.379
95934W        W64152  37.890  36.441  14.452
95935W        W64153   3.416  20.979   2.861
95936W        W64154  44.958  43.008  14.956
95937W        W64155  36.448  32.555   1.285
95938W        W64156   0.036  39.138   1.256
95939W        W64157  34.872  33.691   4.838
95940W        W64158   1.442  18.641  11.310
95941W        W64159  34.518   5.594   1.402
95942W        W64160  18.718  10.678   2.596
95943W        W64161  18.288  20.071  12.441
95944W        W64162   7.445  11.552   4.071
95945W        W64163  33.019   9.942  14.283
95946W        W64164  17.289  15.030  13.380
95947W        W64165  19.266  35.367  12.500
95948W        W64166   6.936   0.804  12.012
95949W        W64167   8.274  18.152   4.480
95950W        W64168  27.036  44.608   2.404
95951W        W64169   3.294  43.731   3.002
95952W        W64170   7.724  27.744   4.970
95953W        W64171   6.327  24.519  14.034
95954W        W64172   9.236  30.317   0.791
95955W        W64173   1.786  32.352   1.099
95956W        W64174  20.168  30.062  14.851
95957W        W64175   6.178  24.579   3.638
95958W        W64176  41.271  29.042   0.794
95959W        W64177  35.310   2.011   1.468
95960W        W64178  40.908  28.723   1.632
95961W        W64179  15.618  11.391   2.692
95962W        W64180  28.276   0.324   3.899
95963W        W64181  41.857  36.029  11.218
95964W        W64182  30.133  39.570   3.685
95965W        W64183  23.048  36.442   3.240
95966W        W64184  27.754  32.210   0.011
95967W        W64185  13.380  25.135  13.625
95968W        W64186  27.510  13.375  11.286
95969W        W64187  35.548  36.940   1.015
95970W        W64188   7.052  30.513  13.837
95971W        W64189  41.108  16.870  11.536
95972W        W64190   5.783  39.653  10.175
95973W        W64191  12.435  38.893   3.729
95974W        W64192   7.930  21.020  13.882
95975W        W64193  41.902  41.538   4.652
95976W        W64194  44.917  44.058  12.286
95977W        W64195  41.405  29.519  13.073
95978W        W64196   0.524  16.724  10.984
95979W        W64197  39.973   4.238   0.978
95980W        W64198  37.989   5.745  12.614
95981W        W64199  40.106  39.527  13.299
95982W        W64200  16.231  21.750   0.512
95983W        W64201  28.793  12.090  11.992
95984W        W64202   6.308  43.248   2.305
95985W        W64203   8.152  11.850  12.506
95986W        W64204  41.953   8.105  13.877
95987W        W64205  23.462  25.722   3.556
95988W        W64206  24.488   8.918  14.517
95989W        W64207  42.450  26.011   4.400
95990W        W64208   2.873  35.538  13.924
95991W        W64209  39.270  25.147  12.397
95992W        W64210   2.849  42.473  13.961
95993W        W64211  38.124  15.171  11.097
95994W        W64212   4.536  20.799  10.378
95995W        W64213  22.646  37.351   2.418
95996W        W64214  34.878  11.558  12.435
95997W        W64215   5.603  20.127   3.100
95998W        W64216  12.549  21.187  11.218
95999W        W64217  40.428  21.520  10.763
96000W        W64218  20.239  11.228  14.552
96001W        W64219  11.672  24.188  10.752
96002W        W64220  10.576   6.951   4.297
96003W        W64221  31.040  10.566   2.373
96004W        W64222  27.610  16.319  11.247
96005W        W64223  31.903  13.611   0.433
96006W        W64224  26.658  41.447  14.129
96007W        W64225  21.642  21.133   1.923
96008W        W64226  14.897  12.673   0.331
96009W        W64227  11.238  18.272  12.539
96010W        W64228  17.155   7.104  12.452
96011W        W64229   4.798  34.474  12.578
96012W        W64230  33.944  37.571   4.855
96013W        W64231  27.957  29.447   1.919
96014W        W64232  44.268  22.093  12.498
96015W        W64233  17.868  23.968  13.362
96016W        W64234  20.249   1.462   2.396
96017W        W64235  13.754  24.811   3.149
96018W        W64236  22.977   4.501   1.718
96019W        W64237  18.275   4.641  13.393
96020W        W64238  23.725   5.209  13.875
96021W        W64239  17.298  30.085   4.281
96022W        W64240  35.361  27.588   2.618
96023W        W64241   3.814  15.579   0.221
96024W        W64242  38.772  40.869   0.066
96025W        W64243  36.850  42.373   2.281
96026W        W64244  19.836  43.300  13.711
96027W        W64245  28.697  18.198   4.600
96028W        W64246  38.651  23.371   1.323
96029W        W64247  14.300  13.281   0.954
96030W        W64248   7.956  20.086   1.982
96031W        W64249  41.494  32.948   2.349
96032W        W64250  40.532  17.451  12.878
96033W        W64251  33.006   1.566   2.758
96034W        W64252   5.480  17.362  13.979
96035W        W64253  42.496  14.773   0.026
96036W        W64254  36.553   3.020   0.389
96037W        W64255  15.708  17.631  13.016
96038W        W64256  15.147   4.221   0.784
96039W        W64257  32.468  35.369   2.307
96040W        W64258   7.160  12.783  14.535
96041W        W64259  35.044  40.516   4.608
96042W        W64260  25.041  11.768  12.085
96043W        W64261  32.228   7.960   1.101
96044W        W64262  28.604  31.968   3.696
96045W        W64263  38.800   5.263   2.717
96046W        W64264   0.364  42.129  14.090
96047W        W64265  24.942  26.866  12.005
96048W        W64266  16.459  18.500  10.407
96049W        W64267  38.452   3.908  13.801
96050W        W64268  38.254   7.874  13.123
96051W        W64269  14.402   6.510  13.795
96052W        W64270  10.609  25.551   2.358
96053W        W64271  23.549  31.021  12.933
96054W        W64272   4.483  15.418   1.954
96055W        W64273  28.041  36.492   1.276
96056W        W64274  22.207  43.339   2.750
96057W        W64275  43.582  14.627   3.195
96058W        W64276  26.626  21.403   2.701
96059W        W64277   7.421  35.868  12.101
96060W        W64278  26.888  23.123   2.797
96061W        W64279  16.314  30.208  13.316
96062W        W64280   4.880   6.220  14.426
96063W        W64281  42.992  32.053  14.364
96064W        W64282  37.465  39.967  12.128
96065W        W64283  17.436  24.674  14.413
96066W        W64284   4.323  23.797   4.265
96067W        W64285  23.039  22.496  12.628
96068W        W64286  44.355  26.223  11.284
96069W        W64287  32.807  33.970  12.123
96070W        W64288  24.552  34.329  14.341
96071W        W64289   1.526  36.472  14.910
96072W        W64290  13.213  17.701  13.578
96073W        W64291  42.330  30.888   0.335
96074W        W64292   3.844  35.313  10.562
96075W        W64293  14.988  32.078  13.052
96076W        W64294  25.529  30.501  11.903
96077W        W64295  28.452  14.878  10.957
96078W        W64296  32.624  13.220  12.858
96079W        W64297  30.613  12.199  10.496
96080W        W64298  12.920  37.563  11.382
96081W        W64299  44.013   9.699   2.198
96082W        W64300   3.606  39.669  11.660
96083W        W64301  42.937  40.510  12.082
96084W        W64302  42.872  13.810   4.025
96085W        W64303   7.293  31.511   2.158
96086W        W64304   9.616   0.858   0.627
96087W        W64305  11.776  11.807  13.900
96088W        W64306  43.931  28.699   5.112
96089W        W64307   5.495  24.931   0.013
96090W        W64308  44.306  42.802  11.719
96091W        W64309  42.202  11.685   3.193
96092W        W64310  11.507  16.706   2.159
96093W        W64311  34.574  40.917  11.959
96094W        W64312  16.605  12.582  12.473
96095W        W64313  33.047  13.463  10.618
96096W        W64314  34.817  32.203  14.373
96097W        W64315  15.635   6.082   4.498
96098W        W64316  12.100  15.682   2.816
96099W        W64317  44.900  22.630  12.929
96100W        W64318  43.890  42.994   1.149
96101W        W64319  19.404  17.605   2.934
96102W        W64320   7.787   0.820   3.252
96103W        W64321  29.438  13.524  14.254
96104W        W64322  37.972  23.957   1.381
96105W        W64323   7.318  25.320   4.992
96106W        W64324  12.564   7.689  11.238
96107W        W64325  38.447   6.492  12.531
96108W        W64326  41.838  21.518   3.938
96109W        W64327  36.579   0.199  12.917
96110W        W64328   1.404  21.848   1.395
96111W        W64329  16.011  40.902   4.012
96112W        W64330  23.841   9.009  13.265
96113W        W64331  11.289  14.172   3.147
96114W        W64332  28.478  32.383   2.555
96115W        W64333   5.255  38.790   0.819
96116W        W64334   4.980  27.028   1.781
96117W        W64335  43.901   1.821   0.579
96118W        W64336  41.104   2.602   3.602
96119W        W64337  14.266  35.051   0.881
96120W        W64338   9.729  34.455   1.669
96121W        W64339  22.340   9.205  14.941
96122W        W64340  12.388  34.760  12.471
96123W        W64341   6.765   0.708   2.304
96124W        W64342   5.773   6.821  14.211
96125W        W64343  32.593  27.729   1.963
96126W        W64344  40.951  36.861  10.744
96127W        W64345  34.631   6.838   0.482
96128W        W64346  30.892  15.349  10.584
96129W        W64347  21.533  30.015   3.294
96130W        W64348  36.485   7.912   1.305
96131W        W64349  32.170  28.797   5.389
96132W        W64350  27.526   2.456   1.426
96133W        W64351  25.657  20.507  14.521
96134W        W64352   4.145  32.905  13.421
96135W        W64353  13.842  36.132   4.290
96136W        W64354  16.206  27.287  13.409
96137W        W64355  23.463  32.155  14.018
96138W        W64356   9.361   9.622  14.172
96139W        W64357   0.852  39.451  11.693
96140W        W64358   5.614  44.951   2.267
96141W        W64359  40.070  28.348   4.743
96142W        W64360  23.579  43.962   0.920
96143W        W64361  41.265   1.262   2.143
96144W        W64362   7.043  30.453  11.980
96145W        W64363  41.051  32.132  10.707
96146W        W64364   4.460  33.482  10.236
96147W        W64365  42.051  42.495   4.596
96148W        W64366  28.896   6.778   1.239
96149W        W64367  43.945  42.716  13.425
96150W        W64368  28.655  14.516  12.834
96151W        W64369  40.246  27.439   4.290
96152W        W64370  38.437  42.493  14.757
96153W        W64371  33.159   7.686  14.748
96154W        W64372  25.731  25.966   4.790
96155W        W64373  31.920   3.298  11.640
96156W        W64374  37.052  31.408  13.569
96157W        W64375  33.227  35.698   4.087
96158W        W64376  40.062  33.965   1.232
96159W        W64377  39.351   7.692   0.717
96160W        W64378  14.715   4.917  13.491
96161W        W64379  31.473  23.969   0.907
96162W        W64380  43.975  41.826   0.737
96163W        W64381  10.400  13.364  11.090
96164W        W64382   2.953  19.576  14.962
96165W        W64383  36.310  22.092  12.471
96166W        W64384   9.379  37.019   3.096
96167W        W64385  44.148   7.317  11.688
96168W        W64386  28.510  29.383  12.468
96169W        W64387   2.193   2.272   4.743
96170W        W64388   4.808  38.821   4.686
96171W        W64389  44.173   2.346   2.341
96172W        W64390  29.021  31.499   1.418
96173W        W64391   9.062   0.530   1.658
96174W        W64392  31.886  30.548  14.947
96175W        W64393  26.569  16.235  13.590
96176W        W64394   4.665  44.912   2.261
96177W        W64395   9.204   6.379   2.330
96178W        W64396  12.072   6.838  14.776
96179W        W64397  10.303  20.591  13.941
96180W        W64398   7.646  18.118  14.526
96181W        W64399  23.733  41.227   3.825
96182W        W64400  35.022  38.068  13.465
96183W        W64401   0.348  37.420   2.332
96184W        W64402  42.565  13.372   4.697
96185W        W64403   9.643  23.131  11.884
96186W        W64404  19.318   9.790  14.473
96187W        W64405  12.225  28.246   1.686
96188W        W64406  44.858   0.874   0.932
96189W        W64407  20.749  13.851   4.083
96190W        W64408  19.384  43.346  13.422
96191W        W64409   4.292   2.603   3.278
96192W        W64410  43.352  38.028   2.220
96193W        W64411  38.920   2.857   2.411
96194W        W64412  35.471   3.497  14.286
96195W        W64413  26.507  13.354  12.343
96196W        W64414  23.347   3.698  11.908
96197W        W64415  10.874  12.173   2.485
96198W        W64416   3.127  30.776   2.517
96199W        W64417  14.224  29.432  12.060
96200W        W64418  31.020  22.906  10.939
96201W        W64419  18.196  33.696  11.583
96202W        W64420  39.536  18.126   0.304
96203W        W64421  25.518  17.310  13.564
96204W        W64422  42.306  13.497   3.467
96205W        W64423  31.365   7.273  11.199
96206W        W64424  42.190  27.808  11.086
96207W        W64425   0.892   9.728   1.995
96208W        W64426  30.903   9.921   4.535
96209W        W64427  20.147  28.317  10.693
96210W        W64428   5.146  15.819   0.211
96211W        W64429  13.391  43.609   4.009
96212W        W64430  35.224  27.740   1.740
96213W        W64431  18.349  15.756  10.678
96214W        W64432  28.718   9.592  12.610
96215W        W64433   4.913   2.512  13.881
96216W        W64434  24.647  27.440  13.982
96217W        W64435  19.819  23.180  12.030
96218W        W64436  16.499  22.740  14.818
96219W        W64437   9.766  14.273   0.782
96220W        W64438  12.695  42.489   0.999
96221W        W64439  11.140  13.865  14.627
96222W        W64440  21.218   8.669  13.436
96223W        W64441  31.366  29.410  10.761
96224W        W64442  32.478  31.969   3.313
96225W        W64443  44.858  10.972   1.139
96226W        W64444   8.985  40.492   1.552
96227W        W64445  32.071  23.467  13.424
96228W        W64446  16.022   5.681  11.568
96229W        W64447  39.039   6.739   0.264
96230W        W64448  19.281  42.654   1.832
96231W        W64449  39.794  29.993  12.558
96232W        W64450  22.012   6.786  13.859
96233W        W64451  10.741   9.865  11.397
96234W        W64452  14.266  17.714  14.759
96235W        W64453   5.746  39.508   2.954
96236W        W64454  15.423  29.533  10.699
96237W        W64455  31.358  17.114   0.011
96238W        W64456   0.798  10.526   1.537
96239W        W64457   2.433  42.876  11.662
96240W        W64458  20.519  34.483   4.052
96241W        W64459  33.969  23.490  12.516
96242W        W64460   7.883   0.854  13.910
96243W        W64461  15.118  20.276  14.831
96244W        W64462  28.085  16.530  13.162
96245W        W64463  23.547  16.066  10.712
96246W        W64464  17.601  27.661   1.328
96247W        W64465  17.523  26.307  13.471
96248W        W64466  11.691  37.502   3.702
96249W        W64467   7.613  34.855   3.189
96250W        W64468  16.846   1.178  11.558
96251W        W64469   4.239  12.975   1.115
96252W        W64470  33.538  40.381  11.945
96253W        W64471   3.240  27.562   4.496
96254W        W64472  34.127  11.844   1.379
96255W        W64473   6.158  44.252   0.874
96256W        W64474   5.451  37.810   0.071
96257W        W64475  10.393   5.171   0.077
96258W        W64476  40.817   9.420  13.570
96259W        W64477  11.127  40.530   4.609
96260W        W64478   1.042   0.432   0.904
96261W        W64479  28.437  28.537  10.433
96262W        W64480  37.977  26.060   2.437
96263W        W64481  37.647   9.352   3.700
96264W        W64482  23.261  35.125   0.777
96265W        W64483  22.941  25.549  10.694
96266W        W64484  21.471  22.531   1.828
96267W        W64485  44.591  20.374   0.734
96268W        W64486   1.691  14.739  12.204
96269W        W64487  13.656  11.122  12.385
96270W        W64488  17.947  34.597   0.329
96271W        W64489  26.606   1.976  14.738
96272W        W64490  27.736   1.086   1.774
96273W        W64491  20.980  10.754  14.912
96274W        W64492  30.115  16.196  11.571
96275W        W64493   6.232   6.236  12.265
96276W        W64494   9.335  18.204   0.572
96277W        W64495  40.453   4.171  11.636
96278W        W64496  41.830  30.036   2.116
96279W        W64497   3.451  42.814  11.176
96280W        W64498  24.540  29.045   0.071
96281W        W64499   8.520  13.201  14.697
96282W        W64500  33.609   6.100   1.279
96283W        W64501  17.641   9.894  12.855
96284W        W64502  37.429   6.137   0.846
96285W        W64503  34.496   0.863  10.663
96286W        W64504  38.906  17.297  12.151
96287W        W64505  18.359  24.437  11.573
96288W        W64506  34.484  30.604  11.492
96289W        W64507  18.833  38.598  14.393
96290W        W64508  11.695  40.301   0.871
96291W        W64509  19.974   1.844   2.673
96292W        W64510  14.699   0.722  11.193
96293W        W64511  32.759  15.917  11.060
96294W        W64512  15.742  10.176  12.936
96295W        W64513  32.989  27.157  11.148
96296W        W64514  44.490   2.840  12.966
96297W        W64515  25.977  30.951  11.471
96298W        W64516   8.808  31.492   2.679
96299W        W64517  41.871   3.341   2.311
96300W        W64518  32.685  38.052   3.363
96301W        W64519  15.326  41.572  10.775
96302W        W64520  29.497   1.655  14.845
96303W        W64521   4.747  17.772   3.131
96304W        W64522   3.530  12.596  11.144
96305W        W64523   3.223  33.076  14.610
96306W        W64524   3.011   7.695   0.815
96307W        W64525   1.612  19.049  10.439
96308W        W64526  27.108   7.359   0.911
96309W        W64527  44.112  22.330   5.129
96310W        W64528  23.123  32.934   2.227
96311W        W64529   0.988  44.373  10.708
96312W        W64530  22.016  11.712  14.398
96313W        W64531   4.945  28.890  14.974
96314W        W64532   7.890  18.781  13.345
96315W        W64533  37.438  16.546  13.464
96316W        W64534  29.186  35.917  14.495
96317W        W64535   8.303   1.057   3.173
96318W        W64536   5.461  33.134  14.934
96319W        W64537  20.184  34.050  14.090
96320W        W64538  40.349  37.219   0.059
96321W        W64539  42.298  43.538   2.136
96322W        W64540  13.919  43.604   1.839
96323W        W64541   3.293  37.756   1.023
96324W        W64542  24.688   6.605  13.021
96325W        W64543   8.762  35.375   2.882
96326W        W64544  19.193  20.874   0.527
96327W        W64545  41.195  29.061  12.904
96328W        W64546  25.219  36.628  11.260
96329W        W64547  34.728  33.113  14.358
96330W        W64548  42.537   6.854   0.537
96331W        W64549  26.453   2.873  14.809
96332W        W64550  39.368  11.240   0.351
96333W        W64551  17.883   6.334  12.941
96334W        W64552   7.254  37.769   4.089
96335W        W64553   0.724   7.755  10.902
96336W        W64554  43.369  15.816   3.296
96337W        W64555  40.208  26.665   2.150
96338W        W64556  35.242  11.661  10.133
96339W        W64557  24.206  42.298   0.744
96340W        W64558  12.499   8.145  13.451
96341W        W64559   9.457  19.587  14.354
96342W        W64560  18.500   2.393  11.867
96343W        W64561  40.486   9.366   1.014
96344W        W64562  39.600  15.616   3.505
96345W        W64563   4.627  34.787   4.967
96346W        W64564  11.105  28.150   0.256
96347W        W64565  30.345  14.379  11.549
96348W        W64566  35.842   0.422  11.556
96349W        W64567  30.647   4.933   1.735
96350W        W64568  23.901  22.621  13.303
96351W        W64569  29.953   0.345   2.245
96352W        W64570  16.760  25.875   2.555
96353W        W64571  41.572  22.799   1.667
96354W        W64572  11.071  24.568   0.361
96355W        W64573  24.866   1.592  11.174
96356W        W64574  43.764  18.228   0.439
96357W        W64575   7.799  18.618   0.381
96358W        W64576   0.857   7.763  11.875
96359W        W64577  30.569  26.636   4.559
96360W        W64578  25.021   6.445   0.637
96361W        W64579  44.490  17.795  13.490
96362W        W64580   6.309  11.377  13.642
96363W        W64581  25.212  20.570  14.228
96364W        W64582  17.878   5.335  10.680
96365W        W64583  26.010  11.603  13.059
96366W        W64584  18.524  28.993   0.180
96367W        W64585  13.526  36.443  11.982
96368W        W64586  29.843   7.433  11.079
96369W        W64587  30.318   1.378   2.340
96370W        W64588  16.007  17.217  14.772
96371W        W64589   2.040  13.562   3.361
96372W        W64590  31.304  34.605   3.846
96373W        W64591  24.897  30.591   3.250
96374W        W64592  13.717  23.937   3.753
96375W        W64593  33.339  23.185   1.407
96376W        W64594  26.557  24.024  14.540
96377W        W64595   8.226  33.554  14.352
96378W        W64596  30.569  44.743  14.570
96379W        W64597   7.834  24.168  10.451
96380W        W64598   4.325   1.960   3.276
96381W        W64599  10.236  15.224  14.724
96382W        W64600  17.166   8.349   0.269
96383W        W64601   2.898  11.757   1.455
96384W        W64602  44.373  24.014   3.625
96385W        W64603  29.668  11.966   2.678
96386W        W64604   2.223   3.791  14.864
96387W        W64605  31.046  44.139   1.303
96388W        W64606  31.756  15.417   1.662
96389W        W64607  20.695  31.915  10.297
96390W        W64608  12.102  31.735  13.568
96391W        W64609  36.366  36.438  13.961
96392W        W64610  26.896   6.705  10.685
96393W        W64611   8.965  27.731  11.283
96394W        W64612   0.960  39.923  10.841
96395W        W64613  24.624  37.900  10.741
96396W        W64614  19.356  38.567  14.525
96397W        W64615  29.984  22.187  12.540
96398W        W64616  23.732  31.870  10.385
96399W        W64617  42.338  26.235  11.519
96400W        W64618  17.926   4.388   2.188
96401W        W64619  16.690  35.659   2.963
96402W        W64620  39.125  20.529  14.915
96403W        W64621  32.860  15.400  13.521
96404W        W64622  34.771   9.756   4.534
96405W        W64623  39.813  28.986   2.820
96406W        W64624  42.927  33.936  13.893
96407W        W64625  30.879   5.867  11.103
96408W        W64626  41.817  31.847   4.184
96409W        W64627  26.065   9.621  14.117
96410W        W64628   5.181   0.004   3.613
96411W        W64629  44.949  14.231  11.587
96412W        W64630   7.752  21.266   4.559
96413W        W64631  23.464   5.644   2.850
96414W        W64632  26.157  25.739   4.990
96415W        W64633  34.666  37.418   0.205
96416W        W64634  33.656  30.646   1.398
96417W        W64635   5.887  19.969   0.913
96418W        W64636  36.794   5.158   1.385
96419W        W64637  22.693  30.000  13.833
96420W        W64638  33.525  13.686  10.640
96421W        W64639  35.941  43.508   0.035
96422W        W64640  32.033  37.902  10.885
96423W        W64641   4.816  42.715  13.833
96424W        W64642   4.777  44.704   0.400
96425W        W64643  25.983   5.243   0.529
96426W        W64644  16.039   0.254   2.886
96427W        W64645  11.908   3.159   2.180
96428W        W64646  21.535  26.950   1.406
96429W        W64647  43.412  44.827   4.502
96430W        W64648  30.945  20.012  11.186
96431W        W64649  42.882  16.523  14.270
96432W        W64650  28.953  28.544  12.472
96433W        W64651  35.918  33.214   3.520
96434W        W64652  35.014  19.280   2.813
96435W        W64653  11.608   1.434  10.900
96436W        W64654  20.590  27.169   0.641
96437W        W64655  12.911  15.537   4.680
96438W        W64656   6.352  16.237  12.552
96439W        W64657  44.288  37.622   0.802
96440W        W64658   0.842   2.547  14.978
96441W        W64659  11.988  38.487  13.857
96442W        W64660  31.065  31.468  12.419
96443W        W64661  10.421   5.843   4.988
96444W        W64662   9.350   3.168   2.849
96445W        W64663   5.238  39.303   2.816
96446W        W64664   3.358  43.230  13.049
96447W        W64665  20.998  38.722  12.383
96448W        W64666  23.751  39.948   4.391
96449W        W64667  15.290  40.833  14.829
96450W        W64668  36.027  27.445  13.863
96451W        W64669   1.716  20.416   4.905
96452W        W64670  25.941  32.522   4.704
96453W        W64671  36.093   2.747  10.937
96454W        W64672   5.389  25.169   3.623
96455W        W64673   0.261  43.318   3.241
96456W        W64674  40.383   9.133  13.551
96457W        W64675  16.192  12.019  10.620
96458W        W64676  11.941  21.455  10.966
96459W        W64677  21.425  38.488  12.707
96460W        W64678   9.799  41.864  10.494
96461W        W64679  22.410  34.438  12.928
96462W        W64680   2.959  36.578  13.068
96463W        W64681  33.029   0.906   4.711
96464W        W64682  10.623   4.393   0.886
96465W        W64683  20.621  19.756   2.906
96466W        W64684  17.254   3.033   2.803
96467W        W64685  26.000   2.134   4.398
96468W        W64686  28.666  13.555  10.337
96469W        W64687  42.779  11.633   1.969
96470W        W64688  12.814  31.701  10.588
96471W        W64689   9.984  39.957   0.263
96472W        W64690  42.832   7.655  14.099
96473W        W64691  34.886  38.080  11.644
96474W        W64692   3.012  15.812  14.982
96475W        W64693  29.991  32.457   0.443
96476W        W64694   5.936  12.976   1.418
96477W        W64695  17.669  40.812   4.649
96478W        W64696  24.570  16.666   3.232
96479W        W64697  26.097  34.598  13.254
96480W        W64698  36.844  20.532  13.440
96481W        W64699  34.807  35.110   2.163
96482W        W64700  29.993  10.832   4.186
96483W        W64701  44.551  38.465   5.000
96484W        W64702  14.721   1.834   0.009
96485W        W64703  30.985  15.422   3.848
96486W        W64704  16.076  26.174   0.732
96487W        W64705  10.731   3.133   4.525
96488W        W64706   3.550  40.218   4.590
96489W        W64707  14.681  16.188   4.733
96490W        W64708  43.956  30.015  13.342
96491W        W64709  27.439  18.742   3.625
96492W        W64710   9.846  41.380   3.202
96493W        W64711  11.772   2.269  10.564
96494W        W64712  40.724  15.759  14.729
96495W        W64713  38.088  13.581  14.468
96496W        W64714  28.292   9.606   3.650
96497W        W64715  34.623  17.293   1.408
96498W        W64716  39.432  40.211  10.164
96499W        W64717  39.183  34.147   2.432
96500W        W64718  15.764  39.921  13.062
96501W        W64719  36.944  29.659  10.634
96502W        W64720  19.617  29.666  10.655
96503W        W64721   2.304  30.044   2.380
96504W        W64722  14.905  24.964   3.685
96505W        W64723  31.404  11.646   1.717
96506W        W64724  22.781  18.026  11.879
96507W        W64725  36.863   7.685  11.050
96508W        W64726  19.953  42.885   0.252
96509W        W64727  16.776  15.104  13.395
96510W        W64728   4.353   5.269   3.686
96511W        W64729   1.874  40.264   1.252
96512W        W64730   7.703   5.769  11.287
96513W        W64731  19.753  20.793   4.367
96514W        W64732  16.601   2.694  13.452
96515W        W64733  14.735  24.539   2.271
96516W        W64734  14.127   7.088   3.846
96517W        W64735   3.360  18.181   2.627
96518W        W64736  17.818  19.616  12.846
96519W        W64737  44.887   5.959   1.084
96520W        W64738  14.291  24.091   2.716
96521W        W64739  44.801  42.886  13.026
96522W        W64740  41.542  23.996   1.336
96523W        W64741  37.257   5.910  12.133
96524W        W64742  14.033   2.833   3.215
96525W        W64743  12.415   2.429   3.653
96526W        W64744  30.023  40.481  11.208
96527W        W64745  37.370  12.896  12.430
96528W        W64746  34.550  37.020   0.524
96529W        W64747  27.193  22.703   2.762
96530W        W64748  10.393  39.390   1.951
96531W        W64749   4.150  26.559   1.735
96532W        W64750  31.557  22.793  14.396
96533W        W64751  10.296  32.345   3.587
96534W        W64752   9.180  33.552   0.842
96535W        W64753  13.658   6.101   0.779
96536W        W64754   6.290  41.456   1.682
96537W        W64755  42.062   7.306  11.971
96538W        W64756  36.288   0.835   3.665
96539W        W64757  33.370  43.855  14.373
96540W        W64758  43.245   3.428  14.436
96541W        W64759  30.695  38.495   4.070
96542W        W64760  38.012  41.005  10.564
96543W        W64761  17.537  19.181   0.974
96544W        W64762   3.721  39.271   3.791
96545W        W64763  37.528  12.623  11.951
96546W        W64764  25.129  15.113  14.431
96547W        W64765  18.161  22.686   0.229
96548W        W64766   6.239  28.933  14.376
96549W        W64767  16.517  30.666  13.226
96550W        W64768   8.869  22.551  13.076
96551W        W64769   5.408  31.542  13.948
96552W        W64770  13.712   9.257  13.951
96553W        W64771  31.546   2.314   3.263
96554W        W64772  20.585   2.024  14.949
96555W        W64773   6.602   7.316  13.846
96556W        W64774  14.397  32.357   4.410
96557W        W64775  18.049  18.562   2.997
96558W        W64776  40.767  20.892  11.646
96559W        W64777   6.286  28.613   4.676
96560W        W64778  21.744  41.781   4.361
96561W        W64779  22.681   2.488   3.273
96562W        W64780  10.278  42.049   1.227
96563W        W64781  30.567   7.308   3.889
96564W        W64782   9.968  44.847  10.949
96565W        W64783  25.232  16.519   0.656
96566W        W64784  17.920  11.433  12.134
96567W        W64785  41.958  18.827  11.113
96568W        W64786   8.889  15.607  11.313
96569W        W64787  24.107   5.303   4.668
96570W        W64788  26.202  34.516  14.252
96571W        W64789  18.685   8.002   2.726
96572W        W64790  36.085  29.523   3.139
96573W        W64791   1.788   3.706  12.590
96574W        W64792  21.745  21.796  13.794
96575W        W64793  27.119  19.518  12.820
96576W        W64794   8.172  35.012  11.667
96577W        W64795  44.829  22.558   0.685
96578W        W64796  10.335  40.570  13.449
96579W        W64797  16.613  36.248   3.164
96580W        W64798  35.103  37.032  11.659
96581W        W64799  21.093   2.715   2.792
96582W        W64800  16.415  39.057  13.629
96583W        W64801  27.789  38.267  13.488
96584W        W64802  34.043  31.671  12.071
96585W        W64803  13.879  14.649   3.639
96586W        W64804  22.760  32.489  10.222
96587W        W64805  17.412  30.252   4.789
96588W        W64806   1.672  44.162   0.994
96589W        W64807   8.342  39.520   2.659
96590W        W64808   7.797  11.464   3.516
96591W        W64809  16.709  14.369  11.165
96592W        W64810  29.256  34.032  10.611
96593W        W64811  16.706   6.930  12.694
96594W        W64812   0.856  25.151  12.490
96595W        W64813   9.847  10.346  13.192
96596W        W64814  32.960  33.500  12.017
96597W        W64815  42.580  37.063   0.881
96598W        W64816  38.758   3.943  10.393
96599W        W64817  22.326  11.548  12.460
96600W        W64818  44.915  10.456   1.263
96601W        W64819   2.478   3.158   1.299
96602W        W64820  20.819   9.414   4.160
96603W        W64821  26.720   0.998  13.071
96604W        W64822  23.615  28.568   4.770
96605W        W64823  12.127  25.864  13.874
96606W        W64824  20.204  24.185  10.697
96607W        W64825  36.064   8.912   2.180
96608W        W64826  28.186  37.884   2.316
96609W        W64827  16.286  43.273   1.180
96610W        W64828  21.722  35.881   2.198
96611W        W64829  26.555  24.714  11.884
96612W        W64830  14.597  41.066   1.868
96613W        W64831  38.967  40.058   2.689
96614W        W64832   1.171  24.034   4.621
96615W        W64833  43.941  11.792  13.462
96616W        W64834  11.966  30.394   2.200
96617W        W64835   6.165  30.537   1.684
96618W        W64836  25.717  29.449  14.820
96619W        W64837   3.018  18.554   1.117
96620W        W64838  26.088  23.155   2.523
96621W        W64839  37.944  11.869   0.746
96622W        W64840  21.828  31.068  13.439
96623W        W64841   8.473   0.250   2.302
96624W        W64842  22.537  11.744  12.028
96625W        W64843  24.682   6.821   0.949
96626W        W64844  34.231  37.483   2.627
96627W        W64845  10.352  12.924  13.452
96628W        W64846  44.415  31.177   4.067
96629W        W64847  11.422  32.468   1.921
96630W        W64848  38.485  32.097  14.978
96631W        W64849  20.262   8.783   4.888
96632W        W64850  27.902  14.116  10.699
96633W        W64851  10.905   4.347   0.453
96634W        W64852  18.662  38.040  10.686
96635W        W64853   7.191  42.778  13.936
96636W        W64854  39.418  27.764   4.909
96637W        W64855  42.979  31.013   1.126
96638W        W64856  31.627  21.029   3.697
96639W        W64857  38.217  35.569   4.157
96640W        W64858  23.244  12.366   1.235
96641W        W64859  21.551  22.175   1.276
96642W        W64860  20.696   4.277  14.469
96643W        W64861  18.764   6.105  12.908
96644W        W64862  27.263  17.280  13.889
96645W        W64863  29.595   3.757  11.505
96646W        W64864   7.431   0.063  11.146
96647W        W64865  24.486  20.155   2.100
96648W        W64866  18.619  31.130  12.044
96649W        W64867   0.441   8.772   4.431
96650W        W64868  36.446  34.063  11.936
96651W        W64869   3.256  30.746   0.706
96652W        W64870   3.213  40.969  12.435
96653W        W64871  32.421  42.025  14.140
96654W        W64872   9.290  34.531  14.922
96655W        W64873   4.867  29.024   3.252
96656W        W64874  30.348  16.001  13.903
96657W        W64875  39.561  15.644  10.014
96658W        W64876   5.596   1.140  11.210
96659W        W64877  31.251  44.877  10.610
96660W        W64878  10.977   3.507   4.237
96661W        W64879  25.262   2.830   1.756
96662W        W64880  13.811   4.659   4.023
96663W        W64881  43.398  28.734   3.343
96664W        W64882   5.192  17.425   1.857
96665W        W64883  36.579  21.971  13.987
96666W        W64884   1.652  37.400   1.473
96667W        W64885  23.796   8.175  10.994
96668W        W64886  30.071  22.249  13.441
96669W        W64887   8.736   9.240   0.489
96670W        W64888   7.382  18.653   4.771
96671W        W64889  24.941  23.738   1.379
96672W        W64890  25.141  15.986   3.227
96673W        W64891  23.989  40.734  14.394
96674W        W64892  19.467   1.473   2.822
96675W        W64893   7.653  13.414   1.885
96676W        W64894  41.238  31.608  13.532
96677W        W64895  26.951   1.712  10.380
96678W        W64896  16.636  26.124   4.173
96679W        W64897   4.845  36.432  12.571
96680W        W64898  30.718  31.613   3.732
96681W        W64899  20.121   8.905   0.972
96682W        W64900   9.465  42.497   4.438
96683W        W64901  36.660  37.467   4.120
96684W        W64902  20.710  32.213   3.270
96685W        W64903   8.243  41.410  13.284
96686W        W64904   3.197  27.876   3.057
96687W        W64905   2.920  24.361  13.951
96688W        W64906   6.990  29.983   3.110
96689W        W64907  37.409  32.172  10.299
96690W        W64908  24.113  44.194  11.646
96691W        W64909  29.606  11.371  11.223
96692W        W64910   5.891  38.294   0.468
96693W        W64911  12.581  19.074   4.001
96694W        W64912  14.316   7.809  13.521
96695W        W64913  43.278   5.176  14.145
96696W        W64914  11.580   4.854   4.646
96697W        W64915  23.598  37.100  13.593
96698W        W64916  20.292  24.806  10.517
96699W        W64917  35.720  44.639   0.506
96700W        W64918  12.613  26.122   3.273
96701W        W64919   9.081  25.610   5.041
96702W        W64920   0.482  33.866   4.736
96703W        W64921  39.798  20.716  12.560
96704W        W64922  25.031  42.779  14.130
96705W        W64923  43.464  20.049   3.186
96706W        W64924  26.487  23.956   0.054
96707W        W64925   0.903  13.634   1.956
96708W        W64926  18.771  23.099  13.982
96709W        W64927  23.849  28.569   2.311
96710W        W64928   9.759  37.107  11.595
96711W        W64929  43.640  27.501  14.351
96712W        W64930   6.875  19.449  12.837
96713W        W64931  14.419  13.085   3.723
96714W        W64932  43.316  10.879   2.968
96715W        W64933  35.222   9.292  11.077
96716W        W64934  30.033  23.560   2.578
96717W        W64935  13.353  31.069  10.760
96718W        W64936  34.867  38.976   5.262
96719W        W64937  34.396  18.251  13.521
96720W        W64938  10.716  28.223   1.478
96721W        W64939  33.049   1.260   3.181
96722W        W64940  12.727  21.583  13.625
96723W        W64941  15.098   2.187  14.231
96724W        W64942  28.637  16.104   1.635
96725W        W64943  30.230  34.985   2.233
96726W        W64944  27.355  26.500   1.246
96727W        W64945  37.507  18.059   0.104
96728W        W64946  39.573   7.733  11.498
96729W        W64947  12.421  33.967  12.894
96730W        W64948  34.322   1.852  14.462
96731W        W64949  38.482  23.796   0.737
96732W        W64950  31.477   2.333  10.758
96733W        W64951  41.895  20.596  10.914
96734W        W64952   5.555   9.333   1.025
96735W        W64953  17.351  12.050   0.965
96736W        W64954  44.398  36.513   4.718
96737W        W64955  24.798   4.658  13.081
96738W        W64956  10.277  25.494   2.811
96739W        W64957  10.964  37.340   4.197
96740W        W64958  20.140  15.048  11.027
96741W        W64959   2.407  14.338   1.865
96742W        W64960  19.823   6.142   2.777
96743W        W64961  35.400   3.707  14.837
96744W        W64962   2.427  21.679   0.356
96745W        W64963  38.856  41.756  13.475
96746W        W64964   1.905   2.144   1.020
96747W        W64965  12.277   7.168  12.975
96748W        W64966   0.466  24.512  10.649
96749W        W64967  22.649  41.965   1.750
96750W        W64968  37.345   1.233  14.862
96751W        W64969  34.143  22.543   3.130
96752W        W64970   9.742  24.750  13.407
96753W        W64971  41.719  44.457  12.423
96754W        W64972  21.477   6.726   1.414
96755W        W64973   2.913  40.573  14.156
96756W        W64974  16.200  34.629  12.017
96757W        W64975   5.397  34.533   3.317
96758W        W64976  21.180  24.779  14.510
96759W        W64977   2.776  33.147  14.894
96760W        W64978  17.758  35.092  11.641
96761W        W64979  17.447  11.189  11.518
96762W        W64980  23.493  24.785   1.193
96763W        W64981   7.339  15.869  10.784
96764W        W64982   5.701  39.401  13.136
96765W        W64983  27.877  15.625  11.736
96766W        W64984  23.234  39.328   0.341
96767W        W64985  27.135  27.788   0.333
96768W        W64986  43.376  18.766  12.647
96769W        W64987  24.619   4.487  12.015
96770W        W64988   3.162  27.242  14.491
96771W        W64989  28.683  40.253  13.837
96772W        W64990  41.470   2.398  10.119
96773W        W64991  26.362  33.463   2.786
96774W        W64992  27.170  16.085  12.818
96775W        W64993  39.019  27.127  14.320
96776W        W64994  38.049  16.146   1.688
96777W        W64995  36.845  30.457  11.166
96778W        W64996  23.303  22.835  11.606
96779W        W64997   6.114  15.771   1.461
96780W        W64998   4.655   1.683  14.243
96781W        W64999  36.587  18.337   2.499
96782W        W65000  35.934  23.307  11.448
96783W        W65001   7.890   9.298  12.891
96784W        W65002  23.727  35.683  10.671
96785W        W65003  34.495  20.989   0.923
96786W        W65004  38.416  13.186   0.962
96787W        W65005  16.671  16.297   3.204
96788W        W65006   9.397  40.394  13.121
96789W        W65007   3.255  30.965   3.608
96790W        W65008   6.444  25.862   1.367
96791W        W65009  42.241   0.551   3.191
96792W        W65010  24.028  30.844   4.191
96793W        W65011  44.561   9.579  10.250
96794W        W65012  41.511  12.822   4.831
96795W        W65013  36.412  15.051   4.474
96796W        W65014  40.043   6.741  13.013
96797W        W65015   6.043  29.887   2.879
96798W        W65016  44.092  30.611   1.008
96799W        W65017  44.642  12.182  13.084
96800W        W65018  24.032   9.733   2.340
96801W        W65019  28.868   1.918  12.453
96802W        W65020  42.400  26.339  10.160
96803W        W65021   8.304  11.288   1.341
96804W        W65022  22.476  41.756  13.349
96805W        W65023  33.151  41.304   0.993
96806W        W65024  37.572   9.170   4.714
96807W        W65025  26.693  40.745   3.374
96808W        W65026  18.639  41.753   1.483
96809W        W65027  24.652  30.490   1.207
96810W        W65028  18.952  23.892  11.945
96811W        W65029   5.838  35.326  13.109
96812W        W65030   5.772  40.286  13.338
96813W        W65031   0.750  28.723   2.107
96814W        W65032  11.165  40.931   1.864
96815W        W65033  36.800  13.197  11.990
96816W        W65034   3.454  11.142  13.480
96817W        W65035  22.692  12.845   0.474
96818W        W65036  24.161  37.872  11.655
96819W        W65037  41.997  39.624   0.950
96820W        W65038  10.675   5.632   4.538
96821W        W65039  16.650   9.892   4.245
96822W        W65040  44.891   2.540  11.623
96823W        W65041  11.578  14.501  12.838
96824W        W65042  24.515  38.523  11.988
96825W        W65043  27.303  29.585  11.670
96826W        W65044   8.060  27.112  11.080
96827W        W65045  39.929  39.827   4.802
96828W        W65046  11.086  20.590   2.709
96829W        W65047  30.738  34.712  10.764
96830W        W65048   9.356  44.719   4.216
96831W        W65049  12.609  32.899  12.490
96832W        W65050   4.509  33.395  14.589
96833W        W65051  25.741   2.747   1.938
96834W        W65052  11.259  20.539  14.914
96835W        W65053  11.815   7.418  13.010
96836W        W65054  36.738  44.220   3.238
96837W        W65055   2.515   1.063  12.842
96838W        W65056  30.135  22.554  12.950
96839W        W65057   3.200  15.046   4.496
96840W        W65058  43.519   4.774  13.932
96841W        W65059  39.075   1.195   2.782
96842W        W65060   3.460   5.240   0.895
96843W        W65061  35.844  19.713  11.579
96844W        W65062  34.911  14.683   4.568
96845W        W65063  22.920  15.769   4.673
96846W        W65064   3.273  24.621  11.102
96847W        W65065  29.567  38.853   3.684
96848W        W65066  35.244  22.582  13.954
96849W        W65067  31.301  39.785   3.515
96850W        W65068  37.316  29.292   5.239
96851W        W65069  21.641  41.928  11.960
96852W        W65070   1.990  13.843  11.786
96853W        W65071  20.686   5.120   0.395
96854W        W65072  36.765   6.371   5.027
96855W        W65073  33.947  24.245   4.418
96856W        W65074   8.604  12.187  14.969
96857W        W65075  15.092   3.703   2.904
96858W        W65076  15.790  43.371   2.829
96859W        W65077  24.287   1.130   2.716
96860W        W65078   3.791  18.609   2.722
96861W        W65079  44.122   9.694   0.806
96862W        W65080   8.887  14.284  14.736
96863W        W65081  39.048   3.708   1.389
96864W        W65082  10.836   0.408   3.501
96865W        W65083   8.563  33.368  13.960
96866W        W65084  27.546  10.006  13.987
96867W        W65085  11.665   4.362  13.650
96868W        W65086  18.183  18.067  12.416
96869W        W65087  40.745  31.161  13.432
96870W        W65088  32.382  33.284  14.937
96871W        W65089  33.164  41.461  13.365
96872W        W65090   1.947  38.541   3.869
96873W        W65091  44.783  26.168   4.855
96874W        W65092   4.902  32.307  12.898
96875W        W65093  25.487   7.840  10.770
96876W        W65094  26.699  16.439  11.199
96877W        W65095  44.719   0.840   2.330
96878W        W65096  42.379  40.416   1.183
96879W        W65097  17.294  18.506   1.931
96880W        W65098  22.766  11.603  10.244
96881W        W65099  17.661   5.611  13.562
96882W        W65100  19.196  21.711  11.554
96883W        W65101   5.139   7.916  13.065
96884W        W65102   0.726  35.493   2.780
96885W        W65103  15.339  29.671   2.970
96886W        W65104  30.054   5.241  13.387
96887W        W65105   7.222  22.023  13.743
96888W        W65106  24.709  36.554  11.198
96889W        W65107   6.681  10.158  11.604
96890W        W65108   4.959  23.929   2.264
96891W        W65109  23.483   4.416   1.701
96892W        W65110  21.116  27.721  14.208
96893W        W65111   7.452  42.212   3.610
96894W        W65112  20.623  22.569  10.545
96895W        W65113   3.341  27.952   0.232
96896W        W65114  24.635  27.275   1.695
96897W        W65115  40.579  15.033   1.538
96898W        W65116  41.509  40.431  10.651
96899W        W65117  12.413  29.895   3.458
96900W        W65118  15.873  18.661   5.065
96901W        W65119   0.063  27.553  14.440
96902W        W65120  24.742   9.744   3.680
96903W        W65121  27.720  36.719  14.208
96904W        W65122   3.399  27.007   1.929
96905W        W65123  38.854  12.558  11.502
96906W        W65124   0.899  43.881  13.475
96907W        W65125  31.787   9.100   5.085
96908W        W65126  19.100   4.837  10.371
96909W        W65127  13.307  12.704   3.343
96910W        W65128  42.837  39.509   3.197
96911W        W65129  22.188  35.550   1.683
96912W        W65130  37.567  34.476   4.646
96913W        W65131  17.615  40.325  12.053
96914W        W65132   3.875   5.511   3.653
96915W        W65133   1.547  34.995   1.159
96916W        W65134  21.167  15.099   2.336
96917W        W65135  15.961  34.521  14.523
96918W        W65136   1.756  18.257  13.370
96919W        W65137  34.717  29.068  13.415
96920W        W65138   1.208  43.152   2.330
96921W        W65139  23.242  26.181  14.523
96922W        W65140  21.106   7.309  13.805
96923W        W65141  40.298   3.231   4.037
96924W        W65142   0.520  41.497   2.222
96925W        W65143  25.501   8.457  14.896
96926W        W65144  16.423  38.358   2.310
96927W        W65145  24.567  34.441   2.002
96928W        W65146   6.437   7.196   3.721
96929W        W65147  35.165   5.008   0.196
96930W        W65148  16.664  25.192   3.828
96931W        W65149  29.472   5.561   1.728
96932W        W65150  31.010  28.081  13.070
96933W        W65151  14.005  31.178   4.157
96934W        W65152  33.848  33.302  11.067
96935W        W65153  41.907   2.290   4.645
96936W        W65154  37.006   3.218   0.215
96937W        W65155  15.528  17.038  11.892
96938W        W65156  24.802  13.686  14.424
96939W        W65157   6.801  44.900  12.525
96940W        W65158  30.528  26.230  14.700
96941W        W65159  23.800   3.031   0.957
96942W        W65160  26.596  43.636   1.905
96943W        W65161  14.782  13.525  11.062
96944W        W65162  20.232   9.602   3.843
96945W        W65163   6.439  26.551   4.086
96946W        W65164   2.374   6.290  13.067
96947W        W65165  25.266  22.262   0.742
96948W        W65166   2.885  36.358   3.191
96949W        W65167  24.185  16.679  10.643
96950W        W65168  10.145  12.268   1.732
96951W        W65169  38.156  15.775  12.484
96952W        W65170  36.602  15.306  14.872
96953W        W65171  42.871   1.234   1.374
96954W        W65172  34.356  29.138   2.297
96955W        W65173  33.992  29.891  13.401
96956W        W65174  13.886  26.078  13.909
96957W        W65175  10.295   4.154  11.636
96958W        W65176  35.644  20.112  12.559
96959W        W65177  28.641  11.286  13.752
96960W        W65178   6.667  27.674   0.114
96961W        W65179   3.756   8.074   2.272
96962W        W65180  33.168   9.485  14.037
96963W        W65181  34.009  35.363   4.568
96964W        W65182   2.718  27.173   2.550
96965W        W65183  35.829  17.790   3.758
96966W        W65184  21.714  34.427  12.320
96967W        W65185  20.818   7.662   1.734
96968W        W65186  37.798  18.768   3.755
96969W        W65187  40.906  21.140  13.770
96970W        W65188  34.997  39.531  13.520
96971W        W65189  26.044   2.322  12.986
96972W        W65190  29.117  36.363  14.222
96973W        W65191   9.120  14.488  14.250
96974W        W65192   1.077  31.471  12.141
96975W        W65193  39.465  40.517   4.784
96976W        W65194  36.085  11.117   1.905
96977W        W65195   6.904   8.684   2.846
96978W        W65196  13.544   8.935   2.920
96979W        W65197   5.242  30.882  10.677
96980W        W65198  32.709   7.546  13.440
96981W        W65199   1.840  17.023   2.374
96982W        W65200  44.824  37.098   4.252
96983W        W65201   0.724  19.006   5.119
96984W        W65202  42.023  31.116   1.472
96985W        W65203  26.040  29.631   1.502
96986W        W65204  11.284  14.559   0.977
96987W        W65205  18.158  18.913  11.433
96988W        W65206  38.912   6.923   1.016
96989W        W65207  12.189   4.427   4.241
96990W        W65208   3.665  12.612  13.940
96991W        W65209  21.752  13.299  13.454
96992W        W65210  21.365  36.375   2.345
96993W        W65211   9.552  41.789  12.466
96994W        W65212  29.586  32.066   0.927
96995W        W65213  32.644  37.862  13.012
96996W        W65214  23.057  28.143   0.728
96997W        W65215  19.958   4.534   0.247
96998W        W65216  20.251  19.669  11.984
96999W        W65217   8.795   3.578   4.576
97000W        W65218  42.043  29.662  13.909
97001W        W65219  27.686  43.816   0.670
97002W        W65220  31.197  29.110  11.936
97003W        W65221  41.401  13.316  14.929
97004W        W65222  22.689  29.559   1.194
97005W        W65223  14.757  26.040  10.544
97006W        W65224   3.549   9.196   0.503
97007W        W65225   5.470  29.503   1.988
97008W        W65226  19.403  25.962  12.941
97009W        W65227  35.055  23.284   3.677
97010W        W65228   9.127  35.992   3.910
97011W        W65229  42.508  15.566  13.364
97012W        W65230  12.816   2.482   0.038
97013W        W65231  20.173  25.792  11.962
97014W        W65232  30.958  19.062  13.838
97015W        W65233   3.177   7.309   3.804
97016W        W65234  27.405  18.248   3.798
97017W        W65235  41.348  14.807   3.691
97018W        W65236   2.758  31.554  13.521
97019W        W65237  11.334  15.791  11.154
97020W        W65238  35.072  10.870   4.043
97021W        W65239   3.756  18.128   0.663
97022W        W65240  38.310  16.623  11.301
97023W        W65241  20.251  14.331  11.450
97024W        W65242  37.828  31.142  13.375
97025W        W65243  32.521   9.786  14.254
97026W        W65244   5.708  20.538  12.125
97027W        W65245  44.691  40.341   4.200
97028W        W65246  17.695  34.849   3.371
97029W        W65247  43.005  37.840  12.969
97030W        W65248  21.559   4.604   0.455
97031W        W65249  16.321  38.058  13.529
97032W        W65250  23.128  31.482   2.356
97033W        W65251  20.213  26.228   2.711
97034W        W65252  38.528  24.952  12.094
97035W        W65253   5.884   6.481   0.732
97036W        W65254  22.258  32.503   0.898
97037W        W65255  16.199   2.131  12.547
97038W        W65256  41.746  21.707  14.837
97039W        W65257   8.484  44.823   4.431
97040W        W65258  13.847  13.151   4.317
97041W        W65259   1.787  19.735  14.353
97042W        W65260  34.094  33.472  10.619
97043W        W65261  30.628  16.871  13.935
97044W        W65262  30.011   6.229   4.424
97045W        W65263  44.741   6.222  14.520
97046W        W65264   4.388   8.373   2.227
97047W        W65265   7.558  33.496   5.006
97048W        W65266  28.263  31.142   4.205
97049W        W65267   7.213  36.815   4.520
97050W        W65268   5.664  18.200  14.959
97051W        W65269   0.163  41.620  14.912
97052W        W65270  35.496  16.679  11.826
97053W        W65271  31.523  13.994  12.488
97054W        W65272  13.534  16.927   0.971
97055W        W65273  34.193  26.622  11.211
97056W        W65274  28.142  32.013  14.004
97057W        W65275  34.459  10.759   4.160
97058W        W65276  40.918   6.280   2.847
97059W        W65277  23.245   8.216  14.548
97060W        W65278  26.115  27.903   3.868
97061W        W65279  21.001  41.098  12.066
97062W        W65280  12.739  19.741   4.691
97063W        W65281  44.019   1.268   3.262
97064W        W65282  27.479   5.613  14.486
97065W        W65283  13.846  11.707   4.224
97066W        W65284  41.823  17.984  11.359
97067W        W65285  28.231  29.094  12.803
97068W        W65286  43.440  30.998  14.465
97069W        W65287   6.599  32.674  13.027
97070W        W65288  28.721  37.267   2.217
97071W        W65289  29.020  21.830   3.303
97072W        W65290   6.631  30.475   3.763
97073W        W65291   5.830  34.335   3.544
97074W        W65292   0.796  41.085   2.616
97075W        W65293  27.698  16.035  12.060
97076W        W65294   2.160  22.849  11.399
97077W        W65295  29.132   6.478   3.760
97078W        W65296  42.461  21.595  13.091
97079W        W65297   3.666  44.749   2.393
97080W        W65298  28.630   3.761  13.754
97081W        W65299  24.741  10.147  12.126
97082W        W65300  27.027   2.164  10.625
97083W        W65301  27.106  17.521   2.520
97084W        W65302  24.461  39.274   1.409
97085W        W65303  38.563   3.527   1.338
97086W        W65304  31.159  14.064  14.926
97087W        W65305  39.065  28.119   2.792
97088W        W65306  39.005   0.787   0.443
97089W        W65307  35.772  22.160   0.987
97090W        W65308  20.748  19.064   0.212
97091W        W65309  44.108  23.557  13.499
97092W        W65310   0.051  30.754   2.260
97093W        W65311  23.714  15.619  13.289
97094W        W65312  40.057  33.967   2.136
97095W        W65313  29.256  21.244   0.322
97096W        W65314   0.942  34.460   3.588
97097W        W65315   8.655   7.930   4.014
97098W        W65316  28.406  36.610  10.397
97099W        W65317  42.289  15.321  13.954
97100W        W65318  40.123   1.776   3.398
97101W        W65319  24.002  26.991  10.325
97102W        W65320  31.835  30.051   0.383
97103W        W65321  31.589   7.283  11.749
97104W        W65322  39.936  32.325   4.105
97105W        W65323  37.433  39.360  10.744
97106W        W65324  20.533  19.348   4.184
97107W        W65325  32.082  17.471  11.152
97108W        W65326  34.862  33.091  11.999
97109W        W65327  16.022   9.939   2.988
97110W        W65328  11.313  30.123  10.618
97111W        W65329   1.350  31.499  10.704
97112W        W65330  41.596  44.700   0.423
97113W        W65331   5.145  14.699  14.783
97114W        W65332   0.969  13.733   4.834
97115W        W65333   5.383   3.036  10.982
97116W        W65334  23.074  12.932   3.633
97117W        W65335  37.441   9.700   4.522
97118W        W65336  13.120  23.024  11.755
97119W        W65337  39.503   5.953   2.276
97120W        W65338  26.629  21.498  11.976
97121W        W65339  37.978  38.808  10.627
97122W        W65340   7.203   3.244   3.722
97123W        W65341  32.067  36.612  13.117
97124W        W65342  39.787  14.767  11.113
97125W        W65343  14.720  16.729  13.310
97126W        W65344   1.023  19.227   4.725
97127W        W65345  13.695  35.383   2.704
97128W        W65346  13.338  16.148  14.659
97129W        W65347   1.010  11.604  10.315
97130W        W65348  32.611  30.102   3.933
97131W        W65349  17.754  24.637  14.820
97132W        W65350  42.692   1.212  10.594
97133W        W65351  17.049  33.105   4.800
97134W        W65352  37.810   4.258  13.042
97135W        W65353  34.405  15.837  14.462
97136W        W65354   4.650   5.021   4.894
97137W        W65355  27.044  40.023  14.217
97138W        W65356   5.772  27.057  10.839
97139W        W65357  17.442  37.437   1.304
97140W        W65358  16.707  30.972   2.408
97141W        W65359   6.386  33.693   1.477
97142W        W65360  27.493  23.668  13.092
97143W        W65361  25.074  33.873  14.588
97144W        W65362  34.138   7.758   1.830
97145W        W65363  13.194  41.987  13.181
97146W        W65364  32.124  33.061   1.412
97147W        W65365  19.645  34.906   3.363
97148W        W65366  13.725  30.632  13.995
97149W        W65367  18.722   6.240  12.031
97150W        W65368  41.819  38.954  10.484
97151W        W65369  25.099  22.648  11.963
97152W        W65370  11.735  42.452   2.647
97153W        W65371  12.402  31.455  13.146
97154W        W65372  11.197   1.707   3.341
97155W        W65373  42.612  23.113  13.125
97156W        W65374  37.033  21.663  11.973
97157W        W65375  42.290  17.758   4.132
97158W        W65376  17.416  36.774  12.005
97159W        W65377  27.633  40.138  12.357
97160W        W65378  18.464  27.942  11.142
97161W        W65379  42.348  37.549   0.005
97162W        W65380  37.401  37.372   4.532
97163W        W65381  10.868  37.570  12.929
97164W        W65382  41.968  29.910   3.628
97165W        W65383  34.637  29.702  12.868
97166W        W65384  17.858  21.319   0.430
97167W        W65385  44.711  34.527  11.564
97168W        W65386   5.865  10.359   1.860
97169W        W65387   7.347   0.222   3.125
97170W        W65388  43.865  32.693   3.783
97171W        W65389  15.190  43.004   1.753
97172W        W65390  39.904   5.331  13.603
97173W        W65391   3.934   8.546  14.812
97174W        W65392   3.306  12.561   2.908
97175W        W65393  36.031  21.831   3.344
97176W        W65394  42.322  32.947   4.085
97177W        W65395  16.415  41.495  13.979
97178W        W65396   5.760  16.509  14.474
97179W        W65397  38.231  15.553   4.413
97180W        W65398  22.615  10.769   4.736
97181W        W65399  34.694  41.200   2.309
97182W        W65400   1.848  43.727   1.256
97183W        W65401   8.280   7.947  14.303
97184W        W65402  17.550  29.560  12.361
97185W        W65403  20.750  36.504  14.437
97186W        W65404  34.118  14.808  14.719
97187W        W65405  30.935  35.470   3.223
97188W        W65406   7.663   7.642   2.620
97189W        W65407  35.936  31.115  10.616
97190W        W65408  19.218  36.880   0.019
97191W        W65409  26.094  25.664  10.254
97192W        W65410  10.954  23.026  11.418
97193W        W65411  40.361  33.112   0.865
97194W        W65412  25.279   4.425   3.195
97195W        W65413  24.178  27.700  12.539
97196W        W65414  23.091  38.906   2.133
97197W        W65415  38.077  22.195   4.305
97198W        W65416  26.680  44.374   2.733
97199W        W65417  10.631  26.146   4.388
97200W        W65418  15.521   2.740  12.558
97201W        W65419  39.416  16.521  10.367
97202W        W65420  38.383  15.657  14.304
97203W        W65421  34.104   8.334   0.849
97204W        W65422  28.714   9.552   2.130
97205W        W65423  22.679  31.903   5.240
97206W        W65424   4.013  15.922  12.268
97207W        W65425  31.932   5.957   5.272
97208W        W65426  19.119   9.499  11.678
97209W        W65427  20.300  21.959   0.856
97210W        W65428   0.919  35.946   1.661
97211W        W65429   3.911  29.363  11.486
97212W        W65430  31.398  41.417   1.336
97213W        W65431   9.865  31.003   2.645
97214W        W65432   0.272  36.799   4.286
97215W        W65433  14.738   4.774  12.999
97216W        W65434   9.129  29.419   2.459
97217W        W65435  25.748  15.764   1.281
97218W        W65436   0.141  30.268  11.964
97219W        W65437  30.529  24.971  13.378
97220W        W65438  38.337  29.641  14.502
97221W        W65439  38.064  25.446  14.017
97222W        W65440  13.775   7.896   4.291
97223W        W65441   2.508  21.611  13.533
97224W        W65442   1.041  16.762   0.186
97225W        W65443  22.678  28.624   1.535
97226W        W65444  16.720   2.835  10.639
97227W        W65445  40.881  43.608   2.120
97228W        W65446  32.359  44.384   3.223
97229W        W65447  42.751  11.913   0.890
97230W        W65448  41.863  23.809  13.050
97231W        W65449  40.463  32.956   3.655
97232W        W65450   6.417  23.099  13.295
97233W        W65451  12.337  37.532  14.627
97234W        W65452  26.943   9.204  13.222
97235W        W65453  41.244  10.188   3.687
97236W        W65454  41.904  33.991  11.347
97237W        W65455  13.317  19.151  12.602
97238W        W65456  21.313  44.001   1.447
97239W        W65457  40.033  18.363   4.967
97240W        W65458   7.158   4.108  11.599
97241W        W65459  20.785  36.850  12.130
97242W        W65460  37.396  23.167  11.451
97243W        W65461  10.803  17.643   2.853
97244W        W65462  18.471  14.828   3.030
97245W        W65463  32.924  10.991   3.067
97246W        W65464  23.160  43.000   1.471
97247W        W65465  27.253  32.849  14.334
97248W        W65466  10.227   4.917   3.525
97249W        W65467  25.988  39.991   1.539
97250W        W65468  22.857  16.619  11.555
97251W        W65469  10.408  40.601  12.108
97252W        W65470  32.445  16.736  11.652
97253W        W65471  14.519  39.515  13.450
97254W        W65472  33.830  41.458  14.505
97255W        W65473   4.341   0.239  11.121
97256W        W65474  40.324  33.967   3.104
97257W        W65475  11.364  34.814   2.777
97258W        W65476  21.683  12.787   4.508
97259W        W65477   1.228  17.672   3.474
97260W        W65478  37.507  43.154  12.811
97261W        W65479  36.206  35.585  11.125
97262W        W65480  44.214  41.259   1.858
97263W        W65481  43.360  28.798   4.349
97264W        W65482   8.416  30.967  13.539
97265W        W65483  21.223  16.259   1.823
97266W        W65484   9.360  36.796  11.629
97267W        W65485   1.708  30.463  14.263
97268W        W65486   2.230  19.579   0.568
97269W        W65487  17.189  44.567   2.876
97270W        W65488  38.129  39.498  11.509
97271W        W65489  13.721  14.872  10.951
97272W        W65490   5.085  40.004  10.439
97273W        W65491   3.264  29.135   3.587
97274W        W65492  28.903  17.331   4.127
97275W        W65493   1.888   5.393  11.124
97276W        W65494  40.676   8.563   4.927
97277W        W65495  31.194   4.781  12.009
97278W        W65496  26.714  34.269  10.768
97279W        W65497  24.979  28.418  10.711
97280W        W65498   4.220  43.069   4.491
97281W        W65499  24.082   2.380  10.711
97282W        W65500   7.304  12.367  14.300
97283W        W65501  42.473  17.574  13.614
97284W        W65502  33.313  39.004  11.531
97285W        W65503  16.459  20.538  13.838
97286W        W65504  14.210   4.213  14.584
97287W        W65505   5.902   1.410   0.280
97288W        W65506  27.165   5.337   2.290
97289W        W65507  27.824  26.489   0.438
97290W        W65508  19.385  42.865   3.547
97291W        W65509  23.011  16.863   0.194
97292W        W65510  14.445   5.728  12.954
97293W        W65511  34.920  14.641   0.948
97294W        W65512  10.696  42.424   1.357
97295W        W65513   8.316  23.651  11.139
97296W        W65514  24.656  25.218  10.446
97297W        W65515  42.115  18.359   2.193
97298W        W65516  25.052  30.138   4.272
97299W        W65517  17.265  41.609  10.633
97300W        W65518  18.403   2.194  10.888
97301W        W65519  29.803  28.032   1.312
97302W        W65520  29.148  11.334  14.287
97303W        W65521  35.423  12.906  13.379
97304W        W65522  43.096  35.207  10.535
97305W        W65523  32.840  36.615  13.408
97306W        W65524   1.692  21.141   1.120
97307W        W65525  11.687   9.400  14.358
97308W        W65526  41.068  14.638  12.953
97309W        W65527  15.334  29.228  12.173
97310W        W65528   2.768  29.974  14.600
97311W        W65529  17.102  34.588  13.983
97312W        W65530  35.621  15.747  12.148
97313W        W65531  42.665  25.307   0.003
97314W        W65532  16.687  41.127   0.094
97315W        W65533  43.468  19.645  11.703
97316W        W65534  41.694   0.465  14.200
97317W        W65535   4.914  23.139   0.453
97318W        W65536  24.223  35.570   4.087
97319W        W65537  39.170   3.709  12.046
97320W        W65538  13.865  38.879  12.360
97321W        W65539  31.909  20.150   1.717
97322W        W65540  20.014  22.788  11.175
97323W        W65541  39.870   3.552   5.283
97324W        W65542  14.580  14.160   2.498
97325W        W65543  34.483  34.376   1.091
97326W        W65544  19.987  40.048   3.813
97327W        W65545  36.202  42.872   2.224
97328W        W65546  39.516  41.916   1.353
97329W        W65547  34.391  28.051   1.802
97330W        W65548   4.557  18.137  11.813
97331W        W65549   9.622  18.050  11.942
97332W        W65550  30.380  31.646   2.210
97333W        W65551  12.198  39.022   1.704
97334W        W65552  21.591  25.224  12.016
97335W        W65553  21.702   9.491  11.091
97336W        W65554   1.304  33.151   2.264
97337W        W65555  32.163  35.106   1.450
97338W        W65556  21.758  11.308  13.433
97339W        W65557  23.069  41.024  11.897
97340W        W65558  12.408  23.904  11.172
97341W        W65559  44.887  19.692   0.037
97342W        W65560   9.540  16.821  14.549
97343W        W65561   7.123   9.472   1.761
97344W        W65562  17.404  16.618  11.973
97345W        W65563  13.632  24.363   2.330
97346W        W65564  43.918  36.370   4.859
97347W        W65565  12.250  32.591   2.268
97348W        W65566   9.560  41.439  12.052
97349W        W65567  11.074  22.159  12.892
97350W        W65568   7.225  26.755  13.300
97351W        W65569  23.117   4.329   0.160
97352W        W65570   2.218   3.306  13.786
97353W        W65571  43.610  44.556   9.822
97354W        W65572  10.121  19.338   1.089
97355W        W65573   6.160  17.097   1.792
97356W        W65574  35.802  39.897  12.554
97357W        W65575  18.000  25.030   2.283
97358W        W65576  11.259  19.612   4.631
97359W        W65577  28.681   1.877   0.447
97360W        W65578  37.967   3.535   0.019
97361W        W65579  40.766  42.294  13.477
97362W        W65580  19.174  15.287  14.548
97363W        W65581  13.171  42.958  13.303
97364W        W65582  24.097  42.856  13.423
97365W        W65583  42.262  23.118   1.291
97366W        W65584  32.899  20.731   0.904
97367W        W65585   4.896  28.475  14.565
97368W        W65586  19.066   1.284   3.894
97369W        W65587  43.374  30.183  14.050
97370W        W65588  39.270  31.502  10.787
97371W        W65589   6.917  14.236  12.373
97372W        W65590  21.540   8.879  14.774
97373W        W65591  31.314   1.857   2.382
97374W        W65592   3.978  13.252   1.956
97375W        W65593  12.160  43.210   0.299
97376W        W65594  27.696  27.025   4.565
97377W        W65595  41.914   2.786   4.533
97378W        W65596  29.021  19.965  13.380
97379W        W65597  26.551  38.343   0.346
97380W        W65598  32.940  10.558   1.495
97381W        W65599  29.512   9.118  14.490
97382W        W65600   4.035   0.842  10.917
97383W        W65601  28.536   6.622   4.916
97384W        W65602   0.350   4.094  10.774
97385W        W65603  35.159   2.284   2.516
97386W        W65604  37.487   1.909   3.670
97387W        W65605  26.146  13.911   1.907
97388W        W65606  13.348  15.763  12.059
97389W        W65607  11.659  17.072  14.790
97390W        W65608  24.650  36.471   2.825
97391W        W65609  25.662   9.911   3.229
97392W        W65610  17.151  41.333   3.535
97393W        W65611  31.977  16.645   3.210
97394W        W65612  32.381  16.719   4.158
97395W        W65613  36.323  42.352   2.266
97396W        W65614  43.300  32.620   4.162
97397W        W65615  19.820   5.615   1.906
97398W        W65616   3.842   5.813   0.192
97399W        W65617   9.182  37.832  12.525
97400W        W65618  34.905  32.143  13.541
97401W        W65619   2.861  41.649  10.784
97402W        W65620   5.305  33.275   4.580
97403W        W65621   6.585  36.896   2.717
97404W        W65622   7.848  13.640   4.595
97405W        W65623  43.546  37.764   1.410
97406W        W65624  34.049   8.030   4.009
97407W        W65625  17.834  25.453  12.460
97408W        W65626   2.789  38.778  12.502
97409W        W65627   3.999  13.669   0.277
97410W        W65628  11.028  19.712   2.667
97411W        W65629  17.012  34.090   1.135
97412W        W65630  36.974  43.072   3.810
97413W        W65631  31.987  36.182   0.410
97414W        W65632   8.853  44.751   4.093
97415W        W65633  13.156  26.761  10.093
97416W        W65634  34.344   6.097  14.949
97417W        W65635  41.434  37.990   4.562
97418W        W65636   7.928  24.704  12.531
97419W        W65637   7.336   4.793   4.868
97420W        W65638  32.157  43.035   9.861
97421W        W65639  33.557  42.130   3.731
97422W        W65640  23.524  18.614   3.288
97423W        W65641  35.969  37.782  12.520
97424W        W65642  21.012  41.778  14.976
97425W        W65643  21.189  20.175   1.966
97426W        W65644  10.346  28.230  13.770
97427W        W65645  23.268  37.392   0.186
97428W        W65646  20.768  16.745  14.384
97429W        W65647  39.540  43.122  11.511
97430W        W65648  19.305  32.147   1.448
97431W        W65649   3.670  14.596  13.146
97432W        W65650  10.287   1.527  11.184
97433W        W65651   1.946  23.026   0.353
97434W        W65652  27.541  43.358   2.954
97435W        W65653  27.427  23.542   2.171
97436W        W65654  26.318  31.391  14.270
97437W        W65655  19.742  43.274   3.637
97438W        W65656  21.408   9.091   4.137
97439W        W65657  38.881   5.621  11.163
97440W        W65658  44.429  30.411   2.903
97441W        W65659  36.489  10.705  14.420
97442W        W65660  42.011  13.649  11.655
97443W        W65661  30.488   1.806  14.680
97444W        W65662  20.677  40.330  13.827
97445W        W65663  44.782   6.272  11.961
97446W        W65664  23.468  36.172  13.391
97447W        W65665  17.294  35.848  12.135
97448W        W65666   4.142   7.777  13.953
97449W        W65667  36.052  37.450   4.958
97450W        W65668  35.113   8.665   0.914
97451W        W65669  32.807  24.715  13.264
97452W        W65670  19.306  39.578  14.373
97453W        W65671  15.620   3.905   4.180
97454W        W65672   7.374  11.405  11.590
97455W        W65673   5.708  31.013   2.715
97456W        W65674  25.626  43.724  13.248
97457W        W65675  41.867  11.890  14.446
97458W        W65676  36.110  40.342   0.259
97459W        W65677  38.440  16.742   2.249
97460W        W65678   8.206   3.348  11.587
97461W        W65679  24.033  31.051  14.093
97462W        W65680   3.569  38.334  14.210
97463W        W65681  16.003  27.179   2.646
97464W        W65682  16.962  20.465  13.855
97465W        W65683  14.216  11.070   0.219
97466W        W65684  37.789  40.016   4.571
97467W        W65685   5.108  21.224  10.974
97468W        W65686  27.287  11.723   3.112
97469W        W65687  39.816  21.358   4.686
97470W        W65688  17.779  23.922  11.545
97471W        W65689  21.960  36.143   4.026
97472W        W65690  34.398  44.257   3.231
97473W        W65691   2.165  32.162   0.785
97474W        W65692  25.751   8.494  12.009
97475W        W65693  16.616  20.647   1.329
97476W        W65694  29.698  26.048  14.467
97477W        W65695   1.293  27.361  13.842
97478W        W65696  39.108   3.199  14.757
97479W        W65697   8.680  20.718   3.734
97480W        W65698  44.812   9.624   2.643
97481W        W65699  35.443   1.522   9.693
97482W        W65700   3.475  15.221  12.041
97483W        W65701  11.564   2.387   4.160
97484W        W65702  23.651  29.509   4.232
97485W        W65703   0.840  27.376   3.852
97486W        W65704  41.138  42.327   3.251
97487W        W65705  42.240   0.323  13.330
97488W        W65706  40.727   8.655   2.762
97489W        W65707  38.054  35.785   0.805
97490W        W65708  21.035  13.168  13.022
97491W        W65709   5.037   3.380  11.296
97492W        W65710  44.161   5.508   0.734
97493W        W65711   2.310   6.732   1.371
97494W        W65712  15.274  35.033  12.909
97495W        W65713  21.978  13.686   3.125
97496W        W65714  22.093  30.375   4.706
97497W        W65715   7.690   1.762   0.377
97498W        W65716  29.738  30.882   3.384
97499W        W65717  33.937  34.384  14.302
97500W        W65718  42.116  17.211  13.941
97501W        W65719   8.600  29.084  12.458
97502W        W65720  41.325  40.887   2.691
97503W        W65721  23.699  16.810   3.804
97504W        W65722  36.409  15.823   1.709
97505W        W65723  29.508   0.874   4.609
97506W        W65724  10.905   5.346   3.149
97507W        W65725   3.368   9.273  12.886
97508W        W65726  16.492  29.896   1.821
97509W        W65727   0.961  23.934  11.217
97510W        W65728  10.867  28.136  11.869
97511W        W65729  25.764   8.591   5.197
97512W        W65730  24.191  30.716   0.352
97513W        W65731  28.118  32.185   4.998
97514W        W65732  23.079  42.002  11.325
97515W        W65733   7.642  14.309   1.815
97516W        W65734  18.221   1.940  11.503
97517W        W65735   8.443  41.962  11.726
97518W        W65736  44.050  23.732   4.568
97519W        W65737  22.784  34.640   4.282
97520W        W65738   6.760   9.907  11.144
97521W        W65739   5.944   4.889   1.755
97522W        W65740  17.794   4.992  12.694
97523W        W65741   6.399  18.264   2.220
97524W        W65742   5.649   0.698  13.109
97525W        W65743  33.477  26.711   4.019
97526W        W65744  15.472  29.429  11.200
97527W        W65745  18.896  41.292   1.426
97528W        W65746  21.676  38.004   0.950
97529W        W65747  33.370  41.508   1.453
97530W        W65748  38.816  19.429   2.834
97531W        W65749  24.177  34.666   4.651
97532W        W65750  12.107  17.486   4.575
97533W        W65751   4.069   7.202  11.093
97534W        W65752  10.501  13.892  11.042
97535W        W65753  31.348  31.023  12.553
97536W        W65754  13.789  19.624  11.494
97537W        W65755  22.568  38.864   0.463
97538W        W65756  44.844   3.685   2.342
97539W        W65757  22.909  38.604  12.359
97540W        W65758  13.184  33.411  10.514
97541W        W65759  17.050  12.881  12.518
97542W        W65760  41.502  19.589   1.321
97543W        W65761   6.565  40.480  13.911
97544W        W65762  34.589  14.103   1.330
97545W        W65763  12.889  14.160   4.935
97546W        W65764  11.299  31.301   4.858
97547W        W65765  38.639  36.904  14.342
97548W        W65766   5.309   7.019  12.924
97549W        W65767  12.835  11.168  11.631
97550W        W65768  27.901  24.091   3.693
97551W        W65769  20.496   5.381  14.985
97552W        W65770  10.487   8.998   1.379
97553W        W65771  20.145  24.610  10.981
97554W        W65772   9.159   2.166  14.940
97555W        W65773  38.009  20.601   0.290
97556W        W65774  28.035  12.480   4.617
97557W        W65775  19.223  24.283  14.387
97558W        W65776  18.045  25.179   1.784
97559W        W65777  43.412  26.667  12.060
97560W        W65778  35.268   2.061   4.685
97561W        W65779  23.953   3.847   3.238
97562W        W65780  13.684  14.153  13.987
97563W        W65781  11.854  42.529  14.414
97564W        W65782  22.288  31.022  14.732
97565W        W65783   1.267  31.924   1.674
97566W        W65784  44.267   5.327   2.089
97567W        W65785   0.831   9.122   1.193
97568W        W65786  11.056   7.650   2.831
97569W        W65787  27.242  15.282   3.127
97570W        W65788  12.345  38.511  10.635
97571W        W65789   7.820  18.495  11.328
97572W        W65790  34.559  31.715  12.392
97573W        W65791   9.230  18.343   3.741
97574W        W65792  44.288  26.016   4.886
97575W        W65793  22.189  10.383   1.296
97576W        W65794  21.643  40.574   0.301
97577W        W65795  22.629  28.257   4.916
97578W        W65796  16.687  40.824  14.313
97579W        W65797  37.020  10.850   2.470
97580W        W65798  32.195   4.613  13.100
97581W        W65799  23.949  24.431  13.894
97582W        W65800  43.041  29.765   2.242
97583W        W65801  21.238  24.216  10.697
97584W        W65802   6.720  34.404   4.584
97585W        W65803  26.556  32.392  11.607
97586W        W65804  43.311  12.671   3.230
97587W        W65805  20.211  42.601  11.116
97588W        W65806  18.615  16.751   4.699
97589W        W65807  44.736   8.069  11.161
97590W        W65808   6.347   0.413   2.240
97591W        W65809  14.254  41.042   0.497
97592W        W65810  17.272  33.916  14.915
97593W        W65811   4.783  22.604  10.141
97594W        W65812  20.991  36.863  12.608
97595W        W65813  26.608  20.045  14.059
97596W        W65814  26.024  16.680   2.574
97597W        W65815  29.409   4.763  13.523
97598W        W65816  19.591  13.738  14.871
97599W        W65817  20.456  20.371   3.685
97600W        W65818  24.576   4.654  12.578
97601W        W65819  21.608  44.239   1.831
97602W        W65820  24.511  24.960   1.865
97603W        W65821  17.271  36.093  13.895
97604W        W65822  39.546  10.181   0.533
97605W        W65823   8.461  16.625   0.310
97606W        W65824  24.151   6.846   4.539
97607W        W65825  42.140   8.699   1.434
97608W        W65826   8.796  11.517  10.356
97609W        W65827   6.113  34.511  12.969
97610W        W65828   5.338  32.403  14.857
97611W        W65829  29.938   5.102   2.773
97612W        W65830  40.315  37.136  11.316
97613W        W65831  28.159  23.055  12.237
97614W        W65832  16.983   2.207   3.285
97615W        W65833  42.915   4.451   2.729
97616W        W65834  37.299  40.037   4.378
97617W        W65835  34.409  44.023  11.495
97618W        W65836  35.267  34.356   2.189
97619W        W65837  15.718  41.732   3.672
97620W        W65838  21.968  44.430  11.255
97621W        W65839  22.719  15.861   2.276
97622W        W65840  39.256  41.335  10.500
97623W        W65841  41.086  20.690  13.983
97624W        W65842  42.398  31.850  10.690
97625W        W65843  28.715  19.040  14.934
97626W        W65844  14.709  36.134   1.972
97627W        W65845  18.985  17.359   3.207
97628W        W65846   7.254   2.289  11.654
97629W        W65847  18.115  20.387   2.829
97630W        W65848  41.885   2.070  12.062
97631W        W65849  43.994  43.083   0.246
97632W        W65850  35.021   7.046   0.786
97633W        W65851  16.749   9.320   1.379
97634W        W65852  18.959  24.045   2.309
97635W        W65853   2.085  40.030  11.925
97636W        W65854   7.736  28.500  13.492
97637W        W65855   3.185  43.282   5.304
97638W        W65856  12.614  17.256  11.574
97639W        W65857  42.992  25.060  14.055
97640W        W65858  15.162  23.498   1.932
97641W        W65859   5.684  16.040   3.646
97642W        W65860  15.857  21.042   0.991
97643W        W65861  25.215  41.452  14.867
97644W        W65862   0.395  38.068   4.625
97645W        W65863  26.167  37.118  12.547
97646W        W65864  14.410   5.226   0.407
97647W        W65865  16.371   2.895   2.876
97648W        W65866  15.599   2.757  14.376
97649W        W65867   3.477   4.749   2.648
97650W        W65868  38.126   0.164  10.807
97651W        W65869  20.248  33.046   5.114
97652W        W65870  25.145  20.017   0.385
97653W        W65871   0.249  27.691  10.583
97654W        W65872  32.163  10.274   2.816
97655W        W65873  21.534  13.038  13.071
97656W        W65874  27.919  38.307  11.944
97657W        W65875  19.516  24.784  14.000
97658W        W65876  28.120   6.456  10.293
97659W        W65877  34.712  39.918   3.184
97660W        W65878   1.566  17.347  11.174
97661W        W65879  19.489  43.735   1.343
97662W        W65880  24.236   5.211  13.876
97663W        W65881  34.397  41.464   3.653
97664W        W65882  17.024  21.490  12.905
97665W        W65883  12.345  15.194  14.438
97666W        W65884  16.661   2.685   3.685
97667W        W65885   3.973  32.540  11.212
97668W        W65886  15.727  20.992  14.838
97669W        W65887  18.646  38.859  10.149
97670W        W65888  24.808  26.407   2.877
97671W        W65889   9.277  19.579   1.644
97672W        W65890   4.229  36.470  11.444
97673W        W65891  10.727  33.816   4.197
97674W        W65892  34.014  36.872  11.276
97675W        W65893  19.005  19.176  13.623
97676W        W65894   5.420  35.631   3.731
97677W        W65895  36.933  38.350  14.958
97678W        W65896  23.496  29.665  11.599
97679W        W65897   7.695  34.750  13.435
97680W        W65898  35.453  33.059  14.934
97681W        W65899  17.293  42.404   4.725
97682W        W65900  16.883   5.401   1.139
97683W        W65901  38.935   1.824  14.780
97684W        W65902  40.953  28.643   4.288
97685W        W65903  29.454  32.088   4.178
97686W        W65904  16.219   5.365   2.422
97687W        W65905  20.352  15.326   5.084
97688W        W65906   8.483  42.225   4.582
97689W        W65907   4.760  12.128  12.393
97690W        W65908  40.871  11.452   3.423
97691W        W65909  36.496   6.299  11.590
97692W        W65910  17.755  28.920  10.698
97693W        W65911  28.075  22.159  12.600
97694W        W65912   0.038  27.651   1.342
97695W        W65913   8.656  43.459   4.043
97696W        W65914  33.521  40.599  11.466
97697W        W65915  24.886  11.718  11.528
97698W        W65916   7.255  33.603   1.414
97699W        W65917   8.387  38.976   0.435
97700W        W65918   2.259  27.497   4.338
97701W        W65919  43.262  38.019  13.407
97702W        W65920   5.053  32.538   4.227
97703W        W65921  26.591  17.547  12.115
97704W        W65922  38.742  43.101   4.149
97705W        W65923  36.870  44.311   4.961
97706W        W65924  33.898   1.966   3.730
97707W        W65925  21.996   9.471  11.495
97708W        W65926   1.290  12.139  14.869
97709W        W65927  33.556   6.791   4.354
97710W        W65928  26.518  42.930   2.906
97711W        W65929  10.293  10.601  11.482
97712W        W65930  16.297   6.188   2.913
97713W        W65931  23.908  16.112   0.346
97714W        W65932  28.153  17.044   2.232
97715W        W65933  26.160  12.339   0.799
97716W        W65934   5.244  38.099  13.212
97717W        W65935  35.080   5.518   3.648
97718W        W65936  40.910  17.380   2.403
97719W        W65937  42.930   0.868   2.669
97720W        W65938  23.817  21.042  12.403
97721W        W65939   3.308  40.874  13.423
97722W        W65940  19.210   2.996  11.396
97723W        W65941  43.072  37.931   4.607
97724W        W65942   9.404   6.042   0.455
97725W        W65943  12.328  34.915  14.542
97726W        W65944  20.852  21.614  13.471
97727W        W65945  17.009  25.001  13.370
97728W        W65946   9.737   3.277  10.764
97729W        W65947  16.595  24.001   0.439
97730W        W65948   1.571  29.612   2.795
97731W        W65949  22.201  38.226  11.160
97732W        W65950   5.558  41.361   0.275
97733W        W65951   3.268  15.705  11.985
97734W        W65952  15.505  14.535   2.704
97735W        W65953  38.957   9.196   1.845
97736W        W65954  30.030  18.604   0.825
97737W        W65955   7.539  35.958   0.611
97738W        W65956   4.432  22.015  12.235
97739W        W65957  16.523   2.082   5.412
97740W        W65958  39.111  39.768   1.298
97741W        W65959  21.566  36.549   2.900
97742W        W65960  39.978  11.808   0.156
97743W        W65961  23.805  32.348   5.104
97744W        W65962  39.564  36.850  14.788
97745W        W65963   3.893  14.866  11.326
97746W        W65964  37.381  36.402  14.406
97747W        W65965  26.619  35.739  10.811
97748W        W65966   4.468  22.648   1.778
97749W        W65967  13.595  23.595  12.912
97750W        W65968  43.513  20.768   1.323
97751W        W65969  15.149  26.461   0.763
97752W        W65970  11.838  37.004   3.846
97753W        W65971  40.237  42.792  10.456
97754W        W65972  29.263  35.034  13.969
97755W        W65973  13.330  40.300  12.995
97756W        W65974  38.362  15.829   3.405
97757W        W65975  44.461   9.334  13.956
97758W        W65976  32.281   1.167  11.545
97759W        W65977  37.354  10.592  11.591
97760W        W65978  16.854  43.029  13.425
97761W        W65979   6.425  31.691   1.837
97762W        W65980   5.227  42.792   3.166
97763W        W65981  37.077  31.870  13.311
97764W        W65982  40.136  34.780   0.077
97765W        W65983   2.763  12.191  12.136
97766W        W65984  17.240   8.373   4.403
97767W        W65985  40.720   3.417   0.844
97768W        W65986  37.362  12.418  13.392
97769W        W65987  22.440  36.697  14.881
97770W        W65988  39.941  30.834  11.470
97771W        W65989  44.636  28.543  11.608
97772W        W65990  11.897  13.419  13.635
97773W        W65991  34.349  42.187   2.308
97774W        W65992  39.835  44.658  12.008
97775W        W65993  40.293  34.927  14.613
97776W        W65994   8.145  24.083   4.311
97777W        W65995  15.700  22.514  11.686
97778W        W65996  28.506  28.133   3.407
97779W        W65997  20.195   4.869  12.463
97780W        W65998   3.085  30.867  11.606
97781W        W65999  24.318  39.371  11.179
97782W        W66000  24.704  44.529  12.087
97783W        W66001  20.231  39.346  12.797
97784W        W66002  24.236   4.845   4.387
97785W        W66003  39.967   9.392   3.276
97786W        W66004  38.259  18.818  11.107
97787W        W66005   6.643   1.095  13.383
97788W        W66006   5.133   3.934  10.791
97789W        W66007  36.087  12.359   1.371
97790W        W66008   9.622  12.371   1.764
97791W        W66009  17.794   4.494  12.506
97792W        W66010  10.761  14.249   4.255
97793W        W66011   4.250  29.369  11.966
97794W        W66012  21.779  10.791  11.670
97795W        W66013  30.544  15.739  10.666
97796W        W66014   8.950   8.270   3.158
97797W        W66015  11.888  26.501  10.907
97798W        W66016  30.952   2.941   3.661
97799W        W66017  41.308   7.146   0.964
97800W        W66018  12.630  25.122   0.847
97801W        W66019  27.983   6.286  14.795
97802W        W66020  44.974  22.234   2.276
97803W        W66021  26.405  35.972   0.801
97804W        W66022  12.640  10.136   0.348
97805W        W66023  10.186  32.225  12.084
97806W        W66024  32.079  42.864   5.011
97807W        W66025  15.068  40.980   0.877
97808W        W66026  10.159  29.611   2.175
97809W        W66027  41.302  24.932   4.593
97810W        W66028  33.010  26.958   1.648
97811W        W66029  30.465  20.899   3.165
97812W        W66030  27.687   9.754   4.164
97813W        W66031  23.369  43.386  13.970
97814W        W66032  10.186  44.065   4.722
97815W        W66033  21.126   5.455  10.545
97816W        W66034  39.139  42.879   1.309
97817W        W66035   8.335   2.671   0.889
97818W        W66036   0.363  39.330  10.925
97819W        W66037  32.887  25.701   2.980
97820W        W66038   9.702  14.602   2.885
97821W        W66039  20.553   7.498   3.277
97822W        W66040  24.802  35.987   0.236
97823W        W66041   5.854  27.559  14.475
97824W        W66042  13.455  30.500  12.973
97825W        W66043  34.869  35.016  12.119
97826W        W66044  29.045  29.462   3.272
97827W        W66045   9.280   3.677   1.633
97828W        W66046  37.631  26.746   3.708
97829W        W66047  26.074  27.722   3.050
97830W        W66048  37.470  43.317  10.732
97831W        W66049   3.360  36.336  14.290
97832W        W66050   9.933  38.487  12.003
97833W        W66051  15.182  25.560   4.381
97834W        W66052  31.849  13.453   4.465
97835W        W66053  14.861   0.720   1.279
97836W        W66054  34.874  26.675  12.334
97837W        W66055   4.429  21.710   3.592
97838W        W66056  38.837  14.259   1.876
97839W        W66057  25.976  43.102  13.426
97840W        W66058  28.100  43.892   1.458
97841W        W66059  11.066  22.605   0.013
97842W        W66060  27.929   8.368   0.913
97843W        W66061  24.011  14.818  10.676
97844W        W66062  38.023  41.508   3.755
97845W        W66063  14.665  41.813   2.195
97846W        W66064   8.874   4.212   2.229
97847W        W66065  38.121  19.610   3.267
97848W        W66066  28.629  10.318   4.114
97849W        W66067  43.758  37.123   2.893
97850W        W66068  40.980  18.891   0.922
97851W        W66069   0.943  25.960   1.306
97852W        W66070  15.384   6.779  10.419
97853W        W66071  11.574  16.975  10.146
97854W        W66072   4.962  10.199   1.392
97855W        W66073   1.273  23.693  13.804
97856W        W66074  41.015  15.309   2.391
97857W        W66075  43.000  26.752  11.698
97858W        W66076  38.838  39.967   3.187
97859W        W66077  42.542  15.106   2.314
97860W        W66078  23.973   2.013   0.101
97861W        W66079  27.573  26.375  11.180
97862W        W66080  39.770  34.436   0.246
97863W        W66081  28.313   8.786   2.744
97864W        W66082  35.156  30.957   3.652
97865W        W66083  18.748  11.922  14.242
97866W        W66084   3.346   2.452  14.403
97867W        W66085  30.146  40.503  14.419
97868W        W66086   9.230  42.941  10.155
97869W        W66087  43.737  20.738  12.371
97870W        W66088   6.688  29.164  11.677
97871W        W66089  31.092  31.126  12.997
97872W        W66090  16.623  30.452  14.742
97873W        W66091  44.030   7.360   3.891
97874W        W66092  26.781   4.131   2.257
97875W        W66093  17.216   0.494  13.947
97876W        W66094  39.313   1.397  13.480
97877W        W66095   7.749  29.038   3.713
97878W        W66096   3.558   5.244   3.322
97879W        W66097   6.857  33.060   4.598
97880W        W66098  27.570  29.665  12.493
97881W        W66099  21.671  26.894   0.014
97882W        W66100  25.779  11.371  11.182
97883W        W66101  16.037   8.945  12.079
97884W        W66102  30.667  33.073  11.679
97885W        W66103   8.835  22.025   1.016
97886W        W66104  31.617  16.733  14.794
97887W        W66105  17.260  42.618  12.236
97888W        W66106  34.129   8.192  11.529
97889W        W66107  37.917   5.248   3.188
97890W        W66108  13.604  12.798   0.917
97891W        W66109   5.120   0.723   2.420
97892W        W66110   8.421  30.460  14.047
97893W        W66111  28.333  31.550   0.828
97894W        W66112  41.256  26.664  13.051
97895W        W66113  21.667   7.475   3.939
97896W        W66114  43.747  36.244   1.070
97897W        W66115  25.073  17.779  13.846
97898W        W66116  22.489  38.486   4.849
97899W        W66117  43.463  26.957  14.025
97900W        W66118   7.062  34.096   1.070
97901W        W66119  17.614  19.171   1.837
97902W        W66120  36.073  35.313   0.377
97903W        W66121  44.229  44.246  14.956
97904W        W66122  41.252   4.656  13.555
97905W        W66123   6.334  37.443  10.431
97906W        W66124  22.649  40.789   2.612
97907W        W66125  12.130  30.461   0.043
97908W        W66126  19.609  43.649   3.199
97909W        W66127   8.240  21.394   4.175
97910W        W66128  36.468  12.840   0.895
97911W        W66129  42.034  14.925  13.254
97912W        W66130  30.306  15.359  10.436
97913W        W66131  12.308  27.720   2.437
97914W        W66132  27.720   8.927  11.979
97915W        W66133   6.218  11.614   3.196
97916W        W66134  43.856  11.119   2.345
97917W        W66135   2.200  29.062   1.695
97918W        W66136  11.580  36.775   1.758
97919W        W66137  42.810  16.789   3.772
97920W        W66138  33.873  24.618  11.997
97921W        W66139  22.268  14.191  13.822
97922W        W66140  18.274  43.805  11.099
97923W        W66141   5.317  18.513  10.795
97924W        W66142  10.443  35.513  13.302
97925W        W66143  44.960  11.782  12.976
97926W        W66144  40.492  39.116   4.628
97927W        W66145  16.567   5.918   3.682
97928W        W66146  11.684  16.306  14.373
97929W        W66147  19.708  23.176  11.033
97930W        W66148   5.363  19.768   1.297
97931W        W66149  39.773  20.010   2.663
97932W        W66150  42.867  39.437  12.024
97933W        W66151  13.398   4.287   2.215
97934W        W66152  11.789  36.894  11.652
97935W        W66153  17.763  36.086  14.064
97936W        W66154   9.797  20.970  12.478
97937W        W66155  16.105  33.367  13.736
97938W        W66156  17.738  12.094   0.310
97939W        W66157  18.149  37.663   4.119
97940W        W66158  40.808  14.845  14.448
97941W        W66159   2.780   4.476  13.332
97942W        W66160  34.866   8.270   3.841
97943W        W66161  14.954   7.639   1.695
97944W        W66162  31.601   1.274   5.516
97945W        W66163  43.222  31.271   4.820
97946W        W66164  22.276  13.127   0.340
97947W        W66165   2.776   5.181  14.067
97948W        W66166  16.759   1.808  14.770
97949W        W66167  28.746  25.402  10.710
97950W        W66168  23.471  20.311  14.738
97951W        W66169  14.646  34.045   3.341
97952W        W66170   7.227   5.343   1.616
97953W        W66171  24.142  17.145   2.437
97954W        W66172  31.841   2.866  10.063
97955W        W66173  37.984  14.040  11.087
97956W        W66174   9.863  40.546  10.507
97957W        W66175  40.037   6.453  12.576
97958W        W66176   5.642   4.779  11.189
97959W        W66177   9.344  26.614  13.961
97960W        W66178  19.336  43.762  12.432
97961W        W66179  39.024  27.429   1.717
97962W        W66180  28.146  42.929  13.825
97963W        W66181  31.913  43.279   2.392
97964W        W66182   1.005  40.737  12.070
97965W        W66183  20.598  44.031  10.409
97966W        W66184   0.872   4.868   4.666
97967W        W66185   6.302  12.773   3.694
97968W        W66186   5.647  21.077  13.780
97969W        W66187  32.516  29.638   2.162
97970W        W66188  23.704  43.348   4.670
97971W        W66189  17.183  23.582  14.848
97972W        W66190  43.403   9.648   4.136
97973W        W66191  40.306  32.114   3.804
97974W        W66192  37.587  18.378   1.962
97975W        W66193   4.792   4.852   3.178
97976W        W66194   9.383  21.481  13.388
97977W        W66195   2.688   1.721  11.753
97978W        W66196  28.840  15.621   0.468
97979W        W66197   0.828  29.523  11.593
97980W        W66198  33.075  34.452   3.762
97981W        W66199  14.333  24.149   4.177
97982W        W66200  22.724   3.796  13.007
97983W        W66201  33.436  36.177  11.967
97984W        W66202  25.803  34.381   3.117
97985W        W66203  14.174   6.136  11.951
97986W        W66204  17.168  34.617   2.324
97987W        W66205  38.079  24.954   3.757
97988W        W66206  22.722   1.811   2.808
97989W        W66207  40.649  20.772  12.141
97990W        W66208  31.326  20.847   1.903
97991W        W66209  32.835  19.619  11.077
97992W        W66210  17.065  29.570  12.165
97993W        W66211   9.473  19.846   9.528
97994W        W66212  34.505   1.960  11.640
97995W        W66213  41.286  10.179   0.120
97996W        W66214   0.365  25.853  13.500
97997W        W66215  25.697  32.608   4.118
97998W        W66216   1.285  13.291  12.056
97999W        W66217  40.005  28.275   4.170
98000W        W66218  26.333  37.491   2.529
98001W        W66219  43.348  17.622  11.505
98002W        W66220  28.081  13.624  14.279
98003W        W66221  40.868  43.220   0.465
98004W        W66222  15.657  26.971  14.763
98005W        W66223  40.495  34.948   3.785
98006W        W66224  38.552  40.555   4.660
98007W        W66225   4.164   6.922  14.362
98008W        W66226  16.932   4.471  13.361
98009W        W66227   2.834  23.091  12.521
98010W        W66228  18.539  25.692   4.520
98011W        W66229  37.845  42.901  13.124
98012W        W66230   4.946  17.848  12.124
98013W        W66231  25.992  33.420  12.033
98014W        W66232  29.946  15.261  14.312
98015W        W66233  42.028   0.212  11.765
98016W        W66234  40.788   0.718  11.895
98017W        W66235  14.575  34.987  13.969
98018W        W66236  30.682  35.464   1.748
98019W        W66237  35.086  20.095  10.380
98020W        W66238  23.728  20.741  13.541
98021W        W66239  27.572  22.321  13.071
98022W        W66240  18.681  23.518  10.611
98023W        W66241   6.340   7.178   0.846
98024W        W66242  10.891  36.041   3.611
98025W        W66243  19.150  25.201   2.709
98026W        W66244  24.089  23.156  12.404
98027W        W66245   7.309  39.908   2.309
98028W        W66246  32.136  36.572  14.514
98029W        W66247  32.547  44.717   2.885
98030W        W66248  24.701  29.571  11.054
98031W        W66249  14.328  14.123  12.556
98032W        W66250   7.572  13.138  11.982
98033W        W66251  31.886  13.823   3.543
98034W        W66252  20.975  14.141   0.078
98035W        W66253  13.608   7.694   3.853
98036W        W66254  18.001  38.810   1.852
98037W        W66255  18.317  18.696  14.828
98038W        W66256  19.157  35.949   0.435
98039W        W66257  44.029   3.672  11.132
98040W        W66258   3.895  18.542  14.430
98041W        W66259  11.377   5.424  14.917
98042W        W66260  22.768  29.640  14.457
98043W        W66261  15.980  36.646   4.060
98044W        W66262   9.795   9.753  13.919
98045W        W66263  33.650  26.572  14.395
98046W        W66264   4.403  42.916  14.664
98047W        W66265   0.126   5.465  10.577
98048W        W66266  10.045  31.879  14.998
98049W        W66267  37.925  37.326  10.632
98050W        W66268  17.046  17.111   1.364
98051W        W66269  28.720  30.438   1.526
98052W        W66270  42.937  39.303   2.714
98053W        W66271  30.593  31.561   4.588
98054W        W66272   5.703  17.100   0.406
98055W        W66273  44.794  27.906  10.431
98056W        W66274  29.976  25.933  12.115
98057W        W66275  16.238  42.385   4.597
98058W        W66276  24.578  42.784  11.264
98059W        W66277  37.826  39.472  13.807
98060W        W66278  10.668  19.294  11.236
98061W        W66279   1.688  10.239   4.354
98062W        W66280  21.164  15.130  13.613
98063W        W66281  42.935  28.656  12.834
98064W        W66282  17.271   1.512  11.570
98065W        W66283   6.231  30.971   0.373
98066W        W66284  30.637  22.538   0.653
98067W        W66285  28.252  30.547   1.764
98068W        W66286  29.147   4.946  10.601
98069W        W66287  32.608  37.400  11.052
98070W        W66288  16.501  18.840  11.399
98071W        W66289  13.904  21.050  10.192
98072W        W66290  33.976   1.886  14.034
98073W        W66291  44.423  23.679  11.369
98074W        W66292  14.220  20.431  14.924
98075W        W66293  10.860  30.194   4.151
98076W        W66294  41.560  20.992  11.084
98077W        W66295  13.088  36.025   2.766
98078W        W66296   7.035   4.698   3.513
98079W        W66297  23.263  37.515  12.140
98080W        W66298  44.028   3.634   4.950
98081W        W66299  33.530  43.826  11.971
98082W        W66300   9.286  15.566  14.786
98083W        W66301  42.908  41.171   2.286
98084W        W66302  32.389  35.360  12.851
98085W        W66303  36.144  22.822  12.506
98086W        W66304   2.832  22.624   1.903
98087W        W66305   2.158   6.409   2.728
98088W        W66306   9.264  24.187   4.550
98089W        W66307   8.168   2.815   4.418
98090W        W66308  23.162  44.000   0.279
98091W        W66309   4.345  22.975   2.198
98092W        W66310  15.255   7.601  13.449
98093W        W66311  12.405   7.774  12.089
98094W        W66312  24.029  20.131  12.746
98095W        W66313   2.013  36.438   2.727
98096W        W66314  14.115  44.270  11.663
98097W        W66315  22.495  27.920   2.242
98098W        W66316  44.211  39.993  11.174
98099W        W66317  30.353   5.761   2.244
98100W        W66318  19.134   7.591  14.845
98101W        W66319  27.569  31.936  13.967
98102W        W66320  44.192  41.504  13.846
98103W        W66321  25.671  34.571  11.520
98104W        W66322  41.990   9.103   2.766
98105W        W66323  38.878   8.322   3.180
98106W        W66324  32.909  37.498  12.174
98107W        W66325   6.203  42.699   0.863
98108W        W66326  39.056  44.447  10.644
98109W        W66327  21.763  16.173  10.870
98110W        W66328  17.119  25.420   4.625
98111W        W66329  20.164  16.616   4.806
98112W        W66330  23.785  32.908   2.804
98113W        W66331  13.247  12.818   0.238
98114W        W66332   5.474  40.618   5.299
98115W        W66333  40.236  33.499   3.727
98116W        W66334  11.791  14.589  10.659
98117W        W66335  26.564  29.406  11.069
98118W        W66336  30.650  22.891   1.059
98119W        W66337  43.499  36.799   1.199
98120W        W66338   0.327  23.001   1.293
98121W        W66339   4.288   3.871   4.355
98122W        W66340  38.402  43.362   3.610
98123W        W66341  20.818  39.514   2.170
98124W        W66342  20.198  42.450   1.748
98125W        W66343   0.330  42.498  13.731
98126W        W66344  13.824  20.470   2.604
98127W        W66345  28.147  26.969  11.607
98128W        W66346   5.154  23.520  12.352
98129W        W66347   1.885  17.220  13.526
98130W        W66348  20.729  12.349   1.264
98131W        W66349  27.188  23.774   4.056
98132W        W66350  39.033  12.854   0.965
98133W        W66351  24.576   0.529  10.583
98134W        W66352  26.051  43.474   0.421
98135W        W66353  44.901   7.020   4.150
98136W        W66354  27.205  30.546  13.922
98137W        W66355  42.546  14.531   2.448
98138W        W66356   1.237  11.870   2.450
98139W        W66357  28.741  33.111  11.000
98140W        W66358   6.988  18.254   2.990
98141W        W66359  23.260  18.150   4.044
98142W        W66360   7.168  23.869   0.308
98143W        W66361  38.057  12.665  11.932
98144W        W66362  35.211   1.227   3.678
98145W        W66363   3.319  13.058  11.931
98146W        W66364  40.947   8.383  14.348
98147W        W66365  42.370  23.168  14.945
98148W        W66366  22.551  29.374   3.649
98149W        W66367   1.346   4.542   3.496
98150W        W66368  33.931  26.905  11.535
98151W        W66369  29.539  42.018   0.813
98152W        W66370  12.701  22.996  14.891
98153W        W66371  24.730  43.772   1.436
98154W        W66372  38.840   5.051   1.777
98155W        W66373  29.174  17.540  12.914
98156W        W66374  16.334  39.860  11.557
98157W        W66375   8.661  26.300  13.540
98158W        W66376  21.499  13.923  14.257
98159W        W66377  15.133   5.146  11.720
98160W        W66378   6.382  18.324  13.324
98161W        W66379  37.553  16.189   0.733
98162W        W66380  33.591   1.932  12.088
98163W        W66381  43.358  42.408  11.988
98164W        W66382  38.039  28.428  13.918
98165W        W66383  33.908  44.502   4.396
98166W        W66384  42.414   7.822  10.818
98167W        W66385  43.807  27.535   2.460
98168W        W66386  14.258  13.091   2.289
98169W        W66387   7.939  41.352   3.003
98170W        W66388  29.423  35.455   0.328
98171W        W66389  34.517  32.729  13.488
98172W        W66390  14.279  13.171  14.276
98173W        W66391  42.268  43.820  10.642
98174W        W66392  23.641  35.586   3.418
98175W        W66393   6.381  28.173  11.407
98176W        W66394  22.064   2.481   0.866
98177W        W66395   7.932  25.155  14.237
98178W        W66396  40.307  37.345   1.892
98179W        W66397  13.074  25.701   3.734
98180W        W66398  33.494  27.433   2.299
98181W        W66399   8.702   7.143   0.743
98182W        W66400  17.737  25.662  10.721
98183W        W66401   6.892  42.777   4.526
98184W        W66402   9.669  22.243  14.305
98185W        W66403   6.368  38.489   1.756
98186W        W66404   7.387  35.511  11.535
98187W        W66405  33.134  29.836  13.079
98188W        W66406  23.407  25.746   2.776
98189W        W66407  20.763  25.491  14.276
98190W        W66408   8.384  16.090   3.692
98191W        W66409   7.277  15.801   0.749
98192W        W66410  21.052  20.043  11.937
98193W        W66411  18.006  25.975   0.927
98194W        W66412  24.993  27.879  10.830
98195W        W66413  27.121  34.851   3.210
98196W        W66414  44.381  31.147   3.557
98197W        W66415   7.015  14.535   3.139
98198W        W66416  25.565  22.726   2.669
98199W        W66417  32.544  18.552   2.192
98200W        W66418   3.353  14.271   4.884
98201W        W66419  34.423  25.064  10.406
98202W        W66420  39.398  32.291   0.482
98203W        W66421  42.929  35.520  11.518
98204W        W66422  37.351  24.222   2.894
98205W        W66423   0.323  42.293   3.144
98206W        W66424  20.276  13.345   4.579
98207W        W66425  10.667  20.055   4.058
98208W        W66426  13.736  38.526  14.839
98209W        W66427  30.470  39.597   4.083
98210W        W66428  30.897  44.957   4.462
98211W        W66429  15.243  33.452   2.348
98212W        W66430   3.635  28.603  11.963
98213W        W66431   2.910  39.801  10.504
98214W        W66432   8.287  11.067  14.314
98215W        W66433  21.509   8.182  10.712
98216W        W66434  30.210   6.251  12.392
98217W        W66435  21.828  31.468   0.728
98218W        W66436  37.532  32.374   3.682
98219W        W66437  17.572   2.796  14.459
98220W        W66438  13.072  33.902  14.156
98221W        W66439  14.892  44.974  13.288
98222W        W66440   4.001  22.077  11.932
98223W        W66441  19.362  41.229   2.733
98224W        W66442   6.979  37.801   1.743
98225W        W66443  20.891  33.485   9.894
98226W        W66444  12.433  12.899  10.975
98227W        W66445  28.457  15.949   2.670
98228W        W66446  44.478   4.026   3.197
98229W        W66447   4.855   8.303  14.231
98230W        W66448   3.743  26.004   0.335
98231W        W66449  29.934   2.125   4.910
98232W        W66450  10.852  14.211  13.446
98233W        W66451   8.875  36.879  14.061
98234W        W66452  13.653   0.030   2.366
98235W        W66453   8.208   9.755   1.718
98236W        W66454  22.830  43.521  11.616
98237W        W66455  38.911  25.884  14.439
98238W        W66456   1.463  20.528  11.174
98239W        W66457  15.593  13.661   4.173
98240W        W66458   5.538  22.254   3.323
98241W        W66459  20.322  25.732  10.614
98242W        W66460  37.000  19.532   1.468
98243W        W66461  34.830  26.559  11.860
98244W        W66462  24.465  22.278  11.234
98245W        W66463  20.074   5.397   0.906
98246W        W66464  12.684  13.648  10.470
98247W        W66465   1.906  43.863   3.414
98248W        W66466  26.984  28.002  12.387
98249W        W66467  18.038  15.886   9.679
98250W        W66468  35.832  35.407  11.803
98251W        W66469  40.834  19.072  13.858
98252W        W66470  32.469  27.537   0.607
98253W        W66471  24.783  40.161   3.118
98254W        W66472   3.884  28.020   1.196
98255W        W66473  39.416  28.194   1.942
98256W        W66474   9.328  38.331   3.681
98257W        W66475   4.465  28.591  12.858
98258W        W66476   4.568  27.563  13.632
98259W        W66477   4.868  19.886   0.891
98260W        W66478   4.881  34.835   3.726
98261W        W66479  10.578  28.500  11.134
98262W        W66480  28.520  44.963  14.252
98263W        W66481  40.875  40.775  14.285
98264W        W66482  24.301  28.631  13.457
98265W        W66483  11.732  31.191   3.113
98266W        W66484  44.252   6.638   2.265
98267W        W66485  44.341  40.919   2.217
98268W        W66486  40.882  13.890   2.271
98269W        W66487  24.223  28.706  12.579
98270W        W66488  28.199  11.440  13.523
98271W        W66489   5.245  12.149   0.245
98272W        W66490   1.812  13.379  12.014
98273W        W66491  36.434  24.536   0.651
98274W        W66492  13.647  41.761  14.464
98275W        W66493  11.185  13.814  13.728
98276W        W66494  27.212  11.055  10.373
98277W        W66495  39.258   8.266  14.488
98278W        W66496   4.898  24.395  11.173
98279W        W66497  29.430  31.209  13.621
98280W        W66498  23.571  19.562   0.437
98281W        W66499  11.359  33.544  12.553
98282W        W66500  18.199  36.465  11.590
98283W        W66501  19.622  16.285   1.420
98284W        W66502  18.218  33.922  12.998
98285W        W66503  44.070  43.863  11.882
98286W        W66504   2.217  43.375   1.431
98287W        W66505  43.825  22.769   4.556
98288W        W66506  22.944  24.745  14.732
98289W        W66507  14.709  25.471   3.676
98290W        W66508  29.138   2.323   1.811
98291W        W66509  35.153  34.125   3.498
98292W        W66510  13.098  23.707  12.831
98293W        W66511  23.025   3.199   2.245
98294W        W66512  28.242   6.641   3.677
98295W        W66513  41.316  14.196  13.812
98296W        W66514  14.390  30.564  14.601
98297W        W66515  21.945  35.822  12.020
98298W        W66516  44.792   4.997   3.326
98299W        W66517  44.468  36.638  12.938
98300W        W66518  28.018  23.676  11.972
98301W        W66519  15.067   2.892  10.714
98302W        W66520  25.516   5.948   3.662
98303W        W66521  20.131  27.882  13.355
98304W        W66522  31.229  42.014   3.685
98305W        W66523  29.398  25.498   1.224
98306W        W66524  41.461   9.615   3.689
98307W        W66525  13.371  15.365   4.105
98308W        W66526  33.554   1.427  14.337
98309W        W66527  41.219  18.676   2.789
98310W        W66528  19.994  38.430   0.330
98311W        W66529  11.258  43.330   1.106
98312W        W66530  19.893   1.747  14.493
98313W        W66531  31.869  15.689  14.352
98314W        W66532  16.023  39.321   0.472
98315W        W66533  40.586  24.944   1.918
98316W        W66534  27.307   1.160   4.548
98317W        W66535  18.819  14.283   1.774
98318W        W66536  13.823  12.658  10.971
98319W        W66537  19.698  44.777  10.757
98320W        W66538  42.266  15.380   2.801
98321W        W66539  29.867   7.331  11.992
98322W        W66540  39.316  41.407  13.549
98323W        W66541  18.777  14.812   0.772
98324W        W66542  16.756  36.222   1.230
98325W        W66543  22.681   7.271   0.525
98326W        W66544  12.861  18.895   1.919
98327W        W66545  41.287  28.458  11.514
98328W        W66546  38.105  11.305  12.957
98329W        W66547  43.542  30.604   4.568
98330W        W66548  22.228  35.978  10.684
98331W        W66549  38.939  17.295   0.295
98332W        W66550   2.024  37.348  10.617
98333W        W66551  13.557  18.904   4.175
98334W        W66552  29.238  16.124   3.390
98335W        W66553   9.919  35.478  13.320
98336W        W66554   1.719   2.223  12.971
98337W        W66555  14.177  17.332  11.250
98338W        W66556  17.165   7.642   2.670
98339W        W66557  37.021   0.827   4.384
98340W        W66558   5.309  39.014   4.594
98341W        W66559  15.054  38.056   3.091
98342W        W66560  14.699  42.256   4.329
98343W        W66561   6.349   1.645   5.101
98344W        W66562  21.676  26.956   3.680
98345W        W66563  28.145  22.070  10.828
98346W        W66564  28.225  20.988   0.522
98347W        W66565  27.901  23.555  13.442
98348W        W66566  12.203  33.856  11.503
98349W        W66567   2.237   7.748  13.323
98350W        W66568   8.337  32.079  13.516
98351W        W66569  14.528   9.367  12.594
98352W        W66570  31.169  40.757  12.613
98353W        W66571  35.414   4.923  11.629
98354W        W66572  18.167   5.265   1.774
98355W        W66573  13.755   5.220  10.686
98356W        W66574  35.644   0.878   1.865
98357W        W66575  10.710  21.252  14.771
98358W        W66576  33.254  40.303   0.520
98359W        W66577  36.767   9.710  11.636
98360W        W66578  43.402  40.040   2.373
98361W        W66579   1.081  42.388  11.424
98362W        W66580  41.028  33.189  11.887
98363W        W66581   9.690  41.429   2.203
98364W        W66582   6.954   2.355   4.098
98365W        W66583  42.466   1.988  12.421
98366W        W66584  33.380  10.882   1.366
98367W        W66585  31.318  11.468  13.173
98368W        W66586  29.699  30.493   1.215
98369W        W66587  39.927  25.718   2.467
98370W        W66588  24.035   7.756  12.896
98371W        W66589  30.420  32.127   5.097
98372W        W66590  10.774   7.842   1.704
98373W        W66591  26.146  43.979  13.976
98374W        W66592   6.805  19.514  11.430
98375W        W66593  39.421   9.198  14.432
98376W        W66594   4.698  27.104  13.351
98377W        W66595  18.619  21.782  14.906
98378W        W66596  36.100  17.752   0.417
98379W        W66597   2.743   4.550   2.771
98380W        W66598  32.515  10.831   1.262
98381W        W66599  32.968  27.485   0.444
98382W        W66600  26.870  25.979   2.295
98383W        W66601   5.884  28.138   1.695
98384W        W66602  12.641  20.033  11.397
98385W        W66603  30.007  27.671   0.977
98386W        W66604   8.059  17.400  12.210
98387W        W66605  28.743   5.289   2.691
98388W        W66606  29.410  32.046   2.903
98389W        W66607  28.530  19.652   0.603
98390W        W66608   5.479  41.748  11.733
98391W        W66609   6.524  30.157  12.858
98392W        W66610  44.418  44.913   4.428
98393W        W66611  22.883  21.019   3.988
98394W        W66612   4.645  22.809   3.727
98395W        W66613  34.758  43.042   2.214
98396W        W66614  40.869  32.555   0.296
98397W        W66615   3.722   1.322   4.050
98398W        W66616   5.254  25.934  10.593
98399W        W66617  13.266  40.338   3.372
98400W        W66618  11.257   1.497  13.611
98401W        W66619  40.387  31.611  12.627
98402W        W66620  41.808  10.925  14.309
98403W        W66621  27.409  25.699  14.537
98404W        W66622  10.409  10.253   2.130
98405W        W66623  37.048  42.418   1.796
98406W        W66624   6.888  11.354   2.711
98407W        W66625  24.600  11.225   1.315
98408W        W66626   6.650  35.263   0.464
98409W        W66627  22.482  20.980  11.942
98410W        W66628  36.546  25.675  14.030
98411W        W66629  41.801  36.620   0.823
98412W        W66630   4.474  25.921  13.533
98413W        W66631  12.177   4.828  10.470
98414W        W66632  23.284   2.183   2.350
98415W        W66633   4.892  13.050  11.868
98416W        W66634  44.472  13.835   4.933
98417W        W66635  20.790  34.171   2.911
98418W        W66636  30.101  21.178  10.323
98419W        W66637  39.367  13.012  13.400
98420W        W66638   8.797  26.565   4.606
98421W        W66639  10.446  35.816  10.703
98422W        W66640  12.795   3.679  13.316
98423W        W66641  15.887   2.930   2.734
98424W        W66642  21.858  21.103  14.405
98425W        W66643  36.316   9.860  10.408
98426W        W66644  41.604  39.247   1.751
98427W        W66645  42.486  21.309  12.321
98428W        W66646  30.063  35.419  14.040
98429W        W66647  43.488   4.332  14.203
98430W        W66648  13.805  25.616  10.676
98431W        W66649  39.102  16.343  13.099
98432W        W66650  24.531  28.048  11.564
98433W        W66651  39.385  27.115   2.913
98434W        W66652  36.622  39.764   3.254
98435W        W66653   1.360  39.453   3.589
98436W        W66654  19.213   4.753   3.940
98437W        W66655  32.012   5.117  11.147
98438W        W66656   7.392   8.135   2.193
98439W        W66657  21.237  25.467   0.642
98440W        W66658   7.245  43.663   0.917
98441W        W66659  14.172  37.108   0.780
98442W        W66660  39.507   3.441   3.162
98443W        W66661  31.644  36.892   1.375
98444W        W66662  30.531   9.337   1.450
98445W        W66663  26.173  41.867  12.926
98446W        W66664  11.089  20.754   0.546
98447W        W66665   4.356  40.933  13.428
98448W        W66666  15.214  23.793   0.956
98449W        W66667  40.437  36.975  10.842
98450W        W66668   0.271  33.418  12.314
98451W        W66669  26.712  23.536   4.075
98452W        W66670  23.192   4.683   2.685
98453W        W66671  28.627   7.831  14.987
98454W        W66672  19.234   0.426  11.939
98455W        W66673   2.425  36.062   4.075
98456W        W66674   0.289  10.288   2.321
98457W        W66675   6.951  10.738  14.267
98458W        W66676   4.771  42.001  14.487
98459W        W66677  37.060  43.954  11.239
98460W        W66678  36.839  20.321   2.055
98461W        W66679   6.281  11.083  12.217
98462W        W66680   6.864   2.339  14.959
98463W        W66681   0.383  24.884  13.674
98464W        W66682  25.103   4.668  12.033
98465W        W66683   1.482  22.054  12.973
98466W        W66684   2.387  30.425  10.568
98467W        W66685  20.053   2.788   2.834
98468W        W66686  42.360  21.640   2.589
98469W        W66687   5.196  16.300  12.808
98470W        W66688  34.868   3.658   3.775
98471W        W66689   0.867  28.438  12.520
98472W        W66690  24.782  21.237  12.450
98473W        W66691  10.829   5.699   1.163
98474W        W66692  13.363  15.262  14.434
98475W        W66693   5.067   6.520  10.611
98476W        W66694  16.554   3.938  11.144
98477W        W66695   3.504  37.476  14.313
98478W        W66696  35.662   3.757   1.645
98479W        W66697  12.828  42.798   5.020
98480W        W66698  24.038  31.821   3.504
98481W        W66699   2.616  34.664   3.774
98482W        W66700  14.834  40.393  10.447
98483W        W66701  41.571  12.840   2.486
98484W        W66702  38.320  44.223  14.510
98485W        W66703  37.650  15.132   3.878
98486W        W66704  27.236  26.104   2.730
98487W        W66705   8.899  10.531   3.118
98488W        W66706  21.622  15.139  13.360
98489W        W66707  43.753  24.750   1.569
98490W        W66708  18.218  18.703  13.239
98491W        W66709  43.678  43.778   0.752
98492W        W66710  34.996  17.169  14.034
98493W        W66711  18.425  14.625  13.320
98494W        W66712  18.297  35.446  13.861
98495W        W66713  43.335   9.706  12.021
98496W        W66714  25.629  33.500   4.626
98497W        W66715  38.904  32.025  14.054
98498W        W66716  31.017   8.844   2.005
98499W        W66717   0.756  41.044  11.564
98500W        W66718  43.224  22.178  11.099
98501W        W66719   3.876   4.051   0.213
98502W        W66720  31.568  15.858   1.900
98503W        W66721  26.666  41.525  13.097
98504W        W66722  29.942   3.036  13.326
98505W        W66723   4.276   9.061   0.323
98506W        W66724  44.391  20.341  13.452
98507W        W66725  30.118  32.495   4.885
98508W        W66726  21.851  13.994   0.693
98509W        W66727  32.137   7.379   4.501
98510W        W66728  22.295  13.355  12.005
98511W        W66729   1.726  40.766  14.822
98512W        W66730   0.420  25.740   3.761
98513W        W66731   6.811  16.161  11.546
98514W        W66732  33.864   9.233   4.617
98515W        W66733  28.871  25.501  13.440
98516W        W66734  44.406  37.410   4.186
98517W        W66735  10.802  31.069   4.482
98518W        W66736  20.474  35.183  12.888
98519W        W66737  10.279  14.024   4.279
98520W        W66738  33.492  43.779   1.850
98521W        W66739  10.969  19.211   3.655
98522W        W66740  34.077  16.678   0.395
98523W        W66741  14.335  34.476   1.735
98524W        W66742  29.558  25.379   3.085
98525W        W66743  43.739  37.180  13.125
98526W        W66744  41.222   6.774   4.596
98527W        W66745  18.245  21.668   3.256
98528W        W66746   7.444  15.583  13.423
98529W        W66747  35.882  13.468   3.738
98530W        W66748  28.428  23.736  11.617
98531W        W66749   8.961   5.322  13.241
98532W        W66750  36.515  14.955   2.373
98533W        W66751  14.745  21.133   4.494
98534W        W66752  21.660  18.593  12.443
98535W        W66753   1.801   7.257   0.913
98536W        W66754  12.100   6.285  13.345
98537W        W66755  31.338  14.162   4.291
98538W        W66756   8.260   2.204  11.163
98539W        W66757  11.717  37.946  10.237
98540W        W66758   5.311  31.606   0.920
98541W        W66759  11.442   4.569  12.544
98542W        W66760  34.861  13.016  10.841
98543W        W66761  36.525  27.632   4.027
98544W        W66762  22.619  20.407  13.377
98545W        W66763  10.243  16.286   4.098
98546W        W66764  10.182  26.283   4.144
98547W        W66765   3.497  32.642   2.228
98548W        W66766  38.638  41.208  12.920
98549W        W66767   4.253   7.544   2.865
98550W        W66768  15.949   8.401  13.987
98551W        W66769  20.663  25.563  13.413
98552W        W66770  22.874  27.121   1.797
98553W        W66771  15.317  26.906  14.377
98554W        W66772  23.823  35.179  10.695
98555W        W66773  31.892  24.860  11.949
98556W        W66774  34.478  11.456   0.167
98557W        W66775  24.237  40.475  11.117
98558W        W66776  16.390   1.178   1.855
98559W        W66777  42.339  13.680   4.333
98560W        W66778  13.190   8.290   2.557
98561W        W66779  42.305  39.788   3.973
98562W        W66780  24.327  34.873   5.118
98563W        W66781  19.994  13.258   3.098
98564W        W66782   5.839  33.075  11.202
98565W        W66783   6.159  29.709   4.013
98566W        W66784  21.550  16.309   2.750
98567W        W66785  13.835  44.040   0.226
98568W        W66786  27.338   2.201  12.476
98569W        W66787  33.579  27.053  14.855
98570W        W66788  13.112  17.303   4.510
98571W        W66789  34.881   3.669   1.317
98572W        W66790  27.700  44.896  11.571
98573W        W66791  11.091  42.398   2.653
98574W        W66792  26.857   8.522   2.605
98575W        W66793  19.977   6.176   4.888
98576W        W66794   7.660  26.258   4.188
98577W        W66795   0.459  10.307  12.583
98578W        W66796  28.077  33.938   0.930
98579W        W66797  24.998   5.025   0.833
98580W        W66798  17.037  40.282   3.144
98581W        W66799  33.602  44.848   3.227
98582W        W66800  25.411  40.537   3.411
98583W        W66801  39.354  23.139  10.603
98584W        W66802  40.482  25.939   0.228
98585W        W66803  31.760   8.889  12.910
98586W        W66804  38.985   2.681   1.451
98587W        W66805  42.092  21.430   2.174
98588W        W66806  11.254  30.348   2.709
98589W        W66807  13.581  44.301  11.663
98590W        W66808  23.096   8.922  11.812
98591W        W66809  33.957  34.623  13.388
98592W        W66810  33.547  20.872  12.132
98593W        W66811  27.559  43.385  14.484
98594W        W66812  40.547  28.768  13.387
98595W        W66813  27.586   6.399   2.753
98596W        W66814  11.563  31.578   2.442
98597W        W66815  36.315   0.505  14.520
98598W        W66816  32.408   6.990   9.849
98599W        W66817  27.288  40.480   4.201
98600W        W66818  38.779   3.023   0.658
98601W        W66819  30.797  40.943   3.682
98602W        W66820  21.492  35.683   2.906
98603W        W66821  24.127   1.488  13.458
98604W        W66822   7.116  43.428   4.719
98605W        W66823   5.396  20.335   2.677
98606W        W66824  15.283  39.318  13.059
98607W        W66825  19.081  17.894   0.349
98608W        W66826  42.801   2.255   3.234
98609W        W66827   5.381  18.957   2.987
98610W        W66828  31.857  32.523  14.662
98611W        W66829  20.724  15.172  13.885
98612W        W66830  36.385  41.346  13.473
98613W        W66831  34.035   7.918  14.939
98614W        W66832  40.008  44.225  12.221
98615W        W66833   6.429  29.416  14.389
98616W        W66834  27.535  19.263  11.587
98617W        W66835   4.090  34.678   0.963
98618W        W66836  39.273   5.221  11.728
98619W        W66837  15.482  24.598   4.534
98620W        W66838  38.372  30.074  13.007
98621W        W66839  23.621  37.630   2.218
98622W        W66840  15.013  23.171  14.945
98623W        W66841  43.263  34.556  14.656
98624W        W66842   2.322  33.969  14.033
98625W        W66843  14.746  40.819  11.029
98626W        W66844   7.894   5.788   3.712
98627W        W66845  10.075  21.986  13.023
98628W        W66846  10.158  37.492   3.635
98629W        W66847  27.993  19.323  10.947
98630W        W66848  28.633  15.292  14.067
98631W        W66849  34.439  25.755   3.218
98632W        W66850  33.340  37.985  13.786
98633W        W66851  41.917  11.213   1.691
98634W        W66852  40.859  34.815  13.032
98635W        W66853  44.546   2.433  14.500
98636W        W66854   2.679  21.720  12.999
98637W        W66855   7.746  36.701  12.197
98638W        W66856   7.339  25.497  14.549
98639W        W66857   5.671  17.202   5.461
98640W        W66858  32.863  20.196   0.976
98641W        W66859  37.887   8.861  14.133
98642W        W66860  28.057  41.297   0.979
98643W        W66861  26.688   2.082   1.511
98644W        W66862  17.591   3.881  11.253
98645W        W66863  44.848   2.545   3.815
98646W        W66864  41.065  11.768   3.783
98647W        W66865   8.655  33.332   1.108
98648W        W66866   3.238  24.901  12.919
98649W        W66867   9.905  39.362   0.851
98650W        W66868   5.615   0.213  10.987
98651W        W66869  22.549  10.729   2.210
98652W        W66870   6.719   9.365  12.576
98653W        W66871   6.950  13.884  11.595
98654W        W66872   5.822  30.394  13.531
98655W        W66873  36.331   2.037  12.414
98656W        W66874  10.119  43.817   2.100
98657W        W66875  36.156   0.090   4.634
98658W        W66876  11.261   9.323   3.574
98659W        W66877  12.867  28.091   3.378
98660W        W66878   1.465  43.842   0.284
98661W        W66879  16.126  36.565   0.460
98662W        W66880   3.389  15.467   2.712
98663W        W66881  42.586  38.011   4.352
98664W        W66882  15.182   4.960   4.223
98665W        W66883  17.414  26.547   4.970
98666W        W66884   9.668  32.375   3.189
98667W        W66885   3.489  39.476   2.207
98668W        W66886  38.789  23.963  12.864
98669W        W66887  13.868  33.576  13.553
98670W        W66888  18.256  23.845  14.328
98671W        W66889   2.309  22.676   4.211
98672W        W66890  17.083  19.984   4.646
98673W        W66891  22.589  11.231  14.555
98674W        W66892   1.478  40.108  12.671
98675W        W66893   3.372  22.519   1.173
98676W        W66894  11.069  23.507   0.339
98677W        W66895  11.125  15.839  13.885
98678W        W66896  38.440   6.785  14.507
98679W        W66897  37.514   2.455  13.548
98680W        W66898  26.552  37.006  12.937
98681W        W66899  14.956  17.601  10.708
98682W        W66900  10.803   5.649  12.970
98683W        W66901   6.221  35.168  12.469
98684W        W66902   6.751  28.839  12.565
98685W        W66903  25.431  41.937   0.244
98686W        W66904  41.896  11.924  12.103
98687W        W66905  15.343   0.223   0.397
98688W        W66906   7.286  35.481  14.396
98689W        W66907   1.982  21.254   4.544
98690W        W66908  32.642   0.279   4.177
98691W        W66909  20.063  33.346  11.319
98692W        W66910  13.828  24.059  13.001
98693W        W66911  43.304  44.720  14.903
98694W        W66912  29.447  24.944  13.827
98695W        W66913  37.884  32.508   0.521
98696W        W66914  31.568  30.377  11.134
98697W        W66915  29.747  31.460  11.914
98698W        W66916  30.533  42.697  12.760
98699W        W66917  38.816   5.868   0.343
98700W        W66918  22.973  15.327  11.555
98701W        W66919  30.159   5.729  13.449
98702W        W66920  18.842   2.630  14.283
98703W        W66921  10.539  22.675   0.023
98704W        W66922  44.871  14.262   3.250
98705W        W66923   6.361  24.212   0.820
98706W        W66924  26.568   5.294  14.035
98707W        W66925   1.524   9.296  13.370
98708W        W66926  33.794  29.123   0.632
98709W        W66927  31.649  36.120   3.238
98710W        W66928  18.717  41.916   2.969
98711W        W66929  32.154  23.261   2.282
98712W        W66930  20.474  26.578  13.555
98713W        W66931  16.596  10.258   3.156
98714W        W66932  31.990  42.866   0.845
98715W        W66933  22.995  18.134   4.493
98716W        W66934  38.552  16.612  12.278
98717W        W66935   0.360   6.085  12.822
98718W        W66936  39.261   9.925  10.714
98719W        W66937   7.763   4.251   4.700
98720W        W66938  12.411  25.017  12.973
98721W        W66939  26.721  19.082  12.008
98722W        W66940   3.298  31.836  14.934
98723W        W66941  25.040  23.006   0.294
98724W        W66942  37.114  10.388  12.653
98725W        W66943  25.579  23.199  11.147
98726W        W66944  29.601  18.885   0.922
98727W        W66945  28.926  33.055  14.998
98728W        W66946   5.133  37.908  10.721
98729W        W66947  40.139  44.041  11.366
98730W        W66948  17.726  21.695   3.296
98731W        W66949  18.308  29.999   1.245
98732W        W66950  34.476  34.453   2.180
98733W        W66951  37.609  14.347   2.780
98734W        W66952  42.120  26.964  11.245
98735W        W66953  24.764  37.751  13.515
98736W        W66954  29.600  39.057   3.215
98737W        W66955  40.052  15.406   4.324
98738W        W66956  19.613   4.330  14.366
98739W        W66957  27.428  23.673   1.280
98740W        W66958   2.160   4.677  13.611
98741W        W66959  41.446  41.267  14.788
98742W        W66960  19.564   1.297   2.272
98743W        W66961   4.468   9.886  10.722
98744W        W66962  19.955  17.591  10.147
98745W        W66963   5.290  20.976  13.370
98746W        W66964  33.709  25.488   4.533
98747W        W66965  29.078  42.273   0.924
98748W        W66966  37.152  28.459   4.394
98749W        W66967   1.784   7.127  12.834
98750W        W66968  33.877  30.921   0.271
98751W        W66969  20.469  19.070  14.781
98752W        W66970  26.854  27.863  10.682
98753W        W66971  38.640  11.222  12.093
98754W        W66972   0.206  27.666  12.487
98755W        W66973  24.884  38.198  13.892
98756W        W66974  24.980   8.243  14.866
98757W        W66975  25.423  28.649   3.848
98758W        W66976  21.194  39.026  13.874
98759W        W66977  11.649  39.486   3.739
98760W        W66978   9.125  23.482  13.010
98761W        W66979  32.654   2.681  14.230
98762W        W66980  18.886  30.636  13.013
98763W        W66981  18.877  17.368   2.686
98764W        W66982  28.027   8.875   1.188
98765W        W66983  25.156  14.411   2.789
98766W        W66984  42.750   8.795  13.423
98767W        W66985  41.505  37.546   4.877
98768W        W66986  18.315  27.133   1.292
98769W        W66987  25.802  37.779   0.432
98770W        W66988  42.407   9.249   0.010
98771W        W66989  28.961   0.842   0.480
98772W        W66990   9.990  36.385   0.326
98773W        W66991  34.345  38.532  14.352
98774W        W66992   9.273  42.856   4.109
98775W        W66993  25.560  26.382  11.468
98776W        W66994  40.128   6.980  12.567
98777W        W66995  33.578  15.230   3.907
98778W        W66996  36.454  41.949  10.675
98779W        W66997  22.343   8.506  13.525
98780W        W66998  29.875  32.125  12.061
98781W        W66999  13.705  35.610   4.113
98782W        W67000  42.598   3.660   2.630
98783W        W67001  23.075   8.506   5.245
98784W        W67002  12.779  43.435   0.986
98785W        W67003  11.551  33.589   4.799
98786W        W67004  29.127  25.162   4.651
98787W        W67005  28.726  25.103   3.243
98788W        W67006  36.374  36.823  14.747
98789W        W67007   3.679   0.177  11.566
98790W        W67008  13.893  12.425   2.147
98791W        W67009   1.767   9.683   2.203
98792W        W67010  31.126  43.277   3.772
98793W        W67011   2.940  41.880   4.797
98794W        W67012  42.224  36.689  11.219
98795W        W67013  41.812  44.976  13.105
98796W        W67014   3.419  34.984  10.668
98797W        W67015  17.865  12.777  10.730
98798W        W67016  23.487   0.363   1.763
98799W        W67017  30.458  29.387   4.231
98800W        W67018   5.500   3.359   5.011
98801W        W67019  41.618  14.773   4.974
98802W        W67020  12.224   9.218  10.662
98803W        W67021  26.225  39.928   3.736
98804W        W67022  38.063  35.082  11.492
98805W        W67023  15.650  17.059   1.987
98806W        W67024  41.063  19.829  12.485
98807W        W67025  27.498  39.644   4.078
98808W        W67026   7.393   7.769  13.955
98809W        W67027  41.027  42.525  14.834
98810W        W67028  20.689   0.274   1.762
98811W        W67029  31.181  18.237  12.152
98812W        W67030  28.696  42.609  11.141
98813W        W67031  21.566  41.480   0.405
98814W        W67032  44.690  35.819   0.854
98815W        W67033  39.437  23.952  12.133
98816W        W67034  23.661  36.354  14.106
98817W        W67035  35.399  14.881   4.552
98818W        W67036  13.978  27.721   2.791
98819W        W67037  31.370  33.719  14.133
98820W        W67038  30.329  23.326   4.361
98821W        W67039  17.787  17.069  14.827
98822W        W67040  37.746  18.118  12.709
98823W        W67041  34.344   1.968   2.675
98824W        W67042  39.965  41.028  13.923
98825W        W67043  30.940  34.911   4.129
98826W        W67044  13.366   0.285  11.162
98827W        W67045  16.829   0.829  14.714
98828W        W67046  38.392  33.982   3.707
98829W        W67047  36.917   4.271   1.516
98830W        W67048  38.959  22.498  14.680
98831W        W67049  27.203  34.020  11.950
98832W        W67050   3.947  37.550   2.247
98833W        W67051  33.287  21.231   3.146
98834W        W67052  11.939  27.126  14.006
98835W        W67053  19.994  30.857  10.586
98836W        W67054  31.410  25.490   3.389
98837W        W67055   1.944   3.414   3.198
98838W        W67056  19.375  37.636   4.190
98839W        W67057   0.331   9.699   4.686
98840W        W67058  14.254  43.642   2.269
98841W        W67059  13.486  11.300   4.146
98842W        W67060   3.440  16.349   2.188
98843W        W67061  18.584  33.103   1.465
98844W        W67062   8.727   3.037   0.147
98845W        W67063  13.747  31.877  10.967
98846W        W67064   1.216  30.105  12.080
98847W        W67065  12.693  25.917  12.595
98848W        W67066  29.856  24.081  14.064
98849W        W67067  42.315  17.581   3.174
98850W        W67068  11.661  35.987  13.056
98851W        W67069  37.362  32.035   1.280
98852W        W67070  11.812  24.238   0.720
98853W        W67071  21.428  11.041  12.956
98854W        W67072  20.992  23.444  13.445
98855W        W67073  36.316   4.092   3.193
98856W        W67074  23.821  28.663   4.289
98857W        W67075  15.350  33.008  10.662
98858W        W67076  11.770   0.286  12.625
98859W        W67077   3.547  17.298   2.884
98860W        W67078  13.570  38.455   2.002
98861W        W67079   5.652   9.900   1.673
98862W        W67080  43.266  41.691   1.843
98863W        W67081  11.666  25.752  13.613
98864W        W67082   9.530  16.615   1.664
98865W        W67083  16.197  38.053   3.896
98866W        W67084   5.380  18.577  12.505
98867W        W67085  38.836  28.133   0.971
98868W        W67086  20.752  18.588   4.585
98869W        W67087   0.858  34.010   3.835
98870W        W67088  31.731   9.680   0.389
98871W        W67089  19.226  37.512  13.799
98872W        W67090  33.509  27.102   2.710
98873W        W67091  34.892  29.257  12.089
98874W        W67092   7.354  26.128   0.891
98875W        W67093  33.047   7.312   1.371
98876W        W67094  44.926  40.296  12.416
98877W        W67095  31.674  16.736  13.913
98878W        W67096  15.339  40.477   1.786
98879W        W67097   0.901   0.836   1.967
98880W        W67098  18.567   0.471  11.238
98881W        W67099  19.532  41.888   0.083
98882W        W67100  43.857   0.535   2.308
98883W        W67101  35.289  43.881  11.574
98884W        W67102  17.220  15.647  10.447
98885W        W67103   5.770  22.542   4.233
98886W        W67104   9.945   1.247   3.683
98887W        W67105  40.325   1.928  11.682
98888W        W67106  18.626  19.619   2.761
98889W        W67107  44.434  36.500   3.716
98890W        W67108  34.421  29.127   4.571
98891W        W67109  12.210  32.332   0.848
98892W        W67110   8.882  36.286   3.581
98893W        W67111  42.400  35.680   2.723
98894W        W67112  10.817  16.942  11.707
98895W        W67113  27.596  24.912   4.193
98896W        W67114   2.301  28.396  11.953
98897W        W67115  30.808  26.297   0.322
98898W        W67116   6.391  33.026  11.127
98899W        W67117   3.344  11.881   4.334
98900W        W67118  17.269  44.991   2.566
98901W        W67119  13.670  43.056   0.378
98902W        W67120  33.362  19.149  13.558
98903W        W67121  16.329  23.090  14.437
98904W        W67122  37.417  38.794   3.357
98905W        W67123  15.982  31.440  11.889
98906W        W67124   9.113  26.867  12.915
98907W        W67125   8.438  42.196  12.200
98908W        W67126  16.525  35.316   3.318
98909W        W67127  10.452  26.968  12.985
98910W        W67128  43.436  37.938  11.523
98911W        W67129  14.001  15.306  12.524
98912W        W67130  36.322  41.112   4.293
98913W        W67131  33.054   2.885  10.923
98914W        W67132   5.272  11.649   0.048
98915W        W67133  22.305  37.147   3.185
98916W        W67134  33.401  37.489   4.146
98917W        W67135  18.990  36.017   3.239
98918W        W67136  27.202   8.374  11.231
98919W        W67137   5.068   5.682   0.207
98920W        W67138   0.283  15.471  12.159
98921W        W67139  12.325  24.009   4.942
98922W        W67140  37.755  32.540  12.578
98923W        W67141  29.071   2.815  10.278
98924W        W67142  36.140  44.455  14.073
98925W        W67143  27.220  23.569  12.653
98926W        W67144  16.601  17.275   1.133
98927W        W67145  10.914   1.736   5.069
98928W        W67146  19.340   7.003   4.067
98929W        W67147  31.159   3.374  13.849
98930W        W67148  22.440   8.462  14.846
98931W        W67149  44.283  13.076  10.335
98932W        W67150  17.312  19.162   2.715
98933W        W67151  14.074  10.859   1.794
98934W        W67152  33.287  14.280   0.841
98935W        W67153   7.460  18.772  12.053
98936W        W67154  24.161  25.687   3.069
98937W        W67155   3.258  29.783  14.783
98938W        W67156  12.145   6.353   1.666
98939W        W67157  34.495  39.773  11.371
98940W        W67158   7.555  21.550  10.649
98941W        W67159  15.267   0.187  12.399
98942W        W67160  22.454  25.530   3.897
98943W        W67161  35.832  35.107   4.149
98944W        W67162  17.262  14.593   0.721
98945W        W67163   4.278  33.971   2.465
98946W        W67164   9.236  15.906  10.589
98947W        W67165  39.929  28.129  11.599
98948W        W67166  13.573  18.190  14.414
98949W        W67167   8.361  18.382  10.233
98950W        W67168  44.414  37.257   2.803
98951W        W67169  41.839  18.308   1.760
98952W        W67170  24.534  17.691   3.213
98953W        W67171  17.711  33.910  11.147
98954W        W67172  22.831  13.624   1.882
98955W        W67173  13.166  28.556   4.594
98956W        W67174   4.896   0.558  14.024
98957W        W67175  36.741  12.630  10.776
98958W        W67176   4.350   5.725  14.994
98959W        W67177  29.752  22.327   2.243
98960W        W67178  27.319  42.492   2.647
98961W        W67179  21.253  25.887  11.872
98962W        W67180   3.260   1.374   4.582
98963W        W67181   0.405  17.352  11.130
98964W        W67182   1.112  17.557  11.100
98965W        W67183  29.468  27.511  14.546
98966W        W67184   3.699  37.436   2.700
98967W        W67185  12.528  26.506   1.327
98968W        W67186  42.234  40.530   2.677
98969W        W67187  13.379  12.683  11.890
98970W        W67188   2.357   2.826  13.006
98971W        W67189   6.764  10.688   3.279
98972W        W67190  40.538  20.970   2.400
98973W        W67191  19.706  21.315   4.192
98974W        W67192  19.641  42.985  12.472
98975W        W67193  34.143  28.896   0.958
98976W        W67194  17.074  16.071   1.623
98977W        W67195  36.574   2.271   2.342
98978W        W67196  34.929   5.717   2.617
98979W        W67197  35.371  31.568   4.856
98980W        W67198  32.053   9.220  13.269
98981W        W67199   1.996  10.694  14.518
98982W        W67200  24.157  44.109  14.844
98983W        W67201   9.815  44.866  14.971
98984W        W67202  11.087  43.915   5.495
98985W        W67203   5.871  39.886  12.977
98986W        W67204  13.728  18.194  12.263
98987W        W67205  13.819  26.189  12.097
98988W        W67206   1.997  14.158   4.106
98989W        W67207  16.784  21.069   2.648
98990W        W67208  33.522  26.548   2.635
98991W        W67209  18.294  36.856   2.791
98992W        W67210  32.030   8.777   0.549
98993W        W67211  42.451  28.611  12.662
98994W        W67212   3.851  15.202  14.861
98995W        W67213  26.198  23.112   2.016
98996W        W67214  43.828  20.696   4.567
98997W        W67215   9.435   1.300   3.640
98998W        W67216   1.577  17.172   2.813
98999W        W67217  16.766   6.277  12.128
99000W        W67218   5.424  19.847   0.246
99001W        W67219  17.572  26.367   2.347
99002W        W67220  21.552   7.194  12.279
99003W        W67221  18.618  10.210   4.825
99004W        W67222  38.944  12.113  11.727
99005W        W67223  30.466   0.425   2.283
99006W        W67224  44.747  26.292  13.988
99007W        W67225  32.005  43.195   1.869
99008W        W67226  20.805   0.969   4.610
99009W        W67227   8.331   0.723  14.813
99010W        W67228  33.980  26.461  12.156
99011W        W67229  37.866  44.232  14.863
99012W        W67230   3.334  32.865   2.686
99013W        W67231  34.348  22.598   2.647
99014W        W67232   5.124  40.057   3.530
99015W        W67233  18.839   0.407  14.492
99016W        W67234  15.712  32.622  13.337
99017W        W67235  26.822  41.944   0.428
99018W        W67236   7.286  25.575   3.193
99019W        W67237  18.601   6.827   0.883
99020W        W67238  24.606  12.912  14.035
99021W        W67239  14.090  28.921  11.166
99022W        W67240  21.576  28.453  14.771
99023W        W67241  28.520  11.361   4.129
99024W        W67242  12.916  30.489   3.788
99025W        W67243  11.670   7.962  11.465
99026W        W67244  13.827  24.283   4.118
99027W        W67245   2.208  24.609  11.030
99028W        W67246  14.117  16.520  14.509
99029W        W67247  16.192  22.003   3.854
99030W        W67248  17.373   7.265  11.648
99031W        W67249  10.722  37.775   0.212
99032W        W67250   8.230  15.177   2.795
99033W        W67251   0.934   5.209  13.956
99034W        W67252  34.527  28.140  11.592
99035W        W67253  32.844  20.505   4.236
99036W        W67254  34.289  34.437  12.991
99037W        W67255   8.888   3.162  12.863
99038W        W67256   6.965  24.541   2.374
99039W        W67257  40.999  42.236   0.256
99040W        W67258   3.954   0.410   3.146
99041W        W67259  44.396  37.564  14.854
99042W        W67260   3.466  24.581   0.760
99043W        W67261  11.318  15.105  13.363
99044W        W67262  33.966   6.112  12.021
99045W        W67263   6.417  33.676  12.430
99046W        W67264   7.108  14.588   4.968
99047W        W67265  38.004  30.883  12.966
99048W        W67266  27.091  22.472  12.980
99049W        W67267  31.027   9.389  10.496
99050W        W67268  12.230   3.773  14.833
99051W        W67269  14.536  40.879   2.350
99052W        W67270  14.376  40.074  14.174
99053W        W67271  19.413  42.477   3.167
99054W        W67272   9.352  15.747  11.470
99055W        W67273  19.152   5.161   3.621
99056W        W67274  20.077  35.438  14.063
99057W        W67275  11.349  39.821  11.665
99058W        W67276   6.838  35.852  12.936
99059W        W67277   8.893  20.747   0.011
99060W        W67278  22.680   3.665   4.839
99061W        W67279  10.832  26.956   3.409
99062W        W67280  32.157   2.694   3.990
99063W        W67281  14.542  19.702   4.978
99064W        W67282  33.678  12.227   4.058
99065W        W67283  35.484  24.005   1.642
99066W        W67284  31.737  12.177   4.280
99067W        W67285  27.990  27.596   0.947
99068W        W67286   7.396  21.260  11.614
99069W        W67287  11.976  36.156   3.818
99070W        W67288  18.266  39.902  10.883
99071W        W67289  10.889  34.539   2.758
99072W        W67290  11.244  22.255   0.380
99073W        W67291  35.939  36.111   4.599
99074W        W67292  11.614  24.039  13.423
99075W        W67293  41.889  34.655  13.966
99076W        W67294  41.915   1.555  12.009
99077W        W67295  17.257   5.720   3.196
99078W        W67296  16.458  40.384   1.756
99079W        W67297  25.547  14.333   4.047
99080W        W67298  22.985  25.130  13.083
99081W        W67299  31.464  35.477  14.373
99082W        W67300   9.414  20.598   3.232
99083W        W67301  16.229  37.396  12.502
99084W        W67302  10.789  26.002  13.822
99085W        W67303  36.155  24.932  11.979
99086W        W67304  23.021  13.010   0.029
99087W        W67305  44.947  21.173   4.569
99088W        W67306   2.159   9.592   3.199
99089W        W67307  30.981  10.404  11.553
99090W        W67308   5.038   2.594   0.694
99091W        W67309  38.052  18.287   0.725
99092W        W67310  34.352  21.729   3.776
99093W        W67311  37.107  16.349  13.842
99094W        W67312  38.640  15.423  13.417
99095W        W67313  22.105  22.502   4.392
99096W        W67314  22.522   5.708  11.588
99097W        W67315  40.228  22.240   0.023
99098W        W67316  35.627   0.317   2.660
99099W        W67317  16.559  23.053  10.717
99100W        W67318  21.649  16.173  11.613
99101W        W67319   2.282   1.132  12.026
99102W        W67320  37.826  19.106   3.083
99103W        W67321   5.260   6.848  11.414
99104W        W67322  28.035  34.611  11.106
99105W        W67323  29.139  44.244  14.291
99106W        W67324  30.691   6.419  12.365
99107W        W67325  11.266  33.367  14.951
99108W        W67326  43.504  31.704  13.016
99109W        W67327  31.380  37.530   3.277
99110W        W67328  34.009  36.489  12.751
99111W        W67329  15.329  12.652   4.094
99112W        W67330  19.295  34.395   3.779
99113W        W67331  13.153  32.727   0.808
99114W        W67332  37.453  38.833  10.685
99115W        W67333  43.578  11.331  14.502
99116W        W67334  19.824  37.425  12.884
99117W        W67335  12.578   5.361   2.857
99118W        W67336  10.181   0.328   1.255
99119W        W67337   3.451  14.137   1.915
99120W        W67338  22.531  18.277  10.903
99121W        W67339  43.933  20.368   3.279
99122W        W67340  25.701   5.665   4.047
99123W        W67341   0.386   5.006  10.691
99124W        W67342  37.154  42.862  14.930
99125W        W67343  13.424   5.199   1.689
99126W        W67344  28.744   2.916   4.627
99127W        W67345  26.158  22.012   9.856
99128W        W67346   3.099  16.164  11.643
99129W        W67347  11.079  33.546  14.084
99130W        W67348  18.111  39.001  10.855
99131W        W67349  26.898  33.595  11.920
99132W        W67350  22.620  40.187  10.459
99133W        W67351  41.975  15.730   2.447
99134W        W67352  11.074   0.509  14.391
99135W        W67353  22.638   4.187   0.368
99136W        W67354  22.617   7.266   1.519
99137W        W67355   0.773  23.990   4.947
99138W        W67356  39.297   7.254   0.962
99139W        W67357  24.248  11.286  13.151
99140W        W67358  17.592  37.666  12.501
99141W        W67359  15.638  20.046  13.455
99142W        W67360  36.857  18.497   4.574
99143W        W67361  19.525  40.004  14.085
99144W        W67362   0.004  22.028   2.772
99145W        W67363  17.775  41.222  13.865
99146W        W67364  44.754  44.070  12.822
99147W        W67365  13.156  10.307   0.372
99148W        W67366  32.641  41.841   2.975
99149W        W67367  36.415  30.985  14.452
99150W        W67368  26.648  17.763   1.778
99151W        W67369  35.358   0.150   3.086
99152W        W67370  26.865  14.262   1.631
99153W        W67371  12.206  28.696  10.635
99154W        W67372   5.755   7.487  14.153
99155W        W67373   7.948  39.998   3.721
99156W        W67374  14.072  24.995   1.093
99157W        W67375  34.046  28.609  11.982
99158W        W67376  14.841  34.586   1.767
99159W        W67377  43.947  26.993   4.099
99160W        W67378  15.984  18.165  11.535
99161W        W67379  34.163  44.557   1.786
99162W        W67380  44.636  35.032  12.981
99163W        W67381  42.693  36.916   4.422
99164W        W67382  40.917  22.959   2.316
99165W        W67383  36.524  44.730   1.825
99166W        W67384   6.432  42.161  11.795
99167W        W67385   1.695  14.576   4.136
99168W        W67386  14.461  41.381  13.422
99169W        W67387  13.403  21.703   2.308
99170W        W67388   8.339  36.942   3.187
99171W        W67389   7.653  22.674  14.960
99172W        W67390  42.887  40.046   0.916
99173W        W67391  16.644  13.944  12.054
99174W        W67392  11.530   4.281  11.466
99175W        W67393  19.600  10.860   0.427
99176W        W67394   8.380  31.276  13.951
99177W        W67395  16.068  22.185  12.618
99178W        W67396  38.350  35.913   3.803
99179W        W67397  12.792  27.469   1.195
99180W        W67398  16.766   9.720   2.443
99181W        W67399  29.003  13.734   4.362
99182W        W67400  14.077   6.186   3.835
99183W        W67401   0.903  32.437   4.547
99184W        W67402   7.217   9.376   4.337
99185W        W67403  34.676   8.363  12.216
99186W        W67404  43.709   4.276  13.463
99187W        W67405  37.783  25.008   2.856
99188W        W67406  14.623  30.657   4.152
99189W        W67407  18.116  34.539   2.503
99190W        W67408  16.869  20.565   1.798
99191W        W67409   8.304  40.632  11.957
99192W        W67410  38.510  29.593  12.199
99193W        W67411  36.886  19.100   4.682
99194W        W67412  21.466  25.641   4.093
99195W        W67413  30.012  31.046   0.712
99196W        W67414  13.185  42.427   0.796
99197W        W67415  25.988  10.600   4.208
99198W        W67416  12.657  41.427  13.334
99199W        W67417  11.143   2.794   2.267
99200W        W67418   7.305  30.467   1.199
99201W        W67419   0.368  34.349  13.062
99202W        W67420  39.924  24.117   4.694
99203W        W67421  32.035  20.712  10.184
99204W        W67422  16.611  11.411  11.080
99205W        W67423  37.968  21.513  12.045
99206W        W67424   6.920  26.573  12.471
99207W        W67425  18.688  43.815   0.403
99208W        W67426   1.123  12.153   0.398
99209W        W67427  11.150  18.773   4.786
99210W        W67428  23.002  20.545  13.993
99211W        W67429   4.151   0.985  14.333
99212W        W67430  15.225  32.551  12.958
99213W        W67431  32.013  22.352   0.224
99214W        W67432  28.602   0.180  12.888
99215W        W67433   6.501  19.679  12.487
99216W        W67434  42.409  39.856  14.534
99217W        W67435  25.890  25.015   3.375
99218W        W67436  13.291  16.011   1.802
99219W        W67437  19.741   4.462   1.856
99220W        W67438   2.324  41.891   4.548
99221W        W67439   9.089  37.538   4.862
99222W        W67440  28.097  24.520   2.804
99223W        W67441  20.118  22.176  13.353
99224W        W67442  33.541  32.583  10.643
99225W        W67443  17.085  11.945   3.608
99226W        W67444  16.220  30.984  14.243
99227W        W67445  39.365  22.059  10.614
99228W        W67446  38.430  29.423  10.826
99229W        W67447   5.853  36.216   1.208
99230W        W67448  37.536  20.587   2.384
99231W        W67449  10.782  16.175   1.266
99232W        W67450  28.765  41.779  13.803
99233W        W67451  20.489   6.268  14.884
99234W        W67452  23.012  33.082   1.337
99235W        W67453   5.719   6.757   3.779
99236W        W67454  27.962  21.736  13.437
99237W        W67455  38.296  10.904   2.709
99238W        W67456  35.954  18.241   0.217
99239W        W67457  11.434  19.273  12.442
99240W        W67458   8.803   8.576  11.680
99241W        W67459   5.878  43.328  14.208
99242W        W67460   9.807   5.233   3.056
99243W        W67461  22.202  38.340  12.130
99244W        W67462   9.755  23.094   0.900
99245W        W67463  37.755   5.930   1.252
99246W        W67464   3.624  34.872  11.404
99247W        W67465  43.953  37.529   2.658
99248W        W67466  21.976  39.367   4.188
99249W        W67467  24.134  19.432  13.451
99250W        W67468   9.901  20.034   0.502
99251W        W67469  29.588  23.274   5.074
99252W        W67470  35.457  14.177   0.350
99253W        W67471  13.921  39.006  14.975
99254W        W67472  14.196  10.677   4.238
99255W        W67473  20.614  29.345  12.482
99256W        W67474  25.087  17.948   1.692
99257W        W67475   9.399  25.101   1.971
99258W        W67476  35.600  10.769   1.898
99259W        W67477  10.291  22.539  11.420
99260W        W67478  23.167  13.203   2.677
99261W        W67479  15.272  27.171  13.062
99262W        W67480  31.932   0.921  11.262
99263W        W67481  42.260  25.189  13.299
99264W        W67482  13.512   3.974  11.964
99265W        W67483  29.115  18.734  14.768
99266W        W67484  33.123  31.525   1.271
99267W        W67485   8.590  44.788  13.470
99268W        W67486  38.544  28.627   0.242
99269W        W67487  41.636  41.875  10.996
99270W        W67488  34.855   9.860   3.494
99271W        W67489  13.719  12.875   4.740
99272W        W67490   2.767  22.118  13.542
99273W        W67491   6.208  37.183   5.045
99274W        W67492   3.702   6.451   4.825
99275W        W67493   2.336  41.748   2.442
99276W        W67494  18.824  34.427   1.305
99277W        W67495   7.144  28.006   0.381
99278W        W67496  22.525   2.696   0.503
99279W        W67497  37.419   8.848  14.382
99280W        W67498  16.949  24.014   2.291
99281W        W67499  28.217  38.569  13.333
99282W        W67500  43.145  13.512  13.409
99283W        W67501  26.693  29.020   2.300
99284W        W67502  44.355   3.785   0.015
99285W        W67503   7.484  29.528  10.623
99286W        W67504  35.002  35.669   4.552
99287W        W67505  26.246  30.250   3.413
99288W        W67506  30.002   6.119  12.835
99289W        W67507  20.747  18.811  13.737
99290W        W67508  43.421   7.774  11.999
99291W        W67509  16.211  32.002  14.418
99292W        W67510  38.030  33.518  13.502
99293W        W67511  25.585   7.936  13.412
99294W        W67512  37.540  40.612  14.432
99295W        W67513  40.037  22.128   2.671
99296W        W67514  31.522   8.660  11.523
99297W        W67515  13.538   2.864   0.227
99298W        W67516  20.566   9.188  11.023
99299W        W67517  10.420  36.031   3.895
99300W        W67518  26.614  43.563   4.092
99301W        W67519   0.506   9.485  13.295
99302W        W67520   6.864  34.704  13.471
99303W        W67521  27.502  35.451   4.005
99304W        W67522  23.013   5.307   2.589
99305W        W67523  38.471  17.541  14.636
99306W        W67524  36.584  23.613  11.380
99307W        W67525  28.375   5.706  11.170
99308W        W67526  40.136   0.436  11.653
99309W        W67527  30.005  20.579  14.382
99310W        W67528  26.696  26.239  11.281
99311W        W67529  33.413  10.578   2.343
99312W        W67530  38.645  28.551   3.984
99313W        W67531  19.689  38.430   3.285
99314W        W67532   8.862  14.726   3.199
99315W        W67533  10.912  35.009   2.963
99316W        W67534  18.533  29.483  12.866
99317W        W67535  10.873  31.418  12.575
99318W        W67536  21.347  17.552   3.237
99319W        W67537  15.281  19.482  11.996
99320W        W67538  36.960  25.394   0.722
99321W        W67539   1.793  11.656  13.351
99322W        W67540   6.992  41.465   3.730
99323W        W67541  21.696  27.021  10.766
99324W        W67542  17.830  11.260   3.795
99325W        W67543   7.714   1.799   4.641
99326W        W67544  19.652  24.428   4.876
99327W        W67545  39.775   6.262  13.615
99328W        W67546  43.004  37.363  14.381
99329W        W67547  36.402  10.792  10.651
99330W        W67548  35.933  31.956  14.441
99331W        W67549  42.021   0.740  11.648
99332W        W67550  37.423  27.880   1.776
99333W        W67551  13.119  42.138  13.660
99334W        W67552  14.657  33.833  14.669
99335W        W67553   0.829  30.479  12.251
99336W        W67554  16.247  15.910   4.477
99337W        W67555  16.110  13.468   3.091
99338W        W67556  19.185   8.268  13.639
99339W        W67557  15.512  37.467   4.618
99340W        W67558   9.153  27.973  11.861
99341W        W67559   0.719   8.836  12.603
99342W        W67560  41.040  35.044   2.330
99343W        W67561  27.453  40.779  14.363
99344W        W67562  21.637  24.814  10.659
99345W        W67563  34.698  36.126  14.012
99346W        W67564   6.633  42.317  14.940
99347W        W67565  26.010  40.087  12.486
99348W        W67566  23.405  35.632   0.919
99349W        W67567  25.528   5.195  12.555
99350W        W67568  34.520  32.608  14.449
99351W        W67569   6.240   3.601  13.944
99352W        W67570  18.697  43.437   2.442
99353W        W67571  22.657  22.633   1.940
99354W        W67572  10.778   3.635  14.832
99355W        W67573   5.339  18.129  13.427
99356W        W67574  23.120   2.348  14.391
99357W        W67575  28.954   6.845  11.474
99358W        W67576  23.367  44.060   1.780
99359W        W67577  34.354  35.587  13.362
99360W        W67578  34.161  35.858   2.446
99361W        W67579   2.770  35.908  14.969
99362W        W67580  18.770  22.155   4.738
99363W        W67581   8.848  14.797  12.774
99364W        W67582  43.710  34.434  12.458
99365W        W67583  33.591  44.963   2.292
99366W        W67584  32.922  43.782   3.647
99367W        W67585   7.709  27.639   4.442
99368W        W67586  13.166  40.540  11.301
99369W        W67587   9.655   9.212   0.011
99370W        W67588   6.414  23.692   0.046
99371W        W67589  32.394   7.127   4.139
99372W        W67590  23.383  18.105   0.330
99373W        W67591  27.144  33.106  13.898
99374W        W67592  12.681  12.318   2.932
99375W        W67593  43.721  44.975  12.844
99376W        W67594   7.255   8.877   0.792
99377W        W67595   2.049   4.895  14.480
99378W        W67596  22.216   5.623   4.048
99379W        W67597  17.561  14.169   1.181
99380W        W67598  32.537  17.733   4.471
99381W        W67599  10.640  43.390  12.883
99382W        W67600   5.601   4.033  10.940
99383W        W67601  35.548  20.727  11.303
99384W        W67602   2.301  38.280   2.608
99385W        W67603   9.820  41.190   4.604
99386W        W67604  44.415  33.591   1.369
99387W        W67605  35.295   5.710   0.857
99388W        W67606  20.628  13.548  10.630
99389W        W67607   1.875  37.068  14.439
99390W        W67608   7.592   0.422  14.095
99391W        W67609  15.714  31.985  12.540
99392W        W67610  38.280  21.508   3.574
99393W        W67611  17.006  42.136   2.656
99394W        W67612  39.936   1.599   5.324
99395W        W67613   8.769  41.879  10.663
99396W        W67614  30.433  28.671   0.012
99397W        W67615  31.017  18.680  11.911
99398W        W67616  14.192  38.365   4.914
99399W        W67617  36.831  29.115  10.648
99400W        W67618   1.665  16.319  14.025
99401W        W67619  31.532  33.439   3.006
99402W        W67620   8.978  16.417  14.856
99403W        W67621  26.410  38.803   2.738
99404W        W67622   8.852  11.148  11.504
99405W        W67623   4.123  33.327   1.770
99406W        W67624  40.724  24.241  14.950
99407W        W67625  28.604  24.764  11.671
99408W        W67626  28.172   3.408   0.044
99409W        W67627  26.744  36.481  13.915
99410W        W67628  41.812  31.546  13.740
99411W        W67629  13.370  19.939  12.944
99412W        W67630  40.899  27.048  12.932
99413W        W67631  18.492   2.278   2.427
99414W        W67632  41.993  17.714  13.924
99415W        W67633  30.252  13.745  13.337
99416W        W67634  37.584  17.228   4.524
99417W        W67635  10.473  29.054  10.622
99418W        W67636  12.128   6.441  12.449
99419W        W67637   5.676  32.538   0.711
99420W        W67638   9.926  13.109   2.212
99421W        W67639  31.217  35.104   3.727
99422W        W67640  15.721  18.614  11.091
99423W        W67641  28.985  44.682  13.582
99424W        W67642  16.070  14.011  13.991
99425W        W67643  23.245  24.069  14.994
99426W        W67644  31.695  21.277  11.469
99427W        W67645  26.781  15.175   1.828
99428W        W67646   9.691  21.758  11.687
99429W        W67647  18.636  36.374  11.058
99430W        W67648  12.300  22.084   0.834
99431W        W67649  30.480   4.650   1.268
99432W        W67650   4.841  30.924   0.903
99433W        W67651   5.159  37.880  14.161
99434W        W67652  21.947  26.947   3.245
99435W        W67653  22.588  33.911  14.444
99436W        W67654  41.065  15.387   0.981
99437W        W67655  44.722  38.285  11.614
99438W        W67656  38.408  25.581  11.403
99439W        W67657   4.506  42.773  11.084
99440W        W67658  31.842  36.906   2.712
99441W        W67659  26.795  13.523   3.029
99442W        W67660   7.641  35.825  12.595
99443W        W67661  39.641  44.259   1.383
99444W        W67662  13.418  23.126  12.745
99445W        W67663   1.413  11.410   2.352
99446W        W67664  11.834  37.850   4.317
99447W        W67665  11.456  27.013   1.122
99448W        W67666  36.516  39.063  13.299
99449W        W67667  28.975  42.020  12.791
99450W        W67668  12.681  12.789  13.953
99451W        W67669  34.762  32.529   3.888
99452W        W67670  39.010   8.491   0.872
99453W        W67671  28.150   9.129   3.456
99454W        W67672  37.817   0.076  11.632
99455W        W67673   4.205  10.840   1.173
99456W        W67674   6.278   3.849  12.940
99457W        W67675  25.310  43.733   2.006
99458W        W67676  27.611   4.198   0.053
99459W        W67677  42.948  21.106  12.481
99460W        W67678  12.926   2.124   2.195
99461W        W67679  27.213   1.383  11.735
99462W        W67680  13.131  23.496   1.649
99463W        W67681  30.843   4.167   3.179
99464W        W67682   7.619  36.773   1.339
99465W        W67683  35.401  22.581   4.184
99466W        W67684  17.091  16.199  12.432
99467W        W67685  27.342  40.532  10.726
99468W        W67686  23.493  34.353  10.708
99469W        W67687   3.309  41.525  10.517
99470W        W67688  41.517  16.778   0.954
99471W        W67689  41.260   9.129   3.705
99472W        W67690  32.367  11.316  11.337
99473W        W67691   3.661  29.576   3.067
99474W        W67692  12.165  19.091   4.369
99475W        W67693   8.374  39.338   1.747
99476W        W67694  36.763   5.990  13.240
99477W        W67695  38.023  24.490  13.588
99478W        W67696  14.771  16.918   4.158
99479W        W67697   2.287  31.105   0.900
99480W        W67698  14.132  44.372   4.128
99481W        W67699   5.845  14.826   1.722
99482W        W67700  23.475  17.586   0.335
99483W        W67701  39.434  26.917  11.900
99484W        W67702  14.625  25.628  13.831
99485W        W67703  38.702  22.660  12.544
99486W        W67704  27.500   8.258   3.856
99487W        W67705  38.878  30.070   2.269
99488W        W67706  44.223  37.570   2.205
99489W        W67707   5.281  21.678   1.504
99490W        W67708  34.580  33.503  13.858
99491W        W67709  43.548  32.491  11.071
99492W        W67710  41.711   7.833   3.260
99493W        W67711  33.459  44.383  13.366
99494W        W67712  39.800   8.578   3.850
99495W        W67713  39.503  38.298  14.245
99496W        W67714   2.188  10.509  10.494
99497W        W67715  13.332   5.189   2.256
99498W        W67716   7.364   2.229  14.850
99499W        W67717  26.337   3.964   4.648
99500W        W67718   3.882  37.907   4.258
99501W        W67719  42.490  24.741   4.145
99502W        W67720  28.225  21.147  12.436
99503W        W67721  31.639  42.296  11.198
99504W        W67722  16.133  10.159   4.386
99505W        W67723  36.182  43.284   0.438
99506W        W67724  26.643  32.361  14.069
99507W        W67725   5.026  37.698  11.617
99508W        W67726  27.435  42.358   3.702
99509W        W67727  21.085  15.435  14.566
99510W        W67728  21.835   9.272  14.929
99511W        W67729  35.100  37.978  11.197
99512W        W67730  33.424  21.624  14.341
99513W        W67731  10.054  32.618  13.026
99514W        W67732  21.836   6.834  11.995
99515W        W67733  18.812  24.670   3.782
99516W        W67734  44.558  20.455  11.048
99517W        W67735  14.938  15.866   4.420
99518W        W67736  24.449  31.401  10.451
99519W        W67737  28.057  15.325  12.110
99520W        W67738  40.749  17.276  11.551
99521W        W67739  14.285   3.430   2.301
99522W        W67740  31.246   8.921  12.760
99523W        W67741   6.063  34.896   2.289
99524W        W67742  27.265   7.428  12.515
99525W        W67743  18.146   9.446  11.170
99526W        W67744   6.458  36.572  10.905
99527W        W67745  28.425  43.486  14.473
99528W        W67746  11.385  31.727  14.295
99529W        W67747  37.961   8.268   3.371
99530W        W67748  23.962  11.142   1.675
99531W        W67749  35.039   1.527  12.086
99532W        W67750  41.347  11.323  14.046
99533W        W67751  15.725  25.880  12.859
99534W        W67752  15.687   1.675   1.680
99535W        W67753  32.172  24.225   3.086
99536W        W67754  27.373   1.967   1.399
99537W        W67755  36.327  42.898   5.064
99538W        W67756   4.836  39.031   0.544
99539W        W67757  21.030   3.551  11.621
99540W        W67758  17.306   8.795   0.505
99541W        W67759  22.798  37.185   1.332
99542W        W67760  30.375  16.840   0.952
99543W        W67761  39.051  40.837  14.109
99544W        W67762  19.292  32.194   2.011
99545W        W67763   2.638  15.999  12.523
99546W        W67764   7.911  19.180   3.654
99547W        W67765  27.674  16.603  13.478
99548W        W67766  14.680  31.181  13.135
99549W        W67767  39.776  32.541  14.318
99550W        W67768  32.145  31.511   1.217
99551W        W67769  12.211   0.597  11.927
99552W        W67770  11.199   6.319  14.519
99553W        W67771  22.436  40.365  13.450
99554W        W67772  35.491  36.424   0.119
99555W        W67773  24.289  17.702  14.379
99556W        W67774  36.233   0.501  12.478
99557W        W67775  32.029  29.969  14.912
99558W        W67776  35.507  21.637   4.653
99559W        W67777  42.259  21.659   1.673
99560W        W67778  32.336   1.994  12.048
99561W        W67779   8.286  43.192   3.790
99562W        W67780   9.122  30.933   2.124
99563W        W67781  36.882  28.446  13.260
99564W        W67782  35.142  26.440  14.205
99565W        W67783  40.348   7.285  14.921
99566W        W67784  27.195  10.710   3.435
99567W        W67785  16.339  41.036   1.385
99568W        W67786  40.800  24.486  11.130
99569W        W67787  42.398  40.798  11.872
99570W        W67788  34.188  40.307   3.681
99571W        W67789   0.545  33.031  14.617
99572W        W67790  15.801   2.554  10.950
99573W        W67791   3.858   4.321   4.408
99574W        W67792  39.593  16.575  12.366
99575W        W67793  38.365  41.242   4.066
99576W        W67794   0.042  16.288   1.894
99577W        W67795  39.404  22.457   0.349
99578W        W67796  16.336   0.378  13.083
99579W        W67797  20.007  31.530  11.179
99580W        W67798  35.498  23.297   2.716
99581W        W67799   4.365  29.642  11.539
99582W        W67800  38.365   1.356  11.660
99583W        W67801  31.171  31.979  13.815
99584W        W67802  39.784  40.681   2.738
99585W        W67803  24.800  12.210  12.856
99586W        W67804   0.600  18.315   1.938
99587W        W67805   8.968  25.602  14.918
99588W        W67806  12.884  39.542   1.533
99589W        W67807  17.609  15.122   1.366
99590W        W67808   3.605  12.195   3.259
99591W        W67809  19.206  18.332  12.605
99592W        W67810   6.141  35.658  12.329
99593W        W67811  31.586  11.427   0.751
99594W        W67812  11.850  39.773  12.383
99595W        W67813  29.563   7.937  11.290
99596W        W67814   5.800  37.452  11.025
99597W        W67815  44.803  27.064   4.086
99598W        W67816  26.743  17.093  13.022
99599W        W67817  12.288  13.833  12.073
99600W        W67818  19.938   7.893   4.846
99601W        W67819  14.717   0.015  13.798
99602W        W67820  39.820  28.294  12.075
99603W        W67821  39.866  30.403  13.749
99604W        W67822  23.250  17.272  11.164
99605W        W67823  44.823  44.791   4.711
99606W        W67824  23.309   2.268   4.686
99607W        W67825  33.387  30.933  14.381
99608W        W67826  25.122  13.720  13.539
99609W        W67827   9.315  14.544   5.349
99610W        W67828  30.095  21.548   2.882
99611W        W67829   3.055   0.504  10.513
99612W        W67830  20.579  23.528  13.154
99613W        W67831  37.578  16.853  11.948
99614W        W67832  20.772  25.949  14.014
99615W        W67833  13.060  12.767   0.777
99616W        W67834  44.533  11.382  14.180
99617W        W67835   3.261  33.688   3.120
99618W        W67836  14.690  10.435  13.411
99619W        W67837  19.001  37.365   4.416
99620W        W67838   4.780  14.199   2.218
99621W        W67839  38.707  24.424  13.068
99622W        W67840   3.658  28.481   1.938
99623W        W67841   7.365  24.790   2.191
99624W        W67842   6.153  36.089  12.617
99625W        W67843  11.694  10.382   2.890
99626W        W67844   1.939  39.310  12.476
99627W        W67845   4.208  27.166  14.864
99628W        W67846  29.527  23.194  12.523
99629W        W67847  34.505  29.894  13.328
99630W        W67848   9.882  38.769  11.168
99631W        W67849   2.741  23.178   3.796
99632W        W67850  34.991  35.423  12.398
99633W        W67851  25.686  38.337  14.838
99634W        W67852  32.117  37.340   2.620
99635W        W67853  42.790  33.176   0.746
99636W        W67854   8.852  21.440  13.110
99637W        W67855  23.506  41.003   4.609
99638W        W67856   1.357  42.999  13.623
99639W        W67857  18.646   6.906   3.369
99640W        W67858  12.862  34.965   0.342
99641W        W67859  34.444  31.355  14.538
99642W        W67860  24.154   9.612  11.586
99643W        W67861   7.464   9.485  14.494
99644W        W67862  16.095  40.763   1.765
99645W        W67863  10.860  19.185  13.501
99646W        W67864  26.433  15.082   0.466
99647W        W67865  33.194  34.373  13.876
99648W        W67866   5.426  32.078  11.553
99649W        W67867   5.930  21.729   1.821
99650W        W67868  26.986   1.741   2.394
99651W        W67869  14.711  30.206  14.332
99652W        W67870  19.445  31.058  11.516
99653W        W67871   3.324  12.865  13.513
99654W        W67872  23.567  44.887   3.720
99655W        W67873  10.204  11.307  12.874
99656W        W67874   5.719  24.215   1.212
99657W        W67875   9.013  13.153  14.565
99658W        W67876  41.013  11.664  12.052
99659W        W67877   6.731  12.640  13.363
99660W        W67878   9.786  27.210   2.338
99661W        W67879  44.900   3.054   3.750
99662W        W67880  11.885  42.044   1.735
99663W        W67881  39.431  34.481   1.490
99664W        W67882  27.700   4.306  14.548
99665W        W67883  38.355  32.712  13.147
99666W        W67884  23.273  20.643  11.822
99667W        W67885  28.112  35.915  11.842
99668W        W67886  30.543  16.243   2.797
99669W        W67887  34.537  42.821   4.263
99670W        W67888  13.656  30.885  12.654
99671W        W67889  31.048  22.679  14.305
99672W        W67890   2.074   0.841  13.018
99673W        W67891  39.876   8.787   0.661
99674W        W67892  28.969  39.923   4.471
99675W        W67893   3.493  23.672   4.804
99676W        W67894   5.244   8.130   1.072
99677W        W67895  35.108   8.711   4.587
99678W        W67896  11.185  10.688   4.636
99679W        W67897  30.405  13.695  12.839
99680W        W67898  30.423  20.480   4.546
99681W        W67899  39.624  35.926   3.613
99682W        W67900  11.789  30.336   4.076
99683W        W67901  22.504  18.140  12.288
99684W        W67902  10.354  16.199   5.062
99685W        W67903  10.040  13.844   0.878
99686W        W67904   8.443  25.707  14.880
99687W        W67905   5.403  36.472  12.541
99688W        W67906  16.721  21.658  11.685
99689W        W67907   7.326  33.840  13.310
99690W        W67908  19.647  10.754  12.405
99691W        W67909  31.583   5.743   1.015
99692W        W67910  15.771  15.550  14.019
99693W        W67911   0.970  10.767   0.296
99694W        W67912  33.475  39.755  11.022
99695W        W67913  25.153  19.652  12.582
99696W        W67914  26.479  11.256   2.544
99697W        W67915  10.115  37.944  12.519
99698W        W67916  29.946  17.600   9.487
99699W        W67917  19.984   6.145  11.894
99700W        W67918   4.191  13.297  11.188
99701W        W67919   3.300  41.014   2.131
99702W        W67920  13.802   8.647   4.863
99703W        W67921  15.830  36.513   2.801
99704W        W67922   4.838  18.651  12.529
99705W        W67923   3.063   9.192   0.647
99706W        W67924  14.804  12.860   4.990
99707W        W67925  42.233  25.749   1.797
99708W        W67926  25.710  10.481   3.250
99709W        W67927  19.586   4.824   0.445
99710W        W67928  36.155   0.946   1.389
99711W        W67929  26.160  33.514  13.974
99712W        W67930  15.358  12.899  10.392
99713W        W67931  43.743   5.280   1.987
99714W        W67932  42.052   7.330  14.740
99715W        W67933   7.408   3.349   2.218
99716W        W67934  22.800  41.381  13.418
99717W        W67935  10.334   6.728   1.651
99718W        W67936  20.454  21.510   0.457
99719W        W67937  15.536   3.815  13.036
99720W        W67938  15.176   7.170   1.506
99721W        W67939  40.593   1.847   0.863
99722W        W67940  41.782  39.280  14.519
99723W        W67941  28.492   0.414   3.042
99724W        W67942   1.792   4.355   3.309
99725W        W67943  27.900  26.544   1.418
99726W        W67944   3.337  14.382  10.818
99727W        W67945  34.818   8.842  14.557
99728W        W67946  30.020  34.668   4.529
99729W        W67947  32.766  26.242  11.321
99730W        W67948   5.879   5.301  13.412
99731W        W67949   1.293   2.030  10.732
99732W        W67950  28.328   4.042   0.278
99733W        W67951   3.626   0.418   0.368
99734W        W67952  25.215  17.897  11.529
99735W        W67953  37.824   0.982  12.903
99736W        W67954  16.117  12.893  11.102
99737W        W67955  11.119  25.835   0.437
99738W        W67956  43.428  23.618  11.208
99739W        W67957  27.022  10.414  11.999
99740W        W67958  17.655  17.565   3.146
99741W        W67959  24.639   0.391  11.561
99742W        W67960  12.647  35.150  14.889
99743W        W67961   2.129  21.214   3.571
99744W        W67962  20.961  25.250  10.246
99745W        W67963  14.366  20.573   2.827
99746W        W67964  40.097  24.526  11.470
99747W        W67965   2.863  19.141  11.730
99748W        W67966  27.033  12.718  14.314
99749W        W67967  29.543  12.231  14.031
99750W        W67968  32.673   4.838  12.045
99751W        W67969  39.577   3.208  12.851
99752W        W67970  38.482   7.471   1.679
99753W        W67971  33.599  17.832  11.887
99754W        W67972  38.019  36.051   4.168
99755W        W67973  17.671  18.099   0.967
99756W        W67974  30.590  10.819  11.535
99757W        W67975   6.122  24.253   4.043
99758W        W67976  11.951  39.910   0.396
99759W        W67977   9.664  43.341   4.547
99760W        W67978  25.153  37.259  14.396
99761W        W67979  18.586  15.962  11.128
99762W        W67980  15.269   8.783  13.437
99763W        W67981   7.776  30.103   3.082
99764W        W67982   5.306   0.696   4.844
99765W        W67983  31.183  22.276   2.257
99766W        W67984   6.671  36.326  12.840
99767W        W67985  11.624  35.313   1.272
99768W        W67986   9.868  16.461   2.858
99769W        W67987  17.675   7.706   4.371
99770W        W67988   3.921  35.170   0.284
99771W        W67989  24.994   9.373   2.862
99772W        W67990  26.630  26.306   4.171
99773W        W67991  38.121  44.961   4.242
99774W        W67992  20.267  14.580  11.888
99775W        W67993  16.556  15.309   0.606
99776W        W67994  31.504  13.306  13.775
99777W        W67995  18.545  12.117   4.871
99778W        W67996  44.013   7.351   0.066
99779W        W67997  16.537  15.540   2.864
99780W        W67998  10.140   6.404  14.371
99781W        W67999  16.752  43.221   4.786
99782W        W68000  40.430  44.205  12.977
99783W        W68001  29.457  32.882   4.617
99784W        W68002  29.303  10.109   3.210
99785W        W68003  17.171   3.550   2.817
99786W        W68004  26.049  14.081  14.276
99787W        W68005   4.362  12.884  12.996
99788W        W68006  24.030  33.641  10.676
99789W        W68007  10.381  13.826  12.650
99790W        W68008  41.430  11.851  14.721
99791W        W68009  24.147   6.283  11.146
99792W        W68010   4.661  30.943  13.932
99793W        W68011   0.371  27.170  13.817
99794W        W68012  43.694  37.850  12.363
99795W        W68013  18.584  43.089  13.242
99796W        W68014  27.705  44.499  12.112
99797W        W68015  14.310  16.345   2.119
99798W        W68016  13.429  32.120   1.205
99799W        W68017  37.997   7.644   3.223
99800W        W68018  35.648   8.708   0.832
99801W        W68019   2.721  21.149  14.431
99802W        W68020  40.440  28.461   4.379
99803W        W68021   8.948   7.864  13.972
99804W        W68022  15.331  36.443   1.493
99805W        W68023   8.074  44.815  13.604
99806W        W68024  15.472  12.596  14.835
99807W        W68025  35.418   2.779   4.051
99808W        W68026  16.923  24.162  13.765
99809W        W68027  30.630  37.599   5.159
99810W        W68028  32.835  29.189  13.963
99811W        W68029   7.897  16.565   2.885
99812W        W68030  32.299  36.354  12.507
99813W        W68031  15.500  20.255  10.571
99814W        W68032  25.380   5.849  10.787
99815W        W68033  21.204  31.422  11.607
99816W        W68034  24.177  35.625  14.411
99817W        W68035  17.049  16.272  14.193
99818W        W68036   5.790   0.007   4.119
99819W        W68037   0.737  40.463   2.703
99820W        W68038  13.566   9.401   4.332
99821W        W68039  12.235  41.444  11.131
99822W        W68040  27.946  16.612  12.663
99823W        W68041  41.054  15.292  13.463
99824W        W68042  41.473   4.840   1.654
99825W        W68043  11.776  41.404  11.414
99826W        W68044  11.544  16.124   9.675
99827W        W68045  32.572  37.605   2.677
99828W        W68046   8.624  41.645  12.109
99829W        W68047  41.431  18.857   4.246
99830W        W68048  20.864  37.545   0.289
99831W        W68049  20.281  13.752  13.550
99832W        W68050  32.039  24.235   3.591
99833W        W68051  38.948  39.149  10.483
99834W        W68052  16.457  30.379   3.916
99835W        W68053  44.789   9.191  11.244
99836W        W68054  32.708  29.566   3.082
99837W        W68055  10.798  36.531   3.750
99838W        W68056   8.428  39.860  13.297
99839W        W68057  37.552   0.679  14.093
99840W        W68058   2.740  18.196   3.792
99841W        W68059  24.463   8.188  12.316
99842W        W68060  30.021  32.640  12.180
99843W        W68061  36.519  37.245  10.787
99844W        W68062  12.897  27.588  11.248
99845W        W68063  25.164  37.086   3.723
99846W        W68064  17.698  12.977  14.088
99847W        W68065  29.993   2.949   2.837
99848W        W68066   8.409  39.895   0.398
99849W        W68067  44.517  43.550  14.599
99850W        W68068   2.756  39.358  10.746
99851W        W68069   1.492   6.435   1.475
99852W        W68070  40.966  20.624  11.257
99853W        W68071  34.880   4.815  11.645
99854W        W68072  39.758  30.655   3.285
99855W        W68073  21.260  39.604  14.536
99856W        W68074   5.612  23.066  11.737
99857W        W68075  28.199  34.609  12.888
99858W        W68076   8.275   2.271   1.720
99859W        W68077   9.844  22.561   2.316
99860W        W68078  40.964  43.230  11.969
99861W        W68079  32.300  19.104  13.494
99862W        W68080  19.030  25.151   0.932
99863W        W68081  39.900   9.212  10.731
99864W        W68082  12.437  14.570   4.571
99865W        W68083  24.169  36.929  11.602
99866W        W68084  24.134  28.114   2.190
99867W        W68085   5.331  24.155   3.196
99868W        W68086   1.341  31.199   3.353
99869W        W68087   8.270   6.359  10.773
99870W        W68088  24.085  24.114   4.980
99871W        W68089   3.388  44.749  11.542
99872W        W68090  12.597  16.326  11.122
99873W        W68091   7.740  26.704  11.129
99874W        W68092  16.521  31.114   3.706
99875W        W68093  26.607  26.101  14.750
99876W        W68094  40.313  12.747  12.534
99877W        W68095  42.970  32.264  12.438
99878W        W68096  37.718  32.064  13.364
99879W        W68097  33.385   2.968   0.763
99880W        W68098  21.894  43.343   1.841
99881W        W68099   8.176  16.487   2.357
99882W        W68100  39.774   5.903   3.245
99883W        W68101  43.961   8.877  14.743
99884W        W68102  31.109  15.584   3.359
99885W        W68103   7.583  21.074  14.790
99886W        W68104   2.671  15.101  12.476
99887W        W68105   4.248  27.835   0.429
99888W        W68106   3.279   7.242  14.280
99889W        W68107   0.439   7.587  12.866
99890W        W68108  24.503  24.446   1.976
99891W        W68109  38.955  37.592   4.446
99892W        W68110  41.979  14.046   0.938
99893W        W68111   8.571  35.992   0.654
99894W        W68112  36.121  34.101   2.300
99895W        W68113  25.542   6.792   4.194
99896W        W68114  43.569  35.449   2.655
99897W        W68115  13.192  43.921   1.967
99898W        W68116  17.107  15.122  11.617
99899W        W68117  24.674  37.779   0.834
99900W        W68118  23.637  37.712   0.369
99901W        W68119  28.148   9.372   1.373
99902W        W68120  19.039  23.060   2.201
99903W        W68121  19.605  26.944   0.376
99904W        W68122   4.114  22.180   1.016
99905W        W68123   6.249   7.682  14.014
99906W        W68124  38.833  42.405   3.586
99907W        W68125  33.884  31.074  10.323
99908W        W68126  29.091   2.934  13.284
99909W        W68127  43.295  17.648   3.621
99910W        W68128  22.651   4.685  11.453
99911W        W68129  23.069  22.598  13.986
99912W        W68130   9.237  42.788   3.256
99913W        W68131  37.769  13.798   0.358
99914W        W68132  40.066  21.334  13.459
99915W        W68133  43.455  37.323   1.089
99916W        W68134  26.401   4.453  13.722
99917W        W68135   4.647  39.885  13.990
99918W        W68136  39.605  14.326  10.563
99919W        W68137  24.345  19.134  11.564
99920W        W68138   1.329   2.043   3.383
99921W        W68139  20.800   8.859  11.844
99922W        W68140  35.925  24.994   4.100
99923W        W68141  43.769  19.101  13.825
99924W        W68142  12.594  42.976  10.307
99925W        W68143  33.254  33.589  13.376
99926W        W68144   4.219   9.331   2.772
99927W        W68145   5.961  24.542   0.888
99928W        W68146  22.188  42.772  13.465
99929W        W68147  42.553  12.219   4.516
99930W        W68148  27.010  15.322   1.302
99931W        W68149  43.204  18.568   0.885
99932W        W68150  29.561  20.371   3.737
99933W        W68151  39.551  18.070   1.796
99934W        W68152   8.297  25.539   4.315
99935W        W68153   0.727  43.073   3.236
99936W        W68154  42.991  19.586  11.504
99937W        W68155  23.103  37.325   9.493
99938W        W68156  13.609   1.296  14.597
99939W        W68157  11.663  22.041  14.554
99940W        W68158  24.624  14.831   2.166
99941W        W68159  36.911  38.825   3.580
99942W        W68160  29.904  40.882   2.120
99943W        W68161  13.046  33.480  13.822
99944W        W68162  19.522  15.971   3.881
99945W        W68163  21.763  24.641   2.760
99946W        W68164  33.898  35.608   1.997
99947W        W68165  21.658  40.039   2.773
99948W        W68166  43.573  13.787  12.678
99949W        W68167   0.860  44.804  14.211
99950W        W68168  34.846   1.232  11.419
99951W        W68169  42.205  34.644   0.812
99952W        W68170  42.571  17.164   3.418
99953W        W68171   1.979  27.180  10.667
99954W        W68172  36.390   9.778   3.388
99955W        W68173   6.945  38.573   0.717
99956W        W68174  19.640   9.257  11.113
99957W        W68175  23.292  24.702   3.725
99958W        W68176  43.803  32.175  12.402
99959W        W68177  23.711  16.074  13.538
99960W        W68178  44.970  34.888   4.346
99961W        W68179  35.813  15.656   0.487
99962W        W68180  36.429  13.809  14.426
99963W        W68181  31.855  24.015   1.717
99964W        W68182  43.365   1.965  14.264
99965W        W68183   4.671   8.928   5.049
99966W        W68184  21.637  41.903  14.232
99967W        W68185  38.824  21.977  11.106
99968W        W68186  16.903  16.337   0.995
99969W        W68187  32.925  13.253   1.880
99970W        W68188  27.932  17.983  14.416
99971W        W68189  27.495  27.593  14.516
99972W        W68190  13.086  21.735  12.857
99973W        W68191  12.286  29.280  13.463
99974W        W68192  24.990  18.147   1.214
99975W        W68193  31.051   9.332  11.351
99976W        W68194  10.380  32.197  10.682
99977W        W68195  31.979  43.578  12.219
99978W        W68196  24.702  22.084   2.362
99979W        W68197  17.202  30.641  10.667
99980W        W68198  16.061  21.263   0.556
99981W        W68199  13.835  18.592  11.493
99982W        W68200   4.699  21.031  11.233
99983W        W68201   3.284  14.719  11.199
99984W        W68202  36.062  30.640  10.774
99985W        W68203   5.435   1.296  13.815
99986W        W68204   7.485  19.946   1.748
99987W        W68205  37.592  28.618   2.199
99988W        W68206  37.875   7.241  12.892
99989W        W68207  14.993   8.547   0.002
99990W        W68208  25.359  44.742   2.801
99991W        W68209  39.028  37.598   2.398
99992W        W68210  32.019   5.562  11.426
99993W        W68211  25.564   2.988   1.298
99994W        W68212  34.574   8.643   3.175
99995W        W68213  27.525  12.154  13.278
99996W        W68214  14.159  24.981  12.012
99997W        W68215  36.656  18.693  11.888
99998W        W68216  23.697  11.304   2.789
99999W        W68217  14.632  24.751   0.099
    0W        W68218   2.280  29.407  13.515
    1W        W68219  12.507  27.462  14.784
    2W        W68220  25.201   7.345   2.672
    3W        W68221   6.272  35.241   2.609
    4W        W68222  38.678  39.793   0.999
    5W        W68223  30.890  24.154   4.544
    6W        W68224   6.538  10.708  11.518
    7W        W68225  40.622  34.562  13.406
    8W        W68226   4.629  15.056  13.978
    9W        W68227  11.131  43.860   2.203
   10W        W68228  30.407  36.037   1.866
   11W        W68229  24.268  36.514   9.883
   12W        W68230  43.608  41.375   2.744
   13W        W68231  30.006  32.680   2.268
   14W        W68232  33.681   4.331   1.397
   15W        W68233  42.508   3.869   1.207
   16W        W68234   8.055   9.283   1.920
   17W        W68235   8.133  19.645  14.758
   18W        W68236  22.608  40.100   3.193
   19W        W68237   7.351   1.868  14.388
   20W        W68238  39.446   9.209  12.542
   21W        W68239   3.739  26.972   3.810
   22W        W68240  42.785  43.947   2.770
   23W        W68241  41.292  18.811   0.428
   24W        W68242  35.855  36.272  12.844
   25W        W68243  24.246  39.315  13.482
   26W        W68244  16.257  19.046   0.322
   27W        W68245  35.974   2.553  12.329
   28W        W68246  21.767   2.085  12.385
   29W        W68247  11.281  26.299   2.212
   30W        W68248  15.726   0.479   2.157
   31W        W68249   9.121   2.843   4.310
   32W        W68250  25.250  24.037   2.237
   33W        W68251  23.567  37.950   1.806
   34W        W68252  17.151   8.742  13.963
   35W        W68253  21.173  28.705   2.221
   36W        W68254  44.316  16.485   4.798
   37W        W68255  10.142  32.653  13.534
   38W        W68256  23.748  18.090   1.823
   39W        W68257   2.433  16.833  10.450
   40W        W68258  21.610  35.702   3.943
   41W        W68259  23.507  10.069  12.530
   42W        W68260   7.303   6.754   4.781
   43W        W68261   0.360  24.040   0.478
   44W        W68262  30.231   6.827   1.669
   45W        W68263   0.746  37.052   1.128
   46W        W68264  24.015  17.242  13.073
   47W        W68265  11.081   8.940  11.250
   48W        W68266  35.210  17.486   3.225
   49W        W68267   4.318  44.727   1.032
   50W        W68268  21.983  27.092   2.329
   51W        W68269   0.764  11.092  11.553
   52W        W68270  13.102  31.000   0.330
   53W        W68271  18.479  30.390   5.112
   54W        W68272  25.995  34.041   0.483
   55W        W68273  40.875  13.259   1.469
   56W        W68274  11.763  14.378   3.247
   57W        W68275  10.691  44.956   1.985
   58W        W68276   7.573   2.345  14.398
   59W        W68277  22.612   0.502  10.472
   60W        W68278  41.800  30.341   3.292
   61W        W68279  40.570  40.267  10.425
   62W        W68280  32.650  16.315   0.341
   63W        W68281   8.296  18.285  12.475
   64W        W68282  20.348   1.630  14.729
   65W        W68283   4.781  25.137   0.538
   66W        W68284  34.870   0.734  13.395
   67W        W68285  26.741  32.071   4.929
   68W        W68286  17.828  27.995   3.103
   69W        W68287  18.763  21.093   2.808
   70W        W68288  30.991  32.579  10.936
   71W        W68289   7.936  32.911  11.405
   72W        W68290  32.675  17.793   3.950
   73W        W68291  30.361   5.210   3.644
   74W        W68292  32.913   2.072   2.809
   75W        W68293  35.139   2.466  13.798
   76W        W68294  30.333  23.011   1.653
   77W        W68295  44.062  42.783   2.693
   78W        W68296   6.828  44.009  10.946
   79W        W68297  34.977  13.361   1.275
   80W        W68298  33.097  14.329  11.555
   81W        W68299  19.532  16.321   3.515
   82W        W68300  25.319  11.319   3.275
   83W        W68301  19.177  36.117  13.836
   84W        W68302  14.694  31.652   0.337
   85W        W68303  34.983  40.983   4.927
   86W        W68304  20.637  40.322   0.311
   87W        W68305  27.498  33.575   2.213
   88W        W68306  29.294  41.891   4.550
   89W        W68307   1.307  12.271  11.394
   90W        W68308  41.525  17.172  11.135
   91W        W68309  11.737  17.018   0.709
   92W        W68310  43.361   1.990   0.423
   93W        W68311  37.161  25.822  14.791
   94W        W68312  20.565   4.505   3.323
   95W        W68313  29.257  34.809  11.641
   96W        W68314  30.385  34.412   3.669
   97W        W68315   3.663   9.977  12.774
   98W        W68316  20.121  34.079   4.089
   99W        W68317  19.745  37.332   1.973
  100W        W68318  41.308  18.342   2.393
  101W        W68319  26.468  25.228  13.470
  102W        W68320  28.832  30.759  11.092
  103W        W68321  44.691   8.753  12.601
  104W        W68322  16.274  17.304  11.420
  105W        W68323  28.780  13.689  13.485
  106W        W68324  43.193  21.290   1.421
  107W        W68325   4.477  39.584   3.717
  108W        W68326  31.125  22.478   4.187
  109W        W68327   5.729  35.117  14.130
  110W        W68328  41.295   9.143  13.496
  111W        W68329  27.697  41.633  14.135
  112W        W68330  27.650  18.376   0.615
  113W        W68331  41.722  37.454   2.410
  114W        W68332   7.654  20.040  12.974
  115W        W68333   9.794  27.998   4.600
  116W        W68334  40.955  12.883   1.085
  117W        W68335   1.790  33.808  12.005
  118W        W68336  19.202  23.761  14.362
  119W        W68337   6.383  14.084   4.009
  120W        W68338  42.528  19.737   3.178
  121W        W68339  17.709  42.799  12.041
  122W        W68340  37.405  13.100  14.855
  123W        W68341  28.582  13.121  13.031
  124W        W68342  19.167  40.517   2.007
  125W        W68343  37.955  23.988  13.405
  126W        W68344   1.602  34.141   0.808
  127W        W68345  31.713  29.398  12.064
  128W        W68346   0.235  23.523  10.663
  129W        W68347  32.925  15.128   2.272
  130W        W68348  39.541  31.249  14.307
  131W        W68349  38.107  23.996   2.313
  132W        W68350  34.098  18.548   3.218
  133W        W68351  27.057   6.560   2.783
  134W        W68352  37.494   9.866   1.493
  135W        W68353  30.839  29.411  14.900
  136W        W68354   3.257   9.619   0.263
  137W        W68355  11.624  29.850  11.785
  138W        W68356  31.004  20.497   1.649
  139W        W68357  38.966  15.491  14.873
  140W        W68358  44.321   6.526  14.387
  141W        W68359  35.518  15.860   1.629
  142W        W68360  31.643  21.222  14.831
  143W        W68361  14.673   1.061   4.542
  144W        W68362  20.244  17.144  11.856
  145W        W68363  17.640  21.734  13.864
  146W        W68364  37.791  27.126   1.383
  147W        W68365  32.164  41.222   0.718
  148W        W68366  44.344   2.239   0.879
  149W        W68367   9.923  30.877   0.081
  150W        W68368  34.178  33.452  14.852
  151W        W68369   0.822  10.408   1.005
  152W        W68370   8.202   6.196   3.733
  153W        W68371   0.322  32.408  11.180
  154W        W68372  21.969  43.950  12.977
  155W        W68373  18.497  39.314   4.288
  156W        W68374   0.745  30.537   1.768
  157W        W68375   9.403  12.891  12.027
  158W        W68376  40.412  41.076  11.034
  159W        W68377  13.366  43.307   4.431
  160W        W68378   2.633  17.098  14.853
  161W        W68379  21.798   9.792  12.760
  162W        W68380  29.015  26.661  12.366
  163W        W68381  42.695   4.749   3.102
  164W        W68382  30.096  14.259   2.881
  165W        W68383  16.636  27.022   4.597
  166W        W68384  33.536   0.305   0.432
  167W        W68385   8.730  21.646  12.182
  168W        W68386  30.489  41.568   1.376
  169W        W68387  28.513  36.550  11.429
  170W        W68388  28.003   2.551  12.865
  171W        W68389   7.647  31.596  11.206
  172W        W68390  11.886  43.754   1.819
  173W        W68391  35.901   0.144   4.170
  174W        W68392  14.313  42.320  11.128
  175W        W68393  24.146  17.556   1.432
  176W        W68394   6.255  34.392  11.129
  177W        W68395  14.278  42.500   1.603
  178W        W68396  37.337  38.465  11.902
  179W        W68397  23.048  38.593   2.560
  180W        W68398   2.400  24.587  12.342
  181W        W68399  15.544  25.234  13.974
  182W        W68400  23.983  20.744  13.976
  183W        W68401  34.915  26.704   2.834
  184W        W68402  25.406  22.194   0.198
  185W        W68403   5.426   2.694  12.989
  186W        W68404   1.889  35.573  12.985
  187W        W68405   3.228   4.465   4.883
  188W        W68406  33.991  39.445  13.010
  189W        W68407   6.250   5.784   2.148
  190W        W68408   5.901  12.157   0.443
  191W        W68409  10.771  40.224  12.078
  192W        W68410  30.701  13.094   4.520
  193W        W68411   5.516  32.890   4.190
  194W        W68412  13.608  41.034   3.828
  195W        W68413  10.885  15.302  11.918
  196W        W68414  15.650  25.685   4.041
  197W        W68415   9.781  14.173   3.214
  198W        W68416  19.649  29.918   3.930
  199W        W68417   8.470  17.608   3.568
  200W        W68418  21.082  12.665  12.864
  201W        W68419  33.918   7.107   2.643
  202W        W68420  36.342  35.148  14.960
  203W        W68421   3.765  33.964   1.302
  204W        W68422  29.165   4.352  11.110
  205W        W68423  21.639  32.600   3.094
  206W        W68424  12.145  44.620   3.337
  207W        W68425  31.054   2.584  11.487
  208W        W68426   3.326  34.126  11.806
  209W        W68427  20.163   2.869   4.340
  210W        W68428  13.598  40.467   2.966
  211W        W68429  33.450  27.549  13.417
  212W        W68430   4.429  26.146   0.845
  213W        W68431  38.996  31.752   4.909
  214W        W68432  41.509   5.637   3.748
  215W        W68433  37.660  28.703  11.086
  216W        W68434   5.052  21.521  14.936
  217W        W68435  20.119  35.652  12.048
  218W        W68436  15.808  33.319  11.056
  219W        W68437  27.283   5.982   1.880
  220W        W68438  17.040   4.880  10.588
  221W        W68439  42.112   7.049   4.954
  222W        W68440  34.080  41.325   0.958
  223W        W68441  24.279  14.686   3.105
  224W        W68442   2.511  40.425  12.844
  225W        W68443  34.714  10.882  11.499
  226W        W68444   0.711  31.011  14.815
  227W        W68445  20.681  24.673  11.758
  228W        W68446  18.516  26.211  13.823
  229W        W68447  37.859  28.123   1.941
  230W        W68448  34.003  14.339  10.615
  231W        W68449  35.265  16.781   1.660
  232W        W68450  44.864  43.757   4.742
  233W        W68451  29.320   8.525   4.346
  234W        W68452   2.746   3.755  12.123
  235W        W68453  21.276  36.415  11.455
  236W        W68454  39.142  42.826  11.703
  237W        W68455  33.378  14.271  14.528
  238W        W68456  42.893   9.388  12.092
  239W        W68457  30.647  44.528   3.629
  240W        W68458  19.276  25.526   3.307
  241W        W68459   1.258  13.311  14.085
  242W        W68460  26.004   1.948   3.924
  243W        W68461  43.559  23.519   0.412
  244W        W68462  29.548  30.120  14.846
  245W        W68463  12.696  36.659  11.397
  246W        W68464  43.587  10.746   1.711
  247W        W68465  33.558  40.407   2.730
  248W        W68466   2.590  21.887  13.979
  249W        W68467  31.726  44.901  11.986
  250W        W68468  18.507  36.918   1.860
  251W        W68469  30.240  40.523   3.204
  252W        W68470  19.749  11.701   4.685
  253W        W68471  20.385  24.440  12.681
  254W        W68472  39.509  16.501  10.907
  255W        W68473   7.884  29.234   1.309
  256W        W68474  31.159  35.313   1.930
  257W        W68475   1.338   3.690   2.147
  258W        W68476  44.228  31.465   4.457
  259W        W68477  36.022  13.785  13.001
  260W        W68478  22.464  34.421   0.716
  261W        W68479  38.893   5.571  11.677
  262W        W68480  32.469  37.421   4.423
  263W        W68481  15.680  28.151   4.186
  264W        W68482  18.733  33.107  12.168
  265W        W68483   2.216  23.137   3.783
  266W        W68484  42.915   3.241   3.344
  267W        W68485  38.479  10.537  14.310
  268W        W68486  10.767  38.991   2.741
  269W        W68487  23.211  23.726  13.358
  270W        W68488   6.220   6.337   1.130
  271W        W68489  27.578  22.641   3.687
  272W        W68490   1.388  31.333  14.325
  273W        W68491  35.162  32.673  11.955
  274W        W68492  29.472  32.048  12.450
  275W        W68493  19.198  33.144  10.618
  276W        W68494  17.095  36.855  14.271
  277W        W68495   4.266  22.770  11.489
  278W        W68496  24.045  31.179  13.599
  279W        W68497  43.339  31.902  12.562
  280W        W68498  37.349  35.007   3.708
  281W        W68499   8.623  31.634   0.256
  282W        W68500  18.664  25.076   2.819
  283W        W68501   1.773  39.353   1.418
  284W        W68502  19.821  20.686   2.640
  285W        W68503  10.612  35.170   0.629
  286W        W68504   6.639  44.275  13.819
  287W        W68505  31.193  31.497   1.322
  288W        W68506  25.478  28.869  11.174
  289W        W68507  30.506  34.130   0.373
  290W        W68508   9.817  17.064   1.440
  291W        W68509   0.835   9.186   2.328
  292W        W68510  19.193  22.730  12.988
  293W        W68511  37.110  28.743   0.482
  294W        W68512  18.851  30.945   1.821
  295W        W68513  19.294  25.277   5.081
  296W        W68514  15.728   0.817  13.595
  297W        W68515  23.082  18.331  11.087
  298W        W68516  21.033   6.763   3.827
  299W        W68517  43.859  10.868  12.068
  300W        W68518  13.193  41.479  14.872
  301W        W68519   7.552  30.358   5.030
  302W        W68520  28.201  31.520  14.759
  303W        W68521   9.732  25.113  10.764
  304W        W68522   4.208  22.728   2.734
  305W        W68523  24.495  10.229   4.507
  306W        W68524  15.057  14.361   1.171
  307W        W68525   2.564  18.996  12.515
  308W        W68526  13.772   4.485   4.920
  309W        W68527  18.732  35.502   4.809
  310W        W68528   4.115   0.844   3.686
  311W        W68529  28.944  10.374   1.819
  312W        W68530  43.833  25.888  12.497
  313W        W68531  28.609  34.355  13.870
  314W        W68532  21.943  29.845  10.466
  315W        W68533  22.149  15.182   0.761
  316W        W68534  30.402  25.593  12.065
  317W        W68535  28.165  31.998   2.272
  318W        W68536  36.089  13.295   2.710
  319W        W68537  33.395  31.130  10.554
  320W        W68538  13.323  24.489   1.689
  321W        W68539  39.273  25.535   1.683
  322W        W68540   3.777  17.663   1.482
  323W        W68541  21.686  16.779   1.165
  324W        W68542  41.099  22.904   1.835
  325W        W68543  20.742  13.249   1.260
  326W        W68544  15.226  30.402  14.450
  327W        W68545  38.330  14.404  13.423
  328W        W68546   4.278  12.569   0.807
  329W        W68547  12.237  37.405  14.131
  330W        W68548   1.348  39.912   4.634
  331W        W68549  13.515  10.887  10.633
  332W        W68550  34.977  42.960  11.009
  333W        W68551  20.506  21.263   3.782
  334W        W68552  40.269  42.993  12.347
  335W        W68553  15.369   7.447   4.175
  336W        W68554  35.088  18.748   4.586
  337W        W68555   4.972   3.362  10.785
  338W        W68556  25.559  44.373   1.922
  339W        W68557   9.604   7.363  13.571
  340W        W68558   2.868  31.680  11.731
  341W        W68559  14.598  26.650   2.642
  342W        W68560  31.994  15.216  14.460
  343W        W68561   2.317  16.019   0.212
  344W        W68562  20.677   8.310   0.019
  345W        W68563  14.019  12.194  10.783
  346W        W68564  29.732  40.553  12.556
  347W        W68565  26.728  11.592   4.715
  348W        W68566  39.405  19.159  13.877
  349W        W68567  32.390  23.280   4.248
  350W        W68568  14.570  14.107   3.417
  351W        W68569   2.353  23.780   3.390
  352W        W68570  14.529  19.628   0.157
  353W        W68571  26.272  42.435  12.191
  354W        W68572   3.198  21.671   0.873
  355W        W68573  41.559   6.233  13.528
  356W        W68574  40.740  35.554  10.804
  357W        W68575  39.583   5.854   4.654
  358W        W68576  24.073  23.345  11.558
  359W        W68577  34.301  17.137  11.544
  360W        W68578  20.253  24.617  12.019
  361W        W68579  33.445  23.696  10.980
  362W        W68580  41.342  22.056  14.747
  363W        W68581   2.428  22.079   2.883
  364W        W68582  29.996  44.260   1.637
  365W        W68583  14.983  13.380   9.822
  366W        W68584  17.640  26.951  11.109
  367W        W68585  16.215  37.385  11.986
  368W        W68586  38.385  14.472   1.280
  369W        W68587  41.605  16.794   1.903
  370W        W68588   2.323  41.708  12.907
  371W        W68589   0.984  17.283  10.299
  372W        W68590   1.910  30.413   4.075
  373W        W68591   9.204   1.216  14.776
  374W        W68592  21.432  24.227   0.973
  375W        W68593   7.922  38.458  14.554
  376W        W68594  40.549  44.499   1.249
  377W        W68595  16.523   4.108  12.999
  378W        W68596  19.108   1.682  13.382
  379W        W68597  43.327  31.864  10.674
  380W        W68598  25.491   3.280  11.754
  381W        W68599  17.735   8.251   3.584
  382W        W68600   9.481  13.849   1.738
  383W        W68601  38.351  30.122   2.286
  384W        W68602  26.692  28.392   1.807
  385W        W68603  39.460   8.235  11.554
  386W        W68604  42.020  41.396  14.805
  387W        W68605  31.084  34.142   3.700
  388W        W68606  37.765  20.660   5.010
  389W        W68607  41.506  42.296  13.887
  390W        W68608   3.674  43.337   2.443
  391W        W68609  19.183  10.436   2.699
  392W        W68610   0.962  20.249  10.723
  393W        W68611  36.862  32.983   0.298
  394W        W68612   4.959  37.619  13.336
  395W        W68613  16.602  40.478   4.571
  396W        W68614  12.689  21.482   1.431
  397W        W68615  13.726  20.624  12.380
  398W        W68616   1.377  11.426  13.578
  399W        W68617  20.648   0.496   2.445
  400W        W68618   2.985  42.961   0.691
  401W        W68619  14.219  22.816  14.504
  402W        W68620  21.276  14.284   4.582
  403W        W68621  15.914  36.227  13.891
  404W        W68622  42.099   5.689  12.532
  405W        W68623  29.122  36.869  12.439
  406W        W68624  40.009  36.283   3.711
  407W        W68625   5.755  17.608  12.663
  408W        W68626   9.468  12.520  13.559
  409W        W68627  10.309  10.418  12.917
  410W        W68628  29.288  17.702  10.322
  411W        W68629  22.560  25.569  12.076
  412W        W68630  26.970  10.623  13.568
  413W        W68631  39.394   2.198   3.713
  414W        W68632  37.536  30.133   0.060
  415W        W68633  37.481   5.449  14.498
  416W        W68634  12.023  35.408   4.462
  417W        W68635  37.873  16.192  12.572
  418W        W68636  40.369  39.047   1.239
  419W        W68637  19.297  28.594  13.108
  420W        W68638   6.981  12.557   2.313
  421W        W68639  11.805  24.944  11.143
  422W        W68640  31.990  18.405  13.954
  423W        W68641  20.765  15.030  14.399
  424W        W68642  16.222   1.476   3.322
  425W        W68643  12.176  19.606  12.391
  426W        W68644   3.061  41.645   0.486
  427W        W68645  24.245   7.742  12.418
  428W        W68646  25.656   0.832   3.866
  429W        W68647  37.327  18.662   0.306
  430W        W68648  42.207  27.259   3.250
  431W        W68649  27.698   5.776   1.530
  432W        W68650  23.449  31.451   1.960
  433W        W68651  26.973   8.223  10.803
  434W        W68652  29.135  23.989   4.745
  435W        W68653  40.275  40.883   2.731
  436W        W68654  39.842  22.032   3.606
  437W        W68655  42.941  19.198  11.187
  438W        W68656  19.966  27.000  11.063
  439W        W68657  44.951  32.597   3.194
  440W        W68658  36.390  18.777  10.826
  441W        W68659  35.790  18.281  11.935
  442W        W68660  30.206   3.719   0.568
  443W        W68661  24.052  14.721   3.590
  444W        W68662  35.745  27.415   3.557
  445W        W68663   6.119  22.892  10.340
  446W        W68664  23.532  18.899   2.141
  447W        W68665  19.022  11.946  10.655
  448W        W68666   2.198   9.888  13.983
  449W        W68667  34.412  25.009   4.839
  450W        W68668  38.066  39.883  14.416
  451W        W68669   7.941   1.398   1.183
  452W        W68670  21.124  12.241  11.679
  453W        W68671  44.956  27.476   2.802
  454W        W68672  26.440  22.073  13.144
  455W        W68673  44.221  43.271   1.479
  456W        W68674  26.949   1.056   0.685
  457W        W68675   3.280  28.425  13.482
  458W        W68676  29.297   5.788   3.093
  459W        W68677  25.168  25.033   2.623
  460W        W68678  10.375  27.860  12.949
  461W        W68679  21.751  16.591   3.231
  462W        W68680  18.285  16.724  10.268
  463W        W68681  23.282  35.958   0.254
  464W        W68682   0.584  22.789   2.381
  465W        W68683  18.138  18.180   2.170
  466W        W68684  31.633  14.267  12.923
  467W        W68685   3.624  44.761  12.462
  468W        W68686  26.657  44.590   3.201
  469W        W68687  35.630  19.582   2.871
  470W        W68688  22.498  24.545   1.411
  471W        W68689   7.173  12.580   0.023
  472W        W68690  20.269  40.289   3.015
  473W        W68691  34.004   1.800   1.348
  474W        W68692  14.301  42.575   4.241
  475W        W68693  20.359  14.839  10.625
  476W        W68694  38.711   9.983   0.864
  477W        W68695  35.767  16.269   2.279
  478W        W68696   8.272  32.811  12.026
  479W        W68697   8.301  14.620  11.229
  480W        W68698  40.833  42.363  11.595
  481W        W68699  42.924   6.413  13.617
  482W        W68700  21.923  35.887   5.101
  483W        W68701  15.119  28.201   2.633
  484W        W68702   8.847  44.502   1.193
  485W        W68703  34.115  15.053  12.840
  486W        W68704  30.524  35.591   3.580
  487W        W68705  21.289  34.969  11.699
  488W        W68706  25.105  30.047   2.306
  489W        W68707   3.506  42.418   4.853
  490W        W68708  27.342   2.847  12.860
  491W        W68709  16.093  23.297  10.654
  492W        W68710  19.725  39.129   1.389
  493W        W68711  39.568  26.500   1.587
  494W        W68712  33.465  33.007  12.071
  495W        W68713  31.644  37.065   3.191
  496W        W68714   6.887  18.724   4.698
  497W        W68715  26.645  40.235  11.104
  498W        W68716  32.212  11.242  10.808
  499W        W68717  41.903  24.280   1.869
  500W        W68718  32.108  14.299   0.480
  501W        W68719  15.086  36.927   1.650
  502W        W68720   2.339  15.530   4.141
  503W        W68721  27.089  41.835  14.810
  504W        W68722  19.152  16.744   4.814
  505W        W68723  29.172  41.394   3.181
  506W        W68724  13.581   1.805   2.725
  507W        W68725   0.434   9.710   3.680
  508W        W68726   6.684   0.453   1.399
  509W        W68727  40.824  36.014   1.426
  510W        W68728  31.330  36.863   2.790
  511W        W68729  44.068  18.904  11.469
  512W        W68730  24.987  19.614   5.093
  513W        W68731  36.037  26.653   3.172
  514W        W68732  42.538  28.254   3.289
  515W        W68733  27.088  31.455  14.724
  516W        W68734   9.872  44.105   3.125
  517W        W68735  30.938  31.889   1.821
  518W        W68736  21.490   0.437  10.706
  519W        W68737  13.042  23.674   2.137
  520W        W68738  26.118  25.608   2.190
  521W        W68739  29.475   7.674   0.431
  522W        W68740  16.851  25.577   0.723
  523W        W68741  31.989  29.694   0.754
  524W        W68742   5.742  19.690  13.627
  525W        W68743  15.067  39.397   4.187
  526W        W68744  43.972  34.888  12.447
  527W        W68745  33.719   5.930  12.716
  528W        W68746  41.477  43.523   0.821
  529W        W68747  44.280  22.562   2.610
  530W        W68748  16.729  38.914  11.545
  531W        W68749  17.184  37.019   4.381
  532W        W68750  16.584  10.165   2.267
  533W        W68751  23.338  29.962   1.179
  534W        W68752   6.180  30.884   2.941
  535W        W68753  41.592  10.928   4.025
  536W        W68754  12.636  24.531  12.932
  537W        W68755  34.413   6.666   0.000
  538W        W68756  17.544  13.324   2.446
  539W        W68757  40.903  17.732  12.500
  540W        W68758  25.031  38.665   2.827
  541W        W68759  18.508  22.193   3.244
  542W        W68760  38.545  37.471  13.402
  543W        W68761  37.431  41.131  13.305
  544W        W68762  36.516  17.521  11.164
  545W        W68763  42.796  39.235   2.212
  546W        W68764  43.343  27.623   2.711
  547W        W68765  24.785  32.519  11.068
  548W        W68766   5.000  29.666   1.661
  549W        W68767   1.377  14.539   1.866
  550W        W68768  19.570  39.894  10.642
  551W        W68769  17.004  42.846   4.523
  552W        W68770  19.211  35.602  13.825
  553W        W68771   5.932  29.969  14.781
  554W        W68772  35.679  40.820   2.265
  555W        W68773  44.281  16.795   0.880
  556W        W68774  28.306   6.134   0.812
  557W        W68775  11.849   1.067  14.837
  558W        W68776  28.241   5.685   5.527
  559W        W68777  38.944  32.929  10.587
  560W        W68778   8.235   7.757   3.441
  561W        W68779  42.773   3.617  13.947
  562W        W68780   0.069   5.770   2.357
  563W        W68781  12.816  21.911   2.359
  564W        W68782  34.416  10.586   0.492
  565W        W68783  18.224  21.226  12.958
  566W        W68784  20.262   2.385   3.652
  567W        W68785  35.911  32.370  11.356
  568W        W68786  34.993  16.639   2.844
  569W        W68787  10.900  38.302   0.975
  570W        W68788   3.274  23.197   0.494
  571W        W68789  29.394  18.323  12.515
  572W        W68790   2.429  16.490  11.368
  573W        W68791  43.911  39.560  11.177
  574W        W68792   5.241  43.437   1.439
  575W        W68793  26.004   7.765  14.584
  576W        W68794   0.503  31.410   1.808
  577W        W68795   9.898  29.803   0.377
  578W        W68796  23.484  26.553   1.314
  579W        W68797  12.235  17.120  10.576
  580W        W68798  29.571   0.462   0.936
  581W        W68799  43.407  28.228   4.395
  582W        W68800  12.976  34.050  13.318
  583W        W68801  27.549  32.186   0.984
  584W        W68802   9.272  18.013   4.163
  585W        W68803   4.556  43.751   1.391
  586W        W68804  40.035  38.712   2.265
  587W        W68805  27.611  15.821  12.961
  588W        W68806  22.233  23.647  14.970
  589W        W68807  44.548   3.472  10.542
  590W        W68808   2.330  21.228   2.568
  591W        W68809  35.517  41.399   4.441
  592W        W68810   8.126  18.658   4.481
  593W        W68811  29.083  12.623   0.319
  594W        W68812  28.007   7.206   2.433
  595W        W68813   6.671  30.369   1.670
  596W        W68814  40.961  17.019   2.796
  597W        W68815  14.379  27.255   1.004
  598W        W68816   7.785  19.012   0.053
  599W        W68817   3.639   8.277   3.281
  600W        W68818  30.958  14.108   3.276
  601W        W68819  44.327  36.038  13.397
  602W        W68820  21.325  35.041   1.309
  603W        W68821  40.342  10.170   1.450
  604W        W68822  21.837   7.833   4.268
  605W        W68823  22.763  43.045   4.657
  606W        W68824  34.679  41.781   2.316
  607W        W68825  10.345  44.806   4.165
  608W        W68826  14.237   8.889   0.640
  609W        W68827  11.199  16.985   1.242
  610W        W68828  38.529   4.996  13.399
  611W        W68829  36.018   5.877   1.684
  612W        W68830   7.163  31.531   1.255
  613W        W68831  16.309   4.263   4.024
  614W        W68832  41.497  27.456  11.621
  615W        W68833   1.071  17.007   5.122
  616W        W68834  30.590  36.699  10.663
  617W        W68835   4.739   1.028   0.731
  618W        W68836  35.207  43.753  13.834
  619W        W68837   4.483  36.939   2.573
  620W        W68838  17.194  30.416   1.822
  621W        W68839   1.771  17.650  14.802
  622W        W68840  13.310  42.541  10.350
  623W        W68841  13.845  33.152   1.251
  624W        W68842  10.647  15.841  10.662
  625W        W68843  23.789   1.913  11.950
  626W        W68844  23.214  23.994  10.594
  627W        W68845  16.677  22.556  11.505
  628W        W68846  31.002  38.901   3.922
  629W        W68847  22.278  14.304  12.435
  630W        W68848  17.308  40.713  13.508
  631W        W68849  28.146  43.850   0.940
  632W        W68850  13.136   5.168   0.662
  633W        W68851  41.205  15.105   0.267
  634W        W68852  39.471  26.980  12.900
  635W        W68853  21.062  17.721   2.843
  636W        W68854  44.992   9.786   4.095
  637W        W68855  43.852  43.390  10.709
  638W        W68856   6.452  20.741  11.057
  639W        W68857  31.612  32.366   1.146
  640W        W68858   4.923  35.361  12.618
  641W        W68859  34.050  27.997   2.729
  642W        W68860  38.347  17.679   3.719
  643W        W68861   2.507  43.364   0.951
  644W        W68862  35.825   1.426   4.124
  645W        W68863  39.520  38.083  13.347
  646W        W68864  28.304  13.184   4.190
  647W        W68865  36.136  26.741  12.834
  648W        W68866  10.651  28.644   4.705
  649W        W68867  34.669  20.242   4.570
  650W        W68868   9.587  29.650   3.312
  651W        W68869  20.025  39.064   3.842
  652W        W68870   3.293  38.930   3.618
  653W        W68871  35.362  28.550  12.604
  654W        W68872  21.511  32.089  12.546
  655W        W68873  19.636  36.621   0.800
  656W        W68874  26.190  16.199  13.945
  657W        W68875  26.109  17.850   1.711
  658W        W68876  34.854  19.711  12.385
  659W        W68877   9.311   2.016  14.257
  660W        W68878   4.478  28.104  13.458
  661W        W68879  12.497   1.750   3.041
  662W        W68880   7.243  42.023   2.478
  663W        W68881  19.505  16.078  10.615
  664W        W68882  17.637  22.072   1.309
  665W        W68883  11.261  44.956   0.666
  666W        W68884  24.607  44.018  13.827
  667W        W68885  21.474   2.383  13.337
  668W        W68886  26.217  15.020  12.623
  669W        W68887  33.473  37.506  11.510
  670W        W68888  43.755  27.675  12.125
  671W        W68889  42.726   1.792   3.496
  672W        W68890  36.169   7.232   4.332
  673W        W68891   2.459  37.958   4.471
  674W        W68892  32.411   2.573  13.788
  675W        W68893  39.427  43.925   0.674
  676W        W68894  20.749  11.197  10.383
  677W        W68895  19.661   1.169  14.035
  678W        W68896   9.819  36.954   3.376
  679W        W68897  13.830  31.210   1.445
  680W        W68898  42.766   4.476  11.998
  681W        W68899  26.377  25.850  11.426
  682W        W68900  14.581   8.273   2.478
  683W        W68901  24.596  34.373   3.898
  684W        W68902   9.857   5.248  12.925
  685W        W68903   2.005  19.039   4.549
  686W        W68904  34.402  40.227  11.197
  687W        W68905  44.510  22.464   2.152
  688W        W68906  15.130  23.221  10.573
  689W        W68907   2.177  32.271   2.809
  690W        W68908   8.212  35.224  10.471
  691W        W68909  11.293  32.851  14.796
  692W        W68910  34.308  31.807   2.826
  693W        W68911  38.404   6.302  12.051
  694W        W68912  44.500   7.389  14.926
  695W        W68913  27.946  20.303  10.550
  696W        W68914   6.821  31.676  12.982
  697W        W68915  23.661  25.496   9.713
  698W        W68916   2.471  43.506   1.883
  699W        W68917  13.714  32.581   3.649
  700W        W68918  11.648  38.629  11.258
  701W        W68919  30.741  22.029   2.213
  702W        W68920   3.167  43.413  10.604
  703W        W68921  41.375  15.130   4.622
  704W        W68922   0.027  13.326  12.516
  705W        W68923  16.777  35.828  12.978
  706W        W68924  18.881   1.981  14.381
  707W        W68925  33.057  32.444  10.732
  708W        W68926  35.934  18.687   1.544
  709W        W68927  33.090   6.194   2.148
  710W        W68928  14.169  30.186  10.503
  711W        W68929   9.701  23.507   4.106
  712W        W68930   5.673  22.018   1.443
  713W        W68931  22.029  20.438   3.206
  714W        W68932  34.177  29.284   4.997
  715W        W68933  16.434  38.590  14.953
  716W        W68934  13.270   4.827   0.066
  717W        W68935  31.553  25.447   1.188
  718W        W68936  16.356  32.569  11.441
  719W        W68937   7.172  29.988   1.333
  720W        W68938  36.332  37.424   4.524
  721W        W68939  41.911  42.204   2.431
  722W        W68940   1.904  17.355   3.221
  723W        W68941  42.084  13.659  12.161
  724W        W68942  11.617  21.094  12.203
  725W        W68943   0.084  10.482   0.338
  726W        W68944  11.752  38.865  11.700
  727W        W68945  14.367   7.165  10.777
  728W        W68946  39.795   9.073   3.637
  729W        W68947  34.124  25.496   0.376
  730W        W68948  19.671  11.581   2.757
  731W        W68949   1.778  22.728   1.653
  732W        W68950  29.636   1.797  14.355
  733W        W68951  23.956  32.183   1.485
  734W        W68952  14.055  29.865  11.823
  735W        W68953  17.311   3.372  12.917
  736W        W68954   8.621  26.523   5.115
  737W        W68955  11.385  39.436   3.268
  738W        W68956  15.510  32.788   2.427
  739W        W68957   7.887  29.516  13.695
  740W        W68958  35.337  23.544   1.826
  741W        W68959  33.334  28.970   4.332
  742W        W68960  31.064  19.884   3.837
  743W        W68961  35.966  40.551  11.907
  744W        W68962  17.595   6.711   2.789
  745W        W68963  43.933  23.049  11.842
  746W        W68964  36.100  42.429  13.479
  747W        W68965  26.133  24.738  12.152
  748W        W68966  41.248  20.690  13.490
  749W        W68967   9.179  18.379   5.090
  750W        W68968  33.172   3.224  12.490
  751W        W68969   0.266  25.091   0.046
  752W        W68970  25.584  17.840   0.467
  753W        W68971   7.750  37.174  13.089
  754W        W68972  11.290  36.993   2.108
  755W        W68973  30.631  18.890   4.882
  756W        W68974  22.135  39.307   1.242
  757W        W68975  18.435  43.921   2.095
  758W        W68976  13.326  24.146  13.058
  759W        W68977   9.145  16.735  12.366
  760W        W68978  44.766  31.669   4.576
  761W        W68979  16.258  20.562   3.772
  762W        W68980  39.238   2.977  11.216
  763W        W68981  16.890   9.797  12.530
  764W        W68982  22.971  19.033   4.474
  765W        W68983  34.620  30.137   3.851
  766W        W68984  28.702  38.760   0.242
  767W        W68985  38.742   8.709  11.042
  768W        W68986  39.128  21.630   2.357
  769W        W68987   8.834  10.176   2.741
  770W        W68988  22.720  44.731  12.171
  771W        W68989  43.511  29.138  13.899
  772W        W68990  38.376  38.673   0.147
  773W        W68991  12.066  20.303   1.209
  774W        W68992   7.430   0.295   3.626
  775W        W68993  16.252   7.824   1.449
  776W        W68994   0.900  41.377  12.466
  777W        W68995  27.024  28.189   4.789
  778W        W68996  35.750  40.102  11.691
  779W        W68997   9.414   4.119  13.544
  780W        W68998  33.650   3.387  10.487
  781W        W68999  15.083  36.083   1.214
  782W        W69000  43.856  14.630   4.675
  783W        W69001  11.305  41.466   2.225
  784W        W69002  17.023  38.924  12.803
  785W        W69003  36.546  17.583  12.490
  786W        W69004  27.897   2.194   2.189
  787W        W69005  14.677  28.635  14.327
  788W        W69006  29.704  15.692   2.302
  789W        W69007  36.881  14.744  13.572
  790W        W69008   0.014  26.618  12.963
  791W        W69009  12.282  21.304   1.187
  792W        W69010  36.948  22.929  11.555
  793W        W69011  42.192  24.768   5.252
  794W        W69012  30.712   1.764   1.646
  795W        W69013  13.891  21.671   4.455
  796W        W69014  23.612  37.857   2.675
  797W        W69015  25.383  21.137   1.185
  798W        W69016  36.114  23.816   2.273
  799W        W69017  16.056  10.616   0.799
  800W        W69018  18.746  15.980   4.215
  801W        W69019  26.960  19.483  11.061
  802W        W69020  22.052  21.714   2.574
  803W        W69021  10.690   3.620   3.284
  804W        W69022  10.158  21.665   0.838
  805W        W69023   0.264  35.129  11.210
  806W        W69024  37.487  32.433  11.167
  807W        W69025  16.599  43.225  13.898
  808W        W69026   0.880  32.347   3.657
  809W        W69027  15.657  24.434   2.337
  810W        W69028  36.780  17.567  14.733
  811W        W69029  35.641  26.140  13.888
  812W        W69030   0.004  44.973   3.702
  813W        W69031  42.471  12.044   1.927
  814W        W69032   1.457  38.542  13.832
  815W        W69033  28.434  12.751  10.914
  816W        W69034  38.268  28.677  14.326
  817W        W69035  14.672   1.439  10.749
  818W        W69036   6.266  28.583   3.142
  819W        W69037   0.937  32.642   1.631
  820W        W69038  28.671  28.760  11.876
  821W        W69039  19.275  43.801  11.046
  822W        W69040  32.008  16.125   1.023
  823W        W69041  40.885  16.511   2.735
  824W        W69042  37.869  41.739  12.577
  825W        W69043  16.434  11.622   0.230
  826W        W69044  37.904  36.817   2.562
  827W        W69045  11.928  27.697   1.608
  828W        W69046  13.545   3.650   3.225
  829W        W69047  30.591  14.155  13.289
  830W        W69048  35.241  35.460  10.578
  831W        W69049  16.974  22.118   3.369
  832W        W69050  30.595  23.848   4.852
  833W        W69051  14.715  16.783  12.297
  834W        W69052   8.194  41.471   1.883
  835W        W69053  25.219  38.030   4.941
  836W        W69054   8.226  17.308  11.723
  837W        W69055  39.436  16.093   1.366
  838W        W69056  24.214  42.725   1.034
  839W        W69057  11.219  23.252  14.361
  840W        W69058   0.429  42.968  13.255
  841W        W69059  22.947  38.350   0.229
  842W        W69060   2.588  27.913   4.282
  843W        W69061  33.162   6.348   1.207
  844W        W69062   1.025  18.768   3.765
  845W        W69063  38.052  29.376   3.775
  846W        W69064  39.940  11.562   3.118
  847W        W69065  18.146  33.596   2.958
  848W        W69066   3.814  22.366   2.636
  849W        W69067  14.141   2.491  11.186
  850W        W69068  30.069   7.479   3.841
  851W        W69069  42.484  34.862  14.911
  852W        W69070  13.280  20.830   3.707
  853W        W69071   0.832  19.050  13.163
  854W        W69072  28.363  38.870   2.791
  855W        W69073  15.443  37.462  11.559
  856W        W69074  13.010  20.299  12.890
  857W        W69075  41.033  31.123  10.735
  858W        W69076  15.024   9.261  13.518
  859W        W69077  38.438   1.639   4.104
  860W        W69078  36.941  26.134  12.463
  861W        W69079  12.581  32.374  13.945
  862W        W69080  17.193  21.299   1.416
  863W        W69081  28.510   5.557   1.280
  864W        W69082  28.137   9.497  12.836
  865W        W69083  28.062  11.783  12.308
  866W        W69084  39.651   6.743   2.873
  867W        W69085  29.566  19.783  11.165
  868W        W69086  22.165  41.406  10.347
  869W        W69087  19.474   1.982  11.878
  870W        W69088  37.412  23.108  10.590
  871W        W69089  30.522  36.405  12.533
  872W        W69090  32.600  43.352   3.717
  873W        W69091  38.574   5.748  12.913
  874W        W69092  34.502   9.773  13.872
  875W        W69093  18.593  41.604  12.961
  876W        W69094  13.833   1.563   1.844
  877W        W69095   2.318  33.545   1.646
  878W        W69096  23.539  14.028   0.170
  879W        W69097  42.980  21.390  12.062
  880W        W69098  17.179   5.299  13.121
  881W        W69099  28.046  20.342   2.714
  882W        W69100  21.077  33.376   5.124
  883W        W69101  42.103  29.074  10.623
  884W        W69102  37.789  40.463  13.983
  885W        W69103  25.078  44.741  14.312
  886W        W69104  25.888  26.053  13.789
  887W        W69105   9.673  28.043   0.695
  888W        W69106  27.468  16.767  10.973
  889W        W69107   1.422  33.682   2.265
  890W        W69108  10.468  19.260  12.540
  891W        W69109  21.721  42.551  13.541
  892W        W69110   2.827  28.202   4.670
  893W        W69111  12.071   1.912  13.453
  894W        W69112  31.656  22.717   4.346
  895W        W69113   6.488  34.192   0.209
  896W        W69114  22.017   3.953  12.458
  897W        W69115  12.439   3.375  11.605
  898W        W69116   1.307  40.689  13.957
  899W        W69117  39.755  39.399  10.983
  900W        W69118  37.420  16.661  14.230
  901W        W69119   5.286   7.427  14.875
  902W        W69120  33.712   2.408   2.768
  903W        W69121   6.152  37.391   0.061
  904W        W69122  32.956  19.886   1.901
  905W        W69123  25.972  36.963   1.962
  906W        W69124   0.596  30.514   3.861
  907W        W69125  13.265  33.668   3.265
  908W        W69126  22.118  24.807   0.377
  909W        W69127  10.423  39.242   3.225
  910W        W69128   7.692   4.947   0.012
  911W        W69129  18.554  20.066   1.471
  912W        W69130  33.934  37.756  11.502
  913W        W69131  30.995  20.585  12.439
  914W        W69132  36.339  22.652   3.724
  915W        W69133  25.078  43.475   4.564
  916W        W69134  19.643  41.840  13.571
  917W        W69135  21.778  37.076   0.954
  918W        W69136  22.940  29.731  13.454
  919W        W69137  24.602  22.596  13.958
  920W        W69138  42.647  44.882   3.727
  921W        W69139  10.289  20.868   3.578
  922W        W69140   7.903  11.397   0.020
  923W        W69141   5.146  44.744   2.349
  924W        W69142   5.037  37.422   4.626
  925W        W69143  39.621  13.367  13.116
  926W        W69144  32.561  34.581   0.959
  927W        W69145  44.290   1.982  12.115
  928W        W69146   0.078   9.247   2.866
  929W        W69147  13.188  23.038  12.282
  930W        W69148  41.873  10.729   2.453
  931W        W69149  35.088  20.658   3.396
  932W        W69150   8.523  41.607  12.854
  933W        W69151  21.197  33.150   4.670
  934W        W69152  32.085  39.112  12.998
  935W        W69153  36.501  24.202  14.386
  936W        W69154  31.469  38.907  14.427
  937W        W69155  15.061  30.675   4.432
  938W        W69156  17.275  12.190   2.272
  939W        W69157  28.100   8.885  10.144
  940W        W69158   3.253  24.298  11.744
  941W        W69159  16.080  31.678  11.431
  942W        W69160  38.646  21.811  13.616
  943W        W69161  29.292  35.930  13.963
  944W        W69162  22.775  40.586  11.156
  945W        W69163  42.580  44.188  11.195
  946W        W69164  22.905  12.632   3.249
  947W        W69165  12.698  32.695  13.000
  948W        W69166  39.625  31.772  14.421
  949W        W69167  24.044   8.321  12.065
  950W        W69168   5.822  19.556   4.926
  951W        W69169   3.170  32.375   1.751
  952W        W69170  11.897  33.094   4.085
  953W        W69171  38.333  26.871  10.599
  954W        W69172  39.328  28.936  10.684
  955W        W69173  12.331  22.603  13.609
  956W        W69174   4.182  10.782   3.950
  957W        W69175   4.142  31.173   2.764
  958W        W69176  43.187   6.442  12.854
  959W        W69177  17.077  12.050   4.095
  960W        W69178  25.932  34.905   3.728
  961W        W69179  16.712   8.962  10.757
  962W        W69180  17.887  12.427   3.642
  963W        W69181  25.791  10.650  12.962
  964W        W69182  28.566   6.162  13.018
  965W        W69183  12.679  42.962   1.938
  966W        W69184  43.236  18.588  11.768
  967W        W69185   9.472  29.084  11.535
  968W        W69186  16.250   2.808  10.927
  969W        W69187  10.368   4.781   1.765
  970W        W69188  41.896  16.435  12.599
  971W        W69189   4.223  25.017   2.276
  972W        W69190  36.562  21.776  14.473
  973W        W69191  31.043  25.939   1.553
  974W        W69192  31.938  17.967  11.150
  975W        W69193   7.127  29.467   3.153
  976W        W69194  35.452  13.583   1.194
  977W        W69195   8.705  19.534  13.940
  978W        W69196  25.037  24.276   0.897
  979W        W69197  34.583  13.772   3.315
  980W        W69198  26.643  36.312  10.737
  981W        W69199   2.462   6.979  11.661
  982W        W69200  19.065   3.820  11.011
  983W        W69201  39.128  17.533   2.315
  984W        W69202  27.477  28.557   3.395
  985W        W69203  33.680  40.376   3.638
  986W        W69204  25.496  38.454   3.672
  987W        W69205   5.441  25.466  11.532
  988W        W69206  20.552  19.407   3.327
  989W        W69207   3.992   9.093   0.746
  990W        W69208  34.983  15.622  10.774
  991W        W69209  23.297  41.251   4.144
  992W        W69210   4.187  36.807  12.665
  993W        W69211  13.700  29.244  13.039
  994W        W69212  17.807  36.357  12.920
  995W        W69213  26.639  27.993   3.837
  996W        W69214  42.843   5.095  13.850
  997W        W69215   1.869  31.065  10.991
  998W        W69216  11.412  25.828   3.390
  999W        W69217  41.544  16.795   2.724
 1000W        W69218  24.458   3.390   3.759
 1001W        W69219  24.748  16.327  10.157
 1002W        W69220   0.803   5.710  14.898
 1003W        W69221  18.451  32.943  11.769
 1004W        W69222   8.636   5.530   2.913
 1005W        W69223  31.561   9.314  14.055
 1006W        W69224  11.376  22.955   2.899
 1007W        W69225  24.644  18.703  14.311
 1008W        W69226  18.586  36.330   3.182
 1009W        W69227  12.289   0.841  10.128
 1010W        W69228   3.348   7.475   1.958
 1011W        W69229  24.740   7.979  13.447
 1012W        W69230  12.701  41.265  12.793
 1013W        W69231  34.449  44.996  14.002
 1014W        W69232  36.506  10.110  13.440
 1015W        W69233  17.458  32.419  11.107
 1016W        W69234  41.772  33.159  12.969
 1017W        W69235   1.841  44.293  11.808
 1018W        W69236  18.740  30.666   0.687
 1019W        W69237  29.272  21.099   2.752
 1020W        W69238  29.169  17.225   2.153
 1021W        W69239  21.148  42.933   0.852
 1022W        W69240   8.007  33.502   9.939
 1023W        W69241  21.603  40.425  12.662
 1024W        W69242  24.184  17.275   3.318
 1025W        W69243  41.836  26.127   4.144
 1026W        W69244  30.647  21.604  14.988
 1027W        W69245  42.558   5.592   1.321
 1028W        W69246  22.752   5.215  10.173
 1029W        W69247   2.862  26.908   4.352
 1030W        W69248  41.811  18.706  13.519
 1031W        W69249  34.429  16.974  14.851
 1032W        W69250  31.187  16.189   2.416
 1033W        W69251  24.270   1.728  11.888
 1034W        W69252  40.846  38.515   0.234
 1035W        W69253  14.397  12.874  13.782
 1036W        W69254  26.636  28.055  13.561
 1037W        W69255  26.085  14.190   9.926
 1038W        W69256  13.448   8.975  13.610
 1039W        W69257  40.995  43.746  11.977
 1040W        W69258  11.984   3.192  10.495
 1041W        W69259  23.797  19.860   3.688
 1042W        W69260  24.725   2.261   1.329
 1043W        W69261  27.930  20.177   0.271
 1044W        W69262  19.732  15.131  13.702
 1045W        W69263  44.937  23.017  11.544
 1046W        W69264  41.430  20.772  12.753
 1047W        W69265  12.345  35.883  11.709
 1048W        W69266  34.823  39.343  11.518
 1049W        W69267   9.276  44.257  13.598
 1050W        W69268  15.285  42.776   1.277
 1051W        W69269  27.646  33.046   0.416
 1052W        W69270  10.585   6.767  14.857
 1053W        W69271   7.154  24.147   2.719
 1054W        W69272   5.899  16.770  14.917
 1055W        W69273  23.532   3.926  13.469
 1056W        W69274  12.215  12.673   1.268
 1057W        W69275   6.648  35.994  14.700
 1058W        W69276  31.897   3.511   2.569
 1059W        W69277  21.267  13.261   1.300
 1060W        W69278  22.204   3.604   5.055
 1061W        W69279   0.893  15.922  10.866
 1062W        W69280  25.991  36.009  11.532
 1063W        W69281  41.258  23.618  10.974
 1064W        W69282   9.806  19.519  12.121
 1065W        W69283  22.585  18.248  12.804
 1066W        W69284  30.576  13.162  12.022
 1067W        W69285  18.965  28.002   2.409
 1068W        W69286   8.783   1.183   4.295
 1069W        W69287   2.632  20.593   4.116
 1070W        W69288  13.992  42.919   4.477
 1071W        W69289  21.628  37.375   4.865
 1072W        W69290  26.229  21.506   4.918
 1073W        W69291  36.843   5.544   5.768
 1074W        W69292   0.866  25.791  14.424
 1075W        W69293  23.053  36.452  13.795
 1076W        W69294  27.050  20.319  12.305
 1077W        W69295  17.641  43.332  11.181
 1078W        W69296  41.550  10.345  10.538
 1079W        W69297  42.730  25.703  14.099
 1080W        W69298  28.173  31.631  13.315
 1081W        W69299  15.791  20.349   3.807
 1082W        W69300  20.201  30.493  14.523
 1083W        W69301   7.626  33.821   3.710
 1084W        W69302   3.906  27.059   3.334
 1085W        W69303  40.015  21.172   4.128
 1086W        W69304  23.169  22.748   2.655
 1087W        W69305  24.630  33.913   3.347
 1088W        W69306  17.235  11.691   0.626
 1089W        W69307  14.590  25.279   1.880
 1090W        W69308   8.719  28.005   3.675
 1091W        W69309  18.603  12.265  11.961
 1092W        W69310  33.316  28.478  12.520
 1093W        W69311  16.746  31.113  13.095
 1094W        W69312  28.691  40.416  11.645
 1095W        W69313  41.542  23.771  11.903
 1096W        W69314   4.743  12.346   3.679
 1097W        W69315  16.517  10.771  12.464
 1098W        W69316  10.795  44.788   4.376
 1099W        W69317  26.231   5.669  14.702
 1100W        W69318  16.205   7.631   2.376
 1101W        W69319  44.004  22.443  11.166
 1102W        W69320  38.878   6.160  14.861
 1103W        W69321  29.511   4.857   2.217
 1104W        W69322  10.835  15.973  14.932
 1105W        W69323   0.845  42.475  10.946
 1106W        W69324  16.806   9.497  10.717
 1107W        W69325  26.449  14.640   5.007
 1108W        W69326  31.522  12.596  12.389
 1109W        W69327  32.439  10.770  13.285
 1110W        W69328  26.546  17.792   3.196
 1111W        W69329  31.592  36.399  14.009
 1112W        W69330  31.405  38.088   2.856
 1113W        W69331  13.360   6.347   2.909
 1114W        W69332  35.329  19.513  11.533
 1115W        W69333  29.538   2.751   5.034
 1116W        W69334   9.074  14.436   9.799
 1117W        W69335   9.636   2.924  13.799
 1118W        W69336  20.468  29.446   0.604
 1119W        W69337  24.674  34.030   2.305
 1120W        W69338  25.979  43.993  12.044
 1121W        W69339  33.089  35.164  10.717
 1122W        W69340   6.696  17.667  12.459
 1123W        W69341  14.774  36.111  11.427
 1124W        W69342  43.847  15.021  11.178
 1125W        W69343  33.293  29.420  12.334
 1126W        W69344  29.245  25.740   2.900
 1127W        W69345  15.723  29.220  13.453
 1128W        W69346  12.600  37.492   0.323
 1129W        W69347  12.741  44.053   0.383
 1130W        W69348   2.679  41.322   3.172
 1131W        W69349  27.895  18.725  12.970
 1132W        W69350  29.018   8.381  10.802
 1133W        W69351  25.082   9.813   0.922
 1134W        W69352   8.923  11.649   1.826
 1135W        W69353  25.594   4.717  10.453
 1136W        W69354   3.845  43.017   1.423
 1137W        W69355   0.426   2.253  14.193
 1138W        W69356  34.067  19.316  14.067
 1139W        W69357   7.307  21.095   0.795
 1140W        W69358  35.899  30.121  14.302
 1141W        W69359  22.405  41.840  10.547
 1142W        W69360  18.845   2.640  11.523
 1143W        W69361  27.101   3.392   0.542
 1144W        W69362   9.696  33.552   2.604
 1145W        W69363  44.765  17.005   2.163
 1146W        W69364  10.476  34.829   3.994
 1147W        W69365  12.283  11.646  12.131
 1148W        W69366   0.512  12.839  11.093
 1149W        W69367   5.206  39.504  10.517
 1150W        W69368  38.947   7.572   2.723
 1151W        W69369   8.002  42.405  12.429
 1152W        W69370  25.316   1.644  13.046
 1153W        W69371  22.094  36.963  10.622
 1154W        W69372   3.634  32.143   1.309
 1155W        W69373  19.170  37.946  10.588
 1156W        W69374  27.790  19.102   3.580
 1157W        W69375  28.542  20.997   3.190
 1158W        W69376   9.695  35.500  14.774
 1159W        W69377  44.769  19.426  11.117
 1160W        W69378  18.239  18.101   4.158
 1161W        W69379  30.475  40.024  13.787
 1162W        W69380  21.266  25.495  11.150
 1163W        W69381   8.004  30.833   2.770
 1164W        W69382  37.857  13.247   3.278
 1165W        W69383  16.358  38.450  10.803
 1166W        W69384  16.718   2.119  12.954
 1167W        W69385   8.156  37.078   2.692
 1168W        W69386  23.490  30.964   0.992
 1169W        W69387  15.870  32.011  14.833
 1170W        W69388  31.841  23.320   2.689
 1171W        W69389  42.080  34.020   3.774
 1172W        W69390  39.020  43.027  14.380
 1173W        W69391   3.287  12.407   3.576
 1174W        W69392  43.931  30.927   0.323
 1175W        W69393   9.920  36.592  13.868
 1176W        W69394  21.850  15.273   0.342
 1177W        W69395  20.152   4.602   3.607
 1178W        W69396  29.148  25.733   4.237
 1179W        W69397  19.967  17.910   1.234
 1180W        W69398  12.734  12.653   1.212
 1181W        W69399  33.706  37.846   3.350
 1182W        W69400  33.895  31.997  10.374
 1183W        W69401  10.304  10.464   0.301
 1184W        W69402  37.351  43.306   4.572
 1185W        W69403  21.731  37.120  12.055
 1186W        W69404  31.127  42.344   2.361
 1187W        W69405  24.002  37.389   1.308
 1188W        W69406  17.602  18.760  13.379
 1189W        W69407  12.619  44.980  12.649
 1190W        W69408  43.195  36.001   3.821
 1191W        W69409  33.085   9.659   3.740
 1192W        W69410  15.610  33.979  12.413
 1193W        W69411  11.929  37.823  11.544
 1194W        W69412   4.846   8.102   1.409
 1195W        W69413  41.986  25.615  13.308
 1196W        W69414  14.764  33.985  13.626
 1197W        W69415  22.777  43.336   0.705
 1198W        W69416   7.901  33.155   2.232
 1199W        W69417  16.274  33.366  14.850
 1200W        W69418  36.090  17.687   1.340
 1201W        W69419  34.213   9.545  12.211
 1202W        W69420  20.520  16.817  11.059
 1203W        W69421   3.980   3.510  12.890
 1204W        W69422  22.719   4.084  10.784
 1205W        W69423   5.317  34.553   4.402
 1206W        W69424  30.459  25.274  12.956
 1207W        W69425  30.999  39.787  11.698
 1208W        W69426   7.772  39.652   4.566
 1209W        W69427  13.673   5.954  14.456
 1210W        W69428  28.978   3.843   4.442
 1211W        W69429   7.296   8.396  13.589
 1212W        W69430   7.839  30.694  14.363
 1213W        W69431  21.297  32.060  13.444
 1214W        W69432   2.971  40.499  13.196
 1215W        W69433  27.407  31.115  13.461
 1216W        W69434  25.504  18.408  12.356
 1217W        W69435  25.959   7.401  12.779
 1218W        W69436   5.264  38.983  13.987
 1219W        W69437  11.914  10.401  10.667
 1220W        W69438  43.976  40.064   0.885
 1221W        W69439   2.696  29.719   3.281
 1222W        W69440  18.698  20.589  12.004
 1223W        W69441   4.015  38.358   0.658
 1224W        W69442   4.702  34.920   1.408
 1225W        W69443  19.151   1.790   4.747
 1226W        W69444  34.307  18.788   0.319
 1227W        W69445   4.475  32.597   2.372
 1228W        W69446  20.662   4.784   3.819
 1229W        W69447  41.264  39.378   2.163
 1230W        W69448  42.408  44.209   1.512
 1231W        W69449   1.260   6.375   0.228
 1232W        W69450  13.506  19.444  12.992
 1233W        W69451   0.764  24.716  10.994
 1234W        W69452  40.561  43.766   0.794
 1235W        W69453  27.701  21.315  13.298
 1236W        W69454   9.400  17.751  12.704
 1237W        W69455   0.984  25.523   3.130
 1238W        W69456  10.252  30.293   1.642
 1239W        W69457  35.153  38.461  11.878
 1240W        W69458   6.262  14.811  13.888
 1241W        W69459  20.120  44.226  12.605
 1242W        W69460  40.417  31.051  11.488
 1243W        W69461  29.469   9.031   4.335
 1244W        W69462   6.597   0.826   3.703
 1245W        W69463  40.449  28.486   1.709
 1246W        W69464  22.626  31.966  14.795
 1247W        W69465  30.408  42.746   4.951
 1248W        W69466  31.012  27.259  14.472
 1249W        W69467  21.422  21.170   0.341
 1250W        W69468   5.170  22.807  10.898
 1251W        W69469   2.440  12.997   5.150
 1252W        W69470  31.548  22.266   1.878
 1253W        W69471  17.541  20.693   4.174
 1254W        W69472   0.994  37.464  10.563
 1255W        W69473  42.745   2.705  14.085
 1256W        W69474  25.888  22.759   2.243
 1257W        W69475  21.253  18.147  14.443
 1258W        W69476  23.055   1.051   3.170
 1259W        W69477  30.004  27.187   2.416
 1260W        W69478  37.047   7.735  14.558
 1261W        W69479   8.874  28.255  14.345
 1262W        W69480  39.377   8.424   2.645
 1263W        W69481  25.585   9.301   2.115
 1264W        W69482  23.508  23.695  12.906
 1265W        W69483  31.573  32.226  14.046
 1266W        W69484  40.968  41.364   3.667
 1267W        W69485  41.958  15.597   5.005
 1268W        W69486  23.256  24.793   1.894
 1269W        W69487   3.435  18.529  13.466
 1270W        W69488  20.824  17.828  13.292
 1271W        W69489   4.728  43.851  13.805
 1272W        W69490   5.888  34.551  11.521
 1273W        W69491  26.378   7.819   2.280
 1274W        W69492  28.164   9.706   1.788
 1275W        W69493  27.155  41.335   1.249
 1276W        W69494  25.680  31.164   1.920
 1277W        W69495  38.678  19.192   2.210
 1278W        W69496  21.179  33.880  14.827
 1279W        W69497  32.801  12.388  12.877
 1280W        W69498  30.154  42.382  14.386
 1281W        W69499  15.337  15.758  10.392
 1282W        W69500  35.529  25.243  12.565
 1283W        W69501  37.828  34.465  12.549
 1284W        W69502  39.270  32.341  11.982
 1285W        W69503  43.998  14.746  10.748
 1286W        W69504  32.463  37.349  12.906
 1287W        W69505  11.707  28.146  11.070
 1288W        W69506  38.336  27.623   4.885
 1289W        W69507   7.386  37.054   3.034
 1290W        W69508  26.689  10.752  11.455
 1291W        W69509  30.000  35.357   4.402
 1292W        W69510  21.072   2.454  11.574
 1293W        W69511  31.593  22.204   4.314
 1294W        W69512  44.998   6.869  13.171
 1295W        W69513  13.855  36.874  11.953
 1296W        W69514  43.528  22.000  10.644
 1297W        W69515  38.119  24.085  13.903
 1298W        W69516  40.262  35.482  13.411
 1299W        W69517  11.718  21.641  14.223
 1300W        W69518  29.517  19.720  14.351
 1301W        W69519   2.084  26.903   0.430
 1302W        W69520  23.067   9.961   1.749
 1303W        W69521  44.440  36.432   2.680
 1304W        W69522  24.943   1.415   4.766
 1305W        W69523   6.360  23.468  11.463
 1306W        W69524  21.069  30.131   1.786
 1307W        W69525  29.604  36.966  12.635
 1308W        W69526   0.477  32.618  14.928
 1309W        W69527  27.746   5.893   4.146
 1310W        W69528  15.082   6.806   4.138
 1311W        W69529   6.012  38.306  12.099
 1312W        W69530  22.015  33.311   3.309
 1313W        W69531   4.939  37.355  12.886
 1314W        W69532  35.914  30.803  13.648
 1315W        W69533   1.906   8.903   2.669
 1316W        W69534  32.194   7.956  12.045
 1317W        W69535  21.546  24.218  11.974
 1318W        W69536  27.835  39.022   9.868
 1319W        W69537  11.922   9.100   0.324
 1320W        W69538  44.848   5.118   4.833
 1321W        W69539  24.631   9.115  11.988
 1322W        W69540  44.750  41.686  10.830
 1323W        W69541  17.532  43.361  10.672
 1324W        W69542  24.001  24.037   2.821
 1325W        W69543  28.656  37.540  11.282
 1326W        W69544  27.230  44.232  13.380
 1327W        W69545   5.814  11.667  12.205
 1328W        W69546   4.347  28.492  11.613
 1329W        W69547  25.904  38.624  11.413
 1330W        W69548   5.769  15.597   3.860
 1331W        W69549  32.239  16.966  12.071
 1332W        W69550  26.433  29.283   4.509
 1333W        W69551   6.969  18.668  11.715
 1334W        W69552  30.028  41.697   2.039
 1335W        W69553  30.609   0.772   3.240
 1336W        W69554  30.360   4.895  14.811
 1337W        W69555  25.188  27.740  12.087
 1338W        W69556  12.193  28.039  12.367
 1339W        W69557  14.315  13.276   4.183
 1340W        W69558  18.136  13.782   0.440
 1341W        W69559  19.108  35.903   1.890
 1342W        W69560  16.137  22.688  12.650
 1343W        W69561   2.773  34.650  14.847
 1344W        W69562  40.217  39.441   1.519
 1345W        W69563   8.158  25.058   4.600
 1346W        W69564  42.103  23.198  13.010
 1347W        W69565  11.541  35.280   4.293
 1348W        W69566  32.638  29.132  13.028
 1349W        W69567   1.928  18.640  13.930
 1350W        W69568  26.544   7.871   3.659
 1351W        W69569  42.198  24.274  13.116
 1352W        W69570  15.825  10.146   1.294
 1353W        W69571  21.708  44.476  10.805
 1354W        W69572   8.706  40.301   1.949
 1355W        W69573  14.818   1.810  13.496
 1356W        W69574  25.158  23.637  14.581
 1357W        W69575  13.321   9.785  11.984
 1358W        W69576  12.828  11.158   2.321
 1359W        W69577   7.226  27.581   1.345
 1360W        W69578  17.628  23.768   0.373
 1361W        W69579  16.251  26.297   3.163
 1362W        W69580  15.848   1.224   3.078
 1363W        W69581   4.567  17.967  13.908
 1364W        W69582  17.732  29.227   2.809
 1365W        W69583   0.546  37.747  14.823
 1366W        W69584   1.401   0.256   4.247
 1367W        W69585   6.175   5.362   1.766
 1368W        W69586  17.660  38.177  12.713
 1369W        W69587   9.465  15.544  10.275
 1370W        W69588  20.113  32.890   0.811
 1371W        W69589  29.667  19.715  10.364
 1372W        W69590  33.354  37.787  14.840
 1373W        W69591  13.466   0.724   2.646
 1374W        W69592  35.638  24.945  11.205
 1375W        W69593  12.567  19.370   5.018
 1376W        W69594  17.802  43.266   0.947
 1377W        W69595  15.837  23.231  13.096
 1378W        W69596  27.181  33.099   2.195
 1379W        W69597  21.757  19.594   3.595
 1380W        W69598  34.802  33.886  12.905
 1381W        W69599  36.603  42.223   0.958
 1382W        W69600  22.571  16.572   0.470
 1383W        W69601  40.369   4.175  13.501
 1384W        W69602  42.927  29.603   3.423
 1385W        W69603  24.950   2.785  12.002
 1386W        W69604  37.529  40.782   2.670
 1387W        W69605  13.684  43.294   2.815
 1388W        W69606   1.056  33.454   5.034
 1389W        W69607  44.354  35.994   2.399
 1390W        W69608   9.308  18.736  14.269
 1391W        W69609   9.617  43.834  13.342
 1392W        W69610  30.601  40.470   1.684
 1393W        W69611   4.012  17.121  12.873
 1394W        W69612  37.967  34.772   9.994
 1395W        W69613  12.095   4.658   2.391
 1396W        W69614  12.707  14.053   4.469
 1397W        W69615   9.149   5.816   0.010
 1398W        W69616  43.008  28.066  11.986
 1399W        W69617  17.727  35.556   0.440
 1400W        W69618  11.811  33.040   3.095
 1401W        W69619   0.987  33.107   1.819
 1402W        W69620  25.468  38.176  13.051
 1403W        W69621   6.907   8.695  13.389
 1404W        W69622   7.765  27.269   4.025
 1405W        W69623   7.669  39.952  10.491
 1406W        W69624  31.628  22.536   2.347
 1407W        W69625  12.763  23.149   1.746
 1408W        W69626  21.064  24.439  11.997
 1409W        W69627  14.589   8.576   1.761
 1410W        W69628  34.136  44.952  11.113
 1411W        W69629  36.428  38.775  10.588
 1412W        W69630  18.685  12.116   1.306
 1413W        W69631  16.162  15.874  14.105
 1414W        W69632  39.774  17.772  11.016
 1415W        W69633  40.049  40.655   4.888
 1416W        W69634  39.312  14.265  13.710
 1417W        W69635  12.890  30.617   2.581
 1418W        W69636  16.629   3.386   0.707
 1419W        W69637   4.962  36.180  13.580
 1420W        W69638  29.108   4.862   3.771
 1421W        W69639  17.586  30.916   0.620
 1422W        W69640  43.594  34.102   4.584
 1423W        W69641  10.364  19.824  13.896
 1424W        W69642  30.557  26.054   1.705
 1425W        W69643   5.432   8.949  10.154
 1426W        W69644   2.295  20.368  11.200
 1427W        W69645  13.727  19.960   2.620
 1428W        W69646   2.222  44.103  13.017
 1429W        W69647  36.530  30.045  14.486
 1430W        W69648  17.664  11.827  10.984
 1431W        W69649  44.079  32.467  12.008
 1432W        W69650  10.233  39.593   2.892
 1433W        W69651  30.664  15.697   1.921
 1434W        W69652  21.493  18.288  10.694
 1435W        W69653   8.427  43.616  10.223
 1436W        W69654  13.564   0.241   1.162
 1437W        W69655  22.268  30.498  11.176
 1438W        W69656   2.967  39.317  13.273
 1439W        W69657   9.191  23.830   1.668
 1440W        W69658   0.291  19.857  12.842
 1441W        W69659  29.608  43.835  12.451
 1442W        W69660  15.102  43.354   3.114
 1443W        W69661   3.756  35.662   0.301
 1444W        W69662  21.521  37.504   0.829
 1445W        W69663  41.960  10.886  12.532
 1446W        W69664  17.819  39.484  14.949
 1447W        W69665   2.260  18.662   4.820
 1448W        W69666   9.357  18.970  13.376
 1449W        W69667  36.491  15.201  12.524
 1450W        W69668  31.165  11.430   2.764
 1451W        W69669  11.601  39.103   2.925
 1452W        W69670  18.073  19.460   3.695
 1453W        W69671  27.351   5.724  13.115
 1454W        W69672  39.404  11.200   1.268
 1455W        W69673  24.539  12.560   2.324
 1456W        W69674  12.115  14.056  12.896
 1457W        W69675  14.120  15.578   3.690
 1458W        W69676  41.467   6.836   2.136
 1459W        W69677  32.711  29.793  14.397
 1460W        W69678  35.132  20.731  12.048
 1461W        W69679  30.222  32.062  13.597
 1462W        W69680  36.596   7.923  14.352
 1463W        W69681  21.020  23.270  10.719
 1464W        W69682  18.210  37.923   2.738
 1465W        W69683  24.420  16.135  11.419
 1466W        W69684  43.711  35.204   3.771
 1467W        W69685  19.484  36.123  13.350
 1468W        W69686  40.496  28.152   2.645
 1469W        W69687  33.565  38.908  13.967
 1470W        W69688   1.472  28.775  12.887
 1471W        W69689  12.736  13.218   3.311
 1472W        W69690  13.818  11.275   2.649
 1473W        W69691  22.537   6.071  13.997
 1474W        W69692  30.724  41.429   3.214
 1475W        W69693  13.779  40.883  12.053
 1476W        W69694  10.699  33.826   1.895
 1477W        W69695  42.976   8.029   3.624
 1478W        W69696  43.553   1.227   4.420
 1479W        W69697   5.156  41.041  14.119
 1480W        W69698  30.294   4.180   2.788
 1481W        W69699  34.056  20.733   3.269
 1482W        W69700  23.000  10.213   1.029
 1483W        W69701  15.311  28.499   1.665
 1484W        W69702  42.483  21.880  13.526
 1485W        W69703  33.056  28.202   1.437
 1486W        W69704  20.100  22.466   1.733
 1487W        W69705  17.385  29.050   4.139
 1488W        W69706  38.701  42.581  11.074
 1489W        W69707  31.758  25.891   2.116
 1490W        W69708  39.313   7.191  14.026
 1491W        W69709  10.360  19.715  11.202
 1492W        W69710  23.723  16.204   4.726
 1493W        W69711   0.481  32.733  13.408
 1494W        W69712  16.725  37.934   0.165
 1495W        W69713  43.225   1.575   4.236
 1496W        W69714   2.060  23.005   1.991
 1497W        W69715   7.651  17.333  11.135
 1498W        W69716  29.090  12.683  13.671
 1499W        W69717  27.078  28.115   0.842
 1500W        W69718  19.532  34.912   2.382
 1501W        W69719  15.344  31.610  10.329
 1502W        W69720  29.547   7.562  10.332
 1503W        W69721  19.118  34.996   4.211
 1504W        W69722  43.835  41.320  14.497
 1505W        W69723  20.402   2.256  12.029
 1506W        W69724  21.537  29.712   0.756
 1507W        W69725  13.413  16.752   2.314
 1508W        W69726  11.186  38.620   4.059
 1509W        W69727  10.547  34.255   0.976
 1510W        W69728   1.070  25.013   1.063
 1511W        W69729  40.850  36.071   2.394
 1512W        W69730  28.551  43.224  14.014
 1513W        W69731  43.650   2.963   2.908
 1514W        W69732  11.268   5.435  12.972
 1515W        W69733  11.798  33.946   1.375
 1516W        W69734  19.134  28.510   2.629
 1517W        W69735  17.188   4.203   4.446
 1518W        W69736  36.636  39.712   0.889
 1519W        W69737  41.975   6.622  11.645
 1520W        W69738  14.664   2.811   9.796
 1521W        W69739  39.477  44.755  10.665
 1522W        W69740  10.326  31.965  11.143
 1523W        W69741  20.533  20.582   3.200
 1524W        W69742  35.614  42.879  11.711
 1525W        W69743  34.532  31.746   1.880
 1526W        W69744  17.672  23.594  12.153
 1527W        W69745  34.976  14.131  10.753
 1528W        W69746  24.451  10.404  10.168
 1529W        W69747  17.763  20.746   4.654
 1530W        W69748  22.002  31.027   0.478
 1531W        W69749   7.951  35.111   2.312
 1532W        W69750   8.753  34.651  14.347
 1533W        W69751  41.856  36.562  13.848
 1534W        W69752   8.809  23.963   0.508
 1535W        W69753  16.188  34.558   0.401
 1536W        W69754  38.325  27.257  14.552
 1537W        W69755   7.229  27.978  13.693
 1538W        W69756  28.196  40.538  11.614
 1539W        W69757   5.221  25.201   4.095
 1540W        W69758  38.865  15.549   4.142
 1541W        W69759   7.845  20.364   2.892
 1542W        W69760  29.480  22.023  10.220
 1543W        W69761  34.219   1.845  12.947
 1544W        W69762  22.198  28.714   3.558
 1545W        W69763   5.037  11.355   0.880
 1546W        W69764  14.659  18.757   3.239
 1547W        W69765  24.618  18.296   0.245
 1548W        W69766   3.300  34.770  14.410
 1549W        W69767  17.613  37.149  12.537
 1550W        W69768   0.849  33.818  11.153
 1551W        W69769   7.651   5.992   2.368
 1552W        W69770  10.267  11.305  11.118
 1553W        W69771  31.546  29.637  11.648
 1554W        W69772  39.342   9.054  11.129
 1555W        W69773  34.940  44.452  12.867
 1556W        W69774  20.793  16.898  14.895
 1557W        W69775  25.160  18.572   1.493
 1558W        W69776  39.073  29.502  12.434
 1559W        W69777   4.585  11.443  10.173
 1560W        W69778  11.009  25.420   0.889
 1561W        W69779  20.616   9.173  13.902
 1562W        W69780  31.315  31.588  12.871
 1563W        W69781  26.957  12.739   0.659
 1564W        W69782  43.898  12.524  13.008
 1565W        W69783   2.973  16.164  14.366
 1566W        W69784   8.595  13.715  13.931
 1567W        W69785  39.825  10.301  14.756
 1568W        W69786   5.896   6.348  14.924
 1569W        W69787  11.605   4.622   2.210
 1570W        W69788   4.096  43.205  10.690
 1571W        W69789  43.552   5.745  13.569
 1572W        W69790  44.521   8.294  11.571
 1573W        W69791  15.613  14.229  13.882
 1574W        W69792  38.357  19.170   3.150
 1575W        W69793  36.012   4.386   9.879
 1576W        W69794  44.903  39.382   4.207
 1577W        W69795   9.142  43.294  13.890
 1578W        W69796  25.520  33.173  13.410
 1579W        W69797  35.637   1.449  12.607
 1580W        W69798  36.995  33.993  11.170
 1581W        W69799   1.881  36.890  11.698
 1582W        W69800  18.708  20.295   0.056
 1583W        W69801  36.330  25.285   4.037
 1584W        W69802   1.943  33.964   2.279
 1585W        W69803  21.270  22.344  14.275
 1586W        W69804  32.440  31.128  10.556
 1587W        W69805  11.499  17.754   9.987
 1588W        W69806  30.329  22.675   0.253
 1589W        W69807   0.479   7.221   4.593
 1590W        W69808   0.326  34.414   4.773
 1591W        W69809   9.837  26.134  12.996
 1592W        W69810  39.866  16.227  12.091
 1593W        W69811  25.248  20.023  14.118
 1594W        W69812  37.126  19.542  13.398
 1595W        W69813  40.546  42.867  11.933
 1596W        W69814  19.616   6.152  13.883
 1597W        W69815  41.848  37.310   0.301
 1598W        W69816   7.383  17.790  11.088
 1599W        W69817  25.293  30.036  12.065
 1600W        W69818   7.205   0.742   1.953
 1601W        W69819  15.778  41.410  10.568
 1602W        W69820  22.252   7.914  12.424
 1603W        W69821  41.353   9.725   0.425
 1604W        W69822  18.737  36.859  12.925
 1605W        W69823  40.453  38.873   4.037
 1606W        W69824  15.418   4.662  12.514
 1607W        W69825  25.972  33.872   3.751
 1608W        W69826   8.334  21.064   2.410
 1609W        W69827  16.637  17.775  10.731
 1610W        W69828  31.081   1.646   4.979
 1611W        W69829  36.003   3.875   4.158
 1612W        W69830  34.085  17.314   0.472
 1613W        W69831  10.283  32.993   1.757
 1614W        W69832  21.791   3.669   0.203
 1615W        W69833  13.835  20.465   1.223
 1616W        W69834  24.677  36.302   2.146
 1617W        W69835  31.611  17.075   2.514
 1618W        W69836  16.608  37.889   2.205
 1619W        W69837   2.803  44.757   3.969
 1620W        W69838  25.989  18.740  14.078
 1621W        W69839  43.275  33.646   4.546
 1622W        W69840  35.029   6.679   4.620
 1623W        W69841   0.752  31.423   2.364
 1624W        W69842  13.229   7.845   2.265
 1625W        W69843  31.356  36.778  12.753
 1626W        W69844  37.298  42.818  13.119
 1627W        W69845  24.420  22.826   5.044
 1628W        W69846  44.370  29.917   3.713
 1629W        W69847  36.023  20.792  11.505
 1630W        W69848   1.292   0.747  13.255
 1631W        W69849  15.016  32.819   2.321
 1632W        W69850  25.291   7.656  10.340
 1633W        W69851  10.781  32.002   4.339
 1634W        W69852  21.034  27.990  13.367
 1635W        W69853  39.797  16.379   3.981
 1636W        W69854  44.707  35.610   2.637
 1637W        W69855  23.617   0.406   2.854
 1638W        W69856  11.281   2.474  10.634
 1639W        W69857  41.631  15.807   3.712
 1640W        W69858  19.073  34.826   3.521
 1641W        W69859  43.868  28.627   3.523
 1642W        W69860  30.989  14.546   0.080
 1643W        W69861  31.790  18.360   0.232
 1644W        W69862  34.850  14.221   3.252
 1645W        W69863  36.918  16.489  14.323
 1646W        W69864   0.550  42.461  13.247
 1647W        W69865  16.601   5.688  14.771
 1648W        W69866  21.525  35.842  14.334
 1649W        W69867   4.816   9.823   4.907
 1650W        W69868  44.627   3.223   1.621
 1651W        W69869   8.223  26.716   0.875
 1652W        W69870   9.477  43.391  10.254
 1653W        W69871  21.092   6.972  10.645
 1654W        W69872  22.269  17.587  13.917
 1655W        W69873  15.971  29.531  11.338
 1656W        W69874  18.214   4.252  12.602
 1657W        W69875  21.237   1.276  14.786
 1658W        W69876  30.931  13.914   4.474
 1659W        W69877  12.736  38.016  11.227
 1660W        W69878  20.059  31.663   3.117
 1661W        W69879  37.370   5.204  10.242
 1662W        W69880  11.701  15.739   2.486
 1663W        W69881  28.160   2.075  13.951
 1664W        W69882   9.195  27.973  12.368
 1665W        W69883   4.429  37.416   2.408
 1666W        W69884  20.660  14.038  11.530
 1667W        W69885   4.644  27.756   1.700
 1668W        W69886  30.174  22.033  14.419
 1669W        W69887  23.799  17.752  13.086
 1670W        W69888  39.763  33.465  11.152
 1671W        W69889  38.800  10.643   4.536
 1672W        W69890   3.247  24.226   5.036
 1673W        W69891  42.063  17.571  10.587
 1674W        W69892  40.309  16.607  10.571
 1675W        W69893  18.166  35.059   4.239
 1676W        W69894  26.633  19.774   4.719
 1677W        W69895  16.488   4.284  14.949
 1678W        W69896  23.778   2.775  11.898
 1679W        W69897  28.096  22.791   2.668
 1680W        W69898  32.635  14.929  13.488
 1681W        W69899  29.518  43.944  13.453
 1682W        W69900   0.982  44.354  11.712
 1683W        W69901   0.254   5.158   3.163
 1684W        W69902   1.848  18.475  14.935
 1685W        W69903   2.947  18.360   1.651
 1686W        W69904   8.017   9.885   0.412
 1687W        W69905  17.043  15.248   0.424
 1688W        W69906  17.306  31.565   3.674
 1689W        W69907  30.189  13.298   4.097
 1690W        W69908  29.198  23.059  13.479
 1691W        W69909  28.883  18.734  14.300
 1692W        W69910  10.149   1.335   2.657
 1693W        W69911   3.381   9.997   3.263
 1694W        W69912  13.769  12.405  14.433
 1695W        W69913  13.122   8.310   2.046
 1696W        W69914  18.330  12.272   5.316
 1697W        W69915  31.255  14.815  12.391
 1698W        W69916  11.420  28.181   2.231
 1699W        W69917  11.177  40.966   3.279
 1700W        W69918  34.434  28.939  12.133
 1701W        W69919   1.655  38.935  13.279
 1702W        W69920  25.577  42.442   0.225
 1703W        W69921   2.378  26.675   3.223
 1704W        W69922   3.923   0.367   3.656
 1705W        W69923  37.856  41.323   0.304
 1706W        W69924  22.550  33.607   2.196
 1707W        W69925  13.928  41.620   2.166
 1708W        W69926  10.275  30.894  14.703
 1709W        W69927   2.650   7.191   2.040
 1710W        W69928  25.575  19.172   2.969
 1711W        W69929   4.112  37.333  14.957
 1712W        W69930  14.298  25.602  14.801
 1713W        W69931  17.572  30.377   2.220
 1714W        W69932  12.951  39.969   0.605
 1715W        W69933  42.947   4.702   2.276
 1716W        W69934  20.982   7.307  12.848
 1717W        W69935  35.408   1.855  11.589
 1718W        W69936  29.445   6.099  14.229
 1719W        W69937  10.880  18.657  13.300
 1720W        W69938  21.562   3.857   4.606
 1721W        W69939  31.667  24.026   0.427
 1722W        W69940  42.601   8.758  10.991
 1723W        W69941  42.715   9.759   2.643
 1724W        W69942  34.687  39.821  14.427
 1725W        W69943  12.400  17.701   3.731
 1726W        W69944  40.496  15.809   1.899
 1727W        W69945  21.243  37.272  11.478
 1728W        W69946  28.122   0.800   3.742
 1729W        W69947   4.956  44.799  10.942
 1730W        W69948   5.745  20.684   0.843
 1731W        W69949  44.962  20.582   1.402
 1732W        W69950  17.796  21.666  14.473
 1733W        W69951  13.685  34.362  12.860
 1734W        W69952   2.705  33.929  14.373
 1735W        W69953  26.752  29.316   0.240
 1736W        W69954  10.277  18.043   3.397
 1737W        W69955  17.097  43.875   4.583
 1738W        W69956  33.831  22.512   4.489
 1739W        W69957  43.967  29.349  13.880
 1740W        W69958  22.572  22.381   5.239
 1741W        W69959  30.446  20.207  14.913
 1742W        W69960  18.170  43.849   3.428
 1743W        W69961  27.981  44.694  11.177
 1744W        W69962  33.377  24.686  12.078
 1745W        W69963  35.734  27.792   1.756
 1746W        W69964  28.077  10.690   0.827
 1747W        W69965   2.338  33.978   1.360
 1748W        W69966  30.115  39.841  10.599
 1749W        W69967  16.540  27.116  14.789
 1750W        W69968  14.573  30.343   5.007
 1751W        W69969   5.235  15.329   3.231
 1752W        W69970   8.113  10.963   0.244
 1753W        W69971   3.307  40.484   9.920
 1754W        W69972   3.812  11.091  13.863
 1755W        W69973  29.715  44.525   1.283
 1756W        W69974  33.852  13.712  12.403
 1757W        W69975  19.554  44.005   4.162
 1758W        W69976  14.153  28.047  13.104
 1759W        W69977  37.975  16.730   2.460
 1760W        W69978  25.956  20.237  13.404
 1761W        W69979  12.667  33.063  13.367
 1762W        W69980   8.118  12.333   0.909
 1763W        W69981  26.102   6.382  12.873
 1764W        W69982   4.405   5.150  14.972
 1765W        W69983  38.155   1.365  13.032
 1766W        W69984  27.950  24.173  12.106
 1767W        W69985   6.448   1.349  10.812
 1768W        W69986  21.015  14.678   1.350
 1769W        W69987  37.874  26.281   1.103
 1770W        W69988  41.095   1.000  11.099
 1771W        W69989  20.646  19.053  12.506
 1772W        W69990  15.183  14.854   2.072
 1773W        W69991  13.709  21.275  11.893
 1774W        W69992  43.347  42.401   2.840
 1775W        W69993  42.075  35.968  12.777
 1776W        W69994  32.089   7.250  13.410
 1777W        W69995  26.730  27.227   4.688
 1778W        W69996  28.331  14.547  13.796
 1779W        W69997   3.885  40.888   3.292
 1780W        W69998  32.503   8.982  10.700
 1781W        W69999  43.904   6.887  14.835
 1782W        W70000  36.315  20.972   1.739
 1783W        W70001  40.897  39.416   0.166
 1784W        W70002   5.173   9.275   3.319
 1785W        W70003  30.448  41.231  11.074
 1786W        W70004  14.183  38.311  14.700
 1787W        W70005  27.515   6.659   1.997
 1788W        W70006  28.216   2.770  12.460
 1789W        W70007  11.624  38.820   5.241
 1790W        W70008  15.252   0.401   1.951
 1791W        W70009  26.379  19.771  12.574
 1792W        W70010  44.968  31.095  14.223
 1793W        W70011  36.051  32.838   1.025
 1794W        W70012  41.374   4.882   3.058
 1795W        W70013  35.377  26.092  14.758
 1796W        W70014  31.491  28.566  13.923
 1797W        W70015  25.503  16.302  12.411
 1798W        W70016  13.756  33.109   2.819
 1799W        W70017  25.264  14.633  12.389
 1800W        W70018  32.131   6.155   2.224
 1801W        W70019   0.440  31.162  13.412
 1802W        W70020  16.138  41.973  11.650
 1803W        W70021  33.870  18.270   4.621
 1804W        W70022  39.153  11.173  12.818
 1805W        W70023  41.810   0.222   4.546
 1806W        W70024   3.795  43.093   3.278
 1807W        W70025  21.000  27.719  11.611
 1808W        W70026  31.139  26.999   5.429
 1809W        W70027  36.914  42.281   3.245
 1810W        W70028   4.753  28.566  13.381
 1811W        W70029  44.272   1.342   1.426
 1812W        W70030   5.691  40.884  12.200
 1813W        W70031  17.835  38.314   0.938
 1814W        W70032  39.812  18.731   4.666
 1815W        W70033  28.697  14.210   4.213
 1816W        W70034   1.854  23.993  12.102
 1817W        W70035  20.716  34.334   1.430
 1818W        W70036   5.866  15.074   0.314
 1819W        W70037   6.422  14.179   1.105
 1820W        W70038  43.563  38.306   1.382
 1821W        W70039   2.291  37.842  14.214
 1822W        W70040  24.062  28.330   1.293
 1823W        W70041  33.964  10.386  10.565
 1824W        W70042  18.575  42.767   1.414
 1825W        W70043  41.748   7.634  11.720
 1826W        W70044  44.023  14.584  14.973
 1827W        W70045  43.047  40.497  14.961
 1828W        W70046  17.739  17.754   2.637
 1829W        W70047  19.982  16.840  13.897
 1830W        W70048  17.087  39.548   4.360
 1831W        W70049  24.974   0.815  10.790
 1832W        W70050  41.210   6.933   3.405
 1833W        W70051  40.444   6.002   0.308
 1834W        W70052  42.341  17.260   4.307
 1835W        W70053   8.545   0.499  14.403
 1836W        W70054  22.486  31.888  13.798
 1837W        W70055  35.080   9.299  14.446
 1838W        W70056  22.719   0.735   4.064
 1839W        W70057  12.332  38.346  14.843
 1840W        W70058  14.826   8.113  12.946
 1841W        W70059  29.793  21.342  12.585
 1842W        W70060   9.256   8.454   3.616
 1843W        W70061  27.000  42.034  12.541
 1844W        W70062  42.793  36.022  11.550
 1845W        W70063  36.219  12.047   3.608
 1846W        W70064   3.182  37.743  13.369
 1847W        W70065  39.702  22.722   1.970
 1848W        W70066   8.921  19.085  14.056
 1849W        W70067   8.100   1.916   3.312
 1850W        W70068   6.854  37.326   2.625
 1851W        W70069  26.622  35.388  11.745
 1852W        W70070  34.184  15.135   2.941
 1853W        W70071  26.133  39.621   2.874
 1854W        W70072  22.082  43.315  11.192
 1855W        W70073   3.497  34.408  12.196
 1856W        W70074   1.300   1.568   3.694
 1857W        W70075  20.082  15.755  14.315
 1858W        W70076  36.336  36.668   4.540
 1859W        W70077  27.649  12.346   4.245
 1860W        W70078  28.748   0.408   4.524
 1861W        W70079  10.443  17.745   5.125
 1862W        W70080  30.567  22.881  14.368
 1863W        W70081   0.860  39.630  13.067
 1864W        W70082  34.668  14.193   2.751
 1865W        W70083  10.465  32.538  11.686
 1866W        W70084  35.336   0.251  14.274
 1867W        W70085  33.348  41.752  12.973
 1868W        W70086  25.946  10.371   2.364
 1869W        W70087  41.200  42.486   0.687
 1870W        W70088  18.552  34.824   5.057
 1871W        W70089  36.609   0.262  11.099
 1872W        W70090  34.219  34.482   4.160
 1873W        W70091  39.538  15.314   4.684
 1874W        W70092  23.212  20.744  13.565
 1875W        W70093  16.799  21.024   2.101
 1876W        W70094  14.021   7.714  13.101
 1877W        W70095  24.150  28.085  13.462
 1878W        W70096  42.030   4.350   0.327
 1879W        W70097   4.922   2.766  10.117
 1880W        W70098  33.065  34.081  13.439
 1881W        W70099  26.462   0.839   0.815
 1882W        W70100  26.755  12.735  14.773
 1883W        W70101  39.493   6.381  12.507
 1884W        W70102  26.210  22.326  11.127
 1885W        W70103   9.917  38.986   4.271
 1886W        W70104  11.328  21.649   1.321
 1887W        W70105   2.654  30.947   1.318
 1888W        W70106  17.118   8.125   2.429
 1889W        W70107  34.228  27.555  13.905
 1890W        W70108  15.294  30.631  11.388
 1891W        W70109  36.557  32.831  10.681
 1892W        W70110  35.965  27.697   3.174
 1893W        W70111  40.904  25.551   3.848
 1894W        W70112  35.906   9.843  12.871
 1895W        W70113  30.589  28.734   1.464
 1896W        W70114  12.665   5.881   4.642
 1897W        W70115  42.712  36.147   3.672
 1898W        W70116  40.065  41.681   2.720
 1899W        W70117  30.715   1.415  11.459
 1900W        W70118  23.495  30.979   4.890
 1901W        W70119   9.438  19.439  14.865
 1902W        W70120   0.509  36.657   1.871
 1903W        W70121  18.118  14.059   0.001
 1904W        W70122   6.231  22.318  14.732
 1905W        W70123  17.310  14.759  12.344
 1906W        W70124  32.948   4.149   0.241
 1907W        W70125  37.479   7.671   0.889
 1908W        W70126  30.198  37.459   4.834
 1909W        W70127   3.813  14.667   3.199
 1910W        W70128   3.482  30.201  10.951
 1911W        W70129  33.075  41.064  10.567
 1912W        W70130  12.882  29.369  14.367
 1913W        W70131  12.825  39.059  13.895
 1914W        W70132  36.332   5.846  11.822
 1915W        W70133  21.156  42.149  14.141
 1916W        W70134  26.254  16.132  12.062
 1917W        W70135  28.111   6.360  14.285
 1918W        W70136  43.429   0.114   1.636
 1919W        W70137  37.353  32.581   0.425
 1920W        W70138  23.255  21.071   2.259
 1921W        W70139  42.189  24.940  11.008
 1922W        W70140  21.838  28.722  12.500
 1923W        W70141  24.304   9.606   1.266
 1924W        W70142  23.671  27.638   2.199
 1925W        W70143  19.735  30.206   0.325
 1926W        W70144   4.154  21.301   4.036
 1927W        W70145  40.642   4.328  14.853
 1928W        W70146  20.640   6.431  12.885
 1929W        W70147  11.251  35.339  14.083
 1930W        W70148   4.302   4.813   3.969
 1931W        W70149  27.645  23.648   2.625
 1932W        W70150  23.770  25.188   1.361
 1933W        W70151  14.791  23.463  11.634
 1934W        W70152  34.819   1.996  14.407
 1935W        W70153   9.643   7.308  14.070
 1936W        W70154  37.190  28.548  14.185
 1937W        W70155   0.089  32.612   2.228
 1938W        W70156  24.797  40.090   2.221
 1939W        W70157  35.046   8.335   0.370
 1940W        W70158  19.619   8.573   1.690
 1941W        W70159  35.540  28.266  11.511
 1942W        W70160  20.267   0.229  11.196
 1943W        W70161  39.453  36.175   3.198
 1944W        W70162  32.458   0.551   2.315
 1945W        W70163  41.782  13.824   0.182
 1946W        W70164  32.571  36.976  11.384
 1947W        W70165  28.100  38.480   4.604
 1948W        W70166  14.852  20.730   2.642
 1949W        W70167  36.907  14.121   3.135
 1950W        W70168  17.030  42.863  11.271
 1951W        W70169  12.724  10.096  14.810
 1952W        W70170  40.929  39.351   1.243
 1953W        W70171  35.312  17.245  13.633
 1954W        W70172   8.409  25.489   1.243
 1955W        W70173  40.370   0.922  11.670
 1956W        W70174  20.998  40.534  13.480
 1957W        W70175  14.422  39.469   3.216
 1958W        W70176  11.305  12.744  12.020
 1959W        W70177  15.780  31.625   3.722
 1960W        W70178  17.768  33.869  12.141
 1961W        W70179   3.345  10.037  12.371
 1962W        W70180  21.186   3.900  10.616
 1963W        W70181   9.732   7.386   1.258
 1964W        W70182  36.319  28.509   1.387
 1965W        W70183  40.373  32.641   4.153
 1966W        W70184  21.722  22.533  11.437
 1967W        W70185  34.145  11.313   2.694
 1968W        W70186  12.760  12.931  14.457
 1969W        W70187   0.066  31.700  11.235
 1970W        W70188  32.333   0.229  14.373
 1971W        W70189  24.869   3.737  13.092
 1972W        W70190  38.889   1.930   3.013
 1973W        W70191  12.419  27.918   3.179
 1974W        W70192  16.256  15.702   1.963
 1975W        W70193  41.075  44.796  11.107
 1976W        W70194  13.434  16.008  13.730
 1977W        W70195  16.315  42.015  14.451
 1978W        W70196  20.872  18.166   3.648
 1979W        W70197  29.834  22.594   0.462
 1980W        W70198  32.109  38.404  14.809
 1981W        W70199   0.990   9.529  10.929
 1982W        W70200  18.893  23.436   0.499
 1983W        W70201  10.760  18.103  13.815
 1984W        W70202   4.410   6.254  11.873
 1985W        W70203   7.885  32.153   2.265
 1986W        W70204  13.107  18.611   3.266
 1987W        W70205  16.177  11.150   1.931
 1988W        W70206  36.257  28.442  14.555
 1989W        W70207   7.858  38.317   4.244
 1990W        W70208  36.109  10.360  14.359
 1991W        W70209  22.598   3.297   3.685
 1992W        W70210  30.087  20.570  13.856
 1993W        W70211   3.530   0.863   0.675
 1994W        W70212  37.897  24.491   3.701
 1995W        W70213  28.556  13.404  14.408
 1996W        W70214  19.615  13.918  11.528
 1997W        W70215  18.757   3.668  11.745
 1998W        W70216  37.001  17.685   0.191
 1999W        W70217  20.100  43.723  13.547
 2000W        W70218  17.705   8.425   2.580
 2001W        W70219   6.593  43.021  13.029
 2002W        W70220  11.064   2.323   1.848
 2003W        W70221   7.847  13.700   0.890
 2004W        W70222  33.831  44.830  10.671
 2005W        W70223   5.461  15.317   1.413
 2006W        W70224  20.036   7.709   1.214
 2007W        W70225  21.451   3.858   1.500
 2008W        W70226  32.848  21.768  13.566
 2009W        W70227   5.518  25.485   2.263
 2010W        W70228  43.448   2.921  10.839
 2011W        W70229  16.577  12.094   2.879
 2012W        W70230  13.737   5.930  10.725
 2013W        W70231  15.313  43.641  14.482
 2014W        W70232  21.918  17.090   2.864
 2015W        W70233  19.121  15.036   3.306
 2016W        W70234  33.575   0.422   1.361
 2017W        W70235  11.517   2.704   0.905
 2018W        W70236   5.302  11.261   1.763
 2019W        W70237  44.404  22.042  13.343
 2020W        W70238  39.975  42.475  10.787
 2021W        W70239  43.373  25.517   3.434
 2022W        W70240   8.429  29.771  12.984
 2023W        W70241   0.786  38.462  12.420
 2024W        W70242  40.750  19.362  11.554
 2025W        W70243  10.431  18.247  10.743
 2026W        W70244  44.731  39.342   0.389
 2027W        W70245  17.184  15.529  13.447
 2028W        W70246  34.380  35.853  14.814
 2029W        W70247  18.109  35.340  13.380
 2030W        W70248  10.206  12.106  13.657
 2031W        W70249  27.764  19.794   2.379
 2032W        W70250  40.844  12.756  12.588
 2033W        W70251   4.975  31.040   3.292
 2034W        W70252  18.473  18.540  10.780
 2035W        W70253   8.280  11.619   2.700
 2036W        W70254  27.702   8.678  12.432
 2037W        W70255  41.633  18.497   0.690
 2038W        W70256  41.570  25.781   0.428
 2039W        W70257   3.334  36.261   4.012
 2040W        W70258   5.791  11.189  12.426
 2041W        W70259  39.499  35.940  12.053
 2042W        W70260  43.286  20.283   2.188
 2043W        W70261  42.012   1.250   3.169
 2044W        W70262  42.344  32.872   4.617
 2045W        W70263  19.258  41.065  12.436
 2046W        W70264   2.232   2.399   4.219
 2047W        W70265  20.719  37.677  10.569
 2048W        W70266  19.310  20.579   0.912
 2049W        W70267   6.128  17.755   5.016
 2050W        W70268   3.743  33.022   1.239
 2051W        W70269  32.215  28.300  11.613
 2052W        W70270  42.035  31.228   2.341
 2053W        W70271  26.517   1.774  10.091
 2054W        W70272  10.312   3.019   3.854
 2055W        W70273   5.278  39.955   2.244
 2056W        W70274  28.629  11.773  11.118
 2057W        W70275  39.206   0.443  12.481
 2058W        W70276   7.074  11.334  13.880
 2059W        W70277  26.559  31.879  14.359
 2060W        W70278  21.301  17.181  13.600
 2061W        W70279  28.075  43.202  11.114
 2062W        W70280  44.860  38.783  11.617
 2063W        W70281   8.673  44.075  11.027
 2064W        W70282  42.162   0.736  14.106
 2065W        W70283   1.430  22.542   3.881
 2066W        W70284  25.686  15.196  10.969
 2067W        W70285   3.682  41.515  12.996
 2068W        W70286  30.644  35.732  10.678
 2069W        W70287  31.639  21.739  14.844
 2070W        W70288   7.764  35.374   1.422
 2071W        W70289  42.503  32.201   0.714
 2072W        W70290  17.040   0.177  11.965
 2073W        W70291   5.405  23.811   2.490
 2074W        W70292  16.244  43.313  13.415
 2075W        W70293   2.881  16.939  11.141
 2076W        W70294  35.201   5.018  12.095
 2077W        W70295   0.872  30.648   2.626
 2078W        W70296  23.597  39.060  14.038
 2079W        W70297  40.922  24.111   3.229
 2080W        W70298  24.216   7.922  11.169
 2081W        W70299  26.651  35.346   4.955
 2082W        W70300  25.627  14.422   9.832
 2083W        W70301   8.769   3.316  11.857
 2084W        W70302  23.662  21.669  13.074
 2085W        W70303  34.411  32.432   4.246
 2086W        W70304  44.578  17.633   1.428
 2087W        W70305  11.845  24.154   0.205
 2088W        W70306  41.706  30.678  14.595
 2089W        W70307   5.816  12.223  11.524
 2090W        W70308  33.103  18.843  12.706
 2091W        W70309   0.932  22.818  12.142
 2092W        W70310  28.099  36.893  12.951
 2093W        W70311  30.346  16.519  14.168
 2094W        W70312  28.048   9.006   3.939
 2095W        W70313   5.180  41.467  10.996
 2096W        W70314  42.766   5.205   4.581
 2097W        W70315  21.673   4.416  13.091
 2098W        W70316   7.329   8.492   0.424
 2099W        W70317  26.687  17.294   3.127
 2100W        W70318  12.111  38.571  13.003
 2101W        W70319  44.578  22.543  12.480
 2102W        W70320  31.408  40.224   3.858
 2103W        W70321  29.984  29.219   4.144
 2104W        W70322  31.518   6.863   5.248
 2105W        W70323  40.211  14.223  11.438
 2106W        W70324  17.807  24.704   2.682
 2107W        W70325   1.410  33.172  13.388
 2108W        W70326  11.549  18.005  12.229
 2109W        W70327  24.076  30.284   3.330
 2110W        W70328  13.252  28.999  14.465
 2111W        W70329  44.319  23.699  13.021
 2112W        W70330  11.155  23.773  10.691
 2113W        W70331  15.113   8.659   0.852
 2114W        W70332  44.355  20.226  10.638
 2115W        W70333  21.152  44.839  13.682
 2116W        W70334  37.160  40.938   3.013
 2117W        W70335  21.878   4.850  12.079
 2118W        W70336  18.569   1.207  10.478
 2119W        W70337  41.441  32.282   0.633
 2120W        W70338  36.011  24.052   4.584
 2121W        W70339  11.134   2.266  12.005
 2122W        W70340   4.924  11.259   1.388
 2123W        W70341  39.924  36.314  13.867
 2124W        W70342  33.462  36.155   4.109
 2125W        W70343  25.529   2.695  11.147
 2126W        W70344  42.361  18.232   0.024
 2127W        W70345  12.519  30.144  12.831
 2128W        W70346  14.360  35.950   3.419
 2129W        W70347  36.598  29.248   2.835
 2130W        W70348   6.752  19.749  13.330
 2131W        W70349  43.217   8.659  13.567
 2132W        W70350  23.471  10.044   4.362
 2133W        W70351  12.203  33.862   2.676
 2134W        W70352  11.629  13.118   0.565
 2135W        W70353   4.756  10.674  11.820
 2136W        W70354  40.825  33.557  12.619
 2137W        W70355  13.018  32.472  14.766
 2138W        W70356  11.806  12.918  12.048
 2139W        W70357  32.192  38.560   2.755
 2140W        W70358  44.809  34.170  11.919
 2141W        W70359  35.695  26.668   5.097
 2142W        W70360  29.879  20.333   3.349
 2143W        W70361   9.892  15.927  12.048
 2144W        W70362   9.530  24.040  13.860
 2145W        W70363  25.413  33.233   0.783
 2146W        W70364   1.510   1.909  13.869
 2147W        W70365   8.375  16.805   5.022
 2148W        W70366  25.012   5.808  11.667
 2149W        W70367  17.627  21.003   2.217
 2150W        W70368  12.055  34.589   2.314
 2151W        W70369   6.769  25.314  11.812
 2152W        W70370  43.994  44.541   1.208
 2153W        W70371  21.020  35.030   0.879
 2154W        W70372  14.747  35.043  12.631
 2155W        W70373  40.918   6.436   1.297
 2156W        W70374  20.993  40.005  11.907
 2157W        W70375  18.023  33.527  11.120
 2158W        W70376  13.098  32.497   2.778
 2159W        W70377  17.890  16.474   1.728
 2160W        W70378  27.982  24.160  14.754
 2161W        W70379  42.319  42.397  10.712
 2162W        W70380  26.102   9.014  11.115
 2163W        W70381  21.724  43.974   2.251
 2164W        W70382   8.405  34.331  10.641
 2165W        W70383  43.925   5.746  14.074
 2166W        W70384  42.027  32.550   3.849
 2167W        W70385  15.778  21.792   4.068
 2168W        W70386  34.071  24.631   2.752
 2169W        W70387   2.715   1.821  10.739
 2170W        W70388  38.060  22.995   3.854
 2171W        W70389  37.666  10.227  14.819
 2172W        W70390  16.008   9.527  10.546
 2173W        W70391  44.550  40.674  11.575
 2174W        W70392   6.479  24.652   2.285
 2175W        W70393  13.834  19.321  13.366
 2176W        W70394  25.706  27.090   4.747
 2177W        W70395  31.118  29.047   4.549
 2178W        W70396  21.349  34.550  12.662
 2179W        W70397  22.261  39.906  12.677
 2180W        W70398  33.619  43.668   9.683
 2181W        W70399   5.585  36.952  13.381
 2182W        W70400  26.106   9.657  14.934
 2183W        W70401  26.887   1.925   3.369
 2184W        W70402   2.700  44.081  11.423
 2185W        W70403   2.731  26.406  11.202
 2186W        W70404   9.954   3.851  14.357
 2187W        W70405  10.859  29.124  11.545
 2188W        W70406  43.326  17.338   5.038
 2189W        W70407  29.535  12.886  12.054
 2190W        W70408  41.337  44.753  14.957
 2191W        W70409  15.523  29.428   1.773
 2192W        W70410  21.623  39.626  12.803
 2193W        W70411  12.147  36.826   4.775
 2194W        W70412  32.108  10.650   4.343
 2195W        W70413   3.088   6.117   3.375
 2196W        W70414  25.026  41.744  13.847
 2197W        W70415  44.233  38.335  12.397
 2198W        W70416  31.359  38.835  13.205
 2199W        W70417  24.168   3.831  12.650
 2200W        W70418  21.111  27.706  12.935
 2201W        W70419   4.370  17.336  12.336
 2202W        W70420  43.654  18.798   3.999
 2203W        W70421  40.385  24.516   4.173
 2204W        W70422  43.582  29.702  13.952
 2205W        W70423  36.102  34.340   2.779
 2206W        W70424  36.362  16.240   1.385
 2207W        W70425  37.036  41.996  11.515
 2208W        W70426  13.219  29.952  12.093
 2209W        W70427  34.672  44.470   3.761
 2210W        W70428   5.216  30.083   1.348
 2211W        W70429  26.345  17.236   4.348
 2212W        W70430  17.064  21.403  10.665
 2213W        W70431  33.159  32.400   4.567
 2214W        W70432  15.547  40.957  13.073
 2215W        W70433  37.260  31.606   3.457
 2216W        W70434  41.945  30.960   3.825
 2217W        W70435  12.451  27.236   0.893
 2218W        W70436  11.561   6.895   3.217
 2219W        W70437  31.547  33.942  11.532
 2220W        W70438  41.982  12.220   1.790
 2221W        W70439  13.687   4.455   3.570
 2222W        W70440  41.569  32.333  14.735
 2223W        W70441  13.688  36.633  11.530
 2224W        W70442  16.781  21.168   1.091
 2225W        W70443   1.033  40.224  12.007
 2226W        W70444  27.228   6.864  11.510
 2227W        W70445  30.441  33.329  12.968
 2228W        W70446  21.581   1.820   0.373
 2229W        W70447   2.291  33.477   4.050
 2230W        W70448  20.223   0.916   1.700
 2231W        W70449  41.459  41.531  10.626
 2232W        W70450  27.369  30.312  14.818
 2233W        W70451  23.603  31.899   2.779
 2234W        W70452  38.024  10.190   1.945
 2235W        W70453  12.034  43.776   1.328
 2236W        W70454  41.031  32.208   1.794
 2237W        W70455   8.780  19.317  14.968
 2238W        W70456   1.817  29.998  11.179
 2239W        W70457  27.463  23.143   3.695
 2240W        W70458  31.502  27.639  10.730
 2241W        W70459  30.001  38.628  10.735
 2242W        W70460   3.007  29.377  11.693
 2243W        W70461  37.024   4.276  13.529
 2244W        W70462  37.534  44.678  12.858
 2245W        W70463  40.322   3.147  14.453
 2246W        W70464  36.999  22.698  13.968
 2247W        W70465  23.414  27.998  14.854
 2248W        W70466  26.198  15.833  10.670
 2249W        W70467  17.832  35.040   4.623
 2250W        W70468  25.629  30.462  11.112
 2251W        W70469  24.204  30.350  14.360
 2252W        W70470  29.193  44.908   3.627
 2253W        W70471  25.586  34.949  10.497
 2254W        W70472  24.035  19.936  13.483
 2255W        W70473  42.607  32.517  12.203
 2256W        W70474  23.493   1.758   1.838
 2257W        W70475  24.189  35.423  14.881
 2258W        W70476  24.400  43.227  12.579
 2259W        W70477  26.469   8.844  10.805
 2260W        W70478  11.970  35.633   3.158
 2261W        W70479  18.282  37.442   3.670
 2262W        W70480  42.098   6.789  10.821
 2263W        W70481   2.307  13.516  12.091
 2264W        W70482   2.929  26.849   1.263
 2265W        W70483  40.373  22.456  12.308
 2266W        W70484  12.186  18.580  10.556
 2267W        W70485  31.621  41.253  14.961
 2268W        W70486  22.302  33.031   0.797
 2269W        W70487  44.299   7.337   1.850
 2270W        W70488  24.508  14.124  14.400
 2271W        W70489   7.882  25.489   1.378
 2272W        W70490   1.916  29.068  13.635
 2273W        W70491   2.776  20.473  13.845
 2274W        W70492   2.456  30.991   2.203
 2275W        W70493  25.701  16.835  13.334
 2276W        W70494  33.983  27.632  12.572
 2277W        W70495  37.834  40.753  10.964
 2278W        W70496  40.922  19.114   2.811
 2279W        W70497  32.126   6.252  14.407
 2280W        W70498   8.759  43.400  12.644
 2281W        W70499  16.158  44.554  14.895
 2282W        W70500  28.144  38.134   3.679
 2283W        W70501  23.713  23.227   1.833
 2284W        W70502  39.450  21.551  12.230
 2285W        W70503  18.511  19.036   0.655
 2286W        W70504  11.398  43.760  11.065
 2287W        W70505  12.090  31.691   2.312
 2288W        W70506  35.064  14.774  14.034
 2289W        W70507  38.491  16.361   3.353
 2290W        W70508  29.172   3.846  13.947
 2291W        W70509  20.205   7.704  10.787
 2292W        W70510  16.301   4.993  11.042
 2293W        W70511  23.927  16.567  12.801
 2294W        W70512  35.054  12.251  14.964
 2295W        W70513  18.232  21.626   2.215
 2296W        W70514  32.148  23.613  10.633
 2297W        W70515  18.503  41.527   1.947
 2298W        W70516   5.351  36.928   2.568
 2299W        W70517   4.207  11.805   2.310
 2300W        W70518  21.005  13.329   2.121
 2301W        W70519  18.599  11.750  11.115
 2302W        W70520  10.665  11.203   3.810
 2303W        W70521  26.793  11.691   0.376
 2304W        W70522   9.296   6.101  14.507
 2305W        W70523  34.939  40.126  14.738
 2306W        W70524  30.315  32.454   0.854
 2307W        W70525   9.190   1.479  10.536
 2308W        W70526  38.714   3.035  11.201
 2309W        W70527   1.577  25.192   1.836
 2310W        W70528   2.476  15.245   1.690
 2311W        W70529   6.292   6.192  13.083
 2312W        W70530  39.405  44.741   3.633
 2313W        W70531  21.210  32.183   1.872
 2314W        W70532   3.097  29.000  10.571
 2315W        W70533  25.249  30.451   4.701
 2316W        W70534  30.975  34.225  12.131
 2317W        W70535  36.899  20.263   0.192
 2318W        W70536  24.009  44.037  11.148
 2319W        W70537  38.238   1.461  11.108
 2320W        W70538  21.970  21.547   4.782
 2321W        W70539  18.364   4.622   3.579
 2322W        W70540   5.741  17.334   9.719
 2323W        W70541  11.808   6.349   3.245
 2324W        W70542  20.634  41.501   0.861
 2325W        W70543  34.226  18.022  14.883
 2326W        W70544  23.462  18.096  14.431
 2327W        W70545  19.963  11.803  11.390
 2328W        W70546  13.081  25.597  12.555
 2329W        W70547   3.885  34.937  10.948
 2330W        W70548  27.872  21.809   2.601
 2331W        W70549  26.923  11.020   4.158
 2332W        W70550  31.429  18.762  13.017
 2333W        W70551  17.070   1.294  14.449
 2334W        W70552  29.424  29.082   3.189
 2335W        W70553  36.094  11.156   0.891
 2336W        W70554  19.195  27.393  13.372
 2337W        W70555  24.697  16.528   1.852
 2338W        W70556   6.763  23.947  12.925
 2339W        W70557   4.037  42.481  13.571
 2340W        W70558   3.910  40.720  10.943
 2341W        W70559  35.385  43.846   2.708
 2342W        W70560  32.703  30.606   1.181
 2343W        W70561  18.694   0.765  10.776
 2344W        W70562  12.598   7.560   3.022
 2345W        W70563  16.561  43.926   5.508
 2346W        W70564   4.762   6.108  13.584
 2347W        W70565   2.450   3.199   2.392
 2348W        W70566  25.656  28.936   1.420
 2349W        W70567   5.348  30.870  11.546
 2350W        W70568   5.927  39.173   1.266
 2351W        W70569  36.264  30.365   4.128
 2352W        W70570  28.352   7.870   2.762
 2353W        W70571  42.290  20.851  12.544
 2354W        W70572  34.138  36.968   1.413
 2355W        W70573   5.758  44.880   0.831
 2356W        W70574  29.516   7.253  13.980
 2357W        W70575  11.154  42.239   1.258
 2358W        W70576  29.963   6.632  11.458
 2359W        W70577  29.010  38.374  14.344
 2360W        W70578  19.707  43.272   1.389
 2361W        W70579  37.554  27.613   0.033
 2362W        W70580  15.085  16.396   1.978
 2363W        W70581   0.303  32.354  12.496
 2364W        W70582   4.462  39.321  14.844
 2365W        W70583   0.038  42.515  14.870
 2366W        W70584  30.147  33.138  10.655
 2367W        W70585  36.438  19.524   2.338
 2368W        W70586   6.053   4.921   2.242
 2369W        W70587  27.351  19.716   4.132
 2370W        W70588  18.152   6.580   1.451
 2371W        W70589  36.810  24.740  13.012
 2372W        W70590  39.355  36.907  13.280
 2373W        W70591   0.208   2.178   2.271
 2374W        W70592   2.555   6.082   4.148
 2375W        W70593   0.307   9.116  12.982
 2376W        W70594  36.715  35.653  11.066
 2377W        W70595  40.351  35.054  11.299
 2378W        W70596  21.803   7.223  13.019
 2379W        W70597  33.764  24.559  11.463
 2380W        W70598  21.486  17.263  14.787
 2381W        W70599   2.448  20.856  11.209
 2382W        W70600  23.032  35.832   1.356
 2383W        W70601  21.545  36.484   4.777
 2384W        W70602  36.855  40.798  10.678
 2385W        W70603  32.880   9.314  10.801
 2386W        W70604  36.611   5.459  12.116
 2387W        W70605  38.733  22.933   1.049
 2388W        W70606  43.011  18.640   2.302
 2389W        W70607  10.291  40.788  12.597
 2390W        W70608  39.875  13.860  14.889
 2391W        W70609  39.979  31.196   3.891
 2392W        W70610  22.615  36.340   1.775
 2393W        W70611  34.686   2.969  11.039
 2394W        W70612  41.220  28.211  13.750
 2395W        W70613  16.171  41.797   1.483
 2396W        W70614  17.752   0.057   0.402
 2397W        W70615  15.195  33.336   3.229
 2398W        W70616  12.068  17.845   2.373
 2399W        W70617  16.349  42.451   3.667
 2400W        W70618  23.400  29.009   3.060
 2401W        W70619  11.428  35.341   4.796
 2402W        W70620  21.766   4.120   0.510
 2403W        W70621  44.710  14.839   2.744
 2404W        W70622  28.220  27.003  14.224
 2405W        W70623  16.617   4.180  13.659
 2406W        W70624  19.969  43.520  14.715
 2407W        W70625  28.612  39.959   2.364
 2408W        W70626  11.210  37.902   0.948
 2409W        W70627  14.676  34.344   1.327
 2410W        W70628  31.622  19.594  14.013
 2411W        W70629  17.728  29.055  13.771
 2412W        W70630  43.846  17.123  13.353
 2413W        W70631  41.960  28.074   1.014
 2414W        W70632   7.391  43.061  11.113
 2415W        W70633  32.206  29.629   3.109
 2416W        W70634  35.606  41.715   4.915
 2417W        W70635  38.378   6.131   4.807
 2418W        W70636  24.363  14.472   4.174
 2419W        W70637   4.773   8.800  12.892
 2420W        W70638  40.220   6.150   4.311
 2421W        W70639  17.826  30.676   3.699
 2422W        W70640   9.659  18.769  13.847
 2423W        W70641   9.614  30.441   3.832
 2424W        W70642  23.816  23.593   0.754
 2425W        W70643  26.435   9.858  14.553
 2426W        W70644  12.823  26.877  12.977
 2427W        W70645  39.798  34.563  14.739
 2428W        W70646   1.456  19.699   3.437
 2429W        W70647  40.944   4.940  11.446
 2430W        W70648  16.834  38.864   0.346
 2431W        W70649  22.974   3.773  14.481
 2432W        W70650  22.401  10.266   2.439
 2433W        W70651   9.306  19.927   5.485
 2434W        W70652  18.358   9.451   1.926
 2435W        W70653  27.131   3.918   4.629
 2436W        W70654  40.561  16.802  11.602
 2437W        W70655  22.149  42.751   0.004
 2438W        W70656  29.439  30.017  12.379
 2439W        W70657  43.592  24.098   2.356
 2440W        W70658   5.595  12.227   2.699
 2441W        W70659  37.418  29.105  12.999
 2442W        W70660  44.903   4.303  13.377
 2443W        W70661  11.658  44.834   4.910
 2444W        W70662   4.825  19.510   2.578
 2445W        W70663   9.213  17.083   0.836
 2446W        W70664  15.068   7.812  12.374
 2447W        W70665  35.488  33.192  11.550
 2448W        W70666  20.055   3.645   4.778
 2449W        W70667  42.296  40.725   0.787
 2450W        W70668  37.070  29.144   1.270
 2451W        W70669  42.662   3.355  11.255
 2452W        W70670  42.697  32.925  11.127
 2453W        W70671  16.842  35.639  10.724
 2454W        W70672  31.874   7.287  12.251
 2455W        W70673  40.540  27.053  14.500
 2456W        W70674  39.714  36.652  13.541
 2457W        W70675  43.283  16.112   3.714
 2458W        W70676  23.108  29.827  10.732
 2459W        W70677  30.364  26.586  13.385
 2460W        W70678  33.046  14.729   0.722
 2461W        W70679  34.118  43.419  13.113
 2462W        W70680  38.581   5.047   2.283
 2463W        W70681  27.519  44.730   0.177
 2464W        W70682  27.550  25.182   2.351
 2465W        W70683   5.719   5.278  12.019
 2466W        W70684  40.467  42.737   2.214
 2467W        W70685  37.550   0.793   1.678
 2468W        W70686   5.754  21.176   4.160
 2469W        W70687  11.962   8.770   4.665
 2470W        W70688  30.665  11.337   0.980
 2471W        W70689  37.338  16.075  10.769
 2472W        W70690   6.342  22.215  12.343
 2473W        W70691   5.317  15.496  11.047
 2474W        W70692  39.468  37.552  13.633
 2475W        W70693  34.983   3.335   4.160
 2476W        W70694  17.463   6.081   4.062
 2477W        W70695  41.233  43.448   3.253
 2478W        W70696  26.287   7.026   0.235
 2479W        W70697   6.930   5.884   1.597
 2480W        W70698  31.507  35.705   1.819
 2481W        W70699  23.269   8.642  12.189
 2482W        W70700  27.077  25.005  12.459
 2483W        W70701   5.489  10.749   1.839
 2484W        W70702  10.910  28.236   3.420
 2485W        W70703  33.874  33.601   2.320
 2486W        W70704  27.002   0.174  13.492
 2487W        W70705  12.184   9.599   4.779
 2488W        W70706  28.515  20.588  10.623
 2489W        W70707  38.968   9.157   4.500
 2490W        W70708   8.407  25.004   1.917
 2491W        W70709  18.979  17.878  12.494
 2492W        W70710   3.713  16.881   2.641
 2493W        W70711   9.669  13.339   4.695
 2494W        W70712  25.033  44.561  14.810
 2495W        W70713  43.280  11.393  14.927
 2496W        W70714  33.477  43.896  13.854
 2497W        W70715  10.237  22.721  12.325
 2498W        W70716  22.346  23.369   3.312
 2499W        W70717   7.939   5.726  10.835
 2500W        W70718   2.200   0.025   0.473
 2501W        W70719  41.939  23.873   2.697
 2502W        W70720  24.569  32.912   0.444
 2503W        W70721  31.137  20.117   2.958
 2504W        W70722  31.178  37.198  14.525
 2505W        W70723  12.346  17.354  11.991
 2506W        W70724   1.923   6.860  12.395
 2507W        W70725  31.084  12.604   2.685
 2508W        W70726   4.925  28.862   4.239
 2509W        W70727  30.601  14.421  10.650
 2510W        W70728   0.995  37.728   0.507
 2511W        W70729  25.088   0.950  13.848
 2512W        W70730  12.612   7.612  12.542
 2513W        W70731  32.743   5.785  13.513
 2514W        W70732  43.344  40.000   4.580
 2515W        W70733  42.957  23.472  11.071
 2516W        W70734  44.792  18.423  10.836
 2517W        W70735  22.195  18.337  14.454
 2518W        W70736  16.211  24.449   1.674
 2519W        W70737   8.028  34.481   2.614
 2520W        W70738  35.476  43.093   3.311
 2521W        W70739  24.233  35.710   4.595
 2522W        W70740  31.939  16.598  11.671
 2523W        W70741  14.186  18.247   4.686
 2524W        W70742  15.479  22.718  12.114
 2525W        W70743  10.293   9.748   4.877
 2526W        W70744   2.928  37.012  11.397
 2527W        W70745  32.114  29.138  12.870
 2528W        W70746  25.465  27.506  13.432
 2529W        W70747  40.346   5.889   1.671
 2530W        W70748   7.893  26.292  14.984
 2531W        W70749  44.312  20.475   4.565
 2532W        W70750  17.869   9.718   2.336
 2533W        W70751  37.149   5.500  10.613
 2534W        W70752  41.447  41.050  12.218
 2535W        W70753  16.492  19.230   2.360
 2536W        W70754   1.798  18.977  14.853
 2537W        W70755   0.662  37.866  10.500
 2538W        W70756   1.251   2.172  12.054
 2539W        W70757  26.999  41.068  14.284
 2540W        W70758  30.447  12.262  14.901
 2541W        W70759  42.008  35.516  14.521
 2542W        W70760   9.261  31.455  12.009
 2543W        W70761   5.165  30.971  12.990
 2544W        W70762  21.247  13.579  11.983
 2545W        W70763  19.628  43.696   0.414
 2546W        W70764  17.724  28.050  11.940
 2547W        W70765  32.115  44.461  13.222
 2548W        W70766   1.222   6.355  12.296
 2549W        W70767  25.426  11.057  13.431
 2550W        W70768  16.162  44.564   2.959
 2551W        W70769  19.594  23.512   3.871
 2552W        W70770  19.708   3.478  10.752
 2553W        W70771  20.063  21.490  11.633
 2554W        W70772  28.399  18.795  13.060
 2555W        W70773   5.991  34.405  14.996
 2556W        W70774  39.282   7.698  13.908
 2557W        W70775   9.498  27.669  12.075
 2558W        W70776  14.681  21.226   1.684
 2559W        W70777  12.112   4.000  10.774
 2560W        W70778   8.598  38.550   2.198
 2561W        W70779  31.192  20.157  10.750
 2562W        W70780   1.768   9.214   3.606
 2563W        W70781  44.402  12.752  11.138
 2564W        W70782  37.597  25.569   5.055
 2565W        W70783  39.019  36.423   1.191
 2566W        W70784   4.948  31.976   0.745
 2567W        W70785  37.983  43.228  13.530
 2568W        W70786  20.264  41.827   1.474
 2569W        W70787  32.619  10.768  14.745
 2570W        W70788  30.748   2.612  11.081
 2571W        W70789  19.786  29.001   0.728
 2572W        W70790  44.848  36.916  10.836
 2573W        W70791  12.774  17.041   3.691
 2574W        W70792  24.658  42.524   2.722
 2575W        W70793  14.166  37.874  12.976
 2576W        W70794  43.726  38.788  11.152
 2577W        W70795  23.773  13.605  14.497
 2578W        W70796   3.000   7.868  11.357
 2579W        W70797  22.574  31.433  14.025
 2580W        W70798  43.997  16.508  12.430
 2581W        W70799  43.095  36.075   3.314
 2582W        W70800  44.962  36.682  14.793
 2583W        W70801  42.698  41.535  10.239
 2584W        W70802  36.359  22.254  11.443
 2585W        W70803  12.546  18.573   2.204
 2586W        W70804  18.040  12.798   0.319
 2587W        W70805   6.651  16.044  13.400
 2588W        W70806  36.131  23.779  11.538
 2589W        W70807  17.074   2.970  13.455
 2590W        W70808   3.566  34.936  14.826
 2591W        W70809  38.764  35.441  13.501
 2592W        W70810  38.343  38.180  14.966
 2593W        W70811  38.599  22.222  12.923
 2594W        W70812  30.465   2.767   2.778
 2595W        W70813  19.604  27.012   4.328
 2596W        W70814   8.790   1.154  10.456
 2597W        W70815  41.039   8.513   3.142
 2598W        W70816  22.544  30.974   0.690
 2599W        W70817  12.761  37.344  12.914
 2600W        W70818  39.275  41.335  11.013
 2601W        W70819  36.293  29.175   1.692
 2602W        W70820  21.191  38.988  11.958
 2603W        W70821  43.278  29.476   2.595
 2604W        W70822   8.218  29.395   3.161
 2605W        W70823  32.027  35.103  14.976
 2606W        W70824  30.107  12.212  12.181
 2607W        W70825  30.410   0.400   1.336
 2608W        W70826  27.108  37.419   9.941
 2609W        W70827  14.462  15.917  10.564
 2610W        W70828   9.562  39.487  13.560
 2611W        W70829   3.191   1.464   1.333
 2612W        W70830  31.064  26.974  13.474
 2613W        W70831  31.241   1.014  13.030
 2614W        W70832  31.689  36.080  14.998
 2615W        W70833  23.129  25.993  12.491
 2616W        W70834  35.439  43.811  14.292
 2617W        W70835  33.525  27.508   4.424
 2618W        W70836  29.185  25.311  14.715
 2619W        W70837  38.167  18.659  10.163
 2620W        W70838  31.346  12.621  13.283
 2621W        W70839   4.887  38.075   1.868
 2622W        W70840  21.253  21.026   0.813
 2623W        W70841  44.006   8.185  11.488
 2624W        W70842  36.574  25.615   1.030
 2625W        W70843  43.037  28.106   1.908
 2626W        W70844  33.489  32.623   1.994
 2627W        W70845  16.351  38.429   1.702
 2628W        W70846   8.617  25.205  14.888
 2629W        W70847   3.680  27.303   4.355
 2630W        W70848  25.772  39.918  11.990
 2631W        W70849   9.357  36.925   1.178
 2632W        W70850   5.474  25.960  13.370
 2633W        W70851  39.833  27.434   3.066
 2634W        W70852  37.041  24.025  12.483
 2635W        W70853   4.387  10.855  12.670
 2636W        W70854  17.201   6.250   0.423
 2637W        W70855  39.525  36.049  14.594
 2638W        W70856   3.057  38.967  12.091
 2639W        W70857  42.955   0.751  13.571
 2640W        W70858   7.677  23.708  12.541
 2641W        W70859  13.181  38.958  10.621
 2642W        W70860  40.942  17.137  14.893
 2643W        W70861  34.173  32.651   2.769
 2644W        W70862   1.013  44.932  13.308
 2645W        W70863  41.041  20.492   3.686
 2646W        W70864  39.869  40.803  12.944
 2647W        W70865   0.328  27.238   2.545
 2648W        W70866  40.420  31.134   3.075
 2649W        W70867   4.616  29.170   0.440
 2650W        W70868  11.216   2.479  14.502
 2651W        W70869  19.129   2.739  12.411
 2652W        W70870  35.858  29.357  13.601
 2653W        W70871   0.453  18.558  14.542
 2654W        W70872  36.084  40.944   1.312
 2655W        W70873   2.951  18.311  13.302
 2656W        W70874   8.665  14.726   9.959
 2657W        W70875  25.513  16.232   3.658
 2658W        W70876  24.195  14.068   4.555
 2659W        W70877  34.759  23.080  11.492
 2660W        W70878  40.537   5.377  10.320
 2661W        W70879   0.492  17.689   3.161
 2662W        W70880   8.803  12.317  13.845
 2663W        W70881   0.842  14.900  11.874
 2664W        W70882  36.965  28.641  10.496
 2665W        W70883  34.451   0.478  14.883
 2666W        W70884  36.026  41.481   4.562
 2667W        W70885  28.697   3.518  12.006
 2668W        W70886  32.547  11.949  13.018
 2669W        W70887   1.312   2.555  12.875
 2670W        W70888  10.333  30.065   3.103
 2671W        W70889  32.986   7.107   1.847
 2672W        W70890  13.783  17.849   4.111
 2673W        W70891   3.681  23.447  11.799
 2674W        W70892  26.105  43.495  12.127
 2675W        W70893  44.286   1.217   2.778
 2676W        W70894  26.662   8.625   1.041
 2677W        W70895  16.810  18.103   0.437
 2678W        W70896  21.192   5.241   0.325
 2679W        W70897  35.822  20.533  13.482
 2680W        W70898  18.492  38.953   1.872
 2681W        W70899  16.905   8.011   1.824
 2682W        W70900  17.055   9.403   0.397
 2683W        W70901  35.392  34.608   3.465
 2684W        W70902  43.957  37.916  13.617
 2685W        W70903  44.893  35.421  13.237
 2686W        W70904  32.188  24.188   1.347
 2687W        W70905  12.551  14.300   0.528
 2688W        W70906  18.643   4.015  12.682
 2689W        W70907   1.829  33.594  12.741
 2690W        W70908  17.658  15.909  11.100
 2691W        W70909  42.232  36.111   4.957
 2692W        W70910   5.203  14.362   3.259
 2693W        W70911  22.480   2.881  14.211
 2694W        W70912  33.420  17.631  10.401
 2695W        W70913   2.341  42.367  14.115
 2696W        W70914  20.775   9.652   2.832
 2697W        W70915  37.322  12.137  11.169
 2698W        W70916  32.493  18.285   3.643
 2699W        W70917  43.443  37.460  10.995
 2700W        W70918  32.239   7.768  13.413
 2701W        W70919  14.682  16.693  11.323
 2702W        W70920  12.596  27.667   3.597
 2703W        W70921  14.239  42.076   5.025
 2704W        W70922  44.232   0.993  11.902
 2705W        W70923  14.045  34.131   0.316
 2706W        W70924  35.489   7.823   2.296
 2707W        W70925  33.488  28.607   5.336
 2708W        W70926  40.777  28.644  11.944
 2709W        W70927  43.860  14.507  11.183
 2710W        W70928  34.631  25.285   3.303
 2711W        W70929  27.946  19.269  12.870
 2712W        W70930  20.795  33.817   1.386
 2713W        W70931   1.932  42.502  13.836
 2714W        W70932   0.807  14.853   0.615
 2715W        W70933  20.603  29.606  13.292
 2716W        W70934  35.006   2.895   4.437
 2717W        W70935  32.425   6.651  12.442
 2718W        W70936  43.853  25.522  14.787
 2719W        W70937  18.995  29.736  11.136
 2720W        W70938  23.318  19.286  12.569
 2721W        W70939  36.044  39.225  11.024
 2722W        W70940  15.731  43.414   0.502
 2723W        W70941  44.047  30.896   3.260
 2724W        W70942  44.332  28.430   3.081
 2725W        W70943  11.687  38.783  14.352
 2726W        W70944   3.456  28.737   3.288
 2727W        W70945  27.719  11.805   3.392
 2728W        W70946  40.909  23.551   0.712
 2729W        W70947   8.705  28.942   3.617
 2730W        W70948  21.824  16.070  14.765
 2731W        W70949  43.667  34.603   2.840
 2732W        W70950  10.099  21.746   3.077
 2733W        W70951  27.559  38.508  13.904
 2734W        W70952  44.735  15.563  11.175
 2735W        W70953  25.060  25.942   4.051
 2736W        W70954  29.923  11.323  12.512
 2737W        W70955  17.744  39.714   4.761
 2738W        W70956  42.818  21.547   0.757
 2739W        W70957  41.052  11.158  13.541
 2740W        W70958  38.857  13.868  12.474
 2741W        W70959  32.003  19.771   1.323
 2742W        W70960  15.657  33.378   3.544
 2743W        W70961  22.635  16.684   1.557
 2744W        W70962   1.813  15.843  13.871
 2745W        W70963  33.770  27.551   2.732
 2746W        W70964   6.252  10.674   3.308
 2747W        W70965  17.078   0.422   4.607
 2748W        W70966   2.389  24.207   4.212
 2749W        W70967  36.919  40.061  10.451
 2750W        W70968  43.989  21.217   0.825
 2751W        W70969  10.109  31.550   3.201
 2752W        W70970  37.246  34.847   5.132
 2753W        W70971  38.465  32.758  13.640
 2754W        W70972  42.490  33.613   0.804
 2755W        W70973  39.008  33.616   3.115
 2756W        W70974  24.043  32.200  10.070
 2757W        W70975   9.693  44.247   1.683
 2758W        W70976  43.974  20.122   4.768
 2759W        W70977  23.253  23.469   3.318
 2760W        W70978  29.398  24.495  12.969
 2761W        W70979  39.572   4.398   0.029
 2762W        W70980   7.174  20.058   5.123
 2763W        W70981  15.076  15.770  14.411
 2764W        W70982   1.326  41.521  10.968
 2765W        W70983  14.026  25.405   1.389
 2766W        W70984  36.559  42.677  13.734
 2767W        W70985  20.819  34.845  13.115
 2768W        W70986  23.472  30.266  12.922
 2769W        W70987  16.192   3.459   3.628
 2770W        W70988   4.652  22.516   4.202
 2771W        W70989  36.660  19.079   2.468
 2772W        W70990  10.227   4.392  13.018
 2773W        W70991   5.235   2.164   3.237
 2774W        W70992  37.267  26.474   1.424
 2775W        W70993  11.167  40.369  12.418
 2776W        W70994  12.095   1.608   4.157
 2777W        W70995  31.457  14.017   3.140
 2778W        W70996  10.993  32.817   2.734
 2779W        W70997  39.302  29.923  12.639
 2780W        W70998  36.457  24.654   4.633
 2781W        W70999  12.570  27.474  13.428
 2782W        W71000  24.220  10.391  14.628
 2783W        W71001  24.699  22.984   0.809
 2784W        W71002  10.412  27.260  14.126
 2785W        W71003  38.096  43.013   3.381
 2786W        W71004  20.081  24.067   3.286
 2787W        W71005  11.167  43.268  12.885
 2788W        W71006   6.720  23.718   4.139
 2789W        W71007   8.607  30.831   0.714
 2790W        W71008  36.469  33.877   1.959
 2791W        W71009   9.340  34.953   0.246
 2792W        W71010  44.274  29.264   1.131
 2793W        W71011   1.116   2.073   1.024
 2794W        W71012   1.863  27.637   4.671
 2795W        W71013  19.731  21.702  13.018
 2796W        W71014  10.752  38.381  10.813
 2797W        W71015  39.034  28.552   3.337
 2798W        W71016  15.802  43.369   1.899
 2799W        W71017  10.696   1.792   3.538
 2800W        W71018  23.619  37.649  11.763
 2801W        W71019  13.704  25.740   1.166
 2802W        W71020  29.009  26.973   1.776
 2803W        W71021  44.374  27.972  12.913
 2804W        W71022  17.096  42.673   3.234
 2805W        W71023  42.154  14.069  13.501
 2806W        W71024  43.447  40.735   1.704
 2807W        W71025   6.679  44.090   2.890
 2808W        W71026  44.346  20.915  14.079
 2809W        W71027  41.674   6.223   4.073
 2810W        W71028  27.185  27.009   4.501
 2811W        W71029  29.090  42.969  14.766
 2812W        W71030  22.733  15.579   0.745
 2813W        W71031  12.850   6.917  11.739
 2814W        W71032   9.650  23.567   2.326
 2815W        W71033   6.517  41.559   0.191
 2816W        W71034   4.809  35.781   1.012
 2817W        W71035  25.700  18.606   2.326
 2818W        W71036  16.393  13.170  14.665
 2819W        W71037  19.314  37.015   0.915
 2820W        W71038   0.693   8.198  12.066
 2821W        W71039  24.200  44.923  12.063
 2822W        W71040  30.128  37.638  13.527
 2823W        W71041  17.587  15.284   2.442
 2824W        W71042  40.669  30.588   1.205
 2825W        W71043  14.301   0.239  14.424
 2826W        W71044  20.454  32.436  11.145
 2827W        W71045   5.874  19.492  14.618
 2828W        W71046  34.135  10.717  14.177
 2829W        W71047  26.060  19.236  14.321
 2830W        W71048   0.346  16.661   0.750
 2831W        W71049   6.939  34.543  14.401
 2832W        W71050  12.130  17.427  12.432
 2833W        W71051  26.688  30.045  12.098
 2834W        W71052  11.799  41.636   9.922
 2835W        W71053  32.885   4.358  12.062
 2836W        W71054   2.207  15.249   2.682
 2837W        W71055  38.576  37.410   4.128
 2838W        W71056  15.320   8.812   2.208
 2839W        W71057   7.043  13.780   3.669
 2840W        W71058  27.697  42.018   1.825
 2841W        W71059   1.537  27.063   4.055
 2842W        W71060  24.045  24.011   1.931
 2843W        W71061  27.710  18.194  13.981
 2844W        W71062  17.280  10.637   3.432
 2845W        W71063  19.273  40.259  12.770
 2846W        W71064  18.588   1.526  11.927
 2847W        W71065  41.260  13.346  11.819
 2848W        W71066  35.604  21.673   1.850
 2849W        W71067  10.688   7.803  14.375
 2850W        W71068  10.751   8.122   1.231
 2851W        W71069  19.000  23.178   3.279
 2852W        W71070   3.890   7.665  12.427
 2853W        W71071  39.003  27.474   2.238
 2854W        W71072  23.767  23.134   4.136
 2855W        W71073  15.617  27.464  14.933
 2856W        W71074  21.163  25.114   0.231
 2857W        W71075  32.376  18.357  13.100
 2858W        W71076  13.083  12.261   3.231
 2859W        W71077  27.158  22.723   1.870
 2860W        W71078  30.479  28.066   2.667
 2861W        W71079  21.030  23.933  11.980
 2862W        W71080  11.012  39.360  12.399
 2863W        W71081   0.189  28.621  11.554
 2864W        W71082  10.805  44.260  11.078
 2865W        W71083  15.574  35.271  13.300
 2866W        W71084  11.497  29.266  14.420
 2867W        W71085   8.705  38.845   3.990
 2868W        W71086  31.140  26.587   2.637
 2869W        W71087  43.286   1.205   2.868
 2870W        W71088  12.869  19.593   3.270
 2871W        W71089  38.083  23.764   3.287
 2872W        W71090   9.342  38.604  14.363
 2873W        W71091   4.968  11.189   3.245
 2874W        W71092   1.562   3.338   1.305
 2875W        W71093   7.054   6.533   1.359
 2876W        W71094  29.937  36.664  13.570
 2877W        W71095  36.081  25.661   3.310
 2878W        W71096  21.041  34.513  11.668
 2879W        W71097  30.839  24.084  11.519
 2880W        W71098   7.713  32.181  12.061
 2881W        W71099  42.975  18.108   3.197
 2882W        W71100   6.626   9.118  13.426
 2883W        W71101  26.402   8.913   4.719
 2884W        W71102  10.692  29.995   0.742
 2885W        W71103  12.269  24.718  13.397
 2886W        W71104   8.777  26.491  12.988
 2887W        W71105  44.260  40.515  12.975
 2888W        W71106  37.555  44.317  14.019
 2889W        W71107  41.379  26.313   2.762
 2890W        W71108   3.934  17.661  11.980
 2891W        W71109  14.590   3.924  11.933
 2892W        W71110  24.239  24.697   0.673
 2893W        W71111  16.359  36.278  11.613
 2894W        W71112  37.383  44.876  10.866
 2895W        W71113  10.646   7.700   4.816
 2896W        W71114   1.571   6.774   0.234
 2897W        W71115  21.559  35.143   4.073
 2898W        W71116  17.313  36.926   1.332
 2899W        W71117  39.324  16.731   4.541
 2900W        W71118  31.789   1.233   4.481
 2901W        W71119  15.992  35.423   3.396
 2902W        W71120   0.397  22.417   4.673
 2903W        W71121  20.966  32.885  10.216
 2904W        W71122  39.502  36.716   1.024
 2905W        W71123  36.504  36.285  10.459
 2906W        W71124  22.804  24.534   3.647
 2907W        W71125  27.232  44.373  14.318
 2908W        W71126  24.935  39.107   1.161
 2909W        W71127  36.056   6.829   2.240
 2910W        W71128   4.602  37.352   2.894
 2911W        W71129  15.597  35.685  12.493
 2912W        W71130  34.395   1.440   1.935
 2913W        W71131   7.490  41.095   2.891
 2914W        W71132  19.646  38.948  13.848
 2915W        W71133  21.997   9.939   4.108
 2916W        W71134   2.702  42.290  13.440
 2917W        W71135  42.837   8.045  14.974
 2918W        W71136  28.179  32.947   2.196
 2919W        W71137   0.187  12.431   0.373
 2920W        W71138   1.256   1.443   0.352
 2921W        W71139  30.467  21.612   3.350
 2922W        W71140  21.885  20.043  11.113
 2923W        W71141  44.390  23.940   9.851
 2924W        W71142  20.042  18.726   3.443
 2925W        W71143  14.892  21.940   3.416
 2926W        W71144  44.235  21.944  11.140
 2927W        W71145  26.010  38.320   4.637
 2928W        W71146  35.536   9.270  12.182
 2929W        W71147  26.950  31.410   2.478
 2930W        W71148  37.316  22.085  11.180
 2931W        W71149  19.276  19.769  11.893
 2932W        W71150  38.305  32.897  11.093
 2933W        W71151  35.247   9.058  10.236
 2934W        W71152  23.081  34.923  13.568
 2935W        W71153   8.973  13.669  13.524
 2936W        W71154  17.117  44.068   2.714
 2937W        W71155  23.643   2.482  14.474
 2938W        W71156  36.819  42.499   1.340
 2939W        W71157  40.780   2.986  11.708
 2940W        W71158   2.845  31.111  12.380
 2941W        W71159  25.459  14.983   4.560
 2942W        W71160  37.057   9.618   1.313
 2943W        W71161   8.026  30.865   0.208
 2944W        W71162  23.748  34.112   1.674
 2945W        W71163  25.980   4.438  12.557
 2946W        W71164  12.134  22.563  12.068
 2947W        W71165  34.562  24.449   2.929
 2948W        W71166   1.380  24.337   2.302
 2949W        W71167  17.970  20.294   0.467
 2950W        W71168  21.321  40.461  14.909
 2951W        W71169   6.821  10.397  11.190
 2952W        W71170  16.121  13.707  10.690
 2953W        W71171  27.736   9.629  11.112
 2954W        W71172  30.323  19.107   3.541
 2955W        W71173  13.388   0.924   4.020
 2956W        W71174  31.501  44.775   0.799
 2957W        W71175  18.591  10.880  14.327
 2958W        W71176  30.563  38.931  11.373
 2959W        W71177   3.986  41.944  12.931
 2960W        W71178   5.792  34.901  12.806
 2961W        W71179   2.541  38.877   1.317
 2962W        W71180  22.473  35.939  11.136
 2963W        W71181   6.304  29.862  11.885
 2964W        W71182  21.487   3.484  11.947
 2965W        W71183   7.869  11.134  11.577
 2966W        W71184  13.438  41.898  11.519
 2967W        W71185  40.873  18.127   4.355
 2968W        W71186   5.513  43.287   4.218
 2969W        W71187  44.966  18.352   5.236
 2970W        W71188  11.537   1.301  10.407
 2971W        W71189  44.779  36.604  11.234
 2972W        W71190  35.103  32.948   2.217
 2973W        W71191  17.301   2.471   3.652
 2974W        W71192  21.443  20.597  12.917
 2975W        W71193  31.565  23.924  14.030
 2976W        W71194   9.425  23.662  13.408
 2977W        W71195   2.248  28.703   0.886
 2978W        W71196   6.235  37.842   0.862
 2979W        W71197  32.160  33.141   9.723
 2980W        W71198  34.304  24.686   1.505
 2981W        W71199  29.570  33.676   4.186
 2982W        W71200  17.202   3.724   0.194
 2983W        W71201  24.500  17.787  10.751
 2984W        W71202  21.489   2.490  14.754
 2985W        W71203  31.621  26.589  14.014
 2986W        W71204  26.587  44.071  13.043
 2987W        W71205   1.707  21.805  12.439
 2988W        W71206  28.591  29.497  11.167
 2989W        W71207  37.857  25.772   0.963
 2990W        W71208  30.025   8.217   3.257
 2991W        W71209  29.005  31.968  14.363
 2992W        W71210  22.734   8.684   4.563
 2993W        W71211  34.415   3.351   2.809
 2994W        W71212  42.358  42.221   2.736
 2995W        W71213  25.759   3.378   3.368
 2996W        W71214  11.967  28.113   3.363
 2997W        W71215  27.966  28.388  14.054
 2998W        W71216   3.839  26.058  11.633
 2999W        W71217   8.423  41.040   0.957
 3000W        W71218   1.185   9.876  13.967
 3001W        W71219  25.933   4.622  13.886
 3002W        W71220   2.466   3.703   3.320
 3003W        W71221   5.742  20.736  12.615
 3004W        W71222   9.923  12.989   1.259
 3005W        W71223   1.212  21.739  12.625
 3006W        W71224  14.627   5.438  13.419
 3007W        W71225  31.188  31.410   3.418
 3008W        W71226  31.213  27.942  11.549
 3009W        W71227  14.201   0.864  11.232
 3010W        W71228  27.077  22.670   4.154
 3011W        W71229  18.118   0.270   4.694
 3012W        W71230  20.139  18.776   2.317
 3013W        W71231  40.528  40.720  10.690
 3014W        W71232   9.349  24.361  13.033
 3015W        W71233   6.211  27.897  14.377
 3016W        W71234  40.689  10.215   2.326
 3017W        W71235  36.393  18.742   2.780
 3018W        W71236   0.733  37.069   3.068
 3019W        W71237  26.618  14.441  13.423
 3020W        W71238  11.753  42.957   2.811
 3021W        W71239  20.250   6.892  14.745
 3022W        W71240  24.296  21.069  12.602
 3023W        W71241   9.169  30.608   3.611
 3024W        W71242   5.263   0.816   4.351
 3025W        W71243  35.978  14.046   4.854
 3026W        W71244   8.895  42.833  14.015
 3027W        W71245  19.187  33.532  14.911
 3028W        W71246  42.716   9.305   2.360
 3029W        W71247  21.741   9.322  12.540
 3030W        W71248  28.870  23.749  13.057
 3031W        W71249  17.196  36.018  14.811
 3032W        W71250  11.444  11.084  12.355
 3033W        W71251  27.373  39.555  10.787
 3034W        W71252  30.712  22.644  13.892
 3035W        W71253  37.119  36.394   1.739
 3036W        W71254  20.261  30.435   2.320
 3037W        W71255   9.814   5.961  14.382
 3038W        W71256  18.320  32.598   0.397
 3039W        W71257   8.303  35.024  13.476
 3040W        W71258   5.220   6.204  12.540
 3041W        W71259  31.352  33.463  12.350
 3042W        W71260  34.743  44.016  12.477
 3043W        W71261  34.550   3.768  10.718
 3044W        W71262  34.715   2.378  14.096
 3045W        W71263  28.095  35.387  10.619
 3046W        W71264  34.833   9.771  14.334
 3047W        W71265  38.991  40.955   0.523
 3048W        W71266  15.341  38.380  13.361
 3049W        W71267  36.379  39.502  14.702
 3050W        W71268  23.021  20.384  14.475
 3051W        W71269  35.017  39.407   1.364
 3052W        W71270   8.514  33.124  14.442
 3053W        W71271  32.371  33.419   3.560
 3054W        W71272  22.988  13.818   4.565
 3055W        W71273  31.813   5.707  12.107
 3056W        W71274   7.571  32.171  14.300
 3057W        W71275   5.271  19.243  13.005
 3058W        W71276  11.149   0.353  12.606
 3059W        W71277  13.804  35.498  13.824
 3060W        W71278  15.687  30.609   0.477
 3061W        W71279  39.932  37.850   2.404
 3062W        W71280  37.116  23.543  10.665
 3063W        W71281  39.502  17.781   0.949
 3064W        W71282  43.748  22.676   3.654
 3065W        W71283  33.104  20.944   2.112
 3066W        W71284  13.557  22.110   3.735
 3067W        W71285   5.718  17.011   2.771
 3068W        W71286  36.946  32.407   4.063
 3069W        W71287  23.180  25.164  13.560
 3070W        W71288  15.930  26.575   2.138
 3071W        W71289  34.660   3.153   0.312
 3072W        W71290  20.308   0.315   2.941
 3073W        W71291  36.207  19.698  14.312
 3074W        W71292   3.355  18.024  13.468
 3075W        W71293  22.415  36.661   3.290
 3076W        W71294  12.685   4.337  13.043
 3077W        W71295  12.162  15.037  13.099
 3078W        W71296  20.795  38.560  13.447
 3079W        W71297  23.677  29.024   2.088
 3080W        W71298  13.739   1.487  11.639
 3081W        W71299  31.560   2.666   2.599
 3082W        W71300  10.848  37.389  10.370
 3083W        W71301  42.872  42.338  13.958
 3084W        W71302   2.092  16.956   0.216
 3085W        W71303  42.769  38.019   3.292
 3086W        W71304  36.988  43.512   4.886
 3087W        W71305  19.132  19.045   4.292
 3088W        W71306  12.253  23.940  13.896
 3089W        W71307  36.381  20.598   2.883
 3090W        W71308   6.493   0.531   0.527
 3091W        W71309  33.524  27.454   3.649
 3092W        W71310  22.765  21.205  12.468
 3093W        W71311  28.672  29.442   3.997
 3094W        W71312   9.404  24.910  11.647
 3095W        W71313  20.364  14.216   0.720
 3096W        W71314  42.814  17.032  14.489
 3097W        W71315   5.811   1.707  13.820
 3098W        W71316  40.405  29.715   4.943
 3099W        W71317  39.390  24.438  11.958
 3100W        W71318  10.716  24.017  13.822
 3101W        W71319  21.015  24.151   1.905
 3102W        W71320   8.688  30.650   4.576
 3103W        W71321  24.825  44.424   3.240
 3104W        W71322   0.374  23.132  13.536
 3105W        W71323  34.368  27.900  12.039
 3106W        W71324  23.711  26.089  10.979
 3107W        W71325  17.106  25.224   3.265
 3108W        W71326  44.075  21.094  13.250
 3109W        W71327  17.276   7.200  13.306
 3110W        W71328   0.350  25.990   0.282
 3111W        W71329  23.802   9.519  14.246
 3112W        W71330   8.994  11.563   4.490
 3113W        W71331   3.822   9.167  11.893
 3114W        W71332  44.776  28.609   0.439
 3115W        W71333  11.671  41.594   3.573
 3116W        W71334   4.269  38.625   1.015
 3117W        W71335  44.253   6.449   0.813
 3118W        W71336   9.396  19.584   4.120
 3119W        W71337  26.124  12.160  10.831
 3120W        W71338  27.688  33.083   2.303
 3121W        W71339  10.755  21.702  11.173
 3122W        W71340   2.870  34.538  10.730
 3123W        W71341  33.170  41.070  11.790
 3124W        W71342   1.169  36.664   3.783
 3125W        W71343  36.179  28.937  12.454
 3126W        W71344   4.905  19.500   4.999
 3127W        W71345  42.788  29.763   0.942
 3128W        W71346  22.194  18.269   3.169
 3129W        W71347  22.861  17.110   1.791
 3130W        W71348  43.714  41.041   0.939
 3131W        W71349  14.097  32.069  10.665
 3132W        W71350   1.983  17.124   5.048
 3133W        W71351  25.698   8.426  13.286
 3134W        W71352   7.930  23.921   3.859
 3135W        W71353  19.809  16.875  11.845
 3136W        W71354  44.331   3.232  11.176
 3137W        W71355  31.416   8.355  13.442
 3138W        W71356  14.822  10.813  13.028
 3139W        W71357  40.000  19.816  13.953
 3140W        W71358  29.565  20.582   4.206
 3141W        W71359  22.185  23.743   4.425
 3142W        W71360  34.440   0.998  11.164
 3143W        W71361  16.499  13.636   1.837
 3144W        W71362   5.998  42.681  11.865
 3145W        W71363  12.096   3.772   1.343
 3146W        W71364  40.921   1.990  11.241
 3147W        W71365  10.583  37.982  11.093
 3148W        W71366  21.056   6.732   2.385
 3149W        W71367  12.867  23.762   3.760
 3150W        W71368  39.258  40.379  14.870
 3151W        W71369  40.957  27.605   1.875
 3152W        W71370   3.754  43.340   0.193
 3153W        W71371   7.170  11.616  13.238
 3154W        W71372  21.254  20.794   2.701
 3155W        W71373  35.933  44.416  11.706
 3156W        W71374   2.417  32.143  11.106
 3157W        W71375  31.581   3.720   2.220
 3158W        W71376  23.621  31.141   3.374
 3159W        W71377   5.479  13.111   1.762
 3160W        W71378   3.129  17.103   3.779
 3161W        W71379  25.768  16.978   0.427
 3162W        W71380  10.399  33.454   3.832
 3163W        W71381  21.631  15.249   3.602
 3164W        W71382  33.502  27.764   4.886
 3165W        W71383  29.559  30.494  12.534
 3166W        W71384   1.079  38.911   3.235
 3167W        W71385  22.633  30.428  12.500
 3168W        W71386  22.546  13.561  11.568
 3169W        W71387   6.928  42.419   2.271
 3170W        W71388  15.731  29.074   0.494
 3171W        W71389  26.071   1.782   1.971
 3172W        W71390   3.241  40.778  11.570
 3173W        W71391   3.518   6.400  11.722
 3174W        W71392  14.143  26.575  12.593
 3175W        W71393  27.494   5.068  14.507
 3176W        W71394  27.115  32.451   1.011
 3177W        W71395  22.523  21.261  13.854
 3178W        W71396  40.483  41.856  10.490
 3179W        W71397   9.739  22.717   2.901
 3180W        W71398  32.871  30.708  10.985
 3181W        W71399  22.857  12.090  14.485
 3182W        W71400  42.432  20.571   2.160
 3183W        W71401  38.809  11.435  12.532
 3184W        W71402  31.720  44.434   2.646
 3185W        W71403   6.119  36.140  11.601
 3186W        W71404   9.176  41.818  13.251
 3187W        W71405  21.195   2.385   1.227
 3188W        W71406  27.573  11.098   4.743
 3189W        W71407  36.562  35.772  10.353
 3190W        W71408  27.671   5.218   2.289
 3191W        W71409  38.473  29.134  11.275
 3192W        W71410  32.393  33.505   4.540
 3193W        W71411  19.519  12.412  14.314
 3194W        W71412  35.160  18.930   2.466
 3195W        W71413   5.574  15.689  14.859
 3196W        W71414  15.909  16.376  14.894
 3197W        W71415  16.831  36.092  11.625
 3198W        W71416  22.628  38.599  13.054
 3199W        W71417   8.743  10.258   4.664
 3200W        W71418  27.028  25.427  12.121
 3201W        W71419  19.267  23.695   4.222
 3202W        W71420  28.976  20.280   2.309
 3203W        W71421  41.844  39.044  13.545
 3204W        W71422  29.057  23.071   9.775
 3205W        W71423  18.223  20.756   3.612
 3206W        W71424  17.283  23.240  11.098
 3207W        W71425  38.595   1.193   0.958
 3208W        W71426  31.898  39.882  14.253
 3209W        W71427   5.278  37.860  13.667
 3210W        W71428  43.954  17.543  12.360
 3211W        W71429   9.557   7.088   1.655
 3212W        W71430  42.850  44.169  11.632
 3213W        W71431  37.848  16.811  14.882
 3214W        W71432  11.924  17.679  12.007
 3215W        W71433  20.067  35.492   1.856
 3216W        W71434  21.141  36.999  10.816
 3217W        W71435   0.010   2.999  13.748
 3218W        W71436  22.663   7.260  10.760
 3219W        W71437  23.382  44.166   4.720
 3220W        W71438  21.734  25.339  10.689
 3221W        W71439  32.012   2.567  12.383
 3222W        W71440  15.796  22.996   2.339
 3223W        W71441  37.047  40.093   3.067
 3224W        W71442   1.484   4.465  12.840
 3225W        W71443  41.337  44.746  14.040
 3226W        W71444   4.032   2.870   1.873
 3227W        W71445  25.103  43.902  11.450
 3228W        W71446  29.151   7.770  13.024
 3229W        W71447  10.659  36.372   3.251
 3230W        W71448  23.623  12.741   4.411
 3231W        W71449  27.559  39.818   0.067
 3232W        W71450  31.331  16.294  14.790
 3233W        W71451   5.800  32.732   1.663
 3234W        W71452  32.961  27.555  12.389
 3235W        W71453  37.502  40.462   4.570
 3236W        W71454  11.211  31.937  12.007
 3237W        W71455   1.889  14.740   1.834
 3238W        W71456  29.590  29.372   3.623
 3239W        W71457   2.215  32.291   3.694
 3240W        W71458  26.701   3.705   0.363
 3241W        W71459  21.652  21.736   0.971
 3242W        W71460  23.556  20.596  10.672
 3243W        W71461   1.374  37.735   1.152
 3244W        W71462  42.754  39.349   4.082
 3245W        W71463  40.528  28.071  14.763
 3246W        W71464  22.811  18.634  13.400
 3247W        W71465   8.883  29.401   3.762
 3248W        W71466  23.268  41.400  14.252
 3249W        W71467  21.290  42.516   0.413
 3250W        W71468  36.536   8.533   4.521
 3251W        W71469  23.694  22.488  14.596
 3252W        W71470  16.679  15.531  12.524
 3253W        W71471  26.559  30.024   4.928
 3254W        W71472  39.930  31.124  13.983
 3255W        W71473   3.218  33.870  12.222
 3256W        W71474  23.486  10.367   2.429
 3257W        W71475  20.287  40.493  14.588
 3258W        W71476   6.869  36.550   3.678
 3259W        W71477   5.346  35.425   3.273
 3260W        W71478   2.010  39.352   2.354
 3261W        W71479  41.206   1.006  14.354
 3262W        W71480  37.428  28.100   1.295
 3263W        W71481  13.485  21.528   1.818
 3264W        W71482  30.069  32.396  11.379
 3265W        W71483  28.182  12.930   1.405
 3266W        W71484  32.022  42.341   4.890
 3267W        W71485  26.682   4.963  11.358
 3268W        W71486  29.476  23.891   1.181
 3269W        W71487  39.013  38.455   0.851
 3270W        W71488   4.336  13.956  12.910
 3271W        W71489  13.623  16.710  11.403
 3272W        W71490  26.369  42.248   0.311
 3273W        W71491  24.180   6.390   3.742
 3274W        W71492  39.498  40.051   1.500
 3275W        W71493   0.492   5.255  14.899
 3276W        W71494  30.065  21.803   0.831
 3277W        W71495  23.007  39.767  13.036
 3278W        W71496   5.719   5.300  13.912
 3279W        W71497   8.433  37.343   1.716
 3280W        W71498   3.363  12.343  13.597
 3281W        W71499  38.803  10.403   4.072
 3282W        W71500   0.534  25.970  11.558
 3283W        W71501  26.973  19.151  13.170
 3284W        W71502  34.399  19.775   3.276
 3285W        W71503  18.312   0.386   1.835
 3286W        W71504  11.673  35.712   3.603
 3287W        W71505  22.284  21.398  10.972
 3288W        W71506  41.895   2.956  11.436
 3289W        W71507  31.102   1.820  11.472
 3290W        W71508  40.047  39.288   4.853
 3291W        W71509   6.728   6.098   4.686
 3292W        W71510  24.528  17.685   4.101
 3293W        W71511   8.293  10.155  14.734
 3294W        W71512  28.491   5.674  12.512
 3295W        W71513  41.025  40.627  10.637
 3296W        W71514  40.110   8.396  12.002
 3297W        W71515  29.658   9.940   1.447
 3298W        W71516  28.200  14.436  11.127
 3299W        W71517  29.184  25.727  12.559
 3300W        W71518  15.341   5.141  11.298
 3301W        W71519  26.679  28.514  11.125
 3302W        W71520  17.286  29.589   3.616
 3303W        W71521  26.970   8.960   1.317
 3304W        W71522  38.973   5.490   0.843
 3305W        W71523  18.189  18.774  11.924
 3306W        W71524  17.032  12.180  13.876
 3307W        W71525  25.555  27.370   0.202
 3308W        W71526  30.105  39.833   0.031
 3309W        W71527  19.114  39.806  12.992
 3310W        W71528  44.287   6.510  13.620
 3311W        W71529  26.848  41.116  11.666
 3312W        W71530  34.452  31.986   4.514
 3313W        W71531  21.452   7.382   4.476
 3314W        W71532  39.112  35.841   1.908
 3315W        W71533  30.809  16.338  13.908
 3316W        W71534  24.483  39.437  12.108
 3317W        W71535  32.550  10.779   0.760
 3318W        W71536   0.416   5.502   2.654
 3319W        W71537  16.396   5.325   0.350
 3320W        W71538  41.686  36.832  12.470
 3321W        W71539  12.666  19.765  12.461
 3322W        W71540  20.067  37.985   4.403
 3323W        W71541  11.356  29.600  10.798
 3324W        W71542  32.630   2.220  13.445
 3325W        W71543  40.856  44.918  14.043
 3326W        W71544  33.347  12.167  13.432
 3327W        W71545   0.160  15.289   3.351
 3328W        W71546   1.381  17.977   1.463
 3329W        W71547  12.168  31.883   4.371
 3330W        W71548  36.981  44.962   2.818
 3331W        W71549   2.717  38.544   2.307
 3332W        W71550   0.269  11.155   4.067
 3333W        W71551  11.293  27.942   2.682
 3334W        W71552  10.776  18.891  12.739
 3335W        W71553  43.517   3.728   1.746
 3336W        W71554  40.981  30.536   4.630
 3337W        W71555   1.559  41.946  11.117
 3338W        W71556  30.419  32.978   0.762
 3339W        W71557   7.575   2.904   2.833
 3340W        W71558  24.837  15.642   4.565
 3341W        W71559  27.474   1.871  10.748
 3342W        W71560  39.824  38.590   4.460
 3343W        W71561  25.115  11.129   3.708
 3344W        W71562  15.849  34.080   3.608
 3345W        W71563  16.864  41.409   1.760
 3346W        W71564   4.450  16.468   1.766
 3347W        W71565  13.381  12.269   3.636
 3348W        W71566  33.142   1.817  11.061
 3349W        W71567  26.570  44.913  13.333
 3350W        W71568  17.559  14.938  14.360
 3351W        W71569  36.867  14.340   0.803
 3352W        W71570  20.445  19.283  11.682
 3353W        W71571   1.783  32.585   3.841
 3354W        W71572  16.735  27.499   1.766
 3355W        W71573   7.770  22.038  10.621
 3356W        W71574  26.981  33.814   0.418
 3357W        W71575  16.575  13.105  12.553
 3358W        W71576  39.819  33.033   4.528
 3359W        W71577  29.481  34.123   0.727
 3360W        W71578  29.387  27.912   4.315
 3361W        W71579  29.422  26.814   4.208
 3362W        W71580   6.075  12.544  11.208
 3363W        W71581   3.722   6.170  13.362
 3364W        W71582  17.341   2.420   0.275
 3365W        W71583  31.628  28.556  11.721
 3366W        W71584  30.865  14.679   5.521
 3367W        W71585  18.158  11.530   0.816
 3368W        W71586  44.439  10.230   3.641
 3369W        W71587   0.507   5.923  14.303
 3370W        W71588  18.168  14.559  12.838
 3371W        W71589  44.310  39.380  13.817
 3372W        W71590  34.529  17.773  13.644
 3373W        W71591  27.203  29.189   1.365
 3374W        W71592   1.748   3.834   4.055
 3375W        W71593  16.322  10.403  12.127
 3376W        W71594  42.323  27.694   0.927
 3377W        W71595  37.520  26.676   1.037
 3378W        W71596  42.345  23.641  12.890
 3379W        W71597   5.982  16.410  11.506
 3380W        W71598  13.517  28.654  11.038
 3381W        W71599  15.958  33.527  10.179
 3382W        W71600  17.322  41.527   0.661
 3383W        W71601  34.873  17.692   3.779
 3384W        W71602  33.899  32.116  14.789
 3385W        W71603  17.722  22.027   3.714
 3386W        W71604   2.242  28.536  10.718
 3387W        W71605  41.051  28.971   2.588
 3388W        W71606   6.086   0.009   1.299
 3389W        W71607  26.636  22.127  10.775
 3390W        W71608  30.388  19.628  10.837
 3391W        W71609  14.203  24.456   2.334
 3392W        W71610   2.680  25.099  14.387
 3393W        W71611  38.606  30.625  14.351
 3394W        W71612  24.693  44.329   4.551
 3395W        W71613  19.548  11.952   1.817
 3396W        W71614   4.979  23.870  11.204
 3397W        W71615   7.894  17.232   4.102
 3398W        W71616  23.773  23.078  14.300
 3399W        W71617  42.482  23.142   2.822
 3400W        W71618  44.864   4.194   2.213
 3401W        W71619  25.478  18.129  14.422
 3402W        W71620  35.547  17.009   1.277
 3403W        W71621   1.629  44.289   0.490
 3404W        W71622  28.079   2.323   4.587
 3405W        W71623  10.833  16.778  14.082
 3406W        W71624  12.259  28.482  13.884
 3407W        W71625   8.751  19.336  10.714
 3408W        W71626  17.322  26.632  13.976
 3409W        W71627  13.679   9.762  13.835
 3410W        W71628  27.182   6.833  12.929
 3411W        W71629  10.235  12.262  12.098
 3412W        W71630  27.933  41.552  12.507
 3413W        W71631  21.571  34.579   4.034
 3414W        W71632   9.859  26.682   4.231
 3415W        W71633   5.362  34.599   3.840
 3416W        W71634  37.611  29.061  13.518
 3417W        W71635  25.345  34.400  11.145
 3418W        W71636  15.342  11.531  12.966
 3419W        W71637  25.074  29.430   3.678
 3420W        W71638   1.017  26.953   1.607
 3421W        W71639  43.812  12.764  14.307
 3422W        W71640  32.673  26.093   0.587
 3423W        W71641  27.671  19.833   4.562
 3424W        W71642  29.569   1.294  14.460
 3425W        W71643   0.533  22.303   2.236
 3426W        W71644  34.674  13.588   2.455
 3427W        W71645  34.908   7.619  11.459
 3428W        W71646  43.155  11.542   4.224
 3429W        W71647  37.857  36.102   1.221
 3430W        W71648  40.023  30.655   3.744
 3431W        W71649   2.985  10.331   3.256
 3432W        W71650  15.701  21.670  12.998
 3433W        W71651  37.296  27.097  14.354
 3434W        W71652  38.209  34.578  14.404
 3435W        W71653  32.807  14.957   0.318
 3436W        W71654   7.915   6.288  12.409
 3437W        W71655  36.857   8.682   1.402
 3438W        W71656  16.720   6.203   4.498
 3439W        W71657  42.089  34.532  13.490
 3440W        W71658  24.548  39.341   3.880
 3441W        W71659  13.839  36.799  14.838
 3442W        W71660  31.062  12.369  11.217
 3443W        W71661  13.369  36.027   3.219
 3444W        W71662  27.439   9.762   1.523
 3445W        W71663  30.472  30.451  10.931
 3446W        W71664  30.190  13.710   1.683
 3447W        W71665   1.226  15.536   1.783
 3448W        W71666   4.837  44.880  13.306
 3449W        W71667  10.654   9.179   4.191
 3450W        W71668  30.098  14.766   3.047
 3451W        W71669  14.202  17.238   1.309
 3452W        W71670  30.195  44.711   3.817
 3453W        W71671   9.830  43.920   0.199
 3454W        W71672  13.872  37.310  14.807
 3455W        W71673   0.011  36.433  11.650
 3456W        W71674  42.448  20.313  11.613
 3457W        W71675  39.816   9.198   4.583
 3458W        W71676  24.193  43.335  11.832
 3459W        W71677  43.717  17.662   2.662
 3460W        W71678  12.632  14.866  13.801
 3461W        W71679  25.994  35.120   1.688
 3462W        W71680  26.509  33.224  11.847
 3463W        W71681  34.910  34.675  11.152
 3464W        W71682  21.776  17.049  13.461
 3465W        W71683  15.180  13.083  11.948
 3466W        W71684  33.073  18.629  11.286
 3467W        W71685  17.572  37.130  11.618
 3468W        W71686  28.699  40.068  12.058
 3469W        W71687   6.844   0.447   3.174
 3470W        W71688  35.375  15.830   3.583
 3471W        W71689  20.607  44.022   0.707
 3472W        W71690  10.580  12.620  13.843
 3473W        W71691  28.678  30.875  14.467
 3474W        W71692   6.620   6.767  13.342
 3475W        W71693  24.999  17.087  14.579
 3476W        W71694  40.963  24.704  13.155
 3477W        W71695  35.033   9.646   2.648
 3478W        W71696  37.270  23.561  12.561
 3479W        W71697  22.054  15.289   4.031
 3480W        W71698  31.394  23.005  10.564
 3481W        W71699  39.406  29.432  11.996
 3482W        W71700   2.216   5.492  12.410
 3483W        W71701  23.439  10.029   3.846
 3484W        W71702  44.345  35.014  11.063
 3485W        W71703  44.955  32.063  13.340
 3486W        W71704  36.336  30.069  14.004
 3487W        W71705  32.182  14.742  14.416
 3488W        W71706  12.661  41.362  14.920
 3489W        W71707  11.435  24.562  13.940
 3490W        W71708  29.619  25.219   3.570
 3491W        W71709  26.724  42.491  13.911
 3492W        W71710  41.070  22.520  10.775
 3493W        W71711   1.944   1.480  13.507
 3494W        W71712  19.299  10.313  13.524
 3495W        W71713  29.110  10.184  14.798
 3496W        W71714  36.491   7.245   3.228
 3497W        W71715   4.976  18.695   2.238
 3498W        W71716  10.951  36.542   4.679
 3499W        W71717   1.513  16.297  12.871
 3500W        W71718  11.446   3.299  11.698
 3501W        W71719  18.609  13.731  11.988
 3502W        W71720  30.098   4.501   0.777
 3503W        W71721  15.595  32.376  11.899
 3504W        W71722  36.648  26.117  11.088
 3505W        W71723  17.278   0.335   4.128
 3506W        W71724   7.798  11.152   1.325
 3507W        W71725  29.148  26.378  13.174
 3508W        W71726  25.713  41.333   2.969
 3509W        W71727  34.341   6.895   0.922
 3510W        W71728  23.612  33.851   1.250
 3511W        W71729  19.761  34.892  14.750
 3512W        W71730  35.491  12.964   2.149
 3513W        W71731  21.441   3.884  12.657
 3514W        W71732  14.753  43.824  12.333
 3515W        W71733  26.746   8.224  13.996
 3516W        W71734  11.802   4.831  10.829
 3517W        W71735  10.082   7.465  14.330
 3518W        W71736  31.522  41.008   4.393
 3519W        W71737  28.810  24.651   2.142
 3520W        W71738  37.948   7.173  13.884
 3521W        W71739  14.760  18.220   1.384
 3522W        W71740  14.406  33.434   2.435
 3523W        W71741  21.922  42.782   1.877
 3524W        W71742  27.395  36.820   2.570
 3525W        W71743  19.292  10.456  11.473
 3526W        W71744  36.926  22.696   3.543
 3527W        W71745   9.820  16.207   5.135
 3528W        W71746  40.748  38.517  14.726
 3529W        W71747  34.390   5.918  14.374
 3530W        W71748   1.798  35.866   1.853
 3531W        W71749  30.500  36.557   2.348
 3532W        W71750  44.010  16.131   0.348
 3533W        W71751  40.465   4.708   3.343
 3534W        W71752  11.091  41.442  11.968
 3535W        W71753  41.893  35.027  12.364
 3536W        W71754   8.246  28.890   2.639
 3537W        W71755  38.966  34.099  12.078
 3538W        W71756  18.003  44.498  14.100
 3539W        W71757   5.929  18.554   0.252
 3540W        W71758  21.480  25.132  10.256
 3541W        W71759  32.672  25.887   4.981
 3542W        W71760  37.439  11.141   3.220
 3543W        W71761  23.192  21.604   2.248
 3544W        W71762  17.702  15.086  13.043
 3545W        W71763   3.811  21.832  13.808
 3546W        W71764  36.952   4.152  12.117
 3547W        W71765  41.034  22.019   3.774
 3548W        W71766  13.521  44.884  14.059
 3549W        W71767  38.495  24.315   2.166
 3550W        W71768  43.316  32.956   1.843
 3551W        W71769  20.746   3.517   4.220
 3552W        W71770  13.246  26.086   2.370
 3553W        W71771  23.750  42.223   3.204
 3554W        W71772  21.017  39.926  13.798
 3555W        W71773   6.425  15.730  14.276
 3556W        W71774  10.553  10.799  10.912
 3557W        W71775  39.786  27.278   4.104
 3558W        W71776   0.503  29.487   0.042
 3559W        W71777   6.317  33.919  13.582
 3560W        W71778  38.670   8.628  12.464
 3561W        W71779  30.645   5.911   2.639
 3562W        W71780   0.969  10.279   0.066
 3563W        W71781   7.235  24.051   3.256
 3564W        W71782   7.655  20.080  11.942
 3565W        W71783  35.105  35.025  10.843
 3566W        W71784  12.644  15.337  12.557
 3567W        W71785  16.732  22.624   0.280
 3568W        W71786  26.683  18.067  14.913
 3569W        W71787   7.878  44.360   1.401
 3570W        W71788  24.154  44.365  10.276
 3571W        W71789  12.281  37.336   1.804
 3572W        W71790  30.436   2.236  14.920
 3573W        W71791   5.756   3.428  13.754
 3574W        W71792  44.785  18.894  11.250
 3575W        W71793  37.650  20.660  12.224
 3576W        W71794  36.579  32.266  14.912
 3577W        W71795  28.584   5.001   1.434
 3578W        W71796   9.804  13.419  11.570
 3579W        W71797  37.405  43.075   1.745
 3580W        W71798  35.127  12.438   4.216
 3581W        W71799  13.105  14.007  11.635
 3582W        W71800  40.037  21.986   0.844
 3583W        W71801  39.778  39.022   1.921
 3584W        W71802  23.127   8.300   3.369
 3585W        W71803  42.168  29.839   1.034
 3586W        W71804  10.304   5.437  10.353
 3587W        W71805  12.236  42.014  10.520
 3588W        W71806  44.021  42.494  11.307
 3589W        W71807  43.467  16.129  13.535
 3590W        W71808  25.238  29.203  13.452
 3591W        W71809   3.175  28.494   1.781
 3592W        W71810  19.038  36.864  12.500
 3593W        W71811  20.849  38.037  11.722
 3594W        W71812  19.367   1.455  14.378
 3595W        W71813   9.081  32.824   2.772
 3596W        W71814  27.257   3.236  11.655
 3597W        W71815  23.021   6.281   1.320
 3598W        W71816  27.296  35.875   3.278
 3599W        W71817  14.558   7.675   4.243
 3600W        W71818  15.208  11.912   4.646
 3601W        W71819  11.753  28.115   2.898
 3602W        W71820   9.158  34.509   0.450
 3603W        W71821  32.690  35.830   2.209
 3604W        W71822  19.279   5.206   0.245
 3605W        W71823  22.569  21.159   4.951
 3606W        W71824   5.646  34.484  11.991
 3607W        W71825  29.179  40.289  11.695
 3608W        W71826  28.902  37.290   3.396
 3609W        W71827  10.327  10.239   3.635
 3610W        W71828  32.143  44.485   0.013
 3611W        W71829   2.227   9.822  12.474
 3612W        W71830  21.127  42.805  11.706
 3613W        W71831  38.405  24.067   4.861
 3614W        W71832   1.842  23.727   1.699
 3615W        W71833   6.939  29.400   0.349
 3616W        W71834  23.550  30.962   4.384
 3617W        W71835   4.669   3.273  13.407
 3618W        W71836   4.952  14.619  11.049
 3619W        W71837  40.433   6.665  13.361
 3620W        W71838  14.061   0.966   1.851
 3621W        W71839  15.600   5.173  14.607
 3622W        W71840   4.829  18.253   4.983
 3623W        W71841  16.201  19.028  14.317
 3624W        W71842  20.026   1.776   0.446
 3625W        W71843   1.359  14.204  11.606
 3626W        W71844   8.654  39.109  11.986
 3627W        W71845   4.759  29.295   4.528
 3628W        W71846  13.926  36.187  10.913
 3629W        W71847  35.415  23.547  12.048
 3630W        W71848   2.981  14.771  11.610
 3631W        W71849  34.476   7.494  11.188
 3632W        W71850  19.769  22.468  12.393
 3633W        W71851  11.670  36.502   3.125
 3634W        W71852   8.856  22.990   1.763
 3635W        W71853  32.946  36.428  12.046
 3636W        W71854   9.867  44.993   5.065
 3637W        W71855   8.317   1.264   2.204
 3638W        W71856   2.754  35.629   2.664
 3639W        W71857  11.733  32.578   2.326
 3640W        W71858   1.576  42.980   0.942
 3641W        W71859  26.663  27.697   1.487
 3642W        W71860  11.783  40.335  14.411
 3643W        W71861  23.356  32.922   4.548
 3644W        W71862   9.654   0.431   0.296
 3645W        W71863  35.913  36.293  11.763
 3646W        W71864  38.294   3.128   5.082
 3647W        W71865  19.818  19.094   3.723
 3648W        W71866   0.904  23.164  13.475
 3649W        W71867  12.298  21.083   0.690
 3650W        W71868   0.290   7.272  13.338
 3651W        W71869  39.811  39.537   1.829
 3652W        W71870   4.871  34.020  10.963
 3653W        W71871  16.618  26.105  14.759
 3654W        W71872  12.288  26.914  13.105
 3655W        W71873   9.159  26.646   2.709
 3656W        W71874   7.263  28.869   3.775
 3657W        W71875   3.592  12.854   1.764
 3658W        W71876  33.112  38.850   2.932
 3659W        W71877  26.585   9.397  11.512
 3660W        W71878   2.125   3.699   3.705
 3661W        W71879   9.978   6.447   1.363
 3662W        W71880  27.971  17.372   2.974
 3663W        W71881   2.402   1.514  14.257
 3664W        W71882  26.050  22.616  11.519
 3665W        W71883  12.720  30.953   0.718
 3666W        W71884   7.819  41.583  13.930
 3667W        W71885  40.062   3.721   2.188
 3668W        W71886  11.307  43.083   1.551
 3669W        W71887  24.710  16.282  14.977
 3670W        W71888  39.271  20.714   2.806
 3671W        W71889  43.000   2.255   2.718
 3672W        W71890  39.571   1.438  12.024
 3673W        W71891  21.325  32.555  12.427
 3674W        W71892  39.842  42.367   1.381
 3675W        W71893  10.793   0.290   2.969
 3676W        W71894  36.378   4.201  14.794
 3677W        W71895  30.282   8.748  14.268
 3678W        W71896   9.882  19.806  11.463
 3679W        W71897   8.484  34.199   3.559
 3680W        W71898  30.046  42.324  10.638
 3681W        W71899  18.885   7.603   4.960
 3682W        W71900  12.674  25.149   4.954
 3683W        W71901  35.410  13.136   0.241
 3684W        W71902  28.833  18.648   2.713
 3685W        W71903  31.137  39.267   1.780
 3686W        W71904   1.982  24.505   4.573
 3687W        W71905  25.886   0.128  12.569
 3688W        W71906   9.161   5.794  12.483
 3689W        W71907   2.830   2.165  11.527
 3690W        W71908   0.986  31.592  14.056
 3691W        W71909   0.545  20.227   0.550
 3692W        W71910  24.268  44.847   2.481
 3693W        W71911   3.216  39.043  10.244
 3694W        W71912  24.304  24.544  11.555
 3695W        W71913  43.212  23.917  13.027
 3696W        W71914  11.880  43.483  13.947
 3697W        W71915  19.540   7.660   0.479
 3698W        W71916  40.380  36.027   0.956
 3699W        W71917  15.232  27.132   0.024
 3700W        W71918  19.679  35.039   0.631
 3701W        W71919  16.650  25.529   4.850
 3702W        W71920  30.238  10.514  13.503
 3703W        W71921  30.006   9.630   2.755
 3704W        W71922  30.890  11.645   1.779
 3705W        W71923  22.791  26.265   3.286
 3706W        W71924  31.739   9.639   4.455
 3707W        W71925  32.509   9.301   1.333
 3708W        W71926   7.216   1.944  12.936
 3709W        W71927  35.447  23.982  12.906
 3710W        W71928  18.031  13.288  10.697
 3711W        W71929  27.570  16.596  12.242
 3712W        W71930  31.485  29.925   4.832
 3713W        W71931  36.606   1.019  14.953
 3714W        W71932  24.599  29.608   3.552
 3715W        W71933  34.340  23.441   1.478
 3716W        W71934  29.099  16.183   1.907
 3717W        W71935  43.356   4.327   4.651
 3718W        W71936  13.053  13.499  11.659
 3719W        W71937  41.262  19.711   0.859
 3720W        W71938  11.095   3.637   5.077
 3721W        W71939   4.004  19.318   3.265
 3722W        W71940  12.531   0.903   0.338
 3723W        W71941  44.588  12.561  13.660
 3724W        W71942   9.768  42.648   1.659
 3725W        W71943   0.215  19.498   4.064
 3726W        W71944  36.590   9.230  13.096
 3727W        W71945   2.066  42.420   4.849
 3728W        W71946  28.954  15.399   2.425
 3729W        W71947  28.959  12.805   4.680
 3730W        W71948  34.008   5.320  14.985
 3731W        W71949  28.147  44.965  10.752
 3732W        W71950  23.991  21.187  11.945
 3733W        W71951   8.763  25.548   4.586
 3734W        W71952  26.236   4.893  11.659
 3735W        W71953  15.260  37.952   1.888
 3736W        W71954  36.568  39.552   4.096
 3737W        W71955   1.716  34.451   2.306
 3738W        W71956  29.172  43.747  14.440
 3739W        W71957  13.331  19.789  12.044
 3740W        W71958  38.566   5.772  13.865
 3741W        W71959   8.220  23.623   3.261
 3742W        W71960  20.385  37.794   2.226
 3743W        W71961  26.003  14.759  13.055
 3744W        W71962   3.919  37.000  10.971
 3745W        W71963   0.832  11.904  14.807
 3746W        W71964   5.888  37.244  11.871
 3747W        W71965  26.975  21.179  13.455
 3748W        W71966  44.798  19.045  13.608
 3749W        W71967  22.472  10.912   0.777
 3750W        W71968   9.254   6.778  10.193
 3751W        W71969  34.513  12.002   2.709
 3752W        W71970  34.999  36.180   4.915
 3753W        W71971  27.124  34.064  14.089
 3754W        W71972  27.134  20.415   1.296
 3755W        W71973  16.354  42.768   9.891
 3756W        W71974   4.615  26.637   3.354
 3757W        W71975  38.765   6.254   4.511
 3758W        W71976  40.503  13.668   3.608
 3759W        W71977  35.106  19.454   1.259
 3760W        W71978  39.836  22.234   1.301
 3761W        W71979  20.998  23.704   3.739
 3762W        W71980  25.981   8.822   1.212
 3763W        W71981  24.752  12.194   4.259
 3764W        W71982  12.135  39.527   2.157
 3765W        W71983  11.147  33.570   4.427
 3766W        W71984   4.314  43.536   3.764
 3767W        W71985  39.509  39.270  14.996
 3768W        W71986  33.157  42.044   1.762
 3769W        W71987   2.966  37.945   4.415
 3770W        W71988  21.067   8.602  14.658
 3771W        W71989   8.339  38.476   3.134
 3772W        W71990  29.630  15.653   0.967
 3773W        W71991  14.831  43.014  14.892
 3774W        W71992  25.791   3.484  13.188
 3775W        W71993  11.283   8.563  10.930
 3776W        W71994  22.052   6.188   1.579
 3777W        W71995  36.065  18.585  14.008
 3778W        W71996  44.857  41.751   0.369
 3779W        W71997   8.120  27.650   4.113
 3780W        W71998  37.121  11.296  11.937
 3781W        W71999  18.171   5.232  11.123
 3782W        W72000  10.101  39.527   2.364
 3783W        W72001   7.116  36.864   2.635
 3784W        W72002  14.830  27.794  10.182
 3785W        W72003  14.672   7.355  12.040
 3786W        W72004  28.957   9.903  12.976
 3787W        W72005  17.638  12.658   2.741
 3788W        W72006  27.529  22.567   1.191
 3789W        W72007  14.233   3.675   3.729
 3790W        W72008  19.623  42.876  13.405
 3791W        W72009  25.793  22.944   0.717
 3792W        W72010   7.409   2.688   0.966
 3793W        W72011  17.028  32.355  13.419
 3794W        W72012  44.612  44.093  13.977
 3795W        W72013   6.445   3.436   3.197
 3796W        W72014  33.106   0.589   1.943
 3797W        W72015  33.509  35.923   1.783
 3798W        W72016  28.162  28.132  10.620
 3799W        W72017  11.886  26.072   4.811
 3800W        W72018  28.673  27.118   3.175
 3801W        W72019  28.330  26.447   0.283
 3802W        W72020  39.350  32.859   2.768
 3803W        W72021   4.919  42.262   1.398
 3804W        W72022  13.054  41.010  14.742
 3805W        W72023  23.989   9.128   4.587
 3806W        W72024   8.852  18.779   4.967
 3807W        W72025   9.210  22.836  10.973
 3808W        W72026  24.497   0.213   3.697
 3809W        W72027  43.864  35.748   0.934
 3810W        W72028   9.823  22.032  12.543
 3811W        W72029   4.932  29.852  13.385
 3812W        W72030  20.096  40.529  13.619
 3813W        W72031  25.454  11.346  11.601
 3814W        W72032  40.316  40.561  11.157
 3815W        W72033   0.303  18.245   3.253
 3816W        W72034  35.479  24.346   2.937
 3817W        W72035  36.401   0.015   1.331
 3818W        W72036  34.868  19.242   4.549
 3819W        W72037   7.375  12.308  12.500
 3820W        W72038  13.806   9.687   1.475
 3821W        W72039   7.682  10.356  11.137
 3822W        W72040  10.866  27.625  11.202
 3823W        W72041  11.869  32.327   0.400
 3824W        W72042  42.608  24.195   3.754
 3825W        W72043   4.954  35.653  13.515
 3826W        W72044   7.482  21.114   2.679
 3827W        W72045  42.319   1.254  11.947
 3828W        W72046   5.822   7.163   2.720
 3829W        W72047  22.956  26.529  14.267
 3830W        W72048  16.087  19.531   0.281
 3831W        W72049   5.881  32.509   4.096
 3832W        W72050   7.974  25.144  13.458
 3833W        W72051  28.467  38.554   1.846
 3834W        W72052  27.220  29.845  10.928
 3835W        W72053   9.921   1.315   0.573
 3836W        W72054  17.429  11.371  14.345
 3837W        W72055  24.912  38.127   2.857
 3838W        W72056  26.737  11.580  11.356
 3839W        W72057   0.766  41.490  14.433
 3840W        W72058   4.470  13.732  11.141
 3841W        W72059  41.751  24.462  11.795
 3842W        W72060  12.907   5.464  11.786
 3843W        W72061  38.008   8.148   2.468
 3844W        W72062  12.843  38.569   2.953
 3845W        W72063   9.782   4.958  13.346
 3846W        W72064  40.056   1.644  12.060
 3847W        W72065  40.306  15.795   2.828
 3848W        W72066  30.858  22.574  12.504
 3849W        W72067  40.321  23.318  12.109
 3850W        W72068  14.212  40.910  13.518
 3851W        W72069   2.740   9.509  12.889
 3852W        W72070  34.562  12.132  13.680
 3853W        W72071  23.889  32.308  10.594
 3854W        W72072  13.709  17.725   0.672
 3855W        W72073  38.494  35.885  13.620
 3856W        W72074   9.288  14.594  13.550
 3857W        W72075  16.187  22.259  13.996
 3858W        W72076  36.402  19.319   0.924
 3859W        W72077  42.915  41.481  13.319
 3860W        W72078  22.938  40.319   3.690
 3861W        W72079  21.534   4.161   2.362
 3862W        W72080  16.305  35.495  12.088
 3863W        W72081   2.548   6.096   3.618
 3864W        W72082  40.423  41.120   3.623
 3865W        W72083  26.091  31.863   3.734
 3866W        W72084  14.533  37.323   0.446
 3867W        W72085  11.056  38.379  14.733
 3868W        W72086  44.484  31.734   4.101
 3869W        W72087   5.238  31.971   5.088
 3870W        W72088  24.509   8.190   0.816
 3871W        W72089  37.711   4.491  13.890
 3872W        W72090  40.219  22.415   5.038
 3873W        W72091  41.023  44.516   3.271
 3874W        W72092  29.861  22.605   1.118
 3875W        W72093   1.250  24.437  13.099
 3876W        W72094  31.882  38.118   4.913
 3877W        W72095  27.207  13.225  14.337
 3878W        W72096  44.761   8.468  11.999
 3879W        W72097  25.236  14.888   1.506
 3880W        W72098  29.435   1.456   3.794
 3881W        W72099  43.897  13.671   4.809
 3882W        W72100   5.230  13.655   4.639
 3883W        W72101  26.643  22.979   4.098
 3884W        W72102  35.973  32.895   1.802
 3885W        W72103  22.947  18.984   0.511
 3886W        W72104  14.571  44.830   3.213
 3887W        W72105  21.704   8.333   4.191
 3888W        W72106  25.633  32.619  13.980
 3889W        W72107  16.193  23.558  13.317
 3890W        W72108  15.246  30.010   1.158
 3891W        W72109  19.338  37.867  12.394
 3892W        W72110  11.319  23.288  10.658
 3893W        W72111  35.243  30.643  11.943
 3894W        W72112  38.128  20.080  13.994
 3895W        W72113  39.690  42.208   0.429
 3896W        W72114  33.816  36.879  13.518
 3897W        W72115  27.560  21.604  14.941
 3898W        W72116  10.634  18.290   3.061
 3899W        W72117  39.477  29.608   2.149
 3900W        W72118  10.572  17.196   2.745
 3901W        W72119  41.283  40.644  12.515
 3902W        W72120  19.572  29.739   3.256
 3903W        W72121  22.125  36.380   1.526
 3904W        W72122  10.815  14.950  11.426
 3905W        W72123  24.212   5.911   5.144
 3906W        W72124  37.847  18.143  12.215
 3907W        W72125   7.173  43.235  10.667
 3908W        W72126  25.922  33.014  10.644
 3909W        W72127  36.428  27.712   4.529
 3910W        W72128   0.071  17.071  13.465
 3911W        W72129  40.446   0.348  12.060
 3912W        W72130  17.339   1.001  11.613
 3913W        W72131  26.968  13.287   1.657
 3914W        W72132  40.079  42.542  12.574
 3915W        W72133  34.842  15.865   1.305
 3916W        W72134  19.599  43.260   2.232
 3917W        W72135  27.653   2.664   0.953
 3918W        W72136  33.172   2.839  10.072
 3919W        W72137  31.833  27.091   2.912
 3920W        W72138  22.591   3.460   2.099
 3921W        W72139  15.616  43.294  12.059
 3922W        W72140  44.959  42.487  10.316
 3923W        W72141   1.828  25.782   3.764
 3924W        W72142  30.878   7.214  12.078
 3925W        W72143  25.302  30.011   0.097
 3926W        W72144   5.165  18.221   2.450
 3927W        W72145  33.662  13.850   0.221
 3928W        W72146  10.196  41.437  14.353
 3929W        W72147  20.810  13.492   4.992
 3930W        W72148  29.582   0.856  14.196
 3931W        W72149   2.810  38.405   2.804
 3932W        W72150   7.226  17.241  14.498
 3933W        W72151   5.482  41.326  11.389
 3934W        W72152  32.103  11.943   4.530
 3935W        W72153   4.330  31.895   4.096
 3936W        W72154  23.925  38.662   2.826
 3937W        W72155  37.972  21.782   0.676
 3938W        W72156  43.506  44.814   3.470
 3939W        W72157  18.752  37.134   1.456
 3940W        W72158  44.551  29.999  14.044
 3941W        W72159  10.258  26.488   1.784
 3942W        W72160  16.036  15.261  12.102
 3943W        W72161  11.750  37.906   3.336
 3944W        W72162  38.779  20.437  13.518
 3945W        W72163  37.987  42.774   2.086
 3946W        W72164   5.204  22.542  10.459
 3947W        W72165   0.255  41.814  11.813
 3948W        W72166  39.391   8.587  10.259
 3949W        W72167  21.662  28.457   2.330
 3950W        W72168   4.440  11.629   3.369
 3951W        W72169  19.007  43.237  14.915
 3952W        W72170  36.565  11.336  14.970
 3953W        W72171   1.918   3.906   4.993
 3954W        W72172   7.367  33.101   4.711
 3955W        W72173   4.123  30.259   2.369
 3956W        W72174  31.144  39.468   0.316
 3957W        W72175   8.984  13.225   2.351
 3958W        W72176  30.486  13.879  12.349
 3959W        W72177  20.734  13.812  11.072
 3960W        W72178   6.314  41.266   4.919
 3961W        W72179  34.305  17.729   0.734
 3962W        W72180  15.693   3.276  14.387
 3963W        W72181   2.794  13.302   0.586
 3964W        W72182   8.263  15.302  11.562
 3965W        W72183  19.257  31.665   1.640
 3966W        W72184  15.387  30.439   0.900
 3967W        W72185  26.692   1.538  12.115
 3968W        W72186  44.325   5.591  10.844
 3969W        W72187  24.076  29.133  14.859
 3970W        W72188  34.417  34.940   4.516
 3971W        W72189   8.688  10.730   3.974
 3972W        W72190   3.429  39.911  11.233
 3973W        W72191  23.221  16.809   4.038
 3974W        W72192  17.066  32.602   4.713
 3975W        W72193  29.467  33.120   1.821
 3976W        W72194  25.104  20.514  12.146
 3977W        W72195   0.447  22.569  12.245
 3978W        W72196  28.482  34.322   0.351
 3979W        W72197  15.850  41.553  13.352
 3980W        W72198  30.045   7.685  10.673
 3981W        W72199  23.259   6.940   2.653
 3982W        W72200   1.709  26.960  11.190
 3983W        W72201  15.275   0.128  10.993
 3984W        W72202  34.543  20.537   0.663
 3985W        W72203   7.165  26.056   3.295
 3986W        W72204  14.934  10.486   4.033
 3987W        W72205   6.702  37.789  13.128
 3988W        W72206  38.475  28.917  10.802
 3989W        W72207  30.544  28.130  13.788
 3990W        W72208  27.699  21.094  12.447
 3991W        W72209  23.199  30.501   3.363
 3992W        W72210  42.331  30.180   4.395
 3993W        W72211  11.791  22.435  12.998
 3994W        W72212   9.696  34.589  13.112
 3995W        W72213  15.606  42.208   1.865
 3996W        W72214  29.555  38.342   3.827
 3997W        W72215  35.454  17.739  11.304
 3998W        W72216   4.925  12.618   4.108
 3999W        W72217  15.266  16.797   2.274
 4000W        W72218  23.776  23.583   3.638
 4001W        W72219   4.721  18.137  11.317
 4002W        W72220  28.170   4.071   4.577
 4003W        W72221  35.598  30.086   1.696
 4004W        W72222   3.884   6.162  12.011
 4005W        W72223  27.348   9.386   3.951
 4006W        W72224   3.694  33.127   3.481
 4007W        W72225  40.403   8.097   4.195
 4008W        W72226   8.006   2.364   4.114
 4009W        W72227  34.887  10.384   4.077
 4010W        W72228   7.910  19.173  13.848
 4011W        W72229   0.018   2.202  12.454
 4012W        W72230  26.627  10.882  14.567
 4013W        W72231  24.920   4.587  11.546
 4014W        W72232   4.346  30.691  13.391
 4015W        W72233  19.092  18.624  13.889
 4016W        W72234  25.746  32.911   1.753
 4017W        W72235  36.349  38.768  10.044
 4018W        W72236  26.768  24.875  11.471
 4019W        W72237  11.283   5.253  13.475
 4020W        W72238   7.228   4.372   1.585
 4021W        W72239  26.251   7.901   4.675
 4022W        W72240  19.173  43.276  12.523
 4023W        W72241  37.431   8.330  13.573
 4024W        W72242  13.086  39.823  13.000
 4025W        W72243  40.372  37.284  13.821
 4026W        W72244  35.579  16.360   0.860
 4027W        W72245  35.566  43.478  10.573
 4028W        W72246  13.242   5.829   2.828
 4029W        W72247  24.164  20.233   0.770
 4030W        W72248  19.652   3.217  13.113
 4031W        W72249  22.193  38.569   3.047
 4032W        W72250  26.189  31.191   2.109
 4033W        W72251   9.851  33.870  14.407
 4034W        W72252  25.598  24.124   0.226
 4035W        W72253  32.792  32.622   3.627
 4036W        W72254  26.795  39.420   1.187
 4037W        W72255  28.628  34.446  11.948
 4038W        W72256  38.803  26.153  14.013
 4039W        W72257   6.403  25.625  12.117
 4040W        W72258  35.860  21.601   2.345
 4041W        W72259  24.517   7.359   1.738
 4042W        W72260  29.960  13.336   0.481
 4043W        W72261  36.698  35.651  11.894
 4044W        W72262  11.719  14.659   0.040
 4045W        W72263  34.011  30.223  14.322
 4046W        W72264  12.749  43.568  14.517
 4047W        W72265  11.365  25.132  13.118
 4048W        W72266  15.236  32.181  12.610
 4049W        W72267  38.340  17.630  13.141
 4050W        W72268  22.016  26.981   0.972
 4051W        W72269   3.980  14.107   1.933
 4052W        W72270  36.140  36.649  11.457
 4053W        W72271  27.324  21.011   0.033
 4054W        W72272  15.449  13.135   4.206
 4055W        W72273  20.651  24.767   4.140
 4056W        W72274  22.519  41.447   0.975
 4057W        W72275  30.208  37.641  14.028
 4058W        W72276  40.070   9.536   0.318
 4059W        W72277  21.767  24.540   0.709
 4060W        W72278  36.622  21.519  13.503
 4061W        W72279  38.599  32.902  11.506
 4062W        W72280   8.157  10.624  11.146
 4063W        W72281  24.877  30.867  13.605
 4064W        W72282   4.489  26.550  14.491
 4065W        W72283  17.251  33.095  10.825
 4066W        W72284  31.437   9.711  10.662
 4067W        W72285   8.942  29.478  10.673
 4068W        W72286  40.556  18.403   1.852
 4069W        W72287   7.638   9.957  14.392
 4070W        W72288   5.350  38.317  13.887
 4071W        W72289  16.982  29.945   1.957
 4072W        W72290  33.427  18.251   5.069
 4073W        W72291  18.317  42.706   1.849
 4074W        W72292   4.896   6.438   0.940
 4075W        W72293  18.043  23.919  11.976
 4076W        W72294   4.965  20.180   1.822
 4077W        W72295   1.791  34.210   3.091
 4078W        W72296   4.307  24.736  14.896
 4079W        W72297  42.063  10.609  14.732
 4080W        W72298   5.417  44.674  14.617
 4081W        W72299  17.990  22.134   3.244
 4082W        W72300  31.502   4.407   4.011
 4083W        W72301  43.591  43.210  12.531
 4084W        W72302  20.035   5.321  11.540
 4085W        W72303  15.745  22.007  13.971
 4086W        W72304   8.194  41.949  13.056
 4087W        W72305  10.112   2.493  10.986
 4088W        W72306  20.294  39.074   4.779
 4089W        W72307   6.446  25.619   3.704
 4090W        W72308   5.335   3.199   1.453
 4091W        W72309  44.128   9.790  12.534
 4092W        W72310   3.184   4.882  13.825
 4093W        W72311  19.176  11.425   2.599
 4094W        W72312   8.748   0.817   2.903
 4095W        W72313  10.699  36.902   1.450
 4096W        W72314  28.407  43.516   1.282
 4097W        W72315  21.500  39.088   1.738
 4098W        W72316  23.723  34.457  11.575
 4099W        W72317  37.653  44.725  13.732
 4100W        W72318  21.495   5.403  11.540
 4101W        W72319  14.278  38.983   4.053
 4102W        W72320  40.497   9.449  13.152
 4103W        W72321  34.012  35.306  11.404
 4104W        W72322  39.518   3.959   0.315
 4105W        W72323   7.692  29.472   3.188
 4106W        W72324  35.984   8.073   3.196
 4107W        W72325  27.873  20.176  14.760
 4108W        W72326   2.839  26.354  13.807
 4109W        W72327   2.885  22.161  14.384
 4110W        W72328  43.452  13.640   1.773
 4111W        W72329   3.439  13.289   4.277
 4112W        W72330   8.162  18.814   2.353
 4113W        W72331   1.729  11.126  13.339
 4114W        W72332  39.944  15.332  12.799
 4115W        W72333  40.018  12.019   3.313
 4116W        W72334  18.424  33.105   1.966
 4117W        W72335  18.970  24.410  11.980
 4118W        W72336  17.020   6.480   4.103
 4119W        W72337  44.514  11.845  14.414
 4120W        W72338  18.584   5.470   0.096
 4121W        W72339  20.780  40.896  12.477
 4122W        W72340  40.914  30.031  12.033
 4123W        W72341  31.922  12.095   3.162
 4124W        W72342  29.582  10.686   0.756
 4125W        W72343  26.142   2.123  14.905
 4126W        W72344   2.365  17.666  14.878
 4127W        W72345   3.425   0.372  12.611
 4128W        W72346   4.588  38.797   1.518
 4129W        W72347  33.610   4.195  13.004
 4130W        W72348  44.668  16.649  11.991
 4131W        W72349  42.808  39.828  13.350
 4132W        W72350  24.204   9.535  12.484
 4133W        W72351   4.256   3.114   3.201
 4134W        W72352  43.289  33.171   0.894
 4135W        W72353  27.755  10.269   1.757
 4136W        W72354  36.424  41.305   0.438
 4137W        W72355  35.036   3.247  12.430
 4138W        W72356  30.451  27.176   0.818
 4139W        W72357  29.113  38.619   3.676
 4140W        W72358  21.670   2.718  12.988
 4141W        W72359  34.899  22.574   2.595
 4142W        W72360  41.709  25.984  14.071
 4143W        W72361  12.136   8.272   3.132
 4144W        W72362  33.032   6.378   4.699
 4145W        W72363  38.856   4.438   5.504
 4146W        W72364  41.948  36.642  12.058
 4147W        W72365  38.608   3.457  13.327
 4148W        W72366  21.458  10.676   1.452
 4149W        W72367   6.614  19.004  12.848
 4150W        W72368   9.793   3.212   0.140
 4151W        W72369  42.992  42.073   1.021
 4152W        W72370   7.241  10.959   0.458
 4153W        W72371   8.309  21.524  11.149
 4154W        W72372  29.132  42.881  11.273
 4155W        W72373  15.178   1.704  12.547
 4156W        W72374  25.475   3.538   1.221
 4157W        W72375   6.504  32.076   3.613
 4158W        W72376  10.404  33.255   0.431
 4159W        W72377   4.403  35.556  11.330
 4160W        W72378  29.476  17.602   2.351
 4161W        W72379  27.932  12.177  11.541
 4162W        W72380  42.091  16.604  10.653
 4163W        W72381  17.148  24.283  12.711
 4164W        W72382  12.370  23.639   2.733
 4165W        W72383   3.409   7.471  13.808
 4166W        W72384  42.855  23.353  10.581
 4167W        W72385  27.054  16.808  14.210
 4168W        W72386  21.533  19.207   0.752
 4169W        W72387  32.549  22.119   2.230
 4170W        W72388  30.713  13.848  14.749
 4171W        W72389  27.652  35.565   3.025
 4172W        W72390  17.176  33.086   3.249
 4173W        W72391  11.749  18.410  12.488
 4174W        W72392   8.842   2.545   0.867
 4175W        W72393  34.959   0.757   0.706
 4176W        W72394   1.286  36.513  10.696
 4177W        W72395  23.753  19.062   3.128
 4178W        W72396   7.919  28.421  14.072
 4179W        W72397  26.455  36.303  12.450
 4180W        W72398  14.802  32.066   1.785
 4181W        W72399  16.347  16.331   2.793
 4182W        W72400  31.260  27.511  14.894
 4183W        W72401  19.303  21.134   0.982
 4184W        W72402  15.828  43.688   5.057
 4185W        W72403  15.199  44.458   1.729
 4186W        W72404   6.096  15.578  11.388
 4187W        W72405  24.085  13.728   3.093
 4188W        W72406   7.702  15.622   5.348
 4189W        W72407   3.298  41.829   0.046
 4190W        W72408  24.098  38.481   0.390
 4191W        W72409  14.071  26.163   1.669
 4192W        W72410  21.922  21.146   0.243
 4193W        W72411  19.316  29.892   1.395
 4194W        W72412  15.672  38.889  13.096
 4195W        W72413  13.701  26.569   4.533
 4196W        W72414  40.455   4.970  13.913
 4197W        W72415  37.348  26.700  11.938
 4198W        W72416  42.001  17.551   2.352
 4199W        W72417   7.677  15.669  14.803
 4200W        W72418  22.804   0.282  14.395
 4201W        W72419  29.267  19.563  12.409
 4202W        W72420  32.621  21.319  14.820
 4203W        W72421  38.919  29.390   0.287
 4204W        W72422  21.217  36.416   1.129
 4205W        W72423  27.117  20.458   5.082
 4206W        W72424  14.702  37.250   1.881
 4207W        W72425  44.219  38.070  10.976
 4208W        W72426  39.030   4.020   4.790
 4209W        W72427  40.775  25.192  13.088
 4210W        W72428  22.095  31.163   2.915
 4211W        W72429   6.141  23.606  13.085
 4212W        W72430  23.062  16.330  12.313
 4213W        W72431  36.384  29.390  10.739
 4214W        W72432   0.693   9.079   0.387
 4215W        W72433  22.259  28.520   3.073
 4216W        W72434  26.642  12.641  12.077
 4217W        W72435   7.627  34.411   3.683
 4218W        W72436   5.435   3.444   0.990
 4219W        W72437   2.024  10.046  11.825
 4220W        W72438  35.064  37.074   3.406
 4221W        W72439  40.861  24.468   3.639
 4222W        W72440  42.206  17.664  14.905
 4223W        W72441  11.063  36.049   0.962
 4224W        W72442  21.111  12.362   5.133
 4225W        W72443   8.302   2.771  14.969
 4226W        W72444  39.854  40.273   4.557
 4227W        W72445  11.856  33.201  12.066
 4228W        W72446   7.107  40.390  14.117
 4229W        W72447  24.222  44.788  12.983
 4230W        W72448   3.142  30.160  13.095
 4231W        W72449  18.723  44.728   2.812
 4232W        W72450   4.613  43.081  10.673
 4233W        W72451  33.120  25.460   5.266
 4234W        W72452  23.731  41.783  13.518
 4235W        W72453   5.574  18.259   1.536
 4236W        W72454  16.542   1.213  12.433
 4237W        W72455   1.311   2.212   2.720
 4238W        W72456  40.432   0.282   0.036
 4239W        W72457  37.010   1.832   0.085
 4240W        W72458  22.139   2.838   1.296
 4241W        W72459  33.648  22.544  10.690
 4242W        W72460  28.063   5.834   1.892
 4243W        W72461  28.675  30.855   4.289
 4244W        W72462  26.437  42.408   2.892
 4245W        W72463   9.749  42.985  13.114
 4246W        W72464  22.899  42.916   4.178
 4247W        W72465  27.450  18.700   3.082
 4248W        W72466   4.881  21.297   3.637
 4249W        W72467  34.601  17.146   4.082
 4250W        W72468  11.951   5.754  12.450
 4251W        W72469  17.270  36.610  13.854
 4252W        W72470  34.409   6.758  12.425
 4253W        W72471  35.104  14.691  10.709
 4254W        W72472  27.574   7.363   2.656
 4255W        W72473  30.707  30.368  14.206
 4256W        W72474  28.415  25.553  14.988
 4257W        W72475  31.043  24.954   0.039
 4258W        W72476  36.476  35.797  12.351
 4259W        W72477  34.613  14.433   3.672
 4260W        W72478   1.233  21.433  13.595
 4261W        W72479   2.455   5.754  12.021
 4262W        W72480  17.638  11.942  14.385
 4263W        W72481   1.585  10.219   1.918
 4264W        W72482   4.571  34.457   1.291
 4265W        W72483  18.309  42.195   1.776
 4266W        W72484  40.482  21.457   1.298
 4267W        W72485   0.050  29.877   0.871
 4268W        W72486  24.239  21.674   3.209
 4269W        W72487  36.802  11.686   4.213
 4270W        W72488  22.220   4.054   4.088
 4271W        W72489   5.268  21.805  12.066
 4272W        W72490  24.469  20.193   2.610
 4273W        W72491  38.299  24.366   1.219
 4274W        W72492  32.219  25.982   2.348
 4275W        W72493  22.491  38.449   4.329
 4276W        W72494   8.332   5.470  12.183
 4277W        W72495   3.856  25.016   0.323
 4278W        W72496  23.860  26.597  14.971
 4279W        W72497  28.775  41.769   4.575
 4280W        W72498  26.749  40.555   1.596
 4281W        W72499   9.562  23.225   4.678
 4282W        W72500  43.526  21.214  12.481
 4283W        W72501  15.168   1.271  14.765
 4284W        W72502  25.074  42.850   2.788
 4285W        W72503  38.312  15.156   1.860
 4286W        W72504  25.707  31.709  13.937
 4287W        W72505  20.719  20.543  11.228
 4288W        W72506  43.269  30.105   3.390
 4289W        W72507  18.754  13.189  14.806
 4290W        W72508   3.901   3.315   1.675
 4291W        W72509   8.303  32.307  14.874
 4292W        W72510   3.066  18.633  11.087
 4293W        W72511  35.839  35.560   2.685
 4294W        W72512  23.995   0.953  12.421
 4295W        W72513   2.165   1.719  11.667
 4296W        W72514  17.274  29.986   9.963
 4297W        W72515  39.852  23.439  14.558
 4298W        W72516   6.771  11.938  14.956
 4299W        W72517  12.843   5.390   4.548
 4300W        W72518  39.441  34.328   1.996
 4301W        W72519  18.547  44.502   3.211
 4302W        W72520  10.243   2.283  10.541
 4303W        W72521  24.559  16.861   4.214
 4304W        W72522  27.173   7.456   1.910
 4305W        W72523  22.682   9.843  13.854
 4306W        W72524  11.927  43.507   2.263
 4307W        W72525   9.196  23.427   4.168
 4308W        W72526  35.997   6.379   0.852
 4309W        W72527  10.091  33.601   3.442
 4310W        W72528   1.392  34.591   3.834
 4311W        W72529  33.688  20.088  10.654
 4312W        W72530  24.540  24.426  14.717
 4313W        W72531  28.928   2.137   3.567
 4314W        W72532  25.103  15.102  13.399
 4315W        W72533   7.835   0.453   0.788
 4316W        W72534  12.668  26.693   3.705
 4317W        W72535  23.283   2.357  11.201
 4318W        W72536  27.057  41.275   0.722
 4319W        W72537  36.060  36.948   4.896
 4320W        W72538  28.679   9.629   0.298
 4321W        W72539  43.278   4.875  11.522
 4322W        W72540   8.678  38.446   4.819
 4323W        W72541  37.410  44.074   9.820
 4324W        W72542   7.864  26.906  10.631
 4325W        W72543  22.228  44.782  11.997
 4326W        W72544  34.491  44.437  13.176
 4327W        W72545  29.431  32.909  14.011
 4328W        W72546   6.116  16.113  14.407
 4329W        W72547  34.570  15.569   4.614
 4330W        W72548  43.896  38.849  13.425
 4331W        W72549  41.332  25.725  10.750
 4332W        W72550  37.547  29.158  12.170
 4333W        W72551  42.890  10.453  10.690
 4334W        W72552  33.738  44.550   3.627
 4335W        W72553  36.825   9.772  10.540
 4336W        W72554  18.760  34.981   3.071
 4337W        W72555  16.020  15.176  10.837
 4338W        W72556   4.443  35.458   5.131
 4339W        W72557  26.778   5.704  11.892
 4340W        W72558   6.585   1.530  13.066
 4341W        W72559  44.437   3.235  11.670
 4342W        W72560   1.367   7.846  14.257
 4343W        W72561  19.213  25.900  11.318
 4344W        W72562  44.876  37.704   2.426
 4345W        W72563  38.248   7.692  14.936
 4346W        W72564  40.105  32.586   3.692
 4347W        W72565  21.268  27.891   0.771
 4348W        W72566  37.048  18.330  10.786
 4349W        W72567  11.440   8.830   4.204
 4350W        W72568  13.157   0.431   0.879
 4351W        W72569  29.391  38.335  14.823
 4352W        W72570  22.171  17.623   4.696
 4353W        W72571   8.666   7.113  14.320
 4354W        W72572  42.220  24.409   2.308
 4355W        W72573  24.580  31.189  14.347
 4356W        W72574   8.206  42.486   0.803
 4357W        W72575   1.872  28.325  14.004
 4358W        W72576  18.277  33.906  12.066
 4359W        W72577  13.530  11.634  11.607
 4360W        W72578  42.228  16.912   0.515
 4361W        W72579   0.089  35.012   1.396
 4362W        W72580   6.010  40.786   9.741
 4363W        W72581  12.202  26.422   2.167
 4364W        W72582  24.414  40.059  10.812
 4365W        W72583  25.448  17.361  11.609
 4366W        W72584  30.622  32.400   1.266
 4367W        W72585  24.536  41.910   0.954
 4368W        W72586   7.286   2.994   3.257
 4369W        W72587  27.424  18.141  13.460
 4370W        W72588   1.460  26.296   1.331
 4371W        W72589  32.366  32.331   0.414
 4372W        W72590  42.798  18.179  13.823
 4373W        W72591   4.106  44.760   1.489
 4374W        W72592  11.872  43.874   4.028
 4375W        W72593  29.958  33.022  13.060
 4376W        W72594   3.137  15.126   2.376
 4377W        W72595  12.135  35.199   3.391
 4378W        W72596  22.800  32.884  13.236
 4379W        W72597  34.798  40.467  13.929
 4380W        W72598  26.752  25.004  13.856
 4381W        W72599  11.744  14.726  14.054
 4382W        W72600   9.677  24.508   4.583
 4383W        W72601   2.880  32.486  11.881
 4384W        W72602  36.944   0.929   2.561
 4385W        W72603   2.700  43.655  10.515
 4386W        W72604   5.022  19.562   3.766
 4387W        W72605   0.843   4.366  14.446
 4388W        W72606   5.281  31.143   0.667
 4389W        W72607   2.978  22.395  10.307
 4390W        W72608   0.444  10.286   0.003
 4391W        W72609  11.352  12.608  13.462
 4392W        W72610   6.913  43.921   4.722
 4393W        W72611  17.361  24.098   4.954
 4394W        W72612  34.953   1.334  14.784
 4395W        W72613  24.062  20.732  10.503
 4396W        W72614  36.877  31.420   3.127
 4397W        W72615  18.047  37.776  10.345
 4398W        W72616  16.349   3.802   0.799
 4399W        W72617  13.599   8.404   2.249
 4400W        W72618  33.589  16.714   1.652
 4401W        W72619  38.262  41.798   1.858
 4402W        W72620  20.155  21.298   2.346
 4403W        W72621  35.327  10.213  14.096
 4404W        W72622  43.262  33.113   4.640
 4405W        W72623  11.159  24.279  10.730
 4406W        W72624  22.999  28.615  11.690
 4407W        W72625  38.183  23.784  11.474
 4408W        W72626  28.918  18.087   1.838
 4409W        W72627   2.146  23.998   3.829
 4410W        W72628  28.501  44.124   1.641
 4411W        W72629  22.054  13.167  12.977
 4412W        W72630  13.400  24.517  12.473
 4413W        W72631  26.961  20.813   2.768
 4414W        W72632   6.005  34.749  14.543
 4415W        W72633  16.758   9.336   2.776
 4416W        W72634  18.412  29.965   2.704
 4417W        W72635  19.614   0.732   3.172
 4418W        W72636  38.953  28.202  12.057
 4419W        W72637  43.302  39.008  11.009
 4420W        W72638  41.695   3.969   3.932
 4421W        W72639  13.742   6.657   4.527
 4422W        W72640   8.956  34.176  11.904
 4423W        W72641  24.083  10.769   2.265
 4424W        W72642  30.543  23.029  10.814
 4425W        W72643  30.689  26.978  11.596
 4426W        W72644   3.497  11.569   9.860
 4427W        W72645  30.260   7.698  14.340
 4428W        W72646   2.256   8.931   2.111
 4429W        W72647  43.094  28.955  11.912
 4430W        W72648  44.458  21.175  12.905
 4431W        W72649  33.132  38.113   0.667
 4432W        W72650  29.830   1.266   2.283
 4433W        W72651   5.389  30.224   0.814
 4434W        W72652  14.776  24.152  12.160
 4435W        W72653  29.398   6.378  12.012
 4436W        W72654  16.004  37.042   2.708
 4437W        W72655  11.743  38.931   2.429
 4438W        W72656  26.131  30.872   3.775
 4439W        W72657   7.285  27.267   0.926
 4440W        W72658   1.020  14.398  14.747
 4441W        W72659  23.949  24.996  13.103
 4442W        W72660  29.481  23.570  14.718
 4443W        W72661   3.458  39.823   4.264
 4444W        W72662  43.552  35.773   3.484
 4445W        W72663  44.886  35.307   4.062
 4446W        W72664  42.788  35.442   4.816
 4447W        W72665  25.756   4.516   1.496
 4448W        W72666  17.736  14.189   1.902
 4449W        W72667  29.422  28.200  11.178
 4450W        W72668  39.635  11.674  10.757
 4451W        W72669  39.400   4.209   3.673
 4452W        W72670  13.178  39.802  13.516
 4453W        W72671  23.736   0.649   4.716
 4454W        W72672  24.718  25.758   2.320
 4455W        W72673  42.652  33.455   5.064
 4456W        W72674  33.103  29.954  11.452
 4457W        W72675   6.394   5.688  14.004
 4458W        W72676  31.037  41.549   0.853
 4459W        W72677  35.571  32.051  14.823
 4460W        W72678  22.200   1.483  11.973
 4461W        W72679  13.675  14.606  11.964
 4462W        W72680  22.115  35.322  11.951
 4463W        W72681  44.638  11.350  12.957
 4464W        W72682  31.556  33.062  12.626
 4465W        W72683  18.716  10.181   4.310
 4466W        W72684  36.581  33.554  11.948
 4467W        W72685   0.836  15.644   4.763
 4468W        W72686  32.180  14.634   4.145
 4469W        W72687  20.429  18.284   2.257
 4470W        W72688   6.010  10.220   3.262
 4471W        W72689  42.542  17.407   3.860
 4472W        W72690   3.468  42.802  11.741
 4473W        W72691  39.959  17.720  14.245
 4474W        W72692  37.455  42.959  14.509
 4475W        W72693   3.384  20.497  13.960
 4476W        W72694   3.442  11.942   3.823
 4477W        W72695  42.745  33.526   0.350
 4478W        W72696  14.585  34.278  12.147
 4479W        W72697  29.338  43.884  12.921
 4480W        W72698  21.194  19.327   0.227
 4481W        W72699  40.797  11.665  13.328
 4482W        W72700  14.821   9.234   3.905
 4483W        W72701  11.328  11.883  10.531
 4484W        W72702  33.527  16.229   1.849
 4485W        W72703  18.982  44.067  10.726
 4486W        W72704   5.905  19.716   1.364
 4487W        W72705  44.827   7.516   0.334
 4488W        W72706  13.510  26.046  10.709
 4489W        W72707  43.354  37.089   3.212
 4490W        W72708  31.615  19.121  10.739
 4491W        W72709   0.829  22.629  11.221
 4492W        W72710  42.220  26.246   0.102
 4493W        W72711   1.754  34.705  14.876
 4494W        W72712  27.644  19.748   3.662
 4495W        W72713  44.564  33.979   4.346
 4496W        W72714  19.163   8.834   0.325
 4497W        W72715  36.463  26.726   1.829
 4498W        W72716  23.284  40.965   0.051
 4499W        W72717  32.923   1.205  11.703
 4500W        W72718   7.737  16.191  11.473
 4501W        W72719   9.372   0.326  10.314
 4502W        W72720   6.142  19.290   3.157
 4503W        W72721  24.563  36.258  11.587
 4504W        W72722  19.797  31.930  14.991
 4505W        W72723  31.057  21.855   1.012
 4506W        W72724  34.948  36.607  11.414
 4507W        W72725   0.695  24.484  13.822
 4508W        W72726   3.297  19.400  11.911
 4509W        W72727  36.919   9.914  12.626
 4510W        W72728  36.948  35.614   0.266
 4511W        W72729   7.942  13.689  13.320
 4512W        W72730   7.489  27.425  12.526
 4513W        W72731  24.654  29.151  10.770
 4514W        W72732  39.541  33.913  13.958
 4515W        W72733  37.461  23.104   1.766
 4516W        W72734  13.855   1.516   0.474
 4517W        W72735   9.636  28.685  13.051
 4518W        W72736  35.630   1.433   1.002
 4519W        W72737  44.250  21.208   1.271
 4520W        W72738  30.094  28.438   3.734
 4521W        W72739  17.310  40.000   4.616
 4522W        W72740  17.795   6.471  13.906
 4523W        W72741  28.539  20.210  13.307
 4524W        W72742  16.189   9.764   2.513
 4525W        W72743  36.318  33.940   4.749
 4526W        W72744  43.663  32.364  13.931
 4527W        W72745   0.343  17.114  10.677
 4528W        W72746  23.257   1.848   4.075
 4529W        W72747  28.715  26.618  11.946
 4530W        W72748  17.986   2.508  14.576
 4531W        W72749  26.109  31.558  13.243
 4532W        W72750  44.544   8.231   2.324
 4533W        W72751  12.288   6.959   1.930
 4534W        W72752  31.837  11.733  12.477
 4535W        W72753  32.982   6.510  13.022
 4536W        W72754   9.655  21.701  13.009
 4537W        W72755  31.270  19.592   0.313
 4538W        W72756  39.807  37.641  11.932
 4539W        W72757  25.872  43.838   3.725
 4540W        W72758   3.770  37.424  11.711
 4541W        W72759  41.883   0.781  12.556
 4542W        W72760  21.526  24.791   4.184
 4543W        W72761  44.636  40.685   5.108
 4544W        W72762  42.078   5.507  14.366
 4545W        W72763  25.724  15.782   9.858
 4546W        W72764   1.604  13.770  11.369
 4547W        W72765   2.798   8.132   3.638
 4548W        W72766  31.533  37.274  12.837
 4549W        W72767  21.230  36.001   0.274
 4550W        W72768   9.816  13.278   4.165
 4551W        W72769  23.787  24.553  10.165
 4552W        W72770  11.565  23.724   0.364
 4553W        W72771  34.980  10.112   1.711
 4554W        W72772  36.262  13.803   3.953
 4555W        W72773   0.917  11.699   4.365
 4556W        W72774  12.234  26.133  10.771
 4557W        W72775  23.103   0.492  12.669
 4558W        W72776  44.514  37.446  10.797
 4559W        W72777  35.867  28.147  11.906
 4560W        W72778   9.802  21.709  10.680
 4561W        W72779   6.344  32.979   0.443
 4562W        W72780  38.027  14.370  10.703
 4563W        W72781   7.971  32.974  13.373
 4564W        W72782  35.884  43.250   0.903
 4565W        W72783  40.448  14.454   0.133
 4566W        W72784  14.664   4.715  14.923
 4567W        W72785  17.430  16.293  13.818
 4568W        W72786   2.289  24.470  12.818
 4569W        W72787  23.071  10.825   4.467
 4570W        W72788  35.375  42.742  12.704
 4571W        W72789   5.305  37.371  12.471
 4572W        W72790  34.930  29.601  13.318
 4573W        W72791  34.924  41.353   0.452
 4574W        W72792  25.247   8.290   0.306
 4575W        W72793  19.474  33.131  13.343
 4576W        W72794  32.021  33.683  14.986
 4577W        W72795  10.406  15.774  10.187
 4578W        W72796  32.353  21.996   1.546
 4579W        W72797   5.210  29.019  11.598
 4580W        W72798  38.832  33.609   1.887
 4581W        W72799  44.370  26.973   3.807
 4582W        W72800  28.645  38.344   3.745
 4583W        W72801  27.915   0.977  12.126
 4584W        W72802  36.427  14.642  10.983
 4585W        W72803   2.605  39.908  11.726
 4586W        W72804  29.500  43.809   3.866
 4587W        W72805  35.191  28.208   4.555
 4588W        W72806   6.221  28.301  13.519
 4589W        W72807  23.693  27.098  13.633
 4590W        W72808   8.425  40.662   2.171
 4591W        W72809  15.386  37.427  12.846
 4592W        W72810  27.481  39.822  14.519
 4593W        W72811  44.543  16.268   3.080
 4594W        W72812  20.533  23.911  14.689
 4595W        W72813  32.969   1.034  12.193
 4596W        W72814   5.091  25.596  13.353
 4597W        W72815  10.581  32.586  12.174
 4598W        W72816  24.546  18.684   2.249
 4599W        W72817  43.226  32.590   4.672
 4600W        W72818  19.325  26.348  13.819
 4601W        W72819  17.311   1.842  14.456
 4602W        W72820  44.387  21.230   4.115
 4603W        W72821  23.996  35.096  12.180
 4604W        W72822   7.021  27.441  11.633
 4605W        W72823  34.498  20.591  14.241
 4606W        W72824   6.958  28.986   3.234
 4607W        W72825   5.786  28.609   1.447
 4608W        W72826  19.708  23.220  13.966
 4609W        W72827  12.772  33.031  12.007
 4610W        W72828  37.849  43.295  14.410
 4611W        W72829  31.588  17.282   4.910
 4612W        W72830  36.386  13.625   1.120
 4613W        W72831   4.944   9.634   4.409
 4614W        W72832   0.280  44.507   0.547
 4615W        W72833   2.964  22.681   2.910
 4616W        W72834  39.786  33.522  12.327
 4617W        W72835  39.532  12.028  10.393
 4618W        W72836   2.939   1.219   1.821
 4619W        W72837  16.284   6.636   2.669
 4620W        W72838  17.317   8.308  11.417
 4621W        W72839  35.573  19.851   0.996
 4622W        W72840  18.026   2.392  11.710
 4623W        W72841  36.599   3.283  14.930
 4624W        W72842  31.090  39.651   9.713
 4625W        W72843  37.422  24.012  13.360
 4626W        W72844  31.010  39.890   1.378
 4627W        W72845  39.840  19.199  14.884
 4628W        W72846  33.613   8.379   3.241
 4629W        W72847  17.124  10.934  14.347
 4630W        W72848   1.449   2.893   0.484
 4631W        W72849  31.925  29.003  13.345
 4632W        W72850   5.177   4.662   0.278
 4633W        W72851  16.206  21.706   2.310
 4634W        W72852   1.374   1.691  14.325
 4635W        W72853  39.408   1.749   5.216
 4636W        W72854  36.047  14.728   2.275
 4637W        W72855  20.023   7.707   0.341
 4638W        W72856  12.125  14.707  14.476
 4639W        W72857  40.576  10.884   2.806
 4640W        W72858  13.313   3.330  10.380
 4641W        W72859  15.980  22.146   4.397
 4642W        W72860   3.354  37.757   0.448
 4643W        W72861   9.769  33.546  10.670
 4644W        W72862  10.382  42.739   0.498
 4645W        W72863  42.004  25.558   2.230
 4646W        W72864   6.170  14.785  12.517
 4647W        W72865   0.286  10.014   0.404
 4648W        W72866  40.414  35.775  11.648
 4649W        W72867  41.481   9.751   2.388
 4650W        W72868  42.500  34.235  13.056
 4651W        W72869  44.541  28.000  13.844
 4652W        W72870   3.341   2.928  11.797
 4653W        W72871   9.816  36.653   3.799
 4654W        W72872  13.755  17.758  14.190
 4655W        W72873   1.316  12.897   1.103
 4656W        W72874   8.794  18.024   3.644
 4657W        W72875  36.866  10.111   4.071
 4658W        W72876  32.582   4.216   1.371
 4659W        W72877  36.793   5.617   1.152
 4660W        W72878  30.501  27.723  13.432
 4661W        W72879  18.476  38.423   4.364
 4662W        W72880  29.968  34.944   4.092
 4663W        W72881  32.106   2.281   4.625
 4664W        W72882  40.703  18.617   2.769
 4665W        W72883  14.028   5.735   4.117
 4666W        W72884  24.050   7.306  13.500
 4667W        W72885  11.147  28.672   0.319
 4668W        W72886  22.853  26.622   1.122
 4669W        W72887  30.683  21.596  13.653
 4670W        W72888  16.147   4.739   4.294
 4671W        W72889  42.979  28.604  11.503
 4672W        W72890  41.547  23.706   4.260
 4673W        W72891  10.644  36.635  11.290
 4674W        W72892   1.488   8.703  11.230
 4675W        W72893  30.213  28.587  11.033
 4676W        W72894  36.647  40.637   5.063
 4677W        W72895  38.021  31.396  12.964
 4678W        W72896  42.066  37.091   0.858
 4679W        W72897   3.276  25.849   3.507
 4680W        W72898  16.613  15.157   0.104
 4681W        W72899  22.472   9.249   0.467
 4682W        W72900  27.997  26.595   0.917
 4683W        W72901   5.489  26.534   2.865
 4684W        W72902  15.216   2.196  14.737
 4685W        W72903  38.380  36.345  12.189
 4686W        W72904   5.674   6.166  13.920
 4687W        W72905   0.704   5.152   3.963
 4688W        W72906  29.160  17.362   1.360
 4689W        W72907  35.497   3.461   0.751
 4690W        W72908  22.471   9.615   1.319
 4691W        W72909  22.840   0.363  13.086
 4692W        W72910  18.566  18.627   0.298
 4693W        W72911  40.851   2.974  11.213
 4694W        W72912  33.390  44.085   2.709
 4695W        W72913  21.312  10.640   0.277
 4696W        W72914  37.911   6.798   2.709
 4697W        W72915  20.160  21.616  10.710
 4698W        W72916  19.255  35.229   3.208
 4699W        W72917  26.775  17.232  14.006
 4700W        W72918  40.621  25.465   0.347
 4701W        W72919  19.932   9.520  12.736
 4702W        W72920  31.900   0.632   2.658
 4703W        W72921   0.601  10.816   0.787
 4704W        W72922  21.684  27.453  13.474
 4705W        W72923  22.144   8.906   2.452
 4706W        W72924  14.597  40.168   0.110
 4707W        W72925  21.164  36.861   0.329
 4708W        W72926  28.296  18.208  12.061
 4709W        W72927  32.072   6.683   0.214
 4710W        W72928  10.233  35.440  12.005
 4711W        W72929  33.529  12.596  13.688
 4712W        W72930   8.214   8.505  13.505
 4713W        W72931  12.753  35.668  14.021
 4714W        W72932  42.018  10.157  10.654
 4715W        W72933  43.966  43.530  12.719
 4716W        W72934  38.777  12.910  12.350
 4717W        W72935   2.677   2.262  11.029
 4718W        W72936  23.494   9.371  13.345
 4719W        W72937  17.656  38.539   3.213
 4720W        W72938  33.340   2.632   0.273
 4721W        W72939  15.353  26.260  12.922
 4722W        W72940   4.390  13.355   4.191
 4723W        W72941  30.873  40.949  11.310
 4724W        W72942  32.412  32.852  14.633
 4725W        W72943  31.698  19.852   5.186
 4726W        W72944  21.708   6.013   2.423
 4727W        W72945  11.317   8.816  13.571
 4728W        W72946  29.014  27.527  14.220
 4729W        W72947   8.274  44.647  12.152
 4730W        W72948   1.356  19.775   2.268
 4731W        W72949  17.267  11.283  13.347
 4732W        W72950  39.949  33.082   3.665
 4733W        W72951  18.649   7.325  13.550
 4734W        W72952  29.095   7.070  12.441
 4735W        W72953  11.448  27.658  12.881
 4736W        W72954  32.371  19.312  12.880
 4737W        W72955  22.351  42.556  11.516
 4738W        W72956  40.257   7.912  12.988
 4739W        W72957   7.389  39.990  13.636
 4740W        W72958  30.871  23.531   0.370
 4741W        W72959  11.018  40.394   1.648
 4742W        W72960   0.256   0.370  14.606
 4743W        W72961   7.247  20.547  14.383
 4744W        W72962   7.767  40.288  13.845
 4745W        W72963  13.094  22.171  11.127
 4746W        W72964  16.401  37.602  12.953
 4747W        W72965  27.693   5.799  14.911
 4748W        W72966  16.690  40.547   2.878
 4749W        W72967  15.589  29.062   4.020
 4750W        W72968  38.573  41.730  12.996
 4751W        W72969  21.418   5.824   2.865
 4752W        W72970  44.788   7.727   3.673
 4753W        W72971   3.150  11.596  13.501
 4754W        W72972   8.895  12.274  14.430
 4755W        W72973  44.729  22.208  14.931
 4756W        W72974   8.627   8.701   3.202
 4757W        W72975  14.262  38.854  13.783
 4758W        W72976   3.891  36.618   0.320
 4759W        W72977  27.492   8.360  14.844
 4760W        W72978  39.253  30.678   3.361
 4761W        W72979  10.429  28.647  10.288
 4762W        W72980  31.862   9.629  14.795
 4763W        W72981  10.152  18.830   2.551
 4764W        W72982  30.019  30.399  11.670
 4765W        W72983  41.463  42.124   0.403
 4766W        W72984   7.302  43.074   5.025
 4767W        W72985  20.537  33.935  12.718
 4768W        W72986  33.921  39.769   1.337
 4769W        W72987  13.256  32.024   4.957
 4770W        W72988  15.919   3.190   3.217
 4771W        W72989  37.141  13.306  14.118
 4772W        W72990  16.716   7.658  10.610
 4773W        W72991  23.496   7.781   0.216
 4774W        W72992  34.908  11.652   3.617
 4775W        W72993  43.366  15.695  10.282
 4776W        W72994  14.419  12.024  11.523
 4777W        W72995  38.384   5.664   3.344
 4778W        W72996  14.264  43.002   5.381
 4779W        W72997  34.368  38.689  10.665
 4780W        W72998  37.508  36.420   3.275
 4781W        W72999   9.717  25.085   0.732
 4782W        W73000  22.119  24.582  10.614
 4783W        W73001  28.062   9.716  10.566
 4784W        W73002  11.384  27.411  11.268
 4785W        W73003  32.810   2.833  12.491
 4786W        W73004  36.406   7.931  11.532
 4787W        W73005   6.190  22.695  14.041
 4788W        W73006  20.126  12.828   3.675
 4789W        W73007  28.273   6.271   1.676
 4790W        W73008  12.938  18.616  11.653
 4791W        W73009  23.777   9.248  11.585
 4792W        W73010  13.058   9.015   4.993
 4793W        W73011  20.517  27.210   4.391
 4794W        W73012  43.030  33.653   0.771
 4795W        W73013   3.094  20.410   1.880
 4796W        W73014   5.683  40.664   2.678
 4797W        W73015  21.590  38.492   3.822
 4798W        W73016  13.826  12.638   4.265
 4799W        W73017  34.162  25.893  12.973
 4800W        W73018  14.281  29.682  12.520
 4801W        W73019  14.644  24.095   3.660
 4802W        W73020  27.708  35.315  12.539
 4803W        W73021   3.654  27.645  13.502
 4804W        W73022  11.281  42.755   4.503
 4805W        W73023  16.117   8.999   3.223
 4806W        W73024  35.234   6.323  10.994
 4807W        W73025  34.683  30.155  12.593
 4808W        W73026  14.396  28.935  13.817
 4809W        W73027  13.112  12.227  13.945
 4810W        W73028  22.136  33.158   4.440
 4811W        W73029  32.618  39.043   2.960
 4812W        W73030  30.618  27.980   0.375
 4813W        W73031  29.543  25.422   2.170
 4814W        W73032  36.491  20.694  11.128
 4815W        W73033  21.458  31.969   2.821
 4816W        W73034   4.789  40.086   1.963
 4817W        W73035   3.333   9.710  14.215
 4818W        W73036  14.886   2.830   0.837
 4819W        W73037  24.223  37.610  14.370
 4820W        W73038   3.484  39.252  12.521
 4821W        W73039  12.219   4.969  12.004
 4822W        W73040  39.380  26.533  13.112
 4823W        W73041   6.157  33.494  11.173
 4824W        W73042  13.755  39.422   1.512
 4825W        W73043  43.479  24.926  10.608
 4826W        W73044   4.692   3.704  14.919
 4827W        W73045  12.215  25.013   3.797
 4828W        W73046  43.872  44.804   3.088
 4829W        W73047   2.722  40.719   0.269
 4830W        W73048   7.391   8.013  14.435
 4831W        W73049  25.071  34.524   3.757
 4832W        W73050  15.272  38.467   2.809
 4833W        W73051  42.509  37.995   2.828
 4834W        W73052  10.905  26.564   4.553
 4835W        W73053   9.870   4.252  10.374
 4836W        W73054  28.869   2.613  11.923
 4837W        W73055  24.993  23.944   2.763
 4838W        W73056   4.444  19.142   4.192
 4839W        W73057  17.104  13.693  11.042
 4840W        W73058  26.113   0.490   0.659
 4841W        W73059  12.161  39.574  14.393
 4842W        W73060  22.961  12.108  11.577
 4843W        W73061  19.257  28.118  13.355
 4844W        W73062  10.287  13.512  13.061
 4845W        W73063  35.432  26.158   0.276
 4846W        W73064   4.598  40.885   2.693
 4847W        W73065  27.762  29.444   4.345
 4848W        W73066  35.128  38.729  12.800
 4849W        W73067   9.712  24.488  11.560
 4850W        W73068   7.275  35.267   2.938
 4851W        W73069  17.570  35.607  14.287
 4852W        W73070  22.034  16.545   2.787
 4853W        W73071  41.901  14.547   3.565
 4854W        W73072   8.716  39.626   1.328
 4855W        W73073  40.028   5.438  10.478
 4856W        W73074  27.030  42.086  13.439
 4857W        W73075  19.384  22.111   2.402
 4858W        W73076   1.699  28.612  13.552
 4859W        W73077  29.607  23.574  10.176
 4860W        W73078  22.227  22.118   4.051
 4861W        W73079  22.379  36.537   2.503
 4862W        W73080  14.234  27.584  12.860
 4863W        W73081  29.600  42.550  13.121
 4864W        W73082  12.181  42.068   2.221
 4865W        W73083  17.103  12.959  10.373
 4866W        W73084  23.834  19.543   9.708
 4867W        W73085  25.186   0.299  11.649
 4868W        W73086  20.752  30.539   2.450
 4869W        W73087  22.318  11.228  10.737
 4870W        W73088  35.194  10.212   3.650
 4871W        W73089  43.108  13.935   0.376
 4872W        W73090  40.474   7.281   4.534
 4873W        W73091  39.566  19.569   1.488
 4874W        W73092   1.771  13.720  12.765
 4875W        W73093  26.255  15.218   1.768
 4876W        W73094  42.789   0.323  13.326
 4877W        W73095   8.041  29.984  13.301
 4878W        W73096   9.711  27.115   1.159
 4879W        W73097  37.424  15.669  14.418
 4880W        W73098  44.442  19.612   2.794
 4881W        W73099  30.087   2.237  10.933
 4882W        W73100   8.431  17.314  10.343
 4883W        W73101   7.607  18.690   1.278
 4884W        W73102  32.077  19.035   3.207
 4885W        W73103  21.598  18.525  14.434
 4886W        W73104  35.476  34.532  10.438
 4887W        W73105  29.487  22.763   5.018
 4888W        W73106  32.093   1.210  14.896
 4889W        W73107  34.698   5.635  10.363
 4890W        W73108  31.403  22.542   0.413
 4891W        W73109  11.708   9.408  10.420
 4892W        W73110  42.746  40.904   3.761
 4893W        W73111  16.733  36.849   4.606
 4894W        W73112  20.919  34.860  12.048
 4895W        W73113  26.433   8.623   1.988
 4896W        W73114  14.843  31.790   1.335
 4897W        W73115   4.286   3.942   4.860
 4898W        W73116  20.136  34.043  13.071
 4899W        W73117  23.274   9.348  11.557
 4900W        W73118  32.986  14.460   0.277
 4901W        W73119   0.976  22.103  12.884
 4902W        W73120  39.339  14.700  12.590
 4903W        W73121   4.385  13.816   1.747
 4904W        W73122  21.306  32.369   1.395
 4905W        W73123  17.618  44.261   1.646
 4906W        W73124  37.499  12.448   2.283
 4907W        W73125  19.618  37.691   2.948
 4908W        W73126  24.190  10.820  12.938
 4909W        W73127  43.342  19.280  12.597
 4910W        W73128   3.511  10.370   4.775
 4911W        W73129   6.146  34.888  13.919
 4912W        W73130  43.994  34.528   1.571
 4913W        W73131  27.589  38.448  14.808
 4914W        W73132  21.440  15.929  14.425
 4915W        W73133  31.152  38.914   1.411
 4916W        W73134   2.440   8.384  12.523
 4917W        W73135   2.664  14.284   2.313
 4918W        W73136   4.092  42.443   9.829
 4919W        W73137  33.865  29.188   2.431
 4920W        W73138  20.253  44.263   3.169
 4921W        W73139  20.683  28.378  12.885
 4922W        W73140  24.001  10.493   9.913
 4923W        W73141  29.932  20.729   3.874
 4924W        W73142  35.635  12.201  13.806
 4925W        W73143  29.967  43.965   0.454
 4926W        W73144  41.187  25.654   1.939
 4927W        W73145  20.998  29.826   4.171
 4928W        W73146  34.798   8.773   5.013
 4929W        W73147   0.032  11.805   4.575
 4930W        W73148  22.742   5.107  13.783
 4931W        W73149  11.096  11.037   3.286
 4932W        W73150  24.000  28.257   4.576
 4933W        W73151  32.652  40.410   1.307
 4934W        W73152   8.146   9.979  14.267
 4935W        W73153  25.144   8.776  10.420
 4936W        W73154  27.093  43.469  14.282
 4937W        W73155  30.510  16.200  10.918
 4938W        W73156  15.293  15.351  12.411
 4939W        W73157  16.657  20.700   3.422
 4940W        W73158  43.769  35.046   1.786
 4941W        W73159  10.153  20.193  14.189
 4942W        W73160  11.137  32.671  14.321
 4943W        W73161  31.357   2.824   9.872
 4944W        W73162  19.267   7.420  12.047
 4945W        W73163  30.038  43.982   4.450
 4946W        W73164   7.424  34.810   4.207
 4947W        W73165  14.900  39.614   3.720
 4948W        W73166  17.591  43.840   2.770
 4949W        W73167  30.953  38.509   3.589
 4950W        W73168   5.014  27.141  10.135
 4951W        W73169  13.119  36.682  14.474
 4952W        W73170  18.911  33.533   1.375
 4953W        W73171   8.946  22.285  13.524
 4954W        W73172  32.900  42.531   0.387
 4955W        W73173  24.573  30.431   4.105
 4956W        W73174  11.257  18.539   3.153
 4957W        W73175  15.160  37.800   1.390
 4958W        W73176   4.116  42.577   4.124
 4959W        W73177  24.830   0.631   0.390
 4960W        W73178  16.068  41.296  11.534
 4961W        W73179  44.548  29.861   2.901
 4962W        W73180  30.877  32.218  11.864
 4963W        W73181  33.032   7.298  11.954
 4964W        W73182  26.863  20.958  12.941
 4965W        W73183   0.788  22.085   3.558
 4966W        W73184  23.902  34.662  10.591
 4967W        W73185  38.760  43.490  14.548
 4968W        W73186  25.877   1.466  11.825
 4969W        W73187  13.351  15.489   1.763
 4970W        W73188  34.881   6.143   2.902
 4971W        W73189  23.497  24.163   2.825
 4972W        W73190  26.346   8.881  10.296
 4973W        W73191  19.234  18.245   3.662
 4974W        W73192  35.490  30.335  12.845
 4975W        W73193  38.484  35.295   2.266
 4976W        W73194  17.111  10.303   2.295
 4977W        W73195  35.002  24.223  13.034
 4978W        W73196  15.840  33.806  11.953
 4979W        W73197  41.899   5.892   2.828
 4980W        W73198  29.806   5.108   1.856
 4981W        W73199  32.592   1.871   3.858
 4982W        W73200  17.334  39.579  10.657
 4983W        W73201  16.446  27.071  11.670
 4984W        W73202  16.767  29.437   3.728
 4985W        W73203  11.702  19.815   0.408
 4986W        W73204  35.178  15.345   3.698
 4987W        W73205  34.348   7.386   2.814
 4988W        W73206  24.132  41.226  13.951
 4989W        W73207  29.685  11.202   4.487
 4990W        W73208  29.933   1.484   1.278
 4991W        W73209  19.150   8.395   4.747
 4992W        W73210  42.862  39.336   0.458
 4993W        W73211  20.664  31.894   1.904
 4994W        W73212  42.989  11.537   1.167
 4995W        W73213  18.092   8.689   2.759
 4996W        W73214   3.249  16.496  12.025
 4997W        W73215  10.656   5.387   4.069
 4998W        W73216  18.184  44.893   4.360
 4999W        W73217  40.094  35.434  14.400
 5000W        W73218  33.985  11.208   3.611
 5001W        W73219  10.856  16.965   0.139
 5002W        W73220  43.693   0.779   0.974
 5003W        W73221   3.803  10.840  14.840
 5004W        W73222   7.858  10.081  11.539
 5005W        W73223  35.281  20.279   3.081
 5006W        W73224  20.198  12.199   0.398
 5007W        W73225  23.558  20.377  11.478
 5008W        W73226  31.919  34.642  13.343
 5009W        W73227  16.541  21.806  12.196
 5010W        W73228  19.259   2.959   2.302
 5011W        W73229  33.654  18.328  12.079
 5012W        W73230  30.161  32.754  12.661
 5013W        W73231  12.166   5.695   4.888
 5014W        W73232  28.111  10.847  12.367
 5015W        W73233  20.667  11.854  12.885
 5016W        W73234  18.573  16.069   9.707
 5017W        W73235  16.148  32.152   1.223
 5018W        W73236  40.526  30.599   3.715
 5019W        W73237   9.748  24.030   4.815
 5020W        W73238   5.543  37.196   0.222
 5021W        W73239  32.997  37.076   3.578
 5022W        W73240   8.088  17.098  11.273
 5023W        W73241   4.364   9.788   3.025
 5024W        W73242  11.908  42.483   3.932
 5025W        W73243  40.015   4.453  11.500
 5026W        W73244  18.361   1.848  14.371
 5027W        W73245   0.832  22.775   0.843
 5028W        W73246  28.132  27.744   5.081
 5029W        W73247  23.944  26.095   1.917
 5030W        W73248   9.753   7.138   2.729
 5031W        W73249  27.970  21.568   3.084
 5032W        W73250  12.407  10.623   0.389
 5033W        W73251  12.898  19.599  11.730
 5034W        W73252  15.298   2.327  12.786
 5035W        W73253  26.829  37.812  12.461
 5036W        W73254  21.153  31.337  14.033
 5037W        W73255  24.942  35.392  12.161
 5038W        W73256   9.963   3.480   2.249
 5039W        W73257  24.583   6.645   0.452
 5040W        W73258  38.100  29.226  13.449
 5041W        W73259  29.661   0.316   3.817
 5042W        W73260  34.454  32.221  13.286
 5043W        W73261  15.599  29.063  12.983
 5044W        W73262  27.758  39.782  11.075
 5045W        W73263  36.782  24.915   0.676
 5046W        W73264   4.799  44.209   3.645
 5047W        W73265  12.893  40.711   2.161
 5048W        W73266  13.585   1.578  13.627
 5049W        W73267  30.941  18.263  13.422
 5050W        W73268  28.843  37.245   2.805
 5051W        W73269  21.044   7.990  10.577
 5052W        W73270  28.493   6.748   4.358
 5053W        W73271  36.033  26.965   3.649
 5054W        W73272  26.569  15.877   2.949
 5055W        W73273   0.014  14.582   1.788
 5056W        W73274  24.160  18.790  12.628
 5057W        W73275  23.007  16.281   1.383
 5058W        W73276   3.050  17.565  11.654
 5059W        W73277  31.028  36.694  12.079
 5060W        W73278   8.804  38.560   3.346
 5061W        W73279  35.871  39.883   0.291
 5062W        W73280  38.054  11.823   4.039
 5063W        W73281  39.905  21.729  12.422
 5064W        W73282  15.747  20.325   2.301
 5065W        W73283  39.105  27.641  14.809
 5066W        W73284  32.616  32.708  12.428
 5067W        W73285  21.999  32.544   2.262
 5068W        W73286  40.903  15.644  12.918
 5069W        W73287  21.746   4.877   3.837
 5070W        W73288  23.730  31.516   0.313
 5071W        W73289  33.338  34.573  11.625
 5072W        W73290   9.437  37.328   1.879
 5073W        W73291  11.612  33.658   2.276
 5074W        W73292  20.112  19.648   4.091
 5075W        W73293  10.817  24.135   3.178
 5076W        W73294  20.050  24.787   0.736
 5077W        W73295   5.467   5.639   1.522
 5078W        W73296  29.573  30.859  10.693
 5079W        W73297  13.609  23.088  13.806
 5080W        W73298  39.272   9.344   0.881
 5081W        W73299  14.571  16.235   0.326
 5082W        W73300  23.585  15.878   1.968
 5083W        W73301  36.575  31.934  13.498
 5084W        W73302  10.815  21.190   1.941
 5085W        W73303  40.638  32.187  10.302
 5086W        W73304  31.856  29.585  10.861
 5087W        W73305  27.706  13.587   0.790
 5088W        W73306  22.064   1.976  12.820
 5089W        W73307  29.207  36.332   2.616
 5090W        W73308  22.776   9.719  13.041
 5091W        W73309  27.809   6.450  13.260
 5092W        W73310   6.869  17.477   2.210
 5093W        W73311  29.583  22.733   2.595
 5094W        W73312   8.744  10.054  10.764
 5095W        W73313  27.552   7.184   4.600
 5096W        W73314   2.469  42.197   3.667
 5097W        W73315  40.850   9.966  13.592
 5098W        W73316  31.216   5.431   5.213
 5099W        W73317   4.755  35.964  14.016
 5100W        W73318  18.465  34.481  11.384
 5101W        W73319  44.854  38.610  12.911
 5102W        W73320  34.588  14.913  14.447
 5103W        W73321   6.291  18.046  11.988
 5104W        W73322  10.568  27.916   3.663
 5105W        W73323  16.024  17.653   0.411
 5106W        W73324  22.283  32.855  11.270
 5107W        W73325  33.228   8.255  12.422
 5108W        W73326  44.736   9.178  14.377
 5109W        W73327  40.719  23.625   3.757
 5110W        W73328  37.816  27.439  12.457
 5111W        W73329  15.316   0.882   5.063
 5112W        W73330  34.572   1.750   4.171
 5113W        W73331  33.651  10.119   1.744
 5114W        W73332   8.871  44.882  13.881
 5115W        W73333  37.553  24.699  12.010
 5116W        W73334   7.164  27.044   1.365
 5117W        W73335   3.322  35.916   1.723
 5118W        W73336   9.781  30.455   0.918
 5119W        W73337  27.474  37.138  10.685
 5120W        W73338  14.070  20.539   4.176
 5121W        W73339   2.336  24.229   2.371
 5122W        W73340  40.502  10.334   0.741
 5123W        W73341  16.441   6.986  13.444
 5124W        W73342   5.398   0.701  11.031
 5125W        W73343  15.566  43.538  12.964
 5126W        W73344   5.801  11.327   1.972
 5127W        W73345   1.964  44.779  11.717
 5128W        W73346  38.947  26.190  12.061
 5129W        W73347  23.307  34.370   3.284
 5130W        W73348  12.348  24.438  12.508
 5131W        W73349  13.283  10.936  13.765
 5132W        W73350  16.572  21.665  12.716
 5133W        W73351  37.073  37.343   1.930
 5134W        W73352  40.861   3.312  14.883
 5135W        W73353  19.618   9.079   4.967
 5136W        W73354   2.903  16.656  14.103
 5137W        W73355  20.950  37.813  11.021
 5138W        W73356  13.598  28.642   4.887
 5139W        W73357   9.779   5.229   0.389
 5140W        W73358  43.261   5.214   4.424
 5141W        W73359  44.375  18.503  12.107
 5142W        W73360  27.537   5.881  10.754
 5143W        W73361  22.237  31.935   3.419
 5144W        W73362   2.802  25.734   3.774
 5145W        W73363  33.664  42.461  11.178
 5146W        W73364  21.653  42.832   0.991
 5147W        W73365   3.415   4.179   0.506
 5148W        W73366  40.371  36.581   0.850
 5149W        W73367  14.507  28.179   4.216
 5150W        W73368  21.603   0.524   2.934
 5151W        W73369  29.497  24.224   3.671
 5152W        W73370  36.859   3.781  12.479
 5153W        W73371   4.433   7.561  13.415
 5154W        W73372  18.624  22.541  10.797
 5155W        W73373   8.945  20.785   3.303
 5156W        W73374  30.305  14.176   2.407
 5157W        W73375  40.009  39.291  11.437
 5158W        W73376  27.994  35.923   0.441
 5159W        W73377  18.464  13.600   2.337
 5160W        W73378  23.758  43.598  11.948
 5161W        W73379  11.589  20.248   4.118
 5162W        W73380  36.118  15.167  14.910
 5163W        W73381  29.112  21.592   4.909
 5164W        W73382  23.036  10.443  11.101
 5165W        W73383  12.043   1.396  13.510
 5166W        W73384  11.096  27.440   2.609
 5167W        W73385  39.348  34.408  11.381
 5168W        W73386  19.329  40.045   2.769
 5169W        W73387  12.335  15.268   4.215
 5170W        W73388  41.613   7.159  13.649
 5171W        W73389  24.695  24.287   0.207
 5172W        W73390  37.017  42.418   4.162
 5173W        W73391  35.611  12.561  13.000
 5174W        W73392   6.638  15.648  14.785
 5175W        W73393  30.900  11.828   4.162
 5176W        W73394  13.292  38.996   3.846
 5177W        W73395  42.878  26.909  13.411
 5178W        W73396   5.997  42.446   2.795
 5179W        W73397  37.987  42.237  14.504
 5180W        W73398   6.650  24.026   2.736
 5181W        W73399  40.344  19.740   4.549
 5182W        W73400  27.010  17.546  12.879
 5183W        W73401  27.160   5.749  12.223
 5184W        W73402  11.160  33.043   4.496
 5185W        W73403  10.100   1.748   2.323
 5186W        W73404  15.076  32.583  13.822
 5187W        W73405  14.305   8.903  12.527
 5188W        W73406  33.148  39.951  14.381
 5189W        W73407   1.462  31.032   3.844
 5190W        W73408   3.908   9.311  11.430
 5191W        W73409   5.172  33.739  12.269
 5192W        W73410  25.221  29.155   0.475
 5193W        W73411   6.826  42.808  11.943
 5194W        W73412   5.001  30.073   4.173
 5195W        W73413   3.168  36.694   3.763
 5196W        W73414   8.761   1.319   3.164
 5197W        W73415   2.112   1.514   1.817
 5198W        W73416  37.147  22.251  14.755
 5199W        W73417   4.107  17.076  13.996
 5200W        W73418  26.427  22.186   2.800
 5201W        W73419   9.660  34.578   4.201
 5202W        W73420  21.069  24.793   2.977
 5203W        W73421  38.052  37.811  12.079
 5204W        W73422  21.293  37.335   2.205
 5205W        W73423  18.558  17.282  11.226
 5206W        W73424   5.293  19.413   2.770
 5207W        W73425  10.698  14.845  10.908
 5208W        W73426  24.676  19.672   1.908
 5209W        W73427  19.646  36.881   3.719
 5210W        W73428  33.087  12.893  13.805
 5211W        W73429  43.454  34.430  11.954
 5212W        W73430   3.954   5.692  12.458
 5213W        W73431  27.514  42.607   4.663
 5214W        W73432  28.521  30.129   4.548
 5215W        W73433  12.685  20.679   0.793
 5216W        W73434  40.449  23.550   1.276
 5217W        W73435  27.080  37.615   2.910
 5218W        W73436   8.965   9.355  11.977
 5219W        W73437  14.066   9.231  10.777
 5220W        W73438  23.153  23.573  10.895
 5221W        W73439   1.420   8.366  14.353
 5222W        W73440  16.630  21.940   2.519
 5223W        W73441  36.035   8.394   2.291
 5224W        W73442  16.763  26.154  12.857
 5225W        W73443  27.020  27.633  14.292
 5226W        W73444  39.032   8.356   2.256
 5227W        W73445  30.935  25.561  13.752
 5228W        W73446  26.070  41.133   2.624
 5229W        W73447  35.452   4.223  14.859
 5230W        W73448   1.273  43.914   0.786
 5231W        W73449  21.539  41.984   3.920
 5232W        W73450  12.391  34.058  13.418
 5233W        W73451  14.123  37.531   3.129
 5234W        W73452  10.890   0.485   4.025
 5235W        W73453  36.956  19.173  12.106
 5236W        W73454  25.593  13.925   1.223
 5237W        W73455  12.821   3.874   3.904
 5238W        W73456  11.261  38.377   0.201
 5239W        W73457   1.004  18.097  14.900
 5240W        W73458   4.098  34.342   1.381
 5241W        W73459  40.936  38.545  12.028
 5242W        W73460   9.809   0.756   2.863
 5243W        W73461  17.586  11.705  13.470
 5244W        W73462  18.758  27.963  10.714
 5245W        W73463  29.135  35.264  12.418
 5246W        W73464  30.359  38.035  11.485
 5247W        W73465   3.808   6.848   2.319
 5248W        W73466   9.445   3.991   3.030
 5249W        W73467  12.694  23.542   0.393
 5250W        W73468  33.597   0.662  13.117
 5251W        W73469   5.780  19.375  10.787
 5252W        W73470   1.513  30.073   4.182
 5253W        W73471  42.838  16.402  12.862
 5254W        W73472  33.558  23.340  12.186
 5255W        W73473  30.401  19.024   2.681
 5256W        W73474  29.416  29.557   2.643
 5257W        W73475  41.764  34.073  13.327
 5258W        W73476  41.914  31.176   4.822
 5259W        W73477  31.445  30.935   2.340
 5260W        W73478  26.573  25.189   5.488
 5261W        W73479   8.867  44.714   0.301
 5262W        W73480  44.507  33.978   3.781
 5263W        W73481  41.433  29.360   3.393
 5264W        W73482   6.785  44.854   0.875
 5265W        W73483   8.477  27.791  12.211
 5266W        W73484  19.113  34.527  13.755
 5267W        W73485  38.585   8.809   0.405
 5268W        W73486  16.674  41.329  12.650
 5269W        W73487   2.647   6.299  12.139
 5270W        W73488   8.298   6.991   2.768
 5271W        W73489   6.760  33.871  13.874
 5272W        W73490  32.705  20.739  13.038
 5273W        W73491  13.671  36.519  14.072
 5274W        W73492   9.187  28.164  11.039
 5275W        W73493  11.790   5.093  14.930
 5276W        W73494  25.316  41.386  13.359
 5277W        W73495  24.608   0.471   4.617
 5278W        W73496  35.556  35.144  13.952
 5279W        W73497   7.845  44.544   2.430
 5280W        W73498  22.730  19.628  10.958
 5281W        W73499  44.213   2.341   4.628
 5282W        W73500   5.698   7.569   0.526
 5283W        W73501  37.816  28.058  14.939
 5284W        W73502  42.751   9.444   3.099
 5285W        W73503  11.383  41.932  14.000
 5286W        W73504   1.732  39.462  14.598
 5287W        W73505  10.747  44.460   2.201
 5288W        W73506  27.038  26.470   2.240
 5289W        W73507  39.980  33.421  13.274
 5290W        W73508  21.699  41.729   1.814
 5291W        W73509   5.697  28.117  14.357
 5292W        W73510   9.638  17.403  13.070
 5293W        W73511  12.893  34.576  12.404
 5294W        W73512  19.211  33.089   3.607
 5295W        W73513  33.159  23.564   4.570
 5296W        W73514  38.376   3.039   4.573
 5297W        W73515  29.052   3.019   5.059
 5298W        W73516  20.853  19.843  10.431
 5299W        W73517  38.891  29.134   2.709
 5300W        W73518  15.109  15.241   3.673
 5301W        W73519  40.069  19.477  11.537
 5302W        W73520  42.019  12.041   2.690
 5303W        W73521   8.158   1.004   0.214
 5304W        W73522   5.386   6.700   2.765
 5305W        W73523  13.848  12.079  13.496
 5306W        W73524  41.536  41.357   2.766
 5307W        W73525  37.300  11.277   3.695
 5308W        W73526  41.001   6.723   0.860
 5309W        W73527   0.688  23.092   3.730
 5310W        W73528  23.446  23.576   0.399
 5311W        W73529  36.637   2.386  13.428
 5312W        W73530  13.204  11.747  12.019
 5313W        W73531  40.430  15.169   4.636
 5314W        W73532  29.502  24.728   3.609
 5315W        W73533  20.405  27.641  11.545
 5316W        W73534  30.879  42.919  14.363
 5317W        W73535  19.866  23.683  12.009
 5318W        W73536  30.732  24.743  12.109
 5319W        W73537  18.636  37.535  14.535
 5320W        W73538  26.713   5.084   1.915
 5321W        W73539   2.414  44.519  14.351
 5322W        W73540  13.407   2.940   0.718
 5323W        W73541  31.089  43.835   4.467
 5324W        W73542  24.090  31.901  12.311
 5325W        W73543   6.152  31.960   2.283
 5326W        W73544  27.944   2.193   0.781
 5327W        W73545  14.338  22.586  10.796
 5328W        W73546  26.974   2.986  12.048
 5329W        W73547  20.442  11.900   1.259
 5330W        W73548  14.804  25.753   1.720
 5331W        W73549  28.649  20.643  11.179
 5332W        W73550   1.707  10.380   2.921
 5333W        W73551  17.407  29.903  11.984
 5334W        W73552  11.575  32.993  14.377
 5335W        W73553  29.634  15.739   0.036
 5336W        W73554  33.933   6.703  11.153
 5337W        W73555  20.538   0.490   0.004
 5338W        W73556  16.217  21.730   1.330
 5339W        W73557  21.018  32.464   2.263
 5340W        W73558  14.534  15.032  13.816
 5341W        W73559  19.064  19.860   0.394
 5342W        W73560   2.001  21.042  11.959
 5343W        W73561  40.328  29.106   2.650
 5344W        W73562  15.670  32.944   4.406
 5345W        W73563  41.076   7.288  13.614
 5346W        W73564  19.298  41.945   3.184
 5347W        W73565  15.734  25.552   4.979
 5348W        W73566  43.555  10.199   1.869
 5349W        W73567  13.304  27.865   3.215
 5350W        W73568  44.887  22.565   3.328
 5351W        W73569   0.435  21.224  13.365
 5352W        W73570   4.243  19.075  12.043
 5353W        W73571  26.660  10.554  13.141
 5354W        W73572  37.074  10.896   3.970
 5355W        W73573   3.167  12.806   1.321
 5356W        W73574  18.749  31.941   3.603
 5357W        W73575   5.927  27.714   3.347
 5358W        W73576  13.102  31.475  13.809
 5359W        W73577  11.132  11.940  14.005
 5360W        W73578  38.576  26.145   0.611
 5361W        W73579  37.585  24.943  13.546
 5362W        W73580  28.590  16.921   4.064
 5363W        W73581  23.212  13.414   1.276
 5364W        W73582   7.273   8.390   2.630
 5365W        W73583  37.833  21.798  13.006
 5366W        W73584   7.397   9.730   1.185
 5367W        W73585  39.146   4.410  12.631
 5368W        W73586  28.714  30.024   2.295
 5369W        W73587  21.103  15.625   2.308
 5370W        W73588   1.023  10.693  13.304
 5371W        W73589  17.301  13.772   1.415
 5372W        W73590  27.216   4.018   4.130
 5373W        W73591   1.800  31.396   2.337
 5374W        W73592  14.497  12.283   1.451
 5375W        W73593  38.137  11.301  11.985
 5376W        W73594  35.898  41.091  12.972
 5377W        W73595   2.896  40.371   2.629
 5378W        W73596   7.836   3.863   1.230
 5379W        W73597  19.627  31.671   3.939
 5380W        W73598  12.124  25.153   0.910
 5381W        W73599   2.942  30.176  12.195
 5382W        W73600   0.905   8.994  14.903
 5383W        W73601  37.145  25.723  11.957
 5384W        W73602  40.378  30.905   4.091
 5385W        W73603  33.416  24.719  11.090
 5386W        W73604   7.904  20.464   4.214
 5387W        W73605   8.648  14.611  14.393
 5388W        W73606  44.689  44.497   0.935
 5389W        W73607  25.690  23.088  11.629
 5390W        W73608  17.214  10.899  10.683
 5391W        W73609   0.432  29.153   2.177
 5392W        W73610  21.403  19.007  14.366
 5393W        W73611  36.131  13.147   0.673
 5394W        W73612   0.256  12.865  11.549
 5395W        W73613  29.350  34.713   2.743
 5396W        W73614  21.426   9.166   0.861
 5397W        W73615  38.798  20.241   2.195
 5398W        W73616  22.679  10.310  13.589
 5399W        W73617  14.375   4.383  11.909
 5400W        W73618  32.351  36.865  13.828
 5401W        W73619  13.830  42.427  10.269
 5402W        W73620  25.015   7.921   3.774
 5403W        W73621   7.114  42.890   3.159
 5404W        W73622  34.028  20.052   2.696
 5405W        W73623  43.306  15.442   0.457
 5406W        W73624   0.704  18.099  11.787
 5407W        W73625  23.921  41.786   2.641
 5408W        W73626  27.129   1.900  14.977
 5409W        W73627   0.799   6.130   0.872
 5410W        W73628  41.821  13.740   4.233
 5411W        W73629  17.148  44.688  11.057
 5412W        W73630  27.373  33.860   3.194
 5413W        W73631   9.532   8.881  10.409
 5414W        W73632  11.038  34.814   1.679
 5415W        W73633  39.084  17.022   4.173
 5416W        W73634  40.357  21.304  13.916
 5417W        W73635  15.485  22.085   4.383
 5418W        W73636  24.675  40.943   3.714
 5419W        W73637  18.271   5.152  13.615
 5420W        W73638  26.621   6.023  14.556
 5421W        W73639  33.159  22.831   0.998
 5422W        W73640  43.582  15.682  12.401
 5423W        W73641  27.088  19.257   1.901
 5424W        W73642  42.792   3.390  10.758
 5425W        W73643  33.463  17.029  13.992
 5426W        W73644  44.398  15.574   1.902
 5427W        W73645  13.433   9.832   2.934
 5428W        W73646  40.004   8.650  10.714
 5429W        W73647  32.068  29.155   4.702
 5430W        W73648  24.811  11.219   3.302
 5431W        W73649  28.618  18.150   2.638
 5432W        W73650  42.363  39.945   0.050
 5433W        W73651  20.219  43.718  12.538
 5434W        W73652  33.962  35.663   0.120
 5435W        W73653   1.262  16.165  14.346
 5436W        W73654  43.523  11.255  12.166
 5437W        W73655  32.944  20.214   3.794
 5438W        W73656  22.701  31.472   0.518
 5439W        W73657   3.019   2.022  11.992
 5440W        W73658  35.006   4.278  11.567
 5441W        W73659  11.101   4.816  14.146
 5442W        W73660  25.194  38.360   3.240
 5443W        W73661  22.730  20.566   1.796
 5444W        W73662   3.385  17.464   1.844
 5445W        W73663  26.566  31.434  13.455
 5446W        W73664  29.027  17.989  12.708
 5447W        W73665  36.406  29.881   4.206
 5448W        W73666  31.491  30.192  13.757
 5449W        W73667  12.251  43.894   2.183
 5450W        W73668   1.949  28.402  11.164
 5451W        W73669  35.135  35.936  10.256
 5452W        W73670   0.169   4.025  12.197
 5453W        W73671  36.388  39.971  11.264
 5454W        W73672  41.069  42.036  13.928
 5455W        W73673  38.976  27.062   2.573
 5456W        W73674   2.050  29.636   4.521
 5457W        W73675  30.457  39.403   0.027
 5458W        W73676  41.013   3.124   4.952
 5459W        W73677   8.361  31.350  10.581
 5460W        W73678  41.173   5.923  11.418
 5461W        W73679  27.243  18.196   0.881
 5462W        W73680   2.199   7.978  11.131
 5463W        W73681   3.885   1.299  14.010
 5464W        W73682   4.887  26.207   3.284
 5465W        W73683  12.939   9.064  13.471
 5466W        W73684  21.070   0.418   4.034
 5467W        W73685  12.604  40.742   0.766
 5468W        W73686  22.055  43.505   3.257
 5469W        W73687  24.071  30.940   3.682
 5470W        W73688  42.678  11.182   2.608
 5471W        W73689  28.921   9.679  14.839
 5472W        W73690   8.964  29.523   0.221
 5473W        W73691  32.846  22.630   2.888
 5474W        W73692  11.288  12.426   3.863
 5475W        W73693  12.873  22.493  11.539
 5476W        W73694  34.746  20.258  12.930
 5477W        W73695  24.242  13.174   1.196
 5478W        W73696   3.556  41.710   0.822
 5479W        W73697  37.438  10.682   4.645
 5480W        W73698  39.863  37.937  10.651
 5481W        W73699   2.390  39.688   4.064
 5482W        W73700   1.420  21.579   2.765
 5483W        W73701  39.235  12.569  14.107
 5484W        W73702  41.186  25.206  12.756
 5485W        W73703  28.511   2.802   1.904
 5486W        W73704  39.073  40.311  12.450
 5487W        W73705   5.999  43.301   0.693
 5488W        W73706  15.194  32.666  14.663
 5489W        W73707  32.518  13.204  14.884
 5490W        W73708  38.258   0.380  14.440
 5491W        W73709  30.197  41.890   3.846
 5492W        W73710   0.369   2.488  10.804
 5493W        W73711  41.891  29.556   1.396
 5494W        W73712  31.152  41.839   0.397
 5495W        W73713  28.692  20.770   2.267
 5496W        W73714  39.007  41.358   5.216
 5497W        W73715   5.410  33.545   1.790
 5498W        W73716  28.221  36.176  10.171
 5499W        W73717  25.995  15.490  12.565
 5500W        W73718  15.132  22.118  10.797
 5501W        W73719  34.415  12.932   3.598
 5502W        W73720  11.401  44.704  13.787
 5503W        W73721  14.044  25.150   4.190
 5504W        W73722  17.257  18.102  10.546
 5505W        W73723  31.520  40.000  13.882
 5506W        W73724   2.426  11.292  12.103
 5507W        W73725  36.481  13.904  13.477
 5508W        W73726  34.008  38.483   0.686
 5509W        W73727  22.078   8.430   2.187
 5510W        W73728  25.940  38.305  11.005
 5511W        W73729   6.799  41.358  11.623
 5512W        W73730  11.345  18.322   2.647
 5513W        W73731   4.746  41.536  12.606
 5514W        W73732  38.154  37.508   1.967
 5515W        W73733   4.745  17.084   4.595
 5516W        W73734   8.439  23.044  13.693
 5517W        W73735   4.770   3.242   4.710
 5518W        W73736  35.991  35.781   3.605
 5519W        W73737  38.773  10.452   2.327
 5520W        W73738  32.890  19.565  14.812
 5521W        W73739   2.798   1.680   3.231
 5522W        W73740  24.268  30.107  13.893
 5523W        W73741  33.092  17.366  11.130
 5524W        W73742   0.920  43.901  11.968
 5525W        W73743  19.732   9.105  14.007
 5526W        W73744  32.012   3.940   3.648
 5527W        W73745   9.390   4.714  11.626
 5528W        W73746  16.035  17.168   0.653
 5529W        W73747  19.503  35.857  11.123
 5530W        W73748  40.267  22.456   4.200
 5531W        W73749  29.582  12.613   2.237
 5532W        W73750  18.690   6.160  14.342
 5533W        W73751  19.077   9.424   4.537
 5534W        W73752   9.797  34.078  10.588
 5535W        W73753  27.589  13.558  14.453
 5536W        W73754   4.110  42.345   1.826
 5537W        W73755  29.212  40.454   2.309
 5538W        W73756   9.450  35.062  12.007
 5539W        W73757  44.577  36.474  14.369
 5540W        W73758  16.295  43.445   1.670
 5541W        W73759  19.828  27.032  14.863
 5542W        W73760  17.841  33.430  11.825
 5543W        W73761  23.216  19.816   3.616
 5544W        W73762  44.233  24.766  13.842
 5545W        W73763   8.411  16.781  10.321
 5546W        W73764  41.088  29.420   2.217
 5547W        W73765  12.695  11.880  10.999
 5548W        W73766  28.990  44.838  13.087
 5549W        W73767   3.433  11.647  13.068
 5550W        W73768  11.843  22.952   2.169
 5551W        W73769   2.295  34.468  12.601
 5552W        W73770  25.541  44.522   3.750
 5553W        W73771   8.912  34.436   3.357
 5554W        W73772  36.694  13.173   1.279
 5555W        W73773   7.646  26.093   2.143
 5556W        W73774  23.232  44.518   0.310
 5557W        W73775  36.047   9.337   1.346
 5558W        W73776   8.119  28.957  12.395
 5559W        W73777  15.564  14.912  10.756
 5560W        W73778   2.531   3.313   0.774
 5561W        W73779  23.278  44.857   4.127
 5562W        W73780  13.622  10.464   2.264
 5563W        W73781  37.858  18.222  14.729
 5564W        W73782  36.905   4.764   3.167
 5565W        W73783  39.106  30.584  12.936
 5566W        W73784  18.026   4.196   0.244
 5567W        W73785  16.260  22.254   1.241
 5568W        W73786  16.724  24.889   4.235
 5569W        W73787   7.856  11.272  14.524
 5570W        W73788  29.726  26.484  14.174
 5571W        W73789   9.476  15.396  12.982
 5572W        W73790  44.289   4.339   3.572
 5573W        W73791  11.210  37.088  10.614
 5574W        W73792  11.825  40.608   3.769
 5575W        W73793  13.357  41.449   0.731
 5576W        W73794  43.165  25.191  14.950
 5577W        W73795  18.073  26.488   2.330
 5578W        W73796  11.351  26.183  13.565
 5579W        W73797  27.497  35.349  11.097
 5580W        W73798   8.257  40.754   0.555
 5581W        W73799  38.716   7.129   2.762
 5582W        W73800  18.284  38.476   2.748
 5583W        W73801   1.174  13.184   1.904
 5584W        W73802  24.078   5.786  11.965
 5585W        W73803  29.030  27.417   0.446
 5586W        W73804  11.685  30.940  12.815
 5587W        W73805  22.127  16.248   4.110
 5588W        W73806   2.807  38.415   0.417
 5589W        W73807   4.342  18.832   1.409
 5590W        W73808  40.405  14.579   1.412
 5591W        W73809  28.800   0.900   3.076
 5592W        W73810  20.693   8.735  14.268
 5593W        W73811  42.501  31.531   4.306
 5594W        W73812  29.983  37.805  11.167
 5595W        W73813   0.653  30.378   4.390
 5596W        W73814   4.015  15.393  12.469
 5597W        W73815  27.663   2.721  11.548
 5598W        W73816  40.224  22.987   0.440
 5599W        W73817  30.160  11.961   0.308
 5600W        W73818  28.340  25.940  12.079
 5601W        W73819  43.320  37.476   0.035
 5602W        W73820  17.447  25.110  12.983
 5603W        W73821  30.682  27.020  12.496
 5604W        W73822  37.711  29.001   4.627
 5605W        W73823  13.837  21.679  10.966
 5606W        W73824  14.151  43.375  13.023
 5607W        W73825  23.570  39.386  12.686
 5608W        W73826  34.497   0.351  11.859
 5609W        W73827  21.577  17.025   4.239
 5610W        W73828  13.022   7.859  14.480
 5611W        W73829  17.218  10.105   1.216
 5612W        W73830  31.941  21.742  11.503
 5613W        W73831   7.935   1.497  14.950
 5614W        W73832  15.009  33.614   1.360
 5615W        W73833   3.961  30.586   9.889
 5616W        W73834  29.098  36.817  14.471
 5617W        W73835  32.042  38.067  12.031
 5618W        W73836   3.189   1.021  11.037
 5619W        W73837   4.340   9.152   1.699
 5620W        W73838   1.314  13.460   5.109
 5621W        W73839  30.721  38.074   1.754
 5622W        W73840  36.414   6.788   4.201
 5623W        W73841  10.311  43.069  11.490
 5624W        W73842  19.042  24.045  13.955
 5625W        W73843  41.308  22.462   2.676
 5626W        W73844  17.270  18.249   0.575
 5627W        W73845  43.848   1.834  14.119
 5628W        W73846  13.044  19.438  12.243
 5629W        W73847  31.530  35.346  14.905
 5630W        W73848  25.178   9.220   3.335
 5631W        W73849  16.549  28.104  13.837
 5632W        W73850  35.854  16.753  11.024
 5633W        W73851  21.102  31.876   1.476
 5634W        W73852  27.948   3.336  12.454
 5635W        W73853   2.296  20.523  14.060
 5636W        W73854   8.753  24.103   0.992
 5637W        W73855   3.025  42.034  11.246
 5638W        W73856  24.127  28.966  14.369
 5639W        W73857  24.796  24.672  11.623
 5640W        W73858  31.501   3.958  11.698
 5641W        W73859  17.991  40.191   4.779
 5642W        W73860  24.120  44.704   0.745
 5643W        W73861  27.963  17.925   1.291
 5644W        W73862  15.603  18.828  12.314
 5645W        W73863  41.349   3.696   3.638
 5646W        W73864  18.975  26.725  12.586
 5647W        W73865  25.179  39.511  12.710
 5648W        W73866  38.554  13.126   2.928
 5649W        W73867  21.595   1.692   0.872
 5650W        W73868  21.601  24.470   0.210
 5651W        W73869  44.551  30.610   2.295
 5652W        W73870  35.585   1.178  14.023
 5653W        W73871  11.645   6.166  12.474
 5654W        W73872  42.878  37.636  14.798
 5655W        W73873  37.689   3.868   4.131
 5656W        W73874  13.625   6.646   0.018
 5657W        W73875  41.269   6.601  12.054
 5658W        W73876  29.992   7.597   4.888
 5659W        W73877  10.660  39.402  10.511
 5660W        W73878  40.055  31.110  11.913
 5661W        W73879  12.187  12.771  10.496
 5662W        W73880  30.461  15.666   2.826
 5663W        W73881  42.189  24.406  11.048
 5664W        W73882  36.297  29.614   0.831
 5665W        W73883  14.778   3.849   4.775
 5666W        W73884  33.144  39.584   0.281
 5667W        W73885   1.016  35.074   2.273
 5668W        W73886   6.552  22.980  10.625
 5669W        W73887   7.325  37.830  12.505
 5670W        W73888  12.181   9.728  11.405
 5671W        W73889  42.892  41.257  10.648
 5672W        W73890   1.645   8.273   3.079
 5673W        W73891  40.793  44.310   2.864
 5674W        W73892  35.032  19.290  12.165
 5675W        W73893   9.325   8.396   4.485
 5676W        W73894  27.395  14.878  11.533
 5677W        W73895  23.123  15.063  14.672
 5678W        W73896   7.956  23.665   2.837
 5679W        W73897  26.714  44.242  12.475
 5680W        W73898  34.613   8.678  12.625
 5681W        W73899   5.860  29.272  12.396
 5682W        W73900  33.067   8.716   2.661
 5683W        W73901  26.401  32.039   4.122
 5684W        W73902   9.150  19.014  11.921
 5685W        W73903  12.129  10.627   4.895
 5686W        W73904  16.748   0.732  12.378
 5687W        W73905   0.317  11.947  11.589
 5688W        W73906  20.155  15.601   4.614
 5689W        W73907   5.736  15.023   2.470
 5690W        W73908  13.020  13.303   0.374
 5691W        W73909  36.995  26.075  12.992
 5692W        W73910  11.323  41.808  13.082
 5693W        W73911  40.404  18.029   4.087
 5694W        W73912  14.074  17.292   3.163
 5695W        W73913   8.592  24.419  11.860
 5696W        W73914  44.039   6.262  14.045
 5697W        W73915  26.502   1.335  13.447
 5698W        W73916  25.084  14.885   2.972
 5699W        W73917   4.760   4.965  13.862
 5700W        W73918  28.137  31.754   3.642
 5701W        W73919  37.539  14.596   4.826
 5702W        W73920  35.574   7.141   1.814
 5703W        W73921  25.074  35.314  12.910
 5704W        W73922  29.613  11.863   0.447
 5705W        W73923  10.794   2.865  10.623
 5706W        W73924  10.969  31.191  11.567
 5707W        W73925  36.401  29.191  12.940
 5708W        W73926  28.336  37.010  11.186
 5709W        W73927  34.926   6.250   2.399
 5710W        W73928  39.167  11.727  14.755
 5711W        W73929  27.739  21.732   1.480
 5712W        W73930  30.528  23.358  12.504
 5713W        W73931  22.794  14.512  14.406
 5714W        W73932  35.932  40.100   3.676
 5715W        W73933  11.815  34.778  13.012
 5716W        W73934   3.793  23.612   4.135
 5717W        W73935  31.901  40.448  14.582
 5718W        W73936   6.132  20.439  11.845
 5719W        W73937  32.085  35.196   4.645
 5720W        W73938  19.824  38.832   4.700
 5721W        W73939  25.659   4.688   4.193
 5722W        W73940  21.772   4.369  11.144
 5723W        W73941  41.427  13.527   3.437
 5724W        W73942  39.423  26.597   0.493
 5725W        W73943  29.455   0.011   1.237
 5726W        W73944   9.137  38.826  13.951
 5727W        W73945  23.753  36.017   3.144
 5728W        W73946   6.215  32.667  14.479
 5729W        W73947  15.324  35.604   1.351
 5730W        W73948   2.312  17.832   3.678
 5731W        W73949  28.650  13.135  11.964
 5732W        W73950  43.355  13.396  13.938
 5733W        W73951  44.996  15.996   3.917
 5734W        W73952  33.163  32.523  11.651
 5735W        W73953  38.600  22.229  14.935
 5736W        W73954  35.794  25.611   2.858
 5737W        W73955   8.647  25.631  11.284
 5738W        W73956  41.824  31.116  14.014
 5739W        W73957  43.958  12.565  13.851
 5740W        W73958  13.618  41.887   3.255
 5741W        W73959  15.778  32.960   4.917
 5742W        W73960   8.968  14.744   1.830
 5743W        W73961  41.807   1.015   4.069
 5744W        W73962  37.738  24.803  10.677
 5745W        W73963  24.320  42.524   4.293
 5746W        W73964  24.724  26.974   0.929
 5747W        W73965   7.917   5.681   2.707
 5748W        W73966  39.908  27.273   1.571
 5749W        W73967   3.059   4.958  13.310
 5750W        W73968  25.011  28.257   4.507
 5751W        W73969   0.983  42.410  12.528
 5752W        W73970  21.084  43.079   4.336
 5753W        W73971   4.397  10.017   0.603
 5754W        W73972  15.039  20.080  10.707
 5755W        W73973  16.603  20.452   0.228
 5756W        W73974  11.367  34.921  12.690
 5757W        W73975  42.691   4.685   5.114
 5758W        W73976  43.457  41.956   0.823
 5759W        W73977  41.350  30.454  13.049
 5760W        W73978  20.911  16.915   4.747
 5761W        W73979  39.020  30.190   1.723
 5762W        W73980  25.320  20.051   4.832
 5763W        W73981   9.847   6.366   2.281
 5764W        W73982  19.262  15.582  12.903
 5765W        W73983   9.346  16.645  11.356
 5766W        W73984  40.806  31.558  13.821
 5767W        W73985   9.765  29.611  12.114
 5768W        W73986   6.162  23.765   4.205
 5769W        W73987  42.321   0.027   0.938
 5770W        W73988  37.852  31.550   2.378
 5771W        W73989  36.186  39.490   0.190
 5772W        W73990  12.822  39.472  12.162
 5773W        W73991  44.850  11.300   4.928
 5774W        W73992  43.038  27.683  11.626
 5775W        W73993  44.390  13.324  14.050
 5776W        W73994  27.401  31.373  14.283
 5777W        W73995  27.598  25.125   4.724
 5778W        W73996   8.219  39.622  14.636
 5779W        W73997  15.346  40.531   0.868
 5780W        W73998   6.516  39.563  12.186
 5781W        W73999   5.673  17.243   1.841
 5782W        W74000  18.755  37.837   5.149
 5783W        W74001  12.460  39.276   1.344
 5784W        W74002   4.388  10.371  11.518
 5785W        W74003   0.991  36.822   1.531
 5786W        W74004   5.699  24.954   0.709
 5787W        W74005  30.669   8.091  11.585
 5788W        W74006  19.232   4.225  12.104
 5789W        W74007  42.986  18.062  11.156
 5790W        W74008  16.362   1.290  10.728
 5791W        W74009  24.876   4.733   0.375
 5792W        W74010  43.738  25.397   2.030
 5793W        W74011  31.122   0.572   3.065
 5794W        W74012  19.708  21.020  13.886
 5795W        W74013   9.118  29.427  14.211
 5796W        W74014   7.708  20.357  12.535
 5797W        W74015   5.460  39.484   3.790
 5798W        W74016   2.824  37.080  13.108
 5799W        W74017  39.976  16.857   1.446
 5800W        W74018   0.529  19.763   0.306
 5801W        W74019   4.991   7.376  11.110
 5802W        W74020   8.740  28.732  12.796
 5803W        W74021  37.823  31.430   1.286
 5804W        W74022  19.057  13.628   0.856
 5805W        W74023  13.565  39.967   2.705
 5806W        W74024  40.416  19.472  14.148
 5807W        W74025  26.009  30.625  13.272
 5808W        W74026  13.319  31.125  13.454
 5809W        W74027  33.209   1.534  12.013
 5810W        W74028  17.207  12.423  11.677
 5811W        W74029   1.254   2.717  13.368
 5812W        W74030   4.603  39.350   0.872
 5813W        W74031  29.395  12.118   2.256
 5814W        W74032  27.996  17.112   5.259
 5815W        W74033   9.735  27.526  12.944
 5816W        W74034  22.951   1.895   0.964
 5817W        W74035   0.769  23.286   0.829
 5818W        W74036   0.915   1.730   2.697
 5819W        W74037  21.530  15.445  11.097
 5820W        W74038  44.408  44.160   2.697
 5821W        W74039   1.131  15.538  11.128
 5822W        W74040  29.683  35.104  11.529
 5823W        W74041  26.215  28.627   2.760
 5824W        W74042  19.655   2.459  13.585
 5825W        W74043   8.985  24.511  13.849
 5826W        W74044   1.873  38.496   2.878
 5827W        W74045  35.084  16.446  12.138
 5828W        W74046  21.378  22.282   3.676
 5829W        W74047  15.829  12.751  10.665
 5830W        W74048   3.998  35.050   2.212
 5831W        W74049  13.127  31.226   0.882
 5832W        W74050  21.075  10.305   3.245
 5833W        W74051  27.986  25.237  13.288
 5834W        W74052  34.144  24.522   3.234
 5835W        W74053  17.769  26.392  13.029
 5836W        W74054  22.689  17.125   3.225
 5837W        W74055  24.241   5.678   1.282
 5838W        W74056  13.562  36.943  14.413
 5839W        W74057   8.908  41.381   0.311
 5840W        W74058  35.356   5.773   4.541
 5841W        W74059  34.737   4.497   2.963
 5842W        W74060  25.268  34.840  12.894
 5843W        W74061   8.846   2.639   3.379
 5844W        W74062   2.349  12.300   3.792
 5845W        W74063  44.832  36.778   3.521
 5846W        W74064   3.180  22.217   1.987
 5847W        W74065   9.151  20.216  13.805
 5848W        W74066  26.728  13.719  14.765
 5849W        W74067  27.079  43.745   1.701
 5850W        W74068  24.689  30.618   0.558
 5851W        W74069  26.863  26.783   1.322
 5852W        W74070  42.801  20.548  13.929
 5853W        W74071  38.844   4.478   4.634
 5854W        W74072  29.754  39.381  13.855
 5855W        W74073   9.789  15.610  14.588
 5856W        W74074  26.097  36.577   4.719
 5857W        W74075  13.697  20.988   3.359
 5858W        W74076  32.941  23.173  11.554
 5859W        W74077   9.956  34.494  11.414
 5860W        W74078   3.910  13.235  14.994
 5861W        W74079  40.051  28.079  13.511
 5862W        W74080   4.986  19.750  14.915
 5863W        W74081  32.977  36.921   4.731
 5864W        W74082  10.709   4.193  12.975
 5865W        W74083  23.253  14.863  10.818
 5866W        W74084  29.563  31.725   0.019
 5867W        W74085  22.039   1.198   4.135
 5868W        W74086   6.157  16.133   3.156
 5869W        W74087  43.204  32.153  13.869
 5870W        W74088  22.129   1.343  13.354
 5871W        W74089  18.112  23.832   2.858
 5872W        W74090  19.309  39.918   0.701
 5873W        W74091  32.009  31.951   3.671
 5874W        W74092   0.892   5.116  10.986
 5875W        W74093  38.895  25.920  12.582
 5876W        W74094  18.629  18.485  13.039
 5877W        W74095  22.615   4.745   3.766
 5878W        W74096  26.795  24.494   2.325
 5879W        W74097  28.203   8.427   4.921
 5880W        W74098   3.050  10.221   4.571
 5881W        W74099  39.915  29.593   3.996
 5882W        W74100  37.321   6.878  11.173
 5883W        W74101  24.019   2.955  14.398
 5884W        W74102  17.194  39.559  11.986
 5885W        W74103   2.011  22.605   1.210
 5886W        W74104  40.604  37.745   1.863
 5887W        W74105  20.464   0.485   3.394
 5888W        W74106  41.922  32.642  14.962
 5889W        W74107  25.599  41.324   2.467
 5890W        W74108  23.557   6.294   0.666
 5891W        W74109  30.206  17.747   4.088
 5892W        W74110  39.121  13.352   4.644
 5893W        W74111  15.950  20.673  11.159
 5894W        W74112   8.135  23.507   0.434
 5895W        W74113  26.519  30.324   2.688
 5896W        W74114  34.884  34.338  11.528
 5897W        W74115  22.618  16.616  14.960
 5898W        W74116   8.922  30.987  13.549
 5899W        W74117  24.106  34.480   1.806
 5900W        W74118  30.493   4.182   0.366
 5901W        W74119  11.346  22.878  12.532
 5902W        W74120  28.573  10.571  11.483
 5903W        W74121   1.500  22.241  11.621
 5904W        W74122  20.750  16.729   3.042
 5905W        W74123  17.513   5.745   3.651
 5906W        W74124  23.176  41.570   1.739
 5907W        W74125   2.867  10.141   2.168
 5908W        W74126   3.683  42.882  10.672
 5909W        W74127  18.696  11.798   3.769
 5910W        W74128   9.683  35.052  11.527
 5911W        W74129   9.350  13.699  11.577
 5912W        W74130   8.901  22.532   3.237
 5913W        W74131  21.393  19.090   2.870
 5914W        W74132  44.996  41.613   3.696
 5915W        W74133  19.235  24.754  10.763
 5916W        W74134  20.950   3.160  13.325
 5917W        W74135  35.880   5.112  11.533
 5918W        W74136   3.231  18.844   4.235
 5919W        W74137  29.732  24.796   5.009
 5920W        W74138  38.031  39.047  14.013
 5921W        W74139  17.877  36.184   9.978
 5922W        W74140  14.868  25.067   2.305
 5923W        W74141   2.034   1.520   3.883
 5924W        W74142   5.480   9.771   4.531
 5925W        W74143  31.035  43.605   2.156
 5926W        W74144   0.410   8.738   3.852
 5927W        W74145   8.213  14.210  13.391
 5928W        W74146   0.773  24.629   0.313
 5929W        W74147   7.821  16.860  12.940
 5930W        W74148  10.277  26.961  11.931
 5931W        W74149  37.964  44.129   1.248
 5932W        W74150   3.803  37.919  14.459
 5933W        W74151  20.610  34.815   2.273
 5934W        W74152  38.866  11.278  14.735
 5935W        W74153  15.735  28.212   1.817
 5936W        W74154   6.138  43.803   2.663
 5937W        W74155   7.260   1.883   4.883
 5938W        W74156  31.016  36.148   0.611
 5939W        W74157  28.756  14.175  13.216
 5940W        W74158  20.632  29.938   0.044
 5941W        W74159  42.532   9.633   3.531
 5942W        W74160   1.772  22.781  13.305
 5943W        W74161  14.759  28.085   2.277
 5944W        W74162   1.802  31.960   3.552
 5945W        W74163  27.973  42.467  11.506
 5946W        W74164   8.843  41.174   5.018
 5947W        W74165  31.055  11.987   2.656
 5948W        W74166  27.066   1.729  13.476
 5949W        W74167   2.121  33.463  12.218
 5950W        W74168  31.873  44.432  14.561
 5951W        W74169  42.524  41.049   4.234
 5952W        W74170  29.212  15.853   2.303
 5953W        W74171  32.005  17.984   0.710
 5954W        W74172  36.133  10.357  10.685
 5955W        W74173   6.309  31.581   3.173
 5956W        W74174  12.662  19.038  13.947
 5957W        W74175   9.663  40.883  10.170
 5958W        W74176  32.954  19.293   4.594
 5959W        W74177  39.234  38.530  13.820
 5960W        W74178   0.395  25.576  14.473
 5961W        W74179  30.459  23.310  11.229
 5962W        W74180  38.384  34.949   1.136
 5963W        W74181   0.178  33.439  12.801
 5964W        W74182  38.298  23.844   3.993
 5965W        W74183  34.732  26.703   4.942
 5966W        W74184  23.118  15.098   2.257
 5967W        W74185  31.265  27.630   1.752
 5968W        W74186  29.022  26.665   2.477
 5969W        W74187   7.135  12.293   3.693
 5970W        W74188  17.678  12.816   3.304
 5971W        W74189  20.518  16.774  13.931
 5972W        W74190   2.289  20.964  10.313
 5973W        W74191  16.894  43.143   3.697
 5974W        W74192  26.551  12.337  11.649
 5975W        W74193   6.445  15.376   1.371
 5976W        W74194  18.003  28.511   1.293
 5977W        W74195   9.002  24.815   4.078
 5978W        W74196  30.116  35.917   3.681
 5979W        W74197  15.375   6.706   1.374
 5980W        W74198   8.292   9.828  10.707
 5981W        W74199   6.123  35.805   1.735
 5982W        W74200  40.828   2.674   1.212
 5983W        W74201  15.504   6.924   1.855
 5984W        W74202  12.193   3.146  10.984
 5985W        W74203   3.800   3.946  10.492
 5986W        W74204  21.345  32.563   9.760
 5987W        W74205  25.785  41.298  14.541
 5988W        W74206  27.579  38.682  12.182
 5989W        W74207   2.249   8.902  11.581
 5990W        W74208  32.423  21.711  11.395
 5991W        W74209  35.541  17.535   1.274
 5992W        W74210  24.092  20.747   0.727
 5993W        W74211  36.409   8.040   4.602
 5994W        W74212  37.063  21.598  11.448
 5995W        W74213  22.732  14.839  12.064
 5996W        W74214  13.472  17.240  12.618
 5997W        W74215  25.647  27.202  11.620
 5998W        W74216  37.382   7.862  13.900
 5999W        W74217  12.640  25.982  11.107
 6000W        W74218  15.347   9.228  14.462
 6001W        W74219  25.414   7.292   0.355
 6002W        W74220  23.380  24.364   0.473
 6003W        W74221  34.770  14.444  14.320
 6004W        W74222   4.261  25.484   3.138
 6005W        W74223  41.794  26.180   1.641
 6006W        W74224  25.051  27.993   2.143
 6007W        W74225  28.410  37.630  12.124
 6008W        W74226  25.680   2.274   0.545
 6009W        W74227  37.754   0.059   1.206
 6010W        W74228   7.129  20.732  13.031
 6011W        W74229  13.579  26.012  14.810
 6012W        W74230  29.598  43.064  11.416
 6013W        W74231   7.221   5.898  13.422
 6014W        W74232  21.482  10.637   3.349
 6015W        W74233  16.806  27.971   4.646
 6016W        W74234  17.527   9.760   1.939
 6017W        W74235   9.397  37.891  13.012
 6018W        W74236  38.722  14.101  11.488
 6019W        W74237   9.787  20.514  13.991
 6020W        W74238   7.017  25.179  12.589
 6021W        W74239  42.258  23.643  14.786
 6022W        W74240   2.262  42.594  12.085
 6023W        W74241  26.692  44.904  11.501
 6024W        W74242  22.123  25.560   4.336
 6025W        W74243  18.006  41.487  11.543
 6026W        W74244  31.993  40.357  14.077
 6027W        W74245  21.775   7.790  11.674
 6028W        W74246   6.775  31.975   0.668
 6029W        W74247   5.870  36.971  14.859
 6030W        W74248   1.382   0.845   2.865
 6031W        W74249  14.322  28.735  10.756
 6032W        W74250   7.249  43.760   1.689
 6033W        W74251  12.163  26.152   3.588
 6034W        W74252   1.807   4.454  13.284
 6035W        W74253  12.302  38.519  11.901
 6036W        W74254  26.917  38.315   2.251
 6037W        W74255  16.575  22.576   0.950
 6038W        W74256  29.928  32.250  14.532
 6039W        W74257   2.426   1.716   2.211
 6040W        W74258  39.816  28.197  14.780
 6041W        W74259  43.910   1.492   1.774
 6042W        W74260   0.356   7.457  11.072
 6043W        W74261  15.898  11.220  10.531
 6044W        W74262  18.675   5.838  14.746
 6045W        W74263  27.907   3.139   0.859
 6046W        W74264   3.700   2.433  11.943
 6047W        W74265  39.860   8.898  11.134
 6048W        W74266   3.940  26.267  14.926
 6049W        W74267   5.146  23.303  11.064
 6050W        W74268  37.996  21.660   1.592
 6051W        W74269   8.407   0.436   0.852
 6052W        W74270  12.764  26.518  14.847
 6053W        W74271   0.117   5.566   0.846
 6054W        W74272   0.341  33.030  11.986
 6055W        W74273  26.655   9.359   4.580
 6056W        W74274  16.153  15.113  14.805
 6057W        W74275  10.231  29.844  12.088
 6058W        W74276  18.863  11.659  14.665
 6059W        W74277  30.381  44.271  14.349
 6060W        W74278   7.584  13.118   0.926
 6061W        W74279  40.888   7.747  11.187
 6062W        W74280  34.032   6.424  10.732
 6063W        W74281   2.959   0.830  13.972
 6064W        W74282   1.044  39.764  11.304
 6065W        W74283  44.691  40.412   1.837
 6066W        W74284  39.842  26.561  10.831
 6067W        W74285  38.632  19.963  12.517
 6068W        W74286  27.021  44.786  13.125
 6069W        W74287   5.869   7.947   2.857
 6070W        W74288  23.692  31.118  11.559
 6071W        W74289  24.398  37.613  13.860
 6072W        W74290  10.809  18.590  10.269
 6073W        W74291  11.604   7.955  10.586
 6074W        W74292  39.937   0.852  12.515
 6075W        W74293  29.682   1.864   0.943
 6076W        W74294  25.266  39.764   3.660
 6077W        W74295  20.062   6.702   3.217
 6078W        W74296   1.955  30.497  13.805
 6079W        W74297  39.497  13.076  14.973
 6080W        W74298  10.728   8.377   0.629
 6081W        W74299  23.769  17.734   2.718
 6082W        W74300  23.911   6.013  12.420
 6083W        W74301  23.082  34.583  10.406
 6084W        W74302  28.091  36.435  14.839
 6085W        W74303  16.351  14.126   0.799
 6086W        W74304  31.436  20.535   4.245
 6087W        W74305  37.761  41.763   4.139
 6088W        W74306   1.431  19.979  10.661
 6089W        W74307   1.465  42.240  12.425
 6090W        W74308  13.835   3.298  13.020
 6091W        W74309  18.214  17.681  11.391
 6092W        W74310  40.654  32.037  12.933
 6093W        W74311  37.044  35.291  12.914
 6094W        W74312  25.674   2.183   1.055
 6095W        W74313  41.381  26.198   0.680
 6096W        W74314  11.670   6.242   1.907
 6097W        W74315  39.407  18.437  10.475
 6098W        W74316  16.667  12.387   1.273
 6099W        W74317  38.142  22.442   2.156
 6100W        W74318   6.540  18.361   3.212
 6101W        W74319  22.215  43.591  10.785
 6102W        W74320  35.114  10.171   4.502
 6103W        W74321  40.159   6.437   0.334
 6104W        W74322   8.414  29.667  12.468
 6105W        W74323  14.280  37.966  13.847
 6106W        W74324  30.993  21.206   4.497
 6107W        W74325  43.891  10.285  14.039
 6108W        W74326   9.756  31.950  11.531
 6109W        W74327  42.942  39.638  11.515
 6110W        W74328  32.501  24.901   3.784
 6111W        W74329  24.632   8.875  10.392
 6112W        W74330  36.386  28.004   2.245
 6113W        W74331  39.543  21.858   2.190
 6114W        W74332   2.667  13.814   2.509
 6115W        W74333  17.158  10.403   0.181
 6116W        W74334  21.688  20.786  11.929
 6117W        W74335  22.888   1.485   0.290
 6118W        W74336   0.680  41.229   4.052
 6119W        W74337  21.017  19.100   0.668
 6120W        W74338   8.843  27.708  12.617
 6121W        W74339  23.281  24.085   1.469
 6122W        W74340  18.588   2.575   0.414
 6123W        W74341   7.440  41.950   2.007
 6124W        W74342  16.993   4.379  12.285
 6125W        W74343  10.837  26.093  11.143
 6126W        W74344  19.611  17.165  10.472
 6127W        W74345  43.264  13.145   2.520
 6128W        W74346  24.469  11.179  14.289
 6129W        W74347  42.338   7.666  13.159
 6130W        W74348  33.464   1.797   3.503
 6131W        W74349  33.701  27.185   4.049
 6132W        W74350  33.666  15.832   3.290
 6133W        W74351  24.957   6.388   1.160
 6134W        W74352  34.068  39.581   0.432
 6135W        W74353  31.037  23.192   3.556
 6136W        W74354  38.814  30.156  14.270
 6137W        W74355  32.856   4.572   3.666
 6138W        W74356   4.934  20.213  10.876
 6139W        W74357  32.277  39.128  14.834
 6140W        W74358  25.989   2.663  10.675
 6141W        W74359   8.654  22.161   2.984
 6142W        W74360  25.726  15.669  10.710
 6143W        W74361  32.908  11.425   4.031
 6144W        W74362  18.123  15.279   5.495
 6145W        W74363  20.791   7.835   0.773
 6146W        W74364  31.189  16.587   1.467
 6147W        W74365  19.537  27.459   1.852
 6148W        W74366  27.967  36.134  13.486
 6149W        W74367  32.871  27.306   2.668
 6150W        W74368  30.831  22.092  12.938
 6151W        W74369  13.248  10.067  14.005
 6152W        W74370  34.400  11.633   3.063
 6153W        W74371  31.991  18.742  11.484
 6154W        W74372  19.821  25.947  14.443
 6155W        W74373  26.167  28.748  13.621
 6156W        W74374   9.361  39.925  12.389
 6157W        W74375   9.780  20.814   1.289
 6158W        W74376   4.748   6.171   4.217
 6159W        W74377   6.209  32.638   2.820
 6160W        W74378  21.358  23.779   1.791
 6161W        W74379  19.542  22.443   3.750
 6162W        W74380  40.820  35.136   3.322
 6163W        W74381  35.000  13.933   0.401
 6164W        W74382   1.862  12.457   3.706
 6165W        W74383  14.513  14.744   4.806
 6166W        W74384  22.464  31.016   0.197
 6167W        W74385   6.113  28.167  10.960
 6168W        W74386  42.856  12.776   1.886
 6169W        W74387  26.060  33.551   1.903
 6170W        W74388  11.666  37.816  12.592
 6171W        W74389  20.519  34.032   3.322
 6172W        W74390  25.968   3.843   3.320
 6173W        W74391   2.305  37.616   4.098
 6174W        W74392   9.821  13.645   0.350
 6175W        W74393  32.392  17.240   1.844
 6176W        W74394  30.628  20.294  13.942
 6177W        W74395  31.886   9.776   2.811
 6178W        W74396  40.796  24.619   3.133
 6179W        W74397  31.205  10.887  14.890
 6180W        W74398  11.093  44.027   0.930
 6181W        W74399  11.209  15.893   2.373
 6182W        W74400  30.089  24.618   0.393
 6183W        W74401  13.883  41.278  14.423
 6184W        W74402   8.670  16.693   4.270
 6185W        W74403  41.222  26.195  14.164
 6186W        W74404  21.204  24.761  11.583
 6187W        W74405  27.921  11.610   0.929
 6188W        W74406  42.468  24.107  14.739
 6189W        W74407  26.000   0.832  13.800
 6190W        W74408  18.356  21.109   4.555
 6191W        W74409  10.705   1.983   1.689
 6192W        W74410   2.902  37.450   4.768
 6193W        W74411  43.725   1.404  12.241
 6194W        W74412  44.549  20.721   2.353
 6195W        W74413  28.865   8.803   3.642
 6196W        W74414  37.874  14.091   4.710
 6197W        W74415  42.772   4.265  11.068
 6198W        W74416  17.296  42.470   0.878
 6199W        W74417  29.662  35.137   2.716
 6200W        W74418  26.309  22.453  11.981
 6201W        W74419  24.556  16.246   1.261
 6202W        W74420  33.700  19.652  11.418
 6203W        W74421  21.920  17.673   0.700
 6204W        W74422  31.383  18.818   3.394
 6205W        W74423  15.521  42.557  14.330
 6206W        W74424  39.363  17.828  14.824
 6207W        W74425  12.293  33.919   5.038
 6208W        W74426   3.217  27.748  14.367
 6209W        W74427  34.954  13.674  13.283
 6210W        W74428  10.892  28.215   3.949
 6211W        W74429   8.351   9.255   2.362
 6212W        W74430  39.048  15.593  12.682
 6213W        W74431   4.837  12.360   4.552
 6214W        W74432  29.520  41.163  10.388
 6215W        W74433  25.547   0.555  10.954
 6216W        W74434  33.679  15.305   4.437
 6217W        W74435  38.898  31.176  10.694
 6218W        W74436  23.574  39.989  12.841
 6219W        W74437  27.688  33.919  14.985
 6220W        W74438   7.754   7.418  12.550
 6221W        W74439  17.266  26.132  13.008
 6222W        W74440  35.204   5.369   2.332
 6223W        W74441  39.443  29.715   2.658
 6224W        W74442  18.341  29.122  10.748
 6225W        W74443   7.791  38.472   0.091
 6226W        W74444  29.897  33.970  13.044
 6227W        W74445  38.880  31.478  11.471
 6228W        W74446  39.594   9.278   0.436
 6229W        W74447  43.958  41.016   4.408
 6230W        W74448  40.659  32.470   3.759
 6231W        W74449  32.526  10.296  14.022
 6232W        W74450  14.092  28.517   1.168
 6233W        W74451  33.540   5.784  12.223
 6234W        W74452  25.617   2.951  14.769
 6235W        W74453  19.759  40.860   2.389
 6236W        W74454  25.045  33.651  12.875
 6237W        W74455  23.431  21.922  11.441
 6238W        W74456  27.555  16.607   3.634
 6239W        W74457   8.382  13.087  12.811
 6240W        W74458   6.003   9.398   2.818
 6241W        W74459   8.151  26.938   2.223
 6242W        W74460  15.789  27.092  14.278
 6243W        W74461  20.581  28.377  11.157
 6244W        W74462   9.452  14.690  11.727
 6245W        W74463  17.882  12.037   0.821
 6246W        W74464  28.581   3.500  11.165
 6247W        W74465  23.656  13.611  12.524
 6248W        W74466  34.925   7.400   1.154
 6249W        W74467  28.706   3.209   2.683
 6250W        W74468  19.234   7.922   0.804
 6251W        W74469  19.617  30.624  14.367
 6252W        W74470  32.664  13.364   1.444
 6253W        W74471  32.490  35.159  11.163
 6254W        W74472  14.541  35.092  14.870
 6255W        W74473   9.709  36.192   2.233
 6256W        W74474  27.162  44.233   4.273
 6257W        W74475  25.970  27.995  14.878
 6258W        W74476  33.055  30.804   5.409
 6259W        W74477  44.946  11.933  11.996
 6260W        W74478  13.666  15.562   1.344
 6261W        W74479  44.721  15.333   0.368
 6262W        W74480  33.890  11.235   4.912
 6263W        W74481  30.170  21.215   0.792
 6264W        W74482   7.171   9.150   2.181
 6265W        W74483  15.046  37.554  14.056
 6266W        W74484  29.559  33.984  12.466
 6267W        W74485  23.956  38.900   0.996
 6268W        W74486  36.051  18.995  12.349
 6269W        W74487  36.125   6.426  14.379
 6270W        W74488  32.018  27.467  10.804
 6271W        W74489  17.256  38.825   1.330
 6272W        W74490  22.307  26.736  10.428
 6273W        W74491   7.934   3.650   3.284
 6274W        W74492   2.725  42.846   4.766
 6275W        W74493   6.177   1.949   3.147
 6276W        W74494  38.854   6.927   3.219
 6277W        W74495  25.274  13.234   0.372
 6278W        W74496   6.958   2.193   2.310
 6279W        W74497  29.889   6.641   1.332
 6280W        W74498  13.526  31.833   4.155
 6281W        W74499  28.321  19.802  12.162
 6282W        W74500  13.157  14.778  14.359
 6283W        W74501  30.125  42.690  14.818
 6284W        W74502   4.731  38.828   0.996
 6285W        W74503   2.171  30.289   2.830
 6286W        W74504   8.209  33.347  14.842
 6287W        W74505   8.563  42.730   1.153
 6288W        W74506  34.096   3.443   4.683
 6289W        W74507   2.140  42.534   2.257
 6290W        W74508  11.339  30.404   1.708
 6291W        W74509   0.281   6.223   4.511
 6292W        W74510  16.202  29.246   0.243
 6293W        W74511  16.552  20.785  12.568
 6294W        W74512  27.135   3.789  11.677
 6295W        W74513  12.164   9.363  14.940
 6296W        W74514  13.013  25.979  13.055
 6297W        W74515  32.795  23.549  12.905
 6298W        W74516  34.651  36.997  12.356
 6299W        W74517  24.528   8.138  11.516
 6300W        W74518   1.385   8.567   0.720
 6301W        W74519  37.989  28.559   1.700
 6302W        W74520  41.060  33.148  12.410
 6303W        W74521  20.508  15.985   4.544
 6304W        W74522  24.106  36.715   4.637
 6305W        W74523   3.875  44.591  11.627
 6306W        W74524  29.209  42.963  11.764
 6307W        W74525  32.884  19.635   0.843
 6308W        W74526  39.989   4.916  14.174
 6309W        W74527  35.050  34.671   2.910
 6310W        W74528  39.798  34.785  13.896
 6311W        W74529  14.402  41.037  10.717
 6312W        W74530  33.208   4.515  10.823
 6313W        W74531  17.567  25.132   2.014
 6314W        W74532  24.588  13.601  11.511
 6315W        W74533  37.009  33.917   4.128
 6316W        W74534  21.158  24.688   3.847
 6317W        W74535  33.026  44.106   0.066
 6318W        W74536   9.302   0.566  11.159
 6319W        W74537  27.712  18.360   1.120
 6320W        W74538  42.234  25.657   4.043
 6321W        W74539  19.018  11.031  14.017
 6322W        W74540   7.348  10.904   1.365
 6323W        W74541  26.726  42.567  12.983
 6324W        W74542   1.013   0.685   3.215
 6325W        W74543  12.742  24.238   1.770
 6326W        W74544  22.299  28.124   2.682
 6327W        W74545   3.062   4.206   1.862
 6328W        W74546   7.685   3.419   1.755
 6329W        W74547  22.402  11.772   4.159
 6330W        W74548  18.729  11.876   2.815
 6331W        W74549  11.794  40.018  11.481
 6332W        W74550  21.540  28.626  12.952
 6333W        W74551  20.844  11.293   3.198
 6334W        W74552  32.008  37.461   2.124
 6335W        W74553  29.647   4.256   3.602
 6336W        W74554   0.811  11.131  14.574
 6337W        W74555  14.858   2.292   3.850
 6338W        W74556  29.038  13.094   0.529
 6339W        W74557   5.237   3.447   4.578
 6340W        W74558  29.397  22.867  13.918
 6341W        W74559  34.697   5.845   0.551
 6342W        W74560  27.515   3.800  10.694
 6343W        W74561  23.440   5.570   0.924
 6344W        W74562  41.518   3.498   1.960
 6345W        W74563   7.313  44.065  14.956
 6346W        W74564   6.824  11.790  12.064
 6347W        W74565  11.544  40.249   1.703
 6348W        W74566  40.377  22.090  14.473
 6349W        W74567  39.524  21.167   0.983
 6350W        W74568   9.456  26.154   2.654
 6351W        W74569  24.038  43.542  11.048
 6352W        W74570   2.442   8.507   0.954
 6353W        W74571  31.514  11.996   3.467
 6354W        W74572   2.843   3.392   2.700
 6355W        W74573  34.290  17.831   2.510
 6356W        W74574  12.265  13.894   0.420
 6357W        W74575  14.616  26.016   2.293
 6358W        W74576   7.107   0.862  13.372
 6359W        W74577  14.534  19.240  10.493
 6360W        W74578  30.714  17.282  12.645
 6361W        W74579  44.152  35.422  10.130
 6362W        W74580  32.730  12.849   1.415
 6363W        W74581  39.498  36.079  14.086
 6364W        W74582  19.949  16.176   1.823
 6365W        W74583   7.915   2.005  14.969
 6366W        W74584   3.721  22.307   4.840
 6367W        W74585   8.450   9.189   3.739
 6368W        W74586   6.712  44.959  13.051
 6369W        W74587   4.737  21.606  12.017
 6370W        W74588  41.782  36.572   2.787
 6371W        W74589   0.185   0.763   4.823
 6372W        W74590  16.464  18.364  11.611
 6373W        W74591  24.744   3.825   2.683
 6374W        W74592  18.218   5.047  13.101
 6375W        W74593   1.557  10.329   4.849
 6376W        W74594  26.003  34.170  12.842
 6377W        W74595   4.250  22.221   4.025
 6378W        W74596  23.796  11.201   2.282
 6379W        W74597  35.993  32.671   0.512
 6380W        W74598  19.814   6.790  11.772
 6381W        W74599   9.377  17.662  12.188
 6382W        W74600   3.734  39.232  11.425
 6383W        W74601  24.073   3.342   3.108
 6384W        W74602   7.123  35.055   2.459
 6385W        W74603  24.709  22.039  13.949
 6386W        W74604  31.694  40.494  10.721
 6387W        W74605  34.510   8.670   1.392
 6388W        W74606  15.267  39.601  11.431
 6389W        W74607  28.936  39.277  13.369
 6390W        W74608  11.417  42.430   3.060
 6391W        W74609  42.751  33.921  13.399
 6392W        W74610  17.271  12.346   4.472
 6393W        W74611  43.818  38.833   0.061
 6394W        W74612  35.531  19.303   3.313
 6395W        W74613  25.981  17.776  12.372
 6396W        W74614  22.116  33.172   2.814
 6397W        W74615  41.937   8.308   0.306
 6398W        W74616  20.243  25.255  12.830
 6399W        W74617  12.359  32.402   0.246
 6400W        W74618  28.495  39.737   0.116
 6401W        W74619  23.777  36.085   0.208
 6402W        W74620   1.794  29.863   2.307
 6403W        W74621  40.563   0.433   5.006
 6404W        W74622  36.389  40.803  13.145
 6405W        W74623  18.685   3.514  12.406
 6406W        W74624  25.392   3.883  10.568
 6407W        W74625   3.119  10.492   0.321
 6408W        W74626   2.397  22.575  14.405
 6409W        W74627   6.652  11.159  14.103
 6410W        W74628  11.180  38.378   3.612
 6411W        W74629  38.585  39.811   4.176
 6412W        W74630  37.353  29.352   0.272
 6413W        W74631  35.078  37.889  13.962
 6414W        W74632  21.233  11.634   2.580
 6415W        W74633  34.084  24.956  13.204
 6416W        W74634  31.448  43.458  11.677
 6417W        W74635  20.532  12.634   0.312
 6418W        W74636  27.775  30.388   4.677
 6419W        W74637  41.086  11.705  11.211
 6420W        W74638  17.699   6.795   3.643
 6421W        W74639   8.326  10.901  10.714
 6422W        W74640  13.646   8.398  14.923
 6423W        W74641  42.057  40.733  10.656
 6424W        W74642  11.320   6.778   1.152
 6425W        W74643  27.451   2.105  13.476
 6426W        W74644  24.940   4.331  12.384
 6427W        W74645  10.182  24.265  11.472
 6428W        W74646  23.111  35.447   2.693
 6429W        W74647  12.867  17.266  13.902
 6430W        W74648  22.109  43.046  12.485
 6431W        W74649  30.043  30.942  12.981
 6432W        W74650  18.157  38.931  13.368
 6433W        W74651   4.175  11.332  11.436
 6434W        W74652  36.365  18.355   4.365
 6435W        W74653  38.332  42.310   0.380
 6436W        W74654  41.307  18.077  13.041
 6437W        W74655  14.704   1.853   1.893
 6438W        W74656   3.768  32.640  14.047
 6439W        W74657  40.730  37.459   9.553
 6440W        W74658  37.745  13.139   2.343
 6441W        W74659  15.717  42.632  11.518
 6442W        W74660  39.763  30.461   4.156
 6443W        W74661  44.062  30.081   2.761
 6444W        W74662  35.292  17.782   1.650
 6445W        W74663  27.140  40.774   0.585
 6446W        W74664  22.700  33.626  12.530
 6447W        W74665  34.215   9.727   4.534
 6448W        W74666  23.633  36.402  11.209
 6449W        W74667  36.514  22.037   2.671
 6450W        W74668   1.251  24.293  11.516
 6451W        W74669   8.280  21.607   4.635
 6452W        W74670  36.618  26.567  11.365
 6453W        W74671  30.414  18.779   3.936
 6454W        W74672  19.678  19.537  14.089
 6455W        W74673  12.816  18.154   2.243
 6456W        W74674  29.499   2.179  12.453
 6457W        W74675  33.467  34.363  12.642
 6458W        W74676   4.761  11.827   3.718
 6459W        W74677  33.175  39.942  11.436
 6460W        W74678  26.195   4.638   1.823
 6461W        W74679  32.075  13.942   0.084
 6462W        W74680  42.125  10.661   4.075
 6463W        W74681   1.049  35.891   0.236
 6464W        W74682  23.699  35.394  14.468
 6465W        W74683  39.721  26.367   3.230
 6466W        W74684  23.978   3.853  14.505
 6467W        W74685  24.658  18.197   2.073
 6468W        W74686  30.181  21.550  12.871
 6469W        W74687  43.042   3.190  14.886
 6470W        W74688   6.683   7.762   4.460
 6471W        W74689  10.820  20.246  10.654
 6472W        W74690  27.045  30.458   2.777
 6473W        W74691   4.784   7.553  14.637
 6474W        W74692  44.170  11.113  12.961
 6475W        W74693  16.726   1.672  11.462
 6476W        W74694  38.954   7.045  11.980
 6477W        W74695   1.738  39.879  13.410
 6478W        W74696  43.798  28.980  12.497
 6479W        W74697  32.753  43.950   4.117
 6480W        W74698  31.546  33.488   2.491
 6481W        W74699  10.915  30.537   4.512
 6482W        W74700   1.507   3.237   2.902
 6483W        W74701  41.501  12.365  10.737
 6484W        W74702  37.999  43.485   1.075
 6485W        W74703   3.679  42.337  11.045
 6486W        W74704  44.068  27.945  11.173
 6487W        W74705  23.767   6.331  11.992
 6488W        W74706   0.418  38.508   2.444
 6489W        W74707   0.244  25.362  13.604
 6490W        W74708  16.517  32.098   4.300
 6491W        W74709  32.842  23.219   0.797
 6492W        W74710  41.907  28.874  12.415
 6493W        W74711  18.177  39.610   4.037
 6494W        W74712  33.034   1.287  13.474
 6495W        W74713  21.243  19.955   4.771
 6496W        W74714  25.244  32.091   0.945
 6497W        W74715  16.997   4.290  12.865
 6498W        W74716  41.106  19.711   0.256
 6499W        W74717   2.457   6.688  11.223
 6500W        W74718  33.352   9.789   1.451
 6501W        W74719  26.071  34.604  14.747
 6502W        W74720  30.815  19.073   4.152
 6503W        W74721  23.374  12.129  10.646
 6504W        W74722  21.946  42.144  12.691
 6505W        W74723  30.583  33.890   3.709
 6506W        W74724  39.732  13.939  12.869
 6507W        W74725  20.770  16.138   4.135
 6508W        W74726  33.362  19.147  14.480
 6509W        W74727  36.137  38.398  14.100
 6510W        W74728  37.439   8.228   3.384
 6511W        W74729   0.004  13.655   0.358
 6512W        W74730   3.311   2.330  10.705
 6513W        W74731  34.004   7.947   2.295
 6514W        W74732  22.264  37.656   3.133
 6515W        W74733   8.766  31.452   3.653
 6516W        W74734   3.139  14.050   0.501
 6517W        W74735  27.711  11.996  11.957
 6518W        W74736  42.902   2.181  14.124
 6519W        W74737  30.552  10.594   0.779
 6520W        W74738  19.613  18.203  10.765
 6521W        W74739  12.819  32.990   4.465
 6522W        W74740  33.966   8.000  13.915
 6523W        W74741  27.146  11.554  12.516
 6524W        W74742   7.426  42.949   2.748
 6525W        W74743   0.629   3.001  11.191
 6526W        W74744   7.814  20.624   1.446
 6527W        W74745  23.856  31.970  11.848
 6528W        W74746   2.998  41.845  12.109
 6529W        W74747  42.589   8.822   1.670
 6530W        W74748  24.702  18.484  14.766
 6531W        W74749  32.130  13.218  14.481
 6532W        W74750  29.422  44.857  12.013
 6533W        W74751  13.239  37.944  13.306
 6534W        W74752  25.639  39.299  13.593
 6535W        W74753   1.382  33.582   1.735
 6536W        W74754  36.437   7.687   4.223
 6537W        W74755  42.924  41.712  11.519
 6538W        W74756   3.856  36.991  11.961
 6539W        W74757  15.772   5.186   2.221
 6540W        W74758   7.372  30.500  14.457
 6541W        W74759  31.992  34.436   1.716
 6542W        W74760   0.593  35.511  12.689
 6543W        W74761  32.339  16.729   0.383
 6544W        W74762  44.520  21.445  10.249
 6545W        W74763  41.433  39.984  12.824
 6546W        W74764   3.682   4.825   2.161
 6547W        W74765  35.498  21.243  13.446
 6548W        W74766  22.440  22.289  12.966
 6549W        W74767  18.291  26.527   2.800
 6550W        W74768   4.364  39.321  12.284
 6551W        W74769   4.449  22.260   2.686
 6552W        W74770  22.941  37.278  11.162
 6553W        W74771  18.055  43.089  10.460
 6554W        W74772  36.065  18.375   2.451
 6555W        W74773   6.449  19.982   2.820
 6556W        W74774  37.356  22.277  14.261
 6557W        W74775  41.507  42.012   1.891
 6558W        W74776   7.172  37.293   4.315
 6559W        W74777  11.916  38.435   3.311
 6560W        W74778  11.939  16.129   3.698
 6561W        W74779  25.670  36.388  10.549
 6562W        W74780   5.093  29.627   4.897
 6563W        W74781  27.547  27.667   3.092
 6564W        W74782  37.096   3.287   0.696
 6565W        W74783  26.729  20.711   9.902
 6566W        W74784  19.649  24.479   0.837
 6567W        W74785  44.192  12.299   4.380
 6568W        W74786  28.424  41.609   3.657
 6569W        W74787  30.960   0.914  11.532
 6570W        W74788  14.119  18.344  12.606
 6571W        W74789   0.942   4.381   2.800
 6572W        W74790   7.959  20.631  11.092
 6573W        W74791  30.904   9.792   0.526
 6574W        W74792   4.468  14.129  14.976
 6575W        W74793   8.778  32.376  13.416
 6576W        W74794  38.609   7.460  13.342
 6577W        W74795  43.097  28.525   4.693
 6578W        W74796  28.771  28.087  12.764
 6579W        W74797  19.017  34.251   4.281
 6580W        W74798  27.935   8.245  11.566
 6581W        W74799  16.585  11.705  13.292
 6582W        W74800   5.284   8.331   0.049
 6583W        W74801  33.807  11.319   4.081
 6584W        W74802  27.972   3.866  14.916
 6585W        W74803  21.984  14.867   3.715
 6586W        W74804  26.544  33.963   3.042
 6587W        W74805  10.148  34.396  10.824
 6588W        W74806  12.426  21.106   4.569
 6589W        W74807  22.569  43.827   0.734
 6590W        W74808  18.469  25.256   2.377
 6591W        W74809  12.885  44.569   3.631
 6592W        W74810  22.498  11.203  12.046
 6593W        W74811  39.150  42.557   1.689
 6594W        W74812   5.273   8.389   2.329
 6595W        W74813  38.020   1.884   4.354
 6596W        W74814  44.314   9.369  14.882
 6597W        W74815  29.014  11.071   3.300
 6598W        W74816  20.335  32.440   2.976
 6599W        W74817  38.207  24.061   0.365
 6600W        W74818  29.125  41.335   1.843
 6601W        W74819  42.305  11.159   4.058
 6602W        W74820   4.204  33.026   2.177
 6603W        W74821  23.257  23.275   4.139
 6604W        W74822  32.512  31.849   2.477
 6605W        W74823  38.353   3.798  14.776
 6606W        W74824  36.864  18.741   2.139
 6607W        W74825  42.557  30.859  10.801
 6608W        W74826  13.153  27.681  11.688
 6609W        W74827  20.437   1.676  10.757
 6610W        W74828  30.433  33.296   4.530
 6611W        W74829   8.286  35.084   4.406
 6612W        W74830  35.141  31.019  14.949
 6613W        W74831  44.475   9.817   4.221
 6614W        W74832  41.313   7.815  11.501
 6615W        W74833  25.164  26.648   1.629
 6616W        W74834  33.527  24.095  12.961
 6617W        W74835  21.041  37.981   1.411
 6618W        W74836   5.005   7.824  14.233
 6619W        W74837  33.131  41.920   3.933
 6620W        W74838  20.075  19.758  11.042
 6621W        W74839  43.268  17.713   1.679
 6622W        W74840  11.358  34.119   2.227
 6623W        W74841  42.855  43.551  10.968
 6624W        W74842   6.012  22.688  11.115
 6625W        W74843  25.199  25.588  11.965
 6626W        W74844  39.871  40.619  11.948
 6627W        W74845  18.129  22.908   3.810
 6628W        W74846  16.168  23.538  14.281
 6629W        W74847  31.811  35.430  13.926
 6630W        W74848  34.664  12.329  11.112
 6631W        W74849  26.491  41.868  11.267
 6632W        W74850  30.547  26.963   1.305
 6633W        W74851   0.873  19.977   2.255
 6634W        W74852   0.712   5.444  14.437
 6635W        W74853  24.672  13.827  13.904
 6636W        W74854  40.328  40.360   4.132
 6637W        W74855  24.617  39.993  14.128
 6638W        W74856  39.121   3.563   5.012
 6639W        W74857  31.087   8.253   3.184
 6640W        W74858  21.649  19.803  13.969
 6641W        W74859  34.128  41.012  14.600
 6642W        W74860   7.831  29.582   3.686
 6643W        W74861  30.547  18.209  14.888
 6644W        W74862  37.170  11.436  11.437
 6645W        W74863   4.433  26.532  12.406
 6646W        W74864  41.679  40.721   2.269
 6647W        W74865  39.585   1.239  13.015
 6648W        W74866  29.759  16.600   0.484
 6649W        W74867  21.141  44.856   0.674
 6650W        W74868  38.577  15.314  12.618
 6651W        W74869   3.935  41.888  11.046
 6652W        W74870  16.219   0.149  12.018
 6653W        W74871   8.251   7.995  13.527
 6654W        W74872  17.576  37.005   3.558
 6655W        W74873   1.472   6.939  13.912
 6656W        W74874  39.780  17.042  13.529
 6657W        W74875  11.223   4.022  11.030
 6658W        W74876  41.444  20.133  10.787
 6659W        W74877  11.248  29.154   2.145
 6660W        W74878  28.257  16.834  10.525
 6661W        W74879  16.621  16.782   1.322
 6662W        W74880  32.152   3.602   4.050
 6663W        W74881  42.686   3.245   0.259
 6664W        W74882  35.869  13.877   0.387
 6665W        W74883  44.841  25.590   3.062
 6666W        W74884  37.476   6.314  14.946
 6667W        W74885  13.416  36.915   3.224
 6668W        W74886  42.498  40.747   3.362
 6669W        W74887   1.877  21.841   2.754
 6670W        W74888  35.050  11.548  12.937
 6671W        W74889   9.469  13.549  13.384
 6672W        W74890  22.513  31.915   0.301
 6673W        W74891  37.022  25.898   0.949
 6674W        W74892  37.594   7.342   4.345
 6675W        W74893  12.873  25.614   3.260
 6676W        W74894   3.252  22.028   3.328
 6677W        W74895  20.586   0.963  14.059
 6678W        W74896  37.273  42.874   4.222
 6679W        W74897  27.379  24.935   1.919
 6680W        W74898  24.688   5.913   4.349
 6681W        W74899  15.579  43.972  14.122
 6682W        W74900  29.427   4.203   0.335
 6683W        W74901  10.331  20.105   0.195
 6684W        W74902  15.109   4.578   2.247
 6685W        W74903  44.353   1.006  13.707
 6686W        W74904  10.648  25.441  10.377
 6687W        W74905  25.559   7.981  14.757
 6688W        W74906  34.771  19.777  10.689
 6689W        W74907  40.081  20.879   2.151
 6690W        W74908  42.536  39.545   1.801
 6691W        W74909  34.952  32.370   3.127
 6692W        W74910  20.619  13.995   1.896
 6693W        W74911  14.496  42.342  12.086
 6694W        W74912  25.622   2.669   0.888
 6695W        W74913  32.013   8.484  11.662
 6696W        W74914  20.985   6.767   3.292
 6697W        W74915  14.342  10.612  12.990
 6698W        W74916  23.477  40.845   1.358
 6699W        W74917   0.979  41.102   0.844
 6700W        W74918   6.617  39.169   9.792
 6701W        W74919   9.733   5.747  11.189
 6702W        W74920  33.923  40.805   1.820
 6703W        W74921  39.607  42.172  11.015
 6704W        W74922  36.409  16.163   3.770
 6705W        W74923  28.217  30.193   2.337
 6706W        W74924  13.659  37.354   1.903
 6707W        W74925  36.830  15.933   1.953
 6708W        W74926  44.754   0.555   1.344
 6709W        W74927  19.974  40.327   0.506
 6710W        W74928  27.465  17.281   2.796
 6711W        W74929  40.172  41.254  12.482
 6712W        W74930  15.223  35.641  14.022
 6713W        W74931  25.000   5.896   3.582
 6714W        W74932  27.580  41.304   0.036
 6715W        W74933   5.897  12.249  14.216
 6716W        W74934  38.434  12.377   2.241
 6717W        W74935  21.260  19.296   4.963
 6718W        W74936   9.562   6.198   4.747
 6719W        W74937  18.016  14.601   1.768
 6720W        W74938   8.207  24.512   4.601
 6721W        W74939  29.747   8.587   3.526
 6722W        W74940  33.153  10.545  11.830
 6723W        W74941  18.162  30.646  11.745
 6724W        W74942  38.260  10.228   2.414
 6725W        W74943  42.761  11.154  13.916
 6726W        W74944  36.992  24.470   0.865
 6727W        W74945  41.154   2.094   4.999
 6728W        W74946  16.675   3.732   2.746
 6729W        W74947  38.588  36.003  14.636
 6730W        W74948  29.272  28.148  12.611
 6731W        W74949  31.388  23.172   4.344
 6732W        W74950   1.928  15.277  10.171
 6733W        W74951  40.540  36.902   1.814
 6734W        W74952   2.662  38.871  13.321
 6735W        W74953  38.852  25.809   4.668
 6736W        W74954  12.142   4.947   0.548
 6737W        W74955   7.992  41.493  12.864
 6738W        W74956  11.578  32.608  14.025
 6739W        W74957  28.853  21.781  12.149
 6740W        W74958  43.895  21.542   2.583
 6741W        W74959  17.112  33.068  11.849
 6742W        W74960  24.518  12.635   0.470
 6743W        W74961  30.478  28.979   2.694
 6744W        W74962  32.514  30.500   1.634
 6745W        W74963   3.967  37.161   1.566
 6746W        W74964  28.661  44.056   0.104
 6747W        W74965  16.800  25.921  14.306
 6748W        W74966  27.092  21.380  14.785
 6749W        W74967  11.603  27.312  12.510
 6750W        W74968  31.062  12.764   3.690
 6751W        W74969  33.948   1.696   3.285
 6752W        W74970  29.033  14.614   3.249
 6753W        W74971  22.540  15.609  13.820
 6754W        W74972  24.954  25.144   3.120
 6755W        W74973   8.232  28.192  11.961
 6756W        W74974  36.102  39.526   0.695
 6757W        W74975  19.066  18.723   3.446
 6758W        W74976  38.903  43.314   3.710
 6759W        W74977  32.103  38.088  11.391
 6760W        W74978  34.839  39.493  14.026
 6761W        W74979  44.476  33.736   2.246
 6762W        W74980  22.582   5.353  13.368
 6763W        W74981   3.678  22.324  13.892
 6764W        W74982   5.499  14.099   4.551
 6765W        W74983  29.873   6.412   2.685
 6766W        W74984  11.552  44.019  10.623
 6767W        W74985  20.930  38.556  10.056
 6768W        W74986  15.241  41.981  11.133
 6769W        W74987  34.738  30.409   2.408
 6770W        W74988  30.426  36.627  11.543
 6771W        W74989  32.817   5.789   1.906
 6772W        W74990  26.596  32.636  10.525
 6773W        W74991   6.057  44.337   9.699
 6774W        W74992  39.926  26.334  12.577
 6775W        W74993   8.439  41.261   1.445
 6776W        W74994  14.845   0.466  13.176
 6777W        W74995  18.607  23.280  13.523
 6778W        W74996  35.807  42.357  11.990
 6779W        W74997   7.212   3.303   2.832
 6780W        W74998  39.549  23.466   1.311
 6781W        W74999  40.453   6.176   2.069
 6782W        W75000  18.438  24.670  12.676
 6783W        W75001  37.378  28.152   2.230
 6784W        W75002  13.256  37.137  12.021
 6785W        W75003  41.955  11.851   4.308
 6786W        W75004  11.190  18.038  14.498
 6787W        W75005  32.450  17.649   1.492
 6788W        W75006  17.528  29.577   4.098
 6789W        W75007  26.655   5.406   2.351
 6790W        W75008  29.155  15.210   0.451
 6791W        W75009  34.491  21.075  13.301
 6792W        W75010  39.978   0.992   0.885
 6793W        W75011  19.105   4.027  14.333
 6794W        W75012   3.781  26.926   4.704
 6795W        W75013  36.152  23.130   3.744
 6796W        W75014   5.462  37.883   4.076
 6797W        W75015  35.920   9.561   3.278
 6798W        W75016   3.506  33.532   1.201
 6799W        W75017  16.045  32.044   3.563
 6800W        W75018  27.402  28.251   1.282
 6801W        W75019  34.888   5.201   2.728
 6802W        W75020  14.756   7.556   2.821
 6803W        W75021  11.443   5.223   4.289
 6804W        W75022  38.367  34.266  11.738
 6805W        W75023  42.518   7.646   2.756
 6806W        W75024  11.464  39.026   3.925
 6807W        W75025  40.845  13.037   4.164
 6808W        W75026   9.203  17.108   2.748
 6809W        W75027  39.849   0.648  12.025
 6810W        W75028   3.907   1.178   2.213
 6811W        W75029  18.557  30.025   2.209
 6812W        W75030   4.402  41.970   2.054
 6813W        W75031  30.728  11.794   5.250
 6814W        W75032  40.462  17.703  11.550
 6815W        W75033   1.816  17.386  12.097
 6816W        W75034  34.646  40.427   3.905
 6817W        W75035  36.904  37.921   3.164
 6818W        W75036  25.532  41.804  11.311
 6819W        W75037  39.452   0.869  12.296
 6820W        W75038   1.541   7.419  14.494
 6821W        W75039   3.310   8.266  12.038
 6822W        W75040  25.744  35.891  10.683
 6823W        W75041  15.218   6.394   0.710
 6824W        W75042  12.757  40.070   4.121
 6825W        W75043  30.858   4.277  12.813
 6826W        W75044  31.886   8.352   0.795
 6827W        W75045  20.173  38.044   3.645
 6828W        W75046  33.599  13.843   0.752
 6829W        W75047  20.112   4.256   3.195
 6830W        W75048   2.173  41.448   3.081
 6831W        W75049  19.729   5.333  11.954
 6832W        W75050  40.309  29.639  14.429
 6833W        W75051   7.534   4.585   3.276
 6834W        W75052   6.307  37.499  10.969
 6835W        W75053  37.422  38.841   4.210
 6836W        W75054  37.915  41.228  11.222
 6837W        W75055  36.478  32.041   1.139
 6838W        W75056  35.401  14.793  13.523
 6839W        W75057  23.135   3.574  13.364
 6840W        W75058  15.821  31.008  14.597
 6841W        W75059   0.923   1.410  13.102
 6842W        W75060  35.117  20.136  12.544
 6843W        W75061  40.295  27.409  11.996
 6844W        W75062   7.332  27.557  11.240
 6845W        W75063  29.371  11.606  11.607
 6846W        W75064  33.394  30.933   0.469
 6847W        W75065   6.634  43.271   1.899
 6848W        W75066  33.425  14.376  12.061
 6849W        W75067  37.686  20.962  12.661
 6850W        W75068  18.208  35.933  14.899
 6851W        W75069  14.960  17.073   0.793
 6852W        W75070  43.963  19.036   3.679
 6853W        W75071  28.311  34.349  13.459
 6854W        W75072  28.527   2.507  12.863
 6855W        W75073   1.453  29.968  14.935
 6856W        W75074  28.356  39.471   3.218
 6857W        W75075  10.554  41.443  14.745
 6858W        W75076  44.878  44.040   2.931
 6859W        W75077   1.789  30.880   0.984
 6860W        W75078   1.709  13.331   4.652
 6861W        W75079  31.945  20.608   1.991
 6862W        W75080  36.432   8.344   3.277
 6863W        W75081   8.248  11.232   4.907
 6864W        W75082  28.552  21.639   2.126
 6865W        W75083   0.772  34.955  11.994
 6866W        W75084  22.306   0.438  13.083
 6867W        W75085  21.706  31.636   0.252
 6868W        W75086  43.259  19.734  13.887
 6869W        W75087  21.613  30.032   1.838
 6870W        W75088  38.805  16.679  13.359
 6871W        W75089  37.585   9.334   2.275
 6872W        W75090  40.597  34.410   4.581
 6873W        W75091  34.643   3.779  14.486
 6874W        W75092   1.296  15.130  12.125
 6875W        W75093  31.790   3.898  10.947
 6876W        W75094  36.464  10.317   1.667
 6877W        W75095  10.686   6.885   3.811
 6878W        W75096  14.698   0.568   4.484
 6879W        W75097  44.488   0.332  12.466
 6880W        W75098  15.858  16.287  14.004
 6881W        W75099  18.921  41.157   3.584
 6882W        W75100  36.871  31.124  14.208
 6883W        W75101   9.784   6.775  12.900
 6884W        W75102  39.069  35.192  14.974
 6885W        W75103  31.114  30.606   1.337
 6886W        W75104  24.897   1.075  11.222
 6887W        W75105  34.439  13.535   3.751
 6888W        W75106  34.856  35.956   0.004
 6889W        W75107  17.778  32.764   0.443
 6890W        W75108  15.728  40.081  14.368
 6891W        W75109  18.013  36.407   0.654
 6892W        W75110  32.055  11.411  14.562
 6893W        W75111  43.419  44.210   4.861
 6894W        W75112  20.690  20.012   0.554
 6895W        W75113   2.440   8.775   4.657
 6896W        W75114  27.953  37.314   1.005
 6897W        W75115  26.662  36.762   1.265
 6898W        W75116  36.805  25.606   2.728
 6899W        W75117  19.989  30.686   0.888
 6900W        W75118  33.830  30.109  10.346
 6901W        W75119  27.969   1.173  12.591
 6902W        W75120   8.910  16.829   0.179
 6903W        W75121   1.287  36.391   2.298
 6904W        W75122  19.405  13.250   0.780
 6905W        W75123  28.176  10.729  11.873
 6906W        W75124  19.044  35.736  10.320
 6907W        W75125  18.598  27.981   4.511
 6908W        W75126  23.501  28.005   0.968
 6909W        W75127  28.426  29.972  11.120
 6910W        W75128  36.869  41.512   3.721
 6911W        W75129   4.890  10.700  12.876
 6912W        W75130   5.002   9.093  11.469
 6913W        W75131  26.749  43.757   0.508
 6914W        W75132  27.820  20.589  12.190
 6915W        W75133  35.602  27.985   4.315
 6916W        W75134  22.637  20.062   1.788
 6917W        W75135  30.915  15.884   2.726
 6918W        W75136   8.294  38.487   4.039
 6919W        W75137   3.963   2.026   0.765
 6920W        W75138  34.808  40.557   2.321
 6921W        W75139  23.173  42.490  11.553
 6922W        W75140  40.595  12.818   1.659
 6923W        W75141  40.607   7.497  10.718
 6924W        W75142  41.421   1.139   2.629
 6925W        W75143   6.810  42.839   0.787
 6926W        W75144  12.216  12.672  13.530
 6927W        W75145  12.734  27.938  12.494
 6928W        W75146   0.923  27.333   1.260
 6929W        W75147  39.333  20.971  14.069
 6930W        W75148  20.809  36.602  11.688
 6931W        W75149  40.487  34.087  14.306
 6932W        W75150   4.648  37.365   4.971
 6933W        W75151  41.829   8.700  14.948
 6934W        W75152  24.165  44.861  13.874
 6935W        W75153   4.549  31.181  13.498
 6936W        W75154  21.632  43.400  12.885
 6937W        W75155  10.591  42.841  14.939
 6938W        W75156  10.376  17.364  10.903
 6939W        W75157  12.344  11.278  13.977
 6940W        W75158  35.022  15.661   0.826
 6941W        W75159   9.953   6.744  11.165
 6942W        W75160  41.912  31.694   4.917
 6943W        W75161   9.946  44.050  12.952
 6944W        W75162  26.589  39.829   2.930
 6945W        W75163  33.216  20.576  13.085
 6946W        W75164  32.019  37.628   1.101
 6947W        W75165  41.855  14.980  11.422
 6948W        W75166  10.665  41.000   3.266
 6949W        W75167   4.069  14.587   4.524
 6950W        W75168  33.754  33.783  13.400
 6951W        W75169   2.652   7.650  13.629
 6952W        W75170  16.588   2.162  14.036
 6953W        W75171  13.842  33.066   1.849
 6954W        W75172   3.131  44.305  11.189
 6955W        W75173  41.885  29.284  11.580
 6956W        W75174   7.426   3.726   2.583
 6957W        W75175  29.141  38.838  13.543
 6958W        W75176  20.100  38.584  11.292
 6959W        W75177   1.181   7.431  10.731
 6960W        W75178   0.364  23.967  14.504
 6961W        W75179  19.330  15.474   0.003
 6962W        W75180  37.063  40.140  11.818
 6963W        W75181  12.924  23.588  11.026
 6964W        W75182   6.461  43.269   5.321
 6965W        W75183  19.567   8.976  10.688
 6966W        W75184  44.369   0.893  14.224
 6967W        W75185  27.071  25.237   9.735
 6968W        W75186  34.872  19.767   4.505
 6969W        W75187  17.502  18.612   3.094
 6970W        W75188  38.025   0.210  14.874
 6971W        W75189  28.941  35.596   0.335
 6972W        W75190  33.016  40.546   4.321
 6973W        W75191  38.968   7.201   0.026
 6974W        W75192   3.306  19.066  10.924
 6975W        W75193  42.077  40.454   0.397
 6976W        W75194   8.301   5.316  10.780
 6977W        W75195  43.987   2.423  11.532
 6978W        W75196  44.334  44.846  12.165
 6979W        W75197  13.329  16.728   0.511
 6980W        W75198  22.936  30.953   4.689
 6981W        W75199  23.988  17.694   4.103
 6982W        W75200  25.452  17.899  12.438
 6983W        W75201  14.502  44.330   3.180
 6984W        W75202  20.233   7.390  10.278
 6985W        W75203  44.231   9.380   3.313
 6986W        W75204  37.538  41.760   0.306
 6987W        W75205  32.913   9.146   4.121
 6988W        W75206   1.815   5.775  14.832
 6989W        W75207  18.781  16.586   2.322
 6990W        W75208  40.202  13.801   3.174
 6991W        W75209  17.758  17.036  11.909
 6992W        W75210  34.454  43.240   4.607
 6993W        W75211  27.470  15.391  11.524
 6994W        W75212  28.192  24.745   2.350
 6995W        W75213  10.925  22.257   4.190
 6996W        W75214  32.024  22.543   4.762
 6997W        W75215  30.892  21.202   3.217
 6998W        W75216  33.525  41.995   1.376
 6999W        W75217   1.606  23.277   2.901
 7000W        W75218  22.129   4.481  12.500
 7001W        W75219   5.676  26.980  13.890
 7002W        W75220  41.023  43.892   1.712
 7003W        W75221  39.539   8.164   1.403
 7004W        W75222   7.388  17.860   0.810
 7005W        W75223  44.356  19.448  13.755
 7006W        W75224  26.598  23.557   2.700
 7007W        W75225  21.254  39.717  12.425
 7008W        W75226  24.058  40.297   1.201
 7009W        W75227  37.306  15.812   2.605
 7010W        W75228  30.106   5.843   0.016
 7011W        W75229  29.337   0.964  10.567
 7012W        W75230  23.153  23.017   3.090
 7013W        W75231  35.661  25.618  11.406
 7014W        W75232   0.003   5.949  14.162
 7015W        W75233  29.924  41.709  14.996
 7016W        W75234  27.061  34.321   1.282
 7017W        W75235  22.027  30.508  14.923
 7018W        W75236  37.873  42.295  11.238
 7019W        W75237  27.004  28.848   1.749
 7020W        W75238  19.693  23.687   2.867
 7021W        W75239  20.627  14.957   3.406
 7022W        W75240  20.133   6.189   3.238
 7023W        W75241   9.226  32.324   2.799
 7024W        W75242  27.114   0.643   2.430
 7025W        W75243  14.642  23.917   0.370
 7026W        W75244  20.655  26.952   2.855
 7027W        W75245  44.821  18.936   2.083
 7028W        W75246  12.813  10.889   3.281
 7029W        W75247  35.573  11.628  11.618
 7030W        W75248  13.169   6.696  13.176
 7031W        W75249  27.475  40.652   3.737
 7032W        W75250   2.932   1.973   1.411
 7033W        W75251  13.179  19.020  13.976
 7034W        W75252  33.881  34.432   1.227
 7035W        W75253   3.889  38.046   2.378
 7036W        W75254   3.765  44.524  12.940
 7037W        W75255   7.704  39.806   1.415
 7038W        W75256  42.890  33.985   1.708
 7039W        W75257  13.235  24.489   2.666
 7040W        W75258  18.222   7.680   1.684
 7041W        W75259  10.659  33.584   4.654
 7042W        W75260  40.880  39.352  12.357
 7043W        W75261  20.571   3.800  10.587
 7044W        W75262  22.046  11.843   2.208
 7045W        W75263  36.890   8.273  12.823
 7046W        W75264   3.897  29.319   0.920
 7047W        W75265   1.025  33.017  11.383
 7048W        W75266  25.891   2.372  11.429
 7049W        W75267   9.889   6.201   0.575
 7050W        W75268   9.557  40.533   2.507
 7051W        W75269   1.402  44.212  11.473
 7052W        W75270   6.613  15.721  12.638
 7053W        W75271  11.339  40.990   4.719
 7054W        W75272  12.332  19.328  11.018
 7055W        W75273  24.025  13.392  14.909
 7056W        W75274  30.886  41.490  11.102
 7057W        W75275  25.148   3.560  14.378
 7058W        W75276  20.326  37.513   0.380
 7059W        W75277  39.083  44.273  13.951
 7060W        W75278  33.430  27.560  14.565
 7061W        W75279   4.156  36.521   3.649
 7062W        W75280  42.027  12.724  13.115
 7063W        W75281  20.242  24.562  11.490
 7064W        W75282  18.641  30.149  12.134
 7065W        W75283  11.568   2.922   0.415
 7066W        W75284  44.962  12.115  14.305
 7067W        W75285  43.454   8.325   0.872
 7068W        W75286  38.080  18.107  13.108
 7069W        W75287   8.720  42.558   0.691
 7070W        W75288  37.071  20.778  13.030
 7071W        W75289  44.773  44.948  10.562
 7072W        W75290  25.505  38.984   1.871
 7073W        W75291  12.937  27.641   5.059
 7074W        W75292   3.414  44.381  14.996
 7075W        W75293  40.394  43.778   2.360
 7076W        W75294   6.869  30.919  12.594
 7077W        W75295  38.529   0.345  14.868
 7078W        W75296  27.222  36.679  13.983
 7079W        W75297  10.119  28.325  12.047
 7080W        W75298  17.704   2.685  12.567
 7081W        W75299  20.764  17.323  11.041
 7082W        W75300  36.541  29.085   4.591
 7083W        W75301  42.674  30.406  12.065
 7084W        W75302  11.990  18.217  12.066
 7085W        W75303  21.232  32.988  11.131
 7086W        W75304  21.035  39.244  12.435
 7087W        W75305  18.655   5.513  11.058
 7088W        W75306  24.748  36.860   0.968
 7089W        W75307  39.467  38.040  10.991
 7090W        W75308  14.780  13.762  13.375
 7091W        W75309  43.338  15.580  12.831
 7092W        W75310  15.621  23.027  11.694
 7093W        W75311   7.774  20.003  13.867
 7094W        W75312   0.412  28.399  11.958
 7095W        W75313  43.893  34.844  13.873
 7096W        W75314  43.906   6.927   4.185
 7097W        W75315   9.120   8.403  13.014
 7098W        W75316   6.795   3.211  12.006
 7099W        W75317  30.412  27.188  12.898
 7100W        W75318  21.115  35.539   1.714
 7101W        W75319  30.662  25.953   1.188
 7102W        W75320  40.827  25.260  11.345
 7103W        W75321  25.195   5.023   4.078
 7104W        W75322   2.321   7.000  13.939
 7105W        W75323  29.477  16.563   4.998
 7106W        W75324   7.760  16.814   3.828
 7107W        W75325  20.558   3.440  12.628
 7108W        W75326  36.620  35.114  14.130
 7109W        W75327  35.022  36.402  14.358
 7110W        W75328  37.168  28.222   0.427
 7111W        W75329  34.560  38.055   3.288
 7112W        W75330  16.516   0.268   3.655
 7113W        W75331  45.000  13.982  13.919
 7114W        W75332  20.220  18.344   1.333
 7115W        W75333  31.001  25.470  14.953
 7116W        W75334   8.897  36.472  14.519
 7117W        W75335   4.176  32.989   3.715
 7118W        W75336  18.274  11.429   2.841
 7119W        W75337  42.283  30.962  11.234
 7120W        W75338  30.594  11.900  13.455
 7121W        W75339  33.953  39.963   0.795
 7122W        W75340  28.197  29.989   3.755
 7123W        W75341  11.641  21.807   3.274
 7124W        W75342  23.283  17.798  11.076
 7125W        W75343   8.708   2.934   1.192
 7126W        W75344  21.986   2.837  12.420
 7127W        W75345  28.877   5.454   3.718
 7128W        W75346  12.953  13.562  13.116
 7129W        W75347  20.489  36.962   1.469
 7130W        W75348  30.476  38.860  14.344
 7131W        W75349  39.030   7.267  13.582
 7132W        W75350  41.280  17.142   1.673
 7133W        W75351  19.568  25.613   4.629
 7134W        W75352   9.613  10.678   1.175
 7135W        W75353  42.901  35.380  14.512
 7136W        W75354  13.440   0.549   5.062
 7137W        W75355  10.969   7.086  13.928
 7138W        W75356  44.458  11.782  12.795
 7139W        W75357   4.001  16.875  14.997
 7140W        W75358  25.455  24.174  11.965
 7141W        W75359  14.617  37.153  11.610
 7142W        W75360  15.121  27.881  12.355
 7143W        W75361  34.788  39.451  11.040
 7144W        W75362   0.559  15.681   0.333
 7145W        W75363  16.943  30.112  12.094
 7146W        W75364  23.174  14.072  13.055
 7147W        W75365  39.912  20.946  14.873
 7148W        W75366  16.157   1.029   4.562
 7149W        W75367   2.252   6.420   0.404
 7150W        W75368   1.268   2.902   0.003
 7151W        W75369  19.236  25.267  10.861
 7152W        W75370   3.847  29.282  10.975
 7153W        W75371  29.563   2.477   4.604
 7154W        W75372  31.048  30.094   2.760
 7155W        W75373  12.211  40.897   0.455
 7156W        W75374  14.741  16.570   2.324
 7157W        W75375  28.158  37.529   1.433
 7158W        W75376  24.295  35.669  11.332
 7159W        W75377  11.413  13.336  13.794
 7160W        W75378  13.243  30.431   2.248
 7161W        W75379  23.209   0.325  11.650
 7162W        W75380  29.011  21.724   0.817
 7163W        W75381  37.990  27.166   0.885
 7164W        W75382  32.488  22.347   4.626
 7165W        W75383   5.171  19.701  11.691
 7166W        W75384  35.662  39.464   4.181
 7167W        W75385  36.542  38.353  13.033
 7168W        W75386   5.245  33.722  14.181
 7169W        W75387  39.570  28.663  11.049
 7170W        W75388  10.277  35.440  13.799
 7171W        W75389   5.375   8.891   0.779
 7172W        W75390  38.682   1.412   3.642
 7173W        W75391  40.080  19.242   1.291
 7174W        W75392  39.877  34.532   2.761
 7175W        W75393  10.835  19.490  14.437
 7176W        W75394   3.784   8.986  12.907
 7177W        W75395  33.211  38.487  11.616
 7178W        W75396   0.348  28.695  13.292
 7179W        W75397  36.238  36.182  11.259
 7180W        W75398  25.684  14.081   1.708
 7181W        W75399  22.302  26.195   5.115
 7182W        W75400   3.104  24.681  13.374
 7183W        W75401  13.360   7.217   3.225
 7184W        W75402  23.433  38.634  13.770
 7185W        W75403  16.587   5.313  14.350
 7186W        W75404  35.645  24.432  14.466
 7187W        W75405  27.888  10.400  12.579
 7188W        W75406  15.629  35.856  13.648
 7189W        W75407  25.031  40.290  12.921
 7190W        W75408  35.052  42.155   2.295
 7191W        W75409  32.007   2.064  12.432
 7192W        W75410  35.726  39.055  12.348
 7193W        W75411   7.168   1.714  10.646
 7194W        W75412  17.603   4.939  13.170
 7195W        W75413  35.377  26.237  12.482
 7196W        W75414   0.756  26.723  11.180
 7197W        W75415  36.094  44.294  14.593
 7198W        W75416  14.655  33.558   3.587
 7199W        W75417   0.720   1.154  14.339
 7200W        W75418  44.528  32.786  12.813
 7201W        W75419  35.275  33.007   0.414
 7202W        W75420  34.982  22.792   3.405
 7203W        W75421   7.920  27.181  14.960
 7204W        W75422  18.090  31.436   3.314
 7205W        W75423   4.791  24.063   3.117
 7206W        W75424  15.557  29.492  11.709
 7207W        W75425  43.806  24.677   3.275
 7208W        W75426  17.887   6.539   3.187
 7209W        W75427  28.513   0.970   4.057
 7210W        W75428  43.359  15.301  12.058
 7211W        W75429  23.068  12.570   4.131
 7212W        W75430  38.866  34.371   0.166
 7213W        W75431   9.994  27.927  11.471
 7214W        W75432  27.121   5.328   3.392
 7215W        W75433   1.968  15.663   4.601
 7216W        W75434   6.885  40.509  11.583
 7217W        W75435  33.649  31.565  10.481
 7218W        W75436  37.992  39.970  13.868
 7219W        W75437   9.616  43.170   1.740
 7220W        W75438   0.290  17.163   3.952
 7221W        W75439  34.449  12.176  12.038
 7222W        W75440  17.356   8.882  12.582
 7223W        W75441  25.647  29.494  13.284
 7224W        W75442  16.196   7.678  12.318
 7225W        W75443  40.038  15.684   2.092
 7226W        W75444  22.917  43.992   2.995
 7227W        W75445   8.177  33.448   1.348
 7228W        W75446   6.278  23.149   0.793
 7229W        W75447  30.111  31.975   0.892
 7230W        W75448   0.787   4.630  10.868
 7231W        W75449  35.968  29.198   0.250
 7232W        W75450  23.660  18.532   0.437
 7233W        W75451  18.756  11.149  14.759
 7234W        W75452   1.780   8.775   3.909
 7235W        W75453  10.858  31.143   2.834
 7236W        W75454  27.597  30.063  11.648
 7237W        W75455  38.866  28.441  11.602
 7238W        W75456  15.163  17.319  14.348
 7239W        W75457  13.879   6.188   4.326
 7240W        W75458  16.586  42.445   1.881
 7241W        W75459   8.089  35.275  11.024
 7242W        W75460  15.561  35.259   2.162
 7243W        W75461  19.513  44.313  12.095
 7244W        W75462  34.934  21.233  12.042
 7245W        W75463   1.256  34.631  14.822
 7246W        W75464  21.030   9.871  13.869
 7247W        W75465  31.376  42.960   0.777
 7248W        W75466  13.163  10.737  13.281
 7249W        W75467  39.293  26.640   4.150
 7250W        W75468  43.249  23.167   2.211
 7251W        W75469  30.750  15.795  11.543
 7252W        W75470  35.516  37.302   3.138
 7253W        W75471   5.804  19.043   0.474
 7254W        W75472   5.226  39.714   0.731
 7255W        W75473  18.214  28.994   2.775
 7256W        W75474   8.653  27.505   3.806
 7257W        W75475  43.566  40.916  12.433
 7258W        W75476  43.793  15.914   1.790
 7259W        W75477  36.226  21.679  11.869
 7260W        W75478  15.510  40.778  11.880
 7261W        W75479   1.759  38.410   1.877
 7262W        W75480  22.094  15.185  10.859
 7263W        W75481   4.287  27.504  10.680
 7264W        W75482  15.633   4.878  13.478
 7265W        W75483  24.053  27.907  11.392
 7266W        W75484  28.675  35.137  10.747
 7267W        W75485   6.943  16.667  11.497
 7268W        W75486  22.595  10.278  13.070
 7269W        W75487  42.781  28.513  11.953
 7270W        W75488  22.705  28.081  13.274
 7271W        W75489   9.294   7.109   1.182
 7272W        W75490  16.214  25.134   0.770
 7273W        W75491  15.556  31.449   1.824
 7274W        W75492   6.605   8.490  12.987
 7275W        W75493  36.575  20.903  10.293
 7276W        W75494  35.332   6.891   2.768
 7277W        W75495  31.365  19.098   0.129
 7278W        W75496   4.840  14.699   0.903
 7279W        W75497  42.539  37.826   0.398
 7280W        W75498  21.561  17.149  10.780
 7281W        W75499  42.440  40.968  13.935
 7282W        W75500  34.608  14.074   2.243
 7283W        W75501   1.319  11.043  13.023
 7284W        W75502  39.827  29.485  14.319
 7285W        W75503   4.181  39.707  14.086
 7286W        W75504   7.336   5.056   3.263
 7287W        W75505   2.801  41.014   1.830
 7288W        W75506  44.819  43.745  13.228
 7289W        W75507  27.927  11.436  13.085
 7290W        W75508   7.760  28.255   1.383
 7291W        W75509   2.411  37.603  13.764
 7292W        W75510  17.834   5.041   0.521
 7293W        W75511  15.608   7.224   1.205
 7294W        W75512   4.013  12.533   4.127
 7295W        W75513  14.918  22.189  13.365
 7296W        W75514  38.325  31.131   2.306
 7297W        W75515  34.181   4.455   1.368
 7298W        W75516  10.795  32.045  10.930
 7299W        W75517  11.108  35.795   1.972
 7300W        W75518   7.293  44.625  12.434
 7301W        W75519  38.290  10.207   0.678
 7302W        W75520  10.769  26.042   2.924
 7303W        W75521   1.345   0.276  13.478
 7304W        W75522  16.283  22.976   1.958
 7305W        W75523  35.024  24.147  10.824
 7306W        W75524  20.121  41.956  13.349
 7307W        W75525  24.204  26.723  14.585
 7308W        W75526  11.349  43.000  12.448
 7309W        W75527  23.841  31.411   2.818
 7310W        W75528  26.691  36.219   1.229
 7311W        W75529  27.234  39.317   0.941
 7312W        W75530  42.924   7.272  12.414
 7313W        W75531  29.875   5.961  12.087
 7314W        W75532  20.555   7.716   1.224
 7315W        W75533  42.367  38.412   3.657
 7316W        W75534  28.243  28.426  12.037
 7317W        W75535   0.346  26.410  14.825
 7318W        W75536   6.115  44.380  14.926
 7319W        W75537  27.106  34.824   0.394
 7320W        W75538  36.547  24.219   3.339
 7321W        W75539  41.642  16.560  13.427
 7322W        W75540  25.314  40.014  13.474
 7323W        W75541   9.387   9.640   1.151
 7324W        W75542  28.892   5.391   1.594
 7325W        W75543  13.123   9.764   2.186
 7326W        W75544  28.656  42.617   1.799
 7327W        W75545   8.826  35.782   0.261
 7328W        W75546  34.113   6.786   0.434
 7329W        W75547  39.955  33.380  10.650
 7330W        W75548  17.572  36.264   2.302
 7331W        W75549   1.372  42.382   3.761
 7332W        W75550   3.876  11.740   3.611
 7333W        W75551  25.031  20.236   4.025
 7334W        W75552  36.389  36.274   0.517
 7335W        W75553  35.640  17.616  12.155
 7336W        W75554   6.515   3.997   1.466
 7337W        W75555  22.577  14.366  11.985
 7338W        W75556  17.772   6.241   4.453
 7339W        W75557  44.888  42.135   4.569
 7340W        W75558  43.292  24.092  12.565
 7341W        W75559   5.822  34.922   2.744
 7342W        W75560  15.330  35.167  13.758
 7343W        W75561  14.608  14.971  11.838
 7344W        W75562  30.608  25.169  14.786
 7345W        W75563  21.061  30.133  12.326
 7346W        W75564  16.357  31.495  13.467
 7347W        W75565  37.398  33.366   3.822
 7348W        W75566  42.847  44.719   2.144
 7349W        W75567  38.786  36.969   3.264
 7350W        W75568  13.686  32.838   4.126
 7351W        W75569  13.139   9.375   4.647
 7352W        W75570  23.781  42.688   0.400
 7353W        W75571  37.785   9.854   0.258
 7354W        W75572   4.361  33.512  11.571
 7355W        W75573  13.598   9.812  14.785
 7356W        W75574   6.407  21.626  13.457
 7357W        W75575   2.190   4.209   3.616
 7358W        W75576  24.316  41.309   0.181
 7359W        W75577  42.699  26.155  13.836
 7360W        W75578  17.103  18.272   3.179
 7361W        W75579  27.561  28.130  11.949
 7362W        W75580  28.307  24.791  10.642
 7363W        W75581   7.227  38.333  11.093
 7364W        W75582  30.497  28.822  12.629
 7365W        W75583   5.435   5.182  11.561
 7366W        W75584   1.640  38.863  11.134
 7367W        W75585  22.245   8.715  13.972
 7368W        W75586  43.038  38.130  14.807
 7369W        W75587  15.769  17.559  13.897
 7370W        W75588   0.526   8.801  14.537
 7371W        W75589  36.334  22.483   4.696
 7372W        W75590  42.008  22.759   0.063
 7373W        W75591  38.802  18.144  11.929
 7374W        W75592  38.032  44.250  11.937
 7375W        W75593  10.767  15.108  12.594
 7376W        W75594  25.747  25.808   4.010
 7377W        W75595   3.328   6.914   0.439
 7378W        W75596  15.344  36.336  11.433
 7379W        W75597  11.434  20.088   4.585
 7380W        W75598  41.858  18.586  14.668
 7381W        W75599  35.463  13.091   1.294
 7382W        W75600  34.189  37.896   1.385
 7383W        W75601   3.987  39.979   1.432
 7384W        W75602   4.841  24.243  14.338
 7385W        W75603  20.600  40.436   1.605
 7386W        W75604   0.158  36.434   2.181
 7387W        W75605  29.565  31.404  10.663
 7388W        W75606  19.635  32.052   0.829
 7389W        W75607  19.734  33.978   1.327
 7390W        W75608  28.368   7.379   1.524
 7391W        W75609   7.238  37.540   2.897
 7392W        W75610  24.616  41.033   3.208
 7393W        W75611  43.314  44.970  14.045
 7394W        W75612  24.177  20.700   4.733
 7395W        W75613  16.130   4.874   0.396
 7396W        W75614   1.834  41.815   0.665
 7397W        W75615  25.488  17.998   3.424
 7398W        W75616  42.519   2.915   3.869
 7399W        W75617  28.431  43.314  11.460
 7400W        W75618  35.573  13.590   4.101
 7401W        W75619  29.603  35.525   0.868
 7402W        W75620   7.416   7.248  12.913
 7403W        W75621  43.806  23.101   0.223
 7404W        W75622  11.559  30.722   5.066
 7405W        W75623  35.842   4.251   2.357
 7406W        W75624  35.485  18.264   3.825
 7407W        W75625  33.918   7.240  11.211
 7408W        W75626  27.383  28.892  14.081
 7409W        W75627  31.634  39.439   0.461
 7410W        W75628  35.883  44.450   0.035
 7411W        W75629   5.256  43.005  10.254
 7412W        W75630   7.307  16.345   0.717
 7413W        W75631  17.945  17.867  12.905
 7414W        W75632  24.809   8.143  11.950
 7415W        W75633  33.062  32.472   1.184
 7416W        W75634  16.525  34.537   0.808
 7417W        W75635   9.470   5.163   2.611
 7418W        W75636  14.257  27.698   3.252
 7419W        W75637  22.288   9.513   4.109
 7420W        W75638   8.875  43.572   3.581
 7421W        W75639  35.678  16.303  14.209
 7422W        W75640  25.012  28.401   3.636
 7423W        W75641   5.204  15.316   2.711
 7424W        W75642  11.130  43.929  11.493
 7425W        W75643   6.472  41.278  10.342
 7426W        W75644  39.088  30.251   0.391
 7427W        W75645  24.902  15.305   4.937
 7428W        W75646   7.334   6.890   2.912
 7429W        W75647  33.239  16.326   3.746
 7430W        W75648   2.063  34.423   0.176
 7431W        W75649  14.307  22.912   4.086
 7432W        W75650   4.456  26.410   3.793
 7433W        W75651  43.862  44.905  10.465
 7434W        W75652  11.409  23.951   5.057
 7435W        W75653  41.865  11.503   4.673
 7436W        W75654  29.655  27.011  11.462
 7437W        W75655  31.200  27.004  12.511
 7438W        W75656  43.250  31.886   0.136
 7439W        W75657  32.101  20.737  10.712
 7440W        W75658  30.386  21.728   1.962
 7441W        W75659  27.516  17.689  12.066
 7442W        W75660   9.953  31.036  11.522
 7443W        W75661  25.759   8.399   0.345
 7444W        W75662  40.946  38.535   2.772
 7445W        W75663  24.291  25.249  12.208
 7446W        W75664  35.541  35.886  10.569
 7447W        W75665  29.505   3.258   4.994
 7448W        W75666   0.963   3.850  14.304
 7449W        W75667  29.576  41.360  13.102
 7450W        W75668  15.088  15.322   1.378
 7451W        W75669  38.175  34.982  12.406
 7452W        W75670   2.781  28.402  12.119
 7453W        W75671  33.460   5.364   3.122
 7454W        W75672  40.960   4.414   0.800
 7455W        W75673  29.681  17.789   2.791
 7456W        W75674  10.227  37.440  12.464
 7457W        W75675   9.672  15.327   0.890
 7458W        W75676  43.268  26.339   2.311
 7459W        W75677   5.128  43.309  10.661
 7460W        W75678  32.507   6.218  13.363
 7461W        W75679  18.885  35.531   2.889
 7462W        W75680  42.043   8.301  12.105
 7463W        W75681  37.084  18.523  14.410
 7464W        W75682  27.766   7.701  10.780
 7465W        W75683  12.808  35.004  13.327
 7466W        W75684  24.279   0.383  14.416
 7467W        W75685  15.531  38.072   3.321
 7468W        W75686  38.798   2.504  12.595
 7469W        W75687  43.579  33.593   0.934
 7470W        W75688  19.504  40.312  11.486
 7471W        W75689  31.573  30.079   1.819
 7472W        W75690   4.792   6.214   3.038
 7473W        W75691  10.543  38.078   4.204
 7474W        W75692  33.666  35.556   2.895
 7475W        W75693   6.750  33.111  10.757
 7476W        W75694  36.629   7.430   2.762
 7477W        W75695  44.546  42.229  12.484
 7478W        W75696  36.651  10.722   0.317
 7479W        W75697   1.779  36.928  10.813
 7480W        W75698   3.783  20.088   2.239
 7481W        W75699  25.117  40.931   4.955
 7482W        W75700  30.986   6.655   0.296
 7483W        W75701  21.746  44.321   3.211
 7484W        W75702  23.584  18.804  11.588
 7485W        W75703  19.286  37.833   1.398
 7486W        W75704  26.071  29.645  13.564
 7487W        W75705   8.412  18.163   0.093
 7488W        W75706  28.623  18.018   0.001
 7489W        W75707  37.671  16.562   3.667
 7490W        W75708  34.581   8.398  14.444
 7491W        W75709  44.690  44.651   1.861
 7492W        W75710  17.837   3.258  10.941
 7493W        W75711  43.813  32.197   2.874
 7494W        W75712  15.935  39.776   3.704
 7495W        W75713   2.531  34.942   0.852
 7496W        W75714  11.883  29.199   2.824
 7497W        W75715  30.842  44.087  13.000
 7498W        W75716  42.424   8.856   4.683
 7499W        W75717  13.755  26.610  13.955
 7500W        W75718  23.166   9.605   3.657
 7501W        W75719  23.966  21.265  13.924
 7502W        W75720  42.321  28.637   2.709
 7503W        W75721  44.401  41.989   3.436
 7504W        W75722  13.431  39.906   4.780
 7505W        W75723   4.950  36.820  12.910
 7506W        W75724  22.094  10.135  14.435
 7507W        W75725  13.460  25.241  12.551
 7508W        W75726   2.574   1.987  13.023
 7509W        W75727  18.515  21.979  11.049
 7510W        W75728   6.598  44.779  13.562
 7511W        W75729  40.865  29.935   2.870
 7512W        W75730  28.500  19.346  11.103
 7513W        W75731  33.189  34.982   0.056
 7514W        W75732  19.079  15.692   3.934
 7515W        W75733  29.557  14.584   1.776
 7516W        W75734  30.728  44.540   1.233
 7517W        W75735  15.041  20.692  12.515
 7518W        W75736  17.928  35.014  10.885
 7519W        W75737  22.689   1.526   2.360
 7520W        W75738  40.961  35.317   1.869
 7521W        W75739   1.295  38.437   1.275
 7522W        W75740  43.233  40.844  10.863
 7523W        W75741  40.996  28.081   2.658
 7524W        W75742   8.743  14.108  14.262
 7525W        W75743  15.086  38.643  14.393
 7526W        W75744  12.304  30.872   1.873
 7527W        W75745  28.033  41.435  13.325
 7528W        W75746  42.159  36.708   4.523
 7529W        W75747  27.526  18.796   0.895
 7530W        W75748   4.486  21.601  13.404
 7531W        W75749   3.524  10.268  14.050
 7532W        W75750  21.000  41.890   0.841
 7533W        W75751  36.084  35.562   3.152
 7534W        W75752  26.457   2.862  10.805
 7535W        W75753  27.856   6.225   3.734
 7536W        W75754  23.530  20.882   0.483
 7537W        W75755  12.373   4.207   1.240
 7538W        W75756  32.893  10.707  12.531
 7539W        W75757   2.703  21.699  12.467
 7540W        W75758   9.871   1.300   3.100
 7541W        W75759  30.114  32.385  14.008
 7542W        W75760  25.772  26.000   3.180
 7543W        W75761   9.580  29.459   4.217
 7544W        W75762  16.603  15.860  13.823
 7545W        W75763  20.274   7.717  12.722
 7546W        W75764  35.561  13.905   0.807
 7547W        W75765  30.140  23.501  11.597
 7548W        W75766  40.826  33.031   4.044
 7549W        W75767  38.095  42.427  13.102
 7550W        W75768  38.533  12.087  11.449
 7551W        W75769   5.730  41.996   2.799
 7552W        W75770   8.889  43.890  11.968
 7553W        W75771   3.108  15.094   3.748
 7554W        W75772  22.661  17.742  12.591
 7555W        W75773  14.502   1.396  13.412
 7556W        W75774   6.901  43.480  11.645
 7557W        W75775  39.879  43.854  14.869
 7558W        W75776  21.757  21.368   3.381
 7559W        W75777  16.779  10.616  10.712
 7560W        W75778  27.155   1.880  11.951
 7561W        W75779  33.354  13.598  12.479
 7562W        W75780   5.327   8.946   1.293
 7563W        W75781  43.714  12.634   0.225
 7564W        W75782  28.629  39.742   1.378
 7565W        W75783  30.855  10.720   0.348
 7566W        W75784  11.096  15.171   3.542
 7567W        W75785  42.885   2.367   4.530
 7568W        W75786  32.523  13.173  13.468
 7569W        W75787   1.988   5.386  13.496
 7570W        W75788  11.266  26.430  14.005
 7571W        W75789   7.611   9.339  13.345
 7572W        W75790  29.023  21.023  11.196
 7573W        W75791  13.569  17.376   1.895
 7574W        W75792  27.673  37.992   2.275
 7575W        W75793  15.406  20.640   0.047
 7576W        W75794  10.362  11.666   3.651
 7577W        W75795   9.938   0.295  11.602
 7578W        W75796  11.417  20.928  13.497
 7579W        W75797   2.455   7.773  14.961
 7580W        W75798  44.891  39.825  14.508
 7581W        W75799  33.875  33.377   4.741
 7582W        W75800  34.505  44.835   2.664
 7583W        W75801  18.181   1.294   3.546
 7584W        W75802  38.529  26.986  12.047
 7585W        W75803  38.705   3.454   5.356
 7586W        W75804  23.812  31.617   4.645
 7587W        W75805   6.854  23.515   3.669
 7588W        W75806  19.100  33.999  11.735
 7589W        W75807  36.469  44.997  11.911
 7590W        W75808  29.371   9.500   1.481
 7591W        W75809   9.500  11.662   9.847
 7592W        W75810  24.032   5.334  10.561
 7593W        W75811  15.644  27.945   3.239
 7594W        W75812   2.421   0.050  12.849
 7595W        W75813  10.855  40.473   1.153
 7596W        W75814   5.422  23.640   2.976
 7597W        W75815  24.730   7.578   2.813
 7598W        W75816   9.125   2.959  10.675
 7599W        W75817  19.739  41.359   0.794
 7600W        W75818  39.842  19.513  13.439
 7601W        W75819   8.301  11.579  14.447
 7602W        W75820  21.244  18.163   4.017
 7603W        W75821  20.578   9.863  10.626
 7604W        W75822  21.241  16.317   4.247
 7605W        W75823   5.837  35.533   0.628
 7606W        W75824  12.915  16.715  10.981
 7607W        W75825  33.826  43.433  12.673
 7608W        W75826  29.405  11.133   2.596
 7609W        W75827  20.411   3.557  13.991
 7610W        W75828  11.836  25.992  11.085
 7611W        W75829  34.000  41.376   1.842
 7612W        W75830  28.509  33.519  12.417
 7613W        W75831  41.404  42.304   2.329
 7614W        W75832   7.269   6.133   1.098
 7615W        W75833  19.530  34.793  12.907
 7616W        W75834  32.496  17.586  14.067
 7617W        W75835  21.711  13.129  10.601
 7618W        W75836  26.256  24.077  11.337
 7619W        W75837   5.578   1.720  13.008
 7620W        W75838  40.439   4.263   4.187
 7621W        W75839  26.660  21.694   0.424
 7622W        W75840  26.560   0.324   1.257
 7623W        W75841  34.729   5.992   1.719
 7624W        W75842  17.533   1.960   1.947
 7625W        W75843  44.400  12.727   2.222
 7626W        W75844  24.125  11.320   1.141
 7627W        W75845   3.471   3.398   1.381
 7628W        W75846  29.103  43.756   0.222
 7629W        W75847  33.165  27.473  12.938
 7630W        W75848  41.877  33.180  12.091
 7631W        W75849   3.958  12.208  14.861
 7632W        W75850  30.354  38.518   2.291
 7633W        W75851  13.641  19.857   3.954
 7634W        W75852  36.047  14.595   4.662
 7635W        W75853  31.039   2.361   2.257
 7636W        W75854  15.225  43.380   0.322
 7637W        W75855  10.929  13.258   1.276
 7638W        W75856  15.868  35.001   0.347
 7639W        W75857  42.417  32.837  14.823
 7640W        W75858  12.543  34.925   3.199
 7641W        W75859  33.028   0.827  13.701
 7642W        W75860  12.793  24.721   2.024
 7643W        W75861  37.305  40.481  12.166
 7644W        W75862  34.202  26.480   3.681
 7645W        W75863   5.476  41.475  12.478
 7646W        W75864  44.060  26.278  14.669
 7647W        W75865  41.507  15.304  11.290
 7648W        W75866  26.467  34.280  14.919
 7649W        W75867  28.630   9.185   2.863
 7650W        W75868   8.251   0.553   3.263
 7651W        W75869   4.003  20.812   2.769
 7652W        W75870  35.671  37.800  12.062
 7653W        W75871  19.981  37.482  10.189
 7654W        W75872  40.421  26.766   3.682
 7655W        W75873  11.160  18.341  14.088
 7656W        W75874   5.883  17.745  11.637
 7657W        W75875   5.158   9.785   0.795
 7658W        W75876  31.670  20.135  13.879
 7659W        W75877  22.293  14.224   2.456
 7660W        W75878  15.371  20.298   4.118
 7661W        W75879  25.936  41.451   1.595
 7662W        W75880  43.546  35.016  14.438
 7663W        W75881   0.927  11.305   3.076
 7664W        W75882  38.062   7.966   0.325
 7665W        W75883   8.433  21.110  13.735
 7666W        W75884  18.261  39.978   0.558
 7667W        W75885  44.627   3.035  10.234
 7668W        W75886  42.781  26.479  10.835
 7669W        W75887   9.810  15.000  12.512
 7670W        W75888  11.894  17.645  12.991
 7671W        W75889  41.716  17.311   0.264
 7672W        W75890   0.592  26.218   3.851
 7673W        W75891  11.925   4.180   3.661
 7674W        W75892  17.129  30.701   2.253
 7675W        W75893   5.889  44.708   2.658
 7676W        W75894  35.862  13.268  10.745
 7677W        W75895  23.193  32.424   2.168
 7678W        W75896   3.466  33.550  13.445
 7679W        W75897  11.663  37.803  13.411
 7680W        W75898   8.105   9.021  11.128
 7681W        W75899  38.224  32.808   4.592
 7682W        W75900  14.867  19.233   3.206
 7683W        W75901  20.476  15.172   2.949
 7684W        W75902  18.515  35.310   5.249
 7685W        W75903   7.325  42.283  12.867
 7686W        W75904  26.629  25.999   3.122
 7687W        W75905  18.018  12.116   4.031
 7688W        W75906   7.166  15.658  14.781
 7689W        W75907  36.912  24.261   3.805
 7690W        W75908   0.932  39.427   0.799
 7691W        W75909  24.459  31.852   3.218
 7692W        W75910  15.952  20.950   5.122
 7693W        W75911  28.988  34.079   4.997
 7694W        W75912  38.481   9.121  11.635
 7695W        W75913   5.427  10.122  11.052
 7696W        W75914  11.079   1.383  12.077
 7697W        W75915  35.014   9.298   2.262
 7698W        W75916   0.105   8.943   3.275
 7699W        W75917   8.732  26.593   0.880
 7700W        W75918   4.099  25.522   4.841
 7701W        W75919  18.355  18.481   3.389
 7702W        W75920  28.755  21.071   0.271
 7703W        W75921  21.452  27.877   2.408
 7704W        W75922  11.778  41.310  13.387
 7705W        W75923   9.264   5.319   1.315
 7706W        W75924  13.301  34.872  14.504
 7707W        W75925  26.192  17.298  12.527
 7708W        W75926   3.178   2.846  14.724
 7709W        W75927  23.312   1.514   3.184
 7710W        W75928  38.788   2.797  14.848
 7711W        W75929  44.727  36.896   3.014
 7712W        W75930  10.949   4.826   2.658
 7713W        W75931  15.694   9.659  12.941
 7714W        W75932   4.477  21.114   0.541
 7715W        W75933  43.320  15.167  14.945
 7716W        W75934  31.067  39.057  13.606
 7717W        W75935   4.009  40.046   0.312
 7718W        W75936  30.500   3.992   2.202
 7719W        W75937  11.141  20.524  12.053
 7720W        W75938  32.409  27.929   0.927
 7721W        W75939  19.763  16.136  13.549
 7722W        W75940  17.348  22.815   1.133
 7723W        W75941  37.671  16.810   1.414
 7724W        W75942   8.522   4.438   3.208
 7725W        W75943  21.184  15.801   4.129
 7726W        W75944  41.673  24.711   3.116
 7727W        W75945  27.726  32.284   4.667
 7728W        W75946  29.488  36.458  13.302
 7729W        W75947  13.582  31.412  11.045
 7730W        W75948  23.426   9.936   1.313
 7731W        W75949   1.284  23.366   1.380
 7732W        W75950   2.770  33.547   1.906
 7733W        W75951  14.084  31.628   1.672
 7734W        W75952   5.950  13.928   1.167
 7735W        W75953  27.870   3.683   3.653
 7736W        W75954  37.634  16.306  13.882
 7737W        W75955  42.430   8.869  14.233
 7738W        W75956   1.004  37.608  11.683
 7739W        W75957  16.814  34.221  13.052
 7740W        W75958  43.249   8.357   4.136
 7741W        W75959   8.815   2.028   0.999
 7742W        W75960  25.057  35.345   2.362
 7743W        W75961   9.892  32.022  10.680
 7744W        W75962  31.664  17.669  13.355
 7745W        W75963  22.216  16.766   4.096
 7746W        W75964  17.683  20.165   0.035
 7747W        W75965   1.876   8.759   3.392
 7748W        W75966  35.110  41.522   2.324
 7749W        W75967  29.950   4.152  11.474
 7750W        W75968   5.226  10.796   2.333
 7751W        W75969  31.604  10.090   4.168
 7752W        W75970  30.970  29.504   4.312
 7753W        W75971   1.812  38.987  14.785
 7754W        W75972  19.602  29.693  13.348
 7755W        W75973  16.186  32.900  13.480
 7756W        W75974   3.224  20.605   0.590
 7757W        W75975  32.434  15.470   2.236
 7758W        W75976  31.942   3.006   2.701
 7759W        W75977   6.576  13.161  13.314
 7760W        W75978  13.878  23.532   2.915
 7761W        W75979  14.258  19.671  11.663
 7762W        W75980  16.515  13.072  13.056
 7763W        W75981  43.605  22.581   0.329
 7764W        W75982   2.268   4.454  14.610
 7765W        W75983  37.912   3.450   1.048
 7766W        W75984  43.351  19.682   4.581
 7767W        W75985  35.160   9.900   3.077
 7768W        W75986  43.316  44.850   2.350
 7769W        W75987  38.823  25.395   4.314
 7770W        W75988  11.191  20.024  14.843
 7771W        W75989  14.730  19.053   1.819
 7772W        W75990  13.963  23.480  11.292
 7773W        W75991   0.694   2.502  11.214
 7774W        W75992  33.919  33.125   4.297
 7775W        W75993  35.595   7.336   2.890
 7776W        W75994  16.233   3.109  11.351
 7777W        W75995  17.718  35.083   1.530
 7778W        W75996  24.274   3.862  14.038
 7779W        W75997   8.621  44.951  12.425
 7780W        W75998   1.952  10.108  14.881
 7781W        W75999   2.750   5.830   1.030
 7782W        W76000  43.257   4.148  13.247
 7783W        W76001  38.953  26.701  12.100
 7784W        W76002  11.451  33.640  14.528
 7785W        W76003  30.945  39.557   4.255
 7786W        W76004  14.378  26.853   0.502
 7787W        W76005  44.538   5.824  12.067
 7788W        W76006  38.686  23.977  12.373
 7789W        W76007  36.942  20.296  12.953
 7790W        W76008  29.094   2.468  14.988
 7791W        W76009   9.979  20.130  13.713
 7792W        W76010  29.063  30.112   3.833
 7793W        W76011  44.366  28.609  10.749
 7794W        W76012  35.344  37.425   3.733
 7795W        W76013  29.282  23.827   5.610
 7796W        W76014  15.816  36.100   4.140
 7797W        W76015  18.067  44.321   3.185
 7798W        W76016  32.519   3.181   5.294
 7799W        W76017   3.342  24.167  12.219
 7800W        W76018   1.384  21.048   0.716
 7801W        W76019   0.788  11.270   4.096
 7802W        W76020  19.941  29.860   1.646
 7803W        W76021  10.618   9.747   2.912
 7804W        W76022  12.175  39.825  13.785
 7805W        W76023  16.218  25.111   2.301
 7806W        W76024  15.563  35.414   3.053
 7807W        W76025   6.397   9.425  13.817
 7808W        W76026   0.456  21.978   4.941
 7809W        W76027   3.700   0.793   1.896
 7810W        W76028   9.900  43.440   3.665
 7811W        W76029  43.283   0.382  13.426
 7812W        W76030  23.816  34.098   3.988
 7813W        W76031  29.551  37.535  11.097
 7814W        W76032  41.476  23.598  14.343
 7815W        W76033   0.048   1.666   4.633
 7816W        W76034  37.195  42.881   0.998
 7817W        W76035  41.750  44.190  10.790
 7818W        W76036  20.774  21.634   4.033
 7819W        W76037  15.919  35.566   0.554
 7820W        W76038  17.045  19.141  10.862
 7821W        W76039  32.245  25.045   2.501
 7822W        W76040  25.938  41.587  11.063
 7823W        W76041  28.603   3.273   4.973
 7824W        W76042  29.668  16.591  14.962
 7825W        W76043  18.778  41.353  13.885
 7826W        W76044  12.116  37.309   4.608
 7827W        W76045  38.017  15.747   1.380
 7828W        W76046  44.478  41.256  13.419
 7829W        W76047  24.744   0.094   4.150
 7830W        W76048   0.052  39.290   3.319
 7831W        W76049   1.531  29.595   3.670
 7832W        W76050   3.843  19.982  13.144
 7833W        W76051  17.357  42.894  14.311
 7834W        W76052  19.335  19.624  12.840
 7835W        W76053  41.616  40.330   5.014
 7836W        W76054   0.521  33.364   4.898
 7837W        W76055   4.143  14.488  12.928
 7838W        W76056  10.271   7.945   5.102
 7839W        W76057  18.365  39.544   0.813
 7840W        W76058  32.336   4.490   0.820
 7841W        W76059  18.162  41.955  14.841
 7842W        W76060   5.233  28.319  13.301
 7843W        W76061  12.708  38.867   4.223
 7844W        W76062  21.903  18.224   2.744
 7845W        W76063  24.542  31.192   2.432
 7846W        W76064  30.570  41.792   2.876
 7847W        W76065   5.884  42.212  13.046
 7848W        W76066  23.093  26.084  10.643
 7849W        W76067  20.043  28.490   4.733
 7850W        W76068   8.741  36.343   5.171
 7851W        W76069   1.258  27.588   2.209
 7852W        W76070  14.049  20.126  11.516
 7853W        W76071  25.787  31.341  14.314
 7854W        W76072  12.403   3.156  12.968
 7855W        W76073  16.478  33.474   3.467
 7856W        W76074  15.237   4.926   3.685
 7857W        W76075  12.267   3.408   4.530
 7858W        W76076   3.871   2.215   2.311
 7859W        W76077  18.243  16.317   2.686
 7860W        W76078  15.134  24.200  14.711
 7861W        W76079   7.394  38.848   0.245
 7862W        W76080   4.399   8.632  12.556
 7863W        W76081  22.520  29.996   4.608
 7864W        W76082  27.113  10.829  13.128
 7865W        W76083  23.660   6.685  14.027
 7866W        W76084   8.160   6.103   2.346
 7867W        W76085  28.519  24.382  14.039
 7868W        W76086  39.933   5.871   9.721
 7869W        W76087   2.955  13.820  11.594
 7870W        W76088   5.759   8.283  14.273
 7871W        W76089  25.769  41.649  11.749
 7872W        W76090  37.348  33.145  10.721
 7873W        W76091  31.675  35.422   4.413
 7874W        W76092  11.694  19.557   0.949
 7875W        W76093   1.449  24.765   4.803
 7876W        W76094  30.148  16.293  10.152
 7877W        W76095  24.851  41.510   3.149
 7878W        W76096   7.361  13.614  14.876
 7879W        W76097  28.015   1.528  13.851
 7880W        W76098  22.290  32.254  13.521
 7881W        W76099  20.983   5.354  11.465
 7882W        W76100  37.770  12.624  11.498
 7883W        W76101  21.982  13.400  14.994
 7884W        W76102   5.831  12.108   4.110
 7885W        W76103  27.425   1.262   0.514
 7886W        W76104   7.013  29.565  13.325
 7887W        W76105  35.933  43.732  13.317
 7888W        W76106   5.412  40.480   4.612
 7889W        W76107  41.475   8.181   1.405
 7890W        W76108  37.561   5.766  10.468
 7891W        W76109  17.996   2.463   2.328
 7892W        W76110  19.456  31.374  14.511
 7893W        W76111  20.300  16.663   1.825
 7894W        W76112  20.080  16.029  11.086
 7895W        W76113  21.648  36.342  14.263
 7896W        W76114  27.494  18.598  10.929
 7897W        W76115  34.963  36.557  13.856
 7898W        W76116  30.623  29.853  10.275
 7899W        W76117  24.778  42.285   4.460
 7900W        W76118  27.530  44.306  10.726
 7901W        W76119  10.621   3.754  11.584
 7902W        W76120  13.148   8.500  14.805
 7903W        W76121  13.273  33.194   4.132
 7904W        W76122  31.911  22.970  13.953
 7905W        W76123  41.352  17.821   4.852
 7906W        W76124  43.011  30.474   2.832
 7907W        W76125  31.588   6.444  13.712
 7908W        W76126  34.561  28.075   0.488
 7909W        W76127  44.832  17.649   4.564
 7910W        W76128  44.286  43.702  11.426
 7911W        W76129  31.231  28.855  11.471
 7912W        W76130   4.228  42.232   3.333
 7913W        W76131  39.059  19.074  11.596
 7914W        W76132  31.210  34.558  14.033
 7915W        W76133  10.891  12.862   0.886
 7916W        W76134  20.641  28.494   0.985
 7917W        W76135  13.655  32.135  11.944
 7918W        W76136  21.463  16.888   3.749
 7919W        W76137  24.894  35.819   1.483
 7920W        W76138  31.504  36.121  12.676
 7921W        W76139  12.299  44.452   4.992
 7922W        W76140  37.371  25.889  12.421
 7923W        W76141  31.569   7.177   0.276
 7924W        W76142   3.013   0.978   1.349
 7925W        W76143  36.021   5.184   2.563
 7926W        W76144  18.275  12.083   3.597
 7927W        W76145   8.247  37.598   1.233
 7928W        W76146  11.680  29.510   1.960
 7929W        W76147  18.819  12.151   4.436
 7930W        W76148  19.834  16.286   0.947
 7931W        W76149  14.934  35.677   2.258
 7932W        W76150  28.947  19.952  10.521
 7933W        W76151  23.613   0.016  11.703
 7934W        W76152  39.921  12.810   3.711
 7935W        W76153  28.249   7.205   4.253
 7936W        W76154   3.474  25.691   0.802
 7937W        W76155  36.273  35.418  12.075
 7938W        W76156  24.466  40.236  13.331
 7939W        W76157  20.478  13.655   0.456
 7940W        W76158   7.800   4.160  11.487
 7941W        W76159  23.440   5.121   2.796
 7942W        W76160  37.432  39.305   1.875
 7943W        W76161  33.605   4.523  12.586
 7944W        W76162  22.614   0.735  14.963
 7945W        W76163   6.853  19.640   4.129
 7946W        W76164  13.228   0.935  14.497
 7947W        W76165   1.575  36.953   4.477
 7948W        W76166  28.485   8.198   4.064
 7949W        W76167  21.799   6.788   1.852
 7950W        W76168  16.687   6.794   0.916
 7951W        W76169  23.594  20.117  14.285
 7952W        W76170  15.177  31.019  12.038
 7953W        W76171  27.643  31.588  13.362
 7954W        W76172  32.554  14.777  12.158
 7955W        W76173   0.723  44.623  13.684
 7956W        W76174  33.929  22.469  11.454
 7957W        W76175  33.009   3.890  13.908
 7958W        W76176  33.343  20.291   3.257
 7959W        W76177   4.673  23.091  10.336
 7960W        W76178  29.604  30.141  11.883
 7961W        W76179  16.115  40.964   0.899
 7962W        W76180  11.755  21.581  12.123
 7963W        W76181  32.382  24.455  13.523
 7964W        W76182  31.987  14.824  10.772
 7965W        W76183  23.546  35.333  11.543
 7966W        W76184  35.517  30.599  13.914
 7967W        W76185   4.040  33.014  10.715
 7968W        W76186  23.433   3.887   3.184
 7969W        W76187  14.383   6.859   0.419
 7970W        W76188   6.820  36.974  13.942
 7971W        W76189  39.447   8.162  12.525
 7972W        W76190  19.522   1.442  13.602
 7973W        W76191  35.407   1.731   0.208
 7974W        W76192  23.694   5.128   0.956
 7975W        W76193  39.909  19.600   1.908
 7976W        W76194   3.841  34.326  10.212
 7977W        W76195  37.538  10.382   1.631
 7978W        W76196  28.396  11.766   1.803
 7979W        W76197  21.679  36.976  13.903
 7980W        W76198  13.732  36.182  10.435
 7981W        W76199   9.840  33.171   4.759
 7982W        W76200  32.840  42.466  14.870
 7983W        W76201  26.688  26.141  12.508
 7984W        W76202   0.457  39.784   0.804
 7985W        W76203   8.227   8.814  13.927
 7986W        W76204   7.446  34.964   0.910
 7987W        W76205  19.086   7.865   3.844
 7988W        W76206   4.658  30.312   4.547
 7989W        W76207  39.279  10.270   2.357
 7990W        W76208  27.926  36.653  13.368
 7991W        W76209  22.546  44.474  11.748
 7992W        W76210  13.061  28.144  10.503
 7993W        W76211  31.827  26.557   1.793
 7994W        W76212  34.016   9.982  13.823
 7995W        W76213   0.838  36.160  12.449
 7996W        W76214  26.050  21.529  10.768
 7997W        W76215  16.151  38.028   1.993
 7998W        W76216  40.464  16.644   4.729
 7999W        W76217  20.619  10.491   1.369
 8000W        W76218   8.515   3.088   4.120
 8001W        W76219  28.204   1.577   4.975
 8002W        W76220  44.845  28.048  14.450
 8003W        W76221  42.297   7.605  11.632
 8004W        W76222  27.594  37.674  14.264
 8005W        W76223  13.222  19.110   2.245
 8006W        W76224  30.669  12.792   1.341
 8007W        W76225  39.449  10.962   0.787
 8008W        W76226  39.998   8.524   0.231
 8009W        W76227  32.714  40.976  11.999
 8010W        W76228   7.772  41.558  12.421
 8011W        W76229  31.957  22.149   1.250
 8012W        W76230  35.801  20.106   0.391
 8013W        W76231   4.018  31.033  11.219
 8014W        W76232  39.498  17.320   4.272
 8015W        W76233  10.197   3.870  12.892
 8016W        W76234  34.647  26.422   4.514
 8017W        W76235  11.873  31.824   0.311
 8018W        W76236  23.017  41.890  11.850
 8019W        W76237  28.970  19.327  12.758
 8020W        W76238  28.154  12.510   0.043
 8021W        W76239  26.123  43.477  10.617
 8022W        W76240  29.656   9.562   2.388
 8023W        W76241   6.608   0.091   5.041
 8024W        W76242   4.308  44.452  14.734
 8025W        W76243  30.498  11.636  12.963
 8026W        W76244  17.114  42.764   1.306
 8027W        W76245  22.904  14.158  13.480
 8028W        W76246  27.661   5.285  12.989
 8029W        W76247  34.146  30.992  14.798
 8030W        W76248  24.083  37.532  13.041
 8031W        W76249  31.536  37.913  11.930
 8032W        W76250  37.541   1.715  11.960
 8033W        W76251   9.388  43.513   3.623
 8034W        W76252  15.414  16.113   0.823
 8035W        W76253  11.380  23.137  11.668
 8036W        W76254  21.214   2.940   2.044
 8037W        W76255   6.727  27.089  12.551
 8038W        W76256  12.764  10.527   4.134
 8039W        W76257  39.740  35.525  13.449
 8040W        W76258  17.139  29.339   3.170
 8041W        W76259   4.179  17.301   3.772
 8042W        W76260  40.332  34.518   1.013
 8043W        W76261  18.229  11.039  14.764
 8044W        W76262   2.795  15.844   1.809
 8045W        W76263   3.993  32.965  14.878
 8046W        W76264  42.135  10.935  12.061
 8047W        W76265  39.264  19.163   1.650
 8048W        W76266  14.719  27.256   1.792
 8049W        W76267   0.835  15.993   3.606
 8050W        W76268  42.291  13.118  12.881
 8051W        W76269  34.917  13.301   3.246
 8052W        W76270  24.506  39.667   4.265
 8053W        W76271  12.688   4.901   4.730
 8054W        W76272  40.980  26.446   1.436
 8055W        W76273  31.726  25.004   2.464
 8056W        W76274  23.199  44.252   3.327
 8057W        W76275  38.143   1.014   0.377
 8058W        W76276  31.176  34.485   0.738
 8059W        W76277  22.256   0.176   0.494
 8060W        W76278  18.169  17.350   0.419
 8061W        W76279  35.331   9.795  12.429
 8062W        W76280  23.042  29.658   0.843
 8063W        W76281  31.557   6.319  12.749
 8064W        W76282   6.347  28.483   4.158
 8065W        W76283  37.004  32.121  12.845
 8066W        W76284   0.071  27.679  11.269
 8067W        W76285  30.024   4.772   3.904
 8068W        W76286  33.134  24.245  12.122
 8069W        W76287  30.940  19.205  14.406
 8070W        W76288   8.701  10.128  14.423
 8071W        W76289  22.037  37.504   5.183
 8072W        W76290  11.140  33.831   0.182
 8073W        W76291   2.268  14.792  10.814
 8074W        W76292   0.199   0.845  13.421
 8075W        W76293  44.093  22.177  10.713
 8076W        W76294  27.223  41.834   1.952
 8077W        W76295   3.236  33.007   0.360
 8078W        W76296  43.905  43.010   3.180
 8079W        W76297  38.618  36.434  14.930
 8080W        W76298  30.219  41.419   3.090
 8081W        W76299   1.137   9.632  12.589
 8082W        W76300  17.056  28.156   2.230
 8083W        W76301   5.309  44.838   4.076
 8084W        W76302  13.167  35.411  13.805
 8085W        W76303  15.712  11.710  10.581
 8086W        W76304  22.718   3.338   1.623
 8087W        W76305   5.917  32.071  14.781
 8088W        W76306   1.902  25.058   1.445
 8089W        W76307  35.351   7.466   0.240
 8090W        W76308   6.503  21.682   1.731
 8091W        W76309  17.954  31.936  10.776
 8092W        W76310   8.858   4.563   4.432
 8093W        W76311  18.492  11.650   4.208
 8094W        W76312  13.782  15.839   1.777
 8095W        W76313  14.334  28.084  11.551
 8096W        W76314   3.512  24.074   2.184
 8097W        W76315  19.159  26.464   0.073
 8098W        W76316   3.405  17.644  11.150
 8099W        W76317  36.008   9.125   4.202
 8100W        W76318  15.941  19.089  13.616
 8101W        W76319   0.961  33.956   4.860
 8102W        W76320  13.951  13.020   1.249
 8103W        W76321  20.456  34.821   3.636
 8104W        W76322   2.902  39.292  12.451
 8105W        W76323   8.789   1.939   1.922
 8106W        W76324   2.735  28.962   0.888
 8107W        W76325   2.629  25.899  13.707
 8108W        W76326  18.070  41.981   0.728
 8109W        W76327   1.829  32.446   0.549
 8110W        W76328  41.270  44.364  10.669
 8111W        W76329  22.463  25.202  13.049
 8112W        W76330   4.949  26.999   3.193
 8113W        W76331   6.814  25.713   4.111
 8114W        W76332  25.735  44.698   0.206
 8115W        W76333  24.607  23.968  13.261
 8116W        W76334   1.723  22.838   0.805
 8117W        W76335   7.802  43.474  12.910
 8118W        W76336   6.433  29.971  11.392
 8119W        W76337  28.557  24.540   3.158
 8120W        W76338  31.092  16.814   5.590
 8121W        W76339  34.137  40.423   0.692
 8122W        W76340  30.072   6.664  14.743
 8123W        W76341  35.857  16.430  11.525
 8124W        W76342  32.689  17.164  11.865
 8125W        W76343  35.920  33.592  12.516
 8126W        W76344   7.279  27.463   3.615
 8127W        W76345  12.252  25.194  11.293
 8128W        W76346   0.940  17.836  14.434
 8129W        W76347  12.094   7.847  14.316
 8130W        W76348   1.813  42.806  13.415
 8131W        W76349   7.622  18.958  12.505
 8132W        W76350  21.044   7.584   0.372
 8133W        W76351  13.225  32.807  13.536
 8134W        W76352  34.559  14.872  11.574
 8135W        W76353  21.568  17.052  11.314
 8136W        W76354   8.783  29.124  14.491
 8137W        W76355   2.493  37.806  12.453
 8138W        W76356  17.774  29.990  14.719
 8139W        W76357  28.079  32.667  10.924
 8140W        W76358  10.406   7.040  13.342
 8141W        W76359  23.736   1.719   1.384
 8142W        W76360  34.061   1.798  11.471
 8143W        W76361  32.820  27.901  12.966
 8144W        W76362  30.438  18.266  12.762
 8145W        W76363  44.902  31.852  13.833
 8146W        W76364  33.520  13.122  13.610
 8147W        W76365  23.297  11.254   2.331
 8148W        W76366  41.508  13.717  10.495
 8149W        W76367  31.125  40.536   1.737
 8150W        W76368  20.138  28.542  14.749
 8151W        W76369   7.486  35.052  13.053
 8152W        W76370  33.257  22.285  11.950
 8153W        W76371  42.212  25.120  12.802
 8154W        W76372  28.907  29.115  11.100
 8155W        W76373  24.953   1.211  12.959
 8156W        W76374  30.949  35.589  12.998
 8157W        W76375  24.517  40.574  12.932
 8158W        W76376  24.589   0.970   4.815
 8159W        W76377  24.609  11.904   1.591
 8160W        W76378  23.009  24.668  13.712
 8161W        W76379  16.944  11.988   4.602
 8162W        W76380  25.899  26.255  12.871
 8163W        W76381  41.315  35.399   3.555
 8164W        W76382  20.094   3.737   2.438
 8165W        W76383  24.777   0.253  13.468
 8166W        W76384  31.989  10.413  12.556
 8167W        W76385  29.561  38.330   4.339
 8168W        W76386  18.396   9.903   3.121
 8169W        W76387  41.360   3.830  11.594
 8170W        W76388  12.686  17.514  12.411
 8171W        W76389  36.569  11.211  13.932
 8172W        W76390   7.310  19.234  13.972
 8173W        W76391  40.033  26.561   4.544
 8174W        W76392  25.175  30.620  10.433
 8175W        W76393  28.435  34.046  11.661
 8176W        W76394  36.607   1.540  10.103
 8177W        W76395  26.505  27.591  14.366
 8178W        W76396  22.726  25.629  14.661
 8179W        W76397  10.827  15.278   3.985
 8180W        W76398  35.702  26.998  11.049
 8181W        W76399   3.973   0.429  11.891
 8182W        W76400  41.556  28.657   2.286
 8183W        W76401  31.963   8.441  12.893
 8184W        W76402   6.860  38.508  12.721
 8185W        W76403  19.546   1.281   4.143
 8186W        W76404  43.250   6.835  13.594
 8187W        W76405  16.910  30.426   0.869
 8188W        W76406  26.624  39.531  13.514
 8189W        W76407  41.865  24.678  13.238
 8190W        W76408  29.626  24.167   4.597
 8191W        W76409  22.103  11.927   1.270
 8192W        W76410  12.174  26.864   4.681
 8193W        W76411  10.719   4.140   3.427
 8194W        W76412  27.123  14.972  12.147
 8195W        W76413  36.619   3.209   0.964
 8196W        W76414   3.764  29.555   4.155
 8197W        W76415  21.975  40.852  14.980
 8198W        W76416  11.241  21.025  13.982
 8199W        W76417  29.176  44.306  13.240
 8200W        W76418   5.823   4.195   3.703
 8201W        W76419  19.909  28.687  11.616
 8202W        W76420  19.148   5.663   2.219
 8203W        W76421  13.459  20.819  11.965
 8204W        W76422  25.747  36.751  14.555
 8205W        W76423  24.486  17.389  11.535
 8206W        W76424   2.041  10.640  13.328
 8207W        W76425   9.653  31.528   0.900
 8208W        W76426  41.362  12.687   3.758
 8209W        W76427   0.251  15.522   1.952
 8210W        W76428  19.160  14.769   0.450
 8211W        W76429   2.321  28.037  13.857
 8212W        W76430  23.123  26.737   0.243
 8213W        W76431  23.904  15.659  11.120
 8214W        W76432  21.136  14.614  14.939
 8215W        W76433   3.438  43.650  13.325
 8216W        W76434  22.250   5.954   4.462
 8217W        W76435  25.123  22.680   1.076
 8218W        W76436   7.234  33.865   1.901
 8219W        W76437  10.802   9.710  13.957
 8220W        W76438  31.106  39.890  10.945
 8221W        W76439  42.193  14.398  12.539
 8222W        W76440  10.696  36.945  10.641
 8223W        W76441  26.676  40.466   2.146
 8224W        W76442  37.963  10.433  11.935
 8225W        W76443  29.022  40.806  11.669
 8226W        W76444  15.838  11.415  14.329
 8227W        W76445  43.570  17.768  14.192
 8228W        W76446   7.729  39.333   1.195
 8229W        W76447  28.579  12.273  11.107
 8230W        W76448   8.260  18.756   3.670
 8231W        W76449  36.273  16.369   2.487
 8232W        W76450  15.643  39.900   4.736
 8233W        W76451  41.880   2.079   2.404
 8234W        W76452  28.875  32.346   0.930
 8235W        W76453  27.056  41.906   1.443
 8236W        W76454  17.788  39.928  13.201
 8237W        W76455  38.999  32.532   9.994
 8238W        W76456  39.976  34.960   3.787
 8239W        W76457  36.044   7.313  10.818
 8240W        W76458  44.981  17.590  13.586
 8241W        W76459  32.088  35.534  13.442
 8242W        W76460  38.099   0.173   2.387
 8243W        W76461   9.937  34.990   0.077
 8244W        W76462  38.143   2.236   3.564
 8245W        W76463  26.293   9.531  11.938
 8246W        W76464  14.988   1.291  14.293
 8247W        W76465  37.029  25.917   2.207
 8248W        W76466   0.389   7.392   2.122
 8249W        W76467  11.173   1.409   2.907
 8250W        W76468  19.526  19.012   1.676
 8251W        W76469  27.923  33.476  12.147
 8252W        W76470  32.219   8.216  12.501
 8253W        W76471  23.684  44.237  10.491
 8254W        W76472  30.501  18.040  13.243
 8255W        W76473  20.686  29.478   1.119
 8256W        W76474  28.231  16.197  11.154
 8257W        W76475  35.108  43.961   0.923
 8258W        W76476  41.489  15.267  14.772
 8259W        W76477  12.634  19.818   3.659
 8260W        W76478  10.169   2.186  14.453
 8261W        W76479   1.911  38.578  12.956
 8262W        W76480  39.543   3.970   1.343
 8263W        W76481  43.940   9.152  11.215
 8264W        W76482  13.697  40.032   3.307
 8265W        W76483  33.656  16.566  13.830
 8266W        W76484  31.149  23.779  13.549
 8267W        W76485  39.266  19.683   3.731
 8268W        W76486   1.189  25.498  11.991
 8269W        W76487  14.134  34.285   3.294
 8270W        W76488  38.542  30.047   4.767
 8271W        W76489  44.964  15.166   0.819
 8272W        W76490  11.681  14.214  11.044
 8273W        W76491  33.664  34.867  14.867
 8274W        W76492  12.623  40.914   1.757
 8275W        W76493  23.187  42.833  10.716
 8276W        W76494  42.307  28.459   3.695
 8277W        W76495  38.992   4.377   2.551
 8278W        W76496  31.884  35.273   0.669
 8279W        W76497  41.504  24.184  14.501
 8280W        W76498  36.932  17.711  13.208
 8281W        W76499  29.509  33.451  11.253
 8282W        W76500   6.899  40.904   3.120
 8283W        W76501  19.764  44.454  13.069
 8284W        W76502  39.938   5.333  11.092
 8285W        W76503   6.136  35.998   4.187
 8286W        W76504  21.811   2.265   4.327
 8287W        W76505  34.892  16.368   4.620
 8288W        W76506  10.250  11.819  12.864
 8289W        W76507  36.512  13.100  12.907
 8290W        W76508  39.544   3.007   2.310
 8291W        W76509  35.495  31.967   2.338
 8292W        W76510  42.512  24.690  12.924
 8293W        W76511  14.582  14.875  10.655
 8294W        W76512  15.990  17.757   3.769
 8295W        W76513   1.894  44.599  12.220
 8296W        W76514   1.244  27.148   2.475
 8297W        W76515  23.497  32.001   4.848
 8298W        W76516  10.232   3.376   4.678
 8299W        W76517  32.993   4.525  12.527
 8300W        W76518  37.450  23.984   1.433
 8301W        W76519  40.935   2.243   3.219
 8302W        W76520  37.856  32.113  12.016
 8303W        W76521  23.200  26.953  13.406
 8304W        W76522  14.230   3.040   1.308
 8305W        W76523  40.546  35.130   0.029
 8306W        W76524   2.412  20.610  10.743
 8307W        W76525   1.766  11.152   1.898
 8308W        W76526  31.073   0.904   4.349
 8309W        W76527  24.058   0.234   0.750
 8310W        W76528   8.950  33.941  14.735
 8311W        W76529  27.888  33.720   3.114
 8312W        W76530  28.042  38.260   1.985
 8313W        W76531  25.770   5.994   1.095
 8314W        W76532  43.395  43.091  11.677
 8315W        W76533   1.950  12.085   3.010
 8316W        W76534  28.638  28.648  14.979
 8317W        W76535  33.215  23.634  11.574
 8318W        W76536  12.697  31.163   2.077
 8319W        W76537   6.784   4.410  10.696
 8320W        W76538  30.550  16.109   0.369
 8321W        W76539  11.054  22.158  11.578
 8322W        W76540  13.565   0.349  13.809
 8323W        W76541   2.185  14.854  14.447
 8324W        W76542  15.676  19.224   4.747
 8325W        W76543   9.256  39.877   3.146
 8326W        W76544  24.948   2.412   1.773
 8327W        W76545   9.293  20.321   0.753
 8328W        W76546  42.544  29.250   3.214
 8329W        W76547  29.857  29.614   0.797
 8330W        W76548  28.232   9.312   0.355
 8331W        W76549  34.644  44.039  14.785
 8332W        W76550  41.957  11.226   3.146
 8333W        W76551  12.912  34.160  14.863
 8334W        W76552  20.263  15.309   4.186
 8335W        W76553   7.681   0.401  12.633
 8336W        W76554  18.723   9.071  10.477
 8337W        W76555  15.021  10.878  13.563
 8338W        W76556  34.831   2.003   1.238
 8339W        W76557  18.521  24.211  14.841
 8340W        W76558  25.559  42.034   4.644
 8341W        W76559  37.851  15.483  11.455
 8342W        W76560  31.577  40.716   1.983
 8343W        W76561  28.252   5.813   4.298
 8344W        W76562  36.967   9.550  14.914
 8345W        W76563  13.575  38.323  13.082
 8346W        W76564  39.405  21.997  14.006
 8347W        W76565  21.643  16.817   2.526
 8348W        W76566  27.516  14.151   5.419
 8349W        W76567  24.585   8.850   4.502
 8350W        W76568  26.160  21.703   0.798
 8351W        W76569  21.661  31.103   3.737
 8352W        W76570  21.782   9.491   4.267
 8353W        W76571  23.246  17.309  13.948
 8354W        W76572  12.688  20.213   1.040
 8355W        W76573  42.205  26.340  14.215
 8356W        W76574  20.803  25.218  12.438
 8357W        W76575  19.603  19.382   4.261
 8358W        W76576  18.187  31.468   1.302
 8359W        W76577  31.131  29.940  14.040
 8360W        W76578  34.407  25.960   4.551
 8361W        W76579   6.588  33.661   0.240
 8362W        W76580  27.789  24.703   5.120
 8363W        W76581  21.509   3.379  11.454
 8364W        W76582  26.151   5.120  14.948
 8365W        W76583  25.124  17.825  12.031
 8366W        W76584  27.439  12.851   0.446
 8367W        W76585  24.198  24.388   1.085
 8368W        W76586   9.871  20.180  10.692
 8369W        W76587  35.460  13.439  13.271
 8370W        W76588  29.840  37.992   1.006
 8371W        W76589  10.613  10.751  13.555
 8372W        W76590  17.824  25.225  11.984
 8373W        W76591  24.380  33.997  13.608
 8374W        W76592   6.724   7.507   0.700
 8375W        W76593  16.318  16.283   4.058
 8376W        W76594   0.305  26.889  12.081
 8377W        W76595  33.852  22.703  13.971
 8378W        W76596   5.769  30.727   0.408
 8379W        W76597  26.566  44.361   1.236
 8380W        W76598  28.102  18.149   0.765
 8381W        W76599  35.536  35.274   0.446
 8382W        W76600   9.635   2.822  11.557
 8383W        W76601  13.123  36.148  14.753
 8384W        W76602  16.633  41.974   1.168
 8385W        W76603  29.043  44.273  10.677
 8386W        W76604  11.196   8.141  11.567
 8387W        W76605  43.269  22.561   4.937
 8388W        W76606  31.401  19.455   3.698
 8389W        W76607  40.569   6.079   3.923
 8390W        W76608   6.181  40.248   0.876
 8391W        W76609  32.141  30.477   0.380
 8392W        W76610  39.611  30.284   0.479
 8393W        W76611   7.155  37.522   0.080
 8394W        W76612  25.950  17.461   0.347
 8395W        W76613   0.757  27.957  14.530
 8396W        W76614  22.187  39.022   2.178
 8397W        W76615  10.432  30.830   3.706
 8398W        W76616   3.502  30.049   3.168
 8399W        W76617  31.049   6.424  11.589
 8400W        W76618  31.677   4.746  12.158
 8401W        W76619  20.783   1.189  11.597
 8402W        W76620  27.121   7.922   4.239
 8403W        W76621  33.948  25.922   4.820
 8404W        W76622  38.030  14.259   0.281
 8405W        W76623  36.494  43.789  12.865
 8406W        W76624  27.413  35.589  13.887
 8407W        W76625  34.899   9.962  10.664
 8408W        W76626  29.374  33.417  12.216
 8409W        W76627   9.843  28.205  14.795
 8410W        W76628  18.851  20.074  12.592
 8411W        W76629   2.420  37.653   1.883
 8412W        W76630  19.590  17.034  14.928
 8413W        W76631  40.382  16.277  12.705
 8414W        W76632   8.834  41.574   3.695
 8415W        W76633  15.028   2.904  11.527
 8416W        W76634   8.992   1.486   1.795
 8417W        W76635   2.192   8.056   0.911
 8418W        W76636   1.499   0.952  11.681
 8419W        W76637  31.786  18.696  14.779
 8420W        W76638  37.947   6.506  14.880
 8421W        W76639   7.014   5.668   1.138
 8422W        W76640  10.216  30.909  11.987
 8423W        W76641  36.080  10.625   2.914
 8424W        W76642   6.192  39.805  12.536
 8425W        W76643  31.623  14.369  11.616
 8426W        W76644   7.913  32.146  12.872
 8427W        W76645  40.357  28.419  10.489
 8428W        W76646   7.896   7.946   2.277
 8429W        W76647  22.515   0.936  11.031
 8430W        W76648  40.619  21.693   3.036
 8431W        W76649   0.851   6.779   1.487
 8432W        W76650  16.527  28.448  14.434
 8433W        W76651  40.790   0.370  13.817
 8434W        W76652  44.324   7.833  12.413
 8435W        W76653  21.591  15.776  13.912
 8436W        W76654  33.110  29.222   5.142
 8437W        W76655  18.100  32.525  11.882
 8438W        W76656  34.530   2.608  12.740
 8439W        W76657  39.485   2.255  12.944
 8440W        W76658  19.212   9.231   1.785
 8441W        W76659  22.932  24.528   2.307
 8442W        W76660  19.944  11.603   3.208
 8443W        W76661  39.962  17.825   1.200
 8444W        W76662  16.361  35.536  12.961
 8445W        W76663  28.845   8.727   2.792
 8446W        W76664  37.918  20.151  10.647
 8447W        W76665  42.487  14.821  13.987
 8448W        W76666  11.105  17.803  14.051
 8449W        W76667  40.109  40.418  10.706
 8450W        W76668  27.668  38.751  14.369
 8451W        W76669  23.114  44.882  12.985
 8452W        W76670  30.594   8.115  14.850
 8453W        W76671  20.019  16.271  10.639
 8454W        W76672   4.866  29.497  10.640
 8455W        W76673   1.800   2.590   0.241
 8456W        W76674  23.822  43.141   3.685
 8457W        W76675  21.180  17.964  12.164
 8458W        W76676  24.522   7.710  13.835
 8459W        W76677  24.964   9.233   0.822
 8460W        W76678  36.069  29.594  14.920
 8461W        W76679  24.394  13.025  12.055
 8462W        W76680   9.350  30.863   2.599
 8463W        W76681  18.181  11.769  10.804
 8464W        W76682  36.351   2.995  12.848
 8465W        W76683  27.109  23.241   1.845
 8466W        W76684  30.892  27.783  14.032
 8467W        W76685  34.053  38.014   4.581
 8468W        W76686  31.766  36.909  14.686
 8469W        W76687  22.514   2.208   0.843
 8470W        W76688  26.152  16.289   0.394
 8471W        W76689  32.408  43.735   2.807
 8472W        W76690  31.491  30.605   3.103
 8473W        W76691  38.025   8.346  14.842
 8474W        W76692  44.389  18.191  14.388
 8475W        W76693  28.257  11.469   3.681
 8476W        W76694  42.432  29.148  13.392
 8477W        W76695   0.638  13.908  11.179
 8478W        W76696   8.328  19.483   0.197
 8479W        W76697  27.095  20.666  13.308
 8480W        W76698  37.705  36.328   2.817
 8481W        W76699   1.919  44.761  14.381
 8482W        W76700   1.869   8.720  12.080
 8483W        W76701   9.911  44.038  12.062
 8484W        W76702  41.689  27.261   0.123
 8485W        W76703  42.195   8.427   2.135
 8486W        W76704  30.193   1.471  11.539
 8487W        W76705  44.895   2.256  13.348
 8488W        W76706  36.849  24.485   2.087
 8489W        W76707  28.864  21.238   4.529
 8490W        W76708   8.422  39.137  14.461
 8491W        W76709  12.624   2.674  12.133
 8492W        W76710   3.730  16.703  11.971
 8493W        W76711  32.970  30.980  11.434
 8494W        W76712   0.030  37.880  12.483
 8495W        W76713  27.190  17.684  14.737
 8496W        W76714  41.929  21.598   3.435
 8497W        W76715   7.960  20.161   4.619
 8498W        W76716  33.030  36.115  14.353
 8499W        W76717  13.490  21.438  12.701
 8500W        W76718  30.413   1.700  12.553
 8501W        W76719  42.865  42.014   1.944
 8502W        W76720   2.862   3.289   0.338
 8503W        W76721  32.786   8.913  12.886
 8504W        W76722  22.439  40.414   3.704
 8505W        W76723  33.838  25.671  14.883
 8506W        W76724  21.994  23.034   3.675
 8507W        W76725  36.711   3.951  12.963
 8508W        W76726  42.384   0.323   3.676
 8509W        W76727  30.504  26.087   0.709
 8510W        W76728  22.101  33.680   2.929
 8511W        W76729  41.815  25.084   2.232
 8512W        W76730  39.471  19.205   3.630
 8513W        W76731   2.410  17.131   3.276
 8514W        W76732  39.771  36.318  13.166
 8515W        W76733  16.747  16.123  11.517
 8516W        W76734  37.551  33.612  10.748
 8517W        W76735   2.527  28.400   2.767
 8518W        W76736  20.469   2.389  11.140
 8519W        W76737  24.217  25.156  11.667
 8520W        W76738  15.564  41.870  10.382
 8521W        W76739  33.380   5.854  10.561
 8522W        W76740  36.143   0.421  14.026
 8523W        W76741  34.784  30.438  12.154
 8524W        W76742  26.498  19.019   1.756
 8525W        W76743   6.522  37.070  14.339
 8526W        W76744   5.210   7.892  12.170
 8527W        W76745   2.517  33.484   0.850
 8528W        W76746   3.422  35.885   2.712
 8529W        W76747  37.522  40.909   4.856
 8530W        W76748  18.021   5.755   2.699
 8531W        W76749  10.228  31.261  13.762
 8532W        W76750   8.321  31.869  10.622
 8533W        W76751  32.028  22.243  11.465
 8534W        W76752   9.240  11.782   4.040
 8535W        W76753  20.716   0.063   3.175
 8536W        W76754  41.119  22.011  13.776
 8537W        W76755  26.084  29.574   2.867
 8538W        W76756  20.695  16.848   3.551
 8539W        W76757  42.852  19.121   3.736
 8540W        W76758  14.632  18.500  11.615
 8541W        W76759   6.632  20.663   3.654
 8542W        W76760  36.066   2.296   1.172
 8543W        W76761   1.408  37.835  11.043
 8544W        W76762  20.073  28.027  14.780
 8545W        W76763  29.742  39.452   4.571
 8546W        W76764  19.256  34.987  14.675
 8547W        W76765  28.967  44.966  12.580
 8548W        W76766  32.623  36.576   1.740
 8549W        W76767  38.019  26.972  11.974
 8550W        W76768  29.664  35.695  14.380
 8551W        W76769   9.350   0.383  14.865
 8552W        W76770  30.594  16.254  11.424
 8553W        W76771  23.696  12.783  12.820
 8554W        W76772  22.572  42.740  14.208
 8555W        W76773   1.811  18.770  11.644
 8556W        W76774  35.551  37.146  14.240
 8557W        W76775   9.680  43.920   3.584
 8558W        W76776  40.887  22.050   1.911
 8559W        W76777   2.282   9.124   3.371
 8560W        W76778   5.366  26.740   1.448
 8561W        W76779  34.270  26.094  13.884
 8562W        W76780  13.225  37.277  11.087
 8563W        W76781  21.685   5.258  12.464
 8564W        W76782  32.693  22.629  10.997
 8565W        W76783  16.039   3.926  12.938
 8566W        W76784  12.169  26.278  14.519
 8567W        W76785  18.845  30.517   4.736
 8568W        W76786  10.310  31.606  13.130
 8569W        W76787  42.593  36.421   4.632
 8570W        W76788   9.618  25.609   2.176
 8571W        W76789  21.274  40.961  13.345
 8572W        W76790  13.647  28.668   4.346
 8573W        W76791  18.285  15.797  12.081
 8574W        W76792  24.266   8.303   2.831
 8575W        W76793  39.018   5.658  14.877
 8576W        W76794  32.315   5.382  14.833
 8577W        W76795   8.110  12.372   0.006
 8578W        W76796  13.038   2.852   0.352
 8579W        W76797  42.294  39.524   1.355
 8580W        W76798  27.115  37.527   1.425
 8581W        W76799  21.972  23.956  12.199
 8582W        W76800  44.880  41.319   1.567
 8583W        W76801  37.961  16.119   3.720
 8584W        W76802  25.510  23.706  13.778
 8585W        W76803  24.740  25.161   4.699
 8586W        W76804  12.681  20.140   4.040
 8587W        W76805  36.665  35.243   0.517
 8588W        W76806  43.308  27.048  14.508
 8589W        W76807  35.304  38.708   3.558
 8590W        W76808  29.100  29.960  13.936
 8591W        W76809   5.401  38.375   2.812
 8592W        W76810  20.171  40.084   4.763
 8593W        W76811   8.660   6.248   2.309
 8594W        W76812  31.419   4.306  12.092
 8595W        W76813  29.374  34.603   0.524
 8596W        W76814  32.893  37.054  12.603
 8597W        W76815   8.719  42.686  14.823
 8598W        W76816   5.688   8.414   0.883
 8599W        W76817  27.545  37.263  12.611
 8600W        W76818  36.783  29.417  12.036
 8601W        W76819   5.604  13.976  12.663
 8602W        W76820  11.168  39.902  12.167
 8603W        W76821  34.992  32.207   4.489
 8604W        W76822  44.770  19.332   4.239
 8605W        W76823  20.086  40.389  13.119
 8606W        W76824  38.538  37.940  12.091
 8607W        W76825  20.603   2.795   4.646
 8608W        W76826   8.197  22.509   2.472
 8609W        W76827  33.953  44.294   2.654
 8610W        W76828  37.368   0.854  11.973
 8611W        W76829  25.897  39.743   2.423
 8612W        W76830  31.454  42.237  13.102
 8613W        W76831  25.201  14.833  11.480
 8614W        W76832  25.999  25.953   0.508
 8615W        W76833  41.815  26.578   5.013
 8616W        W76834   3.020  22.902  11.523
 8617W        W76835  40.566  27.095   0.848
 8618W        W76836  36.282  15.844   2.767
 8619W        W76837  30.181   9.911  12.436
 8620W        W76838  24.262  31.946  10.514
 8621W        W76839  28.882  44.302  11.485
 8622W        W76840  18.641   7.936   1.411
 8623W        W76841  38.082  38.086  11.110
 8624W        W76842  17.219   2.645  12.332
 8625W        W76843  27.461  29.378  13.927
 8626W        W76844   3.317   7.253   1.257
 8627W        W76845  24.944  11.390   4.575
 8628W        W76846  22.018  15.329  11.355
 8629W        W76847   4.427  11.788  11.530
 8630W        W76848  42.550  30.404  14.285
 8631W        W76849  21.608  11.720   4.566
 8632W        W76850  15.200  40.812  14.302
 8633W        W76851   4.876  23.703  14.335
 8634W        W76852  16.377  15.464  11.702
 8635W        W76853  23.092  14.135   5.063
 8636W        W76854  42.865  12.299   1.699
 8637W        W76855  17.070  42.517  12.810
 8638W        W76856  12.789   5.440   0.952
 8639W        W76857   5.943  20.944   5.108
 8640W        W76858  44.241  44.942  14.176
 8641W        W76859  41.652  20.886  13.262
 8642W        W76860  31.546   6.923   1.939
 8643W        W76861  28.951  40.290   2.744
 8644W        W76862  15.098   1.200  12.441
 8645W        W76863  42.607  28.561   0.965
 8646W        W76864  13.061  38.777   1.259
 8647W        W76865   5.775  35.390  12.594
 8648W        W76866  38.776  32.456   3.200
 8649W        W76867  14.318   0.261   1.341
 8650W        W76868  13.677   2.712   3.621
 8651W        W76869  42.142  28.217  13.073
 8652W        W76870  38.650  12.005  14.515
 8653W        W76871  14.712  19.276   1.269
 8654W        W76872  38.194  14.362  12.496
 8655W        W76873   0.372  11.163   4.587
 8656W        W76874   4.103   4.586  11.265
 8657W        W76875  44.007   6.117  12.698
 8658W        W76876  21.835  25.125   3.900
 8659W        W76877  16.160  39.863  12.413
 8660W        W76878   4.454  25.172   1.835
 8661W        W76879   3.445   0.493  14.882
 8662W        W76880  14.998  13.352   4.967
 8663W        W76881  30.382  29.176  14.998
 8664W        W76882  34.960  25.425   1.421
 8665W        W76883  18.049  30.737  13.409
 8666W        W76884   5.953  28.909   0.948
 8667W        W76885  43.578  38.359  14.293
 8668W        W76886  20.643  16.375  13.062
 8669W        W76887  25.788   3.952   4.670
 8670W        W76888   5.293  18.720   1.503
 8671W        W76889  38.475   2.424   0.331
 8672W        W76890   4.441  29.007   4.216
 8673W        W76891  18.188  43.682   0.267
 8674W        W76892  34.076   0.910   2.705
 8675W        W76893  10.177  39.617  14.239
 8676W        W76894   1.036  30.660  13.953
 8677W        W76895  22.651   2.925   1.991
 8678W        W76896  36.140  10.193   1.023
 8679W        W76897  29.905  26.058   2.414
 8680W        W76898  18.978   3.249  12.051
 8681W        W76899  15.002  10.177  12.456
 8682W        W76900  42.910  12.389   0.641
 8683W        W76901  41.573   9.624   4.585
 8684W        W76902  23.487  42.378  11.991
 8685W        W76903  12.790  27.675   0.181
 8686W        W76904   6.854   8.414   3.909
 8687W        W76905  36.895   8.613   2.808
 8688W        W76906  30.625  12.970  13.753
 8689W        W76907  21.319  39.919   4.698
 8690W        W76908  25.013  36.182  12.580
 8691W        W76909  40.470  20.196   0.660
 8692W        W76910  17.805  19.682   4.113
 8693W        W76911  17.265  34.551  13.033
 8694W        W76912  25.724  30.677  13.692
 8695W        W76913  25.751  19.737   0.332
 8696W        W76914  17.384  30.413  11.103
 8697W        W76915  21.783   7.319   1.677
 8698W        W76916   7.049   3.210  12.480
 8699W        W76917   7.914  14.772  13.352
 8700W        W76918  14.363   4.708   0.926
 8701W        W76919  38.578  44.443  12.555
 8702W        W76920  29.030   9.744  10.821
 8703W        W76921  27.081  26.941  12.940
 8704W        W76922  39.319  27.925  13.896
 8705W        W76923  30.440   7.259  14.600
 8706W        W76924  32.079  21.810   2.433
 8707W        W76925   6.610  39.032  10.352
 8708W        W76926  11.968  20.624   4.199
 8709W        W76927  40.060  36.869  13.852
 8710W        W76928  12.749  17.017  10.594
 8711W        W76929  25.607  15.825   4.365
 8712W        W76930  37.405  22.163   1.584
 8713W        W76931   6.324   7.520   1.817
 8714W        W76932  17.246   6.248   4.512
 8715W        W76933  17.874  10.439   2.623
 8716W        W76934  28.746  24.568   5.286
 8717W        W76935  39.416  13.368   1.882
 8718W        W76936   0.251  16.087  10.487
 8719W        W76937  36.877  20.813   1.117
 8720W        W76938  29.203  27.614  14.994
 8721W        W76939  18.576  35.588  13.444
 8722W        W76940  26.368  44.792   2.802
 8723W        W76941  41.895   1.120   1.284
 8724W        W76942   9.476  10.290  13.547
 8725W        W76943  29.088   4.528   2.233
 8726W        W76944  43.304  35.496  12.786
 8727W        W76945  34.417  17.187  10.620
 8728W        W76946  21.119  13.030  14.346
 8729W        W76947  23.978   4.676   0.480
 8730W        W76948  31.502  35.904   4.494
 8731W        W76949  21.601  23.401  11.709
 8732W        W76950  19.093  40.870   4.827
 8733W        W76951  10.281  22.791   3.666
 8734W        W76952  39.404  21.351  11.360
 8735W        W76953  15.070   4.838   0.437
 8736W        W76954  14.295  39.962  13.666
 8737W        W76955   2.018  11.672  12.406
 8738W        W76956  10.381   9.676  14.992
 8739W        W76957  28.064  26.698   2.777
 8740W        W76958  23.446  14.819  13.419
 8741W        W76959  33.023   7.653   2.931
 8742W        W76960  20.702  10.303  14.825
 8743W        W76961  10.218  18.251   1.733
 8744W        W76962  39.798   1.842  12.527
 8745W        W76963  36.480  16.622  10.799
 8746W        W76964  15.732   0.262  12.162
 8747W        W76965   0.779  16.767   3.851
 8748W        W76966  27.609  33.702   0.813
 8749W        W76967  29.114  28.738   0.918
 8750W        W76968  34.316  32.815   3.903
 8751W        W76969  24.560  23.463  13.422
 8752W        W76970  28.500  36.309   0.556
 8753W        W76971  40.697   2.307   5.101
 8754W        W76972  21.170   9.232  12.899
 8755W        W76973  19.967   5.896   0.992
 8756W        W76974  15.279  33.136   1.456
 8757W        W76975  17.473   8.707   0.010
 8758W        W76976   6.747  10.107  13.368
 8759W        W76977  35.254   0.899  13.075
 8760W        W76978  37.749  25.757  10.809
 8761W        W76979  12.566   9.471   2.783
 8762W        W76980  14.646  17.136  10.523
 8763W        W76981  39.541  20.096   4.515
 8764W        W76982   8.743  28.539  10.939
 8765W        W76983  25.484  15.049   2.215
 8766W        W76984  43.054  25.146  10.837
 8767W        W76985  31.621  29.884   2.378
 8768W        W76986  11.542  22.796  14.271
 8769W        W76987   5.913  28.872  12.056
 8770W        W76988  39.523  41.020  11.372
 8771W        W76989  24.359  31.494   2.856
 8772W        W76990  25.227  26.630   4.606
 8773W        W76991  19.867  15.730  13.229
 8774W        W76992  23.430  37.780  14.828
 8775W        W76993  21.262  31.096  12.561
 8776W        W76994  30.380  31.115   0.292
 8777W        W76995  31.116  32.910  14.350
 8778W        W76996  15.518  44.537   3.236
 8779W        W76997  14.642  12.244   0.448
 8780W        W76998   7.848  12.248   2.319
 8781W        W76999  44.734  28.156   3.448
 8782W        W77000  34.136  24.491  13.439
 8783W        W77001  31.049  30.063  10.478
 8784W        W77002  18.666   8.247   4.910
 8785W        W77003  36.976  38.590   4.174
 8786W        W77004   4.941  30.476   0.616
 8787W        W77005  31.885   8.732  13.398
 8788W        W77006  32.374   0.337   0.411
 8789W        W77007  28.952   6.508  14.855
 8790W        W77008  41.609  16.040  13.459
 8791W        W77009  23.522   7.900  14.231
 8792W        W77010  17.544  17.246   0.765
 8793W        W77011  13.489  17.658   4.564
 8794W        W77012  43.174  40.417   2.669
 8795W        W77013   9.319   2.359   2.192
 8796W        W77014  18.226  31.500  10.741
 8797W        W77015  31.251   9.760  13.976
 8798W        W77016  29.388  13.078  12.542
 8799W        W77017  21.513  10.822  13.479
 8800W        W77018   3.036  24.175  13.473
 8801W        W77019  34.355  31.896  11.017
 8802W        W77020  13.687   8.617   3.711
 8803W        W77021  40.779  24.224   0.861
 8804W        W77022  43.337  40.532   4.692
 8805W        W77023   5.297   8.124  13.505
 8806W        W77024  28.408  33.801   2.336
 8807W        W77025  42.852  19.142   0.040
 8808W        W77026  28.559  23.248  11.522
 8809W        W77027  40.929  43.403  10.680
 8810W        W77028  11.878  24.912   2.552
 8811W        W77029  41.931  21.766  14.363
 8812W        W77030  44.062  37.577  12.088
 8813W        W77031  38.663  43.040  14.794
 8814W        W77032  16.572  34.478  13.862
 8815W        W77033   5.436  35.559  11.110
 8816W        W77034   7.379  12.772   3.711
 8817W        W77035  25.253  26.989   0.361
 8818W        W77036  44.881  25.063  13.369
 8819W        W77037  43.884  37.632  14.061
 8820W        W77038  18.733  39.340  10.360
 8821W        W77039  37.101  23.861   0.773
 8822W        W77040   8.343  12.937   4.548
 8823W        W77041  30.874  26.698   4.151
 8824W        W77042  20.799  32.945   2.337
 8825W        W77043  33.538  40.798  13.856
 8826W        W77044  33.904   0.651   3.104
 8827W        W77045  34.035  28.739  14.791
 8828W        W77046   8.760  25.775  13.542
 8829W        W77047  17.930  38.843   2.863
 8830W        W77048  41.035  16.411  14.163
 8831W        W77049  18.031  30.122   2.386
 8832W        W77050  11.071  42.653   1.682
 8833W        W77051   4.150  25.571  12.561
 8834W        W77052  31.800  40.284   1.087
 8835W        W77053  27.232  11.185   3.726
 8836W        W77054  19.674   5.333   1.423
 8837W        W77055  39.063  12.167  10.586
 8838W        W77056  35.415  20.581  12.512
 8839W        W77057  12.711  38.044   0.496
 8840W        W77058   1.455  16.766   2.104
 8841W        W77059  11.234  44.888  14.243
 8842W        W77060  30.904   5.735   2.229
 8843W        W77061  41.930  36.968  12.933
 8844W        W77062  41.053   3.888   2.673
 8845W        W77063  27.939  26.441  14.923
 8846W        W77064  27.426  34.859  14.987
 8847W        W77065  16.836  38.477  10.582
 8848W        W77066   8.208  21.000   4.557
 8849W        W77067   9.727  12.438  11.472
 8850W        W77068  17.680  29.816   4.552
 8851W        W77069  24.449   6.643  14.889
 8852W        W77070   8.228  18.428  11.051
 8853W        W77071  34.658  44.559   1.656
 8854W        W77072   7.734  18.328   4.575
 8855W        W77073   6.639   7.148   4.559
 8856W        W77074  23.170  26.341  11.609
 8857W        W77075  15.341  25.490   0.726
 8858W        W77076  34.941  34.637   4.667
 8859W        W77077  39.360   6.122  13.916
 8860W        W77078  39.424  22.966   0.277
 8861W        W77079   8.674  20.037  13.995
 8862W        W77080   5.967  32.639   4.583
 8863W        W77081   4.154  32.491   2.753
 8864W        W77082  32.517  30.988  14.282
 8865W        W77083  34.529   8.820  13.637
 8866W        W77084  26.604  28.434   0.910
 8867W        W77085  21.262  26.674  11.405
 8868W        W77086   0.841  37.960   1.852
 8869W        W77087  22.259  39.368   1.745
 8870W        W77088   6.907   1.682   2.241
 8871W        W77089  38.484   9.306   1.679
 8872W        W77090  31.247  21.993   3.988
 8873W        W77091   7.902  19.497   4.072
 8874W        W77092  41.827  14.606   4.072
 8875W        W77093  16.760  12.927   0.431
 8876W        W77094  24.179   1.394   1.318
 8877W        W77095  14.766  39.348   4.713
 8878W        W77096   0.557   8.664   3.364
 8879W        W77097  16.322  21.422   4.724
 8880W        W77098   6.633  32.439   3.264
 8881W        W77099  16.564  32.410   4.714
 8882W        W77100  13.901  25.705   4.142
 8883W        W77101   1.903  14.803  11.752
 8884W        W77102  13.620   4.295   0.800
 8885W        W77103  14.571  26.123  13.609
 8886W        W77104  44.973  15.345   1.286
 8887W        W77105  33.601  28.112  11.692
 8888W        W77106   6.931  35.403   1.514
 8889W        W77107  41.384  39.916   0.021
 8890W        W77108  11.587  42.260   4.883
 8891W        W77109  25.080  19.176  12.766
 8892W        W77110   0.718  21.660  12.867
 8893W        W77111  15.607  37.972   3.833
 8894W        W77112  25.085   8.855  13.498
 8895W        W77113  16.339  38.537   3.734
 8896W        W77114   6.134  13.972  13.439
 8897W        W77115  17.720  22.957   0.051
 8898W        W77116  22.877   7.721   4.530
 8899W        W77117  11.841  24.537   1.766
 8900W        W77118  28.043  26.920  14.707
 8901W        W77119  18.269  42.317  11.497
 8902W        W77120  19.629  43.594   1.817
 8903W        W77121  24.556  29.114   0.866
 8904W        W77122  24.686  42.925   0.826
 8905W        W77123  31.025   7.969  10.764
 8906W        W77124   8.563  17.306  12.107
 8907W        W77125  12.260  43.829  14.492
 8908W        W77126  14.646  11.232   2.584
 8909W        W77127  15.884   0.893   1.426
 8910W        W77128  35.548  17.271   0.837
 8911W        W77129  20.247  36.412  13.089
 8912W        W77130  44.930  28.642   3.570
 8913W        W77131  35.503  28.041  14.927
 8914W        W77132  10.092  44.251   4.245
 8915W        W77133  17.726  32.424  12.539
 8916W        W77134  32.246  27.792  13.984
 8917W        W77135  40.457  37.105   0.945
 8918W        W77136  27.070   9.817  10.726
 8919W        W77137  20.638  27.441   2.692
 8920W        W77138  18.257  10.928  13.831
 8921W        W77139  12.602  27.632   4.103
 8922W        W77140   2.813  27.908   1.189
 8923W        W77141  33.075  10.231   3.675
 8924W        W77142   9.773   4.213  12.857
 8925W        W77143  30.799  34.597  14.854
 8926W        W77144  27.034  21.020  11.152
 8927W        W77145  20.787  16.322   3.357
 8928W        W77146   7.953  35.039   0.750
 8929W        W77147  33.971  29.364  13.357
 8930W        W77148   1.328  32.394   1.868
 8931W        W77149  13.266  14.053   1.945
 8932W        W77150   5.896   8.210  11.645
 8933W        W77151  19.494  21.045  11.169
 8934W        W77152   1.880  25.196   0.438
 8935W        W77153  33.600  17.787  13.496
 8936W        W77154  15.236  23.966  11.963
 8937W        W77155   8.026   6.741  11.127
 8938W        W77156  37.691  30.895   4.086
 8939W        W77157   6.299  31.993  12.168
 8940W        W77158  42.429  16.379  11.669
 8941W        W77159  10.642  12.024  11.390
 8942W        W77160   3.754   9.143   4.611
 8943W        W77161  41.220  26.154  11.028
 8944W        W77162  24.042  31.850  14.292
 8945W        W77163  28.704  21.097  13.351
 8946W        W77164   3.227  26.149  14.473
 8947W        W77165   5.947  18.198   1.897
 8948W        W77166  38.198  21.216   1.401
 8949W        W77167  17.120  12.844   3.547
 8950W        W77168  28.885  16.190  13.529
 8951W        W77169  20.586  26.607  12.423
 8952W        W77170  21.476  31.384  14.835
 8953W        W77171  15.102  28.230  11.941
 8954W        W77172  42.845  15.254   4.591
 8955W        W77173  26.842  22.307  14.719
 8956W        W77174   4.775   8.393  11.076
 8957W        W77175   7.985  34.270  13.678
 8958W        W77176  40.091  15.530  11.871
 8959W        W77177  18.194   2.707   3.002
 8960W        W77178  37.773   7.235  11.462
 8961W        W77179  43.596  13.518  13.108
 8962W        W77180  36.165  14.660  14.827
 8963W        W77181  18.163   3.467  10.616
 8964W        W77182   9.913  12.628  11.047
 8965W        W77183   6.108  18.053   2.591
 8966W        W77184  23.869  30.033  10.818
 8967W        W77185  15.795  43.842  14.579
 8968W        W77186  28.393  37.053  10.669
 8969W        W77187  14.777  13.639  13.900
 8970W        W77188  30.991   7.383   1.360
 8971W        W77189  40.966  41.861   3.506
 8972W        W77190  17.799  42.109   2.850
 8973W        W77191   5.675  20.131  12.448
 8974W        W77192  18.673  33.941   2.138
 8975W        W77193  17.000  38.766   1.779
 8976W        W77194  29.440  14.683  12.982
 8977W        W77195  22.117  16.559  10.813
 8978W        W77196   0.272   3.235   3.043
 8979W        W77197  30.959   7.955   3.601
 8980W        W77198   1.909   3.704  11.628
 8981W        W77199  29.433  40.917   2.308
 8982W        W77200  12.837  31.442  12.830
 8983W        W77201  26.442  39.743   1.372
 8984W        W77202  22.536  35.980  14.377
 8985W        W77203  25.235   3.905   2.619
 8986W        W77204  20.007   4.653   1.394
 8987W        W77205   4.350  27.068  10.985
 8988W        W77206  20.477  11.547  12.497
 8989W        W77207   0.253  38.506  13.757
 8990W        W77208  20.164  20.061  14.802
 8991W        W77209  25.463  31.911  14.925
 8992W        W77210   3.146   0.685   4.073
 8993W        W77211  40.071  40.302  11.565
 8994W        W77212   6.687  27.820   2.840
 8995W        W77213  26.506   4.208  11.018
 8996W        W77214  40.591  18.544   0.926
 8997W        W77215  23.132  37.853  12.988
 8998W        W77216  31.390  19.080  14.107
 8999W        W77217  16.183   4.144  12.515
 9000W        W77218  12.391  32.283   1.882
 9001W        W77219  44.239  36.091   0.851
 9002W        W77220  27.005   2.439  12.899
 9003W        W77221   4.216  15.088   4.575
 9004W        W77222  19.766  33.396  14.058
 9005W        W77223  37.773  35.884   3.740
 9006W        W77224  33.315  29.829  11.004
 9007W        W77225   8.663  37.823   0.985
 9008W        W77226  25.458  20.946  11.958
 9009W        W77227  16.297  21.141  10.136
 9010W        W77228  40.037  21.769   1.307
 9011W        W77229  10.955  24.226  14.253
 9012W        W77230  20.260  12.828  10.214
 9013W        W77231   1.811  19.894   4.836
 9014W        W77232  26.291   9.766   1.207
 9015W        W77233  39.101  17.782  12.130
 9016W        W77234   3.230  27.408  12.619
 9017W        W77235  12.583  25.452   4.530
 9018W        W77236  25.717  30.210   3.473
 9019W        W77237  30.033  11.876   0.806
 9020W        W77238   8.373  36.778   0.835
 9021W        W77239  43.316  30.724   0.852
 9022W        W77240  28.071   1.295   0.465
 9023W        W77241  40.931  30.845  11.586
 9024W        W77242  26.050   9.683   4.177
 9025W        W77243  21.128  30.686  11.134
 9026W        W77244  11.530   4.925  14.479
 9027W        W77245  29.904  12.211   2.257
 9028W        W77246  20.014   9.970  12.497
 9029W        W77247   2.306   9.635  12.002
 9030W        W77248  30.521  42.352  14.866
 9031W        W77249  15.642   2.748   2.073
 9032W        W77250  39.276  13.599  12.023
 9033W        W77251   9.110  16.055  11.089
 9034W        W77252  37.435  38.894   0.012
 9035W        W77253   0.199  31.040   1.589
 9036W        W77254  43.487  31.473   2.098
 9037W        W77255  22.478  16.977  10.785
 9038W        W77256  18.819  31.599   1.376
 9039W        W77257  15.222   6.849  12.045
 9040W        W77258  31.919  30.650   3.349
 9041W        W77259  36.420  13.345   0.226
 9042W        W77260  44.862  25.848   3.509
 9043W        W77261   4.796   0.493  14.539
 9044W        W77262  37.026  31.553  12.088
 9045W        W77263  12.341  27.411  12.970
 9046W        W77264  12.647  21.429  13.117
 9047W        W77265  22.068   9.915   2.255
 9048W        W77266  23.699   6.981  14.472
 9049W        W77267  21.183  13.309   4.615
 9050W        W77268  11.686   6.645   3.651
 9051W        W77269  41.908   0.882  13.066
 9052W        W77270  37.027  31.024   1.344
 9053W        W77271  27.225   0.983   1.348
 9054W        W77272  34.502  34.679  12.425
 9055W        W77273  12.736   8.792   3.614
 9056W        W77274  43.789  15.647   0.303
 9057W        W77275   1.315  25.983   0.938
 9058W        W77276   2.781  11.239  11.712
 9059W        W77277  36.973  35.277   2.948
 9060W        W77278  17.196  34.435  14.847
 9061W        W77279   7.718  39.542  14.370
 9062W        W77280  36.768   1.885  10.484
 9063W        W77281  24.588  38.699  11.500
 9064W        W77282  13.181  17.373  12.216
 9065W        W77283   4.829   5.414  10.763
 9066W        W77284  21.564   3.066  12.229
 9067W        W77285  20.319  16.476   0.875
 9068W        W77286  26.756  10.151   4.088
 9069W        W77287  29.303  36.521   3.073
 9070W        W77288  37.414  42.265  10.721
 9071W        W77289  12.404  43.501  12.419
 9072W        W77290  35.526  37.082  10.881
 9073W        W77291  38.374  15.893  13.412
 9074W        W77292  28.444  29.250  11.975
 9075W        W77293  11.225  27.199   3.613
 9076W        W77294   4.243  10.896  14.593
 9077W        W77295  16.326   6.862   1.267
 9078W        W77296  40.288   8.949   1.887
 9079W        W77297  25.030  44.222  13.254
 9080W        W77298  22.228  35.910  11.592
 9081W        W77299   3.434  44.987  14.990
 9082W        W77300  10.548  27.464  14.900
 9083W        W77301  26.507  14.121  10.237
 9084W        W77302  21.009  32.419  12.023
 9085W        W77303  21.386  15.610  13.444
 9086W        W77304  10.896   3.197  11.015
 9087W        W77305  24.752  40.399  12.496
 9088W        W77306  44.080  29.221  12.092
 9089W        W77307  39.170  41.804  13.876
 9090W        W77308  43.716  35.126   0.383
 9091W        W77309  10.417  14.274  14.343
 9092W        W77310   2.420  18.553  13.817
 9093W        W77311   6.360  10.584  11.048
 9094W        W77312   6.331  13.369   0.473
 9095W        W77313  24.435  43.336   1.528
 9096W        W77314  42.540  23.126  11.149
 9097W        W77315  18.700   2.996   3.690
 9098W        W77316   1.940  43.474  11.227
 9099W        W77317  44.033   4.328  14.429
 9100W        W77318   4.726  37.485   4.215
 9101W        W77319  16.673   4.924   4.097
 9102W        W77320  16.143  20.213   0.343
 9103W        W77321  20.797  31.094   5.207
 9104W        W77322  40.420  38.272   0.046
 9105W        W77323  43.955   4.216   2.160
 9106W        W77324  10.179  12.230  13.167
 9107W        W77325  22.237  36.802  11.627
 9108W        W77326  28.010  19.155   1.654
 9109W        W77327  21.429  19.277  12.952
 9110W        W77328  22.226  39.386   4.699
 9111W        W77329  29.689  32.907   3.699
 9112W        W77330  23.007  22.977  14.828
 9113W        W77331  25.580   9.380   1.542
 9114W        W77332  20.539   1.297   3.759
 9115W        W77333  31.880  10.454  14.443
 9116W        W77334  22.382  44.025   1.402
 9117W        W77335  10.766   3.653   2.733
 9118W        W77336  44.854  16.873  11.563
 9119W        W77337  27.939  13.381   1.520
 9120W        W77338  19.734  15.371  12.848
 9121W        W77339   3.522  37.019   1.271
 9122W        W77340  15.847  41.322   2.146
 9123W        W77341   7.581   1.475   0.793
 9124W        W77342  27.972  10.937   0.333
 9125W        W77343  13.346  18.033  13.991
 9126W        W77344   1.642  20.076  13.444
 9127W        W77345  40.902  38.047  11.051
 9128W        W77346  38.338  11.831   2.278
 9129W        W77347  35.572  14.504   2.214
 9130W        W77348  22.651  31.074   3.802
 9131W        W77349  41.210   3.203   2.891
 9132W        W77350  28.746   4.146   2.416
 9133W        W77351  20.928   3.772   0.507
 9134W        W77352   3.693  14.200  12.119
 9135W        W77353  21.858  19.615  14.865
 9136W        W77354  33.879  32.315   0.275
 9137W        W77355  36.542  15.368   2.684
 9138W        W77356   6.147  21.135  14.059
 9139W        W77357  34.047  16.708   1.904
 9140W        W77358   8.152  37.525  13.959
 9141W        W77359  33.844  37.579   3.795
 9142W        W77360   6.194  14.885   2.275
 9143W        W77361  38.849  29.657  14.359
 9144W        W77362   5.797   6.878  12.986
 9145W        W77363  44.046   5.711   2.328
 9146W        W77364   3.188   9.763   4.266
 9147W        W77365  37.120  19.795   3.198
 9148W        W77366  29.659  43.517  11.180
 9149W        W77367   2.290  33.319  10.148
 9150W        W77368  34.129  12.540   0.848
 9151W        W77369  18.426  33.252   3.258
 9152W        W77370  20.594  35.482  11.957
 9153W        W77371  19.793  27.778   1.375
 9154W        W77372  25.992  18.043   1.238
 9155W        W77373  13.719  15.235  14.031
 9156W        W77374  28.239   7.583  10.613
 9157W        W77375  13.382  22.556   4.588
 9158W        W77376  34.568  32.394  12.826
 9159W        W77377   3.321  37.374   3.684
 9160W        W77378  42.060  34.160  12.323
 9161W        W77379  15.336  12.205  10.331
 9162W        W77380   1.099  32.020   5.100
 9163W        W77381  25.469  13.488  14.979
 9164W        W77382  21.081  25.653   3.702
 9165W        W77383  12.616  27.870  14.467
 9166W        W77384   4.485  21.713   4.093
 9167W        W77385  30.250  33.060  13.493
 9168W        W77386   4.866   7.892   1.901
 9169W        W77387  18.849  39.436   0.653
 9170W        W77388  16.224   7.392   4.637
 9171W        W77389  27.898  36.985  11.443
 9172W        W77390  21.180  33.953   3.990
 9173W        W77391  44.585  19.482   4.710
 9174W        W77392  29.030   1.496   2.128
 9175W        W77393  14.104  20.204   0.828
 9176W        W77394  32.320  20.636  14.289
 9177W        W77395  39.825  33.058  14.502
 9178W        W77396   2.659   6.646  14.339
 9179W        W77397  21.083   7.649   1.160
 9180W        W77398  31.399  34.325  12.402
 9181W        W77399   2.991  43.520   1.871
 9182W        W77400  13.923  30.341  11.710
 9183W        W77401  25.126  21.581  11.203
 9184W        W77402  26.021  31.374   1.612
 9185W        W77403  39.220  39.133  13.169
 9186W        W77404   1.897  11.264   2.403
 9187W        W77405   9.647  42.974   3.656
 9188W        W77406  37.026  23.146  14.716
 9189W        W77407  35.409  22.974  12.097
 9190W        W77408   2.982   6.304   3.861
 9191W        W77409  22.563   3.077  10.729
 9192W        W77410  40.790  36.960  11.225
 9193W        W77411   7.102   1.752   1.435
 9194W        W77412  40.790  23.660  11.215
 9195W        W77413  13.352  42.064   1.662
 9196W        W77414  31.103  35.493  10.737
 9197W        W77415  14.915  37.059  14.909
 9198W        W77416   9.233  25.362  12.844
 9199W        W77417  12.294  28.673   2.722
 9200W        W77418  44.006  32.063   1.585
 9201W        W77419  29.455   7.488   0.928
 9202W        W77420  34.032  12.089  10.535
 9203W        W77421  12.847  20.529  13.370
 9204W        W77422  29.068  10.211   2.337
 9205W        W77423  42.602  35.960  12.863
 9206W        W77424   9.051  41.001   5.471
 9207W        W77425  33.175   0.392  12.955
 9208W        W77426  14.771  35.955   3.124
 9209W        W77427  23.898  22.145  13.030
 9210W        W77428  16.577  28.485   0.464
 9211W        W77429  16.133  27.171  10.712
 9212W        W77430   0.459  11.084  11.994
 9213W        W77431   2.504  41.042   0.879
 9214W        W77432  38.350   2.797  12.558
 9215W        W77433  42.423  13.157  14.754
 9216W        W77434  31.968  32.978  14.895
 9217W        W77435  19.691  30.181  14.658
 9218W        W77436  43.078  24.711   1.905
 9219W        W77437  41.930  17.125   0.882
 9220W        W77438   8.230  18.726  10.653
 9221W        W77439   1.818  26.069  11.369
 9222W        W77440   5.254   3.489   3.617
 9223W        W77441  34.871  40.750   3.194
 9224W        W77442  43.799  30.810  11.466
 9225W        W77443  22.158  19.900   1.807
 9226W        W77444  16.617   5.707   0.803
 9227W        W77445  21.636  39.424   1.360
 9228W        W77446  25.337  15.310  13.987
 9229W        W77447  17.262  15.586   0.778
 9230W        W77448  28.671  37.879  12.490
 9231W        W77449  28.088   6.786  12.546
 9232W        W77450  17.473  11.145   4.994
 9233W        W77451  25.995  27.267  10.702
 9234W        W77452   2.544  44.339   3.770
 9235W        W77453   8.292  39.718   4.561
 9236W        W77454  36.504  27.638  13.960
 9237W        W77455  42.722  19.550  13.813
 9238W        W77456  17.143   9.750   4.325
 9239W        W77457   5.030   6.934   0.903
 9240W        W77458  11.636  28.091   1.355
 9241W        W77459  29.226  29.488  11.366
 9242W        W77460  37.462   7.282   4.827
 9243W        W77461  40.679  19.193  11.086
 9244W        W77462  34.262  25.233   2.265
 9245W        W77463  32.130   2.504   3.363
 9246W        W77464  38.606   4.224   3.292
 9247W        W77465  29.740  17.487  11.116
 9248W        W77466  16.625  17.775   1.257
 9249W        W77467   0.668  13.941  11.684
 9250W        W77468  11.992  42.957  11.965
 9251W        W77469  10.292  33.438  11.650
 9252W        W77470  19.670   2.705  13.138
 9253W        W77471  20.280  14.724  13.132
 9254W        W77472   8.843  16.148   1.151
 9255W        W77473   5.434  27.462  12.644
 9256W        W77474   4.144  23.484  12.081
 9257W        W77475  32.847   3.156  13.472
 9258W        W77476  41.988  23.599  10.660
 9259W        W77477  37.866  10.128  12.377
 9260W        W77478  21.047  16.103   1.336
 9261W        W77479  30.216  20.635  12.910
 9262W        W77480  17.127   0.556   0.715
 9263W        W77481  13.497   5.916   5.154
 9264W        W77482  36.771  12.803   2.675
 9265W        W77483  41.108  31.332  13.119
 9266W        W77484  28.598  18.014   0.872
 9267W        W77485  43.085  41.423   2.800
 9268W        W77486  22.055  28.040   3.180
 9269W        W77487  39.864   8.948  12.436
 9270W        W77488  42.264   8.691   2.590
 9271W        W77489  16.696  31.634  13.092
 9272W        W77490   9.846  34.842  11.050
 9273W        W77491  16.541  17.528  13.113
 9274W        W77492  32.857  15.925   3.725
 9275W        W77493   0.909  42.762   1.988
 9276W        W77494  27.508   6.375   0.502
 9277W        W77495  44.274  14.780   2.425
 9278W        W77496  41.682  10.825   1.265
 9279W        W77497   8.139  32.530   1.333
 9280W        W77498  27.971  38.085  14.961
 9281W        W77499  14.094  41.001   4.316
 9282W        W77500  17.441  26.553  14.503
 9283W        W77501  35.458  36.483  11.572
 9284W        W77502  43.949  40.662   2.466
 9285W        W77503  37.633  12.699   3.117
 9286W        W77504  26.571  43.504  13.344
 9287W        W77505  25.592  17.258   2.330
 9288W        W77506   9.880  44.521   4.744
 9289W        W77507  13.998  33.033  13.976
 9290W        W77508   7.886  34.583  14.272
 9291W        W77509   6.912  28.602   0.718
 9292W        W77510  18.141  34.116   0.341
 9293W        W77511   9.739  42.026   2.730
 9294W        W77512  28.687  36.390   2.843
 9295W        W77513  42.817  16.295   3.625
 9296W        W77514   0.226   4.920   1.150
 9297W        W77515  26.359   5.989  11.166
 9298W        W77516  21.074  30.464   1.162
 9299W        W77517   7.687  44.251   2.812
 9300W        W77518  10.308   2.298   1.498
 9301W        W77519  38.274  15.270  11.658
 9302W        W77520   2.265  41.905   1.447
 9303W        W77521  37.013  30.133  14.284
 9304W        W77522  14.604   3.767  10.707
 9305W        W77523  18.252  41.935  11.158
 9306W        W77524  15.835  40.839   4.865
 9307W        W77525  37.620  43.148   1.247
 9308W        W77526  35.786  41.462  12.120
 9309W        W77527  44.394   5.189   4.532
 9310W        W77528  36.838   0.155   3.302
 9311W        W77529  42.122   2.476  11.196
 9312W        W77530  28.581  21.711  14.882
 9313W        W77531  18.692  33.000  11.303
 9314W        W77532  29.911  42.989   3.420
 9315W        W77533   0.416   3.003  10.706
 9316W        W77534  28.824  34.095   2.374
 9317W        W77535   1.932  25.469   4.172
 9318W        W77536  42.809  10.197  13.834
 9319W        W77537  41.285  10.237  14.609
 9320W        W77538  19.325  44.065   1.789
 9321W        W77539  24.172  42.052  10.977
 9322W        W77540   4.156  35.359   3.220
 9323W        W77541  14.628  35.258   2.333
 9324W        W77542  19.054  30.873  13.881
 9325W        W77543  44.794  27.783   2.436
 9326W        W77544  39.669  41.825  13.785
 9327W        W77545   0.207  26.953   4.370
 9328W        W77546  41.492   8.882  13.912
 9329W        W77547  36.495  17.198   3.760
 9330W        W77548  25.234  17.807   4.335
 9331W        W77549  31.368  36.204   1.929
 9332W        W77550  14.347  39.846   0.441
 9333W        W77551  19.209   4.710   4.461
 9334W        W77552   3.633   5.755   0.883
 9335W        W77553  32.144  35.564   2.679
 9336W        W77554   1.911  23.805   0.594
 9337W        W77555  28.679  11.254  11.081
 9338W        W77556  32.831  40.395  13.971
 9339W        W77557   5.149  26.324  14.237
 9340W        W77558  35.871   6.188   3.714
 9341W        W77559  40.125  19.987   2.257
 9342W        W77560   3.207  35.558  12.543
 9343W        W77561  33.019   9.899  13.164
 9344W        W77562  34.640  17.358   0.900
 9345W        W77563  10.053   6.732  14.837
 9346W        W77564  23.691   9.573  12.499
 9347W        W77565  25.923  10.663   2.805
 9348W        W77566   3.396  22.780  14.365
 9349W        W77567   2.189  19.265  14.699
 9350W        W77568  24.763   2.593   0.921
 9351W        W77569  36.619   1.763   0.996
 9352W        W77570  19.036  43.037  12.074
 9353W        W77571  16.761  15.657   0.243
 9354W        W77572  39.089  14.307  12.346
 9355W        W77573  26.030  39.931   4.618
 9356W        W77574  15.278  35.096   3.654
 9357W        W77575  10.172  39.839   1.771
 9358W        W77576  22.507  16.154   3.663
 9359W        W77577  11.154   3.263   3.244
 9360W        W77578  31.390  26.473   3.083
 9361W        W77579   0.583  29.030   1.304
 9362W        W77580  39.750  33.578  14.679
 9363W        W77581  11.793  26.644  10.038
 9364W        W77582   3.336  33.632  10.569
 9365W        W77583  25.224  26.600  13.253
 9366W        W77584   5.586  20.574  14.915
 9367W        W77585  19.192  30.385   1.523
 9368W        W77586  35.469   7.008   3.271
 9369W        W77587   8.725  39.037   2.112
 9370W        W77588  15.541  13.344   0.334
 9371W        W77589   7.411  28.934   4.298
 9372W        W77590  40.562  28.535   4.869
 9373W        W77591  28.219  18.266   3.330
 9374W        W77592  29.030  19.592  14.158
 9375W        W77593  26.653  16.200   0.489
 9376W        W77594   2.371  15.022   4.293
 9377W        W77595  28.728  13.607  12.129
 9378W        W77596   8.718  44.408  12.345
 9379W        W77597  23.454  12.752  11.123
 9380W        W77598  33.111   8.735   3.831
 9381W        W77599  34.829  14.540  11.926
 9382W        W77600   3.478  41.311  14.256
 9383W        W77601  10.390   4.476   2.211
 9384W        W77602  40.781  11.220  10.845
 9385W        W77603  36.566   3.246   2.406
 9386W        W77604  15.139  39.987   4.873
 9387W        W77605   3.389  15.265   3.227
 9388W        W77606  31.897  44.460   0.954
 9389W        W77607   3.355  41.106   1.639
 9390W        W77608  36.851  43.577   3.834
 9391W        W77609  40.933  40.554   4.841
 9392W        W77610  12.618  15.044   3.308
 9393W        W77611   8.675  31.668   5.029
 9394W        W77612  33.606   5.846  13.740
 9395W        W77613  42.578  35.945  13.365
 9396W        W77614  23.963  27.736   0.866
 9397W        W77615  22.934   3.871   3.362
 9398W        W77616  26.229  44.840  13.883
 9399W        W77617   0.589   3.125   4.225
 9400W        W77618  32.941   1.460  12.478
 9401W        W77619  19.745  24.994  12.512
 9402W        W77620  23.706   1.496  11.056
 9403W        W77621  44.845  24.027  12.867
 9404W        W77622  16.965  39.678   2.110
 9405W        W77623  26.940  10.175  12.437
 9406W        W77624  33.032   7.880  13.831
 9407W        W77625  33.475  37.279   0.954
 9408W        W77626  42.905  22.708  12.700
 9409W        W77627  36.546   4.505  13.496
 9410W        W77628  33.856   6.151  11.128
 9411W        W77629  38.828  24.029  11.528
 9412W        W77630  31.416  33.545   1.384
 9413W        W77631  10.341  22.017  13.466
 9414W        W77632   2.505  39.419   2.204
 9415W        W77633  31.141  10.265  12.862
 9416W        W77634  35.721   5.156  12.081
 9417W        W77635  35.720   1.961   3.820
 9418W        W77636  38.925  24.016   0.936
 9419W        W77637  13.026  27.461  14.780
 9420W        W77638   3.702  22.064  11.506
 9421W        W77639  23.237  12.333  14.208
 9422W        W77640  44.375   3.304   3.715
 9423W        W77641  26.250  23.134   1.500
 9424W        W77642  37.394  12.150  14.910
 9425W        W77643  20.114  19.481   3.588
 9426W        W77644  32.342   8.957  13.610
 9427W        W77645  27.979   7.883   1.490
 9428W        W77646   7.154  27.680  14.939
 9429W        W77647   7.412  13.622  13.454
 9430W        W77648  22.746  27.979  10.743
 9431W        W77649  37.424  37.470   3.680
 9432W        W77650  12.266  31.497  14.088
 9433W        W77651   1.380  37.696   3.918
 9434W        W77652  17.104  44.932  11.506
 9435W        W77653   2.251  28.848   4.415
 9436W        W77654  16.244  29.547   3.661
 9437W        W77655  17.825  26.591  13.834
 9438W        W77656  17.802  41.262  10.717
 9439W        W77657  21.049  26.517   0.426
 9440W        W77658  29.017   9.842   4.651
 9441W        W77659   5.685  28.811  11.572
 9442W        W77660  32.121   0.486  10.335
 9443W        W77661   1.689  15.076  14.474
 9444W        W77662   8.842  37.493   4.129
 9445W        W77663   8.659  32.227  14.501
 9446W        W77664   0.656  30.990  12.971
 9447W        W77665  33.553   8.122   0.155
 9448W        W77666  35.520  21.829   3.756
 9449W        W77667  36.738   9.268  14.522
 9450W        W77668  26.570  31.786   0.936
 9451W        W77669  41.518   7.820  10.978
 9452W        W77670  25.123  19.538   3.756
 9453W        W77671  31.546  28.080   3.640
 9454W        W77672  19.678  40.552  14.755
 9455W        W77673  32.318  43.650  11.389
 9456W        W77674  11.197  17.769  12.599
 9457W        W77675  21.903  16.034  14.235
 9458W        W77676  43.319   7.753  13.048
 9459W        W77677  42.563  26.495   4.541
 9460W        W77678  22.755  42.514  11.202
 9461W        W77679  24.437  17.562  12.403
 9462W        W77680  18.362  11.553  14.745
 9463W        W77681  14.075  31.089   1.885
 9464W        W77682  32.103  38.396  10.843
 9465W        W77683  39.873  20.680  14.434
 9466W        W77684  31.909  18.606   4.191
 9467W        W77685  42.752  40.297  11.041
 9468W        W77686  41.202  13.701   4.901
 9469W        W77687  30.204  26.698  14.053
 9470W        W77688  11.107  13.845  11.555
 9471W        W77689  21.512  23.928  14.533
 9472W        W77690  38.554   0.428   2.231
 9473W        W77691  36.917  20.282  12.112
 9474W        W77692  20.383  11.848  10.011
 9475W        W77693  37.130   5.709  10.139
 9476W        W77694  25.717  32.985   3.256
 9477W        W77695  27.596  31.116   0.935
 9478W        W77696   1.359  26.780   1.207
 9479W        W77697   9.355  13.216   3.795
 9480W        W77698  39.066  34.062   3.898
 9481W        W77699  21.310   0.803  12.625
 9482W        W77700  17.433  36.064   4.798
 9483W        W77701  22.234  21.541   3.333
 9484W        W77702  22.126  42.536  14.018
 9485W        W77703   4.237  41.873  10.310
 9486W        W77704  21.237  36.654  10.477
 9487W        W77705  11.919  21.459   2.600
 9488W        W77706  14.238   7.452  12.504
 9489W        W77707  23.589  33.551  11.077
 9490W        W77708  14.729   1.612   5.403
 9491W        W77709   1.834   0.413   3.223
 9492W        W77710  21.017  22.399  11.039
 9493W        W77711  44.030   6.425   1.366
 9494W        W77712   1.260  36.041  14.779
 9495W        W77713  38.770   1.976  12.596
 9496W        W77714   9.140  18.328   4.575
 9497W        W77715  26.710  44.582   4.039
 9498W        W77716  12.346  41.864  14.965
 9499W        W77717  41.939  39.961   3.242
 9500W        W77718  11.152  20.193  12.864
 9501W        W77719  30.030  19.232   0.016
 9502W        W77720  10.697  22.668   2.364
 9503W        W77721  36.093  42.788  11.549
 9504W        W77722  44.969   4.395   1.728
 9505W        W77723  40.021  30.851  12.967
 9506W        W77724  34.058  30.850  11.651
 9507W        W77725   8.964  36.445  10.748
 9508W        W77726  41.540   1.240  12.891
 9509W        W77727  43.534  13.803   3.269
 9510W        W77728  40.129  35.460   2.144
 9511W        W77729  12.266   8.436  11.154
 9512W        W77730   4.148  27.676  13.329
 9513W        W77731  33.064  11.311   2.680
 9514W        W77732  21.938  23.113  13.395
 9515W        W77733   7.743  31.650   3.668
 9516W        W77734  22.272  37.451  10.497
 9517W        W77735  20.273   2.407   4.540
 9518W        W77736   9.898  32.024   1.418
 9519W        W77737  14.932   0.883   4.109
 9520W        W77738  23.611  22.496   4.339
 9521W        W77739  23.263  40.579  13.830
 9522W        W77740  33.517   3.877  11.800
 9523W        W77741  29.018  30.263  14.398
 9524W        W77742  24.641  18.269   3.073
 9525W        W77743  18.728  23.229   0.043
 9526W        W77744  24.661  31.174  11.014
 9527W        W77745  38.549  23.301  14.876
 9528W        W77746  14.188  23.157   1.208
 9529W        W77747   2.708   7.301  13.150
 9530W        W77748   6.878  17.858   0.799
 9531W        W77749  38.550  16.880   3.173
 9532W        W77750   2.806   2.736  13.305
 9533W        W77751  13.655   3.872  10.977
 9534W        W77752  40.010  28.204  13.023
 9535W        W77753  13.862   6.108   1.269
 9536W        W77754  30.573  13.753   3.238
 9537W        W77755  12.841  14.730   3.705
 9538W        W77756  40.988  21.978   4.531
 9539W        W77757  23.739   3.828   2.767
 9540W        W77758  20.716  30.579  14.294
 9541W        W77759   6.816   5.539  13.349
 9542W        W77760   1.982  16.482  11.126
 9543W        W77761   9.336  42.963   2.784
 9544W        W77762   8.690  35.883  11.087
 9545W        W77763  41.041   2.169  10.347
 9546W        W77764  22.654   6.630   3.297
 9547W        W77765  29.300  21.145  10.766
 9548W        W77766  30.674  37.813  14.392
 9549W        W77767   4.171  42.059   4.235
 9550W        W77768  16.730   0.998  11.035
 9551W        W77769  16.436  21.318   1.883
 9552W        W77770  40.472   3.665  11.656
 9553W        W77771  15.024  20.678  13.430
 9554W        W77772  27.833  23.787   0.301
 9555W        W77773  12.806  40.907   1.221
 9556W        W77774  28.101  44.174  12.048
 9557W        W77775  37.993  25.075   1.670
 9558W        W77776   0.376  12.010   2.604
 9559W        W77777   0.749   0.135  13.724
 9560W        W77778  17.287  18.139   3.666
 9561W        W77779  23.713  42.823   4.715
 9562W        W77780  15.277  30.221  12.119
 9563W        W77781  18.384  44.313   3.641
 9564W        W77782  41.493  19.035  14.311
 9565W        W77783  38.953  19.964   3.124
 9566W        W77784  15.077   5.631  11.305
 9567W        W77785  24.391  20.993   1.120
 9568W        W77786   0.264  22.940  11.945
 9569W        W77787  26.577  22.063   0.080
 9570W        W77788   4.827  35.248   2.685
 9571W        W77789  40.875  40.350  11.919
 9572W        W77790   4.964  14.324   3.999
 9573W        W77791  22.326   4.392  11.719
 9574W        W77792  44.815  38.906   2.921
 9575W        W77793  34.472  35.672  14.299
 9576W        W77794  18.457   1.391   4.400
 9577W        W77795   8.729  18.832  10.725
 9578W        W77796  22.785  18.606  14.874
 9579W        W77797  28.063  26.776   3.861
 9580W        W77798  43.849  26.684   3.672
 9581W        W77799   5.800  31.278   0.353
 9582W        W77800  27.026  25.810  13.531
 9583W        W77801  13.445  13.499   2.773
 9584W        W77802  21.398  26.195  11.028
 9585W        W77803  33.817  14.172  13.837
 9586W        W77804  32.101   3.394  12.634
 9587W        W77805  29.170   4.325   4.485
 9588W        W77806   7.767  33.044  14.954
 9589W        W77807  28.153  39.507   0.710
 9590W        W77808  38.754  19.834   3.775
 9591W        W77809  32.234   0.316   0.944
 9592W        W77810   4.727  11.705  12.075
 9593W        W77811   2.904  20.390   0.971
 9594W        W77812  24.217  28.212   4.118
 9595W        W77813  29.146   1.237   0.773
 9596W        W77814  19.546  15.087   0.329
 9597W        W77815  40.403  19.202   2.675
 9598W        W77816  30.488   2.043   3.777
 9599W        W77817  12.614   5.442  11.198
 9600W        W77818  42.902   6.179  12.479
 9601W        W77819   2.855  22.485   2.420
 9602W        W77820  27.837   7.229  14.818
 9603W        W77821   2.133  41.046  14.018
 9604W        W77822  23.568  35.148  13.586
 9605W        W77823   9.129  32.141   0.884
 9606W        W77824  37.988  42.768  14.459
 9607W        W77825  31.972  32.984   2.661
 9608W        W77826  43.341  10.818  11.989
 9609W        W77827  16.284  39.096  11.892
 9610W        W77828  38.636  19.026  14.360
 9611W        W77829   1.018  37.928   4.354
 9612W        W77830   7.812  16.122   2.605
 9613W        W77831  26.984   1.214  13.456
 9614W        W77832  17.768  32.851   1.448
 9615W        W77833  31.649  35.950  11.687
 9616W        W77834  37.377  27.158   0.296
 9617W        W77835  19.756  20.297   2.960
 9618W        W77836  37.407  15.805  11.605
 9619W        W77837   5.585  28.273  11.693
 9620W        W77838   2.874  35.952  12.512
 9621W        W77839  28.132  11.607   2.244
 9622W        W77840  27.415  20.166   2.336
 9623W        W77841  35.952  38.998   2.376
 9624W        W77842  18.134  24.961  13.887
 9625W        W77843  16.084  42.490   4.120
 9626W        W77844  44.757   6.758   2.414
 9627W        W77845  31.827  12.234  12.572
 9628W        W77846  19.723  35.905  14.676
 9629W        W77847   1.848   4.664   2.903
 9630W        W77848  31.277  11.083  12.845
 9631W        W77849   7.802  22.537   4.581
 9632W        W77850  10.167  43.900  14.264
 9633W        W77851   7.965   5.324  11.176
 9634W        W77852   1.310  14.126   2.883
 9635W        W77853  23.705   5.741   4.139
 9636W        W77854   5.924  24.642   0.006
 9637W        W77855  29.176  19.770   4.315
 9638W        W77856   9.248  35.913   4.844
 9639W        W77857  10.791   9.755  14.483
 9640W        W77858  35.951   5.259  11.045
 9641W        W77859  17.501  24.002   3.196
 9642W        W77860  32.053  17.322  13.951
 9643W        W77861  22.688  30.267   1.770
 9644W        W77862  15.309  33.619  13.967
 9645W        W77863   0.576  44.260  10.413
 9646W        W77864   5.136  13.587   2.864
 9647W        W77865  11.849  25.609   4.120
 9648W        W77866  31.898  13.186   1.640
 9649W        W77867  20.159  23.671  12.856
 9650W        W77868  13.812   3.460  11.705
 9651W        W77869   9.245  14.144   0.957
 9652W        W77870   2.456   9.261   4.868
 9653W        W77871  13.516  21.628  13.649
 9654W        W77872   2.011  36.457   0.763
 9655W        W77873  20.520   1.829   2.698
 9656W        W77874  11.939  22.464  14.434
 9657W        W77875   9.897  43.376  11.501
 9658W        W77876  13.098  43.579   1.372
 9659W        W77877  26.298   9.599  13.040
 9660W        W77878  11.779  23.042  10.570
 9661W        W77879   3.737  14.101  13.922
 9662W        W77880  42.033   3.370   3.209
 9663W        W77881   4.358   2.495   2.393
 9664W        W77882   4.691   9.259   2.602
 9665W        W77883   8.733  28.555   4.375
 9666W        W77884   1.367  35.493  10.648
 9667W        W77885   4.185  30.449   4.363
 9668W        W77886  26.525  18.987  12.910
 9669W        W77887  17.853  41.979  13.450
 9670W        W77888  17.858  36.560   2.647
 9671W        W77889   0.085  20.214   1.810
 9672W        W77890   3.087  12.888   1.844
 9673W        W77891  25.240  26.422   2.620
 9674W        W77892  15.964   6.819  13.464
 9675W        W77893  44.189   1.687   0.052
 9676W        W77894  35.957  36.448  14.271
 9677W        W77895  20.978  38.846   0.357
 9678W        W77896  27.425  33.353   9.992
 9679W        W77897  32.458  14.788   4.537
 9680W        W77898  17.296  21.528   0.965
 9681W        W77899  33.507  14.885  12.088
 9682W        W77900  14.579  16.281  12.093
 9683W        W77901  17.552   3.675  14.419
 9684W        W77902  29.303  43.854   1.942
 9685W        W77903  39.232  41.829  11.131
 9686W        W77904  35.848   4.748  11.128
 9687W        W77905  34.054   3.033  11.082
 9688W        W77906  29.444  19.354   3.714
 9689W        W77907  44.478  39.216  13.371
 9690W        W77908   5.326  23.338  14.032
 9691W        W77909  23.175  18.560  12.852
 9692W        W77910  29.677  21.992   1.370
 9693W        W77911  32.304  30.168  13.887
 9694W        W77912  40.453  22.611   3.721
 9695W        W77913  23.736  23.543  12.395
 9696W        W77914  25.997  11.373   0.983
 9697W        W77915  31.888  18.131  14.397
 9698W        W77916  19.565   8.118  13.982
 9699W        W77917  44.411   1.984   0.399
 9700W        W77918   8.282  44.347   2.241
 9701W        W77919  16.482  27.931  14.352
 9702W        W77920  10.289   5.110   1.351
 9703W        W77921   6.123  31.510  12.270
 9704W        W77922   0.236   7.878  12.475
 9705W        W77923  31.057  17.871   3.697
 9706W        W77924  12.387  29.217  14.338
 9707W        W77925  26.465  40.693   4.210
 9708W        W77926  28.274  17.346  13.119
 9709W        W77927  18.630  41.738  10.360
 9710W        W77928  18.587  31.920  14.429
 9711W        W77929  24.810  13.103  10.617
 9712W        W77930  24.946  36.410  14.384
 9713W        W77931  26.032  41.255  10.656
 9714W        W77932  14.062  22.511   1.731
 9715W        W77933  38.988  44.460  12.201
 9716W        W77934  12.593  19.753   1.682
 9717W        W77935  27.375  17.949   3.361
 9718W        W77936  41.981  23.138   0.794
 9719W        W77937  38.623  11.295   2.813
 9720W        W77938  22.742   5.621   3.295
 9721W        W77939  21.688  28.224   4.780
 9722W        W77940  16.291  37.945  12.574
 9723W        W77941   2.534  29.717   2.045
 9724W        W77942   2.330  43.758   3.046
 9725W        W77943  44.327   1.141  13.171
 9726W        W77944  43.263  11.785   0.697
 9727W        W77945   5.982  20.954  11.951
 9728W        W77946  36.505   3.508  11.542
 9729W        W77947  20.121  30.612   1.858
 9730W        W77948  36.580   6.371  10.758
 9731W        W77949  33.635  22.548   3.174
 9732W        W77950  13.869  22.272   3.333
 9733W        W77951  23.773   4.806   1.885
 9734W        W77952  20.041  16.152  14.945
 9735W        W77953  18.813  23.947   0.430
 9736W        W77954  10.866  20.098  13.351
 9737W        W77955  20.535  35.443  13.391
 9738W        W77956  33.005  32.504   2.199
 9739W        W77957  40.829  37.758   1.379
 9740W        W77958  32.075   1.461   4.933
 9741W        W77959  16.077   5.423  14.510
 9742W        W77960  29.539   8.609   2.486
 9743W        W77961  38.488  28.121   0.171
 9744W        W77962  36.126  37.778   4.228
 9745W        W77963  31.477  17.713   4.659
 9746W        W77964  23.655  38.580  14.254
 9747W        W77965  11.320  26.428  12.262
 9748W        W77966  14.596   5.722   3.426
 9749W        W77967   5.668  36.369   4.282
 9750W        W77968  30.536  33.380  12.056
 9751W        W77969  40.584  38.171  12.803
 9752W        W77970   3.510  44.264  12.535
 9753W        W77971   2.025  27.943   5.158
 9754W        W77972  42.481  10.319   0.972
 9755W        W77973  39.421   2.965   1.415
 9756W        W77974  36.874  28.784   0.948
 9757W        W77975  44.465   1.015   1.899
 9758W        W77976  16.069  18.702  12.442
 9759W        W77977  14.318  29.303   1.369
 9760W        W77978   1.832  20.633   1.451
 9761W        W77979   8.799   0.055  14.379
 9762W        W77980  38.408  39.657   3.232
 9763W        W77981  43.310  25.670  14.276
 9764W        W77982  22.033  31.454  11.535
 9765W        W77983  26.542  30.539   3.716
 9766W        W77984  28.580  37.368   0.483
 9767W        W77985  26.330  25.660   5.494
 9768W        W77986  27.997  18.153  11.638
 9769W        W77987   9.205  20.603   1.798
 9770W        W77988   4.452  15.374   4.165
 9771W        W77989  34.076  34.432   0.737
 9772W        W77990   7.909  34.890   4.700
 9773W        W77991  12.253   5.324  12.399
 9774W        W77992  12.883  42.975  11.168
 9775W        W77993  16.823   9.724   4.717
 9776W        W77994  32.926  25.042  10.220
 9777W        W77995  12.722   1.049  14.393
 9778W        W77996  31.983  14.758   2.319
 9779W        W77997  34.119   3.256  10.279
 9780W        W77998  10.240  33.873   1.383
 9781W        W77999  10.519   1.975   1.159
 9782W        W78000  33.498   7.681  13.655
 9783W        W78001  12.812   0.773   1.269
 9784W        W78002  18.137  15.007  12.495
 9785W        W78003  43.881   0.302   1.837
 9786W        W78004  26.411  18.248  10.231
 9787W        W78005  32.185  20.026  12.444
 9788W        W78006  16.119   9.859   0.288
 9789W        W78007  43.942  39.541   0.778
 9790W        W78008  15.548  14.755  11.615
 9791W        W78009  45.000  33.091   1.808
 9792W        W78010  34.444  19.667   4.899
 9793W        W78011   7.737  24.713   4.559
 9794W        W78012  29.612   2.450  10.228
 9795W        W78013  28.842  16.595  11.648
 9796W        W78014   6.648  28.978   0.434
 9797W        W78015  39.424  18.283   0.824
 9798W        W78016  15.690  21.071  11.410
 9799W        W78017  12.661  29.682   1.676
 9800W        W78018   7.424  21.063  10.759
 9801W        W78019   2.497  34.128   2.939
 9802W        W78020  30.137  18.804   4.676
 9803W        W78021  37.425  20.692   1.306
 9804W        W78022  38.850  13.237   0.647
 9805W        W78023  25.172  14.522   0.031
 9806W        W78024  32.933  17.271   4.724
 9807W        W78025  15.872   2.807  12.104
 9808W        W78026  11.181   1.941  13.336
 9809W        W78027  28.237  10.294   1.942
 9810W        W78028   8.651  43.566  11.069
 9811W        W78029   5.359  37.129  11.118
 9812W        W78030  40.038   3.845  12.427
 9813W        W78031  10.614  35.964  13.111
 9814W        W78032  23.818   4.197   4.075
 9815W        W78033  22.165  26.641  10.908
 9816W        W78034  17.665  23.560   4.314
 9817W        W78035  11.256  20.597   3.205
 9818W        W78036  29.204   4.796   3.230
 9819W        W78037  27.709   9.479  13.148
 9820W        W78038   3.172   6.417  12.161
 9821W        W78039  13.885  35.528   1.570
 9822W        W78040  19.716  15.282   0.791
 9823W        W78041  40.543  34.579  11.201
 9824W        W78042  21.442  42.481  11.954
 9825W        W78043  41.151  21.116  11.919
 9826W        W78044   0.672  20.208   3.824
 9827W        W78045  24.190  36.481  11.905
 9828W        W78046   8.676  41.480   2.367
 9829W        W78047  14.461  40.682  12.398
 9830W        W78048   2.881  25.921  12.203
 9831W        W78049  38.564  28.097  14.279
 9832W        W78050   4.378   2.297   3.673
 9833W        W78051  13.063  17.073   3.180
 9834W        W78052   2.458   7.612   0.887
 9835W        W78053  31.539  41.929   0.746
 9836W        W78054  13.858  31.522   2.398
 9837W        W78055  18.821  41.936   0.467
 9838W        W78056   4.661  30.763   3.624
 9839W        W78057  24.453   0.741  12.459
 9840W        W78058  28.689  14.302   0.507
 9841W        W78059   2.321  11.089  14.543
 9842W        W78060  22.517  31.056  12.860
 9843W        W78061  15.254  23.786  13.889
 9844W        W78062   3.720  21.185  12.531
 9845W        W78063  38.009  43.592   3.928
 9846W        W78064  43.381  15.149   0.900
 9847W        W78065  33.122  21.103   2.640
 9848W        W78066  43.877  36.154   1.911
 9849W        W78067  23.699   5.182  12.996
 9850W        W78068  21.598   0.476   2.415
 9851W        W78069  44.622  29.434  14.907
 9852W        W78070  35.920  42.816   3.173
 9853W        W78071  36.883  14.942   1.817
 9854W        W78072  12.174  13.040  11.690
 9855W        W78073  25.978  38.903   2.085
 9856W        W78074   8.220  17.291  14.578
 9857W        W78075  19.939  36.122   1.326
 9858W        W78076   3.449  29.375  14.553
 9859W        W78077  38.387  20.898  12.669
 9860W        W78078   6.891   1.475   4.101
 9861W        W78079  11.707  16.161  13.520
 9862W        W78080  20.455   7.696  13.261
 9863W        W78081  12.574  43.822  14.937
 9864W        W78082   8.901  29.742  12.701
 9865W        W78083  26.961  11.183   0.301
 9866W        W78084  34.159  21.341  11.566
 9867W        W78085  29.065   3.334  11.096
 9868W        W78086  16.031   5.209  13.596
 9869W        W78087   4.913   8.594  12.406
 9870W        W78088  22.007  31.908  10.341
 9871W        W78089  29.443  10.151  11.419
 9872W        W78090   3.479  24.678   0.235
 9873W        W78091   0.471  35.900   3.274
 9874W        W78092  14.315  11.213   3.656
 9875W        W78093  27.353  12.755   4.087
 9876W        W78094   6.094  40.389   3.931
 9877W        W78095  31.482  37.299   4.279
 9878W        W78096   8.870  14.240   3.099
 9879W        W78097  40.444  35.537   0.737
 9880W        W78098   3.978  13.766  11.047
 9881W        W78099  16.126   6.317   0.359
 9882W        W78100  41.285  15.032  14.348
 9883W        W78101  44.618  38.586   3.689
 9884W        W78102  12.024  18.051   3.638
 9885W        W78103  34.467  23.565   4.468
 9886W        W78104  40.457  28.946   3.623
 9887W        W78105  12.105  36.002   4.481
 9888W        W78106  44.074  23.515   0.419
 9889W        W78107  42.539  38.037  14.891
 9890W        W78108  20.108  20.022   2.680
 9891W        W78109  15.750  22.474  13.570
 9892W        W78110  41.406  42.523  12.153
 9893W        W78111  11.665  38.725   4.293
 9894W        W78112   2.412  25.910   1.271
 9895W        W78113   0.087  21.560   1.762
 9896W        W78114  34.591   7.120  10.697
 9897W        W78115  14.276  43.273   0.929
 9898W        W78116  18.735  20.684  14.260
 9899W        W78117  40.967  43.506  12.935
 9900W        W78118  33.198  42.634   2.745
 9901W        W78119  24.635   6.247  11.403
 9902W        W78120  20.025   2.451   2.194
 9903W        W78121  26.934  11.613   3.849
 9904W        W78122  17.663  17.403   4.503
 9905W        W78123  16.011   5.651   4.485
 9906W        W78124  42.755  31.577  14.430
 9907W        W78125  10.452   2.930  11.006
 9908W        W78126  34.920  33.861  11.356
 9909W        W78127  38.139  26.035  11.035
 9910W        W78128  44.276  38.391   3.243
 9911W        W78129  18.935  25.080   2.247
 9912W        W78130   2.548  18.317   4.569
 9913W        W78131  19.159  43.484   0.334
 9914W        W78132   3.315  17.532  14.952
 9915W        W78133  36.667  21.574   2.822
 9916W        W78134   8.367  17.872   4.905
 9917W        W78135   7.005  11.143   3.184
 9918W        W78136  30.982  40.004   4.032
 9919W        W78137   2.938  15.563   2.215
 9920W        W78138  41.863  24.245   4.052
 9921W        W78139  29.094   2.577   4.817
 9922W        W78140   3.226  19.152   2.269
 9923W        W78141  20.152  31.650   1.931
 9924W        W78142  38.157   0.478   1.915
 9925W        W78143  13.577  44.090   1.113
 9926W        W78144  17.116  28.698   4.426
 9927W        W78145   4.014   4.022  14.138
 9928W        W78146   3.157  40.578   3.022
 9929W        W78147  17.178   5.305   1.849
 9930W        W78148  35.312  35.474   1.941
 9931W        W78149  34.355  28.385   3.591
 9932W        W78150  39.241  31.823  11.169
 9933W        W78151  33.825  36.438  12.237
 9934W        W78152   7.343  38.305   4.324
 9935W        W78153   7.378  41.521   0.017
 9936W        W78154   3.764   6.102  10.658
 9937W        W78155  31.097  44.590  14.092
 9938W        W78156  37.994   5.458   1.269
 9939W        W78157  22.086  18.323  12.524
 9940W        W78158   4.241  36.869  13.310
 9941W        W78159  18.199  43.946   3.933
 9942W        W78160  41.616  17.009  11.604
 9943W        W78161  20.799  20.676  10.744
 9944W        W78162  32.196  16.821  13.960
 9945W        W78163  14.847  23.553  10.256
 9946W        W78164  27.490  13.225   1.276
 9947W        W78165   4.126  11.626   1.342
 9948W        W78166  11.863   2.404   0.310
 9949W        W78167  38.688  15.197   2.367
 9950W        W78168  30.030  11.712   2.365
 9951W        W78169  13.744  43.077  11.093
 9952W        W78170  35.539  27.628   1.279
 9953W        W78171   3.868   4.864   4.278
 9954W        W78172  22.467  23.309  10.764
 9955W        W78173  42.548  41.335  14.865
 9956W        W78174   2.285  38.380  13.345
 9957W        W78175  21.588   0.359  11.466
 9958W        W78176  19.668  18.325   1.204
 9959W        W78177   8.983  14.787  11.426
 9960W        W78178   5.758   7.673  10.984
 9961W        W78179  40.032   0.110   3.705
 9962W        W78180  15.168  34.891  12.400
 9963W        W78181  12.032  29.533   2.333
 9964W        W78182   3.981  42.866  11.074
 9965W        W78183  22.063  29.110   4.804
 9966W        W78184  13.890  25.686   3.282
 9967W        W78185   2.271  30.047   3.290
 9968W        W78186  16.555   1.764   4.586
 9969W        W78187  44.061  13.834   3.337
 9970W        W78188  27.089  25.217   5.397
 9971W        W78189  24.109  22.270   2.332
 9972W        W78190   7.222  14.344  13.947
 9973W        W78191  39.754  33.615   2.371
 9974W        W78192  37.431  24.236   3.694
 9975W        W78193  40.100  13.613  13.046
 9976W        W78194  31.889   1.976  13.273
 9977W        W78195   2.491   9.586   3.589
 9978W        W78196  20.486  34.539   2.697
 9979W        W78197  19.250   2.288   4.630
 9980W        W78198  42.243  40.958  11.433
 9981W        W78199  18.395  14.529   0.974
 9982W        W78200   6.269  15.382   2.284
 9983W        W78201  15.796  32.507   4.131
 9984W        W78202   7.851  44.959  14.028
 9985W        W78203  41.407  16.669  14.478
 9986W        W78204   5.832  27.208  10.342
 9987W        W78205  29.049  32.136  11.625
 9988W        W78206  41.826  44.483  13.906
 9989W        W78207  29.508  39.386  12.057
 9990W        W78208  29.127   0.986   1.432
 9991W        W78209   5.757  31.160  11.591
 9992W        W78210  14.787  18.530   1.849
 9993W        W78211   5.911   0.748  11.059
 9994W        W78212  23.723   4.332   3.266
 9995W        W78213  31.897  10.174   3.721
 9996W        W78214  37.997  22.293   0.827
 9997W        W78215  19.454  39.010  11.652
 9998W        W78216   7.872   7.678   3.082
 9999W        W78217   2.422  12.737   4.542
10000W        W78218  32.405  36.057   1.772
10001W        W78219   7.991  29.494  10.760
10002W        W78220   6.811   9.163  11.568
10003W        W78221  10.400  22.637   1.382
10004W        W78222  30.454   2.698   9.697
10005W        W78223  23.228  24.252  13.986
10006W        W78224  22.649  32.966  10.465
10007W        W78225  41.315  10.302  12.446
10008W        W78226  15.587  15.879  13.186
10009W        W78227   0.518  21.569   2.698
10010W        W78228   1.738  19.616  11.166
10011W        W78229  23.129  10.247  14.537
10012W        W78230  32.401  33.463  13.106
10013W        W78231  27.638  21.519   4.377
10014W        W78232  37.274   2.364  12.693
10015W        W78233  25.270  35.779   4.602
10016W        W78234   8.856   3.355   1.512
10017W        W78235  26.235  44.526  13.414
10018W        W78236  41.933   9.343   1.894
10019W        W78237   0.565   5.306  13.522
10020W        W78238  10.745   9.347   3.715
10021W        W78239  14.052  14.418  12.242
10022W        W78240  30.723  44.244  13.918
10023W        W78241  42.410  15.158  12.986
10024W        W78242  25.232   1.077  14.755
10025W        W78243  17.160  38.419   0.412
10026W        W78244  16.806  17.235   0.119
10027W        W78245  10.861  39.525  14.842
10028W        W78246   4.910  16.529  13.933
10029W        W78247  20.505  36.585   1.090
10030W        W78248  37.214   2.931   1.954
10031W        W78249  18.478  44.435   1.785
10032W        W78250  35.997  16.335   1.757
10033W        W78251  31.196  33.515  10.564
10034W        W78252   6.762  27.547   3.899
10035W        W78253  39.858  35.102  11.148
10036W        W78254  23.721  36.568   3.173
10037W        W78255  29.364  39.568  13.396
10038W        W78256  26.030  35.264   1.109
10039W        W78257  41.453  34.624  11.200
10040W        W78258  34.611  12.759  13.048
10041W        W78259  11.670  22.280  13.518
10042W        W78260  36.436  10.387   4.171
10043W        W78261  35.376  19.094  11.827
10044W        W78262  29.047  29.785   4.229
10045W        W78263  44.469   9.705   1.214
10046W        W78264  43.246  18.256   0.467
10047W        W78265  20.625  35.887  10.265
10048W        W78266  37.541  23.624  10.406
10049W        W78267   2.262   8.368  11.576
10050W        W78268  23.920   0.733  11.013
10051W        W78269  10.267  11.865   0.493
10052W        W78270  34.747  21.175   1.914
10053W        W78271  20.477  27.086  11.012
10054W        W78272  11.605  25.195  14.983
10055W        W78273  16.297  35.381   4.584
10056W        W78274  16.674  17.853  12.141
10057W        W78275  31.085  16.173  10.219
10058W        W78276  31.121  24.029   5.035
10059W        W78277  42.413  26.587  13.797
10060W        W78278  28.266   0.779   1.309
10061W        W78279  12.335  37.670  12.869
10062W        W78280  24.151  20.638   3.324
10063W        W78281  40.411  26.564  12.604
10064W        W78282  23.661   4.423  13.541
10065W        W78283  41.938  15.407   3.235
10066W        W78284  33.479   8.293   3.780
10067W        W78285   0.165  37.083   3.852
10068W        W78286  42.780  22.534   1.775
10069W        W78287  29.668  17.997  11.084
10070W        W78288  20.111  43.994   0.962
10071W        W78289   7.931  12.778   0.724
10072W        W78290   6.291  18.918   1.363
10073W        W78291  34.694   6.277  14.191
10074W        W78292  33.433  33.018   0.015
10075W        W78293  33.019   3.638  13.445
10076W        W78294   3.892  32.133  10.549
10077W        W78295  37.253  12.883   0.343
10078W        W78296  32.373  29.651   4.057
10079W        W78297  14.986  20.886  14.833
10080W        W78298  12.355  38.019   1.708
10081W        W78299  27.618   5.661   1.030
10082W        W78300   4.435  34.117   4.667
10083W        W78301  39.298  29.443  13.408
10084W        W78302   0.828   7.844   4.559
10085W        W78303  32.444  14.980   2.385
10086W        W78304  35.432  32.046   0.801
10087W        W78305  44.358  10.775  12.018
10088W        W78306  41.919   3.176  10.450
10089W        W78307  38.017  25.509   0.538
10090W        W78308  32.351   6.544   1.045
10091W        W78309  19.869  36.773  12.101
10092W        W78310  38.097  30.695   4.995
10093W        W78311   5.330  41.980  13.777
10094W        W78312  37.516  23.709   2.854
10095W        W78313   7.587  32.489   2.016
10096W        W78314  21.211  20.649  13.593
10097W        W78315  30.810  19.826   0.242
10098W        W78316  40.449  18.487  14.534
10099W        W78317  37.928  18.675   1.063
10100W        W78318   3.475  28.946  14.823
10101W        W78319  18.038  25.646   1.515
10102W        W78320  26.726  37.144   0.373
10103W        W78321  20.279  29.073  10.280
10104W        W78322  14.629   2.790   0.378
10105W        W78323  12.395  42.363   3.769
10106W        W78324  13.351  25.183  10.213
10107W        W78325  39.848  37.982  12.923
10108W        W78326   2.814  30.693   4.674
10109W        W78327  28.089  25.676   2.425
10110W        W78328   8.249  13.870  10.787
10111W        W78329  23.680  25.566  11.067
10112W        W78330  33.558  11.136  14.070
10113W        W78331  37.005  39.935   3.545
10114W        W78332   1.237  33.106   2.800
10115W        W78333   8.591   1.778  11.094
10116W        W78334  19.170  10.158  11.069
10117W        W78335  42.987   8.342  12.957
10118W        W78336  34.358  31.808   0.487
10119W        W78337   1.236  36.002  10.755
10120W        W78338  19.251  15.515   4.700
10121W        W78339  16.629  38.957  10.591
10122W        W78340  36.916   8.176   1.445
10123W        W78341  36.643  28.094   2.973
10124W        W78342  35.033  30.554  12.616
10125W        W78343  36.519  20.907  11.613
10126W        W78344  11.648  11.423   4.477
10127W        W78345  24.609  10.796  10.679
10128W        W78346  17.479  20.798   3.356
10129W        W78347  39.480  35.192   4.546
10130W        W78348   6.818  19.670  10.930
10131W        W78349  25.264   8.429   1.195
10132W        W78350  30.748  22.547   2.065
10133W        W78351  39.087  44.345   3.761
10134W        W78352  14.171  35.137  11.095
10135W        W78353  41.069  16.671   1.861
10136W        W78354  29.855  34.502  14.444
10137W        W78355  25.211  33.861  13.775
10138W        W78356  17.372  36.357  10.618
10139W        W78357  41.512  44.848   1.754
10140W        W78358  34.670  21.219  11.586
10141W        W78359  31.160  42.745   5.075
10142W        W78360  23.524   3.530   2.353
10143W        W78361  15.768  44.488  12.877
10144W        W78362  31.888  39.409  11.552
10145W        W78363   2.338  11.144  13.946
10146W        W78364  31.024  16.938   9.886
10147W        W78365   3.408   9.624  14.731
10148W        W78366  24.537  44.831   4.581
10149W        W78367  31.925  38.108  14.363
10150W        W78368   1.060  21.270  10.669
10151W        W78369  31.993  37.576   0.492
10152W        W78370  22.766  21.309   2.258
10153W        W78371   0.011  23.338   4.689
10154W        W78372  44.288  44.973   1.768
10155W        W78373   7.264  22.753   1.225
10156W        W78374   4.384   6.428  14.311
10157W        W78375  30.429  21.499  11.899
10158W        W78376   0.277   7.384   4.123
10159W        W78377  14.361  10.013   2.099
10160W        W78378  19.141  26.027  13.422
10161W        W78379  28.083  43.284   4.280
10162W        W78380  30.707   7.763  13.383
10163W        W78381  39.551  39.518  11.452
10164W        W78382  11.183  11.057   4.154
10165W        W78383  28.137   5.329  12.726
10166W        W78384  12.776  15.469   5.164
10167W        W78385   0.599  33.490  13.389
10168W        W78386  32.650  16.227   2.858
10169W        W78387   3.341  39.873   3.748
10170W        W78388  43.220  24.105  11.728
10171W        W78389  25.578  42.464  13.883
10172W        W78390   2.421  32.659  12.253
10173W        W78391  43.996  38.012   1.387
10174W        W78392  12.172   3.615  13.003
10175W        W78393   5.738   0.415   1.558
10176W        W78394  30.084  39.363   4.967
10177W        W78395  30.123   4.019   0.994
10178W        W78396  26.404  20.086  14.884
10179W        W78397  18.500  39.988  14.429
10180W        W78398  24.509  29.126  12.332
10181W        W78399  36.402  19.332  12.509
10182W        W78400  34.052  19.714   0.837
10183W        W78401  12.569  39.099  13.433
10184W        W78402  40.805  16.542  12.964
10185W        W78403  11.868   9.399   4.396
10186W        W78404  33.553  36.348   4.588
10187W        W78405   5.763  44.286   3.572
10188W        W78406  26.738  21.098  11.616
10189W        W78407   6.570  28.197   4.549
10190W        W78408   3.931  10.955  13.365
10191W        W78409  15.017   3.748  14.939
10192W        W78410  17.119  22.256  12.120
10193W        W78411   3.347  38.233   4.751
10194W        W78412  44.911   8.958  12.159
10195W        W78413  34.619  39.572   4.434
10196W        W78414  11.914  17.530   3.659
10197W        W78415  38.418  26.513  13.925
10198W        W78416  29.520   4.465   1.279
10199W        W78417  24.943  18.311  11.406
10200W        W78418  33.298  25.558   2.713
10201W        W78419   2.283   1.688   3.284
10202W        W78420  39.309   2.481  13.497
10203W        W78421  44.542  28.991  12.064
10204W        W78422   5.252  22.768  14.828
10205W        W78423   0.543  21.914  11.657
10206W        W78424  27.035   5.270  11.775
10207W        W78425  23.476  31.136  13.876
10208W        W78426  23.143   1.052   1.167
10209W        W78427  37.787  39.466  11.128
10210W        W78428  27.569   0.443   2.205
10211W        W78429   8.388  27.886   2.418
10212W        W78430  44.337  13.929  14.563
10213W        W78431  25.130  40.928   4.454
10214W        W78432  32.024   7.039  10.562
10215W        W78433  35.802   6.867  14.345
10216W        W78434   0.875   6.970   1.995
10217W        W78435  11.914  41.341   0.515
10218W        W78436  31.448  18.708  12.180
10219W        W78437  28.178   1.936   4.251
10220W        W78438  40.425   8.786  10.386
10221W        W78439   7.961  27.670   2.246
10222W        W78440   6.269  25.133  12.081
10223W        W78441  43.016  32.044   1.965
10224W        W78442  31.773  29.562  10.354
10225W        W78443   9.065  42.356   4.086
10226W        W78444  16.850  28.861  10.581
10227W        W78445  17.644  31.456  10.718
10228W        W78446  21.073  31.226   0.841
10229W        W78447  34.711  11.130  14.170
10230W        W78448  39.041  31.159   3.407
10231W        W78449   6.495   2.000   2.208
10232W        W78450  42.098   7.391   1.211
10233W        W78451   1.413  15.772  14.695
10234W        W78452  19.211  14.666  11.233
10235W        W78453  35.482  25.251   4.096
10236W        W78454  18.210  42.777  13.369
10237W        W78455  13.024  23.354   4.134
10238W        W78456   1.529   0.485   1.037
10239W        W78457  20.746  31.686  13.322
10240W        W78458  42.060  14.390  14.505
10241W        W78459  30.636  12.174  14.351
10242W        W78460   6.338   0.828  14.292
10243W        W78461  36.012  44.135   4.327
10244W        W78462   1.438  26.667   5.002
10245W        W78463   7.583  37.962   0.910
10246W        W78464  43.949   4.765   0.910
10247W        W78465   1.943  40.558   3.151
10248W        W78466  10.236   2.592   0.558
10249W        W78467   4.174  41.583  10.717
10250W        W78468  17.673  13.618  12.239
10251W        W78469   4.830  22.294  14.482
10252W        W78470  34.328  30.817  10.148
10253W        W78471  44.531   1.618  13.063
10254W        W78472  10.791  14.898   2.274
10255W        W78473  42.074  22.987   3.589
10256W        W78474  44.098  18.492   2.364
10257W        W78475  22.184   2.024  14.697
10258W        W78476  11.856  14.343  13.723
10259W        W78477  17.087  39.336   0.287
10260W        W78478   5.675  21.921  11.759
10261W        W78479   9.654  44.267  13.951
10262W        W78480  34.632   2.438   1.843
10263W        W78481   1.777   9.089   1.308
10264W        W78482  39.026  29.365   2.251
10265W        W78483  33.410   4.765   1.244
10266W        W78484   9.065   9.639  10.743
10267W        W78485   4.246  11.560   1.863
10268W        W78486  23.620  38.096  14.431
10269W        W78487  38.749  10.948   2.450
10270W        W78488  42.799  34.035  11.836
10271W        W78489  22.197  44.954   3.658
10272W        W78490  28.911  44.458   3.657
10273W        W78491  10.069   2.142   2.683
10274W        W78492  44.704   2.217   2.438
10275W        W78493  23.501  38.934   0.023
10276W        W78494  32.418  33.064  14.145
10277W        W78495   2.328   5.559   0.219
10278W        W78496   8.179  16.948   2.683
10279W        W78497  29.354  18.716   2.756
10280W        W78498  40.361  26.921  11.836
10281W        W78499  16.710  19.018   0.103
10282W        W78500  28.563  39.967   3.189
10283W        W78501  15.570  44.463   1.305
10284W        W78502  20.184  15.952   5.493
10285W        W78503   6.988  26.453  14.692
10286W        W78504   3.867  19.039  12.433
10287W        W78505  29.822  21.054   1.159
10288W        W78506  40.995  33.673  11.991
10289W        W78507  29.630  25.905   4.061
10290W        W78508  42.026   5.433  12.986
10291W        W78509  24.233  22.510  12.913
10292W        W78510   0.798   3.085   0.041
10293W        W78511  38.653  19.561   3.333
10294W        W78512  13.271  11.789   3.356
10295W        W78513  24.992  34.991  12.489
10296W        W78514   9.837  11.125   2.862
10297W        W78515   0.426   1.906   2.673
10298W        W78516  33.614  31.966  12.140
10299W        W78517  30.608   9.091   0.992
10300W        W78518   0.095  44.322   1.907
10301W        W78519  29.461  33.408   4.608
10302W        W78520  43.398  33.374  10.943
10303W        W78521  26.168  35.049   0.373
10304W        W78522  11.803  40.156  10.439
10305W        W78523   8.973  11.812  11.993
10306W        W78524  24.085  12.046   1.676
10307W        W78525   8.465   6.851  10.821
10308W        W78526  10.996  12.928  12.943
10309W        W78527  28.722  40.022   0.485
10310W        W78528  14.717   0.735   3.642
10311W        W78529   7.348  24.303  10.680
10312W        W78530  29.014   2.583   4.318
10313W        W78531  17.248  30.911   4.117
10314W        W78532   3.022  15.695  13.579
10315W        W78533  43.667   0.905  10.837
10316W        W78534  25.046  17.366   1.686
10317W        W78535  16.630  42.292  12.980
10318W        W78536   7.411  13.371  11.497
10319W        W78537  35.910  13.703  14.347
10320W        W78538  39.886   7.395  12.419
10321W        W78539  44.621  27.522  13.703
10322W        W78540  11.907  16.179   2.670
10323W        W78541   3.609  44.869   1.488
10324W        W78542  13.286   8.890  12.338
10325W        W78543  10.274  22.524  13.588
10326W        W78544   0.469   4.354  11.205
10327W        W78545   9.712  38.567  12.454
10328W        W78546   1.303   3.470  12.566
10329W        W78547  10.256  38.069   0.203
10330W        W78548  44.690  20.738  12.780
10331W        W78549   1.527   1.314  13.873
10332W        W78550  27.731  44.889  12.481
10333W        W78551   1.047  24.349   3.727
10334W        W78552  36.334  11.704  10.388
10335W        W78553  41.753   3.288   3.659
10336W        W78554   0.835  12.302   1.402
10337W        W78555  37.138  25.438   2.372
10338W        W78556  39.915  27.077   2.673
10339W        W78557   6.984   4.878  12.019
10340W        W78558   6.268   2.528   1.323
10341W        W78559  44.717  24.652  11.091
10342W        W78560  34.816   8.145   2.676
10343W        W78561  22.046  41.500   0.637
10344W        W78562  34.094  20.340  13.994
10345W        W78563  11.927  31.055  11.388
10346W        W78564  30.837  37.961   0.738
10347W        W78565  41.971  20.089  10.801
10348W        W78566  36.918  39.007  10.595
10349W        W78567  41.785  30.473   2.398
10350W        W78568  10.930  22.642   1.329
10351W        W78569  22.849  19.651  10.458
10352W        W78570  28.738  26.701   0.095
10353W        W78571   5.879  14.380  12.165
10354W        W78572  17.734   1.374  10.225
10355W        W78573  10.734   5.636  13.883
10356W        W78574  29.916  19.583   0.375
10357W        W78575  36.044   5.444  13.479
10358W        W78576   2.171   0.323  11.427
10359W        W78577  17.493  22.182  10.973
10360W        W78578   1.879  18.015   0.193
10361W        W78579   9.991  39.057   1.425
10362W        W78580   8.786   5.234  12.339
10363W        W78581  39.396  21.163  11.838
10364W        W78582  25.649  39.615  11.435
10365W        W78583  32.701   9.763   4.561
10366W        W78584  12.186  40.517   4.591
10367W        W78585  10.645  34.533   1.429
10368W        W78586  30.231  39.009  14.771
10369W        W78587  40.034  27.577  13.351
10370W        W78588   1.894  19.264   4.105
10371W        W78589   5.949  43.836  11.032
10372W        W78590  17.534  43.248  14.804
10373W        W78591  42.041  44.992   1.803
10374W        W78592   6.669  20.786  12.465
10375W        W78593  25.731  27.922  10.323
10376W        W78594  44.463  26.631  10.896
10377W        W78595  36.971  36.674  11.101
10378W        W78596  42.266  26.952  12.575
10379W        W78597  44.280  18.950  13.825
10380W        W78598  34.445   1.200   0.238
10381W        W78599  42.898   5.294  12.501
10382W        W78600  26.872   7.236  12.791
10383W        W78601  38.970   3.956   5.312
10384W        W78602   9.032  30.923   1.490
10385W        W78603  29.405  33.648   3.282
10386W        W78604   8.879   5.778  14.546
10387W        W78605  29.263  33.389  14.726
10388W        W78606   2.708  38.068  11.311
10389W        W78607  10.684   0.125  12.045
10390W        W78608  14.637  31.575  14.814
10391W        W78609   5.900  41.789  12.465
10392W        W78610   9.682  37.661  12.584
10393W        W78611  22.547  20.837   2.231
10394W        W78612  43.880  12.093   3.564
10395W        W78613   7.583   3.111   5.313
10396W        W78614  28.598  15.021  12.761
10397W        W78615   9.065  11.930   2.266
10398W        W78616   3.461   9.876   4.672
10399W        W78617   2.448  28.070   1.970
10400W        W78618  11.718  34.063   4.949
10401W        W78619  24.988  31.504   3.710
10402W        W78620   7.195  17.589   1.214
10403W        W78621  17.696  27.968   0.905
10404W        W78622  22.206  24.717   1.807
10405W        W78623   3.993  38.812  10.698
10406W        W78624  40.404   4.680  12.539
10407W        W78625  37.243  20.757   4.808
10408W        W78626  22.517  22.105   0.618
10409W        W78627  34.992  19.522   4.067
10410W        W78628  35.438  30.933   2.702
10411W        W78629   4.535  29.985   3.227
10412W        W78630  20.323  38.854  12.949
10413W        W78631  32.645  36.489  10.987
10414W        W78632  23.446  42.180  13.417
10415W        W78633  23.761  25.982   3.196
10416W        W78634  25.935  29.018   1.000
10417W        W78635  30.587  39.308   3.673
10418W        W78636  33.493  40.448   4.541
10419W        W78637  30.096  24.545   3.696
10420W        W78638  26.167  28.493  11.145
10421W        W78639  35.490   8.760   3.370
10422W        W78640  39.299   8.934   2.715
10423W        W78641   4.379   3.409   4.059
10424W        W78642  12.575  39.870   1.777
10425W        W78643  39.924  41.976   2.288
10426W        W78644  16.145  12.902   3.672
10427W        W78645  32.119  41.782  13.233
10428W        W78646  16.445  20.378   0.733
10429W        W78647  36.837  37.404   2.429
10430W        W78648   9.207  32.239  12.951
10431W        W78649  24.180  23.245   3.242
10432W        W78650   6.821  25.429  10.489
10433W        W78651  10.206   7.680   1.902
10434W        W78652   5.139  43.293   3.379
10435W        W78653   7.208   6.782  14.701
10436W        W78654   1.148  35.601  13.524
10437W        W78655   1.279   0.249  11.879
10438W        W78656  27.968  35.130  11.133
10439W        W78657   8.877  41.910   0.297
10440W        W78658  37.262  16.057   0.251
10441W        W78659  33.113  26.393  10.746
10442W        W78660  25.843  34.182  11.242
10443W        W78661  38.367  26.751   1.928
10444W        W78662  17.358  27.550  13.019
10445W        W78663  37.583  28.100  14.484
10446W        W78664  28.960  13.554   1.308
10447W        W78665  38.043   7.177   1.446
10448W        W78666  31.514  31.887   1.303
10449W        W78667  21.501  14.147   4.137
10450W        W78668  27.374  33.003   2.722
10451W        W78669  37.417  21.368  11.767
10452W        W78670  29.564   0.191   0.274
10453W        W78671  32.030  30.561  11.259
10454W        W78672  25.364  20.750   0.824
10455W        W78673   1.901  36.598  12.122
10456W        W78674  22.759   0.590  13.948
10457W        W78675  27.009   4.156   1.784
10458W        W78676  42.999  28.449   3.182
10459W        W78677   8.009  20.171   3.798
10460W        W78678  18.916  16.299   1.905
10461W        W78679   4.369  26.105   3.377
10462W        W78680  29.061   1.372  10.845
10463W        W78681   0.480  21.177   1.831
10464W        W78682  17.908  20.761  13.833
10465W        W78683  18.052  19.543   5.329
10466W        W78684  32.878  26.047   1.444
10467W        W78685   5.431  31.234  13.510
10468W        W78686  14.184  22.271   2.200
10469W        W78687  32.846  23.620   2.710
10470W        W78688  34.005  32.117   4.199
10471W        W78689   7.322  10.640   2.245
10472W        W78690  36.004   0.774   3.240
10473W        W78691  11.466  43.282  13.356
10474W        W78692  15.729  43.605   2.360
10475W        W78693  43.434  36.499  14.365
10476W        W78694  43.921  35.224   0.865
10477W        W78695  21.273  40.666   3.188
10478W        W78696  33.874  39.797  10.702
10479W        W78697  19.201  23.535  13.227
10480W        W78698  24.015  33.141  10.466
10481W        W78699   0.868  17.533  11.942
10482W        W78700  25.533  26.915  13.610
10483W        W78701  30.442  39.330  11.931
10484W        W78702   3.896   2.993  12.899
10485W        W78703   1.734  15.767   0.934
10486W        W78704  23.479  19.854   1.436
10487W        W78705  12.442  26.709   0.860
10488W        W78706  24.076  17.165  13.599
10489W        W78707  14.606  37.464   4.934
10490W        W78708  30.041   2.644   2.442
10491W        W78709  39.864  40.493  14.004
10492W        W78710  42.522  21.127  10.806
10493W        W78711  39.344  11.609  12.605
10494W        W78712   7.881  32.016  14.769
10495W        W78713   7.884   1.936   0.849
10496W        W78714  29.807  20.091   0.291
10497W        W78715  43.175  39.425  14.500
10498W        W78716  14.150  33.490   2.008
10499W        W78717  22.171  35.662   4.036
10500W        W78718  22.205  19.700   2.660
10501W        W78719   1.860   6.224  10.729
10502W        W78720  37.141  25.206   3.785
10503W        W78721   4.684   4.554  11.984
10504W        W78722  17.460  18.601  10.268
10505W        W78723  14.303  26.425   3.717
10506W        W78724  42.338  13.957   1.300
10507W        W78725  27.976   2.613  14.927
10508W        W78726  17.875  27.513  13.897
10509W        W78727  14.686   3.057  12.356
10510W        W78728  35.997  15.567   4.209
10511W        W78729  26.319  40.985  11.505
10512W        W78730  24.993  14.069   1.398
10513W        W78731  41.787  35.608   0.530
10514W        W78732   1.847  44.489  13.052
10515W        W78733  34.869   7.268   0.291
10516W        W78734   1.832  34.218  14.759
10517W        W78735   4.441   0.774  13.918
10518W        W78736   8.161  20.078  11.837
10519W        W78737   4.410  12.841   3.267
10520W        W78738  13.264  29.903   2.205
10521W        W78739  39.781  29.096  12.725
10522W        W78740  40.742  34.043   2.625
10523W        W78741  30.192   3.226   1.388
10524W        W78742  44.920  43.439   4.322
10525W        W78743  30.977   6.072  12.944
10526W        W78744  24.170   9.403   0.146
10527W        W78745  20.761  39.350   0.398
10528W        W78746  26.086   6.118  14.937
10529W        W78747  27.929  22.912  13.079
10530W        W78748   5.253  34.905   1.400
10531W        W78749   7.680  43.995  11.872
10532W        W78750   4.967  43.529   2.311
10533W        W78751  30.791   1.903   2.410
10534W        W78752   3.239  40.836   1.226
10535W        W78753  25.356  41.531   3.310
10536W        W78754  19.498   6.910   3.126
10537W        W78755  30.306  17.950   0.268
10538W        W78756  24.669  35.865  14.382
10539W        W78757  18.453  25.269  13.577
10540W        W78758  39.615  20.011  11.012
10541W        W78759  42.573  43.580  14.620
10542W        W78760  33.907  14.815  12.435
10543W        W78761  39.547  10.184   1.038
10544W        W78762   0.827  39.324  11.200
10545W        W78763  28.897   2.764   0.440
10546W        W78764  41.521  29.098  10.826
10547W        W78765  26.926  33.402   4.506
10548W        W78766  20.584  26.220   1.821
10549W        W78767  21.437  39.292   4.245
10550W        W78768  36.956  11.181  10.545
10551W        W78769  41.964  19.217  12.842
10552W        W78770  22.526  33.507   2.712
10553W        W78771  16.565  43.092  11.249
10554W        W78772  44.544  41.902  14.391
10555W        W78773  11.475  28.780  12.388
10556W        W78774   1.307  16.647  13.876
10557W        W78775  16.726   6.627  13.134
10558W        W78776  38.604  23.600  11.693
10559W        W78777  43.960  37.530   1.190
10560W        W78778   8.786  31.843  11.496
10561W        W78779   7.252  36.295   3.341
10562W        W78780   1.693   4.311   3.822
10563W        W78781  28.453  33.031   4.662
10564W        W78782  21.544   4.954  13.944
10565W        W78783  42.866  43.436  10.468
10566W        W78784  22.653  22.459   3.321
10567W        W78785  37.924   0.004  14.315
10568W        W78786  28.422  20.683   2.740
10569W        W78787  23.780   4.925  11.920
10570W        W78788  33.385  38.841   4.192
10571W        W78789  25.485  30.956  12.638
10572W        W78790   4.177  19.211  13.997
10573W        W78791  15.779  23.615   4.552
10574W        W78792  15.150  19.027   1.456
10575W        W78793   5.859   6.828  14.734
10576W        W78794   3.529  41.355   0.445
10577W        W78795  38.441  31.589  14.840
10578W        W78796  15.284  21.985  13.042
10579W        W78797  29.988  16.716   3.123
10580W        W78798  32.153  37.105   3.090
10581W        W78799  23.387   0.832  11.565
10582W        W78800  33.386  44.965   3.713
10583W        W78801  23.629  23.621  11.087
10584W        W78802   6.820   1.552  13.544
10585W        W78803  40.360  18.528   1.399
10586W        W78804   0.349  10.189   3.807
10587W        W78805  10.099  28.103   3.638
10588W        W78806  27.866   5.491   4.479
10589W        W78807   0.311  35.857  10.677
10590W        W78808   1.543  24.651   1.907
10591W        W78809  31.524   9.938   1.773
10592W        W78810  16.287  26.588  14.060
10593W        W78811  43.748   9.151   3.288
10594W        W78812  36.089  38.119  12.117
10595W        W78813  37.114  35.234  14.314
10596W        W78814  29.290   1.509  13.481
10597W        W78815  33.943  19.946  13.510
10598W        W78816   9.566  23.080   3.703
10599W        W78817  11.820  22.030   4.758
10600W        W78818   9.210  12.861  13.836
10601W        W78819  21.127   0.738   3.267
10602W        W78820   8.618  37.737  13.050
10603W        W78821  24.592  11.151   0.296
10604W        W78822   2.716  13.613  10.744
10605W        W78823   2.334  27.256  14.712
10606W        W78824  33.559  27.622   1.023
10607W        W78825  40.266  41.554  11.818
10608W        W78826   9.832   8.729  13.075
10609W        W78827  16.672   6.185   0.319
10610W        W78828   4.222  42.709  10.658
10611W        W78829   8.488  16.354   3.265
10612W        W78830  38.064  37.554  12.557
10613W        W78831   4.810  18.287  10.838
10614W        W78832  26.684   2.598  11.806
10615W        W78833  27.430  19.661  13.967
10616W        W78834   8.900   0.446   3.735
10617W        W78835  35.160  38.714   4.066
10618W        W78836  20.070  44.011   4.140
10619W        W78837  14.378  35.994  14.439
10620W        W78838  30.083   7.208   1.969
10621W        W78839  33.282  14.199  14.012
10622W        W78840  18.274  15.280  12.085
10623W        W78841  41.141  38.587  14.346
10624W        W78842  29.217  16.146  13.153
10625W        W78843  42.793  16.382   0.316
10626W        W78844   8.385  30.235  10.853
10627W        W78845  28.938  40.928   3.190
10628W        W78846  38.384  30.572  12.194
10629W        W78847   9.351  26.626   4.078
10630W        W78848   0.274  14.821  14.251
10631W        W78849  28.106  16.342   2.748
10632W        W78850  27.998  14.902  11.186
10633W        W78851  30.911  12.615  14.280
10634W        W78852  44.985   5.286  14.843
10635W        W78853  28.419  26.507   1.356
10636W        W78854  32.537  28.117   3.271
10637W        W78855   6.389  12.412   0.485
10638W        W78856   4.069  37.893  12.081
10639W        W78857  14.561   1.195   1.377
10640W        W78858  23.938  10.253   4.502
10641W        W78859  30.109  33.998  13.542
10642W        W78860   6.750  33.626  12.044
10643W        W78861  28.446   2.248  11.789
10644W        W78862  33.972   7.451  10.398
10645W        W78863  35.800  21.586  14.857
10646W        W78864  11.152  34.394   1.396
10647W        W78865  29.451   7.757   3.744
10648W        W78866  36.953  37.525  10.753
10649W        W78867   4.413   4.178  13.805
10650W        W78868   0.897  11.393  11.154
10651W        W78869   3.829  34.096   0.489
10652W        W78870  16.183  38.054  14.973
10653W        W78871   3.363   4.774  11.887
10654W        W78872  22.435  33.449   3.624
10655W        W78873  24.193  32.581  11.272
10656W        W78874  43.515  37.980   4.889
10657W        W78875  23.005  19.601   3.179
10658W        W78876  16.630  21.166   0.573
10659W        W78877  18.585  17.264   3.549
10660W        W78878  37.854  26.945  11.459
10661W        W78879  30.402  43.128   3.301
10662W        W78880  10.545  25.104   4.694
10663W        W78881  40.089  22.716  11.545
10664W        W78882  37.894  42.259   4.139
10665W        W78883  34.949   6.137   4.512
10666W        W78884  42.092   8.848  11.080
10667W        W78885  39.004   0.918   1.979
10668W        W78886  14.363  32.532   3.121
10669W        W78887  31.983  12.614   3.160
10670W        W78888  37.554  38.571   0.528
10671W        W78889  13.799  35.168  11.464
10672W        W78890  16.835  20.633  10.695
10673W        W78891   2.767  11.231  13.610
10674W        W78892  42.313   8.366   4.900
10675W        W78893  40.416  29.518  11.903
10676W        W78894   4.718  34.854  10.298
10677W        W78895  31.104  37.190  11.931
10678W        W78896  28.051  24.080  11.625
10679W        W78897  32.107  15.927  12.358
10680W        W78898  40.305   5.505   0.412
10681W        W78899  24.441  14.351   0.267
10682W        W78900  34.345  29.471  12.474
10683W        W78901  34.358  36.098   2.921
10684W        W78902  34.222  18.187  13.034
10685W        W78903  30.664  31.844  14.748
10686W        W78904  36.847  33.815   0.875
10687W        W78905  23.568  38.836  12.870
10688W        W78906  11.855  34.122   2.392
10689W        W78907  36.623   8.139  11.108
10690W        W78908   7.460  35.510   4.343
10691W        W78909  40.963  16.063   1.746
10692W        W78910  39.408  24.221   0.841
10693W        W78911  14.265  38.621   0.838
10694W        W78912  14.639  12.178   0.972
10695W        W78913  26.097  31.527   4.618
10696W        W78914  11.541  30.929   0.262
10697W        W78915  43.558  25.614   3.918
10698W        W78916   1.519  13.307  12.509
10699W        W78917  11.345   2.318   2.320
10700W        W78918  23.993  11.672  11.979
10701W        W78919  34.103  25.542   5.165
10702W        W78920  16.088  43.549  12.958
10703W        W78921   0.303  30.728   4.247
10704W        W78922  31.403  30.082  12.481
10705W        W78923   5.320  32.697  11.043
10706W        W78924  37.525  25.436   1.474
10707W        W78925  40.544  39.356  10.579
10708W        W78926  39.240  25.444  11.192
10709W        W78927  43.122  19.177   3.296
10710W        W78928   9.663  30.522   3.335
10711W        W78929   1.380   1.809  11.194
10712W        W78930   0.996  35.978  14.342
10713W        W78931  13.118   6.107   0.721
10714W        W78932   5.677   4.369   4.189
10715W        W78933   9.845   3.599  12.011
10716W        W78934  11.643  27.224   4.527
10717W        W78935   5.489  23.916  12.533
10718W        W78936  17.425   4.716   4.994
10719W        W78937  22.622   1.119  12.013
10720W        W78938  17.803  16.160   4.947
10721W        W78939  26.842  30.358  12.953
10722W        W78940  32.129  34.170  13.470
10723W        W78941  40.352   9.666  13.613
10724W        W78942  23.723  32.827  12.093
10725W        W78943   4.668  34.782  13.361
10726W        W78944  38.894  17.816   0.322
10727W        W78945  42.085   1.253  13.921
10728W        W78946  26.538  28.247  12.082
10729W        W78947  12.704   2.249  12.942
10730W        W78948  21.608  21.681   0.434
10731W        W78949  24.928  19.602  11.091
10732W        W78950  22.975  25.568   3.693
10733W        W78951   7.349   4.223   2.772
10734W        W78952  43.109   2.427   3.625
10735W        W78953  35.949  23.485   0.834
10736W        W78954   8.771  17.147  10.710
10737W        W78955  43.234  19.056   4.104
10738W        W78956   5.541  11.775  14.059
10739W        W78957  36.515  33.432  14.262
10740W        W78958  24.474  15.278   4.611
10741W        W78959  41.240  23.706   1.665
10742W        W78960  43.909   7.946  14.507
10743W        W78961  38.798  22.060  10.228
10744W        W78962  43.200  42.780  10.821
10745W        W78963   0.761  23.538  10.643
10746W        W78964   0.821  25.186  13.018
10747W        W78965   5.491  38.555  13.440
10748W        W78966  23.006  24.694  14.214
10749W        W78967  10.765   4.105  12.476
10750W        W78968  16.875  17.242  14.535
10751W        W78969  32.911  33.197  14.324
10752W        W78970  18.270  22.582   1.756
10753W        W78971  32.473   3.977   0.415
10754W        W78972  27.468  31.956   4.334
10755W        W78973  20.635  17.667   0.250
10756W        W78974   4.486  29.166  14.922
10757W        W78975  20.077   5.648  10.345
10758W        W78976  27.620  19.204  13.833
10759W        W78977  20.187   6.754  11.040
10760W        W78978  26.588   4.702  13.297
10761W        W78979   6.714  14.326  11.370
10762W        W78980  18.321  14.802   2.523
10763W        W78981  42.913  29.607  10.691
10764W        W78982   0.011  26.750  13.895
10765W        W78983  21.063  16.753  13.922
10766W        W78984  27.189   4.743  11.558
10767W        W78985  34.006  29.431  11.600
10768W        W78986  11.306  17.090  10.829
10769W        W78987   8.387  22.450  10.819
10770W        W78988   1.440  19.167   2.620
10771W        W78989  34.046  27.052  12.035
10772W        W78990  40.282   3.852   3.380
10773W        W78991  35.368   5.023  10.078
10774W        W78992  30.980  44.704  11.040
10775W        W78993  33.845   6.085   1.737
10776W        W78994  28.989  14.245  14.530
10777W        W78995   4.863  12.477  11.073
10778W        W78996  39.304  37.010  12.536
10779W        W78997   8.945  35.591  13.560
10780W        W78998  39.314   0.709   3.700
10781W        W78999   0.068  32.520  13.597
10782W        W79000   5.756  25.733  12.539
10783W        W79001  31.999  19.853   2.863
10784W        W79002  39.545  19.358  11.641
10785W        W79003  24.270  43.230   0.938
10786W        W79004  13.030  10.828   3.785
10787W        W79005  23.845  11.114  10.516
10788W        W79006  10.775   7.764  11.025
10789W        W79007  16.276  36.065  12.943
10790W        W79008  44.626  31.107   2.357
10791W        W79009   3.240  44.401  13.037
10792W        W79010  24.445  44.738  12.512
10793W        W79011  37.708   6.329   2.406
10794W        W79012  34.488  15.602   1.640
10795W        W79013  18.705  33.812  13.853
10796W        W79014  38.055  17.177   1.637
10797W        W79015  17.610   5.383  14.852
10798W        W79016  20.246  10.173  11.694
10799W        W79017  30.511  31.134   2.074
10800W        W79018  41.589  39.317  12.018
10801W        W79019  16.294  39.774   0.404
10802W        W79020  18.084  23.525   2.404
10803W        W79021  34.926  40.538  14.418
10804W        W79022  36.411  15.281   1.665
10805W        W79023  32.993   5.207   0.769
10806W        W79024  43.865  29.541   0.343
10807W        W79025   9.435   5.918  14.010
10808W        W79026  16.286  20.059  12.636
10809W        W79027  44.031  35.665  14.508
10810W        W79028  31.982  30.018  10.529
10811W        W79029  38.991  34.812   3.887
10812W        W79030   9.161  43.511   1.757
10813W        W79031  11.810   5.318   0.416
10814W        W79032  16.065  40.217   4.588
10815W        W79033   4.125  28.971  14.315
10816W        W79034  11.064  23.655  14.042
10817W        W79035  38.948  10.705   3.634
10818W        W79036  31.999  31.088   3.590
10819W        W79037  21.055  33.100   1.857
10820W        W79038  10.778  11.379   4.886
10821W        W79039  39.073  12.521   3.983
10822W        W79040  42.644   1.614   0.017
10823W        W79041  33.547   6.341   4.649
10824W        W79042  13.934  28.062   5.007
10825W        W79043  37.561  31.774   1.681
10826W        W79044  30.310  28.389   0.442
10827W        W79045  32.199  26.904   2.208
10828W        W79046  28.247  33.018   3.712
10829W        W79047  23.840  35.938  10.228
10830W        W79048  32.999   5.863   4.551
10831W        W79049  21.726  13.454   0.500
10832W        W79050  43.826  13.370  14.237
10833W        W79051  18.237  19.269  11.838
10834W        W79052   8.404  31.671   2.964
10835W        W79053  15.761  25.045   0.056
10836W        W79054  37.074   3.377   3.236
10837W        W79055  18.551  41.683   3.786
10838W        W79056   6.161   6.876  11.583
10839W        W79057  16.039  41.095  13.094
10840W        W79058  16.727  16.218  10.660
10841W        W79059  10.370  39.835  12.567
10842W        W79060   4.604  40.249   3.304
10843W        W79061  16.249  23.616   1.314
10844W        W79062   7.431  13.475  10.636
10845W        W79063   8.133  21.521  13.945
10846W        W79064  30.009  34.616  11.031
10847W        W79065  34.926   2.909   1.721
10848W        W79066  32.871  41.870   2.247
10849W        W79067  41.852  27.579   0.777
10850W        W79068  10.088  43.407   1.784
10851W        W79069  18.027  21.786  11.915
10852W        W79070  27.169  37.422  14.509
10853W        W79071  32.682  36.945   4.284
10854W        W79072  17.097  12.768   2.666
10855W        W79073   2.457  33.017   4.529
10856W        W79074  27.985  41.364   4.538
10857W        W79075  29.742  22.229   2.971
10858W        W79076  17.748  32.060  14.234
10859W        W79077   3.344  10.627  11.210
10860W        W79078  19.900   2.248  11.991
10861W        W79079  30.133  43.035  12.786
10862W        W79080  17.201  29.086  10.891
10863W        W79081  41.157  35.482  12.307
10864W        W79082  33.507   3.660  12.549
10865W        W79083  34.225   9.419  10.893
10866W        W79084  31.832   1.639   0.980
10867W        W79085  28.296   4.894  11.964
10868W        W79086   6.246   7.377  11.624
10869W        W79087  30.896  34.981  13.896
10870W        W79088  28.369   5.692  13.031
10871W        W79089  23.502  23.155  14.757
10872W        W79090  22.511  23.873   3.114
10873W        W79091  35.768  39.581   3.683
10874W        W79092   0.756  10.432   3.605
10875W        W79093   2.991  19.328   3.260
10876W        W79094  33.229  38.650   0.015
10877W        W79095  15.402  21.148   2.261
10878W        W79096  42.907   8.732   4.321
10879W        W79097  30.258   4.922   2.080
10880W        W79098  38.904  37.415  14.370
10881W        W79099  17.364  35.195   4.777
10882W        W79100  38.902   2.256   1.720
10883W        W79101  42.327  33.376   3.745
10884W        W79102  21.251  15.044   5.101
10885W        W79103  41.242  38.470  14.884
10886W        W79104  18.213  32.537  12.903
10887W        W79105  12.788  35.138  10.620
10888W        W79106   2.421  16.587   0.975
10889W        W79107  35.859  31.139  11.505
10890W        W79108  34.429  39.131   4.230
10891W        W79109  19.028  25.280   4.231
10892W        W79110   5.781  17.267  11.985
10893W        W79111  37.919  15.649   3.228
10894W        W79112  14.712  30.252  13.512
10895W        W79113  31.637  35.897  14.141
10896W        W79114  30.908  29.029   3.025
10897W        W79115  42.704  32.551  13.543
10898W        W79116  21.263  38.500  13.222
10899W        W79117  21.028  12.171  12.675
10900W        W79118  10.842  35.022  11.189
10901W        W79119   1.927  28.964  12.047
10902W        W79120  22.677  43.452  14.806
10903W        W79121   0.877  24.121   0.573
10904W        W79122  24.226  44.278   4.772
10905W        W79123   3.321  26.016  11.568
10906W        W79124   8.418  30.801  14.862
10907W        W79125  19.228  23.347   2.850
10908W        W79126  28.379  11.873   0.894
10909W        W79127  42.395  10.863   1.446
10910W        W79128   2.730  30.970   2.786
10911W        W79129  17.780  42.465  11.630
10912W        W79130  28.567   9.556  10.619
10913W        W79131   1.259  24.463   2.909
10914W        W79132  38.361  33.508   2.356
10915W        W79133  44.708  16.102  11.152
10916W        W79134  15.659  33.598  13.590
10917W        W79135  43.809  28.773  11.350
10918W        W79136  13.305  23.693   1.215
10919W        W79137  11.052  10.787   3.727
10920W        W79138  25.757  26.627  12.369
10921W        W79139  34.098  26.505   1.881
10922W        W79140  31.061  38.065  13.302
10923W        W79141  21.696  12.133   2.475
10924W        W79142  39.919  21.441  14.809
10925W        W79143  27.513   0.965  11.192
10926W        W79144   2.267  40.345  11.176
10927W        W79145  20.053   1.364   1.861
10928W        W79146  31.379  29.198  12.432
10929W        W79147  43.287  13.819   4.315
10930W        W79148   0.541  22.550  14.897
10931W        W79149  21.142  10.388  13.966
10932W        W79150  39.421  11.226  14.809
10933W        W79151   3.239  42.511  12.096
10934W        W79152  13.515   1.186   1.281
10935W        W79153  23.586   5.844  12.062
10936W        W79154   3.975  21.532  13.410
10937W        W79155   3.367  13.559  12.009
10938W        W79156  31.712  15.810  10.615
10939W        W79157  25.940  42.765  13.007
10940W        W79158  16.797  35.337  12.113
10941W        W79159   8.276  44.759   1.485
10942W        W79160  27.268   9.363  12.840
10943W        W79161   0.301  26.453   4.219
10944W        W79162  21.732  10.372   4.219
10945W        W79163  15.178  25.145  12.852
10946W        W79164  38.311   8.625   5.016
10947W        W79165  35.372  30.728   1.773
10948W        W79166  36.378  42.041  12.146
10949W        W79167  36.326  44.926   3.616
10950W        W79168   2.085  14.981   3.783
10951W        W79169   0.296   3.373  11.075
10952W        W79170  23.148  39.963  11.106
10953W        W79171  18.756  28.385   4.217
10954W        W79172  31.657  11.546   3.670
10955W        W79173  21.048  31.538   3.747
10956W        W79174   0.700  25.531  12.177
10957W        W79175  42.104  28.759  10.212
10958W        W79176  41.496  19.829   2.242
10959W        W79177  18.229   8.674   1.363
10960W        W79178   7.688  26.146  14.533
10961W        W79179  23.230  24.079   4.130
10962W        W79180   8.340  13.099   3.662
10963W        W79181  40.813  37.545  13.958
10964W        W79182   1.183  44.842  13.808
10965W        W79183  13.840  22.070  12.225
10966W        W79184  18.309  38.935   3.704
10967W        W79185   3.355  42.720   2.616
10968W        W79186   2.419  30.925   3.627
10969W        W79187   2.106  42.849   1.445
10970W        W79188  43.804  13.374   0.718
10971W        W79189  30.617  13.054  14.425
10972W        W79190  10.105  21.226   1.171
10973W        W79191  21.668   3.162   0.351
10974W        W79192   6.983  44.336  10.075
10975W        W79193  34.818  25.447  14.953
10976W        W79194  22.061  23.688  13.999
10977W        W79195  25.108  12.208   3.895
10978W        W79196   2.421  18.492  12.414
10979W        W79197  10.216  19.807   1.847
10980W        W79198  13.285   2.474   2.291
10981W        W79199   3.008  18.301  10.697
10982W        W79200  13.969  30.075   0.768
10983W        W79201  28.714   3.547   1.409
10984W        W79202   9.420  33.944   2.776
10985W        W79203  33.984  28.479  14.332
10986W        W79204  43.241  17.234   1.372
10987W        W79205  19.638  31.167   3.799
10988W        W79206  21.451  11.118   3.106
10989W        W79207  21.489   0.879  14.417
10990W        W79208   6.257  34.606   3.812
10991W        W79209  32.780  39.803  12.958
10992W        W79210  32.687  12.197   0.781
10993W        W79211  17.491   4.481  12.118
10994W        W79212  17.406  35.630   4.483
10995W        W79213   1.203  25.240  11.545
10996W        W79214  28.167  34.115  14.944
10997W        W79215  39.408   2.289   1.846
10998W        W79216  18.190  34.053  11.183
10999W        W79217   2.799  32.824  12.684
11000W        W79218  38.391   7.214   0.796
11001W        W79219  21.003   6.160  14.755
11002W        W79220   9.678   0.483   1.197
11003W        W79221   6.883  17.655   2.707
11004W        W79222  43.899  24.517   4.187
11005W        W79223  38.936  39.518   1.780
11006W        W79224  36.317  25.418   1.958
11007W        W79225  33.123   9.653   4.276
11008W        W79226   7.653  34.242  13.290
11009W        W79227  17.630  30.087   2.712
11010W        W79228  20.960  34.872   3.744
11011W        W79229   0.888   9.895   4.442
11012W        W79230  25.124   1.694   3.911
11013W        W79231  41.807  39.059   4.192
11014W        W79232   7.936  23.669   0.934
11015W        W79233  12.347   1.233  11.149
11016W        W79234  22.941  25.046  11.616
11017W        W79235  34.086  38.775  13.900
11018W        W79236   9.843  44.402  10.180
11019W        W79237  20.567   8.349   4.935
11020W        W79238  38.999   6.843  13.268
11021W        W79239   5.199  40.460   0.425
11022W        W79240  41.211   4.835   4.076
11023W        W79241   0.766   0.123   1.814
11024W        W79242  28.472  22.477  11.002
11025W        W79243  41.193  40.379  11.051
11026W        W79244  28.875  15.693   2.843
11027W        W79245  30.886  18.021  12.864
11028W        W79246   0.508  35.731  11.993
11029W        W79247  11.720  16.314  11.549
11030W        W79248  32.575   5.353   1.794
11031W        W79249   7.920  12.599  11.977
11032W        W79250   5.885   1.256  10.796
11033W        W79251  39.335  36.650  11.040
11034W        W79252  41.976  38.885  10.995
11035W        W79253   6.828  22.246   0.894
11036W        W79254   7.436   1.253  11.621
11037W        W79255  12.201  20.119  10.643
11038W        W79256  39.748  23.164   3.313
11039W        W79257   4.854  27.004  11.192
11040W        W79258   6.866  42.769  14.883
11041W        W79259  40.519  16.088   4.936
11042W        W79260   9.844  17.558   1.169
11043W        W79261  25.675  13.834   3.726
11044W        W79262  44.725   7.279   5.065
11045W        W79263  10.153   1.271   4.964
11046W        W79264  14.179  38.914   5.017
11047W        W79265  24.678  20.562   4.898
11048W        W79266  38.369  30.563   3.421
11049W        W79267  30.949  22.397  11.141
11050W        W79268  44.640  29.500   0.839
11051W        W79269  29.144  29.613  13.510
11052W        W79270  29.128   9.360   4.787
11053W        W79271  35.107  13.783   3.372
11054W        W79272  13.012  26.677   1.343
11055W        W79273   5.668  12.261  10.482
11056W        W79274  44.756  20.534   0.275
11057W        W79275  11.947  13.109   3.619
11058W        W79276  19.521   8.224   3.590
11059W        W79277   3.006  11.416   9.872
11060W        W79278  44.472  25.507   2.703
11061W        W79279   6.063  13.158   2.874
11062W        W79280  43.559  41.022   4.044
11063W        W79281  12.239  16.251   4.101
11064W        W79282  39.307   3.728   1.856
11065W        W79283  14.199  36.835  11.571
11066W        W79284  31.624  25.557   4.714
11067W        W79285  11.705  21.118  14.950
11068W        W79286  43.790  12.722   4.873
11069W        W79287  25.466  19.409   3.406
11070W        W79288  26.206  42.408  14.007
11071W        W79289  36.825  32.074  11.183
11072W        W79290   1.506  39.341   2.563
11073W        W79291  14.244  26.927   3.696
11074W        W79292  18.036   0.939   1.407
11075W        W79293  29.552  20.300   4.620
11076W        W79294  19.703  25.434  13.402
11077W        W79295  23.624   6.283  10.972
11078W        W79296  36.642  40.993   2.914
11079W        W79297   6.330  30.382   1.238
11080W        W79298  34.993   5.262   5.087
11081W        W79299   1.294  27.377  12.048
11082W        W79300   3.575  35.897   2.199
11083W        W79301   5.419  32.462   3.877
11084W        W79302  27.274  37.103   3.836
11085W        W79303   0.089  37.504  14.433
11086W        W79304  32.948   3.054   3.701
11087W        W79305  23.695  43.627   1.708
11088W        W79306  28.518  21.563   0.770
11089W        W79307  16.784   5.527   3.117
11090W        W79308  44.652  33.427   2.635
11091W        W79309   0.353  34.636   1.837
11092W        W79310  44.686  25.403  12.316
11093W        W79311  41.352  28.898  14.772
11094W        W79312  13.458  12.838   2.021
11095W        W79313   3.232  30.045   3.598
11096W        W79314  18.581  15.568  12.421
11097W        W79315  27.944  20.240   2.213
11098W        W79316   8.325  38.300   1.823
11099W        W79317  42.870  37.441   4.363
11100W        W79318  19.539  25.588   0.402
11101W        W79319  11.831   3.204  14.469
11102W        W79320  26.488  37.927  13.320
11103W        W79321   7.422   8.839  13.347
11104W        W79322   4.815  21.969  14.930
11105W        W79323  27.046  28.668   1.246
11106W        W79324   4.373  35.950  11.661
11107W        W79325  12.714  16.263   0.891
11108W        W79326  25.512  40.392  11.756
11109W        W79327  42.759   0.806   4.041
11110W        W79328  25.972  37.980  13.173
11111W        W79329  10.207  38.616  14.292
11112W        W79330  15.044  26.811  12.161
11113W        W79331   9.156  44.795  13.456
11114W        W79332  35.180  37.327   0.261
11115W        W79333  12.776  32.476   3.805
11116W        W79334  39.971   2.041  12.967
11117W        W79335  41.469  10.157  11.311
11118W        W79336  26.424  31.934  14.885
11119W        W79337  26.946   4.840   3.697
11120W        W79338   6.936   0.411   3.715
11121W        W79339  29.619  36.012   3.336
11122W        W79340  42.064  29.427   4.620
11123W        W79341  23.033   1.227  11.673
11124W        W79342  20.388  16.466  10.294
11125W        W79343  38.035  35.614   3.360
11126W        W79344   3.617  27.456  10.274
11127W        W79345  40.849  11.100   1.421
11128W        W79346  21.211  30.178  11.076
11129W        W79347  36.796   0.708  14.513
11130W        W79348  36.378  28.629  11.287
11131W        W79349  15.046  20.151  12.535
11132W        W79350  41.522  37.832   3.162
11133W        W79351   2.646  14.954   0.326
11134W        W79352  24.529  15.530   3.011
11135W        W79353  11.408  35.721   4.062
11136W        W79354  42.116   1.455  14.877
11137W        W79355  24.575  39.051  12.426
11138W        W79356  12.117  10.639   4.376
11139W        W79357  43.424  21.205  11.163
11140W        W79358  35.579   6.403  13.560
11141W        W79359  35.818   5.093   4.633
11142W        W79360  14.269  29.819   1.441
11143W        W79361  25.456  36.549  12.578
11144W        W79362  18.138  17.738  10.373
11145W        W79363  28.431  33.865   3.706
11146W        W79364  16.646   7.320   2.196
11147W        W79365   1.193  23.004   3.737
11148W        W79366  26.267  25.527   9.788
11149W        W79367  23.552  28.849  12.244
11150W        W79368  29.901  23.042  11.577
11151W        W79369  21.618   3.164  10.285
11152W        W79370   7.193   4.880  14.358
11153W        W79371  11.755  12.643  12.510
11154W        W79372  10.598  18.111  10.266
11155W        W79373  36.052   9.844  14.517
11156W        W79374  28.647  18.521   1.789
11157W        W79375  39.389  40.102   3.786
11158W        W79376  41.362   8.777  10.672
11159W        W79377  34.595   4.972  13.466
11160W        W79378  25.980   7.892  14.088
11161W        W79379  40.496  25.671  11.087
11162W        W79380  38.117  23.532   0.466
11163W        W79381  40.306   9.193  12.596
11164W        W79382   6.820  15.713  12.046
11165W        W79383  44.314  35.840  10.416
11166W        W79384  26.027  20.510   3.236
11167W        W79385  10.643  24.515  12.419
11168W        W79386  26.142  34.659  12.750
11169W        W79387  40.947  38.821  12.492
11170W        W79388  10.333   3.821   4.961
11171W        W79389   4.866   4.223  14.983
11172W        W79390  32.204   0.572  13.071
11173W        W79391  34.938  26.254   0.387
11174W        W79392  30.885  43.012   9.887
11175W        W79393  28.074   9.787   2.805
11176W        W79394  13.629  38.507  12.038
11177W        W79395  28.032   8.200  13.419
11178W        W79396  31.498   0.234   3.334
11179W        W79397  31.396  31.655   1.796
11180W        W79398  30.144  15.646   0.051
11181W        W79399  28.513  30.908   3.757
11182W        W79400  22.863  41.541   4.267
11183W        W79401  21.230  38.465   3.083
11184W        W79402  40.842  38.962  10.741
11185W        W79403  23.817  35.513  11.155
11186W        W79404   5.402  10.076  11.891
11187W        W79405  34.530   5.290   5.333
11188W        W79406   5.315  42.380  11.461
11189W        W79407  11.554  12.601  10.337
11190W        W79408  31.355  32.451  14.486
11191W        W79409  43.854  28.777  11.967
11192W        W79410  35.991  29.369   3.682
11193W        W79411   9.722  13.834   4.889
11194W        W79412   0.965  15.496  14.004
11195W        W79413  41.477   2.943   4.790
11196W        W79414  33.255   6.923   3.959
11197W        W79415  15.806  19.122   4.265
11198W        W79416  42.055  28.472   2.245
11199W        W79417  33.378   6.602  11.531
11200W        W79418   0.466  34.554  12.046
11201W        W79419   0.979  18.990   0.163
11202W        W79420  21.588  18.861   3.674
11203W        W79421  24.476  31.642  10.894
11204W        W79422  12.611  22.525  11.099
11205W        W79423  43.646  10.433  12.230
11206W        W79424   8.671  11.612   2.312
11207W        W79425  13.681  16.574  11.891
11208W        W79426  44.344   2.852   4.667
11209W        W79427   8.269  34.712   1.503
11210W        W79428   6.301  39.044   4.186
11211W        W79429  29.193  26.691  14.857
11212W        W79430  16.202   9.084  10.810
11213W        W79431  44.923  32.096  14.511
11214W        W79432   1.067  24.487   1.847
11215W        W79433   7.247  43.861   0.440
11216W        W79434  39.586  44.586  11.568
11217W        W79435  22.108   0.524   1.802
11218W        W79436  12.808  37.034   0.792
11219W        W79437  19.226  17.069   0.919
11220W        W79438  36.051  18.191  10.664
11221W        W79439  35.596   1.288  13.118
11222W        W79440   2.955  40.041  11.374
11223W        W79441   1.876   3.471   0.103
11224W        W79442   3.275  23.736  11.936
11225W        W79443   8.262  21.467  12.060
11226W        W79444   9.644  31.455  11.492
11227W        W79445  38.835  12.137  13.654
11228W        W79446  20.528  24.623   0.780
11229W        W79447  36.912   1.169  14.318
11230W        W79448  40.498  15.832  11.924
11231W        W79449   3.314   2.369  14.927
11232W        W79450   8.853  22.556  13.999
11233W        W79451  44.382  33.326   0.298
11234W        W79452  15.356  37.384  14.957
11235W        W79453  11.104   6.669   3.095
11236W        W79454  21.031  30.546  12.902
11237W        W79455   6.865  15.302  10.358
11238W        W79456   2.168  41.250  11.221
11239W        W79457  20.583  14.137  14.716
11240W        W79458  41.736   5.243  12.594
11241W        W79459  40.728   1.928   1.694
11242W        W79460  30.471  16.103  11.939
11243W        W79461  34.464  27.644  13.264
11244W        W79462  27.476  20.951   0.516
11245W        W79463  38.068  12.199  11.596
11246W        W79464   0.393  31.855   2.011
11247W        W79465  17.140  43.246   3.277
11248W        W79466   0.952  19.507   2.462
11249W        W79467  28.746  16.202   3.273
11250W        W79468   4.835  17.635   0.283
11251W        W79469   1.017   9.901  11.263
11252W        W79470   0.227  35.972  14.797
11253W        W79471  40.851  42.676  10.933
11254W        W79472  32.668  30.411  12.559
11255W        W79473   1.057   7.073  12.231
11256W        W79474  33.739   1.431  12.085
11257W        W79475   8.260  23.026  12.223
11258W        W79476  11.600  16.255  10.984
11259W        W79477  26.647  30.048   4.066
11260W        W79478   8.910  44.570   2.405
11261W        W79479  19.811  44.531   0.004
11262W        W79480  24.654   2.452   3.360
11263W        W79481  28.913  14.867   2.343
11264W        W79482  23.017  14.676  13.717
11265W        W79483  20.680  13.057  13.395
11266W        W79484  39.380   4.030   2.280
11267W        W79485  19.588  35.326  12.895
11268W        W79486  36.795  26.553   3.871
11269W        W79487  24.412  39.052   3.250
11270W        W79488   4.338   3.415  12.514
11271W        W79489  26.563  20.239   0.416
11272W        W79490  37.664  35.929   3.181
11273W        W79491   8.242  41.894  11.258
11274W        W79492  21.710  25.731  11.024
11275W        W79493  30.003  21.636  10.569
11276W        W79494  36.221  37.620  12.101
11277W        W79495  35.832  26.152  11.546
11278W        W79496  14.562   8.549  12.848
11279W        W79497   5.759  10.040  10.653
11280W        W79498   0.433  15.150   1.147
11281W        W79499  17.169  42.357  14.970
11282W        W79500  32.101  43.563  13.153
11283W        W79501  23.109  29.060  11.202
11284W        W79502  42.781  40.806  14.556
11285W        W79503  41.796  38.921  13.044
11286W        W79504   4.297  24.703  12.202
11287W        W79505  33.825  31.952   1.865
11288W        W79506  19.795  29.033  11.064
11289W        W79507  34.369  26.062   1.945
11290W        W79508  29.572  24.541   0.483
11291W        W79509   4.827  21.198   4.484
11292W        W79510   6.921  32.969  11.220
11293W        W79511  33.358  14.733   2.698
11294W        W79512  31.014  20.149  13.015
11295W        W79513  34.226   2.488   2.727
11296W        W79514   6.584   6.275   3.757
11297W        W79515  20.491  17.281  12.802
11298W        W79516   2.934  34.357   0.257
11299W        W79517  33.872   5.450  10.985
11300W        W79518   7.021   9.850  11.860
11301W        W79519  14.158  14.736  11.240
11302W        W79520  15.313  11.723   1.738
11303W        W79521  30.226  14.733   1.209
11304W        W79522  31.384  25.986   3.254
11305W        W79523   7.599  28.977  12.352
11306W        W79524  24.523  25.990   0.740
11307W        W79525  20.094   2.886   3.835
11308W        W79526  25.075   5.715   2.186
11309W        W79527   6.476   8.157   4.197
11310W        W79528  19.273  22.679   4.152
11311W        W79529  10.384  30.094  10.588
11312W        W79530  22.575  11.336   0.064
11313W        W79531  12.083  25.066  14.898
11314W        W79532   7.221  27.726  12.855
11315W        W79533  40.335   9.551  10.816
11316W        W79534  27.161  19.769   4.661
11317W        W79535  44.162  26.515   5.160
11318W        W79536   9.270  21.405  12.838
11319W        W79537   3.267  17.663   1.373
11320W        W79538  37.578  36.025  11.290
11321W        W79539  24.499   7.659  10.761
11322W        W79540  13.894  44.658  11.412
11323W        W79541  39.884  12.942  13.358
11324W        W79542  43.353  28.077  12.392
11325W        W79543  42.060  22.949   5.199
11326W        W79544  17.168  17.074  13.466
11327W        W79545  10.353  43.514  10.765
11328W        W79546   9.231  30.799  13.900
11329W        W79547  28.525  31.427   4.559
11330W        W79548  14.230  18.820  14.004
11331W        W79549  38.084  37.429   3.318
11332W        W79550  13.742  23.072  14.338
11333W        W79551  34.011  18.017   3.293
11334W        W79552   1.548  41.411  11.828
11335W        W79553  33.317  37.557   1.367
11336W        W79554  38.113  18.741   3.309
11337W        W79555  20.633  23.703   4.414
11338W        W79556  10.284  28.225   9.991
11339W        W79557  11.676  43.996  11.454
11340W        W79558   8.370  40.298   3.806
11341W        W79559  13.588  17.767   2.447
11342W        W79560  43.995   6.174  14.589
11343W        W79561  39.044  25.755  13.067
11344W        W79562  16.731   8.036  11.570
11345W        W79563  44.353   5.958  14.327
11346W        W79564  18.780  39.010   4.605
11347W        W79565  31.692  30.664  11.632
11348W        W79566  11.277  34.601  12.261
11349W        W79567  25.515  38.321  11.821
11350W        W79568  35.610  19.553   2.005
11351W        W79569  29.231  25.494  10.900
11352W        W79570   1.248  22.428  12.050
11353W        W79571   6.850  33.938   4.837
11354W        W79572  41.050  34.392   4.333
11355W        W79573  33.938  37.991  13.554
11356W        W79574   2.037  25.789  12.863
11357W        W79575  19.782  38.117  12.328
11358W        W79576   9.835   0.900  13.148
11359W        W79577   5.858  34.018  13.819
11360W        W79578  16.947  10.007  11.464
11361W        W79579   2.905   3.255  12.441
11362W        W79580  32.869   3.052  10.447
11363W        W79581  10.697  19.975  12.010
11364W        W79582  31.471  10.967  11.215
11365W        W79583  13.903  43.370  14.791
11366W        W79584  43.410  18.802   1.302
11367W        W79585  26.169  33.466  10.718
11368W        W79586  39.540  12.922   0.994
11369W        W79587  43.929   3.057   3.697
11370W        W79588  38.993  41.815  10.692
11371W        W79589  19.130  44.323  11.160
11372W        W79590  22.554  12.829  12.033
11373W        W79591  41.474   3.910  10.234
11374W        W79592  11.054  40.794  11.074
11375W        W79593  24.601  24.578   1.475
11376W        W79594  44.183  20.120  11.120
11377W        W79595   6.892  44.492   3.158
11378W        W79596  19.559  13.131  11.247
11379W        W79597  31.021   3.195   3.187
11380W        W79598  17.151  36.328  13.427
11381W        W79599   6.087   4.683   3.901
11382W        W79600  14.524  29.238  11.240
11383W        W79601  21.073  40.295   2.468
11384W        W79602  44.393  29.660  10.776
11385W        W79603  17.089  17.144   2.364
11386W        W79604  37.892  31.500  14.938
11387W        W79605  36.932  33.094  10.399
11388W        W79606   4.907   8.320   2.811
11389W        W79607  44.079   1.915  13.046
11390W        W79608  10.739   9.859  10.891
11391W        W79609  14.691  39.102  13.150
11392W        W79610   3.928  38.383  11.953
11393W        W79611  24.698  14.409   4.984
11394W        W79612  24.175  16.600   1.196
11395W        W79613  38.303  13.885   2.207
11396W        W79614  31.080  24.508  11.794
11397W        W79615  43.736  21.733   0.883
11398W        W79616   7.669  18.720   3.641
11399W        W79617   5.789  36.780   2.281
11400W        W79618  26.664  15.836   0.840
11401W        W79619  27.548  21.474  12.816
11402W        W79620  24.540  26.155   1.441
11403W        W79621   8.844   1.345  10.945
11404W        W79622  29.766   0.336   4.856
11405W        W79623  16.617  16.635  11.556
11406W        W79624   3.764  24.238  10.670
11407W        W79625   0.404   4.479   2.560
11408W        W79626  38.772  19.044  12.557
11409W        W79627  29.875  24.901  12.108
11410W        W79628  34.037   2.543   1.154
11411W        W79629  14.696  30.284   4.508
11412W        W79630  11.735  12.005   4.561
11413W        W79631  14.082  38.331   2.105
11414W        W79632  32.482  13.104   2.782
11415W        W79633   3.774  42.885   4.667
11416W        W79634  44.184  20.611  14.485
11417W        W79635  23.328   8.711  12.684
11418W        W79636   9.942  28.164  10.482
11419W        W79637  18.532  13.778  13.824
11420W        W79638  44.299   8.479  14.874
11421W        W79639  42.336  26.832  14.372
11422W        W79640  14.134   4.091  13.753
11423W        W79641  38.104  31.695   3.781
11424W        W79642  27.793  40.996   4.817
11425W        W79643  25.140  22.222  12.466
11426W        W79644  20.702   7.594   3.790
11427W        W79645  21.778  30.999  12.540
11428W        W79646  10.656  20.103   1.840
11429W        W79647   5.640  38.504  11.644
11430W        W79648  39.358  43.422   2.965
11431W        W79649   2.306  39.315   3.659
11432W        W79650  24.127  23.538   2.828
11433W        W79651  36.479  14.443   2.265
11434W        W79652   5.320  16.775  13.049
11435W        W79653  30.531  42.068  10.725
11436W        W79654   6.466  38.512   4.173
11437W        W79655   4.312  22.586  10.357
11438W        W79656  23.717  43.230   2.257
11439W        W79657  34.406  22.071   1.472
11440W        W79658  25.877  23.728  13.033
11441W        W79659  17.299  16.124   0.663
11442W        W79660  13.693  31.882  11.479
11443W        W79661   7.739   5.819   3.194
11444W        W79662  35.601  11.151   0.685
11445W        W79663   6.791  15.156  11.376
11446W        W79664  38.871  16.783   0.287
11447W        W79665  29.777  31.991  13.914
11448W        W79666  10.327  26.102   3.688
11449W        W79667  12.585  15.188   3.784
11450W        W79668   6.822  25.942  13.282
11451W        W79669   9.231  10.946   0.917
11452W        W79670  42.863  20.956   2.740
11453W        W79671  38.069   9.679   3.739
11454W        W79672   1.206  29.706  12.885
11455W        W79673  39.035  43.302  12.349
11456W        W79674  21.086   4.352   3.411
11457W        W79675  21.070  37.951   3.774
11458W        W79676  11.260   8.712   2.228
11459W        W79677  39.979  11.644  10.388
11460W        W79678  34.977  18.305   0.590
11461W        W79679   7.122   4.238   0.759
11462W        W79680  44.506   4.717  14.023
11463W        W79681  37.756  44.765  14.854
11464W        W79682  14.569  21.625  12.111
11465W        W79683  27.173  29.048  11.556
11466W        W79684  43.331  33.397   0.420
11467W        W79685   4.284  16.304   2.467
11468W        W79686   1.863   0.849   0.407
11469W        W79687   7.900   4.864   3.561
11470W        W79688   6.838   9.309   4.732
11471W        W79689  10.089  24.807   0.386
11472W        W79690  32.108  35.993  11.972
11473W        W79691  24.596  10.272   2.621
11474W        W79692  14.107  16.818  12.110
11475W        W79693  13.554  33.074   3.694
11476W        W79694  33.306   8.365   1.856
11477W        W79695  44.764  21.661  11.719
11478W        W79696   2.678  22.486   9.849
11479W        W79697   9.700  44.297   0.782
11480W        W79698  40.864   9.933   0.331
11481W        W79699  13.940   0.110  12.120
11482W        W79700   6.324   9.036   0.724
11483W        W79701  13.732   2.138  12.211
11484W        W79702  37.381  32.576   1.348
11485W        W79703   3.706  20.510   2.516
11486W        W79704  23.139  32.139  10.035
11487W        W79705   7.672  25.081   0.177
11488W        W79706   9.861  26.698   2.196
11489W        W79707  14.586  25.064   1.013
11490W        W79708   8.261  15.179  13.348
11491W        W79709   8.833  33.874  12.369
11492W        W79710  12.081  32.228  14.832
11493W        W79711  20.068  42.537  14.856
11494W        W79712  11.006  30.941  12.462
11495W        W79713  19.545  10.551   2.275
11496W        W79714  23.078  27.957   4.197
11497W        W79715  27.250  25.457  13.068
11498W        W79716  17.611   7.399   1.242
11499W        W79717  20.280  14.716   3.112
11500W        W79718   5.272  42.915  12.894
11501W        W79719   3.257  28.652   2.254
11502W        W79720  36.420  39.473  11.962
11503W        W79721  44.009  14.381   1.794
11504W        W79722  16.321   7.604   3.314
11505W        W79723  18.834  36.515   1.795
11506W        W79724   2.917  43.937  12.495
11507W        W79725  17.375  10.672  11.619
11508W        W79726  33.866  32.664  14.393
11509W        W79727  23.421  27.352  14.564
11510W        W79728  23.975  41.417   3.397
11511W        W79729  32.325  38.893  10.225
11512W        W79730  30.084  35.944  14.873
11513W        W79731  32.146   9.337   2.624
11514W        W79732   2.233  15.718   0.982
11515W        W79733  14.801  25.593  14.741
11516W        W79734  40.795   7.241   0.981
11517W        W79735   0.321  40.844   3.257
11518W        W79736   6.135  29.033   0.450
11519W        W79737   5.244  26.070   3.624
11520W        W79738  20.206  21.067   4.244
11521W        W79739   7.218  35.866  11.176
11522W        W79740  37.339  11.942   1.970
11523W        W79741  11.964   4.827   1.912
11524W        W79742  24.921   7.179  13.810
11525W        W79743  16.036   0.618   2.539
11526W        W79744   8.786  27.036  13.863
11527W        W79745  12.638  22.784  11.917
11528W        W79746  29.303  15.186  12.908
11529W        W79747  16.591  31.352  12.657
11530W        W79748  42.257   1.591   3.577
11531W        W79749  40.401  25.087  14.916
11532W        W79750  12.196  23.541   4.641
11533W        W79751   2.702  43.390   0.475
11534W        W79752  26.274  32.012  11.987
11535W        W79753   7.432  42.777   1.871
11536W        W79754  35.512  18.163   1.942
11537W        W79755  31.197  19.942  12.557
11538W        W79756   3.328   9.599   0.798
11539W        W79757  20.193   4.207   1.115
11540W        W79758  29.016  18.033  11.579
11541W        W79759   0.982   6.674  12.968
11542W        W79760  33.378   6.339   1.698
11543W        W79761  14.267  29.640  11.437
11544W        W79762  40.363  32.610   0.530
11545W        W79763  30.119  32.631  10.912
11546W        W79764   1.000  40.386  14.264
11547W        W79765  44.661  33.130   1.397
11548W        W79766  35.653  39.583   1.923
11549W        W79767  11.366   0.447   4.240
11550W        W79768  22.168  32.370   0.299
11551W        W79769  37.114   5.288  13.426
11552W        W79770  15.676   5.191  12.642
11553W        W79771  29.075  44.868   2.387
11554W        W79772  24.545  21.811  14.400
11555W        W79773  35.928  30.053   1.299
11556W        W79774  17.981  37.968  12.355
11557W        W79775   5.169   8.286  11.396
11558W        W79776   5.329   3.895  13.242
11559W        W79777  35.767  31.361   1.209
11560W        W79778  27.274  42.098   0.207
11561W        W79779   4.351  41.895   2.559
11562W        W79780  23.511  11.928   1.247
11563W        W79781  11.139  19.460   1.684
11564W        W79782  22.138   5.279   0.701
11565W        W79783  20.051   3.497   0.341
11566W        W79784  27.032  18.391   2.184
11567W        W79785  20.341  40.550  10.828
11568W        W79786   4.992  32.627   2.343
11569W        W79787   9.308  10.659  14.896
11570W        W79788  14.816  25.511  12.826
11571W        W79789   2.976  40.624  12.720
11572W        W79790  26.956  42.880  14.985
11573W        W79791   0.586  39.667  10.600
11574W        W79792  28.683  11.119   3.696
11575W        W79793  31.564  40.052   4.468
11576W        W79794  15.395  22.890  13.057
11577W        W79795  28.140  10.813  11.374
11578W        W79796  19.853  21.796   4.051
11579W        W79797  14.312  43.037   3.074
11580W        W79798  20.029  15.823  12.411
11581W        W79799  40.899  42.471   2.325
11582W        W79800   6.259   9.813  14.610
11583W        W79801  17.503  33.351   4.097
11584W        W79802  41.710   1.749  12.932
11585W        W79803  25.954  17.170  14.913
11586W        W79804   3.842  35.037  12.834
11587W        W79805  14.325  20.459  11.858
11588W        W79806  36.565  35.684  12.849
11589W        W79807  29.791  17.812   0.237
11590W        W79808  20.141  43.243  14.279
11591W        W79809  28.245  15.155   3.286
11592W        W79810  35.933   8.368  10.685
11593W        W79811  22.209  11.708   0.789
11594W        W79812  28.023  12.809  13.356
11595W        W79813  34.127  43.006  14.034
11596W        W79814   2.624  12.281  14.029
11597W        W79815  22.093   7.136   2.762
11598W        W79816  25.999  15.294   1.312
11599W        W79817   8.441  35.130  12.081
11600W        W79818  26.495  24.278   3.684
11601W        W79819  12.825  34.549   4.458
11602W        W79820  23.478  39.583  13.146
11603W        W79821  21.033   2.677  14.951
11604W        W79822  19.058  32.675   3.288
11605W        W79823  13.749  23.427   1.230
11606W        W79824  20.697  10.420  13.298
11607W        W79825  40.533  36.415   1.302
11608W        W79826  13.649  23.105  10.511
11609W        W79827  32.618  14.466   2.406
11610W        W79828  23.499  21.076  11.993
11611W        W79829  40.330  32.649   2.835
11612W        W79830  44.342   0.730   0.951
11613W        W79831  23.240   1.374  13.946
11614W        W79832   2.452  29.768  14.999
11615W        W79833  33.470   5.917  14.238
11616W        W79834  44.966  17.655   0.403
11617W        W79835  22.467  21.945  11.137
11618W        W79836  44.371  37.575  12.932
11619W        W79837  43.341  27.128   1.964
11620W        W79838   9.278   1.386   1.377
11621W        W79839  20.253  16.336   4.240
11622W        W79840  37.347   0.986   1.251
11623W        W79841  36.607   4.667   2.253
11624W        W79842  23.195  24.781   0.758
11625W        W79843  39.296  40.332  11.083
11626W        W79844  36.018  41.761   2.244
11627W        W79845  21.198   7.642   2.744
11628W        W79846  26.453  17.041   0.999
11629W        W79847  27.373  14.231   1.792
11630W        W79848  35.932  44.500  10.744
11631W        W79849   9.586   1.268  12.225
11632W        W79850  33.422  41.323   0.532
11633W        W79851  15.849  24.589  12.631
11634W        W79852   7.230  37.653  11.494
11635W        W79853  17.088   5.832  10.705
11636W        W79854   4.667   6.293  10.376
11637W        W79855  29.642  39.935   2.342
11638W        W79856  14.782  18.113  10.837
11639W        W79857   6.240  25.031  13.932
11640W        W79858   1.196  11.812  11.582
11641W        W79859   5.119  35.368  12.030
11642W        W79860  31.260   8.444  10.869
11643W        W79861   6.396  42.463  13.020
11644W        W79862  29.607  21.643   2.124
11645W        W79863  20.819   7.301   2.882
11646W        W79864  37.726  24.520   0.416
11647W        W79865   8.729  43.404  12.146
11648W        W79866  13.166   3.929  10.664
11649W        W79867  33.527  23.268  12.680
11650W        W79868  31.530  24.650   4.221
11651W        W79869   7.673  28.084   0.406
11652W        W79870  15.177  21.629   0.448
11653W        W79871  40.936  27.952  13.368
11654W        W79872  31.559  11.110  11.899
11655W        W79873  39.091  23.606  14.027
11656W        W79874  41.126   9.106   1.706
11657W        W79875  35.366  38.725   0.456
11658W        W79876  28.910  24.769   4.390
11659W        W79877   9.284  34.666  13.390
11660W        W79878  18.027  33.665  14.459
11661W        W79879  42.478  24.051  12.146
11662W        W79880  10.101  31.401  12.183
11663W        W79881  20.933   1.707   1.913
11664W        W79882  27.580   6.121  12.877
11665W        W79883   5.617  27.565  11.642
11666W        W79884   6.139  35.131   3.094
11667W        W79885  29.353  43.362   4.847
11668W        W79886  15.168   6.106   1.138
11669W        W79887   7.022  32.384   2.897
11670W        W79888   6.749  26.878  10.439
11671W        W79889  24.314  37.319  12.330
11672W        W79890  29.026   7.939   3.357
11673W        W79891   0.279  26.520   0.329
11674W        W79892  15.233   0.375   1.443
11675W        W79893  41.050  42.745  11.850
11676W        W79894  32.721   7.674  14.431
11677W        W79895  31.834  32.817   4.056
11678W        W79896  40.910  25.259  14.056
11679W        W79897  37.824  12.230  11.157
11680W        W79898  18.742  17.306  13.440
11681W        W79899  18.772  24.735  11.625
11682W        W79900  31.498  21.986   1.449
11683W        W79901   6.260   0.619   2.715
11684W        W79902  24.741  23.092  14.063
11685W        W79903  25.383   5.349  11.670
11686W        W79904   7.190  22.010  14.386
11687W        W79905  14.116  41.593   4.931
11688W        W79906  13.299  20.475   4.501
11689W        W79907   5.219  33.088   2.425
11690W        W79908  20.463  12.203   1.685
11691W        W79909  11.401  43.941   1.767
11692W        W79910  14.712   9.828  14.660
11693W        W79911  18.706  16.510  12.947
11694W        W79912  17.786  12.758  13.030
11695W        W79913  39.710  11.680   2.178
11696W        W79914  17.075  30.407  13.847
11697W        W79915   8.090  19.045   9.668
11698W        W79916  35.427  44.374  11.516
11699W        W79917  17.066  40.873  12.346
11700W        W79918   1.948  16.411   0.084
11701W        W79919  33.397  37.007   1.690
11702W        W79920   0.335  38.327   2.922
11703W        W79921   2.424  31.798   3.831
11704W        W79922  10.345  11.714  13.350
11705W        W79923  30.684  28.925   4.305
11706W        W79924  24.941  31.632  11.178
11707W        W79925   8.342  14.773  14.021
11708W        W79926  40.404  30.160  14.458
11709W        W79927  31.066  41.519  14.532
11710W        W79928   2.275   3.368  14.302
11711W        W79929  29.167  31.480  13.269
11712W        W79930  42.752  34.874  11.863
11713W        W79931  27.261  40.385  12.925
11714W        W79932   1.714  27.243   2.309
11715W        W79933   9.544  34.986  14.761
11716W        W79934   8.857  12.514  12.903
11717W        W79935  35.808  34.505  11.229
11718W        W79936  10.317  33.714  13.519
11719W        W79937  15.176  14.506   1.666
11720W        W79938  28.933  22.090   0.362
11721W        W79939  42.945  29.907  13.946
11722W        W79940  44.299  17.777   0.885
11723W        W79941  25.233   2.606  14.850
11724W        W79942  27.263   1.485   4.961
11725W        W79943   0.813   1.853  10.436
11726W        W79944  28.031  15.149  13.562
11727W        W79945   4.704  44.945   9.972
11728W        W79946  14.164  28.786  12.541
11729W        W79947  19.091  27.608   2.820
11730W        W79948   3.853  42.577  11.479
11731W        W79949   6.572  17.241   2.693
11732W        W79950  34.882  30.041   3.404
11733W        W79951  21.234  11.871  11.170
11734W        W79952  36.476  36.828  11.113
11735W        W79953  13.037   7.428  11.264
11736W        W79954  34.761   2.962   4.948
11737W        W79955  38.526  41.064   4.517
11738W        W79956  18.077  41.254   1.815
11739W        W79957  23.266  33.458   1.049
11740W        W79958  12.690  40.373   1.826
11741W        W79959  42.587  41.195  12.131
11742W        W79960  24.615   7.141  11.929
11743W        W79961   3.349  23.595   3.850
11744W        W79962   5.348  17.510  12.280
11745W        W79963  28.128  19.773  14.540
11746W        W79964  19.613  22.070  13.389
11747W        W79965   1.421  20.977   1.903
11748W        W79966  44.012  44.991  14.622
11749W        W79967  11.234  31.709  10.687
11750W        W79968  14.733  33.608   4.597
11751W        W79969  32.438  34.844   2.380
11752W        W79970  30.142  21.040   4.948
11753W        W79971  20.173   1.967  13.530
11754W        W79972  25.278  42.468   4.571
11755W        W79973  10.305  17.534   3.322
11756W        W79974  39.819  17.302  10.615
11757W        W79975  11.321  30.851   4.611
11758W        W79976  13.464  27.650   2.767
11759W        W79977  22.991  32.869   0.241
11760W        W79978  31.054  35.602   3.707
11761W        W79979  12.181  30.515   1.420
11762W        W79980  16.807   2.642  12.987
11763W        W79981  40.884  17.052  12.861
11764W        W79982  12.951  40.859  11.638
11765W        W79983   2.986  44.446   3.553
11766W        W79984  17.270  44.461   2.391
11767W        W79985   1.912  25.049   3.244
11768W        W79986  24.418  39.690   2.247
11769W        W79987   6.163  10.598  12.323
11770W        W79988  17.071  27.452   2.538
11771W        W79989  28.012  44.980  12.068
11772W        W79990  10.435  14.398  10.213
11773W        W79991   5.350  26.444  13.558
11774W        W79992  26.228   7.194  11.051
11775W        W79993  37.588   3.871  12.029
11776W        W79994  32.363  42.727  11.079
11777W        W79995  37.388  36.463   4.234
11778W        W79996  26.940  22.206  13.809
11779W        W79997   5.158  43.484  12.944
11780W        W79998   4.494  42.802  11.939
11781W        W79999  11.262  43.310   3.903
11782W        W80000   6.754  15.101   0.468
11783W        W80001  10.399  10.620  14.807
11784W        W80002  25.214   8.338  13.485
11785W        W80003   2.238  13.268   3.733
11786W        W80004  24.709  18.650   1.758
11787W        W80005  27.054  33.392  10.675
11788W        W80006  36.191  28.925   2.807
11789W        W80007   9.215  23.245  12.134
11790W        W80008   5.944   3.340  12.761
11791W        W80009   4.948  34.427   4.082
11792W        W80010   7.976  26.709   1.337
11793W        W80011  23.893  25.555  11.535
11794W        W80012  35.416  22.025  11.965
11795W        W80013  34.654  13.375  11.138
11796W        W80014   9.960  19.537   3.701
11797W        W80015  41.093   9.296  11.568
11798W        W80016  23.583   2.232   4.235
11799W        W80017  37.913  17.648  12.867
11800W        W80018   8.466  37.978  14.748
11801W        W80019   9.307   0.837   2.911
11802W        W80020  22.024   8.854   3.473
11803W        W80021  37.287  28.054  14.927
11804W        W80022  10.932  42.848  13.993
11805W        W80023  21.032  20.584   3.149
11806W        W80024  18.530  43.331  11.120
11807W        W80025  11.150  33.279   2.519
11808W        W80026   0.427   4.651   1.616
11809W        W80027  39.434  17.702   3.196
11810W        W80028  12.089  31.222  12.605
11811W        W80029  13.941  26.043   4.555
11812W        W80030  11.106  11.020  11.603
11813W        W80031  28.627  26.097  12.833
11814W        W80032  34.488   3.437  11.136
11815W        W80033   0.958  36.427  14.048
11816W        W80034   5.051  17.601  10.454
11817W        W80035   7.990  23.446   4.591
11818W        W80036  30.348  29.416   2.917
11819W        W80037  23.303  17.773  13.210
11820W        W80038  39.523   3.687  13.060
11821W        W80039  22.194  38.024   0.798
11822W        W80040  13.368   6.363  12.439
11823W        W80041  21.179  25.467   3.213
11824W        W80042  21.967  32.375   3.432
11825W        W80043   4.662  41.059   1.619
11826W        W80044  38.428  10.696   0.810
11827W        W80045  34.995   2.478   4.854
11828W        W80046  28.352  32.706   1.752
11829W        W80047  13.141  26.634   5.181
11830W        W80048  40.349  12.349   1.691
11831W        W80049  36.000  43.736  11.106
11832W        W80050  31.090  23.389  10.794
11833W        W80051  13.727  43.770  14.394
11834W        W80052   7.823  15.082   5.412
11835W        W80053  11.786  28.963  10.769
11836W        W80054  36.803  17.675  11.573
11837W        W80055  44.058   7.740   1.216
11838W        W80056  12.829  30.201  11.183
11839W        W80057  11.407  38.515  11.981
11840W        W80058  28.355  43.356   2.827
11841W        W80059   2.844  31.612   4.127
11842W        W80060   9.671  37.535   3.484
11843W        W80061  25.047   4.964  14.929
11844W        W80062  24.774  30.488  11.382
11845W        W80063   8.129  41.682  12.038
11846W        W80064  24.363  10.852   1.818
11847W        W80065   5.384   3.152   0.564
11848W        W80066   8.997  10.207  13.712
11849W        W80067   5.303  26.693  10.176
11850W        W80068  20.556  20.646  12.542
11851W        W80069  42.519  12.662  13.009
11852W        W80070  20.279   3.282   3.554
11853W        W80071   6.352  11.354   2.762
11854W        W80072   3.733  19.161   3.668
11855W        W80073   2.278  26.388   4.856
11856W        W80074   4.640  19.877  11.106
11857W        W80075  13.087  28.710   1.358
11858W        W80076   1.167  20.232   3.666
11859W        W80077  33.903   6.128  14.455
11860W        W80078  17.370  34.350  14.371
11861W        W80079   1.302  22.559   2.976
11862W        W80080  18.621  43.806   1.349
11863W        W80081  31.096  29.116   3.997
11864W        W80082  40.862  41.756  13.508
11865W        W80083   5.471  32.125  14.449
11866W        W80084  37.279  32.538   3.243
11867W        W80085  36.105  11.849   2.308
11868W        W80086  43.438  38.495  13.425
11869W        W80087  35.070   5.248  11.421
11870W        W80088  31.963  23.797   2.887
11871W        W80089  13.832  42.797   3.632
11872W        W80090  38.639  20.564  14.757
11873W        W80091  26.024  20.482  12.000
11874W        W80092  10.087  44.518  12.081
11875W        W80093   2.875  42.787  13.452
11876W        W80094  36.865   3.885   3.712
11877W        W80095  14.233  42.058   1.932
11878W        W80096  31.397  35.946  14.593
11879W        W80097  15.107  42.567   4.757
11880W        W80098  29.074  19.730   0.646
11881W        W80099  44.337  19.672  11.293
11882W        W80100  12.240  18.930   3.114
11883W        W80101   9.331  42.386  10.958
11884W        W80102  16.849  40.967  11.860
11885W        W80103  23.375  42.856  11.196
11886W        W80104   6.101  39.398   0.807
11887W        W80105   1.239  16.131  11.188
11888W        W80106  20.523  18.121  10.597
11889W        W80107  16.633  14.637  11.602
11890W        W80108  27.467  27.178  13.550
11891W        W80109  22.055  42.477   4.110
11892W        W80110  20.526  25.732  12.554
11893W        W80111  12.139  37.270   0.514
11894W        W80112  19.216   2.759   4.849
11895W        W80113   4.497  38.409   1.891
11896W        W80114  44.379  38.294   0.479
11897W        W80115  26.452  21.631  14.299
11898W        W80116  37.273  29.505  14.342
11899W        W80117  25.147  29.342  10.912
11900W        W80118  28.517  13.323   1.297
11901W        W80119  31.421  36.502  12.325
11902W        W80120   9.836  13.497   1.351
11903W        W80121  16.233  21.838  14.982
11904W        W80122   5.545  18.765  11.192
11905W        W80123   7.935   1.721  11.560
11906W        W80124  39.838  29.052   4.798
11907W        W80125   1.007  25.171  11.028
11908W        W80126  29.516   4.796   2.736
11909W        W80127  42.273  28.979  11.434
11910W        W80128  44.006   2.252  12.471
11911W        W80129   0.500  25.027   0.515
11912W        W80130   8.208   0.500   0.354
11913W        W80131   4.414   5.416   4.607
11914W        W80132  25.007   0.638  14.901
11915W        W80133  37.099  13.411   1.040
11916W        W80134  34.654  16.258  10.994
11917W        W80135  20.093   8.279   4.158
11918W        W80136   7.518  28.701  13.035
11919W        W80137  23.857   6.630   2.771
11920W        W80138   3.790  37.909   0.866
11921W        W80139  22.125  11.536   0.303
11922W        W80140  21.501   6.849  10.955
11923W        W80141  42.412  15.661  12.867
11924W        W80142  18.536  11.195   3.223
11925W        W80143   9.664  38.635   1.389
11926W        W80144   2.845   3.201  14.496
11927W        W80145   0.300  24.224  11.593
11928W        W80146  26.651  37.292  12.498
11929W        W80147  39.475  27.053   2.372
11930W        W80148  26.020  17.790  10.892
11931W        W80149  40.072  11.683   4.619
11932W        W80150  13.673  10.209   1.471
11933W        W80151  21.548  25.457   3.594
11934W        W80152   4.254  19.212   3.711
11935W        W80153  28.129  42.048  14.969
11936W        W80154  29.145  43.338  12.121
11937W        W80155  40.217  31.575  10.680
11938W        W80156  15.511  34.041   0.316
11939W        W80157  10.520  14.151  13.851
11940W        W80158   7.354  18.152  14.064
11941W        W80159  32.088   4.326  10.996
11942W        W80160  14.804  18.737   4.566
11943W        W80161  41.968  33.057  11.617
11944W        W80162   7.248   5.443   3.607
11945W        W80163  13.829  38.901   0.766
11946W        W80164  44.581   1.514   1.812
11947W        W80165   2.304  30.450  13.429
11948W        W80166  32.629   9.369  12.067
11949W        W80167  35.177  33.486   1.942
11950W        W80168   2.217  29.942  12.955
11951W        W80169  26.592  37.413  14.916
11952W        W80170   1.647  15.193   2.664
11953W        W80171  12.794  14.414  12.540
11954W        W80172  34.001  20.230   0.635
11955W        W80173  12.311  33.105   2.262
11956W        W80174  21.615  29.458  14.762
11957W        W80175  16.335  24.777  10.825
11958W        W80176  41.317  20.710   4.498
11959W        W80177   0.294  27.934  12.897
11960W        W80178   0.762  28.206  13.046
11961W        W80179   8.201  43.523   2.874
11962W        W80180  13.835  33.941   0.743
11963W        W80181  41.781  30.030  10.958
11964W        W80182   1.527   8.770  13.037
11965W        W80183  21.135  36.327  11.948
11966W        W80184   7.901  35.616  10.677
11967W        W80185  44.427  38.237   2.790
11968W        W80186  18.906  10.415  13.169
11969W        W80187   2.397  10.237   0.839
11970W        W80188   3.749  35.392  13.427
11971W        W80189  34.978  15.878  13.277
11972W        W80190   9.385   1.722  14.730
11973W        W80191  34.097   4.996   4.202
11974W        W80192  26.005  15.737   2.123
11975W        W80193  26.556   6.616   0.095
11976W        W80194  33.535  11.828  12.564
11977W        W80195  17.715   6.517   0.303
11978W        W80196  28.973  25.714   9.909
11979W        W80197  39.386   6.691   3.809
11980W        W80198   4.479  29.010  13.957
11981W        W80199  38.105   9.312  14.048
11982W        W80200  36.557  22.764  10.810
11983W        W80201  44.906  16.404  14.107
11984W        W80202  42.367   5.456  10.965
11985W        W80203  36.555  30.832   1.457
11986W        W80204  16.528  15.830  12.924
11987W        W80205   4.282  19.760  10.739
11988W        W80206  39.832  42.742  11.227
11989W        W80207   2.458  26.711  11.541
11990W        W80208  39.394   2.186   0.939
11991W        W80209  19.637   4.945   3.650
11992W        W80210  30.169  42.221   1.907
11993W        W80211  15.278  44.538   0.870
11994W        W80212  37.974  14.318  10.037
11995W        W80213  21.751  33.090  11.112
11996W        W80214  15.278  18.332   3.181
11997W        W80215  32.921  10.061   1.377
11998W        W80216  31.397  37.223  11.055
11999W        W80217  10.057  35.866  14.035
12000W        W80218  39.898  11.202   4.422
12001W        W80219  36.558  28.010  11.510
12002W        W80220  17.741  18.504   2.285
12003W        W80221  11.640   4.704   1.295
12004W        W80222  32.293   8.835  13.022
12005W        W80223   3.451  41.262  11.465
12006W        W80224  12.664  20.044   0.044
12007W        W80225  17.817  11.891   3.473
12008W        W80226  43.406  23.809  14.013
12009W        W80227  41.234   0.438  13.461
12010W        W80228  10.146  33.529  10.312
12011W        W80229  22.545  28.207  11.193
12012W        W80230  36.124  11.154  13.678
12013W        W80231  13.592  25.631  11.149
12014W        W80232  36.108  27.948   2.727
12015W        W80233  37.314   4.655   0.871
12016W        W80234   3.053  14.635   1.234
12017W        W80235  10.988  38.991  14.865
12018W        W80236   2.715   0.250  11.952
12019W        W80237  44.994  19.070   3.241
12020W        W80238  32.989  29.004  12.515
12021W        W80239  11.421  44.204  13.910
12022W        W80240  12.366  42.525  14.546
12023W        W80241  20.317  24.738  13.578
12024W        W80242  17.779  42.938  10.872
12025W        W80243  13.175  15.330  11.857
12026W        W80244  42.041  28.642  13.916
12027W        W80245  20.299  36.474  10.926
12028W        W80246   0.438  19.291  11.888
12029W        W80247  41.577   9.324  12.484
12030W        W80248  26.713  29.025   4.124
12031W        W80249  17.881   9.417  12.899
12032W        W80250   8.964   3.662  13.014
12033W        W80251  10.933   4.315   3.921
12034W        W80252  27.326  14.849  13.948
12035W        W80253   6.771  44.677  10.408
12036W        W80254  21.217   8.254  14.281
12037W        W80255  20.771  20.251   2.863
12038W        W80256  29.252   3.829  11.911
12039W        W80257  20.002   3.263  13.811
12040W        W80258  24.935   6.334   4.155
12041W        W80259  39.169  40.103  10.604
12042W        W80260   7.618  12.437  12.936
12043W        W80261   3.441  37.904  12.954
12044W        W80262  35.357  13.108  10.755
12045W        W80263  31.962  24.123   0.863
12046W        W80264  18.693   4.115  10.773
12047W        W80265  43.048  38.247   1.217
12048W        W80266  37.490  21.159  12.216
12049W        W80267  34.139  43.016  10.645
12050W        W80268  29.441  19.733   5.051
12051W        W80269  43.763   6.198   0.981
12052W        W80270  13.061  38.268   1.298
12053W        W80271  11.740  35.799   0.388
12054W        W80272  28.448  16.862  13.756
12055W        W80273  39.628  28.328  13.355
12056W        W80274  23.549  30.597   1.577
12057W        W80275  19.843  19.656  12.614
12058W        W80276  27.302  21.584  10.984
12059W        W80277   5.464  24.067  12.045
12060W        W80278   6.620  21.980   4.113
12061W        W80279  16.989  39.283   1.758
12062W        W80280   2.762  30.902   0.781
12063W        W80281  21.875  37.283   0.472
12064W        W80282  39.583  11.729   3.467
12065W        W80283  16.300   0.574  10.221
12066W        W80284  32.702  29.385  13.501
12067W        W80285   5.203  36.160  11.646
12068W        W80286  31.580  18.907  11.741
12069W        W80287  10.680  18.973   4.799
12070W        W80288  25.732  14.172  13.102
12071W        W80289  31.563   1.149  14.910
12072W        W80290  21.961  29.740  13.478
12073W        W80291   7.905  21.314  12.430
12074W        W80292   3.208  35.773   4.724
12075W        W80293   3.442   4.611   4.442
12076W        W80294  19.590   9.183   2.664
12077W        W80295  27.710  31.361   1.723
12078W        W80296   4.066   5.267   3.210
12079W        W80297  10.222   5.682  13.754
12080W        W80298  32.947  14.751   1.749
12081W        W80299  43.140   0.166   4.205
12082W        W80300  24.458   3.911   3.849
12083W        W80301  32.657  18.848   3.752
12084W        W80302   0.655   2.732  14.058
12085W        W80303  20.565   8.922   1.254
12086W        W80304  26.939  22.235   2.733
12087W        W80305  11.250  16.951   3.867
12088W        W80306  23.254   9.062   1.665
12089W        W80307  39.580  12.196   2.713
12090W        W80308  31.154  12.396   0.611
12091W        W80309   8.413  10.060  10.257
12092W        W80310  33.615  29.078  10.729
12093W        W80311  12.336  44.944   1.271
12094W        W80312  14.157  11.354  14.789
12095W        W80313  11.561  19.703   2.673
12096W        W80314  34.076  43.059   2.442
12097W        W80315  10.085   3.851   1.404
12098W        W80316   5.142   9.319  12.294
12099W        W80317   2.237  43.398  11.701
12100W        W80318  15.797  10.621  13.177
12101W        W80319  44.519  33.589  14.854
12102W        W80320  40.888  14.546   2.864
12103W        W80321  26.441   7.753   0.396
12104W        W80322  13.723  33.668  11.677
12105W        W80323  29.602   7.186   0.540
12106W        W80324  21.203  26.270  13.270
12107W        W80325  38.553  24.200   1.655
12108W        W80326   9.597   7.490  11.722
12109W        W80327  34.601  21.642   1.725
12110W        W80328  22.685  23.712   4.578
12111W        W80329  14.639  34.902  11.198
12112W        W80330   0.203  34.356   0.805
12113W        W80331  33.455   9.811  14.520
12114W        W80332  43.348  38.737   1.180
12115W        W80333  26.679   4.755   4.233
12116W        W80334   1.751   9.202  12.010
12117W        W80335  41.056  42.934  14.428
12118W        W80336   0.444  28.361   4.191
12119W        W80337  30.619  30.651   1.181
12120W        W80338   5.876  44.740  11.315
12121W        W80339  37.310  34.382  12.490
12122W        W80340  22.124  37.831   1.291
12123W        W80341  18.767   1.118   1.673
12124W        W80342  18.170  11.008   4.694
12125W        W80343   1.770  21.640  11.087
12126W        W80344  23.165   8.935  14.040
12127W        W80345  17.677  38.175  13.456
12128W        W80346  41.794  10.640  12.954
12129W        W80347  19.174  41.931   4.539
12130W        W80348  10.219  28.090  12.496
12131W        W80349  25.526  24.978   4.144
12132W        W80350  41.735   6.375   2.211
12133W        W80351  25.161  42.308   2.711
12134W        W80352  31.092  36.004  10.711
12135W        W80353  24.628  26.158  12.706
12136W        W80354  38.449   2.208  14.823
12137W        W80355  17.759  12.318   3.154
12138W        W80356  37.403  38.603  14.071
12139W        W80357  21.102   5.803   1.861
12140W        W80358  12.455  42.756   3.337
12141W        W80359  19.102  20.824  14.998
12142W        W80360  44.983  38.363   4.718
12143W        W80361   9.319  38.646  13.478
12144W        W80362  39.580  37.437  12.649
12145W        W80363  19.586  34.772  11.174
12146W        W80364  43.265  22.190   2.576
12147W        W80365  18.384  37.851   1.194
12148W        W80366  39.980  24.663   4.985
12149W        W80367  30.366   7.273  12.151
12150W        W80368   0.107  19.501   0.451
12151W        W80369  13.678  11.342   1.214
12152W        W80370   8.730  32.592  14.859
12153W        W80371   8.552  18.855   4.133
12154W        W80372  24.752  10.231   0.210
12155W        W80373  31.718  10.279  11.906
12156W        W80374  30.566  31.071  11.982
12157W        W80375  17.484   2.359   1.152
12158W        W80376   6.407  14.107   5.025
12159W        W80377  10.683  37.007   0.924
12160W        W80378  23.570  21.139   2.703
12161W        W80379  12.141  24.593   2.839
12162W        W80380  42.880  37.218  11.037
12163W        W80381  10.939  42.416  12.944
12164W        W80382   7.762  17.783   2.866
12165W        W80383  16.199   0.620   0.847
12166W        W80384   8.430  17.331   3.109
12167W        W80385  37.772  30.051   3.134
12168W        W80386   3.136  21.719  12.117
12169W        W80387  25.438  26.005  14.092
12170W        W80388  11.718  43.950  14.346
12171W        W80389  20.485   9.813  14.742
12172W        W80390  33.876  18.261  13.519
12173W        W80391  31.022  28.344   2.239
12174W        W80392  34.747  10.247  11.242
12175W        W80393  10.183  19.831  12.004
12176W        W80394   2.716   2.037   0.231
12177W        W80395  16.560  27.476  12.529
12178W        W80396   2.444  44.228   0.683
12179W        W80397  27.489  36.245   4.243
12180W        W80398  20.097  37.224   1.252
12181W        W80399  38.989  25.237   3.265
12182W        W80400  26.684  25.558  13.817
12183W        W80401  15.717  18.180   4.953
12184W        W80402  31.974  38.632   1.395
12185W        W80403  23.336   8.829  13.189
12186W        W80404  24.057  29.458  10.491
12187W        W80405  32.337  11.623  13.386
12188W        W80406  29.443  23.256   0.377
12189W        W80407  35.327  16.798   0.740
12190W        W80408   8.416  31.822  14.774
12191W        W80409  15.205  35.587  13.487
12192W        W80410  24.640   5.437   4.678
12193W        W80411  30.211  44.457   0.411
12194W        W80412   2.774  41.009  11.578
12195W        W80413  17.983   3.864   4.636
12196W        W80414  19.760  30.143   4.997
12197W        W80415  18.348   5.247  14.119
12198W        W80416   4.856  28.682  14.093
12199W        W80417   7.207  29.733   4.016
12200W        W80418  19.094  13.172  10.927
12201W        W80419  43.846  20.354  13.011
12202W        W80420  19.849  38.301   4.761
12203W        W80421  17.668  40.962   1.757
12204W        W80422  34.330  11.125   3.152
12205W        W80423  12.172  44.147   5.389
12206W        W80424  33.792   6.717  13.462
12207W        W80425  40.418   3.918  11.196
12208W        W80426  36.443  34.909  10.683
12209W        W80427  13.583   1.460   2.333
12210W        W80428  41.407  41.058   3.778
12211W        W80429  28.709  38.134  12.028
12212W        W80430  36.515  18.706  13.737
12213W        W80431  27.967  43.761   4.436
12214W        W80432  20.201   7.452  13.994
12215W        W80433  10.669  25.707   1.862
12216W        W80434  25.493  17.063   3.844
12217W        W80435  14.046   0.024   1.966
12218W        W80436   4.139  10.439   0.439
12219W        W80437  30.532  41.400  13.254
12220W        W80438   6.332  40.511   1.297
12221W        W80439  34.541  26.939   0.698
12222W        W80440  15.116  32.455   0.163
12223W        W80441  26.250  28.119   2.667
12224W        W80442  23.550  37.354   2.755
12225W        W80443   7.670  29.872  12.460
12226W        W80444  18.060   3.843   1.974
12227W        W80445  18.658  28.413   0.851
12228W        W80446  31.917  42.545  11.620
12229W        W80447  24.556  25.408  11.186
12230W        W80448   8.133  38.856  14.811
12231W        W80449  33.940  13.304  10.565
12232W        W80450  31.702   2.539   1.787
12233W        W80451  34.173  14.785   2.245
12234W        W80452  29.639  40.149  11.229
12235W        W80453  19.650  22.543   2.635
12236W        W80454  14.674  35.369   4.197
12237W        W80455  36.557   8.362  10.633
12238W        W80456  37.867  40.315  13.463
12239W        W80457   3.937  20.689  12.329
12240W        W80458  12.840  27.578   3.162
12241W        W80459  10.696  22.080  12.536
12242W        W80460  19.761  34.603  14.301
12243W        W80461   0.589  18.655   1.227
12244W        W80462  23.532   7.259   0.379
12245W        W80463  43.927  44.320   2.546
12246W        W80464   6.673   3.014   4.387
12247W        W80465  10.621   3.866   2.263
12248W        W80466  33.428   3.367   1.777
12249W        W80467  28.591  31.926  13.072
12250W        W80468  36.907  34.206  12.203
12251W        W80469   1.940   1.332  13.006
12252W        W80470  11.998  29.018   3.361
12253W        W80471   9.942   7.906  13.821
12254W        W80472  30.586   0.867   4.165
12255W        W80473   9.342   9.307   4.823
12256W        W80474  10.635  37.481   3.800
12257W        W80475  44.370  33.556  12.150
12258W        W80476  27.632  19.287   0.767
12259W        W80477  17.650  23.677   3.766
12260W        W80478  18.925   7.482  11.680
12261W        W80479  16.776  16.841   0.843
12262W        W80480  16.691  38.403   3.159
12263W        W80481   6.324  16.130   1.774
12264W        W80482   1.016  20.554  12.422
12265W        W80483  20.643  16.792   2.217
12266W        W80484  28.276  12.025   4.845
12267W        W80485  31.568  20.341   4.713
12268W        W80486  21.368  37.643   5.266
12269W        W80487  35.781   2.102   4.664
12270W        W80488   7.815  17.825  13.069
12271W        W80489   4.764  34.330   3.145
12272W        W80490  24.463   5.324  11.481
12273W        W80491  33.756  33.372  12.493
12274W        W80492  23.974  41.315   0.569
12275W        W80493   9.268  20.523   4.782
12276W        W80494  16.773  14.683  14.754
12277W        W80495  10.379  40.985  14.559
12278W        W80496  30.994  10.331  10.185
12279W        W80497   0.299  43.944   0.438
12280W        W80498  12.737  42.236  12.728
12281W        W80499  15.751   0.483   0.185
12282W        W80500  11.058   3.758   1.255
12283W        W80501  22.213  29.004  11.656
12284W        W80502   1.902  35.693  11.440
12285W        W80503   9.718  12.093  13.386
12286W        W80504  30.902   2.945   0.798
12287W        W80505  29.943  35.158   4.925
12288W        W80506  33.449  44.131   3.561
12289W        W80507  30.501  30.856  10.608
12290W        W80508  12.769  19.147  14.789
12291W        W80509   6.838  12.858   2.710
12292W        W80510  18.818  23.075   2.689
12293W        W80511  41.271   5.810   1.758
12294W        W80512   5.695  31.477  11.974
12295W        W80513  40.284   6.135  10.723
12296W        W80514  37.945  42.013  11.706
12297W        W80515  43.403  18.407  11.138
12298W        W80516  28.010  10.927  12.876
12299W        W80517   3.097  20.111  14.495
12300W        W80518   2.690  15.185  11.564
12301W        W80519  31.114  41.028   0.873
12302W        W80520  17.464  13.056  12.774
12303W        W80521  22.573  41.574  12.422
12304W        W80522  36.418  32.329   3.367
12305W        W80523  23.698  12.210  14.729
12306W        W80524  21.177  43.641  11.204
12307W        W80525   9.419  32.950   1.350
12308W        W80526  12.911  42.226   1.409
12309W        W80527  20.024  34.109   0.518
12310W        W80528  24.004  23.474  12.839
12311W        W80529  40.564  40.833   3.200
12312W        W80530  20.178   6.955  14.179
12313W        W80531  10.200  38.049   2.679
12314W        W80532  41.582  35.481  14.210
12315W        W80533  30.286  42.755   3.680
12316W        W80534  26.577  26.461   5.272
12317W        W80535  17.411  21.293   3.324
12318W        W80536  32.056   0.784  11.780
12319W        W80537  24.743   6.464   1.632
12320W        W80538   2.556   1.892  13.926
12321W        W80539   6.998  44.653  13.875
12322W        W80540  19.520  23.076   1.264
12323W        W80541  17.174  34.409  10.127
12324W        W80542  35.012   6.313   4.986
12325W        W80543  13.796  22.557  14.316
12326W        W80544   5.454  43.286   2.452
12327W        W80545   7.658   7.504  11.740
12328W        W80546  25.095   4.906  13.471
12329W        W80547  21.668   0.949   2.641
12330W        W80548  35.830  27.017  13.478
12331W        W80549  32.008  31.149  11.990
12332W        W80550  41.517  35.422   4.025
12333W        W80551  41.847  35.841   4.086
12334W        W80552  34.878  39.979   1.279
12335W        W80553  35.964   3.439  13.619
12336W        W80554  18.121  19.497  14.483
12337W        W80555  14.818  24.520   3.175
12338W        W80556  29.961  37.843  14.754
12339W        W80557   1.868  29.460   0.309
12340W        W80558  16.798  20.840  12.114
12341W        W80559  38.141  23.465   1.262
12342W        W80560   9.591  17.807   2.226
12343W        W80561   7.775  17.036  14.721
12344W        W80562  36.047  10.305  12.653
12345W        W80563  11.076  22.727  14.492
12346W        W80564  33.969  28.976  13.020
12347W        W80565  23.546  42.012   4.501
12348W        W80566  19.478  21.881   0.532
12349W        W80567  42.575  42.491  13.441
12350W        W80568  35.145  37.916   1.230
12351W        W80569   0.005  32.367  14.068
12352W        W80570  17.772   7.780  11.995
12353W        W80571   2.914  24.109  10.819
12354W        W80572   7.758  34.620   2.189
12355W        W80573   6.260   9.522   4.236
12356W        W80574  40.392  39.392  14.386
12357W        W80575  22.218  41.525  11.690
12358W        W80576   2.212  24.988   3.756
12359W        W80577  18.995  22.163  12.797
12360W        W80578  25.772  42.494  12.119
12361W        W80579  28.939  36.765   2.593
12362W        W80580  40.977  11.805   4.682
12363W        W80581   3.250  39.931   2.355
12364W        W80582  27.477  20.923  13.520
12365W        W80583  18.280  33.081  11.017
12366W        W80584  34.494  16.564   2.119
12367W        W80585  35.652  39.492   3.182
12368W        W80586   9.895  21.403   4.165
12369W        W80587   1.291  36.576   4.705
12370W        W80588  34.536  42.782   3.173
12371W        W80589  16.110  30.196   3.007
12372W        W80590  29.805  22.223   3.488
12373W        W80591  17.861  10.422   4.293
12374W        W80592  26.017  12.911  14.796
12375W        W80593  14.510   0.050   0.759
12376W        W80594   0.358   0.594   0.662
12377W        W80595  34.208  10.278  11.120
12378W        W80596  40.978  33.651  10.543
12379W        W80597  35.523  13.987   2.124
12380W        W80598   7.252  18.714  10.750
12381W        W80599  24.506  33.429  14.199
12382W        W80600   3.782  22.728   4.411
12383W        W80601  33.126  35.558  14.389
12384W        W80602  12.988   2.784   4.895
12385W        W80603  26.893  14.883   3.169
12386W        W80604   3.342  15.390   4.152
12387W        W80605   8.132  27.217  13.583
12388W        W80606  43.503  17.513  13.284
12389W        W80607   5.214   0.311   1.368
12390W        W80608  11.581  21.164   1.461
12391W        W80609   6.259  15.335   0.568
12392W        W80610  11.422  34.016   4.485
12393W        W80611  28.031  22.541   3.116
12394W        W80612  30.881  14.324   9.863
12395W        W80613   4.536   9.890  11.917
12396W        W80614  31.029  27.938   0.905
12397W        W80615  40.212  13.215   2.328
12398W        W80616  33.555  41.337   4.426
12399W        W80617  28.460   2.350   2.224
12400W        W80618  32.015  10.676  13.008
12401W        W80619   9.956   1.902  12.915
12402W        W80620   5.033   2.984   2.887
12403W        W80621  28.462  25.711  14.493
12404W        W80622  21.834   7.774   0.886
12405W        W80623  35.658  24.435   3.405
12406W        W80624  31.350  38.821  11.034
12407W        W80625  41.817  44.810   4.238
12408W        W80626  20.300  19.831  12.906
12409W        W80627  17.759   9.379  13.780
12410W        W80628  25.223  10.883  14.288
12411W        W80629  35.530  33.604  11.850
12412W        W80630  24.688   8.792   1.712
12413W        W80631  10.581   1.953   2.248
12414W        W80632  37.249  13.851   0.384
12415W        W80633  26.298  34.142  11.462
12416W        W80634  44.774  39.894   1.218
12417W        W80635   1.512  15.361   2.179
12418W        W80636  35.430   0.818  10.794
12419W        W80637  39.843   3.442   4.210
12420W        W80638  24.937  14.958  14.876
12421W        W80639  39.346  12.480   0.815
12422W        W80640  11.368  30.025   4.047
12423W        W80641  25.995  21.325   1.119
12424W        W80642   5.820  31.762  14.371
12425W        W80643  19.174  27.323   0.579
12426W        W80644  32.917  15.216   0.871
12427W        W80645  34.338  44.421   0.819
12428W        W80646  40.886  44.523  12.333
12429W        W80647  15.761   7.137  10.431
12430W        W80648   6.000  25.671   1.504
12431W        W80649   4.569   5.322   3.153
12432W        W80650  40.342   0.255  13.058
12433W        W80651  37.441  14.193   3.310
12434W        W80652  16.103  14.307  13.541
12435W        W80653  32.707  25.179  10.729
12436W        W80654  26.649   5.234  12.107
12437W        W80655  37.558  24.916   1.404
12438W        W80656  17.111  12.412  10.372
12439W        W80657  15.941  13.302  14.936
12440W        W80658  15.808   7.711   1.189
12441W        W80659   9.059  17.111  14.563
12442W        W80660   7.815  29.209  11.147
12443W        W80661  41.920  11.100  14.804
12444W        W80662  19.370  16.774  11.095
12445W        W80663  23.647   1.239   1.200
12446W        W80664  42.835  42.477   2.863
12447W        W80665  40.376   7.574   4.125
12448W        W80666   7.971  27.424  10.684
12449W        W80667  29.489  42.366   4.564
12450W        W80668  33.792  18.582   2.760
12451W        W80669   5.738  30.783   1.747
12452W        W80670  17.816  12.181   5.316
12453W        W80671   7.349  35.785   1.490
12454W        W80672   8.433   6.108  11.199
12455W        W80673   8.332  15.355   9.641
12456W        W80674  31.438  39.709  14.941
12457W        W80675   4.961  23.878  12.045
12458W        W80676  27.781  41.436   0.530
12459W        W80677  39.815  32.154   3.632
12460W        W80678  33.594  41.006   0.920
12461W        W80679   6.140   8.129   4.978
12462W        W80680  11.746  21.746  12.620
12463W        W80681  12.354  40.340  12.624
12464W        W80682  36.514  38.346   4.132
12465W        W80683  26.558  17.834   0.491
12466W        W80684   3.895  19.536   4.557
12467W        W80685  22.682  36.891  11.870
12468W        W80686  21.594  44.036   2.753
12469W        W80687   8.568  20.266  12.746
12470W        W80688  15.628  10.873   2.774
12471W        W80689  36.952   8.400   3.301
12472W        W80690  20.629   1.399  11.151
12473W        W80691   9.183   7.649  13.429
12474W        W80692  28.482  13.928  14.454
12475W        W80693  29.345  41.444   4.841
12476W        W80694  17.319  29.096   1.884
12477W        W80695  38.428  42.055  13.412
12478W        W80696  31.469  17.950  11.386
12479W        W80697  17.259  27.483   1.688
12480W        W80698   8.346   4.795   4.432
12481W        W80699  28.422  18.215   2.144
12482W        W80700  20.131  19.771  14.319
12483W        W80701  24.560  33.847  14.504
12484W        W80702  39.828  29.030  10.781
12485W        W80703  42.383   2.015   4.651
12486W        W80704  25.280   0.704  12.114
12487W        W80705  32.073  36.307  11.565
12488W        W80706  28.127  35.645   4.449
12489W        W80707   0.292   5.897   3.668
12490W        W80708  28.568   6.776  11.811
12491W        W80709   2.880   9.571   3.909
12492W        W80710  22.975  17.510  12.940
12493W        W80711  37.579   0.826  10.724
12494W        W80712  44.392  33.042  12.407
12495W        W80713  20.658  14.646   2.783
12496W        W80714  26.526   5.261  14.540
12497W        W80715  27.259  42.888  10.731
12498W        W80716  19.719  13.223   1.198
12499W        W80717  23.932  21.509  12.607
12500W        W80718  44.900  44.560  13.851
12501W        W80719  26.752  28.586  10.276
12502W        W80720  36.443   9.825   3.907
12503W        W80721   3.533   9.271  13.493
12504W        W80722   7.983  17.645  11.393
12505W        W80723  24.493  19.016   1.383
12506W        W80724  32.183  12.241   0.691
12507W        W80725   2.685  22.414  13.962
12508W        W80726   8.057  18.964   4.084
12509W        W80727  26.097  19.663  14.933
12510W        W80728   7.164  19.787   3.741
12511W        W80729  37.300  10.172  11.204
12512W        W80730  27.570   7.314   3.174
12513W        W80731  11.884  38.293  12.611
12514W        W80732   3.365  27.090  10.604
12515W        W80733   7.340  30.622  11.564
12516W        W80734  31.090  30.176  14.523
12517W        W80735   9.134  43.361   4.858
12518W        W80736  34.193  44.099  12.429
12519W        W80737  29.716  22.524   4.114
12520W        W80738  40.408  34.452  12.427
12521W        W80739   8.119  31.426  12.436
12522W        W80740  44.273  13.625  14.990
12523W        W80741  21.285  27.039   0.399
12524W        W80742  29.827  36.468   3.156
12525W        W80743  10.930  17.738  12.121
12526W        W80744  44.316  40.774   1.690
12527W        W80745  43.121  26.645   1.884
12528W        W80746  32.516  22.194  11.224
12529W        W80747  42.066  44.978   2.803
12530W        W80748  27.920  39.558  10.633
12531W        W80749  42.803  32.815   3.323
12532W        W80750  20.751  28.669  14.296
12533W        W80751  36.791   7.013  10.476
12534W        W80752  18.591  32.677   4.539
12535W        W80753  34.081  37.093   3.648
12536W        W80754   1.962   3.691   4.514
12537W        W80755  32.289  31.629   2.896
12538W        W80756  22.438  26.430  12.464
12539W        W80757   2.285  24.021  13.072
12540W        W80758  17.207  24.030   2.748
12541W        W80759  17.722  18.957   1.380
12542W        W80760  28.900   4.189   0.375
12543W        W80761  21.384   8.150   2.889
12544W        W80762  22.048  28.167   3.680
12545W        W80763  13.510  44.836  12.649
12546W        W80764  32.194  31.869  12.556
12547W        W80765  13.715   1.838  12.625
12548W        W80766  34.001  15.623   2.776
12549W        W80767  20.692  44.203   3.603
12550W        W80768  18.706   8.443   1.418
12551W        W80769  11.316  28.110   4.245
12552W        W80770  28.718  15.538   4.072
12553W        W80771  25.521  14.009   3.212
12554W        W80772  26.667  19.493  13.452
12555W        W80773   4.720  29.611   2.131
12556W        W80774  30.421  44.276   4.021
12557W        W80775   1.915  41.193   0.029
12558W        W80776  38.512  23.107   4.471
12559W        W80777  16.810  21.640   0.836
12560W        W80778  19.647  23.471  14.400
12561W        W80779  36.765  42.134  12.926
12562W        W80780  37.538  16.063   3.427
12563W        W80781  25.937  29.088  11.194
12564W        W80782  33.982  36.134   3.775
12565W        W80783  22.037   1.946   0.732
12566W        W80784  34.037  39.580  13.490
12567W        W80785  27.066  17.232  14.481
12568W        W80786   0.921  13.430  14.960
12569W        W80787   8.463  24.728  12.640
12570W        W80788   3.427   1.878   0.089
12571W        W80789  37.430   6.778   1.823
12572W        W80790  34.633  38.560   4.110
12573W        W80791   1.959  40.295   2.125
12574W        W80792  22.938   5.931   3.669
12575W        W80793   5.735  37.485   3.621
12576W        W80794  38.539   4.539  11.044
12577W        W80795  34.044   4.461   3.532
12578W        W80796  40.251  21.351   3.354
12579W        W80797  28.479   0.736   2.264
12580W        W80798  17.107  29.847  13.900
12581W        W80799   0.677  43.280   1.415
12582W        W80800  26.820  42.562   1.835
12583W        W80801  34.490   1.805  10.686
12584W        W80802  19.245  15.080   0.894
12585W        W80803  29.702  30.060   1.927
12586W        W80804  15.281  30.214  13.986
12587W        W80805  10.519  30.416  10.203
12588W        W80806  11.889  36.577   4.116
12589W        W80807   5.581  12.312  12.864
12590W        W80808  42.796  33.496   3.528
12591W        W80809  31.721   4.950   1.950
12592W        W80810  34.012   4.759   5.489
12593W        W80811  20.600  39.062  10.695
12594W        W80812  41.270   5.831   3.224
12595W        W80813  13.321  41.126   0.264
12596W        W80814  16.229  10.732   2.933
12597W        W80815  25.133  37.822   3.234
12598W        W80816   6.411   4.149  12.405
12599W        W80817  21.740   8.320  14.236
12600W        W80818  40.481   7.809   4.643
12601W        W80819  38.346  22.320  14.501
12602W        W80820   6.180  39.900   2.732
12603W        W80821   8.749   2.192   4.594
12604W        W80822  43.733  36.047  14.324
12605W        W80823  15.193   7.378  12.067
12606W        W80824  28.374   3.910   9.897
12607W        W80825  25.885   6.685  13.539
12608W        W80826  35.537  10.341  12.493
12609W        W80827  26.959   6.932  14.988
12610W        W80828  12.369  21.942   4.922
12611W        W80829  24.900  36.658  12.472
12612W        W80830   6.265  18.771   4.062
12613W        W80831  12.193  27.986  10.972
12614W        W80832  42.847   9.156  13.853
12615W        W80833   4.431  27.022  12.567
12616W        W80834  36.723  24.039   2.448
12617W        W80835  19.046  37.712  11.029
12618W        W80836   5.265  32.757   4.658
12619W        W80837  43.527   5.442   4.814
12620W        W80838   9.925  27.461   1.879
12621W        W80839  14.384  29.892   4.703
12622W        W80840  26.686   7.704  11.573
12623W        W80841  15.705  28.146   0.867
12624W        W80842   4.923  18.736   5.243
12625W        W80843   8.236  44.256   3.766
12626W        W80844  24.397  32.400   1.691
12627W        W80845  37.952  11.854   2.690
12628W        W80846  22.078   6.004  13.398
12629W        W80847  17.659  33.030  13.377
12630W        W80848  28.462  12.931   0.949
12631W        W80849   7.705   3.319  10.423
12632W        W80850  37.823   4.474   4.898
12633W        W80851  40.548   7.439  13.807
12634W        W80852  37.366  26.085   4.251
12635W        W80853   2.963  33.680   3.819
12636W        W80854  32.923  10.742   2.563
12637W        W80855  22.226  19.690  12.906
12638W        W80856  37.551  33.261  11.517
12639W        W80857  35.749  11.600   3.435
12640W        W80858  28.653  43.895  10.640
12641W        W80859  13.700  16.350   1.797
12642W        W80860  21.501  12.706   3.156
12643W        W80861  32.888  19.729   2.834
12644W        W80862   9.725  13.829   2.202
12645W        W80863  30.470  25.783  12.956
12646W        W80864  26.825  35.097  14.399
12647W        W80865   5.004  38.554   0.438
12648W        W80866  12.293  24.236   3.202
12649W        W80867  26.145  39.712  10.237
12650W        W80868   5.175  43.051  13.947
12651W        W80869  13.175  11.837   1.377
12652W        W80870  18.747  27.497  10.934
12653W        W80871  44.847  26.973   2.658
12654W        W80872  44.375  40.150  11.665
12655W        W80873  42.399  14.581  12.086
12656W        W80874  10.627  41.500  13.787
12657W        W80875  24.833   7.622  11.160
12658W        W80876  11.026  33.757  10.753
12659W        W80877   5.626  23.653  13.155
12660W        W80878   9.386  23.094  14.101
12661W        W80879   1.037  44.494   2.088
12662W        W80880  28.634  20.731   4.535
12663W        W80881  35.205  32.737   4.068
12664W        W80882  43.281  27.854   4.734
12665W        W80883  37.744  15.727  13.568
12666W        W80884  37.425  36.915  13.616
12667W        W80885  22.066  13.773  12.233
12668W        W80886  32.662  35.355  14.324
12669W        W80887  25.687  37.321  13.257
12670W        W80888   9.779  16.237   1.916
12671W        W80889  10.740  21.791  14.743
12672W        W80890  10.108  34.874   1.356
12673W        W80891   4.230  39.715   1.817
12674W        W80892  14.263  20.592  13.921
12675W        W80893  20.664  41.415   4.618
12676W        W80894  40.287   5.882  11.170
12677W        W80895  31.182  19.452   4.172
12678W        W80896   3.527  27.662  14.824
12679W        W80897   9.383   4.273  10.616
12680W        W80898  28.753  39.431  13.853
12681W        W80899  18.205  39.653   2.634
12682W        W80900  26.452   1.077   1.912
12683W        W80901  31.163   5.853  14.771
12684W        W80902  23.205  10.474   3.642
12685W        W80903  41.335   2.527  10.616
12686W        W80904  42.716  23.812   3.293
12687W        W80905  37.417  39.445  12.042
12688W        W80906  40.790   8.311   4.491
12689W        W80907  33.493  25.366   3.241
12690W        W80908  24.104  12.308   2.842
12691W        W80909  10.764  21.409  12.063
12692W        W80910  31.988  37.280  10.287
12693W        W80911   7.874  11.591  12.902
12694W        W80912  27.608  32.627  14.665
12695W        W80913  38.925  38.017   4.747
12696W        W80914  38.025  12.714  11.063
12697W        W80915   6.941   2.940   0.827
12698W        W80916   6.502  25.035  13.464
12699W        W80917  13.788  34.918  12.349
12700W        W80918  13.110   5.833   4.385
12701W        W80919  30.541  28.022  14.299
12702W        W80920  29.592  24.566  10.291
12703W        W80921   5.752  17.352   0.871
12704W        W80922  38.918  12.233  11.099
12705W        W80923  31.204  19.286  11.124
12706W        W80924  38.009  33.229   0.377
12707W        W80925  23.929  15.255  14.955
12708W        W80926  26.459  29.433  12.815
12709W        W80927  43.466  26.482  13.856
12710W        W80928   0.245  31.525  10.800
12711W        W80929   7.940  18.916  11.066
12712W        W80930  44.972  10.890  11.000
12713W        W80931  42.546  30.198   1.034
12714W        W80932  43.380  18.997   2.402
12715W        W80933   8.647   4.850   3.563
12716W        W80934  31.484  32.997  13.643
12717W        W80935  35.897  17.217  13.766
12718W        W80936  21.634   2.485  10.671
12719W        W80937  19.270  13.990   1.817
12720W        W80938  33.648  18.567   3.708
12721W        W80939  10.812  26.532   0.166
12722W        W80940  11.019  10.711  10.717
12723W        W80941  27.117  26.171  14.494
12724W        W80942  33.921  11.847   0.468
12725W        W80943  13.245  44.415  14.401
12726W        W80944   1.503  36.899  12.600
12727W        W80945  26.181   2.520   2.791
12728W        W80946  14.178  26.242   0.835
12729W        W80947  27.391  11.423   2.695
12730W        W80948  30.664  15.897   1.049
12731W        W80949  25.965  40.361  10.282
12732W        W80950  40.742  19.377   1.875
12733W        W80951   1.505   0.216   2.421
12734W        W80952  24.673  35.343  11.133
12735W        W80953  40.861  15.060  12.040
12736W        W80954   3.267  28.845   0.307
12737W        W80955   1.726  27.017   0.858
12738W        W80956  23.011  20.864   4.874
12739W        W80957   2.935  35.475  12.984
12740W        W80958   1.345  25.046   2.876
12741W        W80959  40.151  26.879  13.496
12742W        W80960  38.915  32.140   0.288
12743W        W80961  11.955  39.068   3.745
12744W        W80962  37.428   5.906   3.865
12745W        W80963   2.418  11.626   1.319
12746W        W80964   0.064  43.024   2.830
12747W        W80965  33.632   3.187   3.159
12748W        W80966  15.767  33.309  11.898
12749W        W80967  36.399  24.219   0.238
12750W        W80968  37.760   5.055   3.644
12751W        W80969  31.635  23.085  12.095
12752W        W80970  30.146  15.666   3.253
12753W        W80971  29.264  25.474   0.192
12754W        W80972  28.584   7.254  14.096
12755W        W80973  13.566  31.587  14.023
12756W        W80974  22.659  19.379  10.042
12757W        W80975  34.595   7.322   0.751
12758W        W80976  29.547  31.908  14.380
12759W        W80977  44.140  39.831   4.104
12760W        W80978  30.033  31.011  11.957
12761W        W80979  31.917  19.557  14.464
12762W        W80980  42.537   6.460  14.021
12763W        W80981  35.164   9.219   4.644
12764W        W80982  40.246  29.924  11.078
12765W        W80983  37.403  44.372  14.561
12766W        W80984  37.863  41.275   4.188
12767W        W80985  19.567  17.625  10.731
12768W        W80986  34.478  30.429   5.117
12769W        W80987  27.500  37.187  14.113
12770W        W80988  28.565   3.784  12.422
12771W        W80989  23.057   5.090  13.360
12772W        W80990  27.585  14.288  12.517
12773W        W80991  42.729   5.961   0.952
12774W        W80992  20.457  10.177   0.371
12775W        W80993  21.024  12.352  12.198
12776W        W80994  41.330  22.735   4.047
12777W        W80995  35.474  36.770   3.130
12778W        W80996  29.945   9.965   4.504
12779W        W80997   7.729  26.946   0.910
12780W        W80998  38.553   7.940  13.535
12781W        W80999  43.502  15.540  11.579
12782W        W81000  43.521  35.642   4.227
12783W        W81001  24.041  28.195  12.619
12784W        W81002  36.537   3.877   0.215
12785W        W81003  19.225  41.684  11.496
12786W        W81004  14.819   0.374  14.487
12787W        W81005  34.117  15.673   2.191
12788W        W81006   1.169  39.890  13.462
12789W        W81007  21.507   9.008  13.853
12790W        W81008  22.243  15.557   2.738
12791W        W81009  37.776  33.107   4.692
12792W        W81010   9.936  17.042   0.479
12793W        W81011  15.189   6.224  12.731
12794W        W81012  38.046  32.183   3.676
12795W        W81013   4.824   5.751   3.307
12796W        W81014   2.286  12.779   3.627
12797W        W81015   7.809  37.008  11.307
12798W        W81016  41.403  43.729  14.806
12799W        W81017  37.971   5.762   3.039
12800W        W81018  21.699  31.853  12.971
12801W        W81019  14.363  24.616  14.697
12802W        W81020  17.398  10.554  14.543
12803W        W81021  27.047   4.218  12.571
12804W        W81022  27.239   3.997  12.144
12805W        W81023   6.400  12.076  14.209
12806W        W81024  34.115  19.028   4.180
12807W        W81025  30.217   9.741   3.529
12808W        W81026  30.007  27.674  14.531
12809W        W81027  11.559  25.173   4.047
12810W        W81028  36.547  41.312  11.589
12811W        W81029  18.320  25.094  14.355
12812W        W81030  18.039  13.650   3.143
12813W        W81031  43.828  39.358   3.364
12814W        W81032  32.194   0.030  12.135
12815W        W81033   2.995  25.730  14.898
12816W        W81034  31.499   7.220   3.829
12817W        W81035  15.954   5.245   1.407
12818W        W81036  26.709  30.416  11.157
12819W        W81037  15.305  34.037  12.924
12820W        W81038  25.580  42.221   1.215
12821W        W81039  37.581  19.104   0.480
12822W        W81040  12.130  34.395  12.750
12823W        W81041  19.472  33.780  12.029
12824W        W81042  29.377   1.938  10.259
12825W        W81043   6.246  33.196  12.539
12826W        W81044  19.975  21.080  10.205
12827W        W81045  22.558  14.075   2.030
12828W        W81046  24.577  23.297   0.394
12829W        W81047  25.618  43.682   4.163
12830W        W81048  16.479  28.676  13.020
12831W        W81049   6.075   0.827   3.734
12832W        W81050  39.139   1.490  10.554
12833W        W81051  11.139   3.015   4.201
12834W        W81052  27.927   6.414   1.305
12835W        W81053  10.710  26.083   2.409
12836W        W81054  15.453  33.549  13.113
12837W        W81055  22.790   2.963   4.094
12838W        W81056  10.843   5.447  14.915
12839W        W81057  13.594  19.717   0.039
12840W        W81058   8.464   8.175  10.781
12841W        W81059  32.042  31.575   2.219
12842W        W81060   3.754   9.792  11.325
12843W        W81061  36.391  30.670   3.683
12844W        W81062   5.089  42.365  13.510
12845W        W81063   3.468  41.426   1.259
12846W        W81064  39.083  12.867   1.803
12847W        W81065  42.028  40.977   1.979
12848W        W81066  13.142  15.988   4.759
12849W        W81067  18.539  42.431  12.323
12850W        W81068  23.518  40.954  13.301
12851W        W81069  17.119  38.646  14.035
12852W        W81070  24.038  15.797  14.195
12853W        W81071  38.368  40.104   1.286
12854W        W81072  38.797  14.353   0.933
12855W        W81073  25.598  42.713   4.947
12856W        W81074  33.673  26.502   3.560
12857W        W81075  35.962  12.689   0.918
12858W        W81076  38.161  22.312  11.531
12859W        W81077   3.489  24.085   4.020
12860W        W81078   1.292  36.869   0.549
12861W        W81079  15.326  13.914  10.228
12862W        W81080  41.405  32.084  11.681
12863W        W81081  18.112  36.134  11.152
12864W        W81082  39.889  19.327  13.921
12865W        W81083  42.333  34.948   3.279
12866W        W81084  18.602  34.111   3.523
12867W        W81085  44.266  12.162   3.886
12868W        W81086  14.758  38.236  14.186
12869W        W81087   1.677  15.609   4.169
12870W        W81088  16.147  15.201  11.322
12871W        W81089  33.372  13.406   1.681
12872W        W81090  32.133  17.302  12.447
12873W        W81091  38.786   8.701   1.295
12874W        W81092  30.405  33.392  11.060
12875W        W81093   9.641  36.190  14.023
12876W        W81094  20.935  17.740  10.755
12877W        W81095  41.084  41.293  11.972
12878W        W81096   4.443  40.691   0.691
12879W        W81097  41.698   1.728  11.579
12880W        W81098   7.459  21.253  13.991
12881W        W81099   4.756  25.975  12.072
12882W        W81100  23.010  14.007  11.957
12883W        W81101  24.913  16.063   4.280
12884W        W81102  17.098   7.873  12.574
12885W        W81103   6.062  44.154   5.264
12886W        W81104  39.518  43.709   3.830
12887W        W81105  41.354  35.808  11.949
12888W        W81106   1.273  34.615   1.867
12889W        W81107  23.122  26.897  12.874
12890W        W81108   6.768   6.117   2.827
12891W        W81109   0.331   7.380   0.724
12892W        W81110   7.322  17.175  13.907
12893W        W81111   5.944   7.152   3.523
12894W        W81112   6.611  21.818   0.478
12895W        W81113   8.267  37.953   0.240
12896W        W81114  27.958  32.498   2.355
12897W        W81115  27.918  25.179  11.928
12898W        W81116   8.875  25.691  12.639
12899W        W81117  24.734  34.084  14.931
12900W        W81118   0.893  12.072   0.908
12901W        W81119  30.158  17.715  13.032
12902W        W81120  26.888  31.029  13.470
12903W        W81121  37.316  13.412   2.279
12904W        W81122  25.912  27.588   0.820
12905W        W81123  39.424  10.211  12.519
12906W        W81124   4.879  35.312   1.654
12907W        W81125   7.141   6.371   3.660
12908W        W81126  14.399  31.410   0.730
12909W        W81127  35.250  19.038   1.513
12910W        W81128  23.654  13.332   2.877
12911W        W81129  23.486  29.479  13.625
12912W        W81130  20.921   3.821  12.560
12913W        W81131  37.029  44.962   0.594
12914W        W81132  37.856  41.781   3.333
12915W        W81133   1.696  19.210  13.847
12916W        W81134   3.765  23.193   4.799
12917W        W81135  33.440   5.830   4.881
12918W        W81136  20.266  27.272  14.514
12919W        W81137  10.675   5.513  14.404
12920W        W81138   1.381  43.639  12.230
12921W        W81139  19.636  42.795   4.551
12922W        W81140  35.947  14.307  12.873
12923W        W81141  31.553  39.113   2.747
12924W        W81142  43.537  27.999  13.024
12925W        W81143  21.465  11.255   0.846
12926W        W81144   9.260  36.497  12.039
12927W        W81145  39.072  35.466   1.279
12928W        W81146  27.075  37.657  14.983
12929W        W81147  20.657  37.311   5.281
12930W        W81148  32.536  36.259  14.361
12931W        W81149  14.829   1.870   0.905
12932W        W81150  40.051  11.626   3.651
12933W        W81151  36.291   9.263  13.526
12934W        W81152  29.657  28.040  14.342
12935W        W81153  18.665  42.044   4.589
12936W        W81154  15.617   1.301  10.253
12937W        W81155  11.245  28.286  14.355
12938W        W81156   7.811  12.358   2.885
12939W        W81157  11.375  13.417  14.725
12940W        W81158  17.634   6.776   0.758
12941W        W81159  38.785  44.959   4.408
12942W        W81160   8.483  14.827  11.677
12943W        W81161  30.661  18.187   1.131
12944W        W81162   1.734  29.355   2.372
12945W        W81163  28.959  31.496   2.306
12946W        W81164  37.815  23.218  14.346
12947W        W81165  17.197   6.789  11.474
12948W        W81166  11.105  20.690  12.555
12949W        W81167  29.501  12.127  12.564
12950W        W81168  23.010  17.770  10.633
12951W        W81169  32.320   5.218   1.380
12952W        W81170  35.802  38.937   1.468
12953W        W81171  15.303  21.283  14.700
12954W        W81172  24.523  13.697   4.412
12955W        W81173  26.965   0.358  11.575
12956W        W81174  39.799   3.791   0.726
12957W        W81175  26.752  44.808  13.836
12958W        W81176   9.729   7.890   1.326
12959W        W81177  29.701  29.034  10.775
12960W        W81178  31.581   9.822   3.480
12961W        W81179  40.051  27.477   0.385
12962W        W81180   9.565   8.288  14.826
12963W        W81181  28.057  32.103  10.492
12964W        W81182  33.927  42.572  13.835
12965W        W81183  14.790  10.271   3.588
12966W        W81184  34.348  30.872   1.993
12967W        W81185  23.142   2.675   2.169
12968W        W81186  10.735  13.095   2.690
12969W        W81187  28.102  26.771   4.382
12970W        W81188   8.708  19.775   4.893
12971W        W81189  22.611  30.135  14.413
12972W        W81190  40.293  12.096  11.512
12973W        W81191  22.446   9.888  13.391
12974W        W81192  10.042  27.434  14.970
12975W        W81193  19.537   3.876  10.475
12976W        W81194   7.830  12.207  10.776
12977W        W81195  19.115  39.908   1.195
12978W        W81196  32.611   7.524   1.123
12979W        W81197  26.937  18.092  12.532
12980W        W81198  37.575  29.975   3.842
12981W        W81199  44.766  27.185   3.162
12982W        W81200  10.346  16.303   2.692
12983W        W81201  28.076  13.680  13.750
12984W        W81202  39.910  44.610   3.755
12985W        W81203  39.850  22.088  14.238
12986W        W81204  26.142  37.014   2.428
12987W        W81205  33.820  32.785   2.424
12988W        W81206  16.653  35.544  14.276
12989W        W81207  38.635  38.769  11.194
12990W        W81208  30.115  14.682   1.703
12991W        W81209  34.360  23.014   3.221
12992W        W81210  32.007  22.826   2.605
12993W        W81211  32.934   0.312  11.509
12994W        W81212  40.510   8.922  13.080
12995W        W81213  19.082   5.648  10.696
12996W        W81214   7.097   1.714  12.453
12997W        W81215  31.490  18.357  11.760
12998W        W81216  19.796  35.041  11.580
12999W        W81217  12.115  43.942   9.977
13000W        W81218  39.145  19.345   2.420
13001W        W81219   2.699  16.226  14.861
13002W        W81220  12.706  25.329   2.846
13003W        W81221   7.601  31.512  12.534
13004W        W81222   1.302   4.477  14.209
13005W        W81223  24.701  34.927   2.126
13006W        W81224  20.816  35.291   2.303
13007W        W81225  42.996  21.272   4.463
13008W        W81226  30.703  16.734   3.046
13009W        W81227  37.969  10.739  13.316
13010W        W81228  23.279  34.078  10.311
13011W        W81229  28.416  24.925  12.119
13012W        W81230  39.001  18.683  10.666
13013W        W81231  15.140  13.480   4.030
13014W        W81232  41.004  40.013  13.540
13015W        W81233  10.722   2.722   3.606
13016W        W81234  19.535  11.700   0.826
13017W        W81235  43.929   2.882  12.806
13018W        W81236  11.691  24.480  11.904
13019W        W81237  41.072   3.456   1.679
13020W        W81238  31.115  19.726   3.314
13021W        W81239  15.852  28.281  14.985
13022W        W81240  17.785  19.275   4.796
13023W        W81241  38.973  12.819   2.738
13024W        W81242  43.370   2.034   1.335
13025W        W81243  32.915  27.629  14.713
13026W        W81244  37.390  21.571  13.932
13027W        W81245  35.879  36.684   1.834
13028W        W81246  24.160  35.672   1.171
13029W        W81247  14.410  17.333   2.169
13030W        W81248   7.875  27.455   1.790
13031W        W81249  36.216  34.416  11.568
13032W        W81250  22.005  25.131  13.403
13033W        W81251  17.213  28.490   3.062
13034W        W81252  11.854  14.048   1.423
13035W        W81253  37.390  19.343  12.988
13036W        W81254  17.223  36.778   0.426
13037W        W81255  23.498  16.546  13.557
13038W        W81256  39.716  38.317   2.206
13039W        W81257  16.627   6.529   3.104
13040W        W81258  37.642  43.427   3.618
13041W        W81259  31.116  37.793   1.976
13042W        W81260  21.982   2.960  14.312
13043W        W81261   2.992  22.273  10.864
13044W        W81262  33.435   0.288  12.435
13045W        W81263  17.102  23.015  13.423
13046W        W81264  29.129  42.851  10.763
13047W        W81265  25.952  44.322  10.156
13048W        W81266  22.520  17.415   4.092
13049W        W81267   4.443  31.415  13.942
13050W        W81268   0.449   2.250   3.253
13051W        W81269  14.154   7.202  14.287
13052W        W81270  28.186   5.463   2.725
13053W        W81271  12.714   0.894   4.107
13054W        W81272  33.553  37.245   5.018
13055W        W81273  36.888  41.451   1.120
13056W        W81274   3.411  19.283  12.429
13057W        W81275  18.417  26.428  14.492
13058W        W81276  30.018  35.671   4.809
13059W        W81277  34.463   5.090  14.847
13060W        W81278  35.028  32.940  11.542
13061W        W81279  30.265  24.937   2.314
13062W        W81280  11.914  28.484  12.312
13063W        W81281   5.745   0.515   2.939
13064W        W81282  30.683  41.617   0.464
13065W        W81283  44.359  19.064   4.462
13066W        W81284  14.741  10.595  13.889
13067W        W81285  36.378  32.835   3.294
13068W        W81286  13.040  25.723   0.322
13069W        W81287   3.191   8.287  12.540
13070W        W81288   1.377  34.844   0.259
13071W        W81289   1.188  29.539  11.043
13072W        W81290   6.942  22.199   3.287
13073W        W81291  35.557  33.356  13.349
13074W        W81292  12.353  34.368   2.666
13075W        W81293   7.599  24.150   0.200
13076W        W81294  36.265  13.638   0.605
13077W        W81295  21.527  38.385   4.871
13078W        W81296  22.769  17.527  14.024
13079W        W81297  18.335   9.657  14.682
13080W        W81298   6.636  20.150  11.015
13081W        W81299   3.696  27.154  13.629
13082W        W81300   1.377  35.106   4.075
13083W        W81301  10.343  35.943  13.559
13084W        W81302  14.190  37.381  11.739
13085W        W81303  17.328  40.478   4.016
13086W        W81304  25.514  33.654   5.173
13087W        W81305  24.469   0.250  12.592
13088W        W81306  35.738  23.690   1.290
13089W        W81307  23.515  29.938   0.009
13090W        W81308  40.030  10.801  14.931
13091W        W81309  32.925  21.682   0.940
13092W        W81310  14.294  21.578  11.180
13093W        W81311   8.303  33.815  13.036
13094W        W81312  31.812   6.793  14.352
13095W        W81313   7.457  22.497   4.185
13096W        W81314   4.323  38.635   4.546
13097W        W81315  36.070  18.531  14.566
13098W        W81316   6.804   6.496  14.845
13099W        W81317  23.612   5.474   4.566
13100W        W81318   7.901   8.104  11.072
13101W        W81319  24.196  19.210   4.072
13102W        W81320  44.180  25.700   3.103
13103W        W81321  28.403  40.053   1.903
13104W        W81322  26.415  39.524  13.980
13105W        W81323   1.785  31.237  10.514
13106W        W81324  33.989  21.955   2.255
13107W        W81325  30.374  34.636  14.459
13108W        W81326   3.293  29.185  12.099
13109W        W81327  33.506  42.172  11.610
13110W        W81328  37.858  30.413  13.861
13111W        W81329  14.162   4.807   2.268
13112W        W81330   6.142  19.461  10.303
13113W        W81331   6.337  17.085  14.813
13114W        W81332  10.205  44.983   3.724
13115W        W81333  33.176   2.020   1.358
13116W        W81334  20.046  42.264   1.277
13117W        W81335   0.024   5.979   3.214
13118W        W81336  10.287   1.241  13.422
13119W        W81337  11.741  26.565   4.691
13120W        W81338  26.587  36.829  10.667
13121W        W81339  33.406  13.893   3.853
13122W        W81340   8.844  42.929  11.493
13123W        W81341   6.548   0.311   0.043
13124W        W81342  41.073  44.746   2.814
13125W        W81343  35.057   8.410  10.593
13126W        W81344  18.170  16.837   0.417
13127W        W81345  19.769  19.797  12.099
13128W        W81346  38.548  42.566  13.327
13129W        W81347  27.124  38.919  11.981
13130W        W81348  30.433  38.273   3.699
13131W        W81349  33.376  37.125  10.231
13132W        W81350   1.840  24.943  14.794
13133W        W81351  34.975  43.391   3.247
13134W        W81352  19.733  30.525   4.629
13135W        W81353  27.380   3.785   0.842
13136W        W81354  44.265   4.943   3.230
13137W        W81355  17.059   7.250  10.656
13138W        W81356  29.144  28.485  11.968
13139W        W81357  42.924  30.854  12.010
13140W        W81358  13.175   7.033   5.051
13141W        W81359  31.489  44.476  12.148
13142W        W81360  12.332  17.723  11.634
13143W        W81361  43.498  17.176   4.475
13144W        W81362  33.357   3.251  13.397
13145W        W81363  23.345  35.361  10.553
13146W        W81364  38.690  15.884   3.786
13147W        W81365  39.634  28.328  13.872
13148W        W81366  29.110  15.365  11.982
13149W        W81367  21.117   6.366   1.229
13150W        W81368  18.156  10.314   2.195
13151W        W81369  33.327  43.817   0.388
13152W        W81370  23.093  27.870  14.480
13153W        W81371  16.219  20.632  13.354
13154W        W81372  13.341   8.402  11.103
13155W        W81373  22.542   4.707   1.374
13156W        W81374  22.963  28.453   3.969
13157W        W81375   5.766  40.772  13.523
13158W        W81376  43.558  36.141   3.106
13159W        W81377  36.002  26.003   4.445
13160W        W81378   3.860  34.392  10.724
13161W        W81379  25.882  30.391  11.538
13162W        W81380   0.741  21.182   3.540
13163W        W81381  33.418  32.054  10.671
13164W        W81382  39.757  25.135  12.626
13165W        W81383  38.591  16.278  13.061
13166W        W81384  21.142  35.514   0.659
13167W        W81385  30.961   7.246  10.317
13168W        W81386  31.555   1.719   1.883
13169W        W81387   5.292  10.086   2.838
13170W        W81388  15.143  42.797   2.825
13171W        W81389  43.345  40.324  11.826
13172W        W81390   3.268  21.495  11.212
13173W        W81391  43.263  40.322  11.015
13174W        W81392  21.114  18.629   2.828
13175W        W81393   6.234  10.776  14.921
13176W        W81394  32.039  29.750  11.849
13177W        W81395  42.057  15.712  10.682
13178W        W81396  34.017  29.301   1.248
13179W        W81397  43.419  39.085  10.513
13180W        W81398   4.344  42.405  11.609
13181W        W81399  25.145   5.317   4.828
13182W        W81400   4.301  37.515   1.390
13183W        W81401  31.602   5.035  14.427
13184W        W81402  29.119   1.822   0.157
13185W        W81403  34.022  16.661  14.730
13186W        W81404   5.174  26.022   1.197
13187W        W81405   7.583  14.357   4.995
13188W        W81406  22.247   5.145   3.819
13189W        W81407  43.394  16.597  13.301
13190W        W81408  25.806  44.215   3.380
13191W        W81409  34.382  10.528   1.354
13192W        W81410  19.287   7.678   1.780
13193W        W81411  21.042  30.172  14.307
13194W        W81412  19.174  20.047  13.580
13195W        W81413   6.408  21.288  13.055
13196W        W81414  41.703  17.586  14.811
13197W        W81415  42.966   1.730   1.456
13198W        W81416  24.952   9.409   0.331
13199W        W81417  16.372  26.500   1.868
13200W        W81418  22.943  26.041  13.510
13201W        W81419  20.855  10.611  11.000
13202W        W81420  14.204  41.757   9.862
13203W        W81421  16.308  25.449  13.910
13204W        W81422  21.506  10.130  13.045
13205W        W81423  31.606   7.446   1.863
13206W        W81424  10.388  28.024  11.124
13207W        W81425  24.132  17.375   5.003
13208W        W81426   2.415  25.448  13.553
13209W        W81427  13.438  17.947  11.138
13210W        W81428  20.654  18.179   0.368
13211W        W81429  42.071   2.694  13.506
13212W        W81430  20.724  19.755  14.080
13213W        W81431   0.774  35.500  14.511
13214W        W81432   9.258  29.444  12.921
13215W        W81433  29.710  30.424   9.717
13216W        W81434  35.881  41.305   4.086
13217W        W81435  24.275   6.648  11.462
13218W        W81436  32.239  15.269  13.528
13219W        W81437  22.362  21.072  14.328
13220W        W81438  34.524  23.075  12.929
13221W        W81439  16.212  28.661  14.869
13222W        W81440  10.573  37.795   3.323
13223W        W81441  28.210  10.960   3.805
13224W        W81442  43.284  40.755   0.807
13225W        W81443  25.396  10.152  13.522
13226W        W81444  21.394  17.289   2.765
13227W        W81445  26.661  27.968   0.492
13228W        W81446   6.678   8.178   2.214
13229W        W81447  11.786  36.030   1.398
13230W        W81448   6.292  18.907   0.375
13231W        W81449  14.022   1.242   1.424
13232W        W81450   5.314  35.610   0.798
13233W        W81451  38.496  43.481  12.874
13234W        W81452  28.124   7.739  13.646
13235W        W81453  37.545  21.909   3.680
13236W        W81454  12.643  15.260  13.067
13237W        W81455  17.528   1.500   2.784
13238W        W81456  36.955  13.085  14.565
13239W        W81457   5.138  43.536  14.768
13240W        W81458  26.175  44.406  14.299
13241W        W81459   9.842  17.669  10.313
13242W        W81460  15.680  39.521   2.165
13243W        W81461  32.351   8.474  12.078
13244W        W81462   6.300  25.948   4.755
13245W        W81463  12.179  10.704  14.415
13246W        W81464  39.845   1.849   1.485
13247W        W81465  31.599  16.692   3.655
13248W        W81466  44.391  23.220   3.173
13249W        W81467   9.234  18.461   1.951
13250W        W81468  27.072  34.535   3.637
13251W        W81469   2.738   6.060  11.685
13252W        W81470   9.872  36.879   2.860
13253W        W81471  34.497  34.908   4.016
13254W        W81472   1.515  38.792  12.006
13255W        W81473  15.251  28.425  14.882
13256W        W81474   0.072   9.892  11.007
13257W        W81475  25.087  14.989   3.466
13258W        W81476  10.257   6.517   0.298
13259W        W81477   1.196  31.002  11.706
13260W        W81478  20.661   8.393  10.647
13261W        W81479  34.188   4.047  14.601
13262W        W81480   8.921  23.492   2.861
13263W        W81481  44.359  28.252   4.326
13264W        W81482   7.715   7.640   4.300
13265W        W81483  44.321  38.020  13.230
13266W        W81484   4.392  26.970  11.498
13267W        W81485   3.928   0.792   1.362
13268W        W81486  26.225  36.049  10.667
13269W        W81487  34.341   5.768   0.915
13270W        W81488  35.005   7.889  10.496
13271W        W81489  33.586  14.795  14.671
13272W        W81490  36.271  27.208   1.918
13273W        W81491  27.642   8.142  12.470
13274W        W81492  28.109  20.805  14.102
13275W        W81493   3.729   5.358   2.287
13276W        W81494  17.130  33.356  14.397
13277W        W81495  22.866   9.228   1.336
13278W        W81496   8.292  34.542  14.565
13279W        W81497   7.374  41.795   3.881
13280W        W81498  12.707  22.966   3.231
13281W        W81499   8.421  29.022  11.633
13282W        W81500  12.571  30.363   4.688
13283W        W81501  22.960  38.481   4.617
13284W        W81502  24.195  34.683   0.385
13285W        W81503  39.434   5.969  14.827
13286W        W81504  30.820  35.149   1.358
13287W        W81505  12.151  43.028  12.457
13288W        W81506  43.174  18.257   4.735
13289W        W81507  32.047  18.741   2.144
13290W        W81508  15.782  33.848  11.017
13291W        W81509   4.938  14.747  13.684
13292W        W81510  41.030  11.252   4.678
13293W        W81511   9.402  30.140   1.800
13294W        W81512   6.931  18.989  13.684
13295W        W81513   6.825  22.960  11.683
13296W        W81514  20.190  42.254  12.908
13297W        W81515  27.124  35.047  13.182
13298W        W81516  30.025   6.620  13.781
13299W        W81517  25.760   4.861  14.314
13300W        W81518   8.905  42.041  11.960
13301W        W81519  31.460   3.950  14.300
13302W        W81520   7.200  43.811  13.619
13303W        W81521  36.080  15.256   2.364
13304W        W81522  31.035   0.739  10.210
13305W        W81523  15.272  29.956   4.178
13306W        W81524  32.068  20.138   3.837
13307W        W81525  10.577  39.285  11.452
13308W        W81526  10.163  19.792   4.598
13309W        W81527  38.279  24.570   0.273
13310W        W81528   5.557  37.476  11.473
13311W        W81529  14.264  34.169  14.787
13312W        W81530   4.732  39.481   2.788
13313W        W81531  32.605  25.491   5.299
13314W        W81532  33.998   5.595  12.017
13315W        W81533  25.052  19.538  12.103
13316W        W81534  28.113  43.372   1.730
13317W        W81535  43.647  10.848  12.551
13318W        W81536   9.608  16.250  11.115
13319W        W81537   5.630  15.999  14.444
13320W        W81538  36.501  12.525  13.982
13321W        W81539  24.625  21.614  10.487
13322W        W81540  40.345  43.222  10.750
13323W        W81541  19.458  43.844  14.915
13324W        W81542  44.045  40.397  14.719
13325W        W81543   0.295  29.567  13.457
13326W        W81544  22.769  28.745  14.712
13327W        W81545  44.917   3.211  12.375
13328W        W81546  33.183  19.966   0.009
13329W        W81547   0.374  38.460   1.939
13330W        W81548  38.499  31.193  12.997
13331W        W81549  21.501  19.523  14.390
13332W        W81550  15.624  34.428  13.656
13333W        W81551   7.868   2.466   0.746
13334W        W81552  28.477  19.054   2.823
13335W        W81553  34.401  30.893   0.245
13336W        W81554  26.149  36.132   4.260
13337W        W81555  35.791  22.968   4.087
13338W        W81556   7.402  32.888   1.668
13339W        W81557  14.745  25.804  10.988
13340W        W81558  44.539   6.340   1.235
13341W        W81559  23.236  35.264  14.285
13342W        W81560  17.508  14.081  13.894
13343W        W81561   9.271  44.937  12.112
13344W        W81562  14.856  40.917  10.503
13345W        W81563  24.038  30.446  12.131
13346W        W81564  39.450  33.882  12.116
13347W        W81565  37.670  33.986  13.347
13348W        W81566  29.477   1.654   2.326
13349W        W81567  34.443  15.286  14.035
13350W        W81568  36.348  14.521  11.477
13351W        W81569  10.205  26.571  11.595
13352W        W81570  25.886  28.839   1.923
13353W        W81571  39.867  19.961  11.444
13354W        W81572  15.750  30.121  14.539
13355W        W81573  19.690   9.404  13.583
13356W        W81574   5.321   7.867   2.310
13357W        W81575  31.510  10.744   2.483
13358W        W81576  28.965  36.651   0.157
13359W        W81577  40.953  22.796  11.220
13360W        W81578  41.418  20.167   0.229
13361W        W81579  14.279  30.971  10.370
13362W        W81580  20.293  38.342   2.793
13363W        W81581  29.537  41.390  13.624
13364W        W81582  20.225  29.044  13.866
13365W        W81583  43.053   6.700  12.290
13366W        W81584  29.071  37.604   3.787
13367W        W81585  27.526  27.855   0.906
13368W        W81586  24.056   2.147  11.565
13369W        W81587   6.862  30.205  11.564
13370W        W81588  17.731   7.762   0.886
13371W        W81589  38.355  27.991   1.162
13372W        W81590  28.647  15.225  11.799
13373W        W81591  32.512  44.412  11.677
13374W        W81592  25.649   1.280   0.905
13375W        W81593  11.894  37.761  14.331
13376W        W81594  29.026  19.159   2.758
13377W        W81595  15.154  33.875   3.294
13378W        W81596  36.821  28.946  13.952
13379W        W81597   2.356  23.672  11.888
13380W        W81598  18.658  37.171  10.567
13381W        W81599  22.242  16.052  10.657
13382W        W81600  29.900  14.933  13.519
13383W        W81601  17.794  37.060   1.240
13384W        W81602   1.037  40.818  11.174
13385W        W81603   5.946  10.144  12.447
13386W        W81604  34.521  20.636   0.156
13387W        W81605  15.216  42.191   4.371
13388W        W81606  40.847  23.333  12.095
13389W        W81607  40.114  15.701   3.510
13390W        W81608  12.343   0.929   2.268
13391W        W81609  31.249  14.857   0.392
13392W        W81610  41.828  14.088  12.297
13393W        W81611   9.025  32.181  14.117
13394W        W81612  23.812  11.628   1.845
13395W        W81613  36.130  28.482   2.247
13396W        W81614  24.403  34.419  11.900
13397W        W81615  13.748   0.579  11.982
13398W        W81616   3.263   0.517   3.155
13399W        W81617  36.724  22.576  13.503
13400W        W81618   2.236  35.968  11.687
13401W        W81619  18.588  40.596   2.292
13402W        W81620  28.006  31.450   4.539
13403W        W81621   0.196   2.271   0.201
13404W        W81622  25.482   1.005  14.266
13405W        W81623  21.092  42.846   3.865
13406W        W81624   8.821  12.900   1.984
13407W        W81625  16.150  43.012   4.125
13408W        W81626   7.730   5.348  12.695
13409W        W81627  23.573  36.468   1.450
13410W        W81628  41.839  25.687  10.578
13411W        W81629  26.002   2.908  11.130
13412W        W81630   8.622  31.344   0.722
13413W        W81631  30.348  36.876  13.064
13414W        W81632   6.190   1.710  14.978
13415W        W81633  18.360  25.246   3.225
13416W        W81634  39.393  26.132  14.452
13417W        W81635  40.456  20.707  11.273
13418W        W81636  29.210  20.691  13.122
13419W        W81637  30.193   6.834   2.693
13420W        W81638  17.833  18.778  12.874
13421W        W81639  22.320  10.353  10.445
13422W        W81640  22.277  21.187  13.408
13423W        W81641   4.354  22.415   0.190
13424W        W81642   2.427  28.379  13.245
13425W        W81643  41.404  23.236   3.324
13426W        W81644  13.880  18.573   2.812
13427W        W81645   7.461  32.865  13.373
13428W        W81646  12.905  15.185  13.508
13429W        W81647  40.085  19.567   3.276
13430W        W81648  30.411  41.303  12.767
13431W        W81649  43.867  23.116  13.687
13432W        W81650  41.883  38.079  10.800
13433W        W81651  40.412   5.550   1.247
13434W        W81652  14.165   7.513   0.785
13435W        W81653  21.003  40.974  12.914
13436W        W81654  11.657  29.568   0.936
13437W        W81655  19.167   4.757  10.891
13438W        W81656  19.386   7.457   0.940
13439W        W81657  14.274  22.228  11.782
13440W        W81658  31.526  12.913   2.433
13441W        W81659  31.059  35.951  11.652
13442W        W81660  19.615  25.136   3.875
13443W        W81661  31.736  33.573  10.552
13444W        W81662   8.402  11.493   4.247
13445W        W81663  12.882  36.947   2.191
13446W        W81664  18.777  33.067  10.314
13447W        W81665  42.859  14.258  14.118
13448W        W81666  23.978  19.631   1.337
13449W        W81667  30.308  32.635  14.453
13450W        W81668  37.779  24.095  11.668
13451W        W81669  35.891  44.357   4.788
13452W        W81670  42.496  25.282  11.911
13453W        W81671   4.645  33.548   0.069
13454W        W81672  14.137  12.368  11.256
13455W        W81673  39.978  41.982  10.628
13456W        W81674  26.491  14.556   1.274
13457W        W81675  13.965   1.922   3.041
13458W        W81676  38.385  25.147   0.387
13459W        W81677  38.531  14.572   2.658
13460W        W81678  20.674  27.551  11.978
13461W        W81679  42.234  12.191  11.548
13462W        W81680  25.340   6.186   2.196
13463W        W81681   9.432  13.443  11.102
13464W        W81682  21.104  42.823   2.222
13465W        W81683  36.543  18.284  10.769
13466W        W81684   6.716  29.233   2.857
13467W        W81685  42.895  31.010   1.647
13468W        W81686  30.193  35.984  10.710
13469W        W81687  17.317  18.492   1.014
13470W        W81688  14.880  23.540  13.606
13471W        W81689  35.055  36.989   4.429
13472W        W81690  15.365  43.972  11.841
13473W        W81691  25.019  11.924  11.060
13474W        W81692  42.860  28.963  13.797
13475W        W81693  23.631  19.731  14.636
13476W        W81694   0.126  37.095  13.793
13477W        W81695  27.907  12.820   4.997
13478W        W81696   7.566   4.066   3.258
13479W        W81697  11.438   8.322  10.090
13480W        W81698  19.709  28.004   3.656
13481W        W81699  15.777  12.340   2.365
13482W        W81700  28.576  20.613   0.472
13483W        W81701  29.642  13.229  12.988
13484W        W81702  37.473  29.456   4.565
13485W        W81703   3.294   8.385   3.658
13486W        W81704  31.008   4.079   0.491
13487W        W81705  17.399  21.587  11.661
13488W        W81706  15.846  30.710   1.426
13489W        W81707  26.500  19.779  11.728
13490W        W81708  43.481   0.647   1.718
13491W        W81709  10.080  33.369   1.415
13492W        W81710  31.564   0.735   3.312
13493W        W81711   8.471  25.001  13.458
13494W        W81712   0.998  42.241   3.441
13495W        W81713  27.933   3.013   0.294
13496W        W81714  24.239  27.073   0.444
13497W        W81715  26.291  19.838   4.324
13498W        W81716  21.222   4.910  11.510
13499W        W81717  22.051  12.911  11.954
13500W        W81718   1.650   6.279  13.618
13501W        W81719   8.346  12.422   4.452
13502W        W81720  34.931  32.577  12.439
13503W        W81721  11.746   2.903  11.893
13504W        W81722  29.170  31.002   4.220
13505W        W81723  13.752  32.621   1.225
13506W        W81724  19.596  17.895   3.819
13507W        W81725  21.183  19.539  11.923
13508W        W81726  22.933  11.190   4.831
13509W        W81727  44.026  17.631   1.298
13510W        W81728  33.999  34.271  12.526
13511W        W81729   9.580  26.903  14.325
13512W        W81730  31.620   6.778  13.002
13513W        W81731  21.312  13.593   0.868
13514W        W81732  17.660   4.243   1.230
13515W        W81733   4.848  35.535   3.127
13516W        W81734  13.648  41.537   4.677
13517W        W81735  36.659  14.791  14.642
13518W        W81736  41.572  42.858   4.053
13519W        W81737   9.716  44.855  11.800
13520W        W81738  20.962  35.149  14.297
13521W        W81739   2.743  25.171  11.570
13522W        W81740  44.920  33.551   1.189
13523W        W81741   1.102   3.251   4.218
13524W        W81742   1.721   6.864   4.741
13525W        W81743  14.545  14.046   0.298
13526W        W81744  16.349   8.574   3.054
13527W        W81745  40.960  19.319  12.540
13528W        W81746   7.658  40.008   2.724
13529W        W81747  10.641  27.143   0.932
13530W        W81748  10.250   2.832  11.466
13531W        W81749  17.662  32.862   4.193
13532W        W81750  17.828  22.543  11.190
13533W        W81751  23.200  35.454   1.708
13534W        W81752  10.547  10.707   3.721
13535W        W81753  10.347   0.118  14.853
13536W        W81754  30.568  43.971   4.431
13537W        W81755  19.109  26.082   0.826
13538W        W81756  10.626   0.210  12.566
13539W        W81757  12.233  32.871   0.888
13540W        W81758  36.950  10.225  12.203
13541W        W81759  29.137  28.150  13.584
13542W        W81760   4.724  35.778   1.520
13543W        W81761  12.390  43.911  12.092
13544W        W81762  26.240  42.790  12.586
13545W        W81763  42.684  43.798  13.013
13546W        W81764  35.080   5.799   3.221
13547W        W81765  19.782  15.644   4.198
13548W        W81766   5.892  37.698   2.598
13549W        W81767  39.376  30.121   4.124
13550W        W81768  20.367  22.285   2.148
13551W        W81769   0.748   1.536  13.577
13552W        W81770  39.716   6.278  11.600
13553W        W81771  35.588  41.782   4.089
13554W        W81772  43.490  14.399   4.985
13555W        W81773  17.589  41.445   4.721
13556W        W81774  27.426   9.329   2.167
13557W        W81775   5.588  34.333  10.565
13558W        W81776  17.715  30.685  12.979
13559W        W81777  10.203  25.127   3.892
13560W        W81778  43.111   7.398  10.642
13561W        W81779  15.161  16.071   0.339
13562W        W81780  39.336  30.344  13.844
13563W        W81781  30.877  43.250  12.637
13564W        W81782   6.938  39.928   9.980
13565W        W81783   3.438  28.858   2.693
13566W        W81784   1.607  37.954   2.066
13567W        W81785  28.336  17.431   5.487
13568W        W81786  24.916  34.272  11.898
13569W        W81787  26.476  25.042  11.081
13570W        W81788  38.279  29.644   0.282
13571W        W81789  30.475  11.537   3.290
13572W        W81790   5.287   6.182  13.502
13573W        W81791   9.861   8.576  12.469
13574W        W81792  16.536  32.122  13.049
13575W        W81793  23.763   0.269  14.501
13576W        W81794  12.490  15.295  14.928
13577W        W81795   2.806  30.416  11.605
13578W        W81796  32.482   4.597  12.449
13579W        W81797  15.566   9.352  12.535
13580W        W81798  23.521  13.224   0.763
13581W        W81799  17.640  35.319  11.190
13582W        W81800  33.309   8.787   2.190
13583W        W81801  29.651  19.971  11.663
13584W        W81802  38.819   8.602   3.616
13585W        W81803  38.600  33.585   1.405
13586W        W81804  20.054  20.966  11.699
13587W        W81805  35.847  35.988   4.045
13588W        W81806   6.502  38.852  11.032
13589W        W81807  37.741  20.956  13.892
13590W        W81808  12.779   0.790   3.215
13591W        W81809  19.534  27.339  12.657
13592W        W81810   0.925  44.793  10.992
13593W        W81811   3.639  21.418   3.980
13594W        W81812  17.329  31.570  12.126
13595W        W81813  14.221  16.122   2.583
13596W        W81814   6.355   9.773   1.208
13597W        W81815   2.428  28.017   3.795
13598W        W81816  18.433   7.818   4.691
13599W        W81817  22.272   3.802  10.707
13600W        W81818  29.573   8.852  11.208
13601W        W81819   0.829   7.297   0.173
13602W        W81820   9.242  39.067   0.712
13603W        W81821   2.651  25.712   1.996
13604W        W81822  38.142  15.621   0.549
13605W        W81823  23.164  33.879   0.184
13606W        W81824   0.849  44.705   3.060
13607W        W81825  25.754  20.060  12.049
13608W        W81826   6.411   1.898  11.814
13609W        W81827  26.672  24.522   2.885
13610W        W81828  25.888  43.015  14.739
13611W        W81829  11.102  31.170   0.239
13612W        W81830  18.628  19.042  13.066
13613W        W81831  16.048   7.682  14.383
13614W        W81832  12.874   3.114   2.783
13615W        W81833  41.450  18.810  10.896
13616W        W81834   8.639  42.592  13.600
13617W        W81835   5.669  35.996   0.764
13618W        W81836   9.939  35.421  12.425
13619W        W81837  27.058  32.037   0.264
13620W        W81838  28.151  39.082   1.490
13621W        W81839  12.608  36.058  14.917
13622W        W81840   3.453  14.726   2.293
13623W        W81841  23.643  20.450   3.181
13624W        W81842  29.769   5.514   5.024
13625W        W81843   2.485  40.458  13.384
13626W        W81844  30.099  13.211  11.156
13627W        W81845  15.569  42.348  10.635
13628W        W81846   5.377  29.482   0.441
13629W        W81847  12.858  15.076   0.277
13630W        W81848  32.982  40.540   1.756
13631W        W81849   2.859  11.682  10.853
13632W        W81850   3.948   5.145  12.405
13633W        W81851  17.095   2.047  13.960
13634W        W81852   2.316   4.945  14.026
13635W        W81853   1.021  11.381   1.493
13636W        W81854   6.169  18.557  12.003
13637W        W81855  15.404  15.199  14.143
13638W        W81856  17.822   8.303  12.938
13639W        W81857  27.918  13.988  12.243
13640W        W81858  11.065   9.570  12.519
13641W        W81859  41.891  16.208  14.088
13642W        W81860  17.014  18.248   2.299
13643W        W81861   9.610  36.131   1.348
13644W        W81862  25.050  14.837  13.996
13645W        W81863  22.514  30.029  13.278
13646W        W81864  40.218  37.544  14.664
13647W        W81865  28.463  29.879  12.567
13648W        W81866   1.721  14.565  14.416
13649W        W81867  25.276  37.854   4.417
13650W        W81868   6.361  10.334  11.944
13651W        W81869  43.217  42.869  10.320
13652W        W81870  26.160  24.699  13.891
13653W        W81871  14.982  17.095  11.968
13654W        W81872  29.537  16.181   0.268
13655W        W81873  14.745   2.153   5.177
13656W        W81874  12.314  30.533  14.537
13657W        W81875  10.739   5.793  12.493
13658W        W81876   0.406  20.613   2.931
13659W        W81877   0.965  44.375  12.216
13660W        W81878  44.800  10.342  14.911
13661W        W81879  12.865  11.111   0.027
13662W        W81880  19.122  34.284   0.899
13663W        W81881  30.171   8.657  11.747
13664W        W81882  31.998  26.420  13.444
13665W        W81883  15.188  23.758   4.220
13666W        W81884  31.927  35.620   2.144
13667W        W81885  42.721  12.127  14.642
13668W        W81886  32.715  24.442   1.275
13669W        W81887   4.440  39.434   3.220
13670W        W81888  32.152  36.611  11.151
13671W        W81889   2.692   1.422  11.089
13672W        W81890   0.252  24.686  11.109
13673W        W81891   3.868   9.465   0.190
13674W        W81892  19.130  30.132  14.443
13675W        W81893  25.574  32.443   3.182
13676W        W81894  30.090  23.567   3.605
13677W        W81895  13.075  12.311   1.517
13678W        W81896  14.238   7.350   0.303
13679W        W81897  39.519  20.950   0.510
13680W        W81898  19.588  25.491  14.526
13681W        W81899   6.788  34.612   2.551
13682W        W81900  44.479  17.291  12.644
13683W        W81901   9.664  35.436  12.865
13684W        W81902   1.509  40.594  11.364
13685W        W81903  18.581  18.032  11.568
13686W        W81904  24.476  34.884  12.386
13687W        W81905   8.816  31.109  12.181
13688W        W81906   4.951  16.263  12.051
13689W        W81907   4.287  41.894  11.411
13690W        W81908  29.583  32.728  13.382
13691W        W81909  43.374  44.537  12.919
13692W        W81910  34.534   9.778   0.750
13693W        W81911  12.066  10.637   1.073
13694W        W81912  27.685  12.417   2.755
13695W        W81913  27.279   7.424   4.242
13696W        W81914  39.039  44.712   4.793
13697W        W81915  23.193  15.775   0.221
13698W        W81916  37.078  26.388  10.996
13699W        W81917  18.722  33.785  12.950
13700W        W81918  21.645  18.874   1.490
13701W        W81919  12.487  25.938  13.063
13702W        W81920  40.583  12.012  12.904
13703W        W81921  19.062   3.233   4.975
13704W        W81922  37.884  15.312   1.637
13705W        W81923  26.491  31.015  11.696
13706W        W81924  11.414  39.527  11.070
13707W        W81925  26.414   3.265  14.318
13708W        W81926  36.174   3.326   1.226
13709W        W81927  33.761  42.073   4.461
13710W        W81928   0.683  33.059   1.389
13711W        W81929  43.882  40.777   1.969
13712W        W81930   2.765  31.366   3.672
13713W        W81931  38.230   4.400  13.918
13714W        W81932  35.050   9.909   0.741
13715W        W81933  19.662  37.251  12.048
13716W        W81934   8.268  13.955   4.675
13717W        W81935   3.942   5.837   2.311
13718W        W81936  32.356  29.943   4.941
13719W        W81937  38.322  44.479  13.510
13720W        W81938  28.135  11.803  11.281
13721W        W81939   4.804  19.707  10.656
13722W        W81940  16.586  34.671   4.064
13723W        W81941  37.059  17.009  14.314
13724W        W81942  34.157  31.410   3.233
13725W        W81943  12.405   4.902  13.344
13726W        W81944  23.410  39.049  13.361
13727W        W81945   9.736   7.734  10.900
13728W        W81946  15.295  12.920   2.163
13729W        W81947  12.017  14.248   2.298
13730W        W81948   1.861  14.745  12.676
13731W        W81949  12.089  12.999   0.359
13732W        W81950  13.332  13.919   5.121
13733W        W81951  38.769   7.775   1.380
13734W        W81952  22.138  17.960  11.220
13735W        W81953  25.001  16.664   2.241
13736W        W81954   8.468  11.300   0.845
13737W        W81955  19.416  14.571   3.308
13738W        W81956  33.155  40.600  10.863
13739W        W81957  12.055  26.106   1.773
13740W        W81958  34.123   9.503   2.298
13741W        W81959   5.399   3.668   0.501
13742W        W81960  27.251   2.843   1.800
13743W        W81961   9.786  16.138  13.329
13744W        W81962  30.464  11.737   2.074
13745W        W81963   5.689   0.421  13.741
13746W        W81964  43.921   1.330  14.288
13747W        W81965   7.174   3.420   1.747
13748W        W81966   6.831   1.568   4.667
13749W        W81967  25.617  20.061  13.766
13750W        W81968  30.152  22.910  11.139
13751W        W81969   8.951  43.566  13.505
13752W        W81970  27.741  20.154   4.153
13753W        W81971   7.764  30.648   4.575
13754W        W81972  10.935   3.223   2.453
13755W        W81973   4.935  34.337   2.640
13756W        W81974  14.432  41.922  14.932
13757W        W81975  36.167  30.387   2.321
13758W        W81976  17.218  34.700   0.290
13759W        W81977  19.101  14.862  13.879
13760W        W81978  27.748  42.601  13.814
13761W        W81979  37.017  28.491   1.963
13762W        W81980  36.055  18.155   1.885
13763W        W81981  15.342  30.592   1.395
13764W        W81982  27.236  11.750   4.818
13765W        W81983  24.643  33.996   1.755
13766W        W81984   1.329  16.747  10.535
13767W        W81985  24.124  19.819   2.737
13768W        W81986  41.788  19.234   4.172
13769W        W81987   5.948  17.787  14.844
13770W        W81988  43.546  23.029   1.774
13771W        W81989  38.493  17.547   0.159
13772W        W81990   7.777  28.609   4.962
13773W        W81991  21.694  39.170  13.749
13774W        W81992  24.586  30.645  10.932
13775W        W81993  24.126  33.648   0.504
13776W        W81994   5.395  39.606   4.795
13777W        W81995  31.188  24.539  10.834
13778W        W81996  26.509  29.897   3.130
13779W        W81997  42.580  42.836   0.892
13780W        W81998  33.791  17.642   0.767
13781W        W81999  19.187  36.869   4.516
13782W        W82000  19.736  38.164  14.561
13783W        W82001  14.712   8.327   4.424
13784W        W82002  13.885   5.645   0.904
13785W        W82003  27.673  15.655   3.952
13786W        W82004  16.300  43.859   3.295
13787W        W82005   8.215  20.634  10.611
13788W        W82006  21.795  12.229  14.956
13789W        W82007  20.993   9.822  14.795
13790W        W82008  22.177  32.087  10.799
13791W        W82009  23.562   4.714  14.017
13792W        W82010  35.553  42.726  12.234
13793W        W82011  20.568  39.573  10.655
13794W        W82012   1.239   4.198   1.620
13795W        W82013  13.335  40.830  14.309
13796W        W82014   8.197  33.659   0.873
13797W        W82015   2.431  34.816   4.569
13798W        W82016  23.130  19.305  10.885
13799W        W82017   9.828  43.533   1.349
13800W        W82018   4.651   5.941  14.052
13801W        W82019  23.659  42.291   3.856
13802W        W82020  37.513  24.135   0.945
13803W        W82021   3.671  20.751   3.259
13804W        W82022  12.371  32.803   1.807
13805W        W82023  20.571  41.318   2.276
13806W        W82024  16.585  44.768  12.135
13807W        W82025  41.948   5.167  10.731
13808W        W82026   6.761  41.486   1.467
13809W        W82027  20.430  17.669  10.353
13810W        W82028  23.951  15.768   4.544
13811W        W82029  12.289  19.964   0.406
13812W        W82030  44.080  30.990  12.451
13813W        W82031  28.223  30.391  13.845
13814W        W82032  17.983  14.552   2.866
13815W        W82033  43.396   5.657  14.056
13816W        W82034  21.852  23.842   4.052
13817W        W82035   4.149  31.667   2.327
13818W        W82036   0.593  27.997   4.605
13819W        W82037  34.413  37.968  12.865
13820W        W82038  43.606  26.522  14.827
13821W        W82039  29.096  29.269   4.199
13822W        W82040  10.335  23.686   1.010
13823W        W82041  23.734  44.491  13.950
13824W        W82042  15.822  42.066   4.266
13825W        W82043   5.128  19.683   1.758
13826W        W82044  11.769   5.902  12.938
13827W        W82045  37.627  38.552   1.315
13828W        W82046  32.545  31.116   4.246
13829W        W82047  32.372  37.867   0.792
13830W        W82048  16.511  26.626  11.952
13831W        W82049  15.093  18.947  13.521
13832W        W82050  25.477  26.626   0.787
13833W        W82051  38.406  27.894  10.565
13834W        W82052  41.105  33.894   2.276
13835W        W82053  44.316  32.674  14.984
13836W        W82054  43.119  10.500   4.211
13837W        W82055  39.088  20.953   1.211
13838W        W82056  32.919  20.770   2.953
13839W        W82057  35.861  16.805   2.818
13840W        W82058  29.096  10.286   0.341
13841W        W82059  23.794  29.411   2.411
13842W        W82060   8.683   2.430   2.031
13843W        W82061   6.210   4.421   1.730
13844W        W82062  17.271  14.273   2.138
13845W        W82063  29.952  15.767   2.761
13846W        W82064  37.003  43.404   1.784
13847W        W82065   1.257  19.988  13.878
13848W        W82066  11.916   7.920  12.028
13849W        W82067  33.679   8.196  12.060
13850W        W82068  23.144  42.497   1.595
13851W        W82069  30.809  39.269  12.369
13852W        W82070   2.888   6.441  11.363
13853W        W82071   7.954  39.871   2.318
13854W        W82072  21.762  11.156   0.253
13855W        W82073  12.170   4.414   1.676
13856W        W82074   1.779   5.657   3.095
13857W        W82075  10.926  24.103   2.223
13858W        W82076  20.023   9.832   4.573
13859W        W82077  39.792   2.713  13.486
13860W        W82078  33.086   7.248  14.490
13861W        W82079  43.712  28.213  11.420
13862W        W82080  32.988  18.729   0.344
13863W        W82081  31.952  36.365   4.160
13864W        W82082  20.138  17.679  14.016
13865W        W82083  38.062  10.190  14.492
13866W        W82084  39.989  24.712  14.070
13867W        W82085  36.905  38.710  11.846
13868W        W82086   5.982  37.960   3.452
13869W        W82087  37.993   0.234  12.098
13870W        W82088  36.988  36.518  12.488
13871W        W82089   9.621  28.207   2.175
13872W        W82090  37.470   5.961   0.353
13873W        W82091   3.661  10.341  11.505
13874W        W82092  11.708   6.245   0.367
13875W        W82093  38.320  21.971  11.150
13876W        W82094  34.927  19.395   5.081
13877W        W82095   2.168   7.745  12.093
13878W        W82096  10.953  21.762   2.714
13879W        W82097  43.244   9.981  11.580
13880W        W82098   8.588  16.502  14.335
13881W        W82099  18.293  30.021  14.838
13882W        W82100   2.457  13.142   4.193
13883W        W82101  11.887  10.509   3.363
13884W        W82102   3.321   9.249  11.996
13885W        W82103  40.025  11.627  12.890
13886W        W82104  19.810  22.679   1.376
13887W        W82105  30.564  25.681  14.743
13888W        W82106  38.306  37.078   2.315
13889W        W82107  42.092   3.865   4.247
13890W        W82108  23.924   5.748  14.572
13891W        W82109   2.128  25.896  13.816
13892W        W82110  27.732  11.652  11.554
13893W        W82111   0.953  33.558   2.035
13894W        W82112   1.985  36.902  13.485
13895W        W82113  43.749   7.216  11.367
13896W        W82114  17.049  26.577   4.593
13897W        W82115  33.376  32.151  13.923
13898W        W82116   1.775  19.284   0.717
13899W        W82117  28.628  32.902   1.355
13900W        W82118  17.148  28.195   4.304
13901W        W82119  42.252  23.162  14.439
13902W        W82120  12.896  43.471   1.906
13903W        W82121  21.256  14.200  12.616
13904W        W82122  33.871  11.677   1.806
13905W        W82123  17.819  27.503  12.120
13906W        W82124  21.704  27.513   2.148
13907W        W82125  28.030  21.519   2.193
13908W        W82126  25.911   8.900   0.368
13909W        W82127  44.241  11.159  13.789
13910W        W82128  20.939  43.382   0.629
13911W        W82129  37.426  16.611   0.993
13912W        W82130  44.759   7.986  12.158
13913W        W82131   4.654   5.881  11.633
13914W        W82132  19.049   8.720   1.740
13915W        W82133  16.686  38.287  11.847
13916W        W82134   4.208   1.893  10.538
13917W        W82135  36.980  11.380   3.309
13918W        W82136  41.014   1.770   4.141
13919W        W82137  33.087  18.283  12.551
13920W        W82138  38.611  37.726   2.124
13921W        W82139  18.586  35.923   0.303
13922W        W82140  15.236  14.595  12.046
13923W        W82141   9.879  11.289   4.356
13924W        W82142  18.860  35.806   1.424
13925W        W82143  24.043  15.260  11.410
13926W        W82144   6.758   1.376  12.621
13927W        W82145  11.368   6.339   1.464
13928W        W82146  14.327  30.153  11.439
13929W        W82147  36.290  23.750   3.302
13930W        W82148  34.374  13.304   3.236
13931W        W82149  43.902   9.231  12.640
13932W        W82150  26.320   2.764  13.039
13933W        W82151  13.733  39.974  11.077
13934W        W82152  41.574  16.014  12.554
13935W        W82153  42.289   0.230  14.949
13936W        W82154   7.322  17.996   2.714
13937W        W82155  20.004   6.485   2.326
13938W        W82156  27.998  24.927  11.017
13939W        W82157  27.588   7.236  10.998
13940W        W82158  12.607  17.650  10.907
13941W        W82159  29.387  13.195   1.361
13942W        W82160  12.486  27.402   2.828
13943W        W82161  22.060  14.749   1.090
13944W        W82162   5.740  34.952  11.792
13945W        W82163   8.181  27.943   1.440
13946W        W82164   8.235  26.673  10.897
13947W        W82165  40.298   3.735   1.711
13948W        W82166  10.253  31.136   4.618
13949W        W82167  32.559  42.552   3.324
13950W        W82168  24.012  10.582  12.507
13951W        W82169  35.592  12.358   0.698
13952W        W82170  13.194  19.818   3.685
13953W        W82171  37.400  33.122   4.304
13954W        W82172   0.729   0.277   0.488
13955W        W82173  25.929  20.091   3.499
13956W        W82174   7.408  33.629   3.251
13957W        W82175  43.252  36.604  14.896
13958W        W82176  26.944  41.821  13.888
13959W        W82177  33.125  26.634  14.412
13960W        W82178  11.778  35.773  14.431
13961W        W82179  38.391   0.813  14.187
13962W        W82180  33.149  16.174   0.387
13963W        W82181  11.719  36.011  11.602
13964W        W82182  10.816   0.255   0.667
13965W        W82183  38.483   5.722   1.840
13966W        W82184  34.529  25.181   0.284
13967W        W82185  34.964  29.018   0.337
13968W        W82186  22.603  29.033  13.471
13969W        W82187  28.986  26.604   3.927
13970W        W82188  40.396  23.968  11.663
13971W        W82189  17.792  35.157   0.082
13972W        W82190   1.009  15.668   3.202
13973W        W82191   9.798  27.147  10.661
13974W        W82192  28.051  36.537  11.219
13975W        W82193  22.006  26.345  14.351
13976W        W82194  25.522  33.700  13.401
13977W        W82195  38.916  28.360   0.490
13978W        W82196  18.140  43.003   1.258
13979W        W82197  21.576  18.729  13.959
13980W        W82198  41.852  19.653  11.064
13981W        W82199  21.713  22.272  13.984
13982W        W82200  36.567  25.955  11.997
13983W        W82201  27.564  34.409  11.951
13984W        W82202  16.727  43.973  11.538
13985W        W82203   0.026   1.456  12.959
13986W        W82204  20.016   0.306  12.457
13987W        W82205  23.277  21.100  10.663
13988W        W82206  25.189   8.776   0.792
13989W        W82207  20.108   0.325   0.986
13990W        W82208  39.056  36.151  14.828
13991W        W82209  27.138   8.766   0.862
13992W        W82210  13.346  23.548   3.734
13993W        W82211  43.688   5.679   0.923
13994W        W82212   8.902  32.079   4.308
13995W        W82213   9.660  33.560   1.131
13996W        W82214  19.314   3.681   4.887
13997W        W82215   0.311  20.673   1.924
13998W        W82216  14.728  31.010  10.634
13999W        W82217  27.217  25.588   4.593
14000W        W82218   6.952   4.031  12.201
14001W        W82219  17.616  30.252   1.570
14002W        W82220   7.797  44.912  10.420
14003W        W82221  30.327  31.557  13.403
14004W        W82222  40.449  12.299  13.879
14005W        W82223  29.615  40.261   4.944
14006W        W82224   8.136  16.543  14.906
14007W        W82225  42.397  35.652   4.216
14008W        W82226   3.728  39.880  13.344
14009W        W82227  43.549   8.771   4.149
14010W        W82228   9.705  34.069   1.285
14011W        W82229  32.482  24.460   2.678
14012W        W82230  33.256   9.916  11.836
14013W        W82231  35.979  40.270   4.168
14014W        W82232  24.236  33.296   5.026
14015W        W82233   4.974  36.436  14.788
14016W        W82234  21.427   4.830  10.301
14017W        W82235   1.759  23.149   1.208
14018W        W82236  12.417  38.845  14.742
14019W        W82237  38.536   7.022  13.621
14020W        W82238  36.123   7.473   3.872
14021W        W82239  12.662  30.353   2.971
14022W        W82240   9.723   8.194  12.899
14023W        W82241  10.189  17.097  14.604
14024W        W82242  38.028   6.635   3.209
14025W        W82243   8.132  20.007   0.945
14026W        W82244   2.829  24.267   0.736
14027W        W82245  39.310  25.553   0.338
14028W        W82246   4.716  40.367  14.252
14029W        W82247   9.282  28.399  12.122
14030W        W82248  39.377   8.472  13.472
14031W        W82249  30.277   2.959  11.434
14032W        W82250  15.519  26.407  14.446
14033W        W82251  32.967  18.774  13.781
14034W        W82252  29.993  32.810   4.108
14035W        W82253  12.183  12.192   1.440
14036W        W82254   1.514  32.852  10.658
14037W        W82255  40.033  35.264  14.898
14038W        W82256  20.772  22.544  14.441
14039W        W82257  39.558  29.579  14.770
14040W        W82258  31.404  17.359  11.940
14041W        W82259  10.602  37.175  12.705
14042W        W82260  13.297  33.842  14.774
14043W        W82261  13.064  13.001  11.607
14044W        W82262  20.170  18.154  12.096
14045W        W82263   0.974  29.199  12.023
14046W        W82264   4.323  14.587   0.715
14047W        W82265  34.303  20.597  13.287
14048W        W82266   6.637   7.613  12.476
14049W        W82267  17.082   4.805  12.979
14050W        W82268  25.524  34.888   4.500
14051W        W82269  12.381   2.382  12.551
14052W        W82270   3.270  19.563  10.963
14053W        W82271  22.353  22.807  10.698
14054W        W82272  25.267  42.988   2.323
14055W        W82273  42.419  20.709   2.650
14056W        W82274  37.327  23.729   1.891
14057W        W82275   4.137  23.631  11.077
14058W        W82276  12.173  36.084  12.964
14059W        W82277  13.111  19.309   2.909
14060W        W82278  37.239  28.527   3.468
14061W        W82279  10.750  31.635  11.208
14062W        W82280  39.436   6.958  14.962
14063W        W82281  36.524  24.025  12.479
14064W        W82282   9.846  38.319   1.816
14065W        W82283  13.085  40.017   1.658
14066W        W82284  26.658  13.786   1.759
14067W        W82285  12.199   8.630   2.752
14068W        W82286  20.458  28.128   2.131
14069W        W82287  37.920  31.101   0.471
14070W        W82288  15.325  17.493  12.062
14071W        W82289  13.635   5.496  13.471
14072W        W82290  44.712  16.704  13.168
14073W        W82291   6.298  33.630   0.955
14074W        W82292  36.022  42.526   1.882
14075W        W82293  36.884  16.330  10.647
14076W        W82294  16.063  35.420  13.354
14077W        W82295  11.771  10.773  11.174
14078W        W82296   0.850  17.564   2.176
14079W        W82297  41.852   0.329   0.851
14080W        W82298  12.136   6.199   2.657
14081W        W82299  44.953  39.572  14.978
14082W        W82300  27.848  39.471   2.367
14083W        W82301  26.374  40.458   4.648
14084W        W82302  24.116   8.900  14.911
14085W        W82303  30.400  20.697   2.698
14086W        W82304  31.854  42.017  11.587
14087W        W82305  40.463  37.518   0.505
14088W        W82306   2.775   2.488   0.572
14089W        W82307  31.407  13.167   1.983
14090W        W82308   4.753  34.465  12.083
14091W        W82309  11.740  28.614  13.205
14092W        W82310  13.241  40.572  14.955
14093W        W82311  38.147  13.654  10.782
14094W        W82312  43.185  31.676  13.454
14095W        W82313  18.969  20.798  12.383
14096W        W82314  41.314  28.461   1.830
14097W        W82315   0.355  31.707  13.473
14098W        W82316  31.491  40.438   0.246
14099W        W82317  28.695  28.928   2.500
14100W        W82318  31.383  24.664  14.292
14101W        W82319   6.304  22.729   0.449
14102W        W82320  41.954  42.945  14.537
14103W        W82321  40.237   9.467   1.935
14104W        W82322  34.605  35.994   1.675
14105W        W82323   0.919  32.248  11.063
14106W        W82324   4.291   7.935   2.510
14107W        W82325  29.511  16.931   3.052
14108W        W82326  29.495  22.700  10.551
14109W        W82327  37.772  40.331   4.126
14110W        W82328   2.866  35.011  13.225
14111W        W82329  44.496  15.765   3.213
14112W        W82330  10.977   1.168   4.650
14113W        W82331   1.170   2.305  11.183
14114W        W82332  16.562  35.930   3.813
14115W        W82333  14.815  42.285  11.209
14116W        W82334   6.554  25.799  14.543
14117W        W82335  23.851  44.596   4.039
14118W        W82336  29.649  28.125  11.630
14119W        W82337  13.242  10.806   2.141
14120W        W82338  19.299   0.566   0.485
14121W        W82339  28.890  20.572   0.904
14122W        W82340   1.949  40.763  11.151
14123W        W82341  42.254  18.091  13.149
14124W        W82342  29.849  37.657   2.207
14125W        W82343  28.038  26.023  14.574
14126W        W82344   5.060   7.119   2.774
14127W        W82345  21.702  28.741   4.715
14128W        W82346   4.629   2.070  12.989
14129W        W82347  43.070  25.398   3.834
14130W        W82348  15.733  25.005   4.826
14131W        W82349  38.940  20.943  13.468
14132W        W82350  18.268  22.038   3.668
14133W        W82351   1.457  19.626   1.763
14134W        W82352  15.355  22.749   1.257
14135W        W82353  33.113  14.629   2.243
14136W        W82354  43.353  12.704   0.660
14137W        W82355  21.661  17.791   4.571
14138W        W82356  31.992  41.436  10.581
14139W        W82357  20.672  42.914  13.302
14140W        W82358  43.016  28.512  14.945
14141W        W82359  25.719  26.080   0.077
14142W        W82360  26.588  29.441   0.711
14143W        W82361  23.073  24.994  10.787
14144W        W82362  33.007  30.030   3.621
14145W        W82363  27.576  14.088   3.227
14146W        W82364   7.729  41.630   1.677
14147W        W82365  21.865  44.248   0.860
14148W        W82366  43.217   8.644  12.573
14149W        W82367  27.975  17.784  12.951
14150W        W82368  36.614  11.155   1.248
14151W        W82369   7.287  38.950  12.090
14152W        W82370  43.481  37.606  11.938
14153W        W82371  35.077  16.169  13.975
14154W        W82372  39.005  10.181   3.644
14155W        W82373  20.984  25.254   1.694
14156W        W82374  29.742  18.317   2.650
14157W        W82375   5.834  13.685  11.071
14158W        W82376  13.562  30.195   1.909
14159W        W82377  38.309  13.215   4.201
14160W        W82378  26.442  39.907  14.895
14161W        W82379   3.281  28.163   2.391
14162W        W82380  14.660   4.388  14.348
14163W        W82381  16.174  44.845  13.598
14164W        W82382  44.549  35.590  12.901
14165W        W82383  20.223   8.588  13.337
14166W        W82384  13.331  24.814   1.269
14167W        W82385  40.995  20.997   3.704
14168W        W82386   9.075  25.544  10.613
14169W        W82387  15.374  43.499  11.633
14170W        W82388  20.473  40.855  13.788
14171W        W82389  28.943  32.872  12.797
14172W        W82390  11.377   5.403   3.417
14173W        W82391   5.269  14.501  13.320
14174W        W82392   2.433  38.628  12.904
14175W        W82393  24.118  41.738  12.712
14176W        W82394  34.440  33.002  14.780
14177W        W82395  40.864   3.192   1.287
14178W        W82396  12.044  34.472   4.091
14179W        W82397  34.901  37.437   4.611
14180W        W82398  40.347  18.278  13.085
14181W        W82399  16.302  15.658   3.413
14182W        W82400  27.671   1.912  13.886
14183W        W82401  27.133  21.076   9.866
14184W        W82402   6.716   7.014  14.780
14185W        W82403  10.773  39.966  13.930
14186W        W82404   2.978  39.479   1.162
14187W        W82405  12.398  42.813   0.008
14188W        W82406  26.211  22.628   0.680
14189W        W82407   7.834  44.376   9.950
14190W        W82408  25.445   0.381   4.002
14191W        W82409  31.080  37.683  14.680
14192W        W82410  11.338  33.097  13.883
14193W        W82411  18.239   8.371  11.365
14194W        W82412  35.807  17.965   2.332
14195W        W82413  23.426  14.862   2.719
14196W        W82414  27.155  35.681  10.342
14197W        W82415  30.890  32.048  12.826
14198W        W82416  15.971  22.714  12.169
14199W        W82417  19.065   2.834   2.825
14200W        W82418  43.031  19.285   4.525
14201W        W82419  33.124   6.874   2.318
14202W        W82420  39.756  18.237  12.385
14203W        W82421  32.060   0.296  13.933
14204W        W82422  13.381  42.142  11.983
14205W        W82423   2.937   6.046   1.474
14206W        W82424  17.666   7.012  12.511
14207W        W82425  43.874  12.719  11.880
14208W        W82426  15.593  15.894   2.300
14209W        W82427  33.461  35.028   2.343
14210W        W82428  21.408   3.709  11.081
14211W        W82429  17.775  15.293  11.227
14212W        W82430  41.765  32.868   4.178
14213W        W82431  14.403   6.873  13.380
14214W        W82432  20.435  43.429   0.541
14215W        W82433  29.796  28.209   4.157
14216W        W82434  36.050  10.331   4.586
14217W        W82435   9.332  32.214   0.015
14218W        W82436   1.472  18.171   4.321
14219W        W82437  40.950   4.777   4.641
14220W        W82438  24.908   3.727  11.726
14221W        W82439  15.562  31.422  10.794
14222W        W82440   8.042  19.849  10.113
14223W        W82441  32.441  15.353   0.215
14224W        W82442   2.541   1.522   3.705
14225W        W82443  17.514  35.971  10.298
14226W        W82444  42.366  20.354  14.780
14227W        W82445  17.049  13.695   0.952
14228W        W82446  14.706  11.104  13.931
14229W        W82447  44.922  11.408  11.038
14230W        W82448  33.844  27.584  12.073
14231W        W82449   5.450  43.533   3.764
14232W        W82450  39.909  24.691   3.988
14233W        W82451   3.474  20.078   1.827
14234W        W82452  31.151  42.434  11.192
14235W        W82453  22.693  36.840  11.356
14236W        W82454  26.316  34.989  14.468
14237W        W82455   1.221   4.929  12.654
14238W        W82456  28.001  38.065  11.480
14239W        W82457  23.143  38.593  14.784
14240W        W82458   8.064  18.662   3.207
14241W        W82459  36.119   8.603  14.798
14242W        W82460  39.210  26.281   3.285
14243W        W82461  26.153  43.101   1.213
14244W        W82462   9.808  38.891   4.834
14245W        W82463  32.494  24.496   4.413
14246W        W82464  43.209  13.825   1.346
14247W        W82465  10.356  17.594  12.876
14248W        W82466   1.293   6.386  14.312
14249W        W82467  39.788  12.283   3.707
14250W        W82468  35.340  17.786   0.844
14251W        W82469  29.816  14.443   1.355
14252W        W82470  42.793  13.256  11.499
14253W        W82471  23.983  20.442   0.305
14254W        W82472  21.314  37.999  11.954
14255W        W82473  33.492  20.592  10.450
14256W        W82474  14.883   4.337  12.080
14257W        W82475  24.647  32.143   4.724
14258W        W82476   9.339  25.598  12.383
14259W        W82477  38.476  44.208   0.971
14260W        W82478  20.592  32.503  13.951
14261W        W82479  36.122  29.489  11.594
14262W        W82480  25.394  28.599  14.274
14263W        W82481  33.020  30.164   1.671
14264W        W82482  26.642  27.912   1.017
14265W        W82483  38.435   0.498  12.121
14266W        W82484  24.020  43.045   1.394
14267W        W82485  23.728  27.060   2.904
14268W        W82486  32.686  13.719  11.944
14269W        W82487  11.270  13.165   3.138
14270W        W82488  38.051  40.404  14.511
14271W        W82489  23.208  10.058   2.728
14272W        W82490  31.351  24.167  11.521
14273W        W82491   7.632  43.246   1.783
14274W        W82492  38.512  35.552   4.580
14275W        W82493  36.913   9.861   2.183
14276W        W82494  37.204  44.682   1.028
14277W        W82495  41.812  18.946   0.957
14278W        W82496  42.982  33.974   0.237
14279W        W82497  41.128   4.154  14.886
14280W        W82498  44.441  15.732  12.617
14281W        W82499  35.491   9.238  14.130
14282W        W82500  43.973  26.387   0.177
14283W        W82501   9.945  43.776   2.737
14284W        W82502  28.160  37.451  11.465
14285W        W82503  36.553  22.710  11.300
14286W        W82504  11.387  32.193  14.533
14287W        W82505  16.237  37.278  14.808
14288W        W82506  17.735  19.665  14.835
14289W        W82507  41.294   5.435  11.103
14290W        W82508  18.387  14.668  11.083
14291W        W82509  27.989  14.597  11.588
14292W        W82510  38.477  40.040  11.682
14293W        W82511  44.910  25.085  13.891
14294W        W82512  38.881   4.913  11.833
14295W        W82513  34.458  11.347  14.625
14296W        W82514   3.210  14.134  14.008
14297W        W82515   9.053  10.873  11.912
14298W        W82516  24.733  37.482  10.431
14299W        W82517  40.811  20.235  11.561
14300W        W82518  30.468  35.526   4.553
14301W        W82519  12.460   4.550   0.526
14302W        W82520  33.092   9.633   0.232
14303W        W82521  11.697  32.824  13.547
14304W        W82522  25.028  34.643   2.882
14305W        W82523  13.221  33.048   2.747
14306W        W82524  29.166  19.309  14.976
14307W        W82525  25.322  12.192  12.904
14308W        W82526  19.857   1.819  12.260
14309W        W82527   8.714   7.147  11.571
14310W        W82528  21.920  41.852  14.669
14311W        W82529  27.616  33.076  11.957
14312W        W82530   1.864  35.386  10.818
14313W        W82531  33.124  36.517   2.364
14314W        W82532  29.185  37.171   2.376
14315W        W82533  10.181   8.652  14.364
14316W        W82534   2.508  30.000   0.983
14317W        W82535   0.423  26.927  12.951
14318W        W82536  16.211   2.392   4.622
14319W        W82537  20.714  23.793   4.937
14320W        W82538  22.491  21.606  10.560
14321W        W82539  16.626  36.133  13.362
14322W        W82540  27.024   5.053   2.714
14323W        W82541  16.527  40.962  13.857
14324W        W82542  26.779   0.227  14.165
14325W        W82543   5.354  18.335  12.057
14326W        W82544  39.837  33.343   4.099
14327W        W82545   3.366  23.031  13.912
14328W        W82546  17.364  36.092  13.032
14329W        W82547   8.439  14.515  12.076
14330W        W82548   3.404   1.706   2.710
14331W        W82549  16.752  12.414   0.338
14332W        W82550  11.689   8.582  13.866
14333W        W82551  23.139  42.999  13.460
14334W        W82552  23.760  43.101   5.177
14335W        W82553  19.202  29.043  13.701
14336W        W82554  31.011  24.470   0.199
14337W        W82555  22.136  11.197  14.299
14338W        W82556  21.777  19.100  11.132
14339W        W82557   5.343   9.122  13.510
14340W        W82558  20.216  10.144  13.522
14341W        W82559  43.838  26.438  11.663
14342W        W82560  31.668  17.163  13.603
14343W        W82561  31.559  32.727  14.100
14344W        W82562  22.440  17.078   4.968
14345W        W82563   4.977  15.271   4.148
14346W        W82564  12.719  37.553  14.262
14347W        W82565  26.168   1.444   0.907
14348W        W82566  32.764  23.758   0.792
14349W        W82567  24.169  15.246  10.924
14350W        W82568  21.653   4.869  12.857
14351W        W82569   1.647   2.946  11.921
14352W        W82570   3.262  17.034  13.547
14353W        W82571  32.460  24.982   4.583
14354W        W82572  10.990  36.937  11.069
14355W        W82573  31.979  32.313   0.772
14356W        W82574  23.049  16.218   3.614
14357W        W82575  33.499  44.172   4.415
14358W        W82576  17.206  22.502  11.604
14359W        W82577  42.743  13.261   1.697
14360W        W82578  26.554   3.279   2.163
14361W        W82579  37.770  25.447  12.619
14362W        W82580  11.041  10.272  11.003
14363W        W82581  17.145  34.092   2.351
14364W        W82582  13.167  34.415  10.692
14365W        W82583  39.409  15.532  10.698
14366W        W82584  25.494  10.834  14.947
14367W        W82585  17.899   7.737  14.255
14368W        W82586  19.736  33.671   1.738
14369W        W82587  17.261   0.434  12.944
14370W        W82588   8.908  29.985   1.829
14371W        W82589  31.605   0.580  11.062
14372W        W82590  23.245  34.093   1.723
14373W        W82591  18.580   4.570   0.484
14374W        W82592   5.466   6.171  10.667
14375W        W82593  22.718  38.150  13.277
14376W        W82594  28.899  43.298  14.419
14377W        W82595  26.924  33.352   0.193
14378W        W82596  32.023  14.152  12.350
14379W        W82597  37.312  24.501  12.457
14380W        W82598   2.676  34.854   5.020
14381W        W82599  43.507   5.898   1.360
14382W        W82600   5.408   8.830   0.275
14383W        W82601  30.643  22.578  12.975
14384W        W82602  41.403  23.174   2.330
14385W        W82603  40.354  15.882  13.783
14386W        W82604  37.674   0.535  12.631
14387W        W82605  25.357   3.764  13.928
14388W        W82606  14.986   8.489   2.729
14389W        W82607  24.344  41.412   3.019
14390W        W82608  14.438  38.659  13.316
14391W        W82609  23.744   5.785   1.405
14392W        W82610  15.512   5.584   4.601
14393W        W82611  39.942   3.633  13.833
14394W        W82612  11.658  22.745   1.751
14395W        W82613  21.109  18.596  14.193
14396W        W82614  32.429  20.597  13.475
14397W        W82615   9.130  18.749   1.533
14398W        W82616   9.221  31.974  10.232
14399W        W82617  30.089  36.691   1.394
14400W        W82618  37.614  26.225   3.817
14401W        W82619  29.272   0.393   4.683
14402W        W82620  25.719  21.639   0.504
14403W        W82621  44.652  17.601  13.028
14404W        W82622   1.099  23.687   0.809
14405W        W82623  20.249  12.326  10.164
14406W        W82624  42.789  30.056   3.616
14407W        W82625  27.531  39.123  13.269
14408W        W82626  12.833   2.940  11.196
14409W        W82627  28.393  19.509  14.009
14410W        W82628  11.725   1.463   1.175
14411W        W82629  33.497  21.533   4.641
14412W        W82630  18.619  30.037   3.876
14413W        W82631   3.284  16.802   2.397
14414W        W82632   3.943  34.295   2.667
14415W        W82633  42.552  21.570   0.297
14416W        W82634  31.154  32.770  13.314
14417W        W82635  42.309  21.723  11.971
14418W        W82636   9.259  31.932  11.759
14419W        W82637  34.127  38.935  13.016
14420W        W82638  18.293  34.965   0.224
14421W        W82639  28.390  23.505   2.160
14422W        W82640   9.807  11.505   3.230
14423W        W82641   1.817   1.941  12.033
14424W        W82642  30.483  12.619   4.415
14425W        W82643  22.022   6.507  13.391
14426W        W82644  30.933  28.886  14.987
14427W        W82645  17.089   0.382   1.184
14428W        W82646   1.383  40.164  10.662
14429W        W82647  42.988   1.500  13.267
14430W        W82648  28.400  44.880   2.282
14431W        W82649  20.486  10.238  10.986
14432W        W82650  12.939  20.472   2.269
14433W        W82651   8.181   0.035   2.984
14434W        W82652  34.157  12.380  14.894
14435W        W82653   2.436  43.273   0.038
14436W        W82654  42.496  13.669  11.808
14437W        W82655  38.815  17.671  13.339
14438W        W82656  18.329  21.612  13.297
14439W        W82657  20.018  22.279   3.925
14440W        W82658   2.848  30.647   3.646
14441W        W82659   7.493  37.009  13.489
14442W        W82660  33.027   2.223   0.540
14443W        W82661  15.758   4.325  12.304
14444W        W82662   2.274  32.427   5.123
14445W        W82663  11.775  17.619   4.983
14446W        W82664  18.740   0.674   1.938
14447W        W82665  11.641  24.626   0.341
14448W        W82666  43.570  25.210  11.026
14449W        W82667  31.848   5.464   4.088
14450W        W82668  21.313  37.549   4.046
14451W        W82669  34.742  22.677  14.015
14452W        W82670  13.141  29.674  10.769
14453W        W82671  39.776  12.556  14.634
14454W        W82672  26.675  21.019   1.860
14455W        W82673  12.554  19.391  12.099
14456W        W82674  22.704  16.919   4.123
14457W        W82675  38.547   4.034   4.562
14458W        W82676  24.097  33.524  12.321
14459W        W82677  32.781  35.866   1.416
14460W        W82678  27.032  18.275  11.661
14461W        W82679  31.738  15.546   4.143
14462W        W82680   2.518  36.845  12.484
14463W        W82681  29.694  26.183  10.568
14464W        W82682  31.475  34.962   4.182
14465W        W82683   7.776  24.406   3.674
14466W        W82684  37.086  15.084  12.775
14467W        W82685  18.591  24.508  13.138
14468W        W82686  34.471  10.165  13.523
14469W        W82687  43.001  43.741   4.239
14470W        W82688  19.184  27.707  11.635
14471W        W82689  15.760  24.951   4.269
14472W        W82690   5.455  16.388  11.490
14473W        W82691   9.245  13.374  12.941
14474W        W82692  12.685   3.297  12.099
14475W        W82693  29.818  13.040   2.769
14476W        W82694  17.796   3.565  13.057
14477W        W82695  21.002  29.548   0.691
14478W        W82696   3.012  27.190  11.470
14479W        W82697   4.113  42.490   0.923
14480W        W82698  28.361  39.533   1.755
14481W        W82699  40.787  43.649   3.483
14482W        W82700  11.105   6.211   2.835
14483W        W82701  32.349  27.444   1.103
14484W        W82702  35.893  11.288   4.160
14485W        W82703  22.132  17.691   2.753
14486W        W82704  23.738  11.343   4.194
14487W        W82705  16.837  20.715   0.848
14488W        W82706  14.289  22.470  11.327
14489W        W82707   0.762  18.282  14.256
14490W        W82708  32.999  31.549   4.034
14491W        W82709   0.013  15.736   3.158
14492W        W82710  44.751  18.746   0.832
14493W        W82711  21.746  39.841  14.368
14494W        W82712   9.647  42.921  12.614
14495W        W82713  18.255  36.002  13.866
14496W        W82714   2.862  40.098   3.684
14497W        W82715   0.929  25.884   3.600
14498W        W82716   7.729  24.727  11.632
14499W        W82717   4.836  27.978   1.243
14500W        W82718   9.419   7.882  12.182
14501W        W82719  10.681  26.403  11.515
14502W        W82720  37.528  11.072   0.846
14503W        W82721  33.643  24.965  12.910
14504W        W82722  33.386  18.318   4.107
14505W        W82723  15.764  25.486   3.050
14506W        W82724  39.567  15.705  12.539
14507W        W82725   4.900  15.770   0.668
14508W        W82726  17.678  40.621   3.630
14509W        W82727  12.872  20.795  13.888
14510W        W82728  41.097  44.961  14.507
14511W        W82729  30.872  25.753  12.222
14512W        W82730  28.650   1.835   2.910
14513W        W82731  24.894  10.843   1.872
14514W        W82732  28.339  28.164   4.303
14515W        W82733  43.481   6.795   2.979
14516W        W82734  13.006  38.423   4.261
14517W        W82735  16.534  42.750   0.566
14518W        W82736  31.823  31.470   2.682
14519W        W82737   7.789  41.789  11.004
14520W        W82738  27.352  43.592  11.283
14521W        W82739  26.155  21.666  12.918
14522W        W82740   3.988  40.884   4.982
14523W        W82741  32.349   8.845  11.168
14524W        W82742  43.112   8.831   1.758
14525W        W82743  38.850  31.112  10.092
14526W        W82744   4.606  12.176  11.835
14527W        W82745  29.594  31.430   1.431
14528W        W82746   1.464  15.153   0.850
14529W        W82747  25.199   0.536  13.473
14530W        W82748   1.759  24.092  14.460
14531W        W82749  25.328  25.506   4.021
14532W        W82750  33.737  39.504   0.911
14533W        W82751  35.174  19.819   2.802
14534W        W82752   2.180  20.842  13.083
14535W        W82753  34.974  32.959   3.648
14536W        W82754  27.981  16.781  14.069
14537W        W82755  27.397   6.994  14.698
14538W        W82756   3.825  37.431   4.067
14539W        W82757  44.400   2.744   0.741
14540W        W82758  30.524   3.024  10.087
14541W        W82759  43.341  40.225   0.788
14542W        W82760  33.352  33.927  10.423
14543W        W82761   3.324   4.308   3.565
14544W        W82762  41.377   7.199  13.189
14545W        W82763   9.126   4.894  12.547
14546W        W82764  19.146  39.095   0.387
14547W        W82765   8.962  43.263  14.376
14548W        W82766  32.601   1.404   4.120
14549W        W82767  18.197   3.643   3.387
14550W        W82768  27.068   4.541   2.780
14551W        W82769  15.206  16.547   4.890
14552W        W82770  14.526  28.612   0.319
14553W        W82771   0.854  39.106   2.819
14554W        W82772  39.962  32.732  11.417
14555W        W82773  31.390  17.390   2.868
14556W        W82774  42.518  33.842  14.922
14557W        W82775   7.410  38.356   2.761
14558W        W82776  43.509   5.848  14.935
14559W        W82777  36.510  42.372  14.967
14560W        W82778  32.785  22.202  12.099
14561W        W82779  17.340  25.402  12.567
14562W        W82780  41.362  18.546   3.266
14563W        W82781  26.846  15.883  12.464
14564W        W82782  16.154  29.469   1.803
14565W        W82783  11.209  15.549  14.315
14566W        W82784  44.515  19.236  11.996
14567W        W82785   6.743  27.199  13.936
14568W        W82786  18.257  33.533   0.309
14569W        W82787  33.980   3.510  11.267
14570W        W82788   1.328  13.684   1.158
14571W        W82789  39.842  23.299  12.963
14572W        W82790   0.499  20.671  10.864
14573W        W82791  14.581  20.841  13.608
14574W        W82792   0.430  25.984   1.413
14575W        W82793  13.781  41.923  10.112
14576W        W82794  17.249   1.553  14.902
14577W        W82795  20.669  42.202   2.472
14578W        W82796   6.214  40.592   0.455
14579W        W82797  20.676   5.812   3.667
14580W        W82798  27.142  20.533  12.799
14581W        W82799  13.835  22.431  11.594
14582W        W82800  15.413  30.405  10.940
14583W        W82801  43.466  34.949   0.813
14584W        W82802   2.362  41.328   2.149
14585W        W82803   1.493  27.097  11.653
14586W        W82804  19.998   9.190   4.631
14587W        W82805  26.468  35.486   0.969
14588W        W82806  10.793  16.075   4.720
14589W        W82807   4.623  34.851   4.197
14590W        W82808  44.575  22.215  13.816
14591W        W82809   8.573  16.979  11.171
14592W        W82810  36.321  35.936   5.040
14593W        W82811  14.865  12.770  10.846
14594W        W82812  23.502   9.157  11.123
14595W        W82813   5.669  39.544   0.518
14596W        W82814  18.481  42.422  12.841
14597W        W82815  32.994  28.237  12.167
14598W        W82816  26.179   4.370  10.619
14599W        W82817  14.612  35.646   2.709
14600W        W82818  15.144  16.313  14.481
14601W        W82819  18.796   0.681  14.041
14602W        W82820  37.555  12.168  11.625
14603W        W82821  30.589  22.286  11.489
14604W        W82822  31.453  10.662  11.661
14605W        W82823   6.647  44.360   0.733
14606W        W82824  15.602   5.581   0.023
14607W        W82825  26.882  34.931  11.673
14608W        W82826  18.737  31.485  10.620
14609W        W82827  33.820   0.648  13.574
14610W        W82828  30.712  36.564   2.809
14611W        W82829  17.955  39.155   3.987
14612W        W82830  42.726   2.824  11.294
14613W        W82831  41.959   3.227  13.937
14614W        W82832   4.895  19.860  12.086
14615W        W82833  16.886  19.807  12.627
14616W        W82834  44.397   5.649   0.303
14617W        W82835  42.029   3.853  14.422
14618W        W82836  24.060  25.659  12.014
14619W        W82837   5.305  13.454  14.011
14620W        W82838  24.755  33.721   2.719
14621W        W82839  18.006  12.663  12.543
14622W        W82840  44.057   1.859   4.621
14623W        W82841  17.016  24.123  13.199
14624W        W82842  11.079  37.338  13.347
14625W        W82843  42.821  32.994   2.310
14626W        W82844  25.137  30.575  10.960
14627W        W82845  12.589  21.785  14.088
14628W        W82846  27.313   3.695   3.738
14629W        W82847  18.561  26.906   3.176
14630W        W82848  23.522  25.798   1.854
14631W        W82849  43.003  33.581  14.899
14632W        W82850  21.800  13.866  11.063
14633W        W82851  40.409  42.675   0.972
14634W        W82852  32.858   0.780   3.040
14635W        W82853   7.721  15.259  12.247
14636W        W82854  38.413  36.667   1.783
14637W        W82855  32.392  29.206  11.227
14638W        W82856  18.160  11.349   0.210
14639W        W82857  15.642  27.585  11.076
14640W        W82858  31.717   0.375   1.705
14641W        W82859  43.486  29.102   2.960
14642W        W82860  30.597  16.110  14.332
14643W        W82861  20.603  35.555   1.906
14644W        W82862   1.491  25.832   2.269
14645W        W82863   8.596  15.090   4.558
14646W        W82864  30.908  11.465  11.449
14647W        W82865  18.289  39.993   1.072
14648W        W82866  36.330  10.725  12.859
14649W        W82867   8.814  32.864  13.266
14650W        W82868  31.145  16.203   4.983
14651W        W82869  12.463  19.829  10.975
14652W        W82870  12.302   9.159   4.526
14653W        W82871  29.722  25.933   1.283
14654W        W82872  31.890   8.600  11.174
14655W        W82873  41.632   8.963   1.685
14656W        W82874  19.328  14.057   0.935
14657W        W82875  44.989   7.874  13.017
14658W        W82876  11.227  33.786   2.600
14659W        W82877   0.839   2.400  14.462
14660W        W82878  29.486  44.015   4.342
14661W        W82879  43.415   3.952  10.730
14662W        W82880   6.585  30.481  14.029
14663W        W82881  28.919  29.453  14.913
14664W        W82882  34.528  30.927  13.849
14665W        W82883   3.474  20.756  14.414
14666W        W82884   0.860  19.726   0.899
14667W        W82885  17.736   9.841  14.595
14668W        W82886  23.926  44.924   2.904
14669W        W82887  15.604  11.721   3.588
14670W        W82888  24.955  30.479  12.787
14671W        W82889  17.912   7.378   4.037
14672W        W82890  39.823  35.605  10.992
14673W        W82891  32.380   2.397  11.429
14674W        W82892   3.820  22.782  11.153
14675W        W82893   1.643  26.571  11.928
14676W        W82894   1.954  30.478   0.178
14677W        W82895   5.142   2.450  11.209
14678W        W82896  43.931  38.992  14.568
14679W        W82897  27.744  11.371   3.699
14680W        W82898  23.668  39.760  11.331
14681W        W82899  20.379  40.083   0.710
14682W        W82900  11.137  11.366   1.503
14683W        W82901  16.677   3.769  11.617
14684W        W82902   5.783  36.917   1.753
14685W        W82903  37.648  34.127   0.502
14686W        W82904  30.052  28.184   0.857
14687W        W82905  23.678  25.621   0.045
14688W        W82906  19.084   6.847   1.139
14689W        W82907  28.004  24.132  13.876
14690W        W82908   1.272   0.918   0.890
14691W        W82909   2.796  27.562   2.948
14692W        W82910  23.772   5.472   0.019
14693W        W82911  15.908   3.318   4.227
14694W        W82912  21.138  29.289   2.409
14695W        W82913  23.580   4.989   3.688
14696W        W82914  12.562   6.680  14.796
14697W        W82915  42.280  39.858  13.432
14698W        W82916  18.860  28.185   2.937
14699W        W82917  43.213   8.854  11.588
14700W        W82918   9.182  36.933   2.200
14701W        W82919  20.524  44.188   0.219
14702W        W82920  27.079   9.473   1.311
14703W        W82921   3.908  37.178  14.485
14704W        W82922  13.482  39.369  10.662
14705W        W82923  19.996  14.805  14.597
14706W        W82924  16.123  41.508  14.418
14707W        W82925  36.761  15.276  13.647
14708W        W82926   1.470  42.939  13.039
14709W        W82927  42.416  25.697  11.582
14710W        W82928  18.994   0.053  12.649
14711W        W82929  26.665  43.391  12.081
14712W        W82930  43.429   3.353   3.166
14713W        W82931  44.015  36.010   3.323
14714W        W82932  24.104  21.749   0.676
14715W        W82933   5.543  29.894  14.392
14716W        W82934   7.980  17.644   3.747
14717W        W82935  11.309  38.843   2.126
14718W        W82936   4.492  15.227  12.380
14719W        W82937  23.038  38.857   0.220
14720W        W82938  41.893  35.547   0.024
14721W        W82939  37.830  26.799   4.636
14722W        W82940  27.595  18.499   5.134
14723W        W82941   2.697  36.951   2.997
14724W        W82942  16.894  15.246   3.220
14725W        W82943   6.923   6.437  11.074
14726W        W82944  44.757  42.400   1.671
14727W        W82945   1.759  42.365  14.342
14728W        W82946   2.740  19.670   2.639
14729W        W82947  27.226  29.067   4.005
14730W        W82948  20.817  21.983  14.884
14731W        W82949  28.241  29.074   2.234
14732W        W82950  28.595  15.644  14.487
14733W        W82951  19.254  23.217  12.824
14734W        W82952  11.260  24.643  12.190
14735W        W82953  43.727  16.557  14.863
14736W        W82954  17.523  34.991   2.884
14737W        W82955  24.291  41.412   4.373
14738W        W82956  11.399  27.669   2.243
14739W        W82957  38.835   0.751  13.904
14740W        W82958  27.299  33.153  12.414
14741W        W82959  43.834  16.517  14.108
14742W        W82960  26.145  44.437  10.669
14743W        W82961   2.177  16.505   4.125
14744W        W82962  37.406  10.626   3.175
14745W        W82963  21.633  32.128   9.686
14746W        W82964  39.420  31.080   0.660
14747W        W82965  15.044  39.069   2.786
14748W        W82966  34.036  25.506   1.475
14749W        W82967  38.130  31.084   1.491
14750W        W82968  24.857  27.605  11.643
14751W        W82969  34.084   2.743  12.990
14752W        W82970  29.483   4.215  14.278
14753W        W82971  11.705  10.144   0.079
14754W        W82972  21.011   7.835  11.928
14755W        W82973  23.085  40.725  13.130
14756W        W82974  36.296  16.666   4.574
14757W        W82975  10.785  10.364   4.916
14758W        W82976  41.823   3.853  11.955
14759W        W82977   3.764  36.351  10.641
14760W        W82978  37.081  25.313  14.767
14761W        W82979  18.165  20.600  11.181
14762W        W82980  29.263  32.641   3.701
14763W        W82981  22.486  37.638   4.973
14764W        W82982  21.321  11.288  12.473
14765W        W82983  35.115  23.747   2.300
14766W        W82984   6.386   9.909   0.128
14767W        W82985  27.508  42.992  14.100
14768W        W82986  44.278  29.523  13.514
14769W        W82987   0.968   8.864   0.782
14770W        W82988  32.588  43.055   3.265
14771W        W82989  18.637  20.727  14.771
14772W        W82990  35.687  26.501  11.185
14773W        W82991  23.985  31.531  10.703
14774W        W82992  11.740   1.732   4.524
14775W        W82993  30.632   0.259   3.340
14776W        W82994  44.737  44.282   2.298
14777W        W82995  44.958  38.501  14.689
14778W        W82996   0.379  36.764  14.488
14779W        W82997  19.661  21.715   4.529
14780W        W82998  26.654  33.747  10.672
14781W        W82999  38.389  14.368   3.547
14782W        W83000   8.426  15.851   9.761
14783W        W83001  29.230  19.566  13.696
14784W        W83002  11.248  35.736   0.545
14785W        W83003  20.770  23.184  13.841
14786W        W83004  16.617  22.077   3.016
14787W        W83005  37.231  18.302   4.010
14788W        W83006   5.198  30.584  11.965
14789W        W83007   9.390  44.931   2.782
14790W        W83008   4.253  10.208   2.672
14791W        W83009  22.519  30.284   5.029
14792W        W83010  36.535   1.443  10.611
14793W        W83011  34.447  27.576   3.987
14794W        W83012   7.372  19.857   2.272
14795W        W83013   8.790   1.420  12.328
14796W        W83014  41.924  21.655   1.263
14797W        W83015   3.170  23.393  11.544
14798W        W83016  12.766   9.834  14.321
14799W        W83017  25.655  42.652  11.637
14800W        W83018  22.861  43.005  11.085
14801W        W83019  39.379  19.790  11.437
14802W        W83020  17.663   8.721   4.196
14803W        W83021   3.985  10.362   3.190
14804W        W83022  26.952  12.026  11.560
14805W        W83023  35.172  32.493   3.578
14806W        W83024   5.679  35.990  12.413
14807W        W83025  17.777  21.814   0.331
14808W        W83026  29.137  43.361   2.685
14809W        W83027  10.407  12.284   0.242
14810W        W83028  26.644  20.604  10.947
14811W        W83029   1.364  22.920  13.593
14812W        W83030  22.465  17.888   3.857
14813W        W83031  18.331   2.855  14.392
14814W        W83032  36.402  26.129  14.275
14815W        W83033  13.091  27.535   3.624
14816W        W83034  39.337  44.810  11.962
14817W        W83035   5.219  39.448   1.424
14818W        W83036  20.966  38.882  11.485
14819W        W83037  23.811  25.198  11.991
14820W        W83038  43.835  14.850  13.590
14821W        W83039  23.763   7.171   4.199
14822W        W83040  33.152  42.029  13.393
14823W        W83041  19.018  20.743   4.036
14824W        W83042  44.184  33.157  14.836
14825W        W83043   7.808  21.267   9.905
14826W        W83044  16.007  16.219   9.854
14827W        W83045   4.883  25.897  14.885
14828W        W83046  23.216  35.344   5.473
14829W        W83047  36.928  42.516   0.230
14830W        W83048  15.021   9.797   3.722
14831W        W83049   6.230   2.958   3.322
14832W        W83050  43.969  25.607  12.925
14833W        W83051  34.389  17.363   2.786
14834W        W83052  22.390   8.520   3.694
14835W        W83053  28.787  23.931  14.288
14836W        W83054  23.460  25.031  11.659
14837W        W83055   2.415  40.746  12.155
14838W        W83056  36.503   3.951   1.718
14839W        W83057  21.616  18.012  11.109
14840W        W83058  22.824  35.407  11.253
14841W        W83059  31.086   5.158   3.199
14842W        W83060  32.409  32.697   2.746
14843W        W83061  15.668   5.206   3.655
14844W        W83062  20.476  23.387  14.636
14845W        W83063  36.004  36.943  14.044
14846W        W83064   8.715  26.514   3.568
14847W        W83065  44.911   2.737   3.326
14848W        W83066  37.020  17.106   2.492
14849W        W83067   5.929  41.858  11.956
14850W        W83068  21.810  41.371  14.903
14851W        W83069  13.555  12.859  13.433
14852W        W83070  29.590  28.477  14.618
14853W        W83071  36.018  32.558   4.106
14854W        W83072   8.475  17.246   0.457
14855W        W83073  30.116  36.108  12.637
14856W        W83074  44.282  15.796  10.296
14857W        W83075   3.263  34.532  11.515
14858W        W83076  32.307  33.328   2.346
14859W        W83077  19.267   1.693   3.279
14860W        W83078  29.191  20.069  11.429
14861W        W83079  40.172  25.454   5.108
14862W        W83080  26.613  42.882  14.359
14863W        W83081  30.456  33.945  13.955
14864W        W83082  13.553  38.630  11.521
14865W        W83083  27.061  23.142  11.391
14866W        W83084  20.371  12.110  13.266
14867W        W83085  43.820   3.120  11.143
14868W        W83086  29.004  23.571  14.917
14869W        W83087   1.217  27.590  10.746
14870W        W83088  17.238   9.143   1.340
14871W        W83089   2.873  42.026   2.546
14872W        W83090  22.607  30.706   2.084
14873W        W83091   1.765  39.380  10.447
14874W        W83092  14.125  44.454   0.268
14875W        W83093  37.673  25.960  14.740
14876W        W83094  29.599  18.723   4.569
14877W        W83095   6.428  43.037   4.512
14878W        W83096   2.237  29.562   1.043
14879W        W83097  32.531   4.233  13.955
14880W        W83098  15.408   3.444   4.085
14881W        W83099  36.966  22.490   0.805
14882W        W83100   3.105  24.597   2.838
14883W        W83101  41.110  41.500  13.902
14884W        W83102   1.925   0.894   0.920
14885W        W83103  36.293  20.071  13.559
14886W        W83104   3.870  29.175   2.720
14887W        W83105   4.417  35.062  11.590
14888W        W83106  41.509   8.206   2.752
14889W        W83107  17.944  14.029  12.140
14890W        W83108  33.439   9.440  12.559
14891W        W83109  14.103  22.137   0.798
14892W        W83110  28.075  42.030  12.626
14893W        W83111   0.592   1.667  12.670
14894W        W83112  25.160  35.574  14.720
14895W        W83113  21.018  16.064  10.759
14896W        W83114   5.633  24.621  12.910
14897W        W83115  33.821  23.648   0.751
14898W        W83116  29.995   1.976  14.031
14899W        W83117  43.241  34.915  12.036
14900W        W83118  26.159   4.820   4.191
14901W        W83119  21.016  30.449  10.671
14902W        W83120  11.237  11.885   1.305
14903W        W83121  14.794  36.325   0.395
14904W        W83122  32.404  39.395   2.160
14905W        W83123  39.866  14.281   3.353
14906W        W83124  33.593  20.968   1.255
14907W        W83125  26.937  25.227   1.912
14908W        W83126  24.954  32.086  12.060
14909W        W83127  25.740  13.836   0.248
14910W        W83128  31.627  20.191  12.006
14911W        W83129  40.894   4.463  14.393
14912W        W83130  40.914  21.307  14.265
14913W        W83131  22.877  23.628   4.109
14914W        W83132   5.687   2.288   3.995
14915W        W83133  15.459  30.933   3.215
14916W        W83134  28.799  10.753  11.055
14917W        W83135  13.501  33.951  12.069
14918W        W83136  14.416  29.291   0.873
14919W        W83137  43.779  43.816   2.453
14920W        W83138  15.530   2.870   3.111
14921W        W83139  30.892   2.462   2.758
14922W        W83140   9.677  32.140   0.911
14923W        W83141   4.192   6.904  12.167
14924W        W83142  30.159   9.670   2.250
14925W        W83143  29.303  40.369   4.427
14926W        W83144  25.985  28.234   3.120
14927W        W83145  23.748  37.677  10.757
14928W        W83146  43.949  36.519   3.909
14929W        W83147  39.752  37.858   2.883
14930W        W83148  33.457  17.675  12.811
14931W        W83149  31.165  30.540  12.464
14932W        W83150  20.717  36.110  11.588
14933W        W83151   2.430  29.547   1.563
14934W        W83152  30.034  31.019  14.708
14935W        W83153  43.068  15.248   2.185
14936W        W83154   7.838  42.790  11.157
14937W        W83155  22.549  11.377   0.583
14938W        W83156  36.580   2.692   3.268
14939W        W83157  40.283  43.884  12.553
14940W        W83158  29.157  39.882  13.033
14941W        W83159  32.515  25.788   1.990
14942W        W83160  24.168  28.803   1.491
14943W        W83161  44.714  19.064  14.108
14944W        W83162   4.529  40.658  14.818
14945W        W83163   3.314  15.794  13.995
14946W        W83164   2.772   3.741   0.551
14947W        W83165  12.810   8.413   4.597
14948W        W83166  12.597   5.461  14.534
14949W        W83167  30.581  10.230   4.244
14950W        W83168  40.768  18.723   0.432
14951W        W83169  12.552  14.127   1.375
14952W        W83170  11.342  20.642  13.020
14953W        W83171  15.083  35.507   3.909
14954W        W83172   1.967  32.119  10.797
14955W        W83173  12.558  21.059   0.241
14956W        W83174  14.288  33.753   0.073
14957W        W83175  36.535  37.529   0.462
14958W        W83176  28.630  21.283   3.620
14959W        W83177  16.409  24.494  14.513
14960W        W83178  21.491  13.123   1.815
14961W        W83179  16.032  19.594   2.700
14962W        W83180  24.045  13.877  11.564
14963W        W83181  32.046  43.464  13.663
14964W        W83182  12.663   8.122  12.479
14965W        W83183   8.873  12.225   1.362
14966W        W83184  24.462  21.343   1.521
14967W        W83185  39.517  41.503  14.567
14968W        W83186  32.693  40.944  13.293
14969W        W83187  18.739  34.641   0.838
14970W        W83188  22.978  14.018  14.357
14971W        W83189  22.582  29.393   2.826
14972W        W83190   6.465  34.383  13.402
14973W        W83191  16.004  29.142  14.763
14974W        W83192  23.986  40.441  13.493
14975W        W83193   9.275  35.037   3.729
14976W        W83194   2.299  42.231  11.208
14977W        W83195   5.164  16.975   2.811
14978W        W83196  23.996  14.073  14.411
14979W        W83197  17.005   7.608  13.494
14980W        W83198  11.192  37.069   1.065
14981W        W83199  41.939  11.752   5.117
14982W        W83200  38.541  25.528  13.895
14983W        W83201  19.662  28.477   2.757
14984W        W83202   7.225  34.546   4.604
14985W        W83203  15.045  38.729   2.395
14986W        W83204  36.664  25.647  11.582
14987W        W83205  28.434  39.906   4.509
14988W        W83206  42.656  20.724  13.399
14989W        W83207  29.779  18.124   1.408
14990W        W83208   3.421   4.838   3.980
14991W        W83209  18.746  21.288  13.082
14992W        W83210  31.007   0.751   3.880
14993W        W83211   3.791  40.552   2.768
14994W        W83212  15.774  20.607   2.725
14995W        W83213  12.817  32.479  13.455
14996W        W83214  30.360  17.612  13.512
14997W        W83215  16.306  39.613   2.326
14998W        W83216   7.202  13.873   0.362
14999W        W83217  12.137  16.193  12.337
15000W        W83218  29.736  18.214  12.082
15001W        W83219   5.380  22.093  12.480
15002W        W83220  22.313  23.064   2.347
15003W        W83221  14.299  13.253  12.359
15004W        W83222  43.671  42.878  10.616
15005W        W83223  35.349   0.544  11.617
15006W        W83224  27.199  18.189  14.912
15007W        W83225  18.789  37.922   2.302
15008W        W83226  38.010  44.996   3.395
15009W        W83227  10.340  37.607  12.943
15010W        W83228  25.002  31.351  13.471
15011W        W83229  43.509   8.461  11.398
15012W        W83230  25.307  12.759  12.168
15013W        W83231  37.022  41.345  14.292
15014W        W83232   1.412  28.988   0.167
15015W        W83233  31.446  41.135  14.473
15016W        W83234  38.958  27.006   3.262
15017W        W83235  26.063  38.389  11.886
15018W        W83236  42.405  23.904   0.339
15019W        W83237   0.938  38.536  13.759
15020W        W83238  10.924  44.398   0.618
15021W        W83239   3.440   1.464   2.230
15022W        W83240  36.333  37.471   9.764
15023W        W83241  11.951  31.470   2.754
15024W        W83242   3.935  33.380  10.330
15025W        W83243  21.134  18.787  10.711
15026W        W83244  36.309  14.162   4.491
15027W        W83245  10.233  40.787   0.442
15028W        W83246  29.522  26.204   1.718
15029W        W83247   7.467  19.224   0.436
15030W        W83248   5.790  31.303   1.769
15031W        W83249  11.961  34.121   0.877
15032W        W83250  33.048  28.914   2.610
15033W        W83251   7.812  25.924   1.681
15034W        W83252  44.030  20.726   1.343
15035W        W83253  19.745  33.557  12.497
15036W        W83254   0.511  42.978  13.799
15037W        W83255  16.192   5.261   1.896
15038W        W83256  19.096  29.121  10.327
15039W        W83257   4.194   1.464   3.150
15040W        W83258   8.738  29.123   2.714
15041W        W83259   5.261  24.859   4.471
15042W        W83260  31.220  26.460  14.368
15043W        W83261  24.266  17.683   3.654
15044W        W83262  37.329  25.704  13.945
15045W        W83263  36.133   0.060   1.766
15046W        W83264   2.935  35.889  13.390
15047W        W83265  15.268   5.927   0.395
15048W        W83266  29.868  15.807   1.395
15049W        W83267  37.093  27.615  11.932
15050W        W83268  18.892   3.346  11.159
15051W        W83269  12.817  44.955   2.740
15052W        W83270  27.839   5.801  11.672
15053W        W83271  21.008  13.715   1.319
15054W        W83272   9.339  36.031   3.401
15055W        W83273  15.062  22.638  14.243
15056W        W83274  20.725  34.572   0.029
15057W        W83275  41.002  39.044  13.388
15058W        W83276   1.450  28.121   1.941
15059W        W83277  40.509  12.745   4.479
15060W        W83278  12.796  28.926  12.410
15061W        W83279  18.721   5.645  10.309
15062W        W83280  26.407   7.291  12.553
15063W        W83281  13.328  34.979   2.753
15064W        W83282   3.346  19.351  14.378
15065W        W83283  39.279  15.754   3.120
15066W        W83284  33.184  16.627   0.994
15067W        W83285   9.500   1.342   1.843
15068W        W83286  19.176  32.149   3.803
15069W        W83287  32.075  32.698   4.515
15070W        W83288  10.975  37.630   2.779
15071W        W83289  28.439  15.108   1.558
15072W        W83290   7.117  39.380  12.788
15073W        W83291   3.395  11.739  12.104
15074W        W83292   4.648  23.612   0.521
15075W        W83293   4.673  32.061   4.475
15076W        W83294  23.018  29.579  13.931
15077W        W83295  12.052  24.020  12.483
15078W        W83296   9.401   8.740   1.302
15079W        W83297   5.198   0.871  14.376
15080W        W83298  26.427   1.907   3.121
15081W        W83299  35.170  13.334  14.828
15082W        W83300  36.408  18.375   0.448
15083W        W83301  23.049  30.375  13.887
15084W        W83302  23.490  20.789  11.142
15085W        W83303  24.167  31.218  11.668
15086W        W83304   2.129  44.402   1.064
15087W        W83305  22.510  43.290   4.202
15088W        W83306  12.891  30.118   4.340
15089W        W83307  17.293   0.420  11.587
15090W        W83308   1.275   7.517  12.030
15091W        W83309  18.795  24.994   3.311
15092W        W83310  29.417  22.730  12.345
15093W        W83311   9.660  16.206  10.588
15094W        W83312  29.929  17.747  11.512
15095W        W83313  38.785  25.210   0.760
15096W        W83314  18.548  20.288  12.978
15097W        W83315  19.558  24.299  14.826
15098W        W83316  40.149  12.379  14.295
15099W        W83317  42.496  28.442   1.932
15100W        W83318   7.408  35.395   1.816
15101W        W83319  24.967  33.024  11.145
15102W        W83320  21.950   3.305  13.849
15103W        W83321  16.527   8.746   3.547
15104W        W83322   4.815  42.938   1.857
15105W        W83323  12.341  24.063  12.940
15106W        W83324  41.358   2.749  12.445
15107W        W83325  25.888  37.269  11.179
15108W        W83326   1.216  37.866  14.495
15109W        W83327  38.893  44.129  10.105
15110W        W83328  39.981  28.376  11.130
15111W        W83329   8.103   5.253   0.267
15112W        W83330   4.981   8.324  11.936
15113W        W83331  18.144  27.212  12.949
15114W        W83332  32.879  40.659   0.417
15115W        W83333  22.289  10.951  11.186
15116W        W83334  10.823   1.860  12.000
15117W        W83335  36.512  17.944  14.503
15118W        W83336  25.633  15.234   9.954
15119W        W83337  14.899  35.303   1.209
15120W        W83338  30.038   9.910   1.807
15121W        W83339  23.447  27.551  11.791
15122W        W83340   5.846  27.757  14.956
15123W        W83341  14.727  25.008  12.662
15124W        W83342  11.309  26.728   3.198
15125W        W83343  35.361  43.429   4.187
15126W        W83344  18.633   6.715  14.410
15127W        W83345   0.953  37.857  13.994
15128W        W83346   1.259  22.343  13.833
15129W        W83347   8.176  21.941  14.768
15130W        W83348  15.105  24.559  11.106
15131W        W83349  29.967   3.732   1.425
15132W        W83350  26.245  17.745   4.365
15133W        W83351  23.467  38.275  12.925
15134W        W83352   2.271  26.819  13.302
15135W        W83353   4.560  23.540  13.958
15136W        W83354  40.226  14.152  12.919
15137W        W83355  44.496  11.959  12.254
15138W        W83356  32.045   7.514  13.859
15139W        W83357  26.495  13.779   2.258
15140W        W83358  41.255  16.525   0.430
15141W        W83359  22.337  18.138   1.380
15142W        W83360  13.248  26.280   1.164
15143W        W83361   9.249  29.714  11.015
15144W        W83362  10.812  36.040   4.626
15145W        W83363  29.661  26.697   1.637
15146W        W83364   1.293   2.194  13.272
15147W        W83365  22.639  25.464  11.507
15148W        W83366   9.788  37.861  13.659
15149W        W83367  32.545  19.513   0.483
15150W        W83368  12.062  43.358   4.432
15151W        W83369   9.199  20.257   2.859
15152W        W83370  23.059  38.787  12.821
15153W        W83371  35.554  31.052   4.618
15154W        W83372  39.045  43.022   4.972
15155W        W83373  25.582   5.007   1.380
15156W        W83374   3.817  33.562  14.012
15157W        W83375  38.600  19.327  11.702
15158W        W83376  34.743  42.509  11.117
15159W        W83377  20.162   2.700  11.990
15160W        W83378  32.840  32.971   2.877
15161W        W83379  34.562  26.709  12.781
15162W        W83380  10.085  18.558   2.129
15163W        W83381  35.654  32.854  14.375
15164W        W83382  32.191  41.555  12.430
15165W        W83383   2.356  44.595  13.070
15166W        W83384  23.929  22.808   5.216
15167W        W83385  29.997  20.552   4.880
15168W        W83386  35.003   0.788   3.341
15169W        W83387  40.811  36.318   0.862
15170W        W83388  25.138  24.629   1.281
15171W        W83389  21.931   5.191  14.758
15172W        W83390  19.104   2.934   1.408
15173W        W83391  29.608  12.459   1.292
15174W        W83392   2.910   8.214  11.723
15175W        W83393   8.911  21.635   3.605
15176W        W83394  18.777  38.319   1.703
15177W        W83395  29.192  40.767   2.744
15178W        W83396  40.859   4.686  10.986
15179W        W83397  30.902   2.173  11.803
15180W        W83398  28.102  35.074  14.398
15181W        W83399  39.114   4.752   1.314
15182W        W83400  18.510  29.003  14.670
15183W        W83401  12.935  15.318   3.000
15184W        W83402  42.070  10.104   4.026
15185W        W83403   7.116  36.797   1.297
15186W        W83404   0.243  27.473   0.101
15187W        W83405  15.966  37.804   3.482
15188W        W83406  21.079   2.798   4.899
15189W        W83407  24.465  12.478  12.544
15190W        W83408  28.194  42.326   1.855
15191W        W83409  34.162  15.659  14.869
15192W        W83410  37.383  36.571   4.762
15193W        W83411  43.199  34.508  12.367
15194W        W83412  10.184  12.163  11.585
15195W        W83413  34.910  22.811   4.644
15196W        W83414  36.838  29.950  13.843
15197W        W83415  30.028   4.145   2.352
15198W        W83416   7.160   2.658   1.443
15199W        W83417  35.312  19.436  13.829
15200W        W83418  22.167  30.026  11.379
15201W        W83419  21.099   9.361  13.865
15202W        W83420  16.213  30.185   4.439
15203W        W83421  29.162  42.359   0.021
15204W        W83422   5.939  11.387  10.940
15205W        W83423  10.785   4.962  12.010
15206W        W83424  16.721  42.171  14.733
15207W        W83425  16.094  35.571  11.193
15208W        W83426  21.291  12.284  14.931
15209W        W83427   6.295  37.458   4.122
15210W        W83428   1.391   5.329   3.091
15211W        W83429   4.535  11.241  14.967
15212W        W83430  26.619  17.545   2.247
15213W        W83431  30.893  11.760  10.461
15214W        W83432   1.998  40.495  10.688
15215W        W83433  36.172  33.821   2.737
15216W        W83434  20.547  12.567   3.521
15217W        W83435  23.985  28.482   0.404
15218W        W83436  21.814  12.917   0.487
15219W        W83437  12.047  23.570   4.054
15220W        W83438  31.446  17.274  13.142
15221W        W83439  18.337  14.149  13.514
15222W        W83440  24.661  18.797  13.287
15223W        W83441  40.436  17.578   1.235
15224W        W83442  38.502  29.937  14.924
15225W        W83443   4.852  33.145  10.259
15226W        W83444  13.081   1.287   4.220
15227W        W83445   5.834   7.678   2.418
15228W        W83446   8.755   5.800  12.143
15229W        W83447   3.342  36.925  12.792
15230W        W83448  26.139  34.049   3.310
15231W        W83449  40.776   3.019   3.576
15232W        W83450  26.589   8.175   4.967
15233W        W83451  38.047  36.351  12.591
15234W        W83452  26.559  43.155   5.020
15235W        W83453   4.465  14.884  12.902
15236W        W83454   9.511  40.546   0.602
15237W        W83455  35.734  17.124  14.628
15238W        W83456  41.118  44.071   3.529
15239W        W83457  36.851  26.424   4.885
15240W        W83458  34.143  10.782   1.762
15241W        W83459  30.890  41.273   1.283
15242W        W83460  18.649  15.023  13.682
15243W        W83461   4.298  32.810  12.081
15244W        W83462  41.058  35.070  10.733
15245W        W83463  14.255  38.166   4.452
15246W        W83464   0.285  18.736   2.202
15247W        W83465  30.964  23.283   2.229
15248W        W83466  26.064   0.913   2.948
15249W        W83467  42.862   9.594   4.338
15250W        W83468  35.266  26.415   0.758
15251W        W83469  41.620  30.190  14.523
15252W        W83470  23.472  33.600   3.120
15253W        W83471  17.008  37.599  10.516
15254W        W83472  38.381  40.156   3.364
15255W        W83473  26.223  24.687  10.773
15256W        W83474   3.190  13.736  14.798
15257W        W83475  12.827   2.452  10.914
15258W        W83476  25.169  42.098  11.049
15259W        W83477  24.454  44.863  13.433
15260W        W83478   3.875  34.519   3.114
15261W        W83479   0.848  33.496  11.594
15262W        W83480  34.217   5.524  10.585
15263W        W83481  15.176  10.666   0.658
15264W        W83482  41.888   3.833   0.372
15265W        W83483  11.716   9.440  13.003
15266W        W83484   3.387  41.083  11.968
15267W        W83485  17.764   8.449   1.383
15268W        W83486   1.604  10.126  11.048
15269W        W83487  21.996  18.743   2.984
15270W        W83488  34.935   7.827   0.263
15271W        W83489  36.856  31.102   0.453
15272W        W83490  35.874  29.498  11.123
15273W        W83491  31.370  24.011   1.860
15274W        W83492  15.884  18.525  11.948
15275W        W83493   3.859   0.494   0.856
15276W        W83494  33.624  18.534   0.771
15277W        W83495  43.467   3.555  11.899
15278W        W83496  27.901  40.067  11.469
15279W        W83497  23.827   6.220   1.954
15280W        W83498  20.745   6.287   2.713
15281W        W83499   2.143   3.219  13.262
15282W        W83500  39.883  20.445   2.403
15283W        W83501  41.309  26.914  12.616
15284W        W83502   2.014  24.015  12.605
15285W        W83503  16.378  30.904  12.776
15286W        W83504   7.832  11.654  11.579
15287W        W83505  21.801  37.797  13.759
15288W        W83506  39.994  29.970   0.333
15289W        W83507   9.105  43.817  11.507
15290W        W83508  41.954   9.646  13.865
15291W        W83509   8.051  29.468  13.211
15292W        W83510  22.780  24.652   1.014
15293W        W83511  15.242  28.418  13.430
15294W        W83512  23.179   8.662   0.912
15295W        W83513  22.260  35.358   3.620
15296W        W83514  38.333  32.035  11.067
15297W        W83515  30.452  28.109  11.122
15298W        W83516   4.255  13.005  10.760
15299W        W83517   2.649   7.646  11.983
15300W        W83518  10.631  32.565  14.015
15301W        W83519  40.427  44.136   5.159
15302W        W83520  23.525  40.089   1.969
15303W        W83521  15.436  29.500  12.636
15304W        W83522  33.655  36.830   0.744
15305W        W83523  18.744  10.263   1.366
15306W        W83524  31.404  43.508  10.535
15307W        W83525  36.055   4.014   0.446
15308W        W83526  14.731  13.670   2.425
15309W        W83527  36.554  21.085   2.705
15310W        W83528  23.984  32.694   1.483
15311W        W83529  23.996  16.166  10.476
15312W        W83530  20.720  16.886  11.900
15313W        W83531  24.261  22.789   2.390
15314W        W83532   6.330  14.352   0.204
15315W        W83533  37.170  24.245  13.775
15316W        W83534  26.601  23.107   2.376
15317W        W83535  33.933  11.801   4.249
15318W        W83536   5.402   4.155  10.422
15319W        W83537   6.304  34.138   3.634
15320W        W83538  31.081  44.817   0.414
15321W        W83539   0.445  37.370   0.868
15322W        W83540  31.891  42.868  14.440
15323W        W83541  39.141  25.017  14.548
15324W        W83542  26.580  36.531  13.420
15325W        W83543  14.053  41.063  14.972
15326W        W83544  35.889  14.080   1.647
15327W        W83545  24.198  15.714  11.588
15328W        W83546  35.145  21.780   3.074
15329W        W83547   3.810  10.129   2.348
15330W        W83548  18.168  11.182  14.276
15331W        W83549  37.111   6.623   1.277
15332W        W83550  27.524  44.032   4.566
15333W        W83551   0.921  14.446   2.744
15334W        W83552  16.653  23.168   1.623
15335W        W83553  28.519  34.670   0.921
15336W        W83554  20.879  13.315   4.100
15337W        W83555  21.232   4.925   0.751
15338W        W83556  43.937   6.549  12.371
15339W        W83557  41.599  40.365   0.199
15340W        W83558  34.934   4.013  12.002
15341W        W83559  13.427  30.404  11.359
15342W        W83560  26.823  27.699  14.773
15343W        W83561  10.834  24.073  12.881
15344W        W83562  43.435  37.354  11.493
15345W        W83563   3.381  38.857  11.449
15346W        W83564  34.683   1.023   2.046
15347W        W83565  44.373   8.894  11.079
15348W        W83566  26.983  21.011   1.365
15349W        W83567  43.735  17.127  11.079
15350W        W83568  17.316  23.234  12.879
15351W        W83569  42.538  10.856   0.927
15352W        W83570  33.595  39.447   2.670
15353W        W83571  33.326  33.913  12.134
15354W        W83572  15.920  17.427  12.595
15355W        W83573  35.402  24.980  10.740
15356W        W83574  21.115   6.090  12.747
15357W        W83575   4.584   5.364   2.641
15358W        W83576  37.521  14.659  14.795
15359W        W83577   4.971  23.505   3.251
15360W        W83578  33.573  41.298  13.082
15361W        W83579  28.493   6.137   2.570
15362W        W83580  22.021   8.570  13.124
15363W        W83581  20.055  30.059  12.379
15364W        W83582  32.220   5.779  13.393
15365W        W83583  19.860  11.800   0.424
15366W        W83584   1.216  13.776   4.298
15367W        W83585  13.616  16.383   2.649
15368W        W83586  26.750   9.099   0.857
15369W        W83587  41.340  37.589   0.909
15370W        W83588   4.277  39.009   0.653
15371W        W83589  26.068  38.098  11.477
15372W        W83590  38.069  31.725  10.750
15373W        W83591  20.431  11.756  11.587
15374W        W83592  25.502  44.315   0.857
15375W        W83593  42.782  13.835   4.550
15376W        W83594  18.616  12.116   2.326
15377W        W83595  28.421   8.403  14.463
15378W        W83596  25.453  40.483   0.564
15379W        W83597  15.083  19.307   4.176
15380W        W83598  41.527  23.017  11.144
15381W        W83599   2.364  10.757  10.919
15382W        W83600  12.219  33.873  10.650
15383W        W83601  13.295  14.726  10.700
15384W        W83602  23.109  36.603  11.751
15385W        W83603  36.479   8.925  10.667
15386W        W83604   5.429  19.708  12.124
15387W        W83605   9.721  14.794  13.347
15388W        W83606  26.137  35.482  11.541
15389W        W83607   0.880  40.384  12.456
15390W        W83608  18.624  10.293   3.392
15391W        W83609  11.662   3.950  13.013
15392W        W83610  23.431  43.041   4.034
15393W        W83611  41.499  17.553  13.251
15394W        W83612  26.129   5.358   2.597
15395W        W83613  32.118  33.946   1.826
15396W        W83614   3.326  11.995   1.629
15397W        W83615  15.969   8.932  14.814
15398W        W83616  43.241   3.461   2.094
15399W        W83617   1.833  10.968   1.314
15400W        W83618  37.601  43.386   2.586
15401W        W83619  32.486  19.572  12.443
15402W        W83620   1.118  22.764   4.224
15403W        W83621   0.258  23.308   0.869
15404W        W83622   2.414   2.379  13.337
15405W        W83623  25.715   4.041   2.603
15406W        W83624  32.135  21.635  12.912
15407W        W83625   2.874   3.680  11.619
15408W        W83626  32.429  22.538   2.552
15409W        W83627   2.881  39.013  11.620
15410W        W83628   4.637  41.103   3.564
15411W        W83629  44.705  20.119   1.175
15412W        W83630   7.011  10.424   1.882
15413W        W83631  39.031  18.288   0.446
15414W        W83632  44.442  19.248  14.514
15415W        W83633  30.375  42.846  14.394
15416W        W83634   4.307  43.011  10.244
15417W        W83635  34.678  40.939   4.501
15418W        W83636  33.182   9.441  12.058
15419W        W83637  33.997  33.118   0.694
15420W        W83638   9.436  34.100   1.935
15421W        W83639  33.996   0.420   0.134
15422W        W83640  34.526  40.577   1.026
15423W        W83641  42.163  15.354  12.544
15424W        W83642   3.700   9.111   2.890
15425W        W83643  21.823   1.824   2.134
15426W        W83644  20.588  28.561   2.443
15427W        W83645  23.744  24.814   4.585
15428W        W83646   2.403   3.959  11.546
15429W        W83647  31.215  43.435  13.749
15430W        W83648  18.614   8.786   1.010
15431W        W83649   3.423  16.027  13.528
15432W        W83650   9.295  13.605   1.263
15433W        W83651   3.059  44.496  12.492
15434W        W83652  34.901  24.518  12.328
15435W        W83653  10.950   0.940  10.620
15436W        W83654  24.049  29.204  12.554
15437W        W83655  42.788  10.857   3.268
15438W        W83656  21.421   3.320  13.775
15439W        W83657  31.156  24.601   4.607
15440W        W83658  10.364  14.253   0.854
15441W        W83659   5.531  23.655  13.677
15442W        W83660  39.968   7.115   4.417
15443W        W83661  15.237  26.749   3.785
15444W        W83662  28.600   0.587   1.800
15445W        W83663  33.375  24.493  14.877
15446W        W83664  43.729  18.641   0.931
15447W        W83665  39.689  17.056  12.555
15448W        W83666   2.466   2.649   3.234
15449W        W83667   5.829  16.707   5.424
15450W        W83668  15.601  12.764   0.787
15451W        W83669   7.341  30.657   2.370
15452W        W83670  12.447  21.589  10.913
15453W        W83671  10.220  15.812  11.638
15454W        W83672  35.157   8.847   2.469
15455W        W83673  32.990  14.929  10.961
15456W        W83674   2.346  42.240  12.877
15457W        W83675  25.097   2.169  13.009
15458W        W83676   9.847  16.366   3.755
15459W        W83677  22.260  35.071  12.437
15460W        W83678  27.131  15.301   0.391
15461W        W83679  31.018  33.053   3.818
15462W        W83680  44.058  10.038   1.791
15463W        W83681   6.907  41.962  10.393
15464W        W83682  24.590  38.957   2.778
15465W        W83683  11.225  26.215   3.119
15466W        W83684   6.438  23.149  12.321
15467W        W83685  44.411  26.254   0.491
15468W        W83686   6.855  36.039   2.350
15469W        W83687  25.598  37.044   1.025
15470W        W83688  40.393  15.636   0.978
15471W        W83689  13.353   4.701  14.562
15472W        W83690   8.545  27.775  14.325
15473W        W83691  13.929  19.457   0.722
15474W        W83692  26.645  13.550  14.196
15475W        W83693  38.883  12.508  12.670
15476W        W83694  12.734  16.223   3.059
15477W        W83695  39.779   4.814   4.109
15478W        W83696  36.519  23.309   9.998
15479W        W83697  16.745  30.655   3.580
15480W        W83698   0.265  33.105   2.233
15481W        W83699  43.110   5.722  12.304
15482W        W83700  14.319  39.336  14.706
15483W        W83701  17.099  12.800   4.535
15484W        W83702  42.169  33.588   5.144
15485W        W83703  20.996  14.331  10.648
15486W        W83704  33.757  16.360  13.369
15487W        W83705  43.352  10.402   2.766
15488W        W83706  20.118  40.165  10.228
15489W        W83707  36.370  14.090   3.079
15490W        W83708   4.643  36.217  14.450
15491W        W83709  30.386  14.188  11.068
15492W        W83710  40.482  36.147  11.302
15493W        W83711  19.752  23.966  11.604
15494W        W83712  21.868  29.591   0.368
15495W        W83713  24.807  37.523   9.798
15496W        W83714  31.144  44.189  12.448
15497W        W83715   7.438  13.160   2.343
15498W        W83716  38.855  42.967  13.866
15499W        W83717   7.363  11.955  10.773
15500W        W83718   2.758  24.737   0.907
15501W        W83719  29.561  19.993  14.823
15502W        W83720   3.880  20.475  14.257
15503W        W83721  10.380  15.791   2.648
15504W        W83722   1.304  21.274  12.770
15505W        W83723  42.848  17.704   2.898
15506W        W83724  34.899  19.231   3.633
15507W        W83725  37.448  17.819   3.683
15508W        W83726  41.635   5.037   0.679
15509W        W83727   7.813  15.325   1.510
15510W        W83728  35.355   0.959   2.494
15511W        W83729  21.669  33.342  12.752
15512W        W83730  10.951  21.344   4.297
15513W        W83731  12.116  18.096  14.103
15514W        W83732   0.546  38.147  11.151
15515W        W83733  30.006  40.299   2.796
15516W        W83734  40.888   3.884  13.427
15517W        W83735  35.155   3.300   1.088
15518W        W83736  13.132   7.327  14.440
15519W        W83737  18.247   0.633  12.538
15520W        W83738   2.849  11.530  10.363
15521W        W83739  36.020   8.402   3.650
15522W        W83740  39.266  39.315  11.049
15523W        W83741  43.794  33.051  11.850
15524W        W83742  36.261  39.891   1.340
15525W        W83743  27.733  14.266  13.050
15526W        W83744   4.259  28.857   0.281
15527W        W83745   4.201   4.326  14.502
15528W        W83746   2.174  36.137   3.139
15529W        W83747  22.642   4.542   0.010
15530W        W83748  16.698  40.823   3.299
15531W        W83749  31.025  36.147   3.676
15532W        W83750  35.946  13.371  13.935
15533W        W83751  27.938  12.732   2.290
15534W        W83752  40.341  38.135  13.989
15535W        W83753   6.570  43.792   4.181
15536W        W83754  18.009   5.740  14.857
15537W        W83755  40.341  28.977   4.633
15538W        W83756  23.092   1.809   4.557
15539W        W83757  38.486  19.468  12.587
15540W        W83758   8.197  24.421  14.411
15541W        W83759  31.389   3.430  14.313
15542W        W83760  35.344  22.283  14.633
15543W        W83761  23.263  35.607   4.192
15544W        W83762  41.850  28.617   1.213
15545W        W83763  16.310  23.473   1.859
15546W        W83764  15.433   7.785   0.822
15547W        W83765   6.434  17.717   2.347
15548W        W83766  11.674  33.116   4.586
15549W        W83767  15.707  31.210  10.339
15550W        W83768  38.854  12.350  12.181
15551W        W83769  18.262  30.031  12.449
15552W        W83770   3.922  22.158   0.029
15553W        W83771  10.891   4.104  14.622
15554W        W83772  36.052  20.349  12.382
15555W        W83773  10.926  33.701  14.715
15556W        W83774  26.379   1.017   5.131
15557W        W83775  37.073  24.426  11.170
15558W        W83776  11.603  43.485   4.245
15559W        W83777  30.643  30.932  14.851
15560W        W83778  28.269  26.730   2.280
15561W        W83779  13.891  23.386  12.526
15562W        W83780  27.682   8.289   2.410
15563W        W83781  25.678  20.541  13.983
15564W        W83782  20.260  34.987   1.922
15565W        W83783  28.038  10.131   3.231
15566W        W83784   8.319  31.538   2.470
15567W        W83785  12.596   3.913  10.919
15568W        W83786  16.139   2.806   4.902
15569W        W83787  43.002  40.627   3.252
15570W        W83788   8.644  24.133   3.307
15571W        W83789   7.712   3.411   2.888
15572W        W83790  32.724   0.427   0.784
15573W        W83791  42.441  31.075   2.928
15574W        W83792  40.708   5.879  14.293
15575W        W83793  37.321  26.073   4.883
15576W        W83794   4.593  15.899  10.557
15577W        W83795  43.812  39.435  12.148
15578W        W83796  15.098  21.528   1.527
15579W        W83797  13.674   2.967  13.388
15580W        W83798  20.678  12.527   4.924
15581W        W83799  27.755   0.409   3.738
15582W        W83800  26.078   6.666  14.874
15583W        W83801  37.455  14.336  12.450
15584W        W83802   4.927  42.080   0.911
15585W        W83803   9.197   9.277   0.239
15586W        W83804   1.274   8.677  11.683
15587W        W83805   7.368  11.440  10.749
15588W        W83806   1.634  18.490   0.403
15589W        W83807  25.010  16.791  13.012
15590W        W83808  15.628  27.387  11.570
15591W        W83809  33.585  15.649   0.698
15592W        W83810  22.749   8.907  14.872
15593W        W83811  34.280  27.520   2.708
15594W        W83812  33.156  39.039   3.712
15595W        W83813  24.111  32.628   0.439
15596W        W83814  24.088   4.783   1.488
15597W        W83815  34.274  18.475  12.005
15598W        W83816  15.919  19.483   3.577
15599W        W83817  34.920   5.825  14.562
15600W        W83818  11.574  38.959   3.422
15601W        W83819  15.671   3.403   2.818
15602W        W83820  26.234   7.901   1.275
15603W        W83821  16.453  40.398  11.208
15604W        W83822  31.631  11.838  11.686
15605W        W83823   5.709  26.653  12.136
15606W        W83824  10.876   6.388   2.397
15607W        W83825  25.007  32.453   4.954
15608W        W83826  13.608  27.680  11.929
15609W        W83827   5.604  18.888  12.850
15610W        W83828  32.389  42.595  12.163
15611W        W83829  43.247  19.967  12.109
15612W        W83830  24.228  26.124  11.848
15613W        W83831  40.854  30.080   4.422
15614W        W83832  11.844  19.786   1.381
15615W        W83833   4.128  31.884  11.387
15616W        W83834  41.075  41.750  12.182
15617W        W83835  22.344  42.886  10.323
15618W        W83836  13.153   2.930   2.143
15619W        W83837  30.429  15.214   1.349
15620W        W83838  23.304  10.648  11.504
15621W        W83839  24.133   5.190   1.864
15622W        W83840   2.446  31.403  13.123
15623W        W83841  20.205  25.686   1.963
15624W        W83842   9.928   9.473  12.088
15625W        W83843  15.751  29.129  14.299
15626W        W83844  42.805   3.484   4.340
15627W        W83845   9.277  29.840   4.419
15628W        W83846  31.524  33.546   1.959
15629W        W83847  29.076   9.291  14.257
15630W        W83848  20.200   8.223  10.950
15631W        W83849   3.944  22.758  13.840
15632W        W83850  27.285   9.950  11.160
15633W        W83851   7.797  10.270   2.741
15634W        W83852   0.450  34.909   4.113
15635W        W83853   8.308   8.816   2.790
15636W        W83854  32.979  15.890  12.648
15637W        W83855  28.987   7.925   3.872
15638W        W83856  39.064  37.481   0.923
15639W        W83857   8.462  28.946   3.150
15640W        W83858  44.743  27.053  13.553
15641W        W83859  39.837  32.043   0.252
15642W        W83860  36.397  10.059   4.919
15643W        W83861  26.622  12.080   4.585
15644W        W83862  38.764  20.136  13.027
15645W        W83863  39.808   0.400   1.439
15646W        W83864  37.351  14.137   1.875
15647W        W83865  35.863  11.681  14.491
15648W        W83866  43.488  40.844   2.639
15649W        W83867   4.931  33.695  14.647
15650W        W83868  14.303  11.616   3.317
15651W        W83869  20.275  38.611   5.071
15652W        W83870  11.154  41.957  13.535
15653W        W83871  18.515   4.881   1.334
15654W        W83872   0.630  31.718  12.071
15655W        W83873  22.244  32.202  12.283
15656W        W83874  41.727   8.219  14.786
15657W        W83875  36.587  17.708  14.046
15658W        W83876  33.332  30.077   4.575
15659W        W83877   8.436  28.107  11.500
15660W        W83878   8.801  17.259  11.609
15661W        W83879  25.201  16.624   3.876
15662W        W83880  32.214  44.037   0.841
15663W        W83881   6.777  31.490   2.877
15664W        W83882  40.531   1.129   1.829
15665W        W83883  12.715  23.094   2.303
15666W        W83884  44.210  12.716  12.649
15667W        W83885  29.933  10.506  11.841
15668W        W83886  39.937  41.190   4.705
15669W        W83887  13.114  32.830   3.574
15670W        W83888  33.037  44.552   0.437
15671W        W83889  31.302  17.844   3.166
15672W        W83890  18.195   8.176   2.785
15673W        W83891  36.444  34.415  14.326
15674W        W83892   5.441  30.516  12.900
15675W        W83893  17.551  18.979  10.678
15676W        W83894  34.023  13.268   3.643
15677W        W83895  21.578  25.712  13.907
15678W        W83896  31.918  16.200  10.846
15679W        W83897  28.556  11.168  12.315
15680W        W83898   1.776   5.465   0.261
15681W        W83899   8.951   5.734  10.718
15682W        W83900  36.948  16.693  13.376
15683W        W83901  44.786  29.441   3.200
15684W        W83902   7.631   3.835  10.581
15685W        W83903  14.864   3.414   3.251
15686W        W83904  25.987  29.141  12.819
15687W        W83905  38.373   3.170   0.971
15688W        W83906  20.582   3.399   1.292
15689W        W83907   5.944  34.421   2.576
15690W        W83908  16.691  12.046  14.972
15691W        W83909  43.306   9.712   0.327
15692W        W83910  35.622  25.063   2.218
15693W        W83911  28.915  29.889  11.181
15694W        W83912  17.113   1.326   3.114
15695W        W83913   0.801   9.414   3.877
15696W        W83914  27.154  21.089  14.337
15697W        W83915  30.389  12.249   0.833
15698W        W83916  35.358   2.916  12.663
15699W        W83917  36.640   4.993  14.157
15700W        W83918  23.419  34.296   0.057
15701W        W83919  14.197   0.810   4.554
15702W        W83920   5.862  19.551   0.604
15703W        W83921  23.464  41.192   0.525
15704W        W83922  13.360  39.705   1.285
15705W        W83923  23.734  19.618   1.827
15706W        W83924  25.996  27.453   4.086
15707W        W83925  29.000   9.164  14.759
15708W        W83926  29.621  29.406   0.366
15709W        W83927   2.009  43.391   3.279
15710W        W83928  36.015  30.221   0.276
15711W        W83929  33.550  34.993  14.087
15712W        W83930  20.108  22.650  10.701
15713W        W83931   1.325   9.865   0.262
15714W        W83932  37.557  20.672  13.076
15715W        W83933  36.372  18.398   0.997
15716W        W83934   4.400   7.875   0.874
15717W        W83935  39.303   3.224  12.406
15718W        W83936   8.440  19.559  13.488
15719W        W83937   6.362  14.841   3.215
15720W        W83938  22.188  36.365  11.355
15721W        W83939   4.443  16.591   0.888
15722W        W83940  23.231  19.732   2.723
15723W        W83941  17.038  44.892   9.910
15724W        W83942   0.964  19.549  13.216
15725W        W83943  24.041  43.507  12.360
15726W        W83944  25.277   5.832  13.505
15727W        W83945  22.979  39.218   3.169
15728W        W83946  14.210  25.176  14.031
15729W        W83947  20.321  13.214   1.568
15730W        W83948  37.234  41.076  10.439
15731W        W83949  24.579  13.075   3.274
15732W        W83950   1.368  31.508  12.587
15733W        W83951   2.193  36.089  13.903
15734W        W83952   9.624  29.964  13.514
15735W        W83953   1.512  13.302  11.603
15736W        W83954   4.044   0.715   4.213
15737W        W83955   0.225  31.424   3.714
15738W        W83956  24.232  10.366   4.087
15739W        W83957  41.812  34.563  12.079
15740W        W83958   3.859  22.910  10.309
15741W        W83959  33.802   7.149   0.217
15742W        W83960   5.197  35.638   1.871
15743W        W83961  17.731  16.233  13.357
15744W        W83962   3.145  37.603  15.000
15745W        W83963  24.586  27.692   2.155
15746W        W83964  39.936  27.868  11.144
15747W        W83965   9.711  35.490  11.962
15748W        W83966   5.007   7.697  12.603
15749W        W83967   2.317  23.120   0.027
15750W        W83968  25.647  12.111  12.039
15751W        W83969  19.241  16.882   2.393
15752W        W83970   9.881  23.735  13.660
15753W        W83971  13.921  42.597   0.340
15754W        W83972  28.645   0.038   1.830
15755W        W83973  11.250  15.139  12.429
15756W        W83974   7.157  11.810  13.719
15757W        W83975  11.612  15.642   3.890
15758W        W83976  28.442   9.927  12.878
15759W        W83977  41.036  16.920   0.724
15760W        W83978   5.867   2.290   0.206
15761W        W83979  12.830  13.805   2.139
15762W        W83980  43.424   4.958   2.341
15763W        W83981  40.206  41.486  10.780
15764W        W83982  24.116  39.095  10.681
15765W        W83983   0.341  36.109  12.915
15766W        W83984   1.287  33.540  11.052
15767W        W83985   9.032  30.810  11.001
15768W        W83986   0.997  18.178  10.066
15769W        W83987   1.002  36.262   4.091
15770W        W83988  44.818   2.033  13.800
15771W        W83989  44.554  33.645  13.501
15772W        W83990   2.691  26.508  11.951
15773W        W83991  43.093  12.745   1.421
15774W        W83992  24.469  14.069   3.193
15775W        W83993  42.384  20.293   0.732
15776W        W83994  19.281   2.385  11.566
15777W        W83995  13.097  41.500  13.070
15778W        W83996   3.860  40.306  13.618
15779W        W83997  20.491  17.174   3.206
15780W        W83998  17.745   6.013   0.274
15781W        W83999   3.573  18.780  11.224
15782W        W84000  32.855  29.671  10.188
15783W        W84001  37.539  28.575  13.790
15784W        W84002  40.380  36.089  14.907
15785W        W84003  44.741   6.124   4.534
15786W        W84004  10.124  16.047   2.271
15787W        W84005   8.363  19.248   4.801
15788W        W84006  25.404  13.169  13.116
15789W        W84007  39.509  41.757  10.705
15790W        W84008  34.674  25.754  13.637
15791W        W84009  38.047  44.446  12.472
15792W        W84010  37.576   9.086   1.808
15793W        W84011  44.674  32.715   0.348
15794W        W84012  22.914  43.488   2.809
15795W        W84013  21.767  27.094  13.128
15796W        W84014  16.777   8.814   2.213
15797W        W84015  13.543  28.880   3.645
15798W        W84016  12.880   5.882  11.463
15799W        W84017  32.000  42.562   0.399
15800W        W84018  11.652  40.131   2.876
15801W        W84019  29.131  22.664   3.846
15802W        W84020  10.402  25.196  11.556
15803W        W84021   2.015  36.083  12.143
15804W        W84022  33.887  31.727   0.726
15805W        W84023  38.514   8.613  11.515
15806W        W84024   9.514  25.587   3.142
15807W        W84025  20.006   7.657  13.539
15808W        W84026   0.242  42.064   3.647
15809W        W84027  31.621  40.538   1.504
15810W        W84028  37.611   6.573  14.462
15811W        W84029  43.055  23.466   0.330
15812W        W84030  31.106  14.847   1.890
15813W        W84031   8.661  24.578  14.258
15814W        W84032  15.487   8.721  14.880
15815W        W84033  40.386   5.308  14.904
15816W        W84034   2.304  24.858   1.163
15817W        W84035   3.321   2.288  11.635
15818W        W84036  34.123  17.127  11.051
15819W        W84037  13.051   7.245  13.434
15820W        W84038  10.847  42.947  10.718
15821W        W84039   4.937   1.976  11.115
15822W        W84040   8.426   1.589  13.939
15823W        W84041  21.589  39.934   1.235
15824W        W84042  28.252  17.223  14.062
15825W        W84043  26.732  26.422  10.318
15826W        W84044  20.210  19.979  12.412
15827W        W84045   0.441   5.996  11.870
15828W        W84046  22.616  27.894   0.834
15829W        W84047  26.445  11.306   0.317
15830W        W84048  18.759  19.869  11.035
15831W        W84049  23.644   9.379   2.324
15832W        W84050  24.633   9.114   2.490
15833W        W84051  26.846  30.541   2.311
15834W        W84052   1.599  20.532   3.254
15835W        W84053  25.013  37.985   1.154
15836W        W84054   9.371  32.227   4.164
15837W        W84055  28.185  20.654   4.214
15838W        W84056  24.117  15.245  10.403
15839W        W84057   9.876   7.205  14.957
15840W        W84058  36.876  22.552   4.021
15841W        W84059  29.110  20.292   4.316
15842W        W84060   9.784   3.283  14.557
15843W        W84061  16.153   2.020   3.814
15844W        W84062  22.022  30.175   3.161
15845W        W84063   5.989  36.670  10.641
15846W        W84064  33.599  29.151  11.448
15847W        W84065  30.101  41.108   4.481
15848W        W84066   4.766   2.274  11.511
15849W        W84067   7.943  37.412   1.857
15850W        W84068  43.331  41.514   2.330
15851W        W84069  16.657  14.771  14.204
15852W        W84070  29.403   8.749  10.717
15853W        W84071  42.940  36.573   1.298
15854W        W84072  41.871  34.498  11.562
15855W        W84073  33.722  15.741  13.693
15856W        W84074  31.661  27.099   5.431
15857W        W84075  40.001   4.734   1.601
15858W        W84076  35.311   8.360   1.574
15859W        W84077   6.767  18.492  10.724
15860W        W84078  22.946  37.856  13.883
15861W        W84079  19.694   6.466  12.140
15862W        W84080  18.751   4.139   4.188
15863W        W84081  10.231  10.028  10.796
15864W        W84082  32.196   5.470   4.471
15865W        W84083  18.665  38.409  11.457
15866W        W84084  41.324  26.904   1.830
15867W        W84085  27.751  15.323  14.843
15868W        W84086  43.653  42.043  14.417
15869W        W84087   8.687   1.773   0.561
15870W        W84088  12.777  14.896  14.769
15871W        W84089  25.521   9.785  14.258
15872W        W84090   7.414  21.609   0.965
15873W        W84091  33.149  32.267   0.724
15874W        W84092  13.242   8.211  12.965
15875W        W84093  10.555  30.382  14.459
15876W        W84094  29.523  10.130  10.414
15877W        W84095  42.581  31.334   0.375
15878W        W84096   2.350  20.898   4.446
15879W        W84097  30.988  30.855   1.792
15880W        W84098  38.554  19.636   1.504
15881W        W84099  41.297  13.825   0.005
15882W        W84100   4.246  24.176  14.775
15883W        W84101  30.621  43.472   3.634
15884W        W84102  38.809  28.943  14.021
15885W        W84103  23.957  25.723  10.658
15886W        W84104   9.120  21.437   3.162
15887W        W84105  42.559  40.427   0.158
15888W        W84106  37.367  36.947  14.980
15889W        W84107  17.923   0.829  10.194
15890W        W84108  35.142  26.196  12.050
15891W        W84109   9.538   2.885  14.832
15892W        W84110  42.320  12.224  14.934
15893W        W84111  21.858  42.200   1.898
15894W        W84112   9.666  33.584  12.176
15895W        W84113   7.256  33.657   0.874
15896W        W84114  14.339   7.872   2.727
15897W        W84115  23.525  29.471   2.833
15898W        W84116   5.542  40.979  14.898
15899W        W84117  29.094  16.592   3.214
15900W        W84118  37.043  22.496   1.345
15901W        W84119  31.026  15.066   1.386
15902W        W84120  20.240  12.338   2.693
15903W        W84121  25.536  35.925   4.181
15904W        W84122  38.104  21.074   3.338
15905W        W84123  23.815   3.498  13.448
15906W        W84124  19.713  20.827   0.697
15907W        W84125  43.799  19.017  12.612
15908W        W84126  31.934  23.183   1.801
15909W        W84127   5.325  18.870   0.568
15910W        W84128  20.383  10.826  11.111
15911W        W84129  41.511   4.891  13.917
15912W        W84130  20.961  41.560  11.276
15913W        W84131   5.144  21.758  11.032
15914W        W84132   9.844   5.785   1.846
15915W        W84133   3.856  26.076   1.695
15916W        W84134   0.541  13.621   3.245
15917W        W84135  43.683  44.261  13.949
15918W        W84136  39.981  39.244   0.297
15919W        W84137  11.687   7.431   4.037
15920W        W84138  21.283  29.189   3.837
15921W        W84139  32.010   3.719  13.016
15922W        W84140  13.557  30.054   0.375
15923W        W84141  26.475  30.478  14.562
15924W        W84142  34.729  36.161   1.206
15925W        W84143  20.850  36.606   4.216
15926W        W84144  41.024  35.805   3.738
15927W        W84145  14.714  27.690   4.115
15928W        W84146   5.489   1.148   2.356
15929W        W84147  23.605  25.480   4.331
15930W        W84148  37.350  20.015  14.960
15931W        W84149   6.377  33.123   0.945
15932W        W84150  27.839  30.358  13.042
15933W        W84151   6.438  33.397   3.266
15934W        W84152  29.651  29.966  13.025
15935W        W84153   5.277  24.569  10.661
15936W        W84154  37.334  31.499  10.898
15937W        W84155  28.638  38.270   1.435
15938W        W84156   1.836  41.579   3.449
15939W        W84157  15.120  37.042   2.154
15940W        W84158  10.919  38.821   3.631
15941W        W84159  41.362  38.247   2.903
15942W        W84160   6.835   2.327   2.791
15943W        W84161  36.905   5.241   0.226
15944W        W84162  33.591  15.367   4.944
15945W        W84163  29.753  32.284  10.241
15946W        W84164  36.132   4.884  11.924
15947W        W84165  41.376  19.275   0.182
15948W        W84166  14.723  17.048  14.525
15949W        W84167  38.622  32.492   1.247
15950W        W84168  25.686  23.280  14.054
15951W        W84169  35.069   3.477   5.664
15952W        W84170  41.367  33.108   4.418
15953W        W84171  10.344  44.033  11.121
15954W        W84172  27.522  20.646  10.614
15955W        W84173  36.368  13.722   2.627
15956W        W84174   6.056  19.943  14.419
15957W        W84175   7.066  25.471   4.525
15958W        W84176  39.210  21.039  10.994
15959W        W84177  24.723  12.192  14.275
15960W        W84178  25.610   7.618   0.709
15961W        W84179  26.503  34.907  12.482
15962W        W84180   0.528  42.702  14.915
15963W        W84181   0.351   1.915   3.654
15964W        W84182   1.532   1.860   1.261
15965W        W84183   7.336  39.059  13.153
15966W        W84184   7.560   9.304   2.856
15967W        W84185   0.308  19.308   1.750
15968W        W84186  24.452  30.059  11.609
15969W        W84187   6.877  32.572   4.277
15970W        W84188  11.847  11.304  12.623
15971W        W84189  42.892  28.237   3.688
15972W        W84190  18.041  12.825   1.347
15973W        W84191  39.629   5.279  12.120
15974W        W84192  33.385  14.374   4.367
15975W        W84193  21.566  31.915   0.834
15976W        W84194  34.044   7.425  14.830
15977W        W84195  42.027  36.345   3.185
15978W        W84196  41.371  35.860  11.437
15979W        W84197  32.916  23.323   4.172
15980W        W84198   5.826  37.413  12.805
15981W        W84199  13.788   1.133  12.109
15982W        W84200  33.508  15.972   1.403
15983W        W84201  11.889  19.044   0.106
15984W        W84202  23.100  31.926  14.387
15985W        W84203  40.858  17.788   3.363
15986W        W84204  42.905  15.496  14.759
15987W        W84205  34.368  14.896   3.761
15988W        W84206  21.599  43.810   3.246
15989W        W84207  15.607   6.525  14.883
15990W        W84208  37.693  40.093  12.583
15991W        W84209  39.537  44.416  12.457
15992W        W84210  44.771  29.025  11.597
15993W        W84211  10.867  15.166  13.132
15994W        W84212   5.413  35.826  11.977
15995W        W84213   7.858  32.956   1.318
15996W        W84214  38.533  37.162   1.858
15997W        W84215  26.723  32.904   2.014
15998W        W84216   8.966  12.591  12.003
15999W        W84217  42.857  29.224   3.774
16000W        W84218  21.286   1.006  13.423
16001W        W84219   4.221   3.303  11.501
16002W        W84220  13.810   4.481  13.433
16003W        W84221  44.778   8.046   1.864
16004W        W84222  10.837  12.136  10.938
16005W        W84223  32.557  22.628  11.897
16006W        W84224  36.164  32.392   1.894
16007W        W84225  16.291  37.970   0.480
16008W        W84226  15.671  16.256  10.257
16009W        W84227  40.138  20.297  13.855
16010W        W84228  11.765  29.707   2.850
16011W        W84229   5.801  20.505  13.079
16012W        W84230  44.049  38.005  12.771
16013W        W84231  11.339  12.253   1.709
16014W        W84232   4.483   8.253   1.737
16015W        W84233   4.091  34.008   0.040
16016W        W84234  14.380  29.451   3.624
16017W        W84235  18.215   2.737  12.589
16018W        W84236  37.497  42.935   3.758
16019W        W84237  19.286  16.575   1.686
16020W        W84238  41.988  44.365   3.607
16021W        W84239   6.837  39.375   5.225
16022W        W84240  13.424  40.024   0.804
16023W        W84241  31.791   3.060   1.857
16024W        W84242  28.669  38.438   4.603
16025W        W84243  19.087   6.953  14.198
16026W        W84244   6.877  34.609  11.624
16027W        W84245  19.823  43.551   4.121
16028W        W84246   7.087   1.255   0.838
16029W        W84247  19.272   8.779   2.626
16030W        W84248  27.889  17.345  12.198
16031W        W84249  43.511   8.175  14.287
16032W        W84250  30.910  18.179   3.236
16033W        W84251  33.630  14.289   2.640
16034W        W84252  13.867   1.679   4.550
16035W        W84253  32.954   2.415  13.093
16036W        W84254  24.467  37.984  14.761
16037W        W84255  19.255   2.377   1.755
16038W        W84256  27.656   9.407  14.850
16039W        W84257   7.265  36.746  12.439
16040W        W84258   9.144  32.492   1.333
16041W        W84259   8.807  19.057   3.595
16042W        W84260  18.707  11.220   4.002
16043W        W84261   9.140  43.075   3.671
16044W        W84262  16.740  17.936   2.606
16045W        W84263  33.187  35.441  10.273
16046W        W84264  34.779  44.409   2.175
16047W        W84265  23.625  20.063   0.607
16048W        W84266  39.178  31.469   0.874
16049W        W84267  35.961  19.970   4.829
16050W        W84268  30.198   4.909  12.007
16051W        W84269   4.855  30.558   2.116
16052W        W84270  21.494  27.613  14.517
16053W        W84271  15.759  11.932  11.522
16054W        W84272  42.315   2.017   3.273
16055W        W84273   4.302  31.504   1.840
16056W        W84274  24.228  34.906  10.939
16057W        W84275  44.383  26.058   3.412
16058W        W84276  40.496  31.347   0.667
16059W        W84277   2.290  38.926   0.028
16060W        W84278  44.377  27.185  14.079
16061W        W84279  37.355  43.410  14.278
16062W        W84280  12.411  33.367  14.483
16063W        W84281  38.851  41.240  13.396
16064W        W84282  10.860  30.450  11.929
16065W        W84283  25.981  20.534   3.761
16066W        W84284   4.906  15.375   0.286
16067W        W84285  39.290  37.821  14.409
16068W        W84286  20.017  18.514  11.520
16069W        W84287  30.580   8.167   1.217
16070W        W84288  40.337  25.196   0.891
16071W        W84289  37.232  33.481  11.159
16072W        W84290   4.283  40.302  10.170
16073W        W84291  19.824  31.570  12.840
16074W        W84292   1.034  27.545  14.710
16075W        W84293  39.943  31.818   4.014
16076W        W84294   7.162   4.417   0.209
16077W        W84295  40.496   8.500  10.812
16078W        W84296  22.246   6.349   3.096
16079W        W84297  22.995   5.391   1.104
16080W        W84298  39.741   7.414  11.120
16081W        W84299  25.555  27.080  13.118
16082W        W84300  32.540  43.593  12.873
16083W        W84301  29.552  13.861  10.757
16084W        W84302  42.148  21.499  12.682
16085W        W84303  24.074  33.685   1.477
16086W        W84304  14.214  36.428   4.512
16087W        W84305  34.590  41.494   2.766
16088W        W84306  15.591   6.935   4.160
16089W        W84307  16.825   9.786   3.352
16090W        W84308  14.047  12.691  13.420
16091W        W84309  10.711   6.673  13.009
16092W        W84310  32.955   9.708   1.774
16093W        W84311  39.902  32.658  14.827
16094W        W84312  21.698  19.178   3.272
16095W        W84313   2.223   9.153   3.872
16096W        W84314  35.148   9.585   1.161
16097W        W84315  22.727  21.677   1.861
16098W        W84316  30.653  31.740  10.160
16099W        W84317   9.270  22.325  10.971
16100W        W84318  13.618  15.764  11.404
16101W        W84319  15.997  38.518  14.721
16102W        W84320  17.520  18.192  11.877
16103W        W84321   7.877  19.860   2.833
16104W        W84322   3.371  24.083   1.698
16105W        W84323  10.087  40.499   2.462
16106W        W84324  35.501  38.848  14.794
16107W        W84325   6.517   9.853  12.013
16108W        W84326   6.002   5.294   3.179
16109W        W84327  33.226  41.393  13.879
16110W        W84328  27.047   3.265   1.989
16111W        W84329  31.552  34.806  11.083
16112W        W84330  19.507  17.088  14.378
16113W        W84331  12.924  20.638   1.266
16114W        W84332   3.648  37.511  14.815
16115W        W84333  13.403   8.188   4.521
16116W        W84334  17.205  15.410   3.843
16117W        W84335  15.574  19.643  14.332
16118W        W84336  26.517  14.782  13.808
16119W        W84337  39.612  29.092   1.363
16120W        W84338  22.580  30.504  14.048
16121W        W84339   1.880   5.835  13.298
16122W        W84340   5.799   5.248   1.401
16123W        W84341  25.253  31.438   0.771
16124W        W84342  24.616  24.551   2.487
16125W        W84343   7.390  30.166  14.058
16126W        W84344   7.856  43.215   3.144
16127W        W84345   0.908   8.260  14.435
16128W        W84346   6.304  31.242   4.700
16129W        W84347   4.656  43.713  14.815
16130W        W84348  24.674  15.200  11.163
16131W        W84349  10.768   8.788   4.835
16132W        W84350  29.177   5.849   4.639
16133W        W84351  21.176  12.098   1.767
16134W        W84352  15.249  40.636  10.677
16135W        W84353  20.549  21.613  11.644
16136W        W84354   9.198   6.449   1.799
16137W        W84355  29.352   5.861   2.185
16138W        W84356   3.433  13.688  13.836
16139W        W84357   4.022  40.810  14.857
16140W        W84358  33.159   5.700   2.868
16141W        W84359  21.829   8.868   0.250
16142W        W84360  26.886  24.037   0.427
16143W        W84361  30.079  19.816  14.934
16144W        W84362  16.705  28.015   4.127
16145W        W84363  14.262  11.381  13.868
16146W        W84364   6.773  32.660  12.123
16147W        W84365  23.811  34.511   3.312
16148W        W84366  11.333  14.370  11.968
16149W        W84367  14.162  39.769  11.283
16150W        W84368  38.841  17.784  12.777
16151W        W84369  28.230  16.776   0.328
16152W        W84370  34.890   7.550   5.016
16153W        W84371  42.440  21.221  11.302
16154W        W84372  10.835   0.788  14.773
16155W        W84373  27.301  28.533   3.874
16156W        W84374  38.325  20.090   2.463
16157W        W84375  34.172  34.713   1.855
16158W        W84376   7.235   9.871  12.915
16159W        W84377  26.892  19.293   4.678
16160W        W84378   9.440  44.008  12.844
16161W        W84379   9.403   1.328   0.489
16162W        W84380  38.607  12.773   0.684
16163W        W84381  40.215  44.230   0.681
16164W        W84382  35.562  26.488   3.043
16165W        W84383  10.145  36.415   4.210
16166W        W84384  32.339   1.867  10.734
16167W        W84385  31.494   0.861  14.473
16168W        W84386  26.313   1.324  12.960
16169W        W84387  26.205  38.151  12.308
16170W        W84388   9.624  28.544  14.429
16171W        W84389   6.666   6.291   2.343
16172W        W84390  13.391  41.290  10.748
16173W        W84391  13.718  14.682  11.446
16174W        W84392  31.004   6.205   3.165
16175W        W84393  27.732   6.827  11.303
16176W        W84394   6.484   1.011  12.904
16177W        W84395  31.699  23.056  13.486
16178W        W84396   3.365  29.383  10.786
16179W        W84397  32.707  15.250  14.434
16180W        W84398   8.295  40.590   3.161
16181W        W84399   8.434  28.703  12.032
16182W        W84400   9.690   9.839  13.370
16183W        W84401  25.097  41.242  10.744
16184W        W84402  42.929  36.811  14.327
16185W        W84403   2.899   6.739   0.684
16186W        W84404   5.908   1.847   4.853
16187W        W84405  36.673  44.813   0.923
16188W        W84406  23.637   4.126  11.740
16189W        W84407  20.424  41.296   4.158
16190W        W84408  29.217   5.192   2.868
16191W        W84409  12.501  27.495  11.557
16192W        W84410  19.251  30.867  11.079
16193W        W84411  23.539  11.731  14.902
16194W        W84412  14.393  18.710   2.781
16195W        W84413  38.461  31.440  10.617
16196W        W84414  39.613  21.764   3.209
16197W        W84415   2.426  19.228   2.708
16198W        W84416   0.174  20.848   4.226
16199W        W84417  43.031   4.753   4.641
16200W        W84418  12.332  34.302  12.256
16201W        W84419   6.373  30.124  12.348
16202W        W84420  39.111  43.541  14.921
16203W        W84421  36.914  30.388  14.724
16204W        W84422  10.787  32.115   3.791
16205W        W84423  36.852  39.866   0.361
16206W        W84424  11.232  13.765   4.214
16207W        W84425  44.938  41.064  12.764
16208W        W84426  32.133  12.751   1.803
16209W        W84427  31.088  25.434   1.497
16210W        W84428  42.786   5.488   1.828
16211W        W84429  41.829  22.019   1.615
16212W        W84430  33.847   1.900   2.814
16213W        W84431  34.096  45.000  14.842
16214W        W84432  43.077  38.412   2.446
16215W        W84433  10.708  18.358   0.358
16216W        W84434  24.486  41.412   3.527
16217W        W84435  37.955  35.196  14.825
16218W        W84436  30.483  41.385   1.846
16219W        W84437  18.505  40.335   4.859
16220W        W84438  21.682  20.301  14.105
16221W        W84439   8.364  25.450   0.333
16222W        W84440  43.529  11.639  11.508
16223W        W84441  20.200  21.845  12.859
16224W        W84442   0.726   1.826  14.090
16225W        W84443   4.925  39.256   3.236
16226W        W84444  35.089  38.902   2.164
16227W        W84445   3.066  25.706  13.019
16228W        W84446  42.982  26.610   0.343
16229W        W84447  43.402  21.650  13.055
16230W        W84448   8.629  26.241  14.434
16231W        W84449  36.424  18.509   1.502
16232W        W84450  32.998  13.384   3.613
16233W        W84451  28.602  13.298   2.601
16234W        W84452  24.123  38.331  14.905
16235W        W84453  11.824  36.016   4.935
16236W        W84454  31.883  26.145  10.779
16237W        W84455  42.403  10.317   4.381
16238W        W84456  29.899  14.641   2.165
16239W        W84457  19.719  13.819  12.325
16240W        W84458  24.770  32.057  10.711
16241W        W84459  15.768   5.281  13.166
16242W        W84460  36.694  29.147  13.426
16243W        W84461  21.707  25.460  11.449
16244W        W84462   9.180   2.689   1.299
16245W        W84463  19.283  26.668   2.806
16246W        W84464  38.623   3.693  12.849
16247W        W84465  12.306   4.272   3.311
16248W        W84466  42.791   3.313   2.286
16249W        W84467   2.805  30.587   4.167
16250W        W84468  12.577   0.784   2.708
16251W        W84469  14.663  43.730   4.598
16252W        W84470  33.215  20.568  13.912
16253W        W84471  18.881  15.938  13.581
16254W        W84472   2.950  40.828   0.792
16255W        W84473  15.828   8.185  12.982
16256W        W84474  34.087  27.412  13.016
16257W        W84475  19.502  20.253   1.267
16258W        W84476  41.805   2.852  10.929
16259W        W84477  12.364  28.823  12.056
16260W        W84478  27.553  38.926  10.340
16261W        W84479  11.783  12.252  11.110
16262W        W84480   3.268  17.693   2.750
16263W        W84481  35.587  28.550  14.960
16264W        W84482  43.974  44.451  13.556
16265W        W84483  12.757  25.577  14.363
16266W        W84484  24.419  11.686  11.147
16267W        W84485  29.018  32.614   4.618
16268W        W84486  19.953  29.099  14.479
16269W        W84487  36.381  25.414  12.606
16270W        W84488  41.375  25.091  14.834
16271W        W84489  19.576   0.239  11.103
16272W        W84490   4.203  20.332  11.596
16273W        W84491  19.984  12.048   2.285
16274W        W84492  38.603  30.318  13.418
16275W        W84493  42.525  16.833  10.795
16276W        W84494  42.786  44.873   0.758
16277W        W84495  19.250  41.535  13.762
16278W        W84496  11.064  26.234  10.695
16279W        W84497  14.226  26.452  14.003
16280W        W84498   6.327  39.293  11.287
16281W        W84499  14.186  15.119  10.897
16282W        W84500   9.793  20.639  12.081
16283W        W84501  21.588   3.554  10.624
16284W        W84502  32.820  41.057  11.007
16285W        W84503  20.841  32.943  13.023
16286W        W84504  36.968   7.322  12.995
16287W        W84505  16.722  25.499   1.567
16288W        W84506  44.259  29.972  12.932
16289W        W84507  28.860   5.218   1.083
16290W        W84508   5.507  17.863  13.854
16291W        W84509  15.058   0.430  14.949
16292W        W84510  35.181  32.333  11.541
16293W        W84511  38.523   6.572   5.075
16294W        W84512  30.067  20.212   3.846
16295W        W84513  41.007  14.351   0.768
16296W        W84514  29.227  36.547   1.766
16297W        W84515   8.210  15.671  14.835
16298W        W84516  38.313  21.642   1.055
16299W        W84517  42.633  19.035   3.204
16300W        W84518  42.052   5.464   2.597
16301W        W84519  42.826  14.500  13.274
16302W        W84520  39.819  28.499   3.013
16303W        W84521  21.929   2.232   2.811
16304W        W84522  29.151  15.286  11.448
16305W        W84523  36.943  21.181  12.086
16306W        W84524  42.073   3.723   2.705
16307W        W84525  13.762  38.326   2.851
16308W        W84526   8.535  32.330  13.961
16309W        W84527  25.205   1.039  13.365
16310W        W84528  26.865  37.921   1.772
16311W        W84529  20.046  18.180   4.218
16312W        W84530   4.497  16.015  12.091
16313W        W84531  10.107   4.320   4.234
16314W        W84532  40.295  24.526   2.656
16315W        W84533  42.595   5.416  14.985
16316W        W84534   1.928   6.647   3.136
16317W        W84535   1.958  19.210  11.390
16318W        W84536  26.410  43.491   1.428
16319W        W84537  19.437  20.140  12.897
16320W        W84538  32.071  33.976  11.004
16321W        W84539  44.939  24.790   4.964
16322W        W84540  14.220  28.730  14.833
16323W        W84541  22.472   1.363  10.192
16324W        W84542  11.444  31.033  11.502
16325W        W84543   6.861  24.450  12.147
16326W        W84544  26.432   4.366  11.935
16327W        W84545  36.505   6.283   0.634
16328W        W84546  14.538   5.718   2.878
16329W        W84547  29.843  34.857  11.970
16330W        W84548  11.812  28.054   3.889
16331W        W84549  23.329  33.562  10.113
16332W        W84550  21.486   0.474   1.245
16333W        W84551  11.579  18.004   2.286
16334W        W84552  33.499  33.348   3.652
16335W        W84553  17.847   2.374   1.798
16336W        W84554  33.503  10.406   0.334
16337W        W84555   9.730  36.546  14.907
16338W        W84556   6.811  34.920   1.712
16339W        W84557  27.296  31.593   0.411
16340W        W84558  15.833  25.189  11.151
16341W        W84559  14.945  15.841   2.816
16342W        W84560  27.391  33.550  12.083
16343W        W84561   8.243  33.619   3.659
16344W        W84562  36.605  17.586   1.267
16345W        W84563  30.049   2.169   2.247
16346W        W84564  12.597  37.286   3.350
16347W        W84565  44.702  27.501   1.982
16348W        W84566  11.612  25.731  14.955
16349W        W84567  24.037  27.976   1.678
16350W        W84568  29.555   9.145  13.395
16351W        W84569  42.775  16.563  11.978
16352W        W84570  30.243  14.850  12.519
16353W        W84571  32.417  38.969   1.838
16354W        W84572  12.876   6.268  11.113
16355W        W84573  42.048  30.924  10.755
16356W        W84574  27.566  42.203  14.789
16357W        W84575  25.413  21.787  12.409
16358W        W84576   9.744  44.257   2.656
16359W        W84577  22.166  41.835   1.621
16360W        W84578  25.751  36.974   1.501
16361W        W84579  38.898  44.570   0.798
16362W        W84580   9.092  33.056   0.947
16363W        W84581  32.543  29.161   3.849
16364W        W84582  37.045  20.121   0.665
16365W        W84583   9.649  22.220   2.680
16366W        W84584  15.888  39.593   3.186
16367W        W84585  41.827   6.193  10.993
16368W        W84586  17.595  38.393  14.740
16369W        W84587   1.960  31.332   1.234
16370W        W84588  13.560   8.390   0.746
16371W        W84589  31.880  16.286   5.759
16372W        W84590  43.018  44.518   4.704
16373W        W84591  33.998  39.111   0.205
16374W        W84592  43.544  40.527   0.419
16375W        W84593  17.871  14.512  11.812
16376W        W84594  32.170   3.851  12.416
16377W        W84595   0.300  44.857  12.575
16378W        W84596  26.406  13.055   2.971
16379W        W84597  22.073   0.248  13.526
16380W        W84598  40.278  35.479  12.054
16381W        W84599  38.264  44.773  14.679
16382W        W84600  31.951  33.568   1.359
16383W        W84601   1.663  30.700  11.674
16384W        W84602  44.399   4.325   4.075
16385W        W84603   8.402  14.695  13.508
16386W        W84604  35.470  15.362   1.723
16387W        W84605   8.384  36.357  14.780
16388W        W84606  16.479   3.716  13.357
16389W        W84607   4.847  22.471  14.983
16390W        W84608  14.935  14.551  10.865
16391W        W84609  39.425  25.192   2.376
16392W        W84610  20.541  21.090   1.252
16393W        W84611  24.106  36.397  10.383
16394W        W84612  33.337  20.373  10.893
16395W        W84613  20.531  22.771  11.838
16396W        W84614  13.137  42.302   3.042
16397W        W84615  42.488  36.447  11.610
16398W        W84616  11.302   8.239   4.913
16399W        W84617  26.147  14.629   3.267
16400W        W84618   5.828   9.964  13.615
16401W        W84619  39.491  13.224   0.486
16402W        W84620  42.727  13.632   1.305
16403W        W84621  20.735   8.255  14.494
16404W        W84622  11.383  41.064  14.078
16405W        W84623   3.501  11.242   0.945
16406W        W84624  18.117   7.889  11.617
16407W        W84625  25.586   8.213   2.836
16408W        W84626  44.214   9.736  11.994
16409W        W84627  35.674  32.946   4.062
16410W        W84628   3.520  21.633   1.279
16411W        W84629  32.355  28.886   0.837
16412W        W84630   4.968  16.753   5.056
16413W        W84631  13.243  33.764  11.477
16414W        W84632  23.072  17.291   4.138
16415W        W84633  42.094  16.807   4.260
16416W        W84634  35.845   3.901  12.487
16417W        W84635   2.800  23.936   3.204
16418W        W84636  20.184  17.622   4.517
16419W        W84637  35.322   3.908  10.205
16420W        W84638   8.872  36.046   3.143
16421W        W84639   5.847  24.105   3.100
16422W        W84640  15.910  16.625   1.906
16423W        W84641  25.771  38.383   4.141
16424W        W84642  23.229   1.467  11.270
16425W        W84643  19.223  16.898  12.489
16426W        W84644  41.842   8.547  10.738
16427W        W84645   9.128  36.673  11.194
16428W        W84646   4.291  26.586  11.175
16429W        W84647  23.507  12.776   3.893
16430W        W84648  16.010  20.168  12.191
16431W        W84649   1.603  18.880  12.113
16432W        W84650  29.603  20.831   4.695
16433W        W84651  33.738  12.564   1.249
16434W        W84652   1.380  33.345  10.575
16435W        W84653  38.256  32.013  13.269
16436W        W84654  19.012   7.679   2.293
16437W        W84655  10.798  29.481  14.533
16438W        W84656  15.376  36.050  10.919
16439W        W84657  24.812  14.652  14.438
16440W        W84658  20.607  32.679  13.437
16441W        W84659   7.373  43.948   5.557
16442W        W84660   3.476  11.407   4.523
16443W        W84661  25.215  12.625   3.453
16444W        W84662  32.025  11.600   0.473
16445W        W84663  28.542   5.651   2.383
16446W        W84664  14.244  39.552   1.696
16447W        W84665  44.791  32.188   2.778
16448W        W84666  27.377  31.450   4.202
16449W        W84667  15.234  21.451  13.082
16450W        W84668  41.635  19.089   3.683
16451W        W84669  15.744   3.254   3.733
16452W        W84670   8.760  23.108  12.339
16453W        W84671   3.861   1.275   0.040
16454W        W84672  38.500  37.563   0.614
16455W        W84673  24.650  36.185  14.767
16456W        W84674  21.078  23.454  12.946
16457W        W84675  41.576   5.123   3.765
16458W        W84676   4.177  20.242  12.426
16459W        W84677  17.548   2.548  11.043
16460W        W84678  18.614  21.097   1.368
16461W        W84679  18.269  14.121   1.756
16462W        W84680  43.306  13.226   3.117
16463W        W84681  43.281  39.052  12.371
16464W        W84682  41.800  34.964  11.365
16465W        W84683  22.024  26.524   0.733
16466W        W84684  12.240  27.875   4.368
16467W        W84685  44.434  38.942  10.820
16468W        W84686  36.899  15.639   4.373
16469W        W84687  22.054  41.419  13.545
16470W        W84688  24.626  23.202  12.512
16471W        W84689   7.482  37.329   0.465
16472W        W84690   9.574  32.779  11.838
16473W        W84691   2.354   6.856   3.358
16474W        W84692   3.697  32.179  14.320
16475W        W84693  21.775   5.841   1.910
16476W        W84694  15.633  16.795   0.020
16477W        W84695  34.121  21.041  12.431
16478W        W84696  17.522  36.977   2.649
16479W        W84697  11.132  37.837  11.063
16480W        W84698  22.208  44.762   2.151
16481W        W84699  11.590  26.177  10.648
16482W        W84700   7.889  10.963   3.632
16483W        W84701  21.033  34.045  11.899
16484W        W84702   9.273   0.366   4.610
16485W        W84703  19.239  12.760   0.882
16486W        W84704  20.931  21.718   1.715
16487W        W84705   6.840  21.615  14.493
16488W        W84706  31.663  35.445  11.497
16489W        W84707  10.418   6.190   2.271
16490W        W84708  23.447   9.409  13.867
16491W        W84709  43.486   6.417   1.386
16492W        W84710  20.179  15.479   0.650
16493W        W84711  22.743  13.669   1.151
16494W        W84712  39.795   3.929   2.584
16495W        W84713  38.078  42.717  13.538
16496W        W84714   1.278  29.643  11.832
16497W        W84715  23.788   4.416   1.279
16498W        W84716  42.675  11.795   3.354
16499W        W84717  10.698  27.142  14.528
16500W        W84718   2.785  24.939   3.132
16501W        W84719  38.989   3.179   3.857
16502W        W84720  29.113  18.519  10.686
16503W        W84721  23.604  40.196  13.795
16504W        W84722  37.068   4.366   3.763
16505W        W84723  40.817  29.138   4.490
16506W        W84724  21.608   2.028  10.433
16507W        W84725   1.339   3.996  12.517
16508W        W84726  42.886   4.352  14.387
16509W        W84727   1.377  34.215   4.671
16510W        W84728   0.881  16.300   0.332
16511W        W84729  30.080   2.677  10.082
16512W        W84730  20.782   2.290   2.751
16513W        W84731  33.955  11.854   3.263
16514W        W84732  12.858  35.953   3.221
16515W        W84733  30.167  10.535   0.426
16516W        W84734  32.590  24.158  11.206
16517W        W84735  21.049  20.836  12.603
16518W        W84736  40.538  10.673  11.535
16519W        W84737  18.832  30.413  13.946
16520W        W84738  40.202  41.238   3.133
16521W        W84739   5.514  34.223   0.717
16522W        W84740  26.262  26.606   4.431
16523W        W84741  13.163  20.437   0.796
16524W        W84742  42.451  22.606   4.544
16525W        W84743   1.228  36.506  12.414
16526W        W84744  18.001   6.338   4.006
16527W        W84745  10.295  23.987   3.069
16528W        W84746  15.381  34.209  11.060
16529W        W84747  32.663   5.746   2.714
16530W        W84748   2.734  37.606  13.123
16531W        W84749   1.789  39.977   0.811
16532W        W84750  20.750  18.752  14.513
16533W        W84751  22.198  32.980   3.677
16534W        W84752  21.024  31.680   2.863
16535W        W84753  20.375  28.802   1.811
16536W        W84754  38.907  22.661  13.845
16537W        W84755  15.325  10.735  13.966
16538W        W84756   5.682   4.246  14.435
16539W        W84757   4.000  36.163   2.249
16540W        W84758  26.929  28.509  12.345
16541W        W84759  36.939  38.428  12.272
16542W        W84760  11.646   9.342  14.910
16543W        W84761   7.618  37.537   3.256
16544W        W84762   9.850  43.353  12.413
16545W        W84763  18.534  31.832   4.915
16546W        W84764  16.759   8.459   2.659
16547W        W84765  40.446  10.767   3.662
16548W        W84766   0.449  31.825   3.424
16549W        W84767  41.328  26.166   0.137
16550W        W84768   0.547  41.294  14.877
16551W        W84769  25.425  33.997  14.231
16552W        W84770  40.126   7.741   0.672
16553W        W84771  23.539  41.109   3.309
16554W        W84772  28.124  25.452  12.797
16555W        W84773  20.120   3.419  11.541
16556W        W84774  29.081  35.152  12.947
16557W        W84775  12.678  29.960  10.688
16558W        W84776  20.017   6.899   0.753
16559W        W84777   5.307   9.324  11.823
16560W        W84778  12.356  21.085   1.951
16561W        W84779  25.117  16.100  13.418
16562W        W84780  40.288  39.900   0.411
16563W        W84781  32.113  17.267   3.135
16564W        W84782  32.841  44.992  13.073
16565W        W84783  10.159  43.057   5.056
16566W        W84784   8.715  21.136   0.479
16567W        W84785  31.871  30.079   5.121
16568W        W84786   2.022  15.049  13.055
16569W        W84787  37.659  17.967   0.604
16570W        W84788  14.498  15.626  14.254
16571W        W84789  22.469   9.319   2.742
16572W        W84790  21.111   7.808  13.957
16573W        W84791  34.945  28.326  13.912
16574W        W84792  41.380  42.820   2.193
16575W        W84793  42.781  27.002   4.509
16576W        W84794  20.684   5.669  11.745
16577W        W84795  37.085  25.566   3.161
16578W        W84796  24.567  40.483   0.394
16579W        W84797  43.416   2.742  14.883
16580W        W84798  29.952  30.876  11.466
16581W        W84799   5.143   7.919  14.739
16582W        W84800  17.698  40.698  11.709
16583W        W84801  11.187  36.720   1.450
16584W        W84802  15.311  19.132  14.995
16585W        W84803  20.796  22.502   4.164
16586W        W84804   4.939   7.876   3.239
16587W        W84805  19.056   7.256   1.966
16588W        W84806   6.049   9.521  14.976
16589W        W84807  26.876   5.928  13.200
16590W        W84808  21.758  34.395  13.510
16591W        W84809  17.410  13.662   2.814
16592W        W84810  32.890  22.116  10.417
16593W        W84811  38.843  18.763  13.022
16594W        W84812  35.644   0.029  13.070
16595W        W84813  34.010  25.001  10.694
16596W        W84814  42.315   7.429   4.142
16597W        W84815   7.220   5.967  11.142
16598W        W84816  34.161  13.219  11.033
16599W        W84817  17.876  17.749   4.169
16600W        W84818   0.236  39.066  14.052
16601W        W84819   4.974  38.433  14.629
16602W        W84820  16.755   8.546  11.587
16603W        W84821  11.306  41.899   0.857
16604W        W84822  38.524  18.482  10.510
16605W        W84823  35.377  29.154   3.154
16606W        W84824  36.458  32.747   4.333
16607W        W84825  16.135  22.350  14.872
16608W        W84826  11.138   7.197   3.103
16609W        W84827  26.043  28.761   0.261
16610W        W84828   7.760  22.473  11.550
16611W        W84829  29.115   5.348  14.063
16612W        W84830  16.354  43.813  11.161
16613W        W84831  38.250  39.289  12.864
16614W        W84832  28.506  44.628  13.811
16615W        W84833   4.669   0.468   2.183
16616W        W84834  34.734  43.747  10.666
16617W        W84835   0.217  34.398  14.863
16618W        W84836   4.705  44.475   5.039
16619W        W84837  36.837  20.280   1.124
16620W        W84838  11.502  27.398   1.821
16621W        W84839  40.461   7.442   1.981
16622W        W84840  31.923  41.912   4.597
16623W        W84841  37.295  38.558  11.080
16624W        W84842  18.798  44.605  12.372
16625W        W84843  12.387  11.494   3.260
16626W        W84844  26.493  26.649  13.115
16627W        W84845  15.557  33.574   1.500
16628W        W84846  44.251  14.080  13.629
16629W        W84847  34.217   0.388  12.287
16630W        W84848  37.436  42.002  11.164
16631W        W84849   8.660  27.106   0.827
16632W        W84850  33.962  17.147  13.931
16633W        W84851   0.868  27.966   5.384
16634W        W84852   7.170  34.187  14.068
16635W        W84853   7.679  28.771   1.318
16636W        W84854  35.107  20.698   2.269
16637W        W84855  31.548  41.007  10.707
16638W        W84856  37.864  11.536   1.192
16639W        W84857  36.364  36.709   0.246
16640W        W84858   0.231  29.718   4.058
16641W        W84859  24.199  10.734  11.515
16642W        W84860  39.113  39.604  14.842
16643W        W84861  19.150   3.383   0.356
16644W        W84862  18.324  16.312  11.986
16645W        W84863  21.595  44.843   0.403
16646W        W84864  17.841  26.529   1.824
16647W        W84865  38.497  16.481   0.465
16648W        W84866   4.455  14.366   4.181
16649W        W84867  23.681  20.737  14.936
16650W        W84868  32.105   0.451   4.019
16651W        W84869  11.880  20.700   0.735
16652W        W84870  11.864  36.094   3.333
16653W        W84871  24.410  35.991  13.044
16654W        W84872  25.503  20.911   3.333
16655W        W84873  33.180  25.904   5.018
16656W        W84874  29.917  27.174   0.865
16657W        W84875  12.624  22.112  13.659
16658W        W84876  31.820  33.171   2.192
16659W        W84877  39.426  36.106   0.454
16660W        W84878  26.418  20.235   4.621
16661W        W84879  10.109  12.847  10.211
16662W        W84880  13.984  14.213  13.477
16663W        W84881  26.545  24.785   3.848
16664W        W84882   0.841   3.860  12.570
16665W        W84883  34.821  42.016   4.487
16666W        W84884  19.827  24.388   2.936
16667W        W84885  30.055   2.857   1.938
16668W        W84886  19.324  33.044  14.789
16669W        W84887  37.138  13.786   4.307
16670W        W84888  24.284  15.323  14.009
16671W        W84889   2.678  21.480   2.156
16672W        W84890   6.918   0.655   0.243
16673W        W84891  43.499  31.051   3.870
16674W        W84892   1.990  31.652  12.949
16675W        W84893   0.283  34.015   3.152
16676W        W84894   1.303  34.180   2.172
16677W        W84895  40.291  26.368  13.052
16678W        W84896  26.014  30.561   2.712
16679W        W84897  36.090  44.991  10.699
16680W        W84898  13.158  12.237   4.502
16681W        W84899  12.151  37.816  12.415
16682W        W84900  14.588  41.349   4.489
16683W        W84901  35.766  43.825  12.425
16684W        W84902  38.445  38.496  12.481
16685W        W84903  14.200  43.091   0.424
16686W        W84904   0.486  27.558   1.015
16687W        W84905  34.652   5.768   3.531
16688W        W84906   8.122  27.505  14.552
16689W        W84907  30.862  15.566   1.415
16690W        W84908  24.480  36.100  11.082
16691W        W84909  22.554   8.653   2.216
16692W        W84910  31.362  26.739   1.662
16693W        W84911  28.581  25.594  12.998
16694W        W84912  14.099  28.521   2.549
16695W        W84913   0.754  42.434   4.469
16696W        W84914  19.226   7.265   1.428
16697W        W84915  34.889  25.091  10.679
16698W        W84916  35.105   1.816  14.806
16699W        W84917  37.705  14.240  12.010
16700W        W84918  38.578  40.395  14.921
16701W        W84919  27.481  40.424   0.233
16702W        W84920  21.157  20.309  11.478
16703W        W84921  38.447  21.536  14.009
16704W        W84922  18.963  33.448  14.411
16705W        W84923   4.472   5.527   0.936
16706W        W84924  18.614  14.814  14.166
16707W        W84925   6.161  36.460   2.493
16708W        W84926  20.136  16.267  14.431
16709W        W84927  43.283  17.361  11.948
16710W        W84928  37.421  26.417  12.423
16711W        W84929   8.915  35.118   0.844
16712W        W84930  16.376   8.332   3.807
16713W        W84931  13.224  40.824   4.100
16714W        W84932  15.240  14.081  12.099
16715W        W84933  19.282  14.644  12.913
16716W        W84934  40.752  38.758  12.975
16717W        W84935  22.813  33.886  12.972
16718W        W84936  32.171  15.581   3.274
16719W        W84937  35.588  35.512  14.958
16720W        W84938  28.187  37.006   1.359
16721W        W84939  41.301  37.291  14.081
16722W        W84940   8.904  33.127   2.397
16723W        W84941  42.847  22.246  14.351
16724W        W84942  37.310   0.476   1.375
16725W        W84943  32.567  11.924   1.383
16726W        W84944  12.737  40.778  11.067
16727W        W84945  26.186  16.719   0.685
16728W        W84946  34.624  13.413   4.207
16729W        W84947  36.692  21.091  13.891
16730W        W84948   6.816  19.154  14.172
16731W        W84949  16.631   7.282  10.963
16732W        W84950   7.604  28.500  11.587
16733W        W84951  14.159  34.497   4.757
16734W        W84952  29.618  25.680  14.857
16735W        W84953  28.386  12.199  12.308
16736W        W84954  36.993  11.179  14.742
16737W        W84955  15.267  19.112   0.530
16738W        W84956  24.193   0.358  11.225
16739W        W84957  13.824  20.055  14.539
16740W        W84958  26.128   8.001  10.892
16741W        W84959   5.915  31.505  13.882
16742W        W84960  40.046  23.594  11.743
16743W        W84961  14.738  33.516  13.365
16744W        W84962   9.601  38.125   1.385
16745W        W84963   3.883   4.448  11.781
16746W        W84964  35.522  43.710  11.995
16747W        W84965  16.096  42.833  11.231
16748W        W84966  39.255   0.342  14.314
16749W        W84967  22.582  24.390   3.184
16750W        W84968  29.672   4.499  11.219
16751W        W84969  43.350   0.502  11.583
16752W        W84970  26.421  31.460   3.624
16753W        W84971  30.198  13.786   4.932
16754W        W84972  18.046  17.566  12.498
16755W        W84973  34.909  22.081  11.580
16756W        W84974  18.181  33.246  10.165
16757W        W84975  42.937  20.787   2.252
16758W        W84976   0.282  32.393   2.851
16759W        W84977  13.397  40.227   1.279
16760W        W84978  16.506   8.990   1.768
16761W        W84979  16.001   6.737  14.267
16762W        W84980   0.761  33.331  12.100
16763W        W84981  42.325  37.097   1.777
16764W        W84982  44.129  17.892  10.687
16765W        W84983  29.882  42.630   4.388
16766W        W84984  20.664  41.914   4.739
16767W        W84985  40.465  40.917   0.200
16768W        W84986  17.535   6.223  13.541
16769W        W84987  35.368  31.918  13.736
16770W        W84988  37.364  27.675   3.265
16771W        W84989   7.633  12.733   3.246
16772W        W84990  27.077  12.587  13.805
16773W        W84991  23.853  16.609  11.569
16774W        W84992  13.363  30.996  11.265
16775W        W84993  27.053  16.145   4.468
16776W        W84994  28.083   7.251  13.928
16777W        W84995  41.522  43.348  10.688
16778W        W84996   8.869  34.578  10.684
16779W        W84997  29.297   9.844   0.171
16780W        W84998  37.836  18.274  10.354
16781W        W84999   4.948  31.753  10.798
16782W        W85000  33.605  22.730  14.417
16783W        W85001  32.842  33.852  13.004
16784W        W85002   5.790  27.318   4.546
16785W        W85003  34.380   3.411  13.417
16786W        W85004  36.383  16.110  12.382
16787W        W85005  11.790  22.104  12.049
16788W        W85006  11.324  15.592   3.304
16789W        W85007  16.327   3.125  12.461
16790W        W85008  29.371  23.655   0.735
16791W        W85009   9.671  18.309  12.857
16792W        W85010  28.429  16.651   1.034
16793W        W85011   5.580  35.220   1.002
16794W        W85012  28.750   6.369   4.110
16795W        W85013   8.895  38.813   2.556
16796W        W85014  16.611   2.930   2.344
16797W        W85015  37.747  12.090  14.520
16798W        W85016  37.767  43.264   4.277
16799W        W85017  40.778  34.064  13.483
16800W        W85018   0.906  12.102  13.650
16801W        W85019  37.349  19.790  10.630
16802W        W85020   1.997  25.997   4.225
16803W        W85021  10.629  40.411   4.712
16804W        W85022  24.138  12.791   2.632
16805W        W85023  30.360   4.264  12.681
16806W        W85024  24.815  29.658  14.487
16807W        W85025   2.954  44.039   2.721
16808W        W85026  30.089  42.313  12.409
16809W        W85027  13.536  26.131  13.004
16810W        W85028   2.740  26.910  11.142
16811W        W85029   0.512   0.006   3.832
16812W        W85030  21.193  12.779   4.698
16813W        W85031  26.701  36.909   3.187
16814W        W85032  21.657  44.202   4.943
16815W        W85033   6.102  15.979   4.006
16816W        W85034  43.074  20.236  12.587
16817W        W85035  30.343  35.580   2.102
16818W        W85036  23.480  32.858   1.396
16819W        W85037  12.051  27.702   2.879
16820W        W85038  33.126   1.066  10.730
16821W        W85039  29.775  18.885   5.018
16822W        W85040   1.773  23.402   2.173
16823W        W85041  43.286  34.000   4.148
16824W        W85042  38.033  32.113   2.321
16825W        W85043  22.915  27.766   0.373
16826W        W85044  32.059  11.756  12.965
16827W        W85045  16.938  43.997   2.136
16828W        W85046   3.741   1.245   3.153
16829W        W85047  33.439  27.799   4.006
16830W        W85048  40.408  17.143   0.658
16831W        W85049  28.028  39.523   0.209
16832W        W85050  25.487  37.411   1.694
16833W        W85051  33.141  17.061  12.085
16834W        W85052   5.909  23.101   3.322
16835W        W85053  23.278  35.943   4.732
16836W        W85054   8.143  18.158  12.002
16837W        W85055  20.934   7.126  14.865
16838W        W85056   6.714  30.886   1.710
16839W        W85057   3.701   7.945   1.742
16840W        W85058  20.078  41.379  12.527
16841W        W85059  14.650  22.228  11.042
16842W        W85060  34.531  21.728  11.676
16843W        W85061  17.102  36.596   2.235
16844W        W85062  33.311  36.881  14.716
16845W        W85063   4.904   9.670  13.785
16846W        W85064  40.891  13.433   3.315
16847W        W85065   2.941  17.844   3.461
16848W        W85066  22.335   5.297   3.325
16849W        W85067   1.347  14.097   1.491
16850W        W85068  18.260  20.544  13.510
16851W        W85069  28.667  12.615   3.652
16852W        W85070  27.537  43.351   0.883
16853W        W85071  28.411  29.549  14.056
16854W        W85072  27.436  41.457  10.701
16855W        W85073  42.314   2.527   3.213
16856W        W85074   2.466   1.314  11.551
16857W        W85075  24.643  41.381   4.007
16858W        W85076  40.804   1.299   4.900
16859W        W85077  19.100   4.514  13.482
16860W        W85078  34.173  17.501   1.554
16861W        W85079  27.000  40.825  14.734
16862W        W85080  27.891  21.009  12.917
16863W        W85081  13.090  14.064  13.833
16864W        W85082  24.745   4.363   3.187
16865W        W85083  35.738  30.907  11.065
16866W        W85084  25.652  38.921  13.988
16867W        W85085  43.564  43.196   2.010
16868W        W85086   1.758  17.203   0.537
16869W        W85087  29.610  29.733   5.244
16870W        W85088  21.259  23.268  11.352
16871W        W85089  29.573  43.234   3.118
16872W        W85090  10.640   1.680   0.204
16873W        W85091  13.401  30.100  13.851
16874W        W85092  31.083  37.471  13.580
16875W        W85093  29.836  40.242  10.762
16876W        W85094  36.001  31.228  12.451
16877W        W85095  23.249  25.203   3.908
16878W        W85096  26.967  21.034   4.334
16879W        W85097  37.067  42.793  13.583
16880W        W85098  23.180   0.997   0.293
16881W        W85099  22.185   8.485  11.511
16882W        W85100  37.076  15.166  13.268
16883W        W85101  41.497  40.009   0.559
16884W        W85102  38.747  40.706  13.076
16885W        W85103   5.437   0.503   0.252
16886W        W85104  15.175  31.051   2.720
16887W        W85105   0.379  41.377   1.426
16888W        W85106  23.615  33.492   9.681
16889W        W85107  29.192   8.238   0.370
16890W        W85108   9.357  31.214   1.210
16891W        W85109  37.993  23.474   2.864
16892W        W85110  42.813  17.057  11.153
16893W        W85111   8.386  42.360  12.779
16894W        W85112   0.415  39.337   4.090
16895W        W85113   6.588   6.295   1.497
16896W        W85114  29.967  25.932   3.232
16897W        W85115   0.767  28.212  10.262
16898W        W85116  37.562   4.751   0.087
16899W        W85117  24.195  15.738   1.700
16900W        W85118   6.688  21.611  11.867
16901W        W85119  12.315  18.868   1.245
16902W        W85120  17.225   0.804  13.341
16903W        W85121  17.437   9.629  14.967
16904W        W85122  24.030  23.614   4.092
16905W        W85123  44.950  32.010   1.768
16906W        W85124   0.548  19.224   0.352
16907W        W85125  35.386  16.312   4.500
16908W        W85126  11.788  31.043  13.881
16909W        W85127  13.453  38.571   3.629
16910W        W85128  22.725   6.247   0.478
16911W        W85129   6.323  27.726  11.116
16912W        W85130  20.053  15.639   3.196
16913W        W85131  17.577   9.737  11.160
16914W        W85132  24.584  31.729   2.410
16915W        W85133  35.400   9.878  10.616
16916W        W85134  23.196  38.346  14.323
16917W        W85135  11.562  43.541   1.477
16918W        W85136  16.503  34.134   1.140
16919W        W85137  37.468  12.926  13.324
16920W        W85138  38.027  34.842  12.889
16921W        W85139  36.909  12.830   4.304
16922W        W85140   0.951  23.477   3.502
16923W        W85141  36.105  43.344   1.378
16924W        W85142  11.546  41.820   4.522
16925W        W85143  37.835  23.055   1.358
16926W        W85144  10.306   1.225   1.218
16927W        W85145  11.734  37.001  10.707
16928W        W85146  11.967  43.433  11.477
16929W        W85147  41.988  12.736   4.993
16930W        W85148  39.726  27.072   0.410
16931W        W85149  44.496  19.568   3.714
16932W        W85150   0.510  40.540   4.540
16933W        W85151  33.016  33.893  14.966
16934W        W85152  18.712  13.485  12.415
16935W        W85153  28.432  22.508  14.291
16936W        W85154  33.565  22.858   3.616
16937W        W85155  43.748  10.413  10.457
16938W        W85156  34.909  12.056  12.282
16939W        W85157  21.360  23.774   0.021
16940W        W85158   4.799  24.056   0.298
16941W        W85159  44.250  32.318   1.195
16942W        W85160  15.828  27.983   4.661
16943W        W85161   2.384  33.628   3.190
16944W        W85162  17.996   2.406   1.285
16945W        W85163  13.672  23.620  14.371
16946W        W85164   3.830  25.617   3.916
16947W        W85165  39.549  19.195   4.528
16948W        W85166   9.713   8.058   4.508
16949W        W85167  28.411  19.347   1.339
16950W        W85168  28.844  17.697  13.315
16951W        W85169   0.414  39.318   2.633
16952W        W85170   1.886  16.775  13.886
16953W        W85171  28.060  30.688  12.716
16954W        W85172   1.083  16.928   1.300
16955W        W85173  23.031  40.813   1.994
16956W        W85174  20.104  17.282   0.180
16957W        W85175  33.548   6.706  14.997
16958W        W85176  37.026   9.447   0.798
16959W        W85177  27.026  21.212   2.343
16960W        W85178  41.332  33.987   4.122
16961W        W85179   7.729  38.648   0.613
16962W        W85180  25.499  34.513   2.711
16963W        W85181  30.154  39.912   0.534
16964W        W85182  19.261  26.180   2.694
16965W        W85183   0.229  40.354   2.723
16966W        W85184   5.033   3.005  13.738
16967W        W85185  41.552  27.170  12.986
16968W        W85186  40.126   0.816  13.448
16969W        W85187  38.013   4.932  11.359
16970W        W85188  10.577  20.604   4.938
16971W        W85189  36.976  23.723   3.786
16972W        W85190  26.884  12.996   2.830
16973W        W85191  21.555  27.208   0.918
16974W        W85192  25.485   7.504   1.772
16975W        W85193  30.459   1.374  11.981
16976W        W85194   3.309  31.409   4.862
16977W        W85195  22.682  18.663  10.580
16978W        W85196  16.466  26.875  13.558
16979W        W85197  18.103  30.135  11.922
16980W        W85198   0.264  42.463  11.959
16981W        W85199  14.850  17.689   1.510
16982W        W85200  12.834  22.472   4.089
16983W        W85201  11.939  20.949  13.509
16984W        W85202  24.545  26.428   0.472
16985W        W85203   2.124  18.743  12.036
16986W        W85204  37.097  36.054   3.093
16987W        W85205  27.533   8.318  13.386
16988W        W85206  31.458  10.187  11.483
16989W        W85207   6.369  12.354  13.699
16990W        W85208  43.892  38.449  14.692
16991W        W85209  37.260  20.351   3.634
16992W        W85210  26.956   5.912   4.569
16993W        W85211  35.966   9.082  14.931
16994W        W85212   5.864  33.032   0.677
16995W        W85213  26.095   9.136  14.945
16996W        W85214  18.918  38.184   3.656
16997W        W85215  27.500   6.329  14.990
16998W        W85216   5.389   5.746   3.656
16999W        W85217  38.740   6.528  12.950
17000W        W85218   7.771  23.677   1.885
17001W        W85219  20.098   7.277  12.514
17002W        W85220  21.797  34.171  11.527
17003W        W85221  41.920  36.038   3.582
17004W        W85222  13.409  43.716   2.697
17005W        W85223  13.208  33.214   0.620
17006W        W85224  42.729  18.765  11.856
17007W        W85225   4.019   0.599  10.428
17008W        W85226  16.144   9.162   4.146
17009W        W85227  23.957  18.078  14.543
17010W        W85228  31.034   7.136  13.942
17011W        W85229  39.633   6.464   1.185
17012W        W85230   8.955   0.848   4.723
17013W        W85231  36.522  11.432   0.791
17014W        W85232   0.796  32.093  14.310
17015W        W85233  37.287  12.326  14.439
17016W        W85234  28.406  16.858  12.917
17017W        W85235   6.877  31.684   4.294
17018W        W85236  27.460  28.851   0.991
17019W        W85237   3.841   9.419   1.406
17020W        W85238  23.957   1.912  13.658
17021W        W85239   8.625  16.882  13.846
17022W        W85240  17.661  31.421   2.355
17023W        W85241  11.960  17.781   4.101
17024W        W85242  21.062  13.721  11.515
17025W        W85243  21.763  17.153   0.757
17026W        W85244   8.746  18.867  11.612
17027W        W85245  29.278  37.938  13.601
17028W        W85246   9.768  23.920   3.814
17029W        W85247  22.641  41.953   3.940
17030W        W85248  12.097   6.948  11.127
17031W        W85249  30.663   2.676  13.576
17032W        W85250   3.458  13.864  11.619
17033W        W85251  22.829  12.187  10.719
17034W        W85252  25.493  18.159   1.371
17035W        W85253  16.076  32.664  11.031
17036W        W85254  40.960  34.808   4.628
17037W        W85255  43.936   0.666  11.587
17038W        W85256  29.048  31.949   0.175
17039W        W85257  41.531  23.720  13.476
17040W        W85258  20.226   8.326   2.307
17041W        W85259  11.966   2.416  11.018
17042W        W85260   8.699  13.542  12.994
17043W        W85261  26.455  44.766   3.631
17044W        W85262  44.902   0.529   2.717
17045W        W85263  29.879  22.645   4.706
17046W        W85264  24.369   2.060  13.366
17047W        W85265   1.725  24.145   2.621
17048W        W85266  18.280  20.719   0.821
17049W        W85267   0.375  12.147  14.971
17050W        W85268  19.182   8.919   4.735
17051W        W85269  38.327  13.840  12.571
17052W        W85270   7.110  37.099   1.728
17053W        W85271  35.753   6.275  11.061
17054W        W85272  43.390  37.462  14.040
17055W        W85273  38.631   5.041  10.920
17056W        W85274  30.443  25.753   3.189
17057W        W85275   8.894  41.921  14.387
17058W        W85276  23.959   1.484   1.798
17059W        W85277   6.624  35.534   2.365
17060W        W85278  16.816   8.037   4.334
17061W        W85279   3.494  37.874  12.440
17062W        W85280  16.312  36.766  14.998
17063W        W85281  29.206  24.831   5.089
17064W        W85282  26.470  14.618  14.310
17065W        W85283  24.099  23.482  13.715
17066W        W85284  21.329   7.835   0.735
17067W        W85285  40.176  18.693   2.774
17068W        W85286  12.131   2.359   1.889
17069W        W85287   0.968  22.775   5.101
17070W        W85288  42.204  34.866   0.343
17071W        W85289  13.308  21.063  12.391
17072W        W85290  11.076  10.865   1.340
17073W        W85291   5.946  20.524   4.791
17074W        W85292  14.380   8.442  14.470
17075W        W85293  17.522  10.804   2.653
17076W        W85294   6.876  17.975  13.916
17077W        W85295  25.734  24.170  13.904
17078W        W85296  24.014  18.722  14.038
17079W        W85297  26.534  32.536   2.765
17080W        W85298  42.571  10.894  13.424
17081W        W85299   3.799  31.569   2.714
17082W        W85300   0.285  16.895   2.082
17083W        W85301   1.333   4.987   3.749
17084W        W85302  38.115  14.225   2.620
17085W        W85303  44.376   4.649  12.565
17086W        W85304  15.800  38.969  14.460
17087W        W85305  22.307   2.317   1.323
17088W        W85306   0.917  25.125   0.049
17089W        W85307  11.100  38.888  12.160
17090W        W85308  21.041  10.516   1.681
17091W        W85309   1.241   5.382   4.535
17092W        W85310  36.732  23.539  12.497
17093W        W85311  40.324  16.333   2.800
17094W        W85312  26.821  18.599   3.019
17095W        W85313   7.301  38.361  12.495
17096W        W85314   4.162  27.570   4.585
17097W        W85315   1.226   4.463   4.486
17098W        W85316   5.544  38.050  10.438
17099W        W85317   5.954  11.302   4.115
17100W        W85318  15.353  34.439  12.556
17101W        W85319  29.525  10.376   9.954
17102W        W85320  39.628  16.774  14.689
17103W        W85321   1.983  30.455   1.684
17104W        W85322  23.244  11.090   0.679
17105W        W85323  24.276  25.145  10.838
17106W        W85324  32.941  20.686  13.495
17107W        W85325  12.796  12.576  14.870
17108W        W85326  24.354  11.101  10.322
17109W        W85327  43.260  17.357  11.067
17110W        W85328   5.121  36.060  12.327
17111W        W85329  12.399  19.492  13.848
17112W        W85330  25.062  17.102   3.616
17113W        W85331  22.860  14.129   2.452
17114W        W85332  10.814  15.778   3.336
17115W        W85333  21.739  18.567  11.187
17116W        W85334  40.449  13.995   2.675
17117W        W85335  36.482  36.868  14.246
17118W        W85336  23.090  17.847  12.328
17119W        W85337   9.132  11.927  11.178
17120W        W85338  32.439   7.357  13.032
17121W        W85339  14.204   9.743  12.633
17122W        W85340  39.974   5.498  14.647
17123W        W85341  11.567   4.415  12.000
17124W        W85342  35.289  16.124   1.249
17125W        W85343   3.992  13.794   1.220
17126W        W85344  44.580  28.826   0.899
17127W        W85345   6.356   1.711  14.493
17128W        W85346  44.487  12.733   2.794
17129W        W85347  18.668  28.425  14.402
17130W        W85348  12.068  13.544  11.683
17131W        W85349   0.413  17.367   1.908
17132W        W85350  44.104  43.385  13.193
17133W        W85351  33.251  15.326  10.725
17134W        W85352  22.272  29.174   1.841
17135W        W85353  20.659  29.465  14.719
17136W        W85354  20.804  24.574  13.584
17137W        W85355  44.840  30.077   3.822
17138W        W85356  28.037  37.911  14.442
17139W        W85357  41.050  39.874  14.066
17140W        W85358   4.485  11.876  14.361
17141W        W85359  29.111  25.026  11.596
17142W        W85360  36.664  12.367   4.162
17143W        W85361  36.431   8.969   1.430
17144W        W85362  17.362  44.048   5.009
17145W        W85363  16.670  27.113   0.343
17146W        W85364  38.576  17.317   2.319
17147W        W85365  34.609  32.659   1.835
17148W        W85366  36.901  19.263  11.168
17149W        W85367  42.964  11.877  11.687
17150W        W85368   5.568  13.259   2.860
17151W        W85369  20.072  10.736   4.702
17152W        W85370   1.329   8.109  14.814
17153W        W85371  20.755  40.931   1.738
17154W        W85372  42.152  37.447   2.111
17155W        W85373  43.238  31.883   2.402
17156W        W85374  30.614   9.647  14.614
17157W        W85375   8.321  14.867   3.216
17158W        W85376  25.886  43.820  10.924
17159W        W85377  27.867  12.670   1.771
17160W        W85378  28.022  20.558   1.769
17161W        W85379  28.593  24.542   0.346
17162W        W85380  30.156  12.836   1.612
17163W        W85381   9.699  22.827  13.070
17164W        W85382   6.482   4.883  11.956
17165W        W85383  38.815  28.964  11.607
17166W        W85384  37.457   3.840  11.523
17167W        W85385   2.064   0.067   1.722
17168W        W85386   6.739   3.596  12.339
17169W        W85387  23.085   1.678   3.623
17170W        W85388  42.383   1.448  12.463
17171W        W85389   1.272  28.214  10.689
17172W        W85390  31.766  27.604  11.239
17173W        W85391  28.474  13.705   4.199
17174W        W85392  35.006  43.014  10.490
17175W        W85393  27.632   3.690   4.134
17176W        W85394  20.044  35.840   4.576
17177W        W85395  11.842  23.149   4.711
17178W        W85396  17.292  22.179  10.288
17179W        W85397  36.773  13.329   1.779
17180W        W85398  44.281  42.891  13.075
17181W        W85399  35.948  42.476   0.506
17182W        W85400  36.925  37.837   1.610
17183W        W85401   5.040  22.287  11.070
17184W        W85402  22.960  18.155   2.693
17185W        W85403  10.249  27.061  11.421
17186W        W85404  30.604  19.063   3.137
17187W        W85405  42.901   5.296  14.568
17188W        W85406  28.301  14.669   3.152
17189W        W85407  11.748  17.765   0.377
17190W        W85408  20.279  38.496   1.631
17191W        W85409  43.444  34.958  12.523
17192W        W85410  42.403  37.563   4.614
17193W        W85411   0.694  16.186  12.175
17194W        W85412  35.141  17.276   1.564
17195W        W85413  25.664   2.031   2.237
17196W        W85414  37.588  25.133  11.447
17197W        W85415  25.007  16.171   0.970
17198W        W85416   8.029  10.512   5.116
17199W        W85417   2.630  18.771   2.532
17200W        W85418  17.011  19.746  14.388
17201W        W85419  33.610   6.667  12.010
17202W        W85420   2.610  20.261   1.777
17203W        W85421   7.318  30.497  11.057
17204W        W85422  18.491  41.081  12.916
17205W        W85423  38.017   8.833  14.635
17206W        W85424  21.505  28.024   1.309
17207W        W85425   5.360   2.205  12.182
17208W        W85426   2.897  36.602   1.127
17209W        W85427  42.935  27.139   5.049
17210W        W85428  23.812   6.688  11.220
17211W        W85429  20.118  14.157   1.160
17212W        W85430  23.604  36.675  12.626
17213W        W85431  20.156  13.809  14.891
17214W        W85432  27.563  14.130   4.108
17215W        W85433  12.560  11.171  13.383
17216W        W85434  23.576   8.330   4.779
17217W        W85435  13.669  16.645   4.528
17218W        W85436   6.173  31.073  12.926
17219W        W85437  23.726  30.054   2.404
17220W        W85438   2.770  34.379  11.576
17221W        W85439  40.627  19.605   4.136
17222W        W85440   4.766  38.906  12.757
17223W        W85441  37.359  30.963  12.502
17224W        W85442  29.551  20.907  12.472
17225W        W85443   4.754   4.025   4.210
17226W        W85444  40.430  18.537   3.217
17227W        W85445  27.009   3.878  14.970
17228W        W85446   6.773  34.383   3.531
17229W        W85447  41.062  44.785   1.384
17230W        W85448   2.672  12.226  11.617
17231W        W85449  35.294  22.172   0.787
17232W        W85450  27.561  15.228   2.727
17233W        W85451  10.617  41.774  14.353
17234W        W85452  21.301   5.850   4.192
17235W        W85453   5.539  39.446  11.449
17236W        W85454   3.166  13.399   3.774
17237W        W85455   1.686  26.190   0.189
17238W        W85456  23.395   4.510  12.550
17239W        W85457   0.524  17.844   1.769
17240W        W85458   6.639  44.969   3.789
17241W        W85459   6.454   0.310  11.395
17242W        W85460  21.933  24.532  14.321
17243W        W85461  21.917  28.551  11.585
17244W        W85462  42.456   5.876   2.234
17245W        W85463   0.394   1.080   0.813
17246W        W85464  21.088  33.531   4.290
17247W        W85465  15.237  34.617   4.424
17248W        W85466   3.237  10.548  14.380
17249W        W85467  35.072   1.228  13.918
17250W        W85468   3.608   1.653  13.764
17251W        W85469  11.106  12.262   4.698
17252W        W85470  44.877  17.298   1.743
17253W        W85471  27.038  34.026  10.438
17254W        W85472  42.798   3.388   9.994
17255W        W85473  15.887  29.669  14.290
17256W        W85474   6.122  44.991   3.594
17257W        W85475  30.959  15.721  12.318
17258W        W85476  33.553   6.841   2.923
17259W        W85477  13.694  27.707   2.310
17260W        W85478  19.975   2.966   1.735
17261W        W85479  16.181  17.525   5.021
17262W        W85480  30.604   8.825  13.889
17263W        W85481  34.419   2.423   0.125
17264W        W85482  21.760   2.411  11.162
17265W        W85483  43.315  31.713   4.539
17266W        W85484  25.300  28.409  13.093
17267W        W85485  37.116  13.234   2.735
17268W        W85486  44.460  14.062  13.124
17269W        W85487   1.201  15.383   4.089
17270W        W85488   3.583  19.682  10.044
17271W        W85489  20.476  27.893  11.112
17272W        W85490  18.596  16.044   1.284
17273W        W85491   4.727  13.797   2.602
17274W        W85492   8.136  40.114  11.926
17275W        W85493  27.124  11.985  10.617
17276W        W85494  30.981  11.177  11.046
17277W        W85495  10.908  41.482   3.214
17278W        W85496  22.527  43.560   1.170
17279W        W85497  40.721  12.201  10.647
17280W        W85498  18.574  34.561  10.641
17281W        W85499  36.879  29.646  12.497
17282W        W85500  32.152  11.201  13.106
17283W        W85501  37.704  35.642   1.429
17284W        W85502  13.647  12.341   4.644
17285W        W85503  36.959  36.423  13.055
17286W        W85504  21.910  35.400  14.277
17287W        W85505  14.216  26.784  13.083
17288W        W85506   3.837  19.461  13.014
17289W        W85507   8.343  20.133   2.968
17290W        W85508  29.731  38.683  11.561
17291W        W85509  43.400  42.812   3.192
17292W        W85510  15.796  41.524   2.629
17293W        W85511  14.391  34.585   0.068
17294W        W85512  33.011   6.403   3.341
17295W        W85513  37.622  27.929   0.431
17296W        W85514  34.004  43.988   4.484
17297W        W85515  16.133   6.954  12.095
17298W        W85516  44.093  16.225   2.313
17299W        W85517  18.074   8.222  14.189
17300W        W85518  25.585  37.965   3.921
17301W        W85519  30.473  17.000  11.417
17302W        W85520  35.624  14.645   0.526
17303W        W85521  12.304  15.867   0.137
17304W        W85522  16.578  10.730   1.683
17305W        W85523  22.757  24.471  13.278
17306W        W85524   3.802  16.177   3.235
17307W        W85525   9.345  15.812   1.220
17308W        W85526  39.239  13.364   0.966
17309W        W85527  24.726   4.785   2.871
17310W        W85528  24.206  28.633  14.961
17311W        W85529  35.579  22.252   2.813
17312W        W85530   2.840  10.889  14.405
17313W        W85531   9.399   4.406  12.083
17314W        W85532   0.784  20.124  13.782
17315W        W85533  35.753  39.996   1.463
17316W        W85534  17.186  37.961  12.617
17317W        W85535  27.330  11.348  13.955
17318W        W85536  17.058   1.427   3.709
17319W        W85537   0.822  30.657  10.822
17320W        W85538  19.594  21.326   1.415
17321W        W85539  17.715   6.255   3.604
17322W        W85540   5.007  39.095   1.792
17323W        W85541   5.929   4.604  12.595
17324W        W85542  15.715  24.470   4.992
17325W        W85543  16.065  23.643   0.778
17326W        W85544  27.513  10.502  14.028
17327W        W85545  44.924   5.053   3.806
17328W        W85546  21.128   7.795  11.059
17329W        W85547   6.530  34.791  11.265
17330W        W85548  33.291  16.544  14.187
17331W        W85549  27.130  11.433   1.364
17332W        W85550  43.635   1.857  10.405
17333W        W85551  31.693   9.643   3.936
17334W        W85552   1.022  34.329   0.192
17335W        W85553  15.498  21.962   0.728
17336W        W85554   3.264  34.081   3.550
17337W        W85555  25.536  14.089  14.327
17338W        W85556   6.136  42.288  14.864
17339W        W85557  33.333  41.586  14.374
17340W        W85558  15.675  13.044  13.174
17341W        W85559  21.032  43.555   1.587
17342W        W85560  19.976   0.480   3.792
17343W        W85561   0.991  13.237   1.382
17344W        W85562  25.936  35.611   1.479
17345W        W85563   9.312  44.638  13.950
17346W        W85564  12.352   4.316  12.556
17347W        W85565  20.713  22.524  14.938
17348W        W85566  40.779  31.869   4.088
17349W        W85567  26.999  40.941   2.097
17350W        W85568   6.408  38.280   3.699
17351W        W85569   6.247  35.530   3.851
17352W        W85570  14.914   1.636   2.321
17353W        W85571   5.020  41.528  14.542
17354W        W85572  20.142  10.682   1.174
17355W        W85573  14.898   5.997  12.370
17356W        W85574  17.371  31.241  11.421
17357W        W85575  30.324   9.339   4.239
17358W        W85576  44.425  19.647  10.280
17359W        W85577  29.245   3.502   1.285
17360W        W85578   3.138   2.439  11.168
17361W        W85579  33.626  22.040   4.625
17362W        W85580  37.537  28.465  10.633
17363W        W85581  41.832   8.343   0.861
17364W        W85582  39.292  36.394  11.884
17365W        W85583  25.130  34.826   3.340
17366W        W85584   0.260  23.142   2.202
17367W        W85585  25.102  18.785  14.594
17368W        W85586  11.776  16.838  11.552
17369W        W85587  34.887  43.955   2.764
17370W        W85588  37.739  23.708   4.254
17371W        W85589  20.135   3.804   0.787
17372W        W85590  21.025  31.028  12.089
17373W        W85591  38.546  23.800   2.136
17374W        W85592  26.746  30.041   1.239
17375W        W85593   4.477  24.006   2.091
17376W        W85594  22.942  40.349  13.454
17377W        W85595   5.794  39.684  14.512
17378W        W85596  39.765   8.933  14.746
17379W        W85597  20.235   6.122  11.071
17380W        W85598   7.879  22.754  11.131
17381W        W85599   6.725  36.667   4.275
17382W        W85600  27.189   3.379   1.493
17383W        W85601  43.044   7.609   1.386
17384W        W85602  10.665  16.741   2.435
17385W        W85603   9.402  17.135   4.081
17386W        W85604   1.227  17.203  10.748
17387W        W85605  32.289  23.905  12.151
17388W        W85606  31.079  22.414  14.758
17389W        W85607  22.824  35.025  11.634
17390W        W85608  34.038  42.314   3.813
17391W        W85609  21.262  14.772   4.199
17392W        W85610  36.914  23.999  11.404
17393W        W85611   8.707  29.631   2.264
17394W        W85612  28.632  43.963   1.129
17395W        W85613   6.475  31.255  11.075
17396W        W85614  20.912  24.455  12.788
17397W        W85615   8.602  39.517   2.214
17398W        W85616   2.864  37.900   0.372
17399W        W85617   4.954   1.235   2.423
17400W        W85618  16.754  38.659   1.341
17401W        W85619  18.672  33.528   1.823
17402W        W85620  14.592  40.075   1.910
17403W        W85621  12.926  38.272   3.418
17404W        W85622  39.424  18.995  11.977
17405W        W85623  15.545   3.974  12.016
17406W        W85624  39.312  11.006  11.897
17407W        W85625   6.438  11.862   2.744
17408W        W85626  21.531   0.672   0.748
17409W        W85627  28.718  33.718   4.094
17410W        W85628  12.905  43.210   2.383
17411W        W85629  43.479  19.251   3.677
17412W        W85630  43.084  37.925   2.893
17413W        W85631   3.244  27.970  13.878
17414W        W85632  32.994  28.054   4.104
17415W        W85633  17.703  38.869   4.330
17416W        W85634  24.090  29.282  11.465
17417W        W85635  18.962  33.011  11.727
17418W        W85636  13.886   7.126   3.249
17419W        W85637  22.561   2.843  10.259
17420W        W85638  36.884  11.692   1.900
17421W        W85639  14.978  32.626   3.723
17422W        W85640  24.196  19.648  12.970
17423W        W85641  31.210  27.602  11.156
17424W        W85642  11.308  19.711   1.274
17425W        W85643  33.899  13.819  14.755
17426W        W85644  27.965  33.973  10.406
17427W        W85645  25.616  43.403  11.900
17428W        W85646  12.010  12.776  12.975
17429W        W85647   3.324  13.388  11.526
17430W        W85648  34.345  18.025  11.186
17431W        W85649  21.283  16.817  14.422
17432W        W85650   2.047  21.440  10.539
17433W        W85651   4.360   5.569  11.026
17434W        W85652  21.222  22.563   0.606
17435W        W85653   6.287   6.833   3.290
17436W        W85654  33.922  18.537   4.149
17437W        W85655   9.794  18.496   2.697
17438W        W85656  15.281  12.034   4.135
17439W        W85657  14.379  32.092  11.678
17440W        W85658  38.077  19.592  13.866
17441W        W85659  25.887  43.290  12.559
17442W        W85660  10.554  11.182  14.340
17443W        W85661  11.752  19.936  11.532
17444W        W85662  21.428  19.495   2.081
17445W        W85663  28.436  26.048   2.224
17446W        W85664  38.141   7.595   4.164
17447W        W85665   4.210  23.090   3.642
17448W        W85666  34.639   5.454  14.307
17449W        W85667  12.132  18.556   4.547
17450W        W85668  17.128  26.229   3.246
17451W        W85669  40.526  10.415   1.867
17452W        W85670  16.925  44.938   4.773
17453W        W85671  35.885  20.093  13.222
17454W        W85672  15.626  27.586  10.558
17455W        W85673  21.761  32.374   1.728
17456W        W85674  38.295  17.791   3.227
17457W        W85675  38.500  20.044  14.465
17458W        W85676  41.962  38.775   1.345
17459W        W85677  14.080  38.254  12.181
17460W        W85678   3.633   7.536   3.905
17461W        W85679  32.712  43.900  11.663
17462W        W85680  30.493  23.944   3.690
17463W        W85681  35.662   3.310   2.336
17464W        W85682  34.305  26.505   0.860
17465W        W85683   8.859  38.392  14.261
17466W        W85684  25.505  31.396  11.976
17467W        W85685  12.226  42.758   2.855
17468W        W85686   2.186  36.391  13.472
17469W        W85687  18.059  38.461   3.568
17470W        W85688   3.140  16.371   2.631
17471W        W85689  41.898  20.188  12.198
17472W        W85690   2.992  42.768  10.069
17473W        W85691   3.363  43.709   5.043
17474W        W85692  16.063  18.686   4.222
17475W        W85693  11.218   3.244  12.172
17476W        W85694  34.076  12.038  12.792
17477W        W85695   1.872  39.005   2.735
17478W        W85696  22.016   9.825   1.345
17479W        W85697  41.320   5.299   1.865
17480W        W85698  17.748   4.718   0.922
17481W        W85699  31.215  23.258  13.535
17482W        W85700   6.643   9.764  14.210
17483W        W85701  43.357  12.239  14.906
17484W        W85702  41.830  44.056  13.016
17485W        W85703  37.352  18.977  11.157
17486W        W85704  27.265  31.700   3.262
17487W        W85705  20.122  18.212   0.302
17488W        W85706  44.931  24.457  12.114
17489W        W85707   2.665  19.149  14.858
17490W        W85708  25.657  20.904   4.632
17491W        W85709  44.339  36.372   4.221
17492W        W85710  39.302  15.488  14.474
17493W        W85711  13.607   6.294   1.697
17494W        W85712  38.836  26.770  10.664
17495W        W85713  42.249  18.325   0.519
17496W        W85714  25.142  12.584  14.941
17497W        W85715  31.150  38.994   3.439
17498W        W85716  16.218  34.949   0.744
17499W        W85717  12.665   1.866   4.043
17500W        W85718  15.213  39.189   3.709
17501W        W85719   7.297  13.824   1.307
17502W        W85720  28.405  12.696   5.125
17503W        W85721  37.348  36.571  11.951
17504W        W85722  35.398  11.763  14.272
17505W        W85723  14.290  27.020  14.594
17506W        W85724  36.005  38.070   1.195
17507W        W85725  15.236  10.522  13.246
17508W        W85726   3.303   9.981  11.470
17509W        W85727  38.479  33.804   3.190
17510W        W85728  29.624  38.386   2.848
17511W        W85729   1.854  31.833   0.498
17512W        W85730  22.197  18.231   4.111
17513W        W85731  28.606  12.182  12.801
17514W        W85732  23.187   6.371   3.747
17515W        W85733  20.629  15.378  11.913
17516W        W85734  11.135  28.465  14.845
17517W        W85735   1.243   6.300   2.629
17518W        W85736  10.926  36.848   3.289
17519W        W85737  39.624  12.330  12.830
17520W        W85738  37.473  14.626   3.617
17521W        W85739  25.595  30.974  11.119
17522W        W85740  24.538   2.439   3.868
17523W        W85741  32.810   6.426   5.186
17524W        W85742   3.712  26.781  11.989
17525W        W85743  29.120  24.529  12.520
17526W        W85744  31.323  30.088   0.405
17527W        W85745   7.938  39.069  12.536
17528W        W85746   2.178  29.065  10.611
17529W        W85747   6.899   7.748  13.769
17530W        W85748  36.215  16.746  13.960
17531W        W85749  16.166  16.088  10.348
17532W        W85750  39.247  42.391   0.213
17533W        W85751   4.718  31.366   0.130
17534W        W85752  39.475  36.904   1.934
17535W        W85753  26.254   1.294   1.412
17536W        W85754  27.943  30.616   2.597
17537W        W85755  41.976   9.205   0.290
17538W        W85756  12.823  17.597  11.904
17539W        W85757  34.518   7.882   4.827
17540W        W85758   3.221  33.920  14.253
17541W        W85759  18.565  37.150  13.322
17542W        W85760  16.728  37.408   0.865
17543W        W85761   2.497  15.707   1.419
17544W        W85762  37.085  18.680   3.190
17545W        W85763  10.918  38.570   1.866
17546W        W85764  21.013  23.130  12.558
17547W        W85765  22.152   7.892   3.192
17548W        W85766  29.454  30.392   3.644
17549W        W85767   9.997   5.943   1.376
17550W        W85768  21.468  29.677  11.563
17551W        W85769  15.928  24.528   3.449
17552W        W85770  13.286  38.857   2.251
17553W        W85771  38.326  14.908  12.411
17554W        W85772  15.197  24.765   4.120
17555W        W85773   5.419  43.790   2.273
17556W        W85774  19.468  44.276  10.774
17557W        W85775  21.980  37.548  12.223
17558W        W85776  34.324   6.340  11.197
17559W        W85777  22.014  23.123   1.370
17560W        W85778  13.382   9.618   1.764
17561W        W85779  24.748  25.213   2.276
17562W        W85780   2.905   8.488   0.585
17563W        W85781  15.179  30.976   4.007
17564W        W85782  32.835  22.022   1.341
17565W        W85783  18.878   1.453  11.417
17566W        W85784   5.929   7.679   1.451
17567W        W85785  44.463  15.787  14.071
17568W        W85786  23.863  27.898   4.933
17569W        W85787  22.635  10.145   1.405
17570W        W85788  36.942   6.664   1.760
17571W        W85789  18.753  14.193  12.515
17572W        W85790  14.585  42.785  14.479
17573W        W85791   1.479  32.602  14.806
17574W        W85792  18.098  22.140   1.501
17575W        W85793  31.588  13.510   3.261
17576W        W85794  36.723  10.144   3.577
17577W        W85795  12.214  11.364  10.544
17578W        W85796  24.503  18.034  13.493
17579W        W85797   5.311  25.665   2.815
17580W        W85798  29.090  29.342  14.436
17581W        W85799  31.806  38.841  14.818
17582W        W85800  28.962  38.751  12.418
17583W        W85801  22.638  32.985   2.657
17584W        W85802  32.995  23.400   2.225
17585W        W85803  22.572  39.846   2.236
17586W        W85804  34.385  37.825   4.973
17587W        W85805  38.313  16.715  13.034
17588W        W85806  21.105  30.891   4.263
17589W        W85807   0.543  23.233   2.650
17590W        W85808  30.862  44.480   2.305
17591W        W85809  41.175  17.658   0.639
17592W        W85810   1.394  16.555   1.095
17593W        W85811  43.037  21.084  11.620
17594W        W85812  19.197  21.279   3.139
17595W        W85813   0.359  33.833  13.055
17596W        W85814  29.991  17.304  13.770
17597W        W85815   9.310  29.858  13.954
17598W        W85816  35.951  10.084   3.249
17599W        W85817  24.613  13.714  13.354
17600W        W85818  16.623  36.904   0.797
17601W        W85819  25.024  41.091   1.345
17602W        W85820   9.592  34.944   1.561
17603W        W85821  18.157   4.728   0.242
17604W        W85822  23.501  39.132   0.848
17605W        W85823  24.747  23.771   0.860
17606W        W85824  42.275  24.546   0.003
17607W        W85825  11.631   0.674   2.702
17608W        W85826  20.551  15.099  13.403
17609W        W85827  37.055   3.345   1.698
17610W        W85828  43.760   5.407   3.914
17611W        W85829  37.554  44.523   2.838
17612W        W85830   2.247  24.464  13.322
17613W        W85831  12.084  43.198   4.942
17614W        W85832   0.494  40.675  14.549
17615W        W85833  39.363  28.462  11.824
17616W        W85834  10.138  19.252  12.937
17617W        W85835  43.220  25.617   4.318
17618W        W85836  28.807  27.764  13.397
17619W        W85837  33.599  28.676  11.617
17620W        W85838  17.251   7.853   0.068
17621W        W85839   8.707  35.514   1.746
17622W        W85840  43.248  32.626  13.410
17623W        W85841  20.112  16.061  12.888
17624W        W85842  27.635  10.609   0.549
17625W        W85843   8.729   4.876   0.009
17626W        W85844  43.850  26.414  13.420
17627W        W85845   1.775   1.080   2.602
17628W        W85846  21.409   5.357   4.252
17629W        W85847  29.862  33.414   3.188
17630W        W85848   8.336  26.620   4.269
17631W        W85849  33.407  44.019  11.507
17632W        W85850  38.122  13.496  11.758
17633W        W85851  14.133  42.526  14.181
17634W        W85852  10.308  19.495  14.294
17635W        W85853  42.550  11.355   1.365
17636W        W85854  36.343   1.013   0.430
17637W        W85855   2.982  14.654   2.698
17638W        W85856   0.018  11.363  13.284
17639W        W85857  28.554  10.015   2.259
17640W        W85858  32.554  11.616   2.700
17641W        W85859  21.456  44.722  14.381
17642W        W85860  41.420  14.728   1.363
17643W        W85861  34.852   1.706  12.540
17644W        W85862  34.084  17.123   4.106
17645W        W85863  10.781  12.709   1.354
17646W        W85864  17.089  28.399   1.181
17647W        W85865  20.361  16.884  13.449
17648W        W85866  29.861  34.122  14.809
17649W        W85867  18.855  18.762  12.660
17650W        W85868  32.788  41.471   5.149
17651W        W85869  41.050  14.066   4.113
17652W        W85870   7.675   6.840   3.326
17653W        W85871  23.719  32.838  13.122
17654W        W85872  42.221  17.181   1.311
17655W        W85873  34.036  42.242  13.434
17656W        W85874  25.423  28.563   4.373
17657W        W85875  44.542  23.018   2.694
17658W        W85876  44.821   1.265  12.521
17659W        W85877  24.616   2.413  13.059
17660W        W85878  25.348  41.388  11.603
17661W        W85879   2.446  27.064   3.552
17662W        W85880   0.162   7.867   2.748
17663W        W85881  31.412   9.504   0.036
17664W        W85882  40.278  41.997  14.815
17665W        W85883  37.724  15.645   3.729
17666W        W85884   5.699   9.142  14.940
17667W        W85885  22.619  25.971  12.652
17668W        W85886  36.757  17.357  11.972
17669W        W85887  19.637  44.214   0.381
17670W        W85888   9.076   0.211   4.150
17671W        W85889   9.528  14.366  13.947
17672W        W85890  27.472  13.803   0.339
17673W        W85891  16.503  16.964  14.802
17674W        W85892  42.380   9.769  10.676
17675W        W85893   7.161  15.807  11.635
17676W        W85894   6.843  20.698   1.631
17677W        W85895  34.667   9.891   2.946
17678W        W85896  42.777  37.520   2.773
17679W        W85897   0.103   1.906   0.952
17680W        W85898  12.965  14.381  13.392
17681W        W85899  33.084  30.533   3.084
17682W        W85900  26.519  13.540   1.181
17683W        W85901  42.000  42.326  13.787
17684W        W85902   7.832  10.390  14.583
17685W        W85903  16.110  25.808   3.255
17686W        W85904  23.863  31.465  12.024
17687W        W85905  18.763   3.523   3.651
17688W        W85906   0.494   6.665  14.041
17689W        W85907  27.030  21.192  12.090
17690W        W85908  34.070  11.879   4.748
17691W        W85909   9.378  20.522  14.920
17692W        W85910  38.450   9.776  14.877
17693W        W85911  15.803  21.393   1.358
17694W        W85912  26.572  12.045  11.214
17695W        W85913  15.831  31.588  13.379
17696W        W85914  32.796   9.685  11.715
17697W        W85915  21.105  43.374  11.639
17698W        W85916  26.332  16.581   2.111
17699W        W85917  10.305  16.331  12.420
17700W        W85918   2.378  16.108  13.507
17701W        W85919   6.144  30.578  12.200
17702W        W85920   3.242  13.585   0.708
17703W        W85921   2.382  19.239  11.129
17704W        W85922  13.730   3.839   4.625
17705W        W85923   9.839  13.369   3.641
17706W        W85924  35.918  22.035  11.194
17707W        W85925   7.300  35.766   3.275
17708W        W85926  25.687  34.401   0.028
17709W        W85927   0.792  22.144   1.621
17710W        W85928  25.309  36.113   1.396
17711W        W85929  14.799  28.027  14.835
17712W        W85930  38.125  44.128  11.417
17713W        W85931  34.875  42.316  11.582
17714W        W85932   7.596  43.410  12.440
17715W        W85933  43.469   2.228   1.823
17716W        W85934  41.317  44.904   4.168
17717W        W85935  15.664  13.212   2.894
17718W        W85936  23.766  12.301   3.221
17719W        W85937  15.697  25.989  14.728
17720W        W85938  21.509   6.166  14.858
17721W        W85939  14.635  13.056  11.226
17722W        W85940  13.596  34.397   2.959
17723W        W85941   4.679   4.592   4.258
17724W        W85942  19.129  11.255  12.818
17725W        W85943  35.506  18.534   2.371
17726W        W85944  28.301  43.724  14.918
17727W        W85945  31.971   0.439   2.163
17728W        W85946   6.603  41.434   2.483
17729W        W85947  41.788   0.430  14.795
17730W        W85948  12.969  30.967   3.554
17731W        W85949  42.386  35.681  14.836
17732W        W85950  39.504  16.045  10.654
17733W        W85951  25.429  11.798   3.421
17734W        W85952  34.557  28.916   2.729
17735W        W85953  10.155  43.720   3.319
17736W        W85954   7.319   2.915   1.885
17737W        W85955  27.631  14.715   2.553
17738W        W85956  15.819  22.555   2.676
17739W        W85957  13.106  28.900   1.836
17740W        W85958  38.072  39.818   2.161
17741W        W85959   3.843   2.251   4.796
17742W        W85960  10.025  24.024   1.872
17743W        W85961   7.287  14.849  10.704
17744W        W85962  19.113   1.901   2.774
17745W        W85963  40.871  38.519   4.643
17746W        W85964  30.524  24.198   0.993
17747W        W85965  41.546  42.958  14.215
17748W        W85966  34.922  15.072  11.902
17749W        W85967   1.431  14.050   1.999
17750W        W85968   5.890   7.391   1.026
17751W        W85969  29.630  25.086   4.542
17752W        W85970   3.756  37.477  12.221
17753W        W85971  39.796  34.680  11.535
17754W        W85972  44.867  13.136  12.958
17755W        W85973  40.637  20.561   2.813
17756W        W85974  44.861  29.696   0.408
17757W        W85975  39.687   1.787  13.754
17758W        W85976  37.151  32.658  13.751
17759W        W85977   9.938  26.639   1.401
17760W        W85978  39.340  20.542  13.519
17761W        W85979  21.291   0.311  14.467
17762W        W85980  23.902  12.664  14.435
17763W        W85981   3.250  42.428   3.453
17764W        W85982  39.043  20.849   0.326
17765W        W85983  24.200   5.286  12.988
17766W        W85984   9.818  18.209   3.537
17767W        W85985  26.386  22.998  14.818
17768W        W85986  17.032   8.894   1.763
17769W        W85987   7.116  25.223  13.833
17770W        W85988  30.671  38.943  10.483
17771W        W85989  14.121  10.750   3.740
17772W        W85990  27.602  26.199  10.672
17773W        W85991  27.091  31.861  10.521
17774W        W85992  34.430  36.599  11.386
17775W        W85993   1.857  21.850  14.566
17776W        W85994  10.161  40.040   2.676
17777W        W85995  21.641  30.982   1.772
17778W        W85996   5.686  15.636  12.636
17779W        W85997  12.385   3.691   0.925
17780W        W85998  36.985   6.618   2.556
17781W        W85999  41.870   2.214  13.661
17782W        W86000  30.995  12.251  13.435
17783W        W86001   0.801  41.496   1.171
17784W        W86002  22.764  30.620   4.036
17785W        W86003   6.671   1.283  12.115
17786W        W86004  17.766  32.466   3.172
17787W        W86005  36.857  40.576  12.916
17788W        W86006   0.926  21.650  11.896
17789W        W86007  10.616  41.148   1.831
17790W        W86008  14.257   3.830  12.354
17791W        W86009  36.610  39.403   0.464
17792W        W86010  44.590  33.396   1.852
17793W        W86011   9.074   5.301   1.795
17794W        W86012   2.814  11.279   1.293
17795W        W86013   4.024  15.475   4.848
17796W        W86014   0.469  30.611   1.340
17797W        W86015  10.733   2.363  10.747
17798W        W86016  11.659  43.331   0.549
17799W        W86017  35.162  35.665   3.279
17800W        W86018  25.072   9.306   2.306
17801W        W86019   3.971  24.553   4.534
17802W        W86020  11.843  14.709   1.873
17803W        W86021  36.443  19.522  10.282
17804W        W86022  12.139  12.144   4.245
17805W        W86023  23.656   4.317  14.419
17806W        W86024  12.678   8.214   0.403
17807W        W86025  12.600  10.786   4.569
17808W        W86026  28.874  10.440   2.792
17809W        W86027   8.685  17.690   0.226
17810W        W86028  28.896  17.593  12.400
17811W        W86029  39.774  35.094   2.790
17812W        W86030  30.026   2.947   0.936
17813W        W86031  16.056  10.247  11.651
17814W        W86032  26.052  34.265   1.428
17815W        W86033  14.607  15.569   0.983
17816W        W86034   4.282  13.515  10.703
17817W        W86035   8.610  35.892   1.161
17818W        W86036   7.463  11.272  13.546
17819W        W86037  13.622  31.384   0.980
17820W        W86038   6.283   8.121  12.092
17821W        W86039  14.135  11.219  12.571
17822W        W86040  29.476  30.505   3.115
17823W        W86041   9.005  43.695  14.963
17824W        W86042  15.174  11.380  14.574
17825W        W86043  17.661  34.747   2.452
17826W        W86044  44.053  34.574  10.251
17827W        W86045  17.208  21.685   4.200
17828W        W86046  31.873  42.705   1.704
17829W        W86047  29.090  44.109  14.805
17830W        W86048  14.179   7.859  12.136
17831W        W86049  39.346   7.270  11.656
17832W        W86050  33.998  11.605  12.524
17833W        W86051   2.274  32.852   3.628
17834W        W86052  41.940  12.325   3.141
17835W        W86053  31.135  43.072  14.827
17836W        W86054  19.455  31.970  12.838
17837W        W86055  29.531   2.786  13.088
17838W        W86056  17.335   9.323   0.845
17839W        W86057  19.874  40.763  10.718
17840W        W86058  36.743  16.481  12.062
17841W        W86059   6.732  42.784   4.035
17842W        W86060  14.826  34.516  12.537
17843W        W86061  12.566  33.519   1.421
17844W        W86062  17.086  34.979  11.069
17845W        W86063  13.670   4.679   3.096
17846W        W86064  24.309  29.464   4.818
17847W        W86065  31.511   9.567   1.390
17848W        W86066  16.058  20.961   4.027
17849W        W86067  40.951  14.067   2.736
17850W        W86068  31.187  22.493  13.838
17851W        W86069  18.294  35.703   1.239
17852W        W86070  10.572  29.462   5.159
17853W        W86071   0.748   1.519  12.109
17854W        W86072  32.681   1.505  10.816
17855W        W86073  15.720   7.816  12.541
17856W        W86074  43.525  15.017  11.621
17857W        W86075  26.296   1.633   0.053
17858W        W86076  43.057  26.425   4.048
17859W        W86077  20.701  43.111  11.887
17860W        W86078  30.365  15.169  13.445
17861W        W86079  22.751   2.400  12.542
17862W        W86080  39.533  21.231   3.923
17863W        W86081  15.041  37.977  13.106
17864W        W86082  12.701  42.429  10.345
17865W        W86083  29.444  11.122  12.470
17866W        W86084  21.086   5.477   3.822
17867W        W86085  25.549  25.026  14.429
17868W        W86086  10.607  32.548   4.000
17869W        W86087  44.871  39.583  12.075
17870W        W86088  40.891  23.127   1.001
17871W        W86089   4.695  20.251  12.517
17872W        W86090  36.608  22.218   3.714
17873W        W86091   5.670  22.471  14.951
17874W        W86092   2.251  24.868   0.215
17875W        W86093   7.951  33.657   4.082
17876W        W86094   7.027   7.950  12.428
17877W        W86095  14.199  15.401  13.908
17878W        W86096   8.816  35.156  14.332
17879W        W86097  36.089  39.774   3.281
17880W        W86098  19.751  31.386   4.843
17881W        W86099  42.334  19.994  12.016
17882W        W86100  38.805   9.756  13.936
17883W        W86101  38.514  38.932  10.725
17884W        W86102  32.146   0.941   4.185
17885W        W86103  20.222   6.411   0.885
17886W        W86104  32.501  24.530  14.428
17887W        W86105   2.873  36.198   0.790
17888W        W86106  27.729  43.289  13.521
17889W        W86107   6.819  10.385   2.867
17890W        W86108   1.744   5.346  14.480
17891W        W86109  42.783  42.465  12.968
17892W        W86110  20.191   6.912  10.527
17893W        W86111  20.778  32.567  12.447
17894W        W86112  20.162  11.877  14.945
17895W        W86113  41.086  11.435  14.574
17896W        W86114  23.698  37.503   4.272
17897W        W86115  13.744  33.305  11.246
17898W        W86116  43.256  20.254   3.635
17899W        W86117   9.094  13.757  14.036
17900W        W86118  24.752  30.033  12.055
17901W        W86119  15.261  21.862  13.958
17902W        W86120   7.865   6.682   2.866
17903W        W86121  29.995  30.667  14.324
17904W        W86122  16.768  21.058   1.591
17905W        W86123  44.450  28.482   5.158
17906W        W86124  44.800  19.062   0.432
17907W        W86125  19.753  35.067   1.895
17908W        W86126  21.587  24.045   0.506
17909W        W86127  30.111  19.745   0.832
17910W        W86128  32.318  39.855  10.675
17911W        W86129  40.871  29.622   5.179
17912W        W86130   4.147  38.352  12.456
17913W        W86131  14.252  42.960   9.848
17914W        W86132  25.686  10.359  14.910
17915W        W86133  25.038  36.149  11.686
17916W        W86134  30.542  42.248   3.085
17917W        W86135  40.745  43.199   3.215
17918W        W86136  27.156  18.224   4.300
17919W        W86137   9.724  35.302   3.772
17920W        W86138  23.496  14.828  14.952
17921W        W86139  32.286  34.003   4.738
17922W        W86140  20.130  39.857  12.893
17923W        W86141  34.543  33.277   4.029
17924W        W86142   3.217  32.527   4.599
17925W        W86143   3.101   8.084  14.258
17926W        W86144   9.674  19.968  11.914
17927W        W86145  31.810  34.610   3.975
17928W        W86146  32.336   3.622   0.075
17929W        W86147  31.174  22.748  12.105
17930W        W86148  21.332  39.774  11.558
17931W        W86149  26.206  41.520  13.350
17932W        W86150  27.889  44.962  14.867
17933W        W86151  18.729   1.306  12.867
17934W        W86152  12.856   6.870  14.399
17935W        W86153  17.170  34.380  10.641
17936W        W86154  44.395  20.943   3.677
17937W        W86155  38.856  14.778  12.331
17938W        W86156  21.631   1.366  13.148
17939W        W86157  24.701  37.407  14.204
17940W        W86158   8.719  32.585  11.938
17941W        W86159  40.385   9.126   4.170
17942W        W86160  16.446   7.554  14.698
17943W        W86161  17.030  21.818   2.185
17944W        W86162  29.196  22.193  14.443
17945W        W86163  42.085  26.662  11.643
17946W        W86164  40.454  36.056  10.289
17947W        W86165  14.466  25.915   4.506
17948W        W86166   1.090   4.943   3.275
17949W        W86167   0.525  44.075   1.772
17950W        W86168  25.388  21.023  13.810
17951W        W86169  12.364   7.798   4.782
17952W        W86170  39.375  23.208   0.768
17953W        W86171   8.925  41.372   1.267
17954W        W86172  34.014  20.310   0.105
17955W        W86173   6.918  15.079  13.606
17956W        W86174  31.804  21.517  11.932
17957W        W86175  26.072   1.597  13.334
17958W        W86176   6.414  21.127   3.535
17959W        W86177  25.643   5.296   3.652
17960W        W86178  10.673  33.534   2.370
17961W        W86179  43.525  22.185   0.692
17962W        W86180   4.575  25.414  11.633
17963W        W86181  22.626  43.296  13.329
17964W        W86182   7.104  12.226  11.149
17965W        W86183  22.448  42.484  12.922
17966W        W86184  36.490  16.827  13.539
17967W        W86185   9.344  37.834   3.752
17968W        W86186  34.595  38.726  14.952
17969W        W86187   3.320  43.237   2.824
17970W        W86188  33.526  34.362  14.894
17971W        W86189  17.987  42.444  13.004
17972W        W86190   5.845  23.120  14.001
17973W        W86191  20.630  34.349  14.559
17974W        W86192  25.406  40.860  11.516
17975W        W86193  24.717   4.991  12.209
17976W        W86194  24.623  43.275   4.724
17977W        W86195   0.400   5.159  13.054
17978W        W86196  21.329  21.056  14.374
17979W        W86197   3.890  26.070  13.081
17980W        W86198  17.753  17.277  12.818
17981W        W86199  35.858  42.317   1.444
17982W        W86200   6.163  41.839  10.955
17983W        W86201   3.343  35.318   0.952
17984W        W86202   9.717  32.067   2.789
17985W        W86203  13.361  31.770  13.480
17986W        W86204  25.868  36.121   1.325
17987W        W86205   6.629  37.929   4.664
17988W        W86206   2.815  24.983  10.643
17989W        W86207   7.361  16.755   3.045
17990W        W86208  10.879   6.884  13.484
17991W        W86209   7.516  22.625  11.987
17992W        W86210   0.824  28.715  12.997
17993W        W86211  10.816  30.912  10.663
17994W        W86212   6.475   3.510   1.270
17995W        W86213  28.349   1.889  12.508
17996W        W86214  13.796  38.007   4.214
17997W        W86215  14.388  18.330   3.122
17998W        W86216   6.290  10.423   2.857
17999W        W86217  10.824  11.678  13.637
18000W        W86218  38.457  20.685   3.328
18001W        W86219  15.713  12.365   1.836
18002W        W86220  31.957  23.958  12.533
18003W        W86221  23.791   8.664  12.892
18004W        W86222   7.371  30.125  11.721
18005W        W86223   9.874  41.277   1.317
18006W        W86224  17.125  40.618   3.542
18007W        W86225  19.031  18.300  11.599
18008W        W86226  43.612  13.331   2.167
18009W        W86227  18.133  16.910  12.955
18010W        W86228  23.979   2.428  13.618
18011W        W86229  25.771  10.931   4.556
18012W        W86230  38.543  37.475   2.578
18013W        W86231  40.344  15.235  13.151
18014W        W86232  31.697   1.754  12.844
18015W        W86233  38.273  41.426   1.442
18016W        W86234  31.118  11.542   0.956
18017W        W86235  34.427  39.085   3.287
18018W        W86236  13.349  36.767   2.301
18019W        W86237  36.476   9.699  12.050
18020W        W86238  26.482  41.954   2.637
18021W        W86239  33.824   4.819   3.803
18022W        W86240  44.372  41.517  11.159
18023W        W86241   3.755  33.086  13.784
18024W        W86242  22.583  38.079   3.112
18025W        W86243  29.712   5.041  12.016
18026W        W86244  42.911  35.647   1.004
18027W        W86245  34.165   1.305   1.416
18028W        W86246   8.846  39.054  11.113
18029W        W86247  24.682  11.428  13.861
18030W        W86248  21.994  39.073  11.551
18031W        W86249  15.496  10.277  12.493
18032W        W86250  16.359  21.111  13.535
18033W        W86251  36.431  39.854  10.506
18034W        W86252  17.054  25.861   1.358
18035W        W86253   0.779  27.528  13.736
18036W        W86254  43.314  34.333   1.473
18037W        W86255  17.544  12.108  13.887
18038W        W86256   8.861  21.029   2.339
18039W        W86257   5.867  32.589  14.874
18040W        W86258   3.134  22.965  14.764
18041W        W86259   3.588  38.642   0.557
18042W        W86260  25.401  42.279  13.424
18043W        W86261  39.119  44.927  10.998
18044W        W86262  26.874   6.621  13.305
18045W        W86263  39.380   6.013  13.378
18046W        W86264  32.668   3.271   2.223
18047W        W86265  36.388  27.547   1.299
18048W        W86266   3.362  25.709   1.540
18049W        W86267   2.216  26.419   1.374
18050W        W86268  10.710  35.463   2.748
18051W        W86269  35.557  37.001  12.362
18052W        W86270  11.713  28.984   0.795
18053W        W86271  25.070  31.115   4.554
18054W        W86272   8.340  19.044  13.488
18055W        W86273  11.870  29.604  13.498
18056W        W86274  44.369  43.991   4.165
18057W        W86275   3.968  20.467   1.670
18058W        W86276   7.392  11.760   4.548
18059W        W86277  32.089  23.987   4.947
18060W        W86278  24.257  35.813   3.174
18061W        W86279   0.167  40.898  10.757
18062W        W86280  18.290  27.466  11.157
18063W        W86281   8.724  21.224  14.878
18064W        W86282   0.057  23.083   2.665
18065W        W86283  23.937  40.096  14.414
18066W        W86284  13.775  10.358  10.627
18067W        W86285  43.061  33.918   3.664
18068W        W86286  15.998   6.902   1.665
18069W        W86287  15.555   7.756  13.036
18070W        W86288   3.885   0.143  13.384
18071W        W86289   9.971   0.537   3.296
18072W        W86290  32.122  29.627   1.236
18073W        W86291  43.396  22.093   4.568
18074W        W86292  34.216   8.347   4.422
18075W        W86293  39.477  34.879   3.625
18076W        W86294   6.274  35.608  14.749
18077W        W86295  44.332  26.467   3.734
18078W        W86296  19.435  10.099  13.989
18079W        W86297   8.449  22.810  13.228
18080W        W86298  36.053   1.000  12.422
18081W        W86299  32.071  36.770  11.828
18082W        W86300  19.292   0.174  13.276
18083W        W86301  26.147  13.119  11.362
18084W        W86302  22.056  30.000   4.336
18085W        W86303  44.042  13.769   1.732
18086W        W86304  35.081   4.576  14.703
18087W        W86305   2.305  11.389   2.695
18088W        W86306  26.738  24.085   4.100
18089W        W86307  19.387   0.381   1.870
18090W        W86308  27.669  12.396   0.329
18091W        W86309  14.731  33.738   2.154
18092W        W86310   2.320  28.373   4.620
18093W        W86311  12.198  38.249   0.357
18094W        W86312  28.127  11.076   4.359
18095W        W86313   4.989   8.792   3.280
18096W        W86314  42.102  36.848  14.201
18097W        W86315   4.319  37.353  11.032
18098W        W86316   6.437  29.602   2.657
18099W        W86317   4.637  43.556  13.074
18100W        W86318  18.604  17.310  13.935
18101W        W86319  22.719  42.006  12.850
18102W        W86320  21.314  35.812  14.803
18103W        W86321   0.976  35.458   4.511
18104W        W86322  19.714  20.211   2.397
18105W        W86323  27.868  27.676  10.513
18106W        W86324  22.278  24.955  12.450
18107W        W86325  33.997  20.056  11.605
18108W        W86326  35.039  19.753  11.911
18109W        W86327  33.856   0.416  11.156
18110W        W86328   8.118  34.344   4.981
18111W        W86329  26.630  37.798   3.225
18112W        W86330  43.927   7.591  12.643
18113W        W86331  36.843  12.877   4.853
18114W        W86332  42.717  32.511   4.757
18115W        W86333  41.453   2.447  11.869
18116W        W86334  12.345  16.526   1.799
18117W        W86335   5.311  26.006  13.865
18118W        W86336  14.904  35.131  10.817
18119W        W86337   7.217   7.419  13.355
18120W        W86338  12.288  33.822  12.407
18121W        W86339  26.938  41.102   0.200
18122W        W86340  37.810   3.323   2.936
18123W        W86341  36.353   2.213  13.048
18124W        W86342  21.927  40.346  13.477
18125W        W86343  36.753   6.691   0.426
18126W        W86344  30.695  44.818  11.506
18127W        W86345  38.940  26.397  11.219
18128W        W86346  16.640  27.659   0.280
18129W        W86347  33.192  26.372   9.783
18130W        W86348  16.881   4.325   1.939
18131W        W86349   2.528  12.668   3.191
18132W        W86350  16.751  22.735   1.884
18133W        W86351  30.278  14.894  10.134
18134W        W86352  43.494  14.575   2.702
18135W        W86353  25.215  43.408  11.486
18136W        W86354  37.588   7.258  10.952
18137W        W86355  32.849   7.099   0.927
18138W        W86356  38.608  38.293   3.282
18139W        W86357  27.482   9.264  12.357
18140W        W86358  33.649   4.491   0.478
18141W        W86359   8.958  12.169   3.772
18142W        W86360   0.484  10.205  10.978
18143W        W86361   3.521  17.781  13.901
18144W        W86362  40.861  16.789  14.471
18145W        W86363  24.097  21.463   3.688
18146W        W86364  14.780   0.263   0.349
18147W        W86365  25.710  25.055   0.428
18148W        W86366  19.246  34.761  14.211
18149W        W86367   5.891  42.430  13.946
18150W        W86368   9.425  12.280   2.248
18151W        W86369  21.145   8.122   2.439
18152W        W86370   3.659  15.207   2.308
18153W        W86371   5.490  14.335  14.974
18154W        W86372  16.196  12.264   1.957
18155W        W86373  18.594  37.244   0.548
18156W        W86374  10.852  29.979  14.704
18157W        W86375  19.134   4.556  14.378
18158W        W86376  22.644  30.254  11.496
18159W        W86377  19.653   7.396   4.158
18160W        W86378  25.924  23.220  13.073
18161W        W86379  24.537  28.398  11.992
18162W        W86380  42.922  21.767  13.272
18163W        W86381  42.001   5.856  14.742
18164W        W86382  42.000  25.457   0.331
18165W        W86383   6.950  22.715   4.065
18166W        W86384   0.758  19.746  14.180
18167W        W86385  23.702  33.998  14.241
18168W        W86386   0.751  12.633  12.527
18169W        W86387   7.215  29.816   0.330
18170W        W86388   3.054  10.818   1.184
18171W        W86389  41.607  18.187   3.583
18172W        W86390  23.564  23.607   2.163
18173W        W86391  44.799  18.464   2.323
18174W        W86392  15.808  22.272  14.443
18175W        W86393  19.658  19.460   3.022
18176W        W86394  10.796  21.533   3.851
18177W        W86395   0.463  31.382   1.281
18178W        W86396  23.412  38.542  12.462
18179W        W86397  30.422   4.431   3.237
18180W        W86398  40.025  25.728  13.997
18181W        W86399  32.228  26.606  13.018
18182W        W86400   6.754  29.036  14.494
18183W        W86401  42.114  12.591   2.715
18184W        W86402   2.923  44.951  11.509
18185W        W86403  33.534  37.624   2.198
18186W        W86404   5.630  27.136   2.635
18187W        W86405  29.372  34.657  14.310
18188W        W86406  18.689   3.738   1.194
18189W        W86407  42.537  22.079   4.409
18190W        W86408  44.997  33.331  11.495
18191W        W86409  42.930   0.400   2.360
18192W        W86410  19.679   4.784  13.258
18193W        W86411  33.146   0.483  14.888
18194W        W86412   6.190  28.004   3.663
18195W        W86413   3.160  38.072   3.779
18196W        W86414  19.091  37.334  14.804
18197W        W86415   1.685  28.138  14.946
18198W        W86416  28.078   6.380  13.732
18199W        W86417  13.788  39.394  12.124
18200W        W86418  23.101  12.821   4.576
18201W        W86419  31.477  39.692  11.618
18202W        W86420  31.117  38.494   2.711
18203W        W86421  22.309  13.791   2.758
18204W        W86422  14.347  19.249  12.556
18205W        W86423   2.862  44.222   2.205
18206W        W86424  34.344  40.785   3.172
18207W        W86425  21.800  38.377   1.771
18208W        W86426  43.424   9.342  12.897
18209W        W86427  33.063  39.095   0.431
18210W        W86428  36.463   5.710   4.793
18211W        W86429  12.518  13.338  12.976
18212W        W86430  11.392  11.395   3.074
18213W        W86431  36.926   7.666   4.105
18214W        W86432  33.626  26.636  13.499
18215W        W86433  27.050  14.679   3.705
18216W        W86434  33.317  33.813   3.653
18217W        W86435  15.975   0.078   2.310
18218W        W86436  28.950  44.951  11.175
18219W        W86437  36.052  38.792  12.675
18220W        W86438  42.072  33.025  12.535
18221W        W86439  37.552  35.151   1.374
18222W        W86440  24.902  25.324   1.797
18223W        W86441   9.843   8.331  13.430
18224W        W86442  32.523  33.778  14.876
18225W        W86443  43.614  34.335   2.334
18226W        W86444  18.770  39.347   2.565
18227W        W86445   8.397  25.961   4.632
18228W        W86446  32.168  30.427  12.644
18229W        W86447  40.102  27.807   2.775
18230W        W86448  38.029   4.205  14.389
18231W        W86449   1.329   0.903   0.365
18232W        W86450   5.729  25.926   1.901
18233W        W86451  33.664  44.034   2.261
18234W        W86452  19.841  18.678   0.846
18235W        W86453  23.388  15.460  11.257
18236W        W86454  40.975  19.752   2.134
18237W        W86455  14.217  14.188  14.901
18238W        W86456  14.992  29.461  11.006
18239W        W86457  11.316  10.908   2.843
18240W        W86458   9.139  21.298   2.672
18241W        W86459  42.891  34.292   3.968
18242W        W86460   6.070  16.708  10.282
18243W        W86461  44.190  22.839  14.411
18244W        W86462  38.099  17.865  14.398
18245W        W86463   4.925  38.155  11.132
18246W        W86464  17.200  26.008   2.316
18247W        W86465   4.507  33.507   2.426
18248W        W86466  34.602   3.681   0.429
18249W        W86467  13.242   1.704  12.450
18250W        W86468  44.518   9.218   1.439
18251W        W86469  27.738  16.578   4.123
18252W        W86470  31.148  32.237   0.858
18253W        W86471  15.264  18.211  12.506
18254W        W86472  10.593   9.296   0.906
18255W        W86473  35.481  40.936   4.149
18256W        W86474  10.301   0.474   2.747
18257W        W86475  31.059   9.792   1.535
18258W        W86476  32.163  39.318   0.418
18259W        W86477  19.321   4.748  14.983
18260W        W86478   7.761  41.664   0.913
18261W        W86479  34.297  22.330  14.052
18262W        W86480  21.672  29.445  11.977
18263W        W86481  22.932   6.865  14.027
18264W        W86482  42.507  31.139  12.102
18265W        W86483  28.708  13.681   1.764
18266W        W86484  14.537  31.696  13.787
18267W        W86485  38.227  38.033   1.931
18268W        W86486  18.660   9.731   4.618
18269W        W86487  37.272  35.741  14.271
18270W        W86488  16.241  24.783   3.136
18271W        W86489  31.966  10.528   2.348
18272W        W86490  24.972  11.304  11.844
18273W        W86491  22.679  44.995  10.673
18274W        W86492  16.542  14.728   4.889
18275W        W86493  39.964  23.418  10.949
18276W        W86494   1.112  24.280   0.142
18277W        W86495  31.470   0.404   2.318
18278W        W86496  10.637   8.642  13.048
18279W        W86497  37.612  31.509  14.473
18280W        W86498  33.869  14.348  14.700
18281W        W86499  29.029   9.307  12.309
18282W        W86500  28.111  23.327   0.261
18283W        W86501  26.439  30.646   0.070
18284W        W86502   6.853   2.009   1.821
18285W        W86503  31.156   1.923  12.792
18286W        W86504  39.936  34.484   1.333
18287W        W86505   0.745  34.231  12.335
18288W        W86506  19.541  28.686   0.409
18289W        W86507  27.336  38.943   4.598
18290W        W86508   0.490  17.245  14.899
18291W        W86509  31.293  35.549  13.889
18292W        W86510  18.749  22.849  11.233
18293W        W86511  30.630  14.798  14.770
18294W        W86512  37.084  11.732   3.783
18295W        W86513  39.063  44.980   1.826
18296W        W86514  41.269  15.817   5.079
18297W        W86515  17.392  38.608   0.881
18298W        W86516  42.868  12.247   0.131
18299W        W86517  38.413  25.973  13.053
18300W        W86518  36.156   9.384   3.767
18301W        W86519   4.443  32.326  11.232
18302W        W86520  23.077  12.501   0.705
18303W        W86521  39.073  19.315   0.346
18304W        W86522   7.359   0.060   2.640
18305W        W86523  12.750  41.681   4.970
18306W        W86524   4.507   3.394   0.453
18307W        W86525   4.978  38.455  13.546
18308W        W86526  39.874  27.282   0.867
18309W        W86527  42.802  20.084   0.514
18310W        W86528  35.976  27.175   3.174
18311W        W86529  29.083  28.771   4.081
18312W        W86530  42.195   3.753   0.801
18313W        W86531  35.569  22.103   4.189
18314W        W86532   4.887  34.011  11.875
18315W        W86533  14.239  25.743  11.609
18316W        W86534  35.482  34.755   3.996
18317W        W86535  27.250  10.241   4.037
18318W        W86536   3.032  15.848   2.670
18319W        W86537  41.956  14.654  10.472
18320W        W86538  11.805  19.811  13.040
18321W        W86539   3.913  20.538   1.166
18322W        W86540  12.080  41.845   0.437
18323W        W86541  11.720  30.562  13.688
18324W        W86542  21.012   1.707  14.530
18325W        W86543   3.205   6.628  14.295
18326W        W86544   2.516  13.800  13.114
18327W        W86545  33.842  20.647  10.835
18328W        W86546  34.272  27.438  11.787
18329W        W86547  21.310  18.687   0.702
18330W        W86548   8.267  43.480  11.388
18331W        W86549  11.810  13.144  14.066
18332W        W86550  40.904   4.760   1.199
18333W        W86551   5.054  43.888   1.342
18334W        W86552  12.542  30.627  11.188
18335W        W86553   2.522  24.677  14.745
18336W        W86554  38.921   4.318   9.839
18337W        W86555   9.890  38.375   0.978
18338W        W86556  34.925  16.762  14.857
18339W        W86557  28.643  40.161  11.208
18340W        W86558  38.340   9.395  12.972
18341W        W86559  28.025  38.528  12.419
18342W        W86560   3.980  33.211   0.809
18343W        W86561   2.862  27.093   3.870
18344W        W86562  36.559  21.259  14.371
18345W        W86563  41.355  19.694  12.052
18346W        W86564  33.822  35.266  12.732
18347W        W86565  15.805  33.940  10.480
18348W        W86566   3.117  39.776  11.748
18349W        W86567  23.640  30.421   3.097
18350W        W86568   6.359  18.553  12.872
18351W        W86569   4.392   7.716   0.383
18352W        W86570   2.773  25.092  13.463
18353W        W86571  40.528  11.508  12.833
18354W        W86572  37.933   1.883  11.193
18355W        W86573  15.180  21.694  12.635
18356W        W86574  44.693  35.392  13.728
18357W        W86575  36.475   8.680   2.439
18358W        W86576   2.288  38.916  12.487
18359W        W86577   2.182   4.783   4.129
18360W        W86578  29.610  37.548  13.472
18361W        W86579  16.495  10.345   0.932
18362W        W86580  44.774  29.562  13.380
18363W        W86581  16.119  17.947   4.690
18364W        W86582  38.274  38.292  11.839
18365W        W86583  38.238  37.761   2.909
18366W        W86584  27.216  30.185   0.335
18367W        W86585  10.256   3.675   2.638
18368W        W86586  18.710   1.814   0.720
18369W        W86587   2.812  22.544   4.357
18370W        W86588  29.017  36.446   3.881
18371W        W86589  32.002  25.699  10.538
18372W        W86590  31.951  12.274   1.705
18373W        W86591  27.894  40.977   2.371
18374W        W86592   3.639  43.787  12.030
18375W        W86593  35.377   9.893   4.899
18376W        W86594   6.268  41.753  14.769
18377W        W86595  38.412  42.407  13.805
18378W        W86596  13.340  36.500   1.853
18379W        W86597  23.245  18.079   2.255
18380W        W86598  33.041  26.622  12.550
18381W        W86599  16.843   2.717   2.763
18382W        W86600   7.423   3.553   1.297
18383W        W86601  25.895   5.875  11.439
18384W        W86602  20.776  22.121  13.552
18385W        W86603   1.694  25.044  13.470
18386W        W86604  21.300  19.752  10.708
18387W        W86605  41.618  36.893  14.367
18388W        W86606   2.938  30.502   1.636
18389W        W86607  42.089  33.512   1.824
18390W        W86608   1.471  23.491  11.159
18391W        W86609  18.649  16.063   0.407
18392W        W86610  32.397  21.479   2.718
18393W        W86611   5.171  14.286  14.419
18394W        W86612   1.993   3.612   0.586
18395W        W86613  19.697  35.880  13.784
18396W        W86614  12.926  20.572   3.176
18397W        W86615   1.238  18.446  12.114
18398W        W86616  16.077  29.984  11.626
18399W        W86617  15.822  10.296  12.115
18400W        W86618  24.544  11.716   4.481
18401W        W86619  19.098  41.440  10.430
18402W        W86620  24.653  29.196  12.832
18403W        W86621  36.766  12.135   3.712
18404W        W86622  13.278  14.902  12.120
18405W        W86623  33.785  30.403  13.395
18406W        W86624  25.280  36.619   0.400
18407W        W86625  19.733  16.853  12.341
18408W        W86626  22.167   3.390   3.316
18409W        W86627  15.883  16.607  11.959
18410W        W86628  17.593  20.779  13.398
18411W        W86629  38.926  30.671  12.173
18412W        W86630  19.090  16.767   4.258
18413W        W86631  28.613   5.459   4.152
18414W        W86632  26.417  41.986   4.541
18415W        W86633  22.278   0.416  14.032
18416W        W86634  26.661  36.620  11.143
18417W        W86635  19.021  27.938   4.199
18418W        W86636   8.360   3.196   1.501
18419W        W86637  14.702   5.236  14.968
18420W        W86638  31.655  14.687   1.239
18421W        W86639  37.719  29.581  13.433
18422W        W86640  11.102  36.984   0.555
18423W        W86641  18.076  26.269  13.510
18424W        W86642  40.637  42.843  14.722
18425W        W86643  19.596  30.685  12.341
18426W        W86644  30.787  21.026  12.587
18427W        W86645  41.244  35.893   2.741
18428W        W86646  28.532  44.032   0.607
18429W        W86647  22.320  35.543  14.556
18430W        W86648  18.666  11.653   0.670
18431W        W86649  21.609  30.821  13.957
18432W        W86650  10.760  41.372   1.316
18433W        W86651  33.322  40.420  14.191
18434W        W86652  26.096   7.598   3.845
18435W        W86653  28.932   6.875   4.655
18436W        W86654   1.281  27.550  12.875
18437W        W86655  35.419  38.729   3.056
18438W        W86656  20.872  38.932   3.830
18439W        W86657  30.003  18.198  14.902
18440W        W86658  36.579   9.563  11.198
18441W        W86659  36.953  10.829   4.831
18442W        W86660   9.123  21.211   0.185
18443W        W86661  13.710  15.155   4.477
18444W        W86662  31.674  41.594   0.365
18445W        W86663  28.433  12.612  13.092
18446W        W86664  44.263   7.966  13.254
18447W        W86665  32.902  31.707   3.533
18448W        W86666  34.846  17.263  14.953
18449W        W86667  32.155  35.283  11.566
18450W        W86668  16.237  43.355   3.100
18451W        W86669   6.759   6.877   4.105
18452W        W86670  28.280  41.135   3.627
18453W        W86671  11.828  39.061   4.710
18454W        W86672  34.350   6.419  14.544
18455W        W86673  23.633  37.181  10.644
18456W        W86674  29.467  17.014   0.137
18457W        W86675  37.468  13.642  13.917
18458W        W86676  40.932  20.842  12.578
18459W        W86677   1.837  18.686   1.846
18460W        W86678  27.293  24.843   5.063
18461W        W86679  26.379  30.767   2.409
18462W        W86680   8.387   1.126  12.179
18463W        W86681  26.955  26.711  14.451
18464W        W86682  40.531   9.256  11.640
18465W        W86683  31.508  24.767  14.867
18466W        W86684  31.107  44.248  11.897
18467W        W86685   8.749   9.808  12.987
18468W        W86686  34.249   4.034   4.898
18469W        W86687  44.762  29.728   2.405
18470W        W86688  19.761  16.162   4.291
18471W        W86689  42.071   2.046   4.229
18472W        W86690  41.505  36.980   2.597
18473W        W86691  32.325  19.188  14.458
18474W        W86692  32.915  11.923  12.063
18475W        W86693  24.984   9.868  10.433
18476W        W86694  17.693  39.516   3.241
18477W        W86695  42.664  11.975  11.311
18478W        W86696  31.721  23.746  11.531
18479W        W86697  27.170  11.375   4.456
18480W        W86698  10.711  36.441  10.814
18481W        W86699  23.060  38.030   1.903
18482W        W86700  10.397   5.605   1.425
18483W        W86701  25.449  41.972  14.083
18484W        W86702  22.263  13.882   1.053
18485W        W86703   5.338   0.239  13.322
18486W        W86704  36.931  10.689  10.716
18487W        W86705   8.923   0.053  14.917
18488W        W86706  42.415  41.517  10.665
18489W        W86707  38.344   5.285  12.925
18490W        W86708   0.486   2.058  12.329
18491W        W86709  20.265  39.905   1.701
18492W        W86710  22.723  23.790  14.943
18493W        W86711   7.001  28.998   4.693
18494W        W86712  22.666  11.628   4.571
18495W        W86713  30.512  10.960  11.027
18496W        W86714  36.946  42.346  13.815
18497W        W86715  15.592  30.833  10.703
18498W        W86716  10.603  35.587   3.644
18499W        W86717   3.233  36.881  10.708
18500W        W86718  14.203  15.563  11.143
18501W        W86719   7.273  23.800  14.475
18502W        W86720  14.062  31.115   0.998
18503W        W86721  26.757  42.916  10.725
18504W        W86722  44.837  14.274  12.593
18505W        W86723  14.734   4.921  14.443
18506W        W86724  34.518  10.518  14.993
18507W        W86725  42.506  38.974  14.701
18508W        W86726  43.962  10.708  14.377
18509W        W86727  33.389  38.596  14.484
18510W        W86728   5.645  40.323   4.173
18511W        W86729   9.507   4.323   0.788
18512W        W86730   3.396   3.761  14.764
18513W        W86731   7.203  31.796   1.713
18514W        W86732  22.814  11.257  10.645
18515W        W86733  35.520  36.860   0.488
18516W        W86734   4.934   1.094  13.885
18517W        W86735  10.721  26.488  12.889
18518W        W86736  20.319  10.893  12.973
18519W        W86737  10.119  31.683   1.110
18520W        W86738  28.435   4.744   3.152
18521W        W86739  15.494   6.841   0.730
18522W        W86740   2.978   4.217   3.936
18523W        W86741  33.954  30.502   1.845
18524W        W86742  32.702  15.368   2.660
18525W        W86743   2.930  30.601  13.175
18526W        W86744  36.926  19.307   0.987
18527W        W86745  30.846  26.048   3.046
18528W        W86746  36.473   0.757   2.375
18529W        W86747  43.360   5.287   3.400
18530W        W86748  31.979  37.818   2.494
18531W        W86749  25.553  35.157   2.206
18532W        W86750  10.106  40.732  14.913
18533W        W86751  44.246   4.835   4.166
18534W        W86752   5.731  40.182  14.376
18535W        W86753  41.447  20.340  14.739
18536W        W86754  39.397   7.186  12.180
18537W        W86755  23.508   2.681  13.437
18538W        W86756  15.592  34.465  13.028
18539W        W86757  32.044  23.144   3.137
18540W        W86758  23.212  10.405   1.987
18541W        W86759   4.733  41.305  14.160
18542W        W86760  16.343  36.563   1.350
18543W        W86761  34.130   4.547  12.385
18544W        W86762  10.306   1.865  11.940
18545W        W86763   4.480  36.032  13.068
18546W        W86764  16.099  23.818  10.554
18547W        W86765  43.954  40.570   4.711
18548W        W86766  44.738  12.595   3.255
18549W        W86767   8.754   5.321  14.296
18550W        W86768  21.921  22.411   2.738
18551W        W86769  39.067  26.983   2.045
18552W        W86770  16.994   2.331   2.015
18553W        W86771  25.068   6.792   4.004
18554W        W86772  28.552  22.294  12.783
18555W        W86773  23.716  21.126  14.405
18556W        W86774  27.238  25.559  11.106
18557W        W86775   3.197  12.138  11.851
18558W        W86776  44.816  24.483  12.638
18559W        W86777  40.060   3.639  11.962
18560W        W86778  31.441   5.298  12.988
18561W        W86779  28.539  39.478  11.564
18562W        W86780   6.333   3.891   0.296
18563W        W86781   3.444  19.301   4.102
18564W        W86782  41.731  37.852  13.448
18565W        W86783  36.261  34.495  13.469
18566W        W86784  31.361  33.532  12.860
18567W        W86785  27.124  38.821   0.941
18568W        W86786  13.590  44.453   3.218
18569W        W86787  39.070   7.620   4.618
18570W        W86788   1.904  12.285  13.120
18571W        W86789  27.040  30.635   3.604
18572W        W86790  20.625  43.687   3.521
18573W        W86791  22.182  16.787  14.321
18574W        W86792  22.865  43.332  13.929
18575W        W86793  30.025   3.717  11.196
18576W        W86794  27.168   3.483  12.112
18577W        W86795  31.528  12.803  13.735
18578W        W86796   7.842  41.931  14.381
18579W        W86797   0.794  22.534  13.090
18580W        W86798  44.403   2.008   4.979
18581W        W86799  27.364  36.860  13.506
18582W        W86800   7.467  11.037  12.451
18583W        W86801  42.005   2.932   4.022
18584W        W86802  21.780  20.610   3.669
18585W        W86803  30.551  39.354  14.513
18586W        W86804  16.602   0.970  11.959
18587W        W86805   1.216  15.318  14.488
18588W        W86806  34.379  23.798  14.841
18589W        W86807  15.106   7.864  14.089
18590W        W86808  20.880  18.712   1.035
18591W        W86809  27.340   4.222  11.456
18592W        W86810   5.359  33.265  13.851
18593W        W86811  41.573  22.571   0.355
18594W        W86812  29.520  42.480  10.677
18595W        W86813  25.650  33.710   0.692
18596W        W86814  12.743  36.593   4.707
18597W        W86815  36.982  42.704  14.459
18598W        W86816  33.299  41.912  13.918
18599W        W86817  26.738  19.258   3.623
18600W        W86818  39.739   1.388   2.230
18601W        W86819   8.247  10.576   1.025
18602W        W86820  33.828  34.204  13.014
18603W        W86821  39.130   2.628   0.813
18604W        W86822  27.393  19.307  12.441
18605W        W86823  38.168  35.483   0.361
18606W        W86824  27.961  14.274  13.545
18607W        W86825  21.638  35.843  12.491
18608W        W86826  33.025   4.408  13.908
18609W        W86827  35.534   0.506  10.387
18610W        W86828   0.687  20.694   0.283
18611W        W86829  20.961  31.526  12.046
18612W        W86830  42.846  14.662   1.494
18613W        W86831  30.187  28.582  11.945
18614W        W86832  31.817  14.936   2.803
18615W        W86833  39.481   3.448   0.472
18616W        W86834  35.755  27.622  11.863
18617W        W86835  42.407   2.872  14.489
18618W        W86836   1.968   4.256  14.990
18619W        W86837  18.674  32.040   0.319
18620W        W86838   8.840  22.187  12.245
18621W        W86839  42.312  28.601  10.696
18622W        W86840  28.196  10.311  14.715
18623W        W86841   9.232  40.937   0.336
18624W        W86842  37.520   7.278   2.734
18625W        W86843  25.705  19.727   4.593
18626W        W86844  21.196   6.333   4.033
18627W        W86845   3.501  22.785   4.984
18628W        W86846   2.436   5.218  12.019
18629W        W86847  25.784  28.517  13.333
18630W        W86848   7.117  31.776   5.044
18631W        W86849  29.578  41.790  11.198
18632W        W86850  30.592  28.590   3.918
18633W        W86851  39.927  16.291   1.495
18634W        W86852  19.793  32.815  12.099
18635W        W86853  33.881  13.235  11.491
18636W        W86854  20.766  28.034   0.769
18637W        W86855  36.879  39.885  12.577
18638W        W86856  16.620  16.288   1.446
18639W        W86857   2.366   1.050   0.333
18640W        W86858  10.874  35.883  11.941
18641W        W86859   9.197  27.380  14.639
18642W        W86860  16.018   5.665   0.869
18643W        W86861  10.149  17.815   4.236
18644W        W86862  10.238  36.240  11.887
18645W        W86863   2.490   4.899  11.604
18646W        W86864  19.720   7.191  14.245
18647W        W86865  41.820  16.597   2.323
18648W        W86866  31.491  23.069   0.673
18649W        W86867  28.439  22.947   0.430
18650W        W86868  21.198  28.228  12.916
18651W        W86869  30.599  36.425  13.091
18652W        W86870   2.985   9.635   1.944
18653W        W86871  13.833  20.994   1.180
18654W        W86872  20.190  24.505   4.211
18655W        W86873   7.304  32.985   3.691
18656W        W86874   1.745  34.077  12.875
18657W        W86875  34.193  33.911   3.222
18658W        W86876   8.818  20.511  14.097
18659W        W86877  15.678   3.229  12.505
18660W        W86878  39.770  19.133   1.700
18661W        W86879  38.774  28.047  14.744
18662W        W86880  36.805  43.242   0.906
18663W        W86881   9.929  22.952  11.484
18664W        W86882  20.520   8.081   3.765
18665W        W86883   9.875   4.464  13.867
18666W        W86884  23.547  23.269  11.461
18667W        W86885   3.826  42.146  10.176
18668W        W86886   1.493   4.910   2.341
18669W        W86887  44.301  14.423  14.477
18670W        W86888  24.120  36.445  13.881
18671W        W86889   3.757  32.810  11.616
18672W        W86890  44.629  17.150  11.188
18673W        W86891  37.617   0.279   3.620
18674W        W86892  34.675   4.597   1.321
18675W        W86893  18.124  19.200  12.888
18676W        W86894  31.646  31.394   4.683
18677W        W86895  16.320  12.626   4.100
18678W        W86896  27.072  42.273   2.214
18679W        W86897   4.316   6.436   4.282
18680W        W86898  35.596  24.801  14.811
18681W        W86899  14.637   5.702  14.720
18682W        W86900   3.603  25.185   2.290
18683W        W86901  44.576  10.618   0.306
18684W        W86902  21.148  14.099  11.110
18685W        W86903  12.253  13.883   3.809
18686W        W86904  39.756  17.158  11.632
18687W        W86905  29.043  43.759   4.124
18688W        W86906  28.963  29.231   2.821
18689W        W86907  20.310  20.490   2.733
18690W        W86908   2.569  17.037   9.905
18691W        W86909  31.132   9.905  12.504
18692W        W86910  23.783  43.008   0.853
18693W        W86911   1.320   4.258  13.293
18694W        W86912   9.589  40.473   4.693
18695W        W86913  17.220  30.114  10.699
18696W        W86914  14.905  12.831  11.587
18697W        W86915  40.815  23.428  13.545
18698W        W86916  18.032  21.053  14.500
18699W        W86917   6.355  41.565  12.456
18700W        W86918  12.794  38.529  12.629
18701W        W86919   7.399  12.884  13.016
18702W        W86920  39.395  38.183   1.425
18703W        W86921   7.739  13.146  10.359
18704W        W86922  11.180   6.884   0.226
18705W        W86923  12.951  41.008  10.676
18706W        W86924  23.483   7.279  12.464
18707W        W86925  22.497  44.298  14.418
18708W        W86926  10.820  17.365  10.177
18709W        W86927  34.548   3.687   4.662
18710W        W86928  15.876  44.458   0.324
18711W        W86929  22.036  26.188   2.752
18712W        W86930  22.367  29.099   3.232
18713W        W86931  19.488  15.083  14.173
18714W        W86932  36.343  37.827  14.415
18715W        W86933   3.903  30.599  14.070
18716W        W86934  15.646  44.931  13.513
18717W        W86935  28.260   1.076  12.993
18718W        W86936  15.136   5.579   2.343
18719W        W86937  28.057  30.095   0.955
18720W        W86938  38.446  18.733  13.950
18721W        W86939  23.650  26.689  13.980
18722W        W86940  37.435   6.271  13.210
18723W        W86941   2.356   0.484   1.921
18724W        W86942  19.574  18.909  11.974
18725W        W86943  16.299  27.186   4.210
18726W        W86944  19.607  17.399   0.364
18727W        W86945   9.920  33.987   0.410
18728W        W86946  10.396  24.243   2.218
18729W        W86947  38.514  14.674   1.768
18730W        W86948   8.416   0.214  11.407
18731W        W86949  36.471   0.056  14.779
18732W        W86950  16.839  29.135  13.903
18733W        W86951  40.485  12.250   0.237
18734W        W86952  20.946   0.483   1.322
18735W        W86953  12.045  36.426  11.591
18736W        W86954  30.998  13.365  11.082
18737W        W86955  26.409  13.611   4.169
18738W        W86956  12.773  38.619  13.634
18739W        W86957  27.087  10.802   2.391
18740W        W86958  31.441  38.528  14.066
18741W        W86959  42.956   2.574  11.860
18742W        W86960  44.388  40.112  14.999
18743W        W86961  11.354  10.697   0.302
18744W        W86962  25.249  44.888   0.167
18745W        W86963  30.212  31.442  12.872
18746W        W86964  22.962   7.890  10.721
18747W        W86965  38.597  28.953   1.419
18748W        W86966   5.893  38.406  10.630
18749W        W86967  29.197  27.996  10.554
18750W        W86968  39.935  14.313   1.830
18751W        W86969  32.540   9.241  11.528
18752W        W86970  13.092  13.719   4.703
18753W        W86971   0.795  34.645  14.052
18754W        W86972  20.571  35.952  12.505
18755W        W86973   8.212  16.602  13.991
18756W        W86974  25.033  40.737  13.856
18757W        W86975  29.093  39.965   1.455
18758W        W86976  12.349  28.431   3.178
18759W        W86977  31.920  38.831  12.061
18760W        W86978  31.936  31.095  13.408
18761W        W86979  26.233  33.338  11.220
18762W        W86980  16.241  40.394  14.655
18763W        W86981  35.233  25.167  14.857
18764W        W86982  42.599  32.310   1.786
18765W        W86983  38.558  33.750  13.515
18766W        W86984  22.336  11.874  11.181
18767W        W86985  15.908   2.036   0.766
18768W        W86986  41.308  21.201  12.434
18769W        W86987  25.290  23.725   0.077
18770W        W86988  44.578  40.004  12.135
18771W        W86989  32.333  40.291   2.301
18772W        W86990  39.555  15.046   1.316
18773W        W86991  27.646   3.755  11.568
18774W        W86992  29.961  11.407   3.238
18775W        W86993  16.572  44.479   1.265
18776W        W86994  35.428  13.617   0.411
18777W        W86995  30.577  22.554  14.806
18778W        W86996  39.561  44.438  14.964
18779W        W86997  23.433   5.919  12.543
18780W        W86998   3.390   8.669   1.342
18781W        W86999  31.765  24.211   4.023
18782W        W87000  39.809  34.247  13.143
18783W        W87001  15.087  14.701   0.798
18784W        W87002   5.959  21.433  13.245
18785W        W87003  27.202  44.893  11.523
18786W        W87004  24.202  14.377  12.531
18787W        W87005  40.074  31.348   2.577
18788W        W87006  25.449  26.732  11.894
18789W        W87007   7.399  10.124   2.100
18790W        W87008  41.076  39.906   3.332
18791W        W87009   8.115  38.852   2.138
18792W        W87010  20.701  41.221  14.256
18793W        W87011   5.306  23.536   3.934
18794W        W87012  39.852  41.955   0.942
18795W        W87013  18.128  41.378   0.483
18796W        W87014  24.604  28.987  14.574
18797W        W87015  37.403  25.030  14.465
18798W        W87016  10.291  13.481   4.269
18799W        W87017  35.469  25.750  12.669
18800W        W87018  44.112  18.533   3.647
18801W        W87019  13.225  42.572  13.926
18802W        W87020  44.287  21.733   3.250
18803W        W87021   6.268  25.025   1.955
18804W        W87022  15.406  26.567   2.223
18805W        W87023  33.438  14.612  12.533
18806W        W87024   6.911  29.656   3.578
18807W        W87025  13.633   3.177   3.418
18808W        W87026  44.845  22.800  11.083
18809W        W87027   5.756  21.200  14.407
18810W        W87028   4.850  37.262   3.784
18811W        W87029   7.807  41.241  10.955
18812W        W87030  43.985  11.719  14.412
18813W        W87031  21.971  13.239  11.553
18814W        W87032  23.617  27.057  13.117
18815W        W87033  32.361  26.214   3.255
18816W        W87034  36.435  33.413   4.690
18817W        W87035   9.577   8.663  11.017
18818W        W87036   7.869  19.377  12.323
18819W        W87037  43.397  32.178  14.697
18820W        W87038  29.106  14.005  13.785
18821W        W87039   3.407  39.047   3.131
18822W        W87040  32.080  11.841   3.612
18823W        W87041  42.289   5.669   0.825
18824W        W87042  30.003  10.036  14.037
18825W        W87043  10.091  26.971  13.360
18826W        W87044  40.536  15.563   3.248
18827W        W87045  13.861  32.922   3.279
18828W        W87046  44.764  26.610   0.372
18829W        W87047   7.727   8.749   0.181
18830W        W87048   3.784  38.771  14.521
18831W        W87049  14.783  17.163  12.984
18832W        W87050   2.965  29.614   1.781
18833W        W87051  38.148  20.579  13.907
18834W        W87052  22.125  17.569  13.005
18835W        W87053  11.402   5.752   2.732
18836W        W87054  20.652  41.479  10.617
18837W        W87055  18.790  15.807   3.119
18838W        W87056  26.513  31.181  10.794
18839W        W87057   0.890  26.522   1.952
18840W        W87058   4.936  30.925   1.412
18841W        W87059  20.513  34.396  12.970
18842W        W87060  34.638  26.207  12.941
18843W        W87061   6.346  18.568   1.776
18844W        W87062  15.219  19.804   4.143
18845W        W87063  12.655  26.686   4.532
18846W        W87064   7.064   6.113  12.547
18847W        W87065  21.755   9.302  10.622
18848W        W87066  38.350   9.673   4.170
18849W        W87067  43.431   9.121  12.419
18850W        W87068  23.259  16.313  10.274
18851W        W87069  24.950  43.015   3.285
18852W        W87070   1.925  37.919   2.747
18853W        W87071  15.362  34.199   3.746
18854W        W87072   3.601  42.304   0.972
18855W        W87073  29.966  21.094  13.019
18856W        W87074  38.697   0.089   4.894
18857W        W87075  28.443  36.882   2.752
18858W        W87076  13.439  40.362  14.508
18859W        W87077   4.406   0.458   2.905
18860W        W87078  11.391  38.070  13.813
18861W        W87079  39.075  30.549   2.109
18862W        W87080   7.829  14.370  14.559
18863W        W87081   8.201   7.365  11.741
18864W        W87082  42.224  25.910  13.944
18865W        W87083  40.337  17.665  12.445
18866W        W87084  34.604   6.788  12.899
18867W        W87085  31.365  22.695  13.410
18868W        W87086  11.123  39.469   4.711
18869W        W87087  29.636  44.832   1.691
18870W        W87088  41.829  14.831   0.419
18871W        W87089  33.000  43.317  13.682
18872W        W87090  21.211  19.063  13.792
18873W        W87091  15.620  21.714   2.134
18874W        W87092  32.521  26.547  12.581
18875W        W87093  41.629  11.502   0.334
18876W        W87094   9.200  38.052   0.504
18877W        W87095  29.440   2.949   3.704
18878W        W87096  26.241  13.097   0.260
18879W        W87097  39.971   4.394   2.913
18880W        W87098  17.253  16.252   0.158
18881W        W87099  11.217  42.950   0.743
18882W        W87100  19.062  17.480   1.314
18883W        W87101  30.147  37.772   3.230
18884W        W87102  20.392  13.769   4.875
18885W        W87103   7.390  27.516   0.455
18886W        W87104  38.465  16.040   2.942
18887W        W87105   5.180  24.656   3.953
18888W        W87106  14.885  17.088   3.049
18889W        W87107  39.849   6.270  14.106
18890W        W87108  44.704  26.539   0.875
18891W        W87109  20.833  19.239   3.769
18892W        W87110  23.597  21.936   0.527
18893W        W87111   5.247  17.242  11.253
18894W        W87112  40.229  39.963  12.188
18895W        W87113  15.115  29.876  14.416
18896W        W87114  41.325   0.770   2.266
18897W        W87115   3.459  23.168   3.172
18898W        W87116  40.512   7.212   2.718
18899W        W87117  33.617   1.965  13.644
18900W        W87118  19.175  30.533  10.707
18901W        W87119  19.276  25.971   3.594
18902W        W87120  26.578   5.249   2.842
18903W        W87121   3.768  30.877  13.455
18904W        W87122  30.209   1.881   1.058
18905W        W87123  44.938  41.976   2.802
18906W        W87124  15.363  44.011   3.204
18907W        W87125  32.007   8.225   4.847
18908W        W87126  24.959  27.363  10.675
18909W        W87127  18.513  25.750  14.028
18910W        W87128  37.532  31.170  12.061
18911W        W87129  12.392  26.964   4.183
18912W        W87130   1.776  17.648   3.610
18913W        W87131  38.341  16.790   4.797
18914W        W87132  37.579  18.306   3.611
18915W        W87133  34.079  30.603  12.998
18916W        W87134   2.363  23.200   2.396
18917W        W87135  26.500  20.251  13.560
18918W        W87136  44.474  18.129   3.615
18919W        W87137   2.252  10.256  14.451
18920W        W87138  25.709  40.050   0.714
18921W        W87139  42.985  18.646  10.884
18922W        W87140   5.804  36.240   2.177
18923W        W87141  41.489  10.751  12.543
18924W        W87142  10.726   8.589   2.358
18925W        W87143   0.280  16.611  10.515
18926W        W87144   7.769  25.580   2.973
18927W        W87145  16.567  35.029   1.132
18928W        W87146  18.363  29.709  12.067
18929W        W87147  12.590   9.330   3.669
18930W        W87148  35.577  33.610   1.166
18931W        W87149  24.411  16.621  14.054
18932W        W87150   9.608  40.040  11.917
18933W        W87151  43.843  17.226   4.889
18934W        W87152  10.584  16.278   2.224
18935W        W87153  42.286   8.750  10.593
18936W        W87154  37.134   6.120   2.544
18937W        W87155  34.101  33.559   0.929
18938W        W87156  37.831  27.202  14.312
18939W        W87157  32.902  36.153   1.823
18940W        W87158  18.270  10.509  14.824
18941W        W87159  20.184  17.727   0.519
18942W        W87160  18.163  27.197   3.338
18943W        W87161  35.760   2.937   4.758
18944W        W87162  42.472  32.016   0.231
18945W        W87163  43.339   8.725  12.067
18946W        W87164  18.550  43.477  14.971
18947W        W87165  20.444   1.574   4.619
18948W        W87166  43.318   2.508   0.345
18949W        W87167  40.308  25.114  13.295
18950W        W87168  38.455  14.076  13.807
18951W        W87169  28.128  11.302  12.108
18952W        W87170  27.395  13.047  13.767
18953W        W87171  40.402  13.792   4.158
18954W        W87172   4.357  16.101  14.701
18955W        W87173  10.838  39.859  10.774
18956W        W87174  41.599  29.871   1.658
18957W        W87175  44.195  43.279   2.796
18958W        W87176  40.988   9.856   3.974
18959W        W87177  13.735  35.384   0.769
18960W        W87178  28.570  34.411  14.845
18961W        W87179   0.439  16.405   2.186
18962W        W87180  38.299   7.956  14.015
18963W        W87181  11.321   2.991  14.461
18964W        W87182   0.787  27.738  12.852
18965W        W87183  25.457  42.985  13.902
18966W        W87184  40.773   1.032  14.696
18967W        W87185  38.024  42.101   2.937
18968W        W87186  12.705  10.623  12.551
18969W        W87187  13.172   7.418   3.694
18970W        W87188  25.126  40.740  10.616
18971W        W87189  41.548  27.727   2.271
18972W        W87190  18.973  15.338  11.524
18973W        W87191  32.377   0.151   3.144
18974W        W87192  23.072  25.616  13.810
18975W        W87193  43.061  37.643  10.231
18976W        W87194  41.908  17.071  10.805
18977W        W87195  27.225  10.846   0.785
18978W        W87196  27.734   1.293   0.940
18979W        W87197  36.934  27.382   3.365
18980W        W87198  36.993   7.369   3.149
18981W        W87199  35.532  18.285  11.467
18982W        W87200  34.124   4.258  13.729
18983W        W87201   7.299  27.958   4.277
18984W        W87202  30.191  37.520  10.805
18985W        W87203  15.936  25.399  14.277
18986W        W87204  15.022   9.421   3.363
18987W        W87205  15.147  10.875  11.382
18988W        W87206   0.730   4.909   0.290
18989W        W87207  43.706  39.620   4.300
18990W        W87208   3.742  35.561  12.572
18991W        W87209  21.495  41.029   0.124
18992W        W87210  13.129  15.105  13.964
18993W        W87211   2.918  12.309   3.172
18994W        W87212  14.904   8.432  10.626
18995W        W87213  26.268  28.126   4.284
18996W        W87214  25.300  28.695  13.513
18997W        W87215  11.207  19.701   2.152
18998W        W87216  13.536  21.233   0.742
18999W        W87217  10.132  19.144  12.007
19000W        W87218   7.556   6.688   1.382
19001W        W87219   6.885  12.666   0.469
19002W        W87220  18.277  12.559   2.300
19003W        W87221  20.127  17.549   1.549
19004W        W87222  14.571  41.113   0.042
19005W        W87223   5.933  34.075   4.879
19006W        W87224  37.587  32.555  12.101
19007W        W87225  22.950   6.612  13.301
19008W        W87226  43.760  39.698   2.249
19009W        W87227  37.899  23.676  14.621
19010W        W87228  44.869  22.661  10.111
19011W        W87229   4.717  18.338   0.908
19012W        W87230  26.921  11.294   2.262
19013W        W87231  19.625  29.754  12.452
19014W        W87232  22.434  17.343  12.338
19015W        W87233  18.573  22.634  12.071
19016W        W87234  36.420  40.300   1.976
19017W        W87235   9.708   6.538  11.618
19018W        W87236  44.787  43.920  11.441
19019W        W87237  41.738  10.008  14.391
19020W        W87238  32.427  23.045   1.061
19021W        W87239  35.520  29.628  10.276
19022W        W87240  37.918  24.533  14.081
19023W        W87241  39.379  19.687  13.563
19024W        W87242  14.720  41.338  11.160
19025W        W87243  42.948  18.527  14.531
19026W        W87244  28.070  25.218  13.859
19027W        W87245  13.085   0.136  13.916
19028W        W87246  41.289  21.321   3.354
19029W        W87247  31.855  12.237  13.061
19030W        W87248  30.226  40.984   3.795
19031W        W87249  20.201  12.371   1.286
19032W        W87250  27.084  16.886   0.247
19033W        W87251  19.514  41.382  14.807
19034W        W87252  24.304  34.352   3.324
19035W        W87253  29.569  38.021  14.421
19036W        W87254  21.128  27.760   1.893
19037W        W87255   0.110  24.019  13.299
19038W        W87256   7.079  38.068   0.920
19039W        W87257  23.131  14.285  10.654
19040W        W87258   7.307  32.570   4.003
19041W        W87259  13.601  32.531  12.949
19042W        W87260   6.798   2.686   2.382
19043W        W87261  12.374  37.406   5.039
19044W        W87262  31.025   6.458   4.503
19045W        W87263  36.474  38.445  11.992
19046W        W87264  22.114  43.841   2.544
19047W        W87265  33.172   6.810   1.445
19048W        W87266  35.575  22.291   1.458
19049W        W87267  17.713  11.895   2.228
19050W        W87268  26.679  20.801   2.344
19051W        W87269  23.200  15.129   3.107
19052W        W87270  30.367  33.546  12.502
19053W        W87271  22.723  12.589  11.607
19054W        W87272  42.247  32.458   4.297
19055W        W87273   8.160  42.461  13.827
19056W        W87274  24.236   5.716   4.130
19057W        W87275  35.159  11.116   1.819
19058W        W87276  33.037  35.392  12.084
19059W        W87277   5.759  16.718  10.699
19060W        W87278  16.144  37.062  10.763
19061W        W87279   7.119  22.621   0.076
19062W        W87280  10.380  29.786   1.736
19063W        W87281  33.953  22.235  11.908
19064W        W87282  34.632  16.174   2.411
19065W        W87283  18.297  18.048   3.662
19066W        W87284  25.210   6.281  11.659
19067W        W87285   0.545  33.835   1.727
19068W        W87286  13.380  21.728  11.366
19069W        W87287   5.250  32.831  14.581
19070W        W87288  33.074  37.117   1.276
19071W        W87289  10.729  13.075  11.372
19072W        W87290   8.876   3.179   3.295
19073W        W87291   5.171  12.252   0.739
19074W        W87292   9.489  13.740   2.663
19075W        W87293  11.383  22.619  13.806
19076W        W87294  30.157  11.308  12.062
19077W        W87295  11.849  27.393  13.153
19078W        W87296  11.364  17.485   5.328
19079W        W87297  29.462  13.688   1.262
19080W        W87298  22.063  10.925   2.159
19081W        W87299  36.834  22.054  10.699
19082W        W87300  32.598   8.867   4.692
19083W        W87301   9.852  29.495  14.144
19084W        W87302  37.561  35.342  11.127
19085W        W87303  33.020   9.880   0.758
19086W        W87304  31.343  27.546   3.852
19087W        W87305  15.574  27.488   4.594
19088W        W87306   4.188  43.941  13.761
19089W        W87307  22.709  18.724  11.142
19090W        W87308  33.148   9.797   2.274
19091W        W87309  18.254  22.923  11.111
19092W        W87310  23.176  27.950   1.749
19093W        W87311  19.128   5.212   4.172
19094W        W87312   7.188  14.633  12.562
19095W        W87313   8.268  29.386   1.792
19096W        W87314  30.080  39.823   4.326
19097W        W87315   5.148  18.424   4.315
19098W        W87316  29.582  14.844  14.847
19099W        W87317  41.420  20.753  11.649
19100W        W87318  33.141  32.932  11.320
19101W        W87319  44.947  11.356   1.477
19102W        W87320  37.042  37.101   4.248
19103W        W87321  12.953  41.516   0.369
19104W        W87322  43.751  42.748   4.567
19105W        W87323  24.861  22.832   9.697
19106W        W87324  18.073  20.771   1.299
19107W        W87325  35.510  17.538   2.354
19108W        W87326  44.710  21.694  13.040
19109W        W87327  14.864  30.789   1.385
19110W        W87328  38.484  22.708  13.008
19111W        W87329  11.455  11.190  11.144
19112W        W87330  11.579   0.868  11.408
19113W        W87331  32.952  24.016   4.403
19114W        W87332  43.635  19.560   0.856
19115W        W87333  32.765   8.652   4.236
19116W        W87334  30.840  31.932   0.403
19117W        W87335  16.341  18.635   0.857
19118W        W87336  14.221  36.064   0.767
19119W        W87337  44.086  15.666   4.662
19120W        W87338  14.490   7.815   3.734
19121W        W87339   0.763  36.504   2.317
19122W        W87340   4.943  33.510  13.689
19123W        W87341  25.003  35.132  11.694
19124W        W87342  26.989  37.126  14.058
19125W        W87343   7.908  15.245  14.621
19126W        W87344  30.861  42.256  11.572
19127W        W87345  27.068   6.442   4.679
19128W        W87346  15.099  27.519   3.783
19129W        W87347  29.110   3.960  11.449
19130W        W87348  23.806   3.820  13.038
19131W        W87349   2.462  19.512  11.590
19132W        W87350  35.915  39.394   4.635
19133W        W87351   2.840  15.909   0.478
19134W        W87352  43.034  14.373   2.586
19135W        W87353  10.678  18.558  14.036
19136W        W87354  16.812  12.878   1.366
19137W        W87355   6.685  42.032   0.352
19138W        W87356  30.718  31.216   3.413
19139W        W87357  13.185  11.104  12.891
19140W        W87358  15.659  33.931   3.042
19141W        W87359  19.535  28.676  13.541
19142W        W87360  22.340  15.226  13.509
19143W        W87361  31.758  23.461   4.585
19144W        W87362  32.118   2.917  10.984
19145W        W87363   1.865   8.808   4.464
19146W        W87364  16.848  21.285  13.528
19147W        W87365  41.294  29.787  14.573
19148W        W87366  29.501  37.776  13.011
19149W        W87367  32.847  23.894  10.342
19150W        W87368  17.214   6.989   4.129
19151W        W87369  39.919  32.876  10.509
19152W        W87370   9.677  32.589   2.706
19153W        W87371  28.087  29.556  11.071
19154W        W87372  26.232  31.637   3.119
19155W        W87373  12.849  15.692   1.701
19156W        W87374  10.676  34.393  12.961
19157W        W87375  27.428   8.332   0.882
19158W        W87376  43.998  24.938  10.692
19159W        W87377  29.470   3.288  13.324
19160W        W87378  17.129  21.210  11.887
19161W        W87379  26.540  25.020   4.962
19162W        W87380  23.020  34.799  14.442
19163W        W87381  25.477  13.354   3.712
19164W        W87382  28.014  32.149   2.731
19165W        W87383  14.446  24.336  13.444
19166W        W87384  20.947  12.821   3.978
19167W        W87385  28.157  34.627   3.271
19168W        W87386  19.627  13.958   1.342
19169W        W87387   0.464  24.180   3.227
19170W        W87388   7.267   6.209  12.057
19171W        W87389   8.149  25.033  11.520
19172W        W87390  44.735  15.070   3.530
19173W        W87391  38.126  40.560   1.431
19174W        W87392   6.998   8.174  10.673
19175W        W87393  27.107   9.760   4.192
19176W        W87394  20.998  28.172  14.391
19177W        W87395  37.018  19.715  11.393
19178W        W87396  13.932  26.436   1.240
19179W        W87397  33.463  22.011  12.971
19180W        W87398  16.241  44.300  12.172
19181W        W87399  12.873  26.200   3.720
19182W        W87400  44.642  12.540  12.376
19183W        W87401  34.505  32.108   2.326
19184W        W87402  34.342  39.035  14.262
19185W        W87403   0.463   1.774   1.345
19186W        W87404   1.277  32.511   2.773
19187W        W87405   6.657  11.680  12.529
19188W        W87406  18.784  38.633   1.254
19189W        W87407  31.684   2.585   4.591
19190W        W87408   2.975  22.675   4.939
19191W        W87409  12.442  21.223  12.666
19192W        W87410  20.702  38.751  13.944
19193W        W87411  12.936  19.497  13.776
19194W        W87412  12.806  34.147   2.810
19195W        W87413   6.350  21.160  10.765
19196W        W87414  44.435  20.886   0.508
19197W        W87415  13.294  40.639   0.469
19198W        W87416  27.995  18.556  10.813
19199W        W87417   9.631   0.916   3.353
19200W        W87418  11.106  24.449  12.620
19201W        W87419  22.357  16.716  11.647
19202W        W87420  23.887   0.840   2.856
19203W        W87421  12.480   6.836  12.141
19204W        W87422   2.329   7.565   1.892
19205W        W87423   1.389  24.192  13.875
19206W        W87424  34.660  36.830   4.105
19207W        W87425  27.539  26.863   0.947
19208W        W87426  14.333  28.550   1.635
19209W        W87427  26.146   8.196   2.013
19210W        W87428  20.029  37.274  11.092
19211W        W87429  23.739  42.692  14.345
19212W        W87430  32.389  24.860   1.674
19213W        W87431  35.949  27.006   0.699
19214W        W87432  33.689  38.675  11.695
19215W        W87433  23.934  10.171  13.375
19216W        W87434  19.420  21.227  14.847
19217W        W87435  21.199  34.046   2.588
19218W        W87436  36.909  20.686   3.818
19219W        W87437  18.587  39.571   2.987
19220W        W87438  15.699  28.697  14.698
19221W        W87439  33.081  23.908   2.283
19222W        W87440  11.517  10.712  11.625
19223W        W87441  23.162  11.812  13.562
19224W        W87442  31.097  26.626  11.234
19225W        W87443  10.107  14.210   1.298
19226W        W87444  41.348   2.101  11.507
19227W        W87445  41.072  34.586  14.323
19228W        W87446  18.408  12.953   4.512
19229W        W87447  44.328  14.195   3.083
19230W        W87448  13.167  18.566   4.171
19231W        W87449  30.106  23.784   4.578
19232W        W87450  23.484  22.211  13.802
19233W        W87451  38.242  32.413   0.893
19234W        W87452  35.125  43.444  13.049
19235W        W87453  26.441  22.803  11.179
19236W        W87454  44.256  25.678  12.040
19237W        W87455  43.308   5.833  10.786
19238W        W87456  33.988  15.853   3.686
19239W        W87457  19.018  27.245  12.553
19240W        W87458  23.229  17.173   2.156
19241W        W87459  44.186  15.209  12.795
19242W        W87460  18.589  14.068   2.194
19243W        W87461  41.839  37.556   0.755
19244W        W87462  27.202  41.309  11.154
19245W        W87463  35.845  39.416  12.848
19246W        W87464  21.654  42.747   3.195
19247W        W87465  32.405  10.886  11.609
19248W        W87466   4.219  31.389  12.022
19249W        W87467  27.169  38.909   9.990
19250W        W87468  29.486  14.191  14.804
19251W        W87469  11.276   6.396   3.855
19252W        W87470   3.721   1.668  11.459
19253W        W87471  31.213   2.192   0.302
19254W        W87472  17.628   8.304   2.094
19255W        W87473  32.419  35.549  11.920
19256W        W87474  15.000  24.138   1.345
19257W        W87475  32.993  31.680   1.878
19258W        W87476  27.180  35.363   3.199
19259W        W87477  43.563  41.548   0.534
19260W        W87478  37.513  25.109   1.903
19261W        W87479  32.339   5.886  12.844
19262W        W87480  33.413   0.907   1.156
19263W        W87481  43.455   9.215  11.910
19264W        W87482  18.911  13.880   2.610
19265W        W87483  28.913  29.454  13.956
19266W        W87484  23.164   2.837   2.702
19267W        W87485  28.894  38.477  14.847
19268W        W87486  39.852   7.150  11.541
19269W        W87487   3.211   9.809   2.417
19270W        W87488  10.811  17.165   4.072
19271W        W87489   6.446  37.928  12.160
19272W        W87490  11.610  41.500   2.659
19273W        W87491  38.827  30.395   4.111
19274W        W87492  16.685  36.619  12.533
19275W        W87493   0.998  40.082  12.874
19276W        W87494  12.189  25.249  14.262
19277W        W87495  40.721  23.046  14.242
19278W        W87496  20.205  43.109  10.232
19279W        W87497  28.882  23.158   3.495
19280W        W87498  21.337  34.935   2.789
19281W        W87499  23.632   1.198   0.664
19282W        W87500  20.380   6.302   4.539
19283W        W87501  12.139  14.772  13.539
19284W        W87502  33.694  42.939   0.796
19285W        W87503   9.205  10.713   4.098
19286W        W87504   1.846  32.568   4.817
19287W        W87505  24.960  14.719  11.034
19288W        W87506  34.477  16.563   1.606
19289W        W87507  12.673  35.548  14.527
19290W        W87508  39.549  17.317   0.715
19291W        W87509  32.965  30.102  13.491
19292W        W87510  21.734  14.167   1.187
19293W        W87511  14.180  25.329  13.327
19294W        W87512  14.816  15.090   3.275
19295W        W87513  21.762  35.106  13.886
19296W        W87514  18.144  28.139  14.664
19297W        W87515  11.622   6.205   2.796
19298W        W87516   2.232  32.606  11.245
19299W        W87517  39.879  13.643   2.309
19300W        W87518  35.927  43.877   3.341
19301W        W87519  27.570  28.362   0.813
19302W        W87520  41.840  41.909   1.026
19303W        W87521  44.864  41.822   1.401
19304W        W87522  19.762  15.311  11.232
19305W        W87523  32.586  36.017   4.464
19306W        W87524  12.809  25.543  10.839
19307W        W87525   8.660   7.703  10.785
19308W        W87526  30.112   1.389   0.315
19309W        W87527   1.484  31.935  10.988
19310W        W87528  42.628  28.151  14.773
19311W        W87529  32.409  37.608  12.019
19312W        W87530   5.170  17.702   1.193
19313W        W87531   0.876  30.025  12.488
19314W        W87532   6.644  39.455   1.737
19315W        W87533  10.844  25.685  14.565
19316W        W87534  21.267  26.020   0.508
19317W        W87535  10.289  19.028   3.294
19318W        W87536  24.288  12.181  12.106
19319W        W87537  11.132  20.173   2.383
19320W        W87538  22.078  13.512  10.683
19321W        W87539  16.683  22.199   4.743
19322W        W87540   2.384  35.556   0.731
19323W        W87541  12.148  39.068  14.301
19324W        W87542  18.437  13.798   2.805
19325W        W87543  16.009  29.453  13.090
19326W        W87544  31.160  43.469   0.189
19327W        W87545  33.878   2.481   3.739
19328W        W87546  28.544   9.196   3.858
19329W        W87547  39.048  24.925   4.210
19330W        W87548  24.188  32.299   3.359
19331W        W87549  34.529  13.679   0.374
19332W        W87550  28.592  34.300  13.053
19333W        W87551   6.939  25.215   1.700
19334W        W87552  22.270  31.350   4.552
19335W        W87553   1.425  28.930  11.941
19336W        W87554  35.393  41.323  14.368
19337W        W87555  37.860  19.331  14.707
19338W        W87556   2.830  40.317   4.197
19339W        W87557  34.786  40.119  10.364
19340W        W87558  34.603   6.376  13.188
19341W        W87559  30.069  14.252   0.950
19342W        W87560  44.984  18.154   3.690
19343W        W87561  26.140  12.141   4.810
19344W        W87562   9.847   3.962   4.801
19345W        W87563  16.568   1.432   2.279
19346W        W87564   4.383   4.618  14.099
19347W        W87565  31.939  37.615   1.620
19348W        W87566  16.189  39.810   0.911
19349W        W87567  29.285  12.277  10.598
19350W        W87568  16.057  33.451   1.659
19351W        W87569  14.572  40.784   4.552
19352W        W87570  37.897  44.201  13.591
19353W        W87571  14.793   5.264   3.619
19354W        W87572   0.291  14.247  11.001
19355W        W87573   6.028   2.253  14.706
19356W        W87574  34.866  12.373   1.815
19357W        W87575   9.665  28.118   1.210
19358W        W87576  25.099  12.324   4.947
19359W        W87577  20.276  23.176  12.900
19360W        W87578  27.887  17.324   1.895
19361W        W87579   1.471  27.142  10.782
19362W        W87580  38.920  29.407   3.165
19363W        W87581  15.363  29.704   2.449
19364W        W87582  18.557  21.144  14.469
19365W        W87583  12.743  20.152  14.544
19366W        W87584  43.941  33.951  12.332
19367W        W87585   9.637  35.841  12.556
19368W        W87586  35.995   0.385  12.919
19369W        W87587  43.568  39.550   1.476
19370W        W87588  37.914  10.946   4.362
19371W        W87589  40.446  18.192   3.610
19372W        W87590  41.539   8.298  11.605
19373W        W87591  33.965  27.643  13.452
19374W        W87592  23.353  40.112  11.562
19375W        W87593  43.762  24.484  14.584
19376W        W87594  30.934   2.447   4.114
19377W        W87595  28.168  19.099   2.140
19378W        W87596  35.078  17.001   3.210
19379W        W87597  33.282   4.382   2.791
19380W        W87598  35.123  25.199   2.364
19381W        W87599  31.593  42.989   3.690
19382W        W87600  32.442  23.931  14.917
19383W        W87601  38.397  17.501  12.667
19384W        W87602  30.402  43.497  12.666
19385W        W87603  18.372   1.391  14.620
19386W        W87604   9.113   4.777   3.834
19387W        W87605   5.307  31.799  11.969
19388W        W87606  22.937  28.605   0.495
19389W        W87607  22.463  27.976   0.324
19390W        W87608   1.265  24.636  13.601
19391W        W87609   8.378  37.623  13.502
19392W        W87610  16.186  28.840  12.367
19393W        W87611   9.878   9.090   1.879
19394W        W87612  25.004  17.037  10.741
19395W        W87613  10.603   0.378  13.465
19396W        W87614  14.504  17.736  13.416
19397W        W87615  44.301  43.193  11.399
19398W        W87616  39.403  25.884   3.663
19399W        W87617   4.059  15.504   1.082
19400W        W87618  28.574   5.839   4.835
19401W        W87619  26.742   6.955  11.118
19402W        W87620  21.774   3.738  13.649
19403W        W87621  29.931  32.889  13.856
19404W        W87622  18.565  15.879  10.199
19405W        W87623  20.529  44.265  14.350
19406W        W87624  28.909  13.397  11.575
19407W        W87625   4.245  21.240  11.071
19408W        W87626   5.881  31.763   0.221
19409W        W87627  44.007  22.217   3.756
19410W        W87628   2.165  41.984  13.814
19411W        W87629  36.484  16.040  11.861
19412W        W87630  30.454   3.438  11.493
19413W        W87631   0.353  37.374   1.379
19414W        W87632  28.909  21.561  13.440
19415W        W87633   4.476  12.319   4.141
19416W        W87634  40.015  38.699   1.075
19417W        W87635  24.515   2.083  12.159
19418W        W87636  31.523  25.679   1.677
19419W        W87637   3.431   0.361   3.769
19420W        W87638  30.403  28.393  12.365
19421W        W87639  41.186  22.477  14.992
19422W        W87640  40.626   2.406  10.069
19423W        W87641  39.819  42.504  13.866
19424W        W87642  10.040   5.227  12.440
19425W        W87643  11.439  36.703  11.015
19426W        W87644  17.236   7.966   4.062
19427W        W87645   7.834   0.262   3.308
19428W        W87646  36.933   6.517  10.417
19429W        W87647  33.899  24.571  10.948
19430W        W87648   4.805  24.697   0.225
19431W        W87649   9.509  30.557  10.641
19432W        W87650  40.476   0.583   2.811
19433W        W87651  38.368  33.419  11.111
19434W        W87652  36.570  12.453  12.516
19435W        W87653  11.775  23.104  13.901
19436W        W87654  10.507  28.477   3.675
19437W        W87655  27.097  42.049  11.607
19438W        W87656  36.562   1.463  12.129
19439W        W87657  39.718   7.499  11.938
19440W        W87658  34.316   3.506   1.971
19441W        W87659  12.537  30.703  12.053
19442W        W87660  33.408   8.601   5.005
19443W        W87661  39.903  28.104   3.706
19444W        W87662  41.490   5.954   0.322
19445W        W87663   3.689  21.060  10.530
19446W        W87664  28.746  32.899  13.615
19447W        W87665  10.946  29.220  13.464
19448W        W87666  24.252   6.588   1.784
19449W        W87667   1.731  20.568   1.950
19450W        W87668  33.149  25.705  13.486
19451W        W87669   5.361   9.871   1.256
19452W        W87670  41.559  30.528  14.123
19453W        W87671  15.679  43.064   1.486
19454W        W87672  26.677  28.152   2.355
19455W        W87673  34.919  34.991  14.794
19456W        W87674  17.646  40.336   4.401
19457W        W87675   9.473  16.558   0.007
19458W        W87676  25.699  44.939  13.041
19459W        W87677  13.908  17.271   0.884
19460W        W87678  40.587  20.511   0.241
19461W        W87679  36.645  10.200  14.375
19462W        W87680  27.126  15.530   2.662
19463W        W87681  25.200  44.834  10.616
19464W        W87682  39.937  22.686  12.102
19465W        W87683  29.902  30.954   0.202
19466W        W87684  30.982  35.602   0.580
19467W        W87685  39.058   4.480   3.378
19468W        W87686  18.281  28.654  11.534
19469W        W87687  29.566  40.514   1.854
19470W        W87688  41.436  19.058   1.302
19471W        W87689   2.763   4.659  14.038
19472W        W87690  25.862  31.698   4.179
19473W        W87691   4.708  34.809  14.814
19474W        W87692   3.812  40.436   0.611
19475W        W87693  32.307  19.228   3.619
19476W        W87694  33.464   7.162  12.196
19477W        W87695   1.804   1.829   3.175
19478W        W87696  22.499   2.434  12.062
19479W        W87697  36.595  25.122  14.880
19480W        W87698  19.279  17.522   1.801
19481W        W87699   9.123  24.664   0.336
19482W        W87700  13.470  23.271  14.723
19483W        W87701  29.863  15.197   2.382
19484W        W87702  17.802  15.153   4.107
19485W        W87703  35.900   0.794   0.930
19486W        W87704  17.038   1.989   4.538
19487W        W87705   2.097  43.598  13.023
19488W        W87706   6.980  28.244   1.916
19489W        W87707   6.788  20.691   2.635
19490W        W87708  14.649  11.790   1.307
19491W        W87709   9.616  37.836   1.860
19492W        W87710  26.762  18.737  14.213
19493W        W87711  31.936  44.121  12.208
19494W        W87712  24.917  12.205   2.265
19495W        W87713  23.246   0.753   3.961
19496W        W87714   6.405  38.097   3.183
19497W        W87715  13.257  37.841   2.256
19498W        W87716  14.161   3.176  13.514
19499W        W87717  42.431   9.143  12.199
19500W        W87718  31.169  11.911  11.433
19501W        W87719  17.191   4.979  14.858
19502W        W87720  31.660  21.977   3.649
19503W        W87721  16.563   2.482  12.550
19504W        W87722  36.670   9.618  13.433
19505W        W87723  29.466  41.035  11.676
19506W        W87724  44.005  31.558  14.538
19507W        W87725  31.169  27.248  10.737
19508W        W87726  33.003  26.351   5.184
19509W        W87727  25.757  20.067  14.254
19510W        W87728  42.354  24.052  10.706
19511W        W87729  43.389   5.234   0.987
19512W        W87730  42.843  15.883   3.289
19513W        W87731  38.888  34.067   2.893
19514W        W87732  39.089  39.868   4.161
19515W        W87733  15.246  13.595  11.929
19516W        W87734  23.665   6.855  12.731
19517W        W87735   2.701  39.292   4.176
19518W        W87736  14.842  24.525  12.507
19519W        W87737  28.914  18.043   3.820
19520W        W87738  34.152   5.893  12.438
19521W        W87739  20.484  15.047   1.965
19522W        W87740  36.025   4.183   0.951
19523W        W87741  28.349  38.054   4.784
19524W        W87742  41.699  25.727   1.848
19525W        W87743  14.103  32.517   3.996
19526W        W87744  42.326  31.605   3.675
19527W        W87745  25.779  42.299  14.331
19528W        W87746  32.996  29.450  12.761
19529W        W87747  14.842  30.683   3.683
19530W        W87748  16.688  10.646   0.255
19531W        W87749  30.199  22.690   2.061
19532W        W87750   3.988  25.743  10.770
19533W        W87751   7.400   7.985   0.304
19534W        W87752  18.160  44.203  13.122
19535W        W87753  12.375  23.090   0.500
19536W        W87754  34.558   8.786   0.034
19537W        W87755  35.570  37.822   0.953
19538W        W87756  34.606  29.588   2.409
19539W        W87757   3.734   1.341  14.532
19540W        W87758  13.069  24.105  11.708
19541W        W87759  17.671  36.762   2.192
19542W        W87760  26.081   2.488   0.274
19543W        W87761  23.658  19.332  14.975
19544W        W87762   5.336  15.668   4.200
19545W        W87763   7.736  44.803   2.867
19546W        W87764  14.789  28.954   4.426
19547W        W87765  36.066  15.840   0.889
19548W        W87766   0.932   6.856   4.354
19549W        W87767  14.654  42.756   5.614
19550W        W87768  26.415  39.277  12.497
19551W        W87769  26.447   2.384   1.884
19552W        W87770  30.690   1.500   2.798
19553W        W87771   8.224  40.334  13.291
19554W        W87772   4.383  38.602   3.635
19555W        W87773  41.384  43.478  11.156
19556W        W87774   7.618  38.419   1.430
19557W        W87775  42.819   7.887   3.153
19558W        W87776  27.331  21.092  10.363
19559W        W87777  23.604   3.325  12.137
19560W        W87778  25.381  20.071  14.610
19561W        W87779  21.724  25.231   4.370
19562W        W87780  23.671  33.624   0.772
19563W        W87781  13.387  39.377   2.314
19564W        W87782  35.314  35.388  13.079
19565W        W87783   1.430  33.450   1.230
19566W        W87784   4.168   3.305  12.016
19567W        W87785  13.139  28.476  14.470
19568W        W87786  38.019  10.378  12.954
19569W        W87787   8.289  12.472  10.764
19570W        W87788  19.571  19.822   0.485
19571W        W87789  25.506  40.346  13.149
19572W        W87790  44.375  37.332  12.460
19573W        W87791   1.478  38.659   4.091
19574W        W87792  12.755  23.267   3.670
19575W        W87793  17.696  31.621   1.175
19576W        W87794  34.454  27.182   0.261
19577W        W87795  39.944  40.540   1.242
19578W        W87796  20.583   6.475  11.194
19579W        W87797  11.208   6.731  14.217
19580W        W87798  18.608  37.440  11.002
19581W        W87799   8.866  44.399  13.286
19582W        W87800  27.630  24.103   3.261
19583W        W87801   1.900  24.272   1.758
19584W        W87802  35.815  41.007  14.504
19585W        W87803  11.320  27.371   0.282
19586W        W87804  35.043  13.851   1.417
19587W        W87805  36.022  43.513  12.753
19588W        W87806  13.822  25.586   2.192
19589W        W87807   1.472  30.878   0.377
19590W        W87808  29.496  27.244  11.015
19591W        W87809  44.375  25.975   1.774
19592W        W87810  26.197  33.780   0.895
19593W        W87811  21.002  41.764  13.850
19594W        W87812  30.918  16.638  12.575
19595W        W87813   8.375  20.551   4.338
19596W        W87814  18.263  33.583   4.661
19597W        W87815   9.821  25.436  12.467
19598W        W87816  41.509  13.382  14.252
19599W        W87817  44.829  30.003   4.350
19600W        W87818   8.861  34.511  11.524
19601W        W87819  12.865  15.315   4.202
19602W        W87820  24.483  26.628  10.308
19603W        W87821   6.315   7.919  11.613
19604W        W87822  18.218  13.154   3.242
19605W        W87823   5.236  39.990  12.082
19606W        W87824   8.127   1.790   4.325
19607W        W87825   2.916   2.937   3.974
19608W        W87826  35.040  13.686   4.942
19609W        W87827  33.766  15.270  14.554
19610W        W87828  26.891  36.137   2.815
19611W        W87829  29.542  31.098   0.937
19612W        W87830  13.809  41.296   0.383
19613W        W87831   7.888   2.784   1.177
19614W        W87832   3.364  26.488  14.835
19615W        W87833  43.437  27.186   2.473
19616W        W87834  11.484  32.800   4.166
19617W        W87835  15.277   3.644  12.561
19618W        W87836   9.092  19.732   0.138
19619W        W87837  28.179  26.681   9.967
19620W        W87838  44.982   0.692  11.170
19621W        W87839   1.845   5.782  13.813
19622W        W87840   0.895  37.789  10.973
19623W        W87841   7.626  22.315  11.035
19624W        W87842  30.881  44.927   0.878
19625W        W87843  17.084  39.110  14.222
19626W        W87844  10.567  33.428   3.334
19627W        W87845   1.941  30.649   3.622
19628W        W87846  33.130  44.553   3.555
19629W        W87847  10.145  26.146   1.334
19630W        W87848  31.147  20.057  13.895
19631W        W87849   9.735   3.234   3.229
19632W        W87850   5.426  40.469   3.715
19633W        W87851   0.400  34.047  11.101
19634W        W87852  26.983  37.454   1.956
19635W        W87853   9.048  25.376  11.091
19636W        W87854   2.832  38.921   2.720
19637W        W87855   2.822  37.623   0.837
19638W        W87856  26.790  11.220  13.926
19639W        W87857  21.041   1.097  11.167
19640W        W87858  40.842   6.371   2.338
19641W        W87859   8.365  36.486  13.536
19642W        W87860  39.286  33.597  12.518
19643W        W87861  42.403  39.021   1.228
19644W        W87862  30.871  44.604   3.147
19645W        W87863   5.023  41.910  12.847
19646W        W87864  39.029  38.862  10.892
19647W        W87865  32.089  19.914  10.200
19648W        W87866   3.724  41.840   0.317
19649W        W87867  14.353  15.104   0.975
19650W        W87868  16.493  29.625   4.119
19651W        W87869  18.187  18.788   1.480
19652W        W87870   3.955   1.774   4.124
19653W        W87871  33.914  23.133   1.427
19654W        W87872  15.546  38.752  14.025
19655W        W87873  13.416  25.607   0.768
19656W        W87874  22.486  15.636  14.780
19657W        W87875  13.167   1.770   4.103
19658W        W87876  31.199  16.888  10.696
19659W        W87877  12.277   1.330  12.633
19660W        W87878   6.494  19.291  11.070
19661W        W87879  31.628  43.928   4.345
19662W        W87880  14.593   1.877   4.127
19663W        W87881  14.019  37.045  10.783
19664W        W87882  43.426  19.690   2.707
19665W        W87883  24.901  23.412   0.008
19666W        W87884  18.207  44.350   2.268
19667W        W87885  16.730  30.872  10.704
19668W        W87886  37.536  19.587   1.355
19669W        W87887  29.031  25.092  12.459
19670W        W87888  15.716  36.440  11.061
19671W        W87889  13.328  12.164   2.783
19672W        W87890   9.922  14.807   1.959
19673W        W87891  30.180  30.282   1.844
19674W        W87892   0.892   9.394   3.369
19675W        W87893   5.989  25.144   2.859
19676W        W87894  27.006   5.123  14.294
19677W        W87895  24.555  36.346   3.763
19678W        W87896  33.369  20.079  13.017
19679W        W87897  12.368   4.215   2.320
19680W        W87898  35.719  18.622  13.087
19681W        W87899  16.090  33.565  10.684
19682W        W87900  17.000  36.626   4.075
19683W        W87901   5.355  28.122  13.953
19684W        W87902  43.483   1.171   1.820
19685W        W87903  41.388   9.875   3.254
19686W        W87904  17.643  10.166   2.251
19687W        W87905  15.222  10.132  12.915
19688W        W87906  28.136  34.272   2.339
19689W        W87907  22.990  11.086   0.212
19690W        W87908  24.311  43.222  11.340
19691W        W87909  34.009  36.452  13.307
19692W        W87910   5.195  37.045   0.578
19693W        W87911   9.707  25.418   1.679
19694W        W87912  30.574   7.276   0.424
19695W        W87913  14.050  10.786  10.687
19696W        W87914  43.213  19.450  12.117
19697W        W87915  42.982  20.651  14.946
19698W        W87916   2.282  29.036   2.199
19699W        W87917  11.142  10.266  12.965
19700W        W87918  18.905  36.840   2.336
19701W        W87919  16.418  22.046  13.503
19702W        W87920   7.641  24.449  13.941
19703W        W87921  22.406  25.464   2.441
19704W        W87922  36.670  36.033   3.379
19705W        W87923  35.053  21.557   3.621
19706W        W87924  38.590   0.743  12.581
19707W        W87925   4.407  26.415   1.306
19708W        W87926  19.572   1.499   1.752
19709W        W87927  36.607  18.884   3.227
19710W        W87928  28.142  44.377   1.281
19711W        W87929   8.163  37.933  12.851
19712W        W87930  14.619  28.203  11.118
19713W        W87931  44.052   7.440  12.179
19714W        W87932  28.900  17.212   3.601
19715W        W87933   2.281  44.832   1.301
19716W        W87934  27.573  28.654  10.717
19717W        W87935  16.606  43.231   0.751
19718W        W87936   1.006  19.618  12.432
19719W        W87937  39.774  28.655  12.974
19720W        W87938   4.165  25.998   3.856
19721W        W87939  15.271  22.525   3.811
19722W        W87940  40.808  13.327  14.916
19723W        W87941   8.298  24.391  10.796
19724W        W87942  28.932  10.204   3.697
19725W        W87943  43.070  28.152   5.082
19726W        W87944   4.657  24.042  13.920
19727W        W87945  24.073  14.392  11.607
19728W        W87946  44.943   4.571   3.588
19729W        W87947  20.022  34.860   0.989
19730W        W87948  11.354  22.784  10.743
19731W        W87949  23.957  14.781  14.725
19732W        W87950  16.252   1.976   4.959
19733W        W87951  24.230  22.957  10.215
19734W        W87952  42.180  32.990  11.133
19735W        W87953   6.365   6.387  11.790
19736W        W87954  41.785  38.538   2.791
19737W        W87955  38.444  32.971   3.667
19738W        W87956  14.643  16.629   1.794
19739W        W87957  23.630  25.086   3.573
19740W        W87958   5.037  29.850  12.491
19741W        W87959   8.848  32.125  10.553
19742W        W87960   0.260  27.186   0.646
19743W        W87961  17.623   6.232   0.732
19744W        W87962   8.326  26.162   1.752
19745W        W87963  17.040   8.707  11.154
19746W        W87964  11.140  15.825  12.076
19747W        W87965  23.701  20.609   2.660
19748W        W87966  35.005  35.562   2.323
19749W        W87967  18.428  16.327   1.745
19750W        W87968  20.590  18.500   2.859
19751W        W87969  32.031  37.998   1.990
19752W        W87970  44.684  17.088  10.241
19753W        W87971  22.910  41.508  13.899
19754W        W87972  16.192  28.145  11.184
19755W        W87973  16.699  29.972  13.575
19756W        W87974  33.270  25.414   3.743
19757W        W87975   8.152  43.556   4.368
19758W        W87976  27.094  36.998   4.868
19759W        W87977  36.648   7.233   4.094
19760W        W87978  26.550   9.787  10.660
19761W        W87979  17.773  11.139   0.933
19762W        W87980   7.138  27.903   3.805
19763W        W87981  34.278  19.502  13.653
19764W        W87982  38.211   0.277   1.416
19765W        W87983  21.078  16.403   4.748
19766W        W87984  30.928   5.403  14.956
19767W        W87985  21.494  24.662  12.820
19768W        W87986  21.688  23.665  10.752
19769W        W87987  18.116  36.347  13.463
19770W        W87988  10.467  28.398   0.607
19771W        W87989  13.615  42.159   0.332
19772W        W87990  32.927  41.888   3.422
19773W        W87991  44.884  30.838   4.546
19774W        W87992  32.156  33.663  13.567
19775W        W87993  33.865  24.204   3.907
19776W        W87994  21.524   6.990  13.864
19777W        W87995   5.515  42.862  11.909
19778W        W87996   4.687   0.136   3.609
19779W        W87997  28.831  16.232  14.847
19780W        W87998  39.050   0.380   2.146
19781W        W87999  17.636  21.254   4.638
19782W        W88000  20.553  22.250   4.542
19783W        W88001   4.921  38.444  12.977
19784W        W88002  14.849  38.233  12.551
19785W        W88003   1.789  29.559  13.834
19786W        W88004  41.869  29.560  10.724
19787W        W88005  20.393  14.801   5.075
19788W        W88006   4.861   6.932   0.384
19789W        W88007  38.494  13.752  14.821
19790W        W88008  10.254  14.757   3.741
19791W        W88009  18.805   3.793  13.100
19792W        W88010   3.034  39.500  13.755
19793W        W88011  39.847   4.866  12.351
19794W        W88012   0.815  34.510   2.095
19795W        W88013  27.636   8.328   1.904
19796W        W88014  38.470  34.723  11.517
19797W        W88015   0.204  18.558  11.165
19798W        W88016  30.557  42.091   4.249
19799W        W88017  30.682  30.064   1.859
19800W        W88018   1.359  32.033   1.186
19801W        W88019  41.405  34.861  12.399
19802W        W88020  11.438   4.865   1.753
19803W        W88021  29.416  24.237   0.038
19804W        W88022  24.981  30.972  12.602
19805W        W88023   5.289  20.033   3.641
19806W        W88024  27.272   8.882  12.653
19807W        W88025  11.827  17.080  13.881
19808W        W88026  30.467  38.779   0.748
19809W        W88027   4.863  20.707   1.845
19810W        W88028  22.602  25.662   4.485
19811W        W88029  38.776  43.343  10.612
19812W        W88030   6.299  27.672   0.476
19813W        W88031  27.013  33.898   4.372
19814W        W88032   2.352   8.265   3.907
19815W        W88033  40.766  14.786  12.525
19816W        W88034   6.556  38.427  11.377
19817W        W88035  21.252  14.307   3.709
19818W        W88036  38.046  15.694  11.018
19819W        W88037  21.294  14.770  11.523
19820W        W88038  33.055  37.533  14.480
19821W        W88039  37.715  15.040  10.230
19822W        W88040  21.767   5.786   1.347
19823W        W88041  24.002  39.771   0.397
19824W        W88042  32.785  44.686   1.321
19825W        W88043  38.553  43.808   4.490
19826W        W88044  10.763  31.890  10.450
19827W        W88045  36.847   4.738   1.779
19828W        W88046  43.934   4.206   0.312
19829W        W88047   0.462  38.848  12.484
19830W        W88048  31.974  22.141   0.733
19831W        W88049  43.884  25.666   3.530
19832W        W88050  31.528  22.233  14.985
19833W        W88051  33.984   7.432   2.212
19834W        W88052  38.272  37.106  12.409
19835W        W88053  10.339  10.419   2.611
19836W        W88054  33.034  24.432   3.558
19837W        W88055  18.822  32.511  13.492
19838W        W88056  35.871  42.280   3.234
19839W        W88057  26.014   5.279   1.057
19840W        W88058  44.940  34.611  12.887
19841W        W88059  15.451  26.113  11.701
19842W        W88060  27.903  28.462   4.636
19843W        W88061  30.715  35.008   0.383
19844W        W88062  26.845  12.802   1.484
19845W        W88063  38.830  33.785  14.263
19846W        W88064  40.415   6.983   1.724
19847W        W88065   6.186  33.059  13.051
19848W        W88066   7.711  24.224  12.539
19849W        W88067   3.973   2.537   0.855
19850W        W88068  39.517  27.495   2.091
19851W        W88069  26.755  23.518  12.913
19852W        W88070   9.347  20.454   1.300
19853W        W88071   2.350   4.189  13.534
19854W        W88072  31.054   0.467   0.895
19855W        W88073  39.291   0.996   4.120
19856W        W88074  23.025  20.517   0.473
19857W        W88075  40.256  34.872   2.833
19858W        W88076   4.854  33.141  11.102
19859W        W88077  36.007   5.824  12.563
19860W        W88078  18.185  16.531   3.716
19861W        W88079   3.752  26.812  10.314
19862W        W88080   0.182  24.726  14.119
19863W        W88081  26.054  19.789  13.026
19864W        W88082  39.058   0.603  11.644
19865W        W88083   4.995  17.093   1.179
19866W        W88084  20.620  18.635   3.688
19867W        W88085  26.075  34.772   1.277
19868W        W88086  23.218   9.725   0.822
19869W        W88087  17.119  44.882  14.316
19870W        W88088  22.778  36.921  13.949
19871W        W88089  25.393  26.547  10.570
19872W        W88090   2.282  40.980   0.388
19873W        W88091  23.756  40.749   3.648
19874W        W88092   2.892  14.107  10.800
19875W        W88093  33.996  24.617  12.507
19876W        W88094  27.456  36.558   1.533
19877W        W88095  10.670   7.394   4.031
19878W        W88096  26.035   9.414   0.411
19879W        W88097  17.356  20.558  14.741
19880W        W88098  21.246   4.508  12.785
19881W        W88099  35.454  17.733   2.827
19882W        W88100  34.936  33.414   0.553
19883W        W88101  43.045   4.692  11.123
19884W        W88102  18.449  25.705  11.270
19885W        W88103  13.973  17.702  10.709
19886W        W88104   1.535   5.167  14.925
19887W        W88105  36.497   0.939  13.557
19888W        W88106  33.039  21.028  11.898
19889W        W88107   3.890  43.465   1.041
19890W        W88108  40.879  30.119  13.559
19891W        W88109  21.332  21.062   4.091
19892W        W88110  24.536  21.120  10.321
19893W        W88111  31.972  21.584   4.555
19894W        W88112   1.721  37.876  13.556
19895W        W88113  39.338   4.251   1.783
19896W        W88114  41.318  20.074   1.266
19897W        W88115  44.211  36.867  11.506
19898W        W88116  35.461  38.362  13.424
19899W        W88117  20.956  36.022  11.100
19900W        W88118  41.273  18.182   1.469
19901W        W88119  33.908  12.674  14.067
19902W        W88120  42.611  20.078  12.454
19903W        W88121  40.570   0.297   4.157
19904W        W88122   7.872  37.489  13.494
19905W        W88123  10.560  20.512  14.376
19906W        W88124  16.927  26.643   3.785
19907W        W88125  32.953  30.971   2.801
19908W        W88126   0.035   7.786   1.427
19909W        W88127   5.819  25.988  11.124
19910W        W88128  15.859   3.188   1.834
19911W        W88129  43.829   6.962   2.316
19912W        W88130  29.205   5.822  13.862
19913W        W88131  37.188  16.760   3.589
19914W        W88132   7.233  31.764  14.367
19915W        W88133  44.885  26.450   2.649
19916W        W88134  21.127  21.856   1.154
19917W        W88135  27.933   1.466   4.364
19918W        W88136  27.284  13.779  11.042
19919W        W88137  37.807   5.492  14.930
19920W        W88138  19.194  44.057  14.450
19921W        W88139   8.691  30.209   4.283
19922W        W88140  36.814  17.098   1.031
19923W        W88141  40.992  11.132   1.928
19924W        W88142   7.573  34.109   3.264
19925W        W88143  12.109  14.537   0.736
19926W        W88144  31.146  32.386  12.494
19927W        W88145  13.818   4.095  12.373
19928W        W88146  36.564  15.037   3.133
19929W        W88147  13.045  27.034   3.478
19930W        W88148  21.306  29.416   4.318
19931W        W88149  23.764   5.476   3.706
19932W        W88150  17.186  17.693  14.333
19933W        W88151  14.791  41.804  11.393
19934W        W88152  22.290  14.390  11.506
19935W        W88153  12.140  12.224  12.220
19936W        W88154   1.449  15.646  12.313
19937W        W88155   4.265  27.688   1.333
19938W        W88156   1.227  25.966  14.074
19939W        W88157   1.847  12.284  12.618
19940W        W88158  19.606  40.576   4.111
19941W        W88159  36.573  26.731   3.021
19942W        W88160  33.845  24.505  13.003
19943W        W88161  39.567  15.018  11.521
19944W        W88162   5.793  17.404   3.349
19945W        W88163  38.771  22.525   0.741
19946W        W88164  10.884  37.415  10.905
19947W        W88165  14.951  40.342  14.179
19948W        W88166  22.771  14.442   3.793
19949W        W88167  16.487   9.031   0.982
19950W        W88168  16.347  26.123   2.691
19951W        W88169  31.586  31.967   0.792
19952W        W88170  12.697   9.211  10.905
19953W        W88171  15.316  31.103   1.412
19954W        W88172   1.723  43.391  11.708
19955W        W88173  40.845  42.075  10.817
19956W        W88174   3.058  36.235  14.708
19957W        W88175  14.725  23.647  12.095
19958W        W88176   0.700  27.828   0.020
19959W        W88177  16.287  32.091  11.674
19960W        W88178  27.506   5.425  11.557
19961W        W88179   5.166   6.153   3.903
19962W        W88180   5.291  20.503  14.456
19963W        W88181  16.727   5.721  13.894
19964W        W88182  25.529  30.856  13.141
19965W        W88183  15.594  23.063  10.750
19966W        W88184  27.957  42.335   0.779
19967W        W88185  37.023   6.243  11.635
19968W        W88186  24.659  21.160  11.624
19969W        W88187  35.085  11.087  12.177
19970W        W88188   9.174  27.573   3.790
19971W        W88189  30.746  14.590  13.769
19972W        W88190  29.581  13.741  13.812
19973W        W88191  44.998   0.981  11.590
19974W        W88192   9.876  20.964  11.174
19975W        W88193  22.528   8.219   4.803
19976W        W88194  21.116  12.297   3.215
19977W        W88195  21.192  17.105  13.087
19978W        W88196  38.111   7.319  13.360
19979W        W88197  12.749   7.933  13.014
19980W        W88198  26.535  39.326   2.734
19981W        W88199  26.741  38.856  13.914
19982W        W88200  23.279  44.808   0.734
19983W        W88201  19.100  28.669  11.488
19984W        W88202  23.798  22.552  10.734
19985W        W88203  30.753  43.936  11.653
19986W        W88204  36.792   8.169   4.191
19987W        W88205  11.104  21.171   1.287
19988W        W88206   5.846   7.059   0.642
19989W        W88207   9.267   2.234   4.750
19990W        W88208  16.709  28.931  11.071
19991W        W88209  39.239   7.344   3.252
19992W        W88210  28.662  20.702  14.043
19993W        W88211  30.714  42.131   0.348
19994W        W88212  17.647  41.984   4.703
19995W        W88213  13.918   4.363   2.183
19996W        W88214   9.641  19.456  11.162
19997W        W88215  26.150  29.285  10.754
19998W        W88216  30.430  39.053   2.009
19999W        W88217  26.258  11.250  12.649
20000W        W88218  12.847  44.812  11.899
20001W        W88219  43.283   9.126  13.345
20002W        W88220   7.918  22.585  13.960
20003W        W88221  16.393  43.559  11.625
20004W        W88222  42.006  41.080  13.560
20005W        W88223  39.402   8.168   0.915
20006W        W88224  18.245   9.185   1.265
20007W        W88225  12.114  14.461   1.267
20008W        W88226   5.149  32.171  11.097
20009W        W88227  17.230  13.824  12.027
20010W        W88228   3.163  29.686  12.091
20011W        W88229   2.033  12.813  13.066
20012W        W88230  13.328  21.636  10.363
20013W        W88231  27.272  13.246   0.747
20014W        W88232   6.670  14.320   1.720
20015W        W88233  12.115  36.889  14.783
20016W        W88234  15.506   9.209   4.515
20017W        W88235  41.584  26.385  10.021
20018W        W88236   4.765  38.587  11.381
20019W        W88237  17.288   6.313   2.718
20020W        W88238  28.666  24.259  13.391
20021W        W88239  42.073  16.176   2.211
20022W        W88240  23.113  41.198   3.629
20023W        W88241   6.648   2.672   0.317
20024W        W88242  23.756  13.139   0.269
20025W        W88243  23.392  29.010  13.109
20026W        W88244  22.159  39.992   1.947
20027W        W88245  23.061  20.594  14.955
20028W        W88246  37.905  23.675  12.562
20029W        W88247  32.894  42.686   0.901
20030W        W88248   8.202  30.346  11.332
20031W        W88249  42.595  17.545  14.499
20032W        W88250  37.839   0.086   0.330
20033W        W88251  12.968  23.684  13.831
20034W        W88252  14.598   2.879  13.306
20035W        W88253  11.130  39.285   2.320
20036W        W88254  30.022  17.669   1.601
20037W        W88255  19.819  20.641  14.262
20038W        W88256  33.874  14.777   2.674
20039W        W88257  14.992  19.099  10.724
20040W        W88258  33.965  24.080  12.663
20041W        W88259  22.012   2.751   0.398
20042W        W88260  10.831   1.297   3.285
20043W        W88261   8.528  26.132  11.113
20044W        W88262  20.488   0.448  10.803
20045W        W88263  16.010  18.237   0.803
20046W        W88264  26.036  31.817  14.323
20047W        W88265  36.065   1.413   0.295
20048W        W88266  38.528  43.080  13.417
20049W        W88267  21.216  26.819   1.869
20050W        W88268  27.454  10.142  12.488
20051W        W88269  11.642  39.845   4.129
20052W        W88270  37.436   2.596   0.812
20053W        W88271  44.569   1.666   2.753
20054W        W88272  16.688   0.865  13.223
20055W        W88273  30.937  31.125  10.663
20056W        W88274  33.195  15.365  11.565
20057W        W88275   2.512  10.652  14.736
20058W        W88276   4.649   7.835  13.861
20059W        W88277  17.482  35.491   2.736
20060W        W88278  18.711  15.089   2.333
20061W        W88279   8.283  14.037  10.296
20062W        W88280  23.049  35.895  13.470
20063W        W88281  14.314   1.083   3.716
20064W        W88282  29.170  12.092  13.266
20065W        W88283  37.895  40.034   3.706
20066W        W88284  14.911  12.246  10.709
20067W        W88285  28.176   8.182  13.915
20068W        W88286  35.891  35.094  13.532
20069W        W88287   7.220  23.610   4.259
20070W        W88288  11.214  27.223   3.072
20071W        W88289  39.546   1.747  13.046
20072W        W88290  13.254  24.823   0.375
20073W        W88291   5.025  34.838   2.402
20074W        W88292  40.337  32.371   2.035
20075W        W88293   2.035  32.591   2.404
20076W        W88294  17.624  20.387  10.538
20077W        W88295  42.004  12.558   9.726
20078W        W88296  40.605   2.802   4.033
20079W        W88297  26.084  40.869   0.245
20080W        W88298  43.806  44.769   1.805
20081W        W88299  10.381  41.432   3.260
20082W        W88300   2.459  22.207  13.092
20083W        W88301  15.022  39.372  13.516
20084W        W88302  22.742   6.323  12.914
20085W        W88303  10.656  39.455  12.968
20086W        W88304   9.827  36.622  12.574
20087W        W88305  11.801  25.490   1.854
20088W        W88306  37.963   6.855   0.679
20089W        W88307  39.283  37.601  11.280
20090W        W88308   1.035   6.197  11.032
20091W        W88309  27.878   5.161   1.781
20092W        W88310  41.157  40.512   3.013
20093W        W88311  16.141   8.447  12.045
20094W        W88312   7.704   9.652   4.084
20095W        W88313  22.884  41.483   2.608
20096W        W88314   9.687  21.512   2.107
20097W        W88315   1.276   2.201  14.263
20098W        W88316  25.153  17.551   0.354
20099W        W88317  23.312  29.563  11.128
20100W        W88318   3.065  26.745   4.967
20101W        W88319  44.895  12.748  13.314
20102W        W88320  23.210   9.956  11.175
20103W        W88321  25.446  42.452  10.790
20104W        W88322   2.862  21.921  10.483
20105W        W88323   2.930  33.043  11.684
20106W        W88324   4.417   0.838  14.771
20107W        W88325  29.192   7.169   4.019
20108W        W88326  18.339   8.640  14.489
20109W        W88327  10.087  34.578   0.855
20110W        W88328  41.307  37.571  14.956
20111W        W88329  39.143   6.810  12.766
20112W        W88330  15.054  28.104   4.107
20113W        W88331  23.909   8.564   1.295
20114W        W88332  37.116  13.600  11.886
20115W        W88333  18.431  33.028   2.697
20116W        W88334  31.851  24.450  14.242
20117W        W88335  38.310  11.616   4.525
20118W        W88336  11.415  30.213  11.469
20119W        W88337  40.942  22.511   4.513
20120W        W88338   4.953  37.388   0.867
20121W        W88339  29.948   1.313  11.959
20122W        W88340  42.790  35.679   3.898
20123W        W88341   0.233  42.122   1.636
20124W        W88342  10.717  31.132  11.128
20125W        W88343   6.729  28.587  11.183
20126W        W88344  36.005  14.796  10.698
20127W        W88345  30.519  42.320  13.559
20128W        W88346   4.152  12.094  13.999
20129W        W88347   1.160  11.385  12.636
20130W        W88348  27.843   7.819   2.615
20131W        W88349  43.495  11.762  14.209
20132W        W88350  35.383  15.313  13.480
20133W        W88351  37.042   6.664  12.403
20134W        W88352  28.047  40.521   0.085
20135W        W88353  36.389  19.192  11.098
20136W        W88354  32.817  14.254  13.742
20137W        W88355   8.247  35.376   2.641
20138W        W88356  33.122  12.130  12.520
20139W        W88357  40.318  44.715   3.346
20140W        W88358  24.707  18.767  11.579
20141W        W88359  37.062  15.068  14.870
20142W        W88360  27.010  34.576  14.133
20143W        W88361  42.760  38.748   4.831
20144W        W88362  24.750  29.592   4.588
20145W        W88363  10.521  14.514  11.625
20146W        W88364  13.023  12.175  10.696
20147W        W88365  27.768  41.025  13.545
20148W        W88366  28.090  10.284  12.126
20149W        W88367   5.647  35.003   3.234
20150W        W88368  29.556  26.741  13.302
20151W        W88369  14.877   1.479   3.201
20152W        W88370  34.637   3.913   1.887
20153W        W88371  43.378  41.235  13.123
20154W        W88372  17.584  10.582   0.396
20155W        W88373  18.372  15.048   1.001
20156W        W88374  43.235  12.051  11.222
20157W        W88375   9.345  29.397   4.704
20158W        W88376  36.403   5.326   0.198
20159W        W88377  29.206  10.150   5.022
20160W        W88378  11.304  36.799   2.594
20161W        W88379   8.540  19.237   1.995
20162W        W88380  26.727  22.703   4.567
20163W        W88381   1.021  24.635  11.817
20164W        W88382  23.424  29.774  12.714
20165W        W88383  24.230  35.523   1.674
20166W        W88384   1.448  12.405  13.340
20167W        W88385  15.697  30.251   3.909
20168W        W88386  35.249  34.424   4.312
20169W        W88387   1.365   1.580   4.657
20170W        W88388  11.247  29.450  14.819
20171W        W88389   0.264  24.568   0.495
20172W        W88390  11.816  22.513  10.603
20173W        W88391  33.766   8.625  13.009
20174W        W88392   0.470  21.006   0.824
20175W        W88393   7.300  40.094   3.167
20176W        W88394  24.005  21.813   2.093
20177W        W88395   0.309  20.713  13.372
20178W        W88396  27.791  38.026  12.584
20179W        W88397  24.278   7.700   4.520
20180W        W88398   1.840   2.489  14.716
20181W        W88399  11.067  23.316  12.040
20182W        W88400  27.368  40.011   1.058
20183W        W88401  43.973   5.320  11.464
20184W        W88402  21.157  40.044  14.321
20185W        W88403  41.512  11.594  11.964
20186W        W88404   4.163  20.125  13.516
20187W        W88405  19.083  23.451  12.404
20188W        W88406   1.331  28.171  11.517
20189W        W88407  44.954  23.577   1.837
20190W        W88408   8.241  27.939  13.932
20191W        W88409  16.237   2.451  12.130
20192W        W88410  23.708  14.512   0.319
20193W        W88411  32.667   3.050  12.940
20194W        W88412  26.562  32.068  11.180
20195W        W88413  14.793   0.759  12.105
20196W        W88414  26.719   8.091   1.204
20197W        W88415  17.752  40.833  14.453
20198W        W88416  17.719   3.026  12.187
20199W        W88417  10.252  23.485  14.009
20200W        W88418  12.083  14.909  11.993
20201W        W88419  23.140   5.754   4.109
20202W        W88420  13.549  27.443  14.777
20203W        W88421  12.726  32.113   4.572
20204W        W88422  12.246  41.543   2.289
20205W        W88423  38.957  28.033   3.297
20206W        W88424  29.388  23.000   1.733
20207W        W88425  13.255  17.056  11.254
20208W        W88426  39.338  38.726  14.731
20209W        W88427   4.016  39.485  14.521
20210W        W88428  21.084   9.951   4.131
20211W        W88429  14.272  25.683   1.755
20212W        W88430  27.468   7.076   1.675
20213W        W88431  13.003  12.845   2.306
20214W        W88432   1.876  39.790  12.890
20215W        W88433   8.239  28.670  13.403
20216W        W88434  15.298   7.767   3.025
20217W        W88435  10.805  16.412  11.721
20218W        W88436  44.340  11.721  13.817
20219W        W88437  36.336   9.745   1.913
20220W        W88438  10.589  19.097  11.729
20221W        W88439  22.174  15.329  12.626
20222W        W88440   3.540  35.433   1.950
20223W        W88441  37.068   4.794  14.923
20224W        W88442  11.567   6.182  11.550
20225W        W88443  27.565   1.823  14.714
20226W        W88444   0.502  29.107   0.439
20227W        W88445  41.226  10.281   2.324
20228W        W88446  41.820  30.658  12.939
20229W        W88447  10.408  29.661   0.352
20230W        W88448  40.735  28.077   3.134
20231W        W88449  37.669   8.298   3.843
20232W        W88450  19.369   5.866   1.798
20233W        W88451  35.709  19.600   0.536
20234W        W88452   2.757   1.994   3.699
20235W        W88453  17.218   0.303  10.173
20236W        W88454  26.006   3.882   2.222
20237W        W88455  16.603  17.669   4.717
20238W        W88456  36.052  33.084   4.402
20239W        W88457  22.158  23.647  10.522
20240W        W88458  31.858  12.615  11.975
20241W        W88459  24.400  25.690  11.600
20242W        W88460  15.171  13.219   1.764
20243W        W88461  15.890  12.979   0.388
20244W        W88462  11.244  11.734   0.370
20245W        W88463  41.249  35.757   0.509
20246W        W88464   2.468  15.620  11.384
20247W        W88465  20.540   9.211   4.785
20248W        W88466  20.173  37.553  13.445
20249W        W88467  25.422  44.304  11.408
20250W        W88468   9.333  11.216  14.957
20251W        W88469  25.084   3.220  13.035
20252W        W88470  22.058  28.762   0.293
20253W        W88471  31.256  28.571  13.410
20254W        W88472   4.269  10.638   4.451
20255W        W88473  26.077   8.120  13.475
20256W        W88474  10.304  28.009   1.721
20257W        W88475   8.511  35.083   3.404
20258W        W88476  15.301   0.316  13.398
20259W        W88477  39.591   4.485   1.378
20260W        W88478   9.179  24.467   2.121
20261W        W88479  34.132  34.144  13.438
20262W        W88480  14.295  23.013  12.459
20263W        W88481  22.561  18.482   1.865
20264W        W88482  32.175  27.272  11.605
20265W        W88483  30.743  39.714  12.117
20266W        W88484  10.029  22.141  11.605
20267W        W88485  39.471  25.864  11.359
20268W        W88486  25.815   3.802  13.664
20269W        W88487  32.565   7.922   3.793
20270W        W88488  11.384   3.580  11.247
20271W        W88489   5.196  21.199   0.299
20272W        W88490  39.982  42.391   0.014
20273W        W88491   4.620  30.129   2.369
20274W        W88492   0.508  42.342   1.239
20275W        W88493  43.947   6.308  10.531
20276W        W88494   5.062  29.114  12.078
20277W        W88495  36.846  18.381   0.749
20278W        W88496  14.881  25.150   1.446
20279W        W88497  22.799   8.285  13.518
20280W        W88498  30.645  33.943  13.438
20281W        W88499  35.339  32.715   3.135
20282W        W88500  30.968   9.839   0.002
20283W        W88501   4.233  14.383   2.378
20284W        W88502  34.844  15.629  11.629
20285W        W88503  32.490  18.548  13.886
20286W        W88504  39.011  31.003   1.051
20287W        W88505  16.109  12.398   3.711
20288W        W88506  42.948  43.400  11.846
20289W        W88507  38.500  40.350   2.858
20290W        W88508  36.913  36.892  12.854
20291W        W88509  16.537  13.662   0.925
20292W        W88510   1.336  22.621   4.713
20293W        W88511  43.979   7.392   4.443
20294W        W88512  22.298  20.027   0.989
20295W        W88513  33.973   6.510   0.850
20296W        W88514  13.092   8.282  11.545
20297W        W88515  33.650   1.373   4.163
20298W        W88516  32.114   7.944  12.927
20299W        W88517  33.904  20.576   1.446
20300W        W88518  14.692  11.622  10.785
20301W        W88519  42.122   7.372  12.787
20302W        W88520  23.281   9.890  13.872
20303W        W88521   4.813   9.802  10.189
20304W        W88522  37.636  15.748  12.586
20305W        W88523  23.231  33.609   1.536
20306W        W88524  32.447  38.084   2.866
20307W        W88525  29.539  34.350  12.040
20308W        W88526   4.390  20.195   3.862
20309W        W88527   9.702  30.956   1.489
20310W        W88528  27.813   9.417  11.853
20311W        W88529  31.945   2.450  11.142
20312W        W88530  37.583  25.185   4.722
20313W        W88531  37.292  33.947  13.833
20314W        W88532  23.602  39.093   2.913
20315W        W88533  18.752   3.061   0.226
20316W        W88534  29.623  25.906   0.418
20317W        W88535  39.900  26.075   4.789
20318W        W88536  20.896   3.216   4.604
20319W        W88537  43.830  42.009   1.195
20320W        W88538   9.764  37.141  12.514
20321W        W88539  36.543   0.384   3.685
20322W        W88540  36.518  30.433  11.594
20323W        W88541   2.215  33.133   2.406
20324W        W88542  40.379   1.418   3.098
20325W        W88543  22.112  26.088   3.660
20326W        W88544  22.115  19.059   2.329
20327W        W88545  36.414  13.756   1.692
20328W        W88546  28.430   9.187   2.380
20329W        W88547  29.775   8.750  14.202
20330W        W88548  12.721   0.460  14.099
20331W        W88549  18.164   7.413   0.351
20332W        W88550   2.370   9.858  11.040
20333W        W88551  35.406  36.487  13.601
20334W        W88552   1.096  33.029  10.876
20335W        W88553   7.983  24.763  14.860
20336W        W88554  10.095  15.986   0.318
20337W        W88555  12.839  26.890  11.401
20338W        W88556  30.898  30.649  12.033
20339W        W88557  41.774  37.903  11.335
20340W        W88558  32.300   7.786   2.861
20341W        W88559  39.428  30.021  10.730
20342W        W88560  24.473  17.206  12.779
20343W        W88561  25.264  32.581  14.799
20344W        W88562  41.711   7.588  12.275
20345W        W88563   8.436  13.232  12.315
20346W        W88564  20.871   4.470  13.149
20347W        W88565  24.971  42.317  10.617
20348W        W88566  42.911  12.546  12.702
20349W        W88567  18.529  16.865  13.598
20350W        W88568  34.162  16.519   1.194
20351W        W88569  33.333  11.202   4.212
20352W        W88570  10.886  34.249  14.979
20353W        W88571   7.904  42.772   2.734
20354W        W88572  35.221  14.983   0.449
20355W        W88573  38.599  44.962  10.937
20356W        W88574  30.939  14.264  14.118
20357W        W88575  29.503   5.224  14.519
20358W        W88576  37.631  44.553   1.304
20359W        W88577  29.581  10.590  10.742
20360W        W88578  22.273  20.040  13.520
20361W        W88579  21.132  32.129  11.614
20362W        W88580   6.865   3.664   0.392
20363W        W88581   5.843   4.410  13.962
20364W        W88582   5.426  19.078   3.873
20365W        W88583  13.800  19.164  13.866
20366W        W88584  36.572   7.323  10.837
20367W        W88585  21.778  16.653   1.687
20368W        W88586  24.963  32.093  12.922
20369W        W88587  29.089   6.800  11.975
20370W        W88588  21.992  31.171   4.965
20371W        W88589   8.548  39.053   2.964
20372W        W88590  18.387  14.027   0.874
20373W        W88591   3.486   7.800  13.341
20374W        W88592  28.749  30.530   0.498
20375W        W88593  30.462  25.734   2.272
20376W        W88594  24.689  13.904   2.306
20377W        W88595  40.110  11.148  13.084
20378W        W88596  24.288  13.657  14.546
20379W        W88597  30.422  26.305  13.806
20380W        W88598   2.427  31.376  14.011
20381W        W88599  30.108  17.796  11.996
20382W        W88600  11.279   1.727  11.135
20383W        W88601  42.938  39.105  14.973
20384W        W88602  28.842  35.977   2.577
20385W        W88603  30.677  17.770  11.104
20386W        W88604  36.440  42.868  10.637
20387W        W88605   7.103  43.125  13.024
20388W        W88606  26.171  20.540  10.739
20389W        W88607  25.515   4.450  14.549
20390W        W88608  11.763  37.500   9.962
20391W        W88609   0.931   1.780   0.637
20392W        W88610  29.205   4.382   2.727
20393W        W88611   2.941  32.097   4.411
20394W        W88612   4.904   9.321  12.758
20395W        W88613  27.063  27.425   3.231
20396W        W88614   2.844   4.725   1.848
20397W        W88615   9.341  44.979   0.319
20398W        W88616  44.899   2.774  10.674
20399W        W88617  19.573  32.848  12.940
20400W        W88618  29.990  44.552  14.555
20401W        W88619  20.289  39.027   2.387
20402W        W88620  16.228  39.617  12.869
20403W        W88621  11.130  18.034   0.336
20404W        W88622   0.029   9.548  13.506
20405W        W88623  23.204  36.314  10.927
20406W        W88624  19.036  32.957  14.372
20407W        W88625  36.393   6.004  10.468
20408W        W88626  12.651  11.629   1.327
20409W        W88627  22.456  30.405  10.683
20410W        W88628  36.543  19.744   3.249
20411W        W88629  43.036  38.843  11.974
20412W        W88630  18.266   4.884   0.847
20413W        W88631  16.466  14.304  13.121
20414W        W88632   5.618  43.539  10.751
20415W        W88633  14.043   3.931  11.888
20416W        W88634  34.946   4.462  12.920
20417W        W88635   0.026  18.637   3.526
20418W        W88636  28.603  33.386  11.442
20419W        W88637  20.480  40.470   2.104
20420W        W88638  41.872  38.407  11.186
20421W        W88639  16.009   1.240  14.532
20422W        W88640  37.876  22.028   4.746
20423W        W88641   7.432  15.608   4.212
20424W        W88642  27.000   1.622   1.473
20425W        W88643  38.591   1.705   0.724
20426W        W88644  10.862  21.459  13.385
20427W        W88645  41.073  13.720  14.006
20428W        W88646  35.207  16.695  13.906
20429W        W88647  25.773  14.651  12.318
20430W        W88648  27.344  38.024  13.918
20431W        W88649  26.434   2.795   3.169
20432W        W88650   2.320   4.416  12.470
20433W        W88651   1.452  20.271  12.052
20434W        W88652  31.488   7.273  12.794
20435W        W88653  28.361   2.762   0.486
20436W        W88654  17.657   2.855  10.664
20437W        W88655   1.189   3.861  14.770
20438W        W88656  38.712  30.449  12.579
20439W        W88657  22.266  41.412   1.940
20440W        W88658   6.518  41.346  13.854
20441W        W88659   2.969  20.253   3.210
20442W        W88660  33.022   8.133   2.665
20443W        W88661   6.202  11.883  12.490
20444W        W88662  19.515  41.140   4.094
20445W        W88663  39.405  20.998  14.975
20446W        W88664  37.193  34.901  12.599
20447W        W88665   3.290   8.219   4.551
20448W        W88666  42.296  44.336  10.770
20449W        W88667  37.672  27.633  12.959
20450W        W88668  14.836  25.793   4.095
20451W        W88669   4.880  14.021   1.723
20452W        W88670  22.232  16.806  13.442
20453W        W88671  24.662  22.319  12.635
20454W        W88672  43.455  41.912   3.218
20455W        W88673  35.245  12.215   3.300
20456W        W88674  32.955  30.050   3.098
20457W        W88675  36.124  27.410  10.961
20458W        W88676   1.933  43.016   2.778
20459W        W88677  21.052  28.989  13.468
20460W        W88678  19.416  41.967  12.481
20461W        W88679  44.667  39.811  12.624
20462W        W88680  20.474  19.334  12.926
20463W        W88681  26.860  16.591   2.209
20464W        W88682  39.838  28.961   1.841
20465W        W88683  14.947  18.767  13.006
20466W        W88684   4.656   4.809   0.286
20467W        W88685  25.323   4.674  13.050
20468W        W88686  18.762  16.318   0.855
20469W        W88687  12.419   7.331  14.901
20470W        W88688  26.452  16.059   1.614
20471W        W88689  19.125  18.652   3.971
20472W        W88690  18.118   5.416  12.771
20473W        W88691  19.297  24.727   0.045
20474W        W88692  19.729  29.427   5.049
20475W        W88693  27.554  34.466  12.455
20476W        W88694  10.865  35.544  14.893
20477W        W88695   4.347   7.242  11.532
20478W        W88696   2.332  15.904   2.787
20479W        W88697  38.143   4.541  11.674
20480W        W88698   8.666  20.880  13.347
20481W        W88699   0.916  20.506   2.226
20482W        W88700  11.349  16.876  13.920
20483W        W88701   3.506  32.083   0.421
20484W        W88702  24.699  20.100   1.619
20485W        W88703   6.662  30.806  12.095
20486W        W88704   5.450   7.562   2.741
20487W        W88705   8.311   7.162   1.447
20488W        W88706  26.445  17.934   3.762
20489W        W88707  17.762  29.964   3.201
20490W        W88708   9.202  34.045   1.461
20491W        W88709  32.546   9.945  13.382
20492W        W88710  43.014  38.012  13.903
20493W        W88711  39.934  18.052  13.376
20494W        W88712  43.632  16.074   0.018
20495W        W88713  22.633  26.713  11.130
20496W        W88714   6.827   3.675   2.195
20497W        W88715   5.980  31.645   4.126
20498W        W88716  14.582  44.841  14.281
20499W        W88717  25.109  32.364   3.422
20500W        W88718  26.659  41.395  12.152
20501W        W88719  11.271  42.085  10.773
20502W        W88720  37.923  42.457  14.028
20503W        W88721  26.014  16.192   1.365
20504W        W88722   7.350  31.056   3.914
20505W        W88723  26.236  41.061  12.428
20506W        W88724  29.607  12.387  11.172
20507W        W88725  24.960   8.337   4.092
20508W        W88726   2.740   9.474  11.126
20509W        W88727  23.050   6.872   3.713
20510W        W88728  11.664  33.944   0.484
20511W        W88729  20.159  13.892  12.631
20512W        W88730  16.610  18.083   3.081
20513W        W88731  13.361   1.352   3.714
20514W        W88732  42.259   4.541   2.332
20515W        W88733  38.591   2.982  14.409
20516W        W88734  34.555  33.324   4.544
20517W        W88735  31.695  32.863   1.211
20518W        W88736  25.058   2.216   3.147
20519W        W88737  24.755   1.830  14.776
20520W        W88738  19.597   3.185   4.965
20521W        W88739  25.041  23.623  12.980
20522W        W88740  40.941  25.454   1.231
20523W        W88741  35.571  35.855  12.971
20524W        W88742   0.560   7.243   3.680
20525W        W88743  34.521  21.001  11.154
20526W        W88744  22.039  35.905  13.425
20527W        W88745  38.551  28.569   3.498
20528W        W88746  42.627  25.028  12.501
20529W        W88747  14.034  31.706  13.836
20530W        W88748  34.719  30.970  11.123
20531W        W88749  28.050  27.955  13.216
20532W        W88750  19.799  20.099   0.870
20533W        W88751  40.594  35.599   1.234
20534W        W88752  16.292  39.939  13.274
20535W        W88753  13.728  16.580   3.604
20536W        W88754  44.295  20.262  14.879
20537W        W88755   4.623   2.081  13.914
20538W        W88756  17.855  15.750  14.604
20539W        W88757  19.712  32.918  13.825
20540W        W88758  19.095  12.845  14.998
20541W        W88759  31.507   4.688  13.845
20542W        W88760   4.530   6.910   0.810
20543W        W88761  39.054  24.115   2.945
20544W        W88762  31.093   8.898  14.539
20545W        W88763  24.006  35.345   3.117
20546W        W88764  29.439  38.280  12.877
20547W        W88765  30.946  33.657  13.796
20548W        W88766  42.284  12.117   3.473
20549W        W88767  34.409  12.685  13.896
20550W        W88768  28.667  27.218  13.350
20551W        W88769  42.375  42.214  11.965
20552W        W88770  31.458  34.496   1.994
20553W        W88771  39.476  21.742   4.671
20554W        W88772  43.865  43.394  11.221
20555W        W88773  40.525   9.892   1.900
20556W        W88774  13.724  13.138  11.173
20557W        W88775  44.869  28.204  13.004
20558W        W88776  22.042  15.527  13.068
20559W        W88777  22.972  24.185   4.549
20560W        W88778  17.631  11.038  11.963
20561W        W88779  33.521  13.160  12.278
20562W        W88780   8.956  39.273  14.842
20563W        W88781  44.831  11.596  12.435
20564W        W88782   8.675  41.993   4.128
20565W        W88783  27.498  21.492   0.477
20566W        W88784  37.436  22.575  10.460
20567W        W88785  24.695  11.547   0.633
20568W        W88786   3.881   4.077   3.579
20569W        W88787  15.695  43.036   0.053
20570W        W88788  40.474  31.999   1.704
20571W        W88789  40.301  20.265  11.499
20572W        W88790  29.222  13.776  14.686
20573W        W88791  31.078  33.134  14.851
20574W        W88792   6.662  19.250  13.303
20575W        W88793   0.585   0.932   5.098
20576W        W88794  41.836  35.171   4.615
20577W        W88795  31.932  26.656  14.972
20578W        W88796  17.189  24.850   1.327
20579W        W88797  10.866  19.705  13.934
20580W        W88798  25.661  28.675  12.028
20581W        W88799   2.291   2.773   4.593
20582W        W88800  32.390  29.054   3.357
20583W        W88801  34.633  38.061  12.414
20584W        W88802   0.239  12.783   3.306
20585W        W88803  26.951  28.059  13.983
20586W        W88804   0.133  19.150   0.051
20587W        W88805  41.711   4.852  13.415
20588W        W88806  38.751  11.732  11.998
20589W        W88807  28.590  16.160  14.380
20590W        W88808  35.216  27.035  12.540
20591W        W88809  17.520  33.680  14.518
20592W        W88810  37.366  16.337   4.424
20593W        W88811  29.656  17.208   3.476
20594W        W88812  43.365  35.233   3.374
20595W        W88813  21.256   0.197   1.621
20596W        W88814  39.891  19.021   0.818
20597W        W88815   0.576  38.810   4.112
20598W        W88816   4.873  17.110   0.283
20599W        W88817   6.702   0.878  14.703
20600W        W88818  35.934  32.590  12.220
20601W        W88819   5.753  17.634   0.336
20602W        W88820   0.538  21.555  14.890
20603W        W88821  36.464  36.385  14.486
20604W        W88822   1.289  30.475   2.867
20605W        W88823   2.065   6.825   0.136
20606W        W88824  20.156  12.881   2.752
20607W        W88825  37.252  39.896  10.828
20608W        W88826   7.899   0.759  10.083
20609W        W88827  16.660  25.692   3.907
20610W        W88828  44.237  31.059  13.812
20611W        W88829  21.536   9.110   1.358
20612W        W88830  39.338  43.229   3.997
20613W        W88831   0.403  15.806  12.528
20614W        W88832  22.592  13.116   3.786
20615W        W88833  31.537  19.701  14.883
20616W        W88834   5.584  43.280  13.728
20617W        W88835  43.892  36.576  10.718
20618W        W88836  18.024  11.865   3.018
20619W        W88837  29.628  22.298  12.180
20620W        W88838  29.872  35.815   2.056
20621W        W88839  44.587  15.254  13.494
20622W        W88840   1.735   5.170   2.748
20623W        W88841   3.476  15.806  11.533
20624W        W88842   0.407  27.335   2.023
20625W        W88843  28.997  40.350   3.609
20626W        W88844  11.889  11.387   3.193
20627W        W88845  35.138  30.255   1.826
20628W        W88846  35.449  13.219   3.144
20629W        W88847   7.241  32.383  13.459
20630W        W88848  38.010   5.869   4.550
20631W        W88849  26.764  28.026  13.055
20632W        W88850  43.781  43.954  14.864
20633W        W88851  11.177  42.099  11.710
20634W        W88852  37.050  44.804   1.881
20635W        W88853   5.291  24.194  12.935
20636W        W88854  44.004  22.091  11.576
20637W        W88855  40.965  29.514  12.796
20638W        W88856  33.441  41.978   0.855
20639W        W88857  27.537  35.237   1.715
20640W        W88858  13.571  41.162   4.330
20641W        W88859  10.816  21.724   1.228
20642W        W88860  33.084   3.924   1.584
20643W        W88861  16.568  19.961   3.901
20644W        W88862  11.526   6.260  13.275
20645W        W88863  40.272  35.976   1.479
20646W        W88864  33.605  42.413   2.974
20647W        W88865  39.681  11.652  14.699
20648W        W88866   0.719  42.585  10.456
20649W        W88867   7.858   6.816  13.936
20650W        W88868  20.578  17.134  11.470
20651W        W88869  27.155   4.173  10.846
20652W        W88870  11.920   9.893  13.025
20653W        W88871  12.814  19.744   1.222
20654W        W88872  15.152  27.942   3.073
20655W        W88873  43.940  27.693  12.952
20656W        W88874  37.267   4.964   0.461
20657W        W88875   1.030  22.127   1.150
20658W        W88876   2.758  12.165  11.006
20659W        W88877  36.202  18.283   2.933
20660W        W88878  12.407  10.698  13.352
20661W        W88879   8.617  37.220  12.948
20662W        W88880  34.384  14.695   2.757
20663W        W88881  20.262  30.679  14.046
20664W        W88882  36.032  27.016   0.176
20665W        W88883   6.398  41.993   4.164
20666W        W88884  38.225  41.273  14.434
20667W        W88885  27.529  37.860  14.750
20668W        W88886  15.791  14.612  12.606
20669W        W88887   5.242  39.129  12.289
20670W        W88888  29.444  36.274  10.533
20671W        W88889  21.257  15.196   0.070
20672W        W88890  12.308  22.765   2.402
20673W        W88891   8.706  10.891   1.122
20674W        W88892  12.604  23.473   3.187
20675W        W88893  34.013  30.719   4.062
20676W        W88894   9.989  34.637  13.514
20677W        W88895  23.385  34.107  13.802
20678W        W88896   5.689  35.485   1.954
20679W        W88897  37.026  33.917   3.070
20680W        W88898  24.177  30.416   4.450
20681W        W88899  37.087  37.952  14.112
20682W        W88900  13.268  32.927  12.029
20683W        W88901  27.690  26.011  11.547
20684W        W88902   0.284  37.340   4.312
20685W        W88903  32.871  37.046   1.753
20686W        W88904  36.022  17.236   1.077
20687W        W88905  18.218  12.829   9.907
20688W        W88906  26.922  35.573  14.067
20689W        W88907  23.633  25.088  14.908
20690W        W88908  23.034   1.929  11.477
20691W        W88909  26.675   8.632  12.854
20692W        W88910  30.492  10.779   2.268
20693W        W88911  18.011  21.617   3.746
20694W        W88912  27.182  44.431   4.762
20695W        W88913  24.645  22.050  14.868
20696W        W88914  31.942   7.810  11.074
20697W        W88915  23.511  27.140   2.418
20698W        W88916  40.483  26.685  11.090
20699W        W88917  11.495  26.071  11.909
20700W        W88918   9.550  25.179  11.227
20701W        W88919  43.615  23.183  12.896
20702W        W88920  22.182   9.205  10.948
20703W        W88921   9.635  26.150   0.288
20704W        W88922   4.706  43.979  11.085
20705W        W88923  27.564  34.049   2.739
20706W        W88924   4.586  24.035   2.604
20707W        W88925  35.252  14.068  14.054
20708W        W88926  29.900   1.276  14.049
20709W        W88927  27.689   8.003  13.775
20710W        W88928  18.919  40.313  13.119
20711W        W88929  32.424  26.151  13.361
20712W        W88930   3.627  13.260  13.624
20713W        W88931  12.054  16.423  13.229
20714W        W88932  24.449  21.056  13.919
20715W        W88933  21.771   0.379  13.115
20716W        W88934  44.396  14.173   0.862
20717W        W88935  32.456  38.571  13.944
20718W        W88936  13.699   3.950   3.608
20719W        W88937  20.690   5.729  10.402
20720W        W88938  36.556  16.231  11.386
20721W        W88939  26.695  38.470  14.855
20722W        W88940  26.706   4.338  10.571
20723W        W88941   3.710  32.988  11.112
20724W        W88942  24.121  22.562   1.384
20725W        W88943  10.681  10.082  14.871
20726W        W88944  36.760  27.686   1.644
20727W        W88945  37.346  37.008   1.624
20728W        W88946  25.031  39.139   2.598
20729W        W88947  10.594  40.118  10.358
20730W        W88948  37.469  36.063  11.841
20731W        W88949  41.674  42.508   1.877
20732W        W88950  19.075   8.783   4.243
20733W        W88951  44.027  20.262   1.615
20734W        W88952   8.885  23.714  14.312
20735W        W88953  14.795  15.739   0.498
20736W        W88954  42.904  27.595   1.820
20737W        W88955  33.646  29.642  10.676
20738W        W88956   2.495  31.998   4.733
20739W        W88957  23.220   5.880   3.243
20740W        W88958  28.673   5.041   0.610
20741W        W88959  10.132  26.722  10.678
20742W        W88960  40.508  22.253   0.905
20743W        W88961   6.831  26.225  13.753
20744W        W88962  26.728   7.025   4.939
20745W        W88963  33.927  42.738  13.336
20746W        W88964   1.165  22.663  11.602
20747W        W88965  38.551  30.521  10.761
20748W        W88966  28.193   3.359  11.954
20749W        W88967   6.385   6.444  14.444
20750W        W88968  40.801  28.535   2.844
20751W        W88969  17.332  19.084   3.225
20752W        W88970   0.933   7.786   0.896
20753W        W88971  39.851   6.523   0.735
20754W        W88972  34.937  32.205  12.001
20755W        W88973   9.417  28.885   4.890
20756W        W88974  37.567  23.365  13.886
20757W        W88975  41.501  37.743   0.415
20758W        W88976  36.416   7.709   0.272
20759W        W88977  44.205  36.376   1.274
20760W        W88978  26.101  24.979   4.057
20761W        W88979  35.347  27.156   1.236
20762W        W88980  35.576   2.318  11.460
20763W        W88981  19.128  36.294   3.669
20764W        W88982  41.969   4.380   4.160
20765W        W88983  22.238  25.689  12.975
20766W        W88984   3.149   7.254   4.344
20767W        W88985  44.409   0.684   2.759
20768W        W88986  19.642  16.847   3.614
20769W        W88987  23.357  32.619   4.981
20770W        W88988  34.320  10.614   4.645
20771W        W88989  32.463  26.433   2.355
20772W        W88990  17.194   6.710   3.681
20773W        W88991   2.193  23.725  13.827
20774W        W88992  16.794  13.811   1.420
20775W        W88993  32.942  37.797  13.481
20776W        W88994  21.153  10.915  12.128
20777W        W88995  34.485   4.326   0.923
20778W        W88996  14.756  23.240  11.186
20779W        W88997   4.824  35.686  14.451
20780W        W88998  43.806   6.298   4.774
20781W        W88999  20.590  28.518  14.977
20782W        W89000  31.205   5.839   1.404
20783W        W89001   2.729  37.263  14.983
20784W        W89002   5.259  22.496   0.293
20785W        W89003  31.850  24.248  11.561
20786W        W89004  34.907  33.512   1.468
20787W        W89005  18.738  39.462  13.788
20788W        W89006  43.755  13.683   3.740
20789W        W89007   2.383  14.267  11.497
20790W        W89008  19.693   0.958  13.522
20791W        W89009  13.644  18.685  10.539
20792W        W89010  18.389  31.378  14.832
20793W        W89011  23.898  19.630   4.140
20794W        W89012  13.689   6.843  14.010
20795W        W89013   6.372  38.474   0.328
20796W        W89014  19.154   3.401  10.732
20797W        W89015  11.861   6.346  14.724
20798W        W89016   4.311  13.871   4.240
20799W        W89017  44.348   9.745  13.005
20800W        W89018   9.014  19.563   3.753
20801W        W89019  22.059  25.723   1.812
20802W        W89020  18.286  44.175   0.428
20803W        W89021  41.234  14.984  12.614
20804W        W89022  32.914  20.004   3.312
20805W        W89023  41.946   6.544   0.990
20806W        W89024  31.072   6.462   3.613
20807W        W89025  18.248   3.405   1.412
20808W        W89026   0.379  29.006  14.823
20809W        W89027  38.488  19.739  11.407
20810W        W89028  38.990  23.665  12.072
20811W        W89029  27.117  36.784   3.447
20812W        W89030  13.040  16.212  10.852
20813W        W89031  31.893  13.882   2.663
20814W        W89032  32.160  19.071  11.136
20815W        W89033   1.887  36.908  14.933
20816W        W89034  10.082  10.601   3.899
20817W        W89035  15.899  36.618   2.244
20818W        W89036   8.357  17.768  10.083
20819W        W89037  14.394  11.831   0.687
20820W        W89038   5.063   6.413   0.398
20821W        W89039  31.968  15.328  14.967
20822W        W89040  18.650  11.590  10.631
20823W        W89041   6.019   1.845   2.295
20824W        W89042  44.432   6.889  14.769
20825W        W89043  26.023  24.153  14.372
20826W        W89044   5.014  43.332   4.152
20827W        W89045   4.167   4.929   1.927
20828W        W89046   5.708  10.145  11.485
20829W        W89047  43.742  28.746  12.977
20830W        W89048   5.829  24.030   2.265
20831W        W89049  29.649  31.919   5.072
20832W        W89050   4.319  40.586  10.659
20833W        W89051  29.383  43.392  12.596
20834W        W89052  22.153  34.005   0.777
20835W        W89053  35.045  37.481   2.182
20836W        W89054  36.164  38.738   4.075
20837W        W89055  11.810  44.695   0.985
20838W        W89056  34.455  21.035  10.306
20839W        W89057  27.973  19.529  13.664
20840W        W89058  26.100   7.727  13.141
20841W        W89059  32.885  28.397  14.311
20842W        W89060  31.499  16.887   0.673
20843W        W89061  18.669  21.776  12.941
20844W        W89062   8.393  21.702   3.745
20845W        W89063   4.796  32.907   2.800
20846W        W89064  35.058   1.843   4.275
20847W        W89065  42.387  15.992   1.757
20848W        W89066  33.378   1.693   0.618
20849W        W89067  31.592  15.371   2.132
20850W        W89068  13.701  17.184   1.401
20851W        W89069  42.812  20.153  13.572
20852W        W89070  26.442  25.003   1.108
20853W        W89071  35.491  27.619   3.950
20854W        W89072  34.783  19.727   3.623
20855W        W89073  42.260  19.700   2.703
20856W        W89074  31.596  18.958   1.467
20857W        W89075   4.753  30.070   1.884
20858W        W89076  31.875  39.587   4.298
20859W        W89077  16.786  41.047   3.760
20860W        W89078  16.979  19.588   2.837
20861W        W89079  26.106  22.582   2.680
20862W        W89080  41.022   7.253  14.934
20863W        W89081  42.474  21.656   1.201
20864W        W89082   9.296  14.575   0.697
20865W        W89083  44.075  29.871  10.443
20866W        W89084  44.938  40.729  14.272
20867W        W89085   4.659   4.860   1.162
20868W        W89086  33.529  29.200   3.695
20869W        W89087  22.494  30.819  12.035
20870W        W89088  33.471  12.306  14.905
20871W        W89089   9.808  41.999   0.264
20872W        W89090   1.737  33.327  11.842
20873W        W89091  40.320  39.542   2.290
20874W        W89092   5.446  16.573   2.604
20875W        W89093  44.255  27.763   4.234
20876W        W89094  28.587  19.251   3.775
20877W        W89095  10.492  28.499   2.645
20878W        W89096  19.959  17.246  14.211
20879W        W89097  17.186  36.532  11.517
20880W        W89098  21.139  32.182  14.412
20881W        W89099  14.383  14.037  13.047
20882W        W89100  39.403   2.918   0.454
20883W        W89101  24.660   8.641  12.190
20884W        W89102  21.791  10.250  14.848
20885W        W89103  17.663   8.122   4.691
20886W        W89104  34.999  23.990  13.512
20887W        W89105  29.859  22.008   0.319
20888W        W89106  19.688  23.091   4.849
20889W        W89107   2.961  42.331  11.733
20890W        W89108   7.662  27.196   1.374
20891W        W89109   4.918  39.364   4.608
20892W        W89110  20.570  13.532  11.588
20893W        W89111  18.555  32.578  12.103
20894W        W89112   1.961  33.727   0.927
20895W        W89113   2.675  20.010   1.315
20896W        W89114  42.365  30.135   3.894
20897W        W89115  11.807  29.384  11.699
20898W        W89116  26.318  29.129  12.432
20899W        W89117  32.967  23.133   2.842
20900W        W89118  21.417  18.617  11.594
20901W        W89119   7.662  13.658   2.325
20902W        W89120  41.780  32.780  13.328
20903W        W89121  38.946  24.389  12.578
20904W        W89122  43.900  35.578  14.018
20905W        W89123  37.499  38.355  14.523
20906W        W89124  26.120  27.908  12.215
20907W        W89125  35.776   0.789  11.192
20908W        W89126  10.328  24.876  14.915
20909W        W89127  18.312  44.847  14.360
20910W        W89128  13.980   8.690  14.261
20911W        W89129  35.372  19.273   3.814
20912W        W89130  35.616   9.344  13.193
20913W        W89131  25.002   2.806   3.117
20914W        W89132  41.588   5.316   1.364
20915W        W89133  40.888   7.231  12.036
20916W        W89134  28.972  18.716  10.236
20917W        W89135  36.081   2.538  11.445
20918W        W89136  42.876  23.736  13.439
20919W        W89137  38.210  20.715   1.647
20920W        W89138  22.520  33.180   1.239
20921W        W89139   3.714   7.071  14.570
20922W        W89140  15.998  44.425  11.373
20923W        W89141  29.459  11.400   1.337
20924W        W89142   8.231  17.726  13.770
20925W        W89143  32.188  34.956   0.937
20926W        W89144  26.253  40.423  12.846
20927W        W89145  20.521  42.398   4.626
20928W        W89146  28.914  20.226   0.533
20929W        W89147  16.640  38.618  13.456
20930W        W89148  43.342  23.029   0.448
20931W        W89149   5.714  13.855   4.100
20932W        W89150  19.121   1.375  13.919
20933W        W89151  15.694  22.756   0.417
20934W        W89152   0.791  19.273  10.825
20935W        W89153  35.179   2.833  10.980
20936W        W89154   2.246   3.230  14.807
20937W        W89155  21.888  26.691  12.840
20938W        W89156  36.082  35.819  11.574
20939W        W89157  21.845  32.491  12.299
20940W        W89158  22.756  28.665  11.241
20941W        W89159   3.952  44.491  14.347
20942W        W89160   4.480  19.217   2.857
20943W        W89161  12.058  36.382  13.364
20944W        W89162  41.950  33.192   1.419
20945W        W89163   1.174   8.126   2.881
20946W        W89164  35.464  36.347   1.867
20947W        W89165  37.488   7.437   1.362
20948W        W89166  41.331  38.404   3.814
20949W        W89167   9.866   2.242   3.951
20950W        W89168   7.146  31.446  11.337
20951W        W89169   8.247   4.720  13.461
20952W        W89170  16.014   5.405  12.016
20953W        W89171  30.879  31.184  14.427
20954W        W89172  21.390  28.155   2.830
20955W        W89173  17.767  43.985   0.302
20956W        W89174  27.210  16.628   4.079
20957W        W89175  44.628  19.099   2.891
20958W        W89176  19.940  32.888  13.344
20959W        W89177  31.476   4.716  14.813
20960W        W89178  42.409  32.892  10.681
20961W        W89179  18.603  33.034   0.427
20962W        W89180  34.529  16.141  13.783
20963W        W89181  18.708  40.586   1.799
20964W        W89182  29.589  10.369  13.846
20965W        W89183   0.219  37.622   4.818
20966W        W89184  11.241  43.040  14.347
20967W        W89185  26.070   5.294  14.266
20968W        W89186   4.501  19.765  14.721
20969W        W89187  37.744  11.772  12.263
20970W        W89188   9.641  36.901  12.066
20971W        W89189  10.701  44.739  12.764
20972W        W89190  34.621  37.355  13.402
20973W        W89191  38.508  42.492   1.759
20974W        W89192  18.714   2.939   0.768
20975W        W89193  18.688  27.938  13.954
20976W        W89194  37.483   1.057  11.518
20977W        W89195  34.057  33.949  11.631
20978W        W89196  21.056  33.591  14.411
20979W        W89197  30.196   6.161  13.703
20980W        W89198  44.770  15.826  14.865
20981W        W89199  32.048  14.210  13.288
20982W        W89200  13.383  21.525   4.531
20983W        W89201   3.915  42.961   0.933
20984W        W89202  23.580  31.861  13.562
20985W        W89203   9.823  36.177   3.623
20986W        W89204  39.017  11.272   2.128
20987W        W89205   9.438   1.343  12.985
20988W        W89206  32.028  29.095   2.428
20989W        W89207  44.884   5.867  11.655
20990W        W89208  25.596  34.848   3.113
20991W        W89209  36.836   0.905  12.845
20992W        W89210   0.792  42.629   0.914
20993W        W89211  22.164  39.395   3.693
20994W        W89212   9.770   7.492  10.445
20995W        W89213  20.169   4.242  12.012
20996W        W89214   2.290  18.791  12.959
20997W        W89215  33.479  30.275   1.918
20998W        W89216  14.364  43.938   2.883
20999W        W89217  23.460  23.168  10.898
21000W        W89218  14.368  22.790   0.462
21001W        W89219  31.438   5.945   3.218
21002W        W89220   7.654  26.057   0.401
21003W        W89221  16.711  24.672   3.746
21004W        W89222   4.678   9.049  12.382
21005W        W89223   9.136  36.318   4.458
21006W        W89224   1.483  19.302   1.302
21007W        W89225  26.814  19.432  12.430
21008W        W89226  16.654  28.111   1.290
21009W        W89227  39.220   9.087  10.364
21010W        W89228   5.409   8.754  14.770
21011W        W89229  11.396  17.969   1.216
21012W        W89230   6.667  24.621  14.425
21013W        W89231  30.664  26.778  13.783
21014W        W89232   7.079  33.694  12.497
21015W        W89233  31.717  42.001  13.510
21016W        W89234  32.235  16.217   2.243
21017W        W89235  13.165   4.856  12.032
21018W        W89236  16.891  30.544  11.082
21019W        W89237  43.443   7.014   4.946
21020W        W89238  28.643   2.348   0.226
21021W        W89239   4.567  34.557   0.801
21022W        W89240  27.446  20.050   0.055
21023W        W89241  16.737  43.907   3.036
21024W        W89242  21.594   6.319   1.735
21025W        W89243  34.126  18.313   1.205
21026W        W89244   8.376  26.962   4.941
21027W        W89245  15.695   8.924   4.104
21028W        W89246   9.726  25.146  12.916
21029W        W89247  16.428   0.376  14.469
21030W        W89248  35.065  13.712   1.929
21031W        W89249  41.864   2.981  12.461
21032W        W89250  34.133  43.865   2.249
21033W        W89251   9.677  34.964  12.521
21034W        W89252  12.693  33.670   3.725
21035W        W89253  25.615  38.936  12.399
21036W        W89254  37.531  39.512   1.414
21037W        W89255  16.054  24.179  14.830
21038W        W89256   2.580  20.941  13.976
21039W        W89257  20.725  22.672   0.431
21040W        W89258  25.558  12.405  12.478
21041W        W89259  40.914  39.879  11.094
21042W        W89260  25.944  31.352   3.800
21043W        W89261  35.544  14.579  11.658
21044W        W89262  18.051   3.983  11.512
21045W        W89263  28.566  23.763   0.114
21046W        W89264  37.355  16.755   1.839
21047W        W89265  30.548  24.621  10.715
21048W        W89266  27.244  10.309  10.662
21049W        W89267  24.816  23.676  12.456
21050W        W89268   1.590   0.756  12.806
21051W        W89269  17.459  31.806   4.097
21052W        W89270  23.094   7.227   4.578
21053W        W89271  17.083  31.395   4.118
21054W        W89272  24.894   9.687  11.929
21055W        W89273  44.830  22.516  11.528
21056W        W89274   4.693  39.662  10.609
21057W        W89275   7.433  18.488  11.640
21058W        W89276  28.461  10.133   2.741
21059W        W89277  24.507  35.847   3.745
21060W        W89278  40.531  24.752  14.231
21061W        W89279  16.247  40.409   2.281
21062W        W89280  29.357  42.847   0.210
21063W        W89281  21.289  32.634  11.533
21064W        W89282  36.491  21.022  13.396
21065W        W89283  15.742  42.541  14.839
21066W        W89284  42.428  25.958   4.920
21067W        W89285   0.843  25.144   4.133
21068W        W89286   5.185  39.872   3.994
21069W        W89287  16.159  18.352   3.144
21070W        W89288   1.228   3.923  11.536
21071W        W89289   7.605  20.871  12.502
21072W        W89290  17.142  27.492  14.424
21073W        W89291  29.476  17.342   0.900
21074W        W89292  30.869   3.741   1.388
21075W        W89293  43.214  42.017   2.325
21076W        W89294  37.679   3.902  13.463
21077W        W89295  29.060   4.259   1.206
21078W        W89296  25.535  43.297  14.456
21079W        W89297   8.007  12.732   2.326
21080W        W89298   0.830  15.824   4.259
21081W        W89299   0.389  32.124   0.509
21082W        W89300  31.557  34.037   1.760
21083W        W89301  21.135  19.842   2.785
21084W        W89302  23.752  26.383  14.505
21085W        W89303  29.689  37.168   2.270
21086W        W89304  18.452   9.762  12.586
21087W        W89305  13.193  23.492  11.971
21088W        W89306  13.748  35.500   2.085
21089W        W89307  37.618   4.662  12.723
21090W        W89308   2.912   9.009   4.609
21091W        W89309  16.864  14.925   0.807
21092W        W89310  29.620   8.995   5.259
21093W        W89311  27.727  28.646  11.202
21094W        W89312  10.955  10.253  14.306
21095W        W89313   2.506  30.696   5.097
21096W        W89314  44.821  34.686   1.748
21097W        W89315  36.452  28.695  13.055
21098W        W89316  43.580  44.486  12.098
21099W        W89317  22.290  11.391  13.399
21100W        W89318  30.211  20.668   1.213
21101W        W89319  14.857  43.771   0.360
21102W        W89320  37.014   8.468  11.169
21103W        W89321  14.312  31.393  14.180
21104W        W89322  40.860  22.269  14.603
21105W        W89323   9.445  10.101  11.387
21106W        W89324   7.358  26.993   0.511
21107W        W89325  41.538  20.517   1.188
21108W        W89326  12.825  40.955   2.620
21109W        W89327  11.978  23.403   0.372
21110W        W89328   1.517  29.082   2.849
21111W        W89329   0.477  27.770   3.727
21112W        W89330  18.541  17.747  14.935
21113W        W89331  40.550  31.494   2.347
21114W        W89332  12.299  17.864   1.491
21115W        W89333   6.086   8.196   1.233
21116W        W89334   8.941  40.337  11.645
21117W        W89335   8.481  12.153  12.880
21118W        W89336  16.432   2.146  14.537
21119W        W89337  37.479  41.117  14.479
21120W        W89338  41.014   7.826   3.785
21121W        W89339   8.863  29.429   1.213
21122W        W89340  40.882  24.203  11.946
21123W        W89341  42.115  15.911  13.389
21124W        W89342   6.888   0.788   0.746
21125W        W89343  40.897   7.290   0.452
21126W        W89344  11.433  43.708  13.729
21127W        W89345  30.515  41.413   3.704
21128W        W89346  35.621  23.645   2.336
21129W        W89347  37.278  25.173  12.004
21130W        W89348  42.598  38.634  12.832
21131W        W89349  28.480  44.878   1.216
21132W        W89350  37.557  23.546  10.936
21133W        W89351  26.923  44.458  11.881
21134W        W89352  30.699  14.086   0.728
21135W        W89353   4.411  22.112   0.608
21136W        W89354  37.460   9.696   0.975
21137W        W89355   0.431   8.280   2.639
21138W        W89356  24.156  21.001  13.504
21139W        W89357  20.279  41.561  11.905
21140W        W89358   4.383  24.370   0.268
21141W        W89359  11.251  15.967   4.163
21142W        W89360   4.345  41.175   0.718
21143W        W89361  32.930  39.062  13.589
21144W        W89362  28.313  41.048  13.539
21145W        W89363  20.695  22.998   4.096
21146W        W89364  40.792  22.800   4.108
21147W        W89365   1.107  27.979   4.524
21148W        W89366  37.943  11.314  14.745
21149W        W89367  20.638   5.135   1.614
21150W        W89368  39.316  18.676  13.229
21151W        W89369   1.906  29.170   3.679
21152W        W89370  28.963  39.584   4.084
21153W        W89371   8.159  17.752   3.197
21154W        W89372  27.445   1.969   2.349
21155W        W89373  38.858   0.814  12.117
21156W        W89374  43.053  37.648  11.255
21157W        W89375  25.556  25.610  12.927
21158W        W89376   3.523  10.789   4.029
21159W        W89377  33.285  41.860   4.482
21160W        W89378  41.256  21.644   0.022
21161W        W89379  32.050  12.749  12.451
21162W        W89380  23.709  33.905  14.795
21163W        W89381  43.017  32.487   3.750
21164W        W89382   4.474   8.848   3.332
21165W        W89383  23.088  37.123   2.795
21166W        W89384  35.882  21.969  13.551
21167W        W89385  34.900   1.020   1.142
21168W        W89386  18.262  43.130   0.217
21169W        W89387  19.054  32.648   3.816
21170W        W89388  31.834  38.674  12.998
21171W        W89389  40.605  25.703   4.764
21172W        W89390  17.090   1.900   1.713
21173W        W89391  23.093  10.708  10.649
21174W        W89392  39.977  44.775  13.875
21175W        W89393  20.599  40.317   1.109
21176W        W89394  44.162  30.394  13.631
21177W        W89395  29.180  39.858  14.524
21178W        W89396   5.301  31.122   1.731
21179W        W89397  32.948   8.378  12.864
21180W        W89398   9.841   1.931  14.891
21181W        W89399  30.280  36.601   1.877
21182W        W89400   8.508  12.695   2.380
21183W        W89401  22.467  13.755  10.364
21184W        W89402  23.893  35.439   0.793
21185W        W89403  10.869  38.022  13.858
21186W        W89404  25.220  38.802  10.608
21187W        W89405  15.280  39.635  13.937
21188W        W89406  17.495  21.765  12.880
21189W        W89407  23.529  13.162  13.732
21190W        W89408  37.108  32.065   4.583
21191W        W89409  28.601  23.264   0.039
21192W        W89410  14.880  23.726   4.966
21193W        W89411  38.326  30.510   0.848
21194W        W89412   7.241  24.988  11.593
21195W        W89413  22.304  27.697   3.533
21196W        W89414  43.768  39.536   0.291
21197W        W89415  38.933   2.241   1.162
21198W        W89416  37.350   0.342  13.495
21199W        W89417  38.620  13.751  13.419
21200W        W89418   6.344  43.265   3.286
21201W        W89419  28.582  40.772  13.887
21202W        W89420  21.690  22.043  14.445
21203W        W89421  12.848   8.166   1.639
21204W        W89422  39.986  28.751   3.890
21205W        W89423  35.154  18.608  13.241
21206W        W89424  18.668  16.457  11.030
21207W        W89425  35.468  33.557   2.824
21208W        W89426  31.116  15.727   2.193
21209W        W89427   6.794  33.958   0.642
21210W        W89428  44.038  24.061  10.254
21211W        W89429  39.304  34.323   0.450
21212W        W89430  42.284  17.680  12.815
21213W        W89431  23.393  22.941   4.501
21214W        W89432  24.540   1.302   3.979
21215W        W89433   7.248  14.340   5.402
21216W        W89434  37.979   0.667   4.714
21217W        W89435  19.942  28.228   1.126
21218W        W89436  33.651  25.642  14.360
21219W        W89437  36.425  29.919  12.464
21220W        W89438  38.575  37.152   0.931
21221W        W89439   9.257  22.544  10.506
21222W        W89440  36.368  14.810   1.881
21223W        W89441  28.453  27.014  12.928
21224W        W89442  14.677  15.217  12.301
21225W        W89443  31.708   0.268   0.858
21226W        W89444  20.209  30.184  12.851
21227W        W89445  39.585  30.056  14.993
21228W        W89446  10.266  32.483   2.165
21229W        W89447  37.266   9.737  11.479
21230W        W89448  44.097  17.755  14.230
21231W        W89449  11.198  30.779  14.230
21232W        W89450  33.066  36.239  10.709
21233W        W89451  13.639  44.691   1.003
21234W        W89452  32.686   2.251  14.511
21235W        W89453  37.851  42.791  12.158
21236W        W89454   9.238  31.370   0.305
21237W        W89455  37.367  16.589  10.965
21238W        W89456  32.252  26.462  12.143
21239W        W89457   0.452  34.858  11.595
21240W        W89458  24.732  21.641  11.521
21241W        W89459   5.846   1.742  14.348
21242W        W89460  34.222  25.484   4.634
21243W        W89461   1.618   4.907   3.295
21244W        W89462  42.349  26.132   3.930
21245W        W89463  40.773  15.257   0.539
21246W        W89464   7.729  16.838  13.966
21247W        W89465  10.725  20.220  13.924
21248W        W89466  29.542  29.880   3.766
21249W        W89467   2.712   5.201  10.433
21250W        W89468   2.441   4.296   4.547
21251W        W89469  32.977   4.679   0.288
21252W        W89470  35.023  34.884   4.205
21253W        W89471  38.945  14.778   4.621
21254W        W89472  44.381  41.381   4.527
21255W        W89473  41.452   3.751   5.437
21256W        W89474  23.671   6.664   4.251
21257W        W89475   1.289  39.652  14.837
21258W        W89476  39.857   3.363  11.572
21259W        W89477  11.430  18.124  14.930
21260W        W89478  25.894  27.635  11.512
21261W        W89479  37.941  38.360   0.803
21262W        W89480  22.109  42.564  10.681
21263W        W89481  26.176  20.273  11.167
21264W        W89482  16.693   7.982   0.936
21265W        W89483  35.375  35.405  12.066
21266W        W89484  29.034  22.664   1.519
21267W        W89485   9.163   3.297   1.965
21268W        W89486   9.353  34.385  11.564
21269W        W89487  22.215  22.778  11.491
21270W        W89488  40.569   2.931   0.736
21271W        W89489  30.146  18.005   2.774
21272W        W89490  14.969  14.774  12.916
21273W        W89491  41.796  24.096   4.531
21274W        W89492  38.272  33.667  13.943
21275W        W89493  42.802  42.208  14.743
21276W        W89494   3.438  19.696  11.430
21277W        W89495  30.295  28.089   4.083
21278W        W89496  17.824  25.817  11.557
21279W        W89497   9.321   9.228   1.455
21280W        W89498   3.552   2.674  11.387
21281W        W89499  41.580   3.263   5.574
21282W        W89500  18.627  14.195  14.955
21283W        W89501  18.370  30.985   3.311
21284W        W89502  26.064  17.523   9.628
21285W        W89503   2.087  31.766   2.630
21286W        W89504  22.504  16.587  11.167
21287W        W89505  13.372  14.463  11.162
21288W        W89506  15.560  14.734  13.985
21289W        W89507  12.274   0.692  11.056
21290W        W89508  30.165  27.969  11.558
21291W        W89509  16.277  29.778   0.198
21292W        W89510  42.345  41.099  10.945
21293W        W89511  28.229   7.810  11.546
21294W        W89512   6.224  34.013  13.082
21295W        W89513  37.980   3.051   0.163
21296W        W89514   6.346  20.108  10.596
21297W        W89515   6.206   5.392  10.094
21298W        W89516  35.048   1.960  13.925
21299W        W89517  30.408  44.963  13.379
21300W        W89518  24.371  19.278  12.630
21301W        W89519   3.196  41.325   3.116
21302W        W89520   7.543  30.070  13.174
21303W        W89521  34.187  36.990  14.504
21304W        W89522   6.125   7.166  14.019
21305W        W89523   6.599  38.486   1.270
21306W        W89524  26.933  20.141  14.990
21307W        W89525  10.136   2.648   2.796
21308W        W89526  10.726  15.496  14.044
21309W        W89527  40.510   6.877   0.724
21310W        W89528  26.094  11.784  12.080
21311W        W89529  13.030  41.219   5.028
21312W        W89530  19.195  25.767   4.261
21313W        W89531  29.653   3.704   3.224
21314W        W89532   8.262  13.829   3.331
21315W        W89533  15.309   6.866  11.106
21316W        W89534   6.325  31.584  13.111
21317W        W89535  12.515  37.885  14.983
21318W        W89536  18.264  10.581   3.623
21319W        W89537  18.739   4.930   3.792
21320W        W89538  14.538   6.983  12.509
21321W        W89539  32.146  16.725  14.848
21322W        W89540  15.483   3.526  14.906
21323W        W89541  31.461  19.853   1.870
21324W        W89542  26.585  40.757  14.421
21325W        W89543  30.608  22.625  11.881
21326W        W89544  11.668  14.132   3.701
21327W        W89545   3.323  29.407  11.294
21328W        W89546   1.592  18.351   3.090
21329W        W89547  41.329  17.773   3.814
21330W        W89548  41.741   2.288  14.763
21331W        W89549  35.082  35.092   3.221
21332W        W89550  40.332  17.813   0.139
21333W        W89551  29.631  26.113   2.864
21334W        W89552  17.778   5.664   3.177
21335W        W89553  44.130  34.388   1.022
21336W        W89554  40.925   4.869   1.717
21337W        W89555  36.803  20.690  10.720
21338W        W89556  38.545  31.586  13.381
21339W        W89557  36.373  22.151   1.797
21340W        W89558  43.832   8.905  12.136
21341W        W89559  40.042   1.265  10.667
21342W        W89560  24.024  44.475   1.209
21343W        W89561   8.197  25.004   1.192
21344W        W89562  32.141  34.148  14.764
21345W        W89563  24.088  38.371  11.735
21346W        W89564   1.394  36.166   1.843
21347W        W89565  40.496  19.935   1.216
21348W        W89566  27.277  27.595  13.287
21349W        W89567   2.778  22.069   0.314
21350W        W89568  26.083  14.794   1.533
21351W        W89569  21.404  40.422   4.506
21352W        W89570  35.466  10.268   1.787
21353W        W89571  19.207   4.677   3.429
21354W        W89572  30.509  41.474  14.668
21355W        W89573  14.560  11.816  13.087
21356W        W89574  42.292  22.842   1.835
21357W        W89575  36.172   0.526   0.386
21358W        W89576  34.056  21.056   3.677
21359W        W89577  19.062   7.707   1.239
21360W        W89578  37.976  23.987   2.817
21361W        W89579   3.524  24.692  11.540
21362W        W89580   0.902  30.933   0.553
21363W        W89581  44.770  37.798  13.379
21364W        W89582   5.924  22.205  10.935
21365W        W89583  29.391  18.118   0.370
21366W        W89584  23.735   3.409  14.356
21367W        W89585  27.782  31.374  12.020
21368W        W89586   2.285   4.417  14.079
21369W        W89587  21.924  12.197  11.696
21370W        W89588  34.300   0.959   3.566
21371W        W89589   0.485   5.473  11.949
21372W        W89590  28.370  38.359  11.711
21373W        W89591  39.983  25.805   1.962
21374W        W89592  26.938  36.289   3.297
21375W        W89593   7.857   3.296  14.088
21376W        W89594   6.602  35.864   3.950
21377W        W89595  43.997  13.033   2.381
21378W        W89596  36.856  31.964   2.703
21379W        W89597   9.080  31.303   5.007
21380W        W89598  23.057  19.258  12.135
21381W        W89599  38.298   4.762   5.061
21382W        W89600  21.424  14.581   2.827
21383W        W89601  39.510  17.448  11.316
21384W        W89602  13.286  36.598  14.970
21385W        W89603  39.444  29.890   1.722
21386W        W89604  17.347  38.477  10.453
21387W        W89605   2.020  29.245   2.823
21388W        W89606  38.584   9.287  13.837
21389W        W89607  29.217   6.652  11.070
21390W        W89608   6.964   7.799   3.114
21391W        W89609   7.176  42.885   2.308
21392W        W89610  40.329   2.724  11.637
21393W        W89611   5.803  35.876  14.879
21394W        W89612  23.178  15.401  12.430
21395W        W89613  31.927   6.116  13.068
21396W        W89614  26.319   9.225   4.192
21397W        W89615  30.942  42.307  13.860
21398W        W89616   4.938  20.397   0.829
21399W        W89617  34.020  10.419   4.258
21400W        W89618  36.413   4.362   0.299
21401W        W89619  30.368  35.387   1.346
21402W        W89620  12.911  16.679   2.277
21403W        W89621  29.834  41.872  12.521
21404W        W89622  21.199  35.932  11.550
21405W        W89623  32.233  42.822   2.638
21406W        W89624   3.566   7.281   2.404
21407W        W89625  38.140   7.374   3.664
21408W        W89626   8.632  38.152  12.107
21409W        W89627  41.043  29.319  11.250
21410W        W89628   4.997  43.514   0.966
21411W        W89629  11.309  44.269  11.160
21412W        W89630   7.245  12.692   0.942
21413W        W89631  20.241  41.819  10.607
21414W        W89632  13.808  36.386   1.669
21415W        W89633  18.016  25.498  14.532
21416W        W89634  26.559  19.491   1.909
21417W        W89635  18.348  13.111   0.967
21418W        W89636  43.502  20.857  14.674
21419W        W89637  24.156   6.731   0.724
21420W        W89638  19.046  44.011   4.199
21421W        W89639  12.888   1.329   1.838
21422W        W89640  22.010  25.930   0.001
21423W        W89641  40.807  27.106  10.629
21424W        W89642  24.727  14.375  13.996
21425W        W89643  32.053  22.091   4.493
21426W        W89644  26.138  37.380  12.995
21427W        W89645  19.164  32.628  10.667
21428W        W89646   8.358  12.545   0.467
21429W        W89647  39.260  20.074   0.149
21430W        W89648  41.922  26.099   3.186
21431W        W89649  43.529   2.433  14.435
21432W        W89650  40.536  39.941  12.601
21433W        W89651  42.037   6.873   3.359
21434W        W89652  18.026  18.734  10.557
21435W        W89653  10.731  28.653  14.622
21436W        W89654   2.556   0.429  10.675
21437W        W89655   5.687  17.834  13.119
21438W        W89656   4.229   0.996  13.483
21439W        W89657   2.018  22.800  12.344
21440W        W89658  37.856  39.161  14.831
21441W        W89659  20.039  17.867   3.560
21442W        W89660   8.123   0.440  14.108
21443W        W89661  44.541   1.204  11.554
21444W        W89662   4.372   7.457   1.829
21445W        W89663   2.506  25.043  13.904
21446W        W89664   9.046  19.557  10.340
21447W        W89665   2.149   8.182   3.188
21448W        W89666  12.046  34.669  13.643
21449W        W89667  38.343  19.238   1.763
21450W        W89668  22.501  36.987  12.342
21451W        W89669  26.102   5.334   4.488
21452W        W89670   8.912  27.689   4.726
21453W        W89671   2.843   6.666  11.813
21454W        W89672  44.385  44.881   3.159
21455W        W89673  37.755   2.439  11.903
21456W        W89674   6.677  28.447   1.161
21457W        W89675  31.649  39.229  11.114
21458W        W89676  11.094  12.033  12.673
21459W        W89677  23.082  21.310   2.698
21460W        W89678  39.349  38.837  10.421
21461W        W89679   6.410  27.020   1.796
21462W        W89680  11.080  38.631   0.622
21463W        W89681  14.840  41.386  11.664
21464W        W89682  19.321  42.922  11.185
21465W        W89683  25.225   3.486   3.299
21466W        W89684  11.371  27.473   4.995
21467W        W89685  14.107  14.400   4.098
21468W        W89686  22.380   1.373   0.276
21469W        W89687   4.905  14.210  12.470
21470W        W89688  29.042   3.642  10.652
21471W        W89689  21.614  43.159  12.389
21472W        W89690   9.604   1.655   2.281
21473W        W89691   4.729   1.857   4.578
21474W        W89692  14.817  40.506  13.328
21475W        W89693  24.996   5.444   4.311
21476W        W89694  37.514  41.985  14.456
21477W        W89695   9.088  18.090  13.462
21478W        W89696  35.343  35.829   4.160
21479W        W89697  22.447   6.424   4.313
21480W        W89698   6.852  35.932   1.445
21481W        W89699  14.903  16.357  14.944
21482W        W89700  10.229  16.836  12.454
21483W        W89701  43.598   1.982  13.272
21484W        W89702  34.843  41.992   0.884
21485W        W89703  42.075  28.501   0.756
21486W        W89704  42.371   4.222  14.270
21487W        W89705  14.139  41.585  12.428
21488W        W89706  32.769  27.972   0.548
21489W        W89707  35.309  40.459   2.319
21490W        W89708  35.415  39.374  14.877
21491W        W89709  37.366  35.950   0.259
21492W        W89710  20.207  17.600  14.529
21493W        W89711  38.584  44.933   0.594
21494W        W89712  24.888   2.089  11.167
21495W        W89713  41.923  24.709  12.730
21496W        W89714  39.993  36.556  12.145
21497W        W89715  13.449  41.655   0.277
21498W        W89716  11.339  24.791   4.350
21499W        W89717  33.379  11.634  13.340
21500W        W89718  10.331  38.367   4.578
21501W        W89719  35.196  28.730   4.537
21502W        W89720   0.397  32.592  11.669
21503W        W89721  34.472  15.735   4.103
21504W        W89722  32.149  31.546   3.393
21505W        W89723  37.208   1.328  11.914
21506W        W89724  28.118  36.086   4.766
21507W        W89725  40.923  12.202  11.123
21508W        W89726  21.815  28.920  13.852
21509W        W89727  22.946  35.531   0.698
21510W        W89728  28.497  32.038  11.658
21511W        W89729   6.612   0.238   4.216
21512W        W89730  35.897  15.995  12.484
21513W        W89731  42.373  10.886   4.520
21514W        W89732   7.472  20.487  11.144
21515W        W89733  19.697  22.756  12.833
21516W        W89734  41.934   8.272   4.547
21517W        W89735  12.277  14.794  10.740
21518W        W89736  42.574  19.178  11.548
21519W        W89737  18.170  28.198   0.895
21520W        W89738  14.229  32.082   0.943
21521W        W89739   3.762  12.845   2.872
21522W        W89740  28.876  22.273   3.590
21523W        W89741  12.519  34.903   4.173
21524W        W89742  39.296  12.399   1.824
21525W        W89743  19.698  14.783  11.110
21526W        W89744  14.604  37.378   4.235
21527W        W89745   5.508  32.703   0.238
21528W        W89746  20.681  12.155  14.114
21529W        W89747  37.025  18.079  12.826
21530W        W89748   4.393  13.200  14.094
21531W        W89749  16.447  20.210   3.424
21532W        W89750  10.650  38.349   1.432
21533W        W89751  39.086  11.352   0.819
21534W        W89752  34.575  10.831  12.416
21535W        W89753  39.451  44.871  13.861
21536W        W89754  41.744  41.996  13.489
21537W        W89755  28.521   1.929  10.843
21538W        W89756   3.753   4.922   1.266
21539W        W89757  16.318  12.995   4.534
21540W        W89758  21.597  38.623  13.615
21541W        W89759  11.232  17.046   3.335
21542W        W89760  16.109  10.390   3.327
21543W        W89761  12.823   2.025  12.413
21544W        W89762  43.424  15.413   1.366
21545W        W89763  28.667   8.235  14.049
21546W        W89764  37.012   9.959   0.888
21547W        W89765  26.722  33.072   3.512
21548W        W89766  35.961  21.109   4.648
21549W        W89767   4.654   0.883   3.158
21550W        W89768  25.589  44.894  14.755
21551W        W89769  28.484  26.721   5.139
21552W        W89770  24.507  29.197  10.266
21553W        W89771  33.185  15.236   1.839
21554W        W89772  15.878  13.766  12.620
21555W        W89773  23.050  13.561  11.670
21556W        W89774  16.593  26.103   0.756
21557W        W89775  21.239   7.386  14.354
21558W        W89776  31.507  28.463   1.919
21559W        W89777   0.798  17.522   4.511
21560W        W89778  37.146  20.823   3.365
21561W        W89779  27.384  24.626   4.584
21562W        W89780  13.641  33.172   0.326
21563W        W89781  42.571  24.613   1.990
21564W        W89782  23.226  36.268   3.909
21565W        W89783   3.280   8.885   3.780
21566W        W89784   0.279  29.831  14.308
21567W        W89785  35.400  10.507   2.726
21568W        W89786  25.851   7.743   2.088
21569W        W89787  38.351  39.276   3.617
21570W        W89788  35.509   2.533   2.236
21571W        W89789  36.310   8.869   0.262
21572W        W89790   1.259   4.960  10.656
21573W        W89791   9.229  25.590   1.820
21574W        W89792  38.382  42.831  12.891
21575W        W89793  28.538  36.186   4.042
21576W        W89794  39.735  19.527  11.147
21577W        W89795  28.454   1.507   1.730
21578W        W89796  16.052   2.217  13.419
21579W        W89797  17.222   8.856   3.159
21580W        W89798   6.642  18.122  12.895
21581W        W89799   2.048  24.630  11.515
21582W        W89800  19.009  42.784   3.091
21583W        W89801  20.528  44.733   1.774
21584W        W89802  21.006  12.052  14.543
21585W        W89803  19.531  15.672   2.352
21586W        W89804  35.147  31.380   3.361
21587W        W89805  28.220   0.323   2.048
21588W        W89806  14.586  36.414   3.364
21589W        W89807  19.050  25.470   0.412
21590W        W89808  32.045  32.341  11.649
21591W        W89809  29.217  31.403  11.917
21592W        W89810  23.712  14.144  12.679
21593W        W89811  28.893   0.931  14.946
21594W        W89812  38.896  32.258   2.739
21595W        W89813  34.379  20.093  13.278
21596W        W89814  21.083   2.003  13.569
21597W        W89815  19.117  37.102   3.194
21598W        W89816  10.763   8.316  10.845
21599W        W89817   0.487  22.153  13.659
21600W        W89818  28.318  10.854  10.912
21601W        W89819  19.938  23.565   2.356
21602W        W89820   1.009  10.202  10.281
21603W        W89821  10.329  25.089  10.155
21604W        W89822  17.145  34.481  12.102
21605W        W89823  15.553  27.597  12.503
21606W        W89824   6.570  30.389   0.794
21607W        W89825  10.097  42.427   1.995
21608W        W89826   6.660  11.702  13.378
21609W        W89827  31.482  13.175   4.754
21610W        W89828  16.590   6.535  13.666
21611W        W89829  21.316   7.293   0.776
21612W        W89830  33.284  15.852  10.368
21613W        W89831   4.653  42.446  10.717
21614W        W89832  37.388   2.199   4.079
21615W        W89833   2.245  31.411   3.539
21616W        W89834   6.865  25.474  11.007
21617W        W89835  24.553   6.700  14.381
21618W        W89836   1.453  14.856   2.295
21619W        W89837  20.766  28.490   1.463
21620W        W89838  43.097  23.598  11.628
21621W        W89839   9.238  41.021   3.142
21622W        W89840   1.371  22.452  13.333
21623W        W89841  44.319  14.288   2.189
21624W        W89842  32.116  32.831   3.148
21625W        W89843  40.011  37.416  12.368
21626W        W89844  19.709  34.594  13.341
21627W        W89845  21.540  33.935   2.177
21628W        W89846   0.650  27.115   4.601
21629W        W89847  16.224   3.858  13.806
21630W        W89848  41.983  26.665  10.255
21631W        W89849  30.363  26.587  11.732
21632W        W89850  43.705  12.256  14.484
21633W        W89851  13.544  37.467  13.875
21634W        W89852  24.992  29.393  10.414
21635W        W89853  11.416   3.493  14.439
21636W        W89854  43.289  32.051  11.148
21637W        W89855   9.807   4.717  12.893
21638W        W89856   9.696  23.628  10.994
21639W        W89857  18.432  42.449   4.326
21640W        W89858   7.702  24.132   2.652
21641W        W89859   4.969  25.606   0.332
21642W        W89860  23.618  32.749   2.173
21643W        W89861  34.705  24.764   3.331
21644W        W89862  44.753   1.134  10.670
21645W        W89863   1.118   6.968   0.444
21646W        W89864  32.198   4.322  13.554
21647W        W89865   4.315   8.612  11.230
21648W        W89866   2.797  14.624  12.604
21649W        W89867  36.980  43.080  10.731
21650W        W89868  16.792  41.325  13.599
21651W        W89869  30.376  19.320   4.002
21652W        W89870  39.483  35.493  12.356
21653W        W89871   4.265  42.799   2.660
21654W        W89872   8.885  41.884   4.575
21655W        W89873  34.811  41.262  12.395
21656W        W89874  33.036   8.794  10.771
21657W        W89875   2.355   9.132  12.922
21658W        W89876  35.750  35.053   1.252
21659W        W89877  41.724   7.820   4.350
21660W        W89878  29.513  38.948   4.615
21661W        W89879  36.567  33.833   3.373
21662W        W89880  35.317  43.106   2.339
21663W        W89881  23.062   4.961  11.629
21664W        W89882   2.748  39.503  11.433
21665W        W89883  23.661   4.953  12.439
21666W        W89884  39.198   7.904  14.863
21667W        W89885  17.052  18.693   0.347
21668W        W89886  35.960  20.835   0.914
21669W        W89887  13.713  26.628  13.040
21670W        W89888  41.852  25.222  11.442
21671W        W89889   8.115  13.195  13.259
21672W        W89890  31.180  31.738  11.054
21673W        W89891  19.515   9.564  14.040
21674W        W89892  42.310  44.878  10.692
21675W        W89893  28.422  43.826   3.527
21676W        W89894  26.672  41.356  11.232
21677W        W89895  44.540  23.804   0.491
21678W        W89896  22.770  22.007   0.194
21679W        W89897  22.894   9.731  11.515
21680W        W89898  42.326  14.104  11.576
21681W        W89899  40.100  26.538   2.655
21682W        W89900  36.427  10.636   1.224
21683W        W89901  28.204  24.133   1.324
21684W        W89902  40.685  22.250  11.915
21685W        W89903  32.523  34.389   3.321
21686W        W89904  35.035  10.875  11.090
21687W        W89905  35.142  25.638  14.589
21688W        W89906  26.941  21.002   3.810
21689W        W89907  16.736  37.504   2.821
21690W        W89908  12.320  39.511  12.107
21691W        W89909  10.243  34.830  14.699
21692W        W89910  26.421  33.449   4.561
21693W        W89911  37.304   2.896  14.933
21694W        W89912  18.012  26.450  14.832
21695W        W89913  10.828  29.236   1.475
21696W        W89914  29.152   2.030  14.679
21697W        W89915  32.177  24.109  14.496
21698W        W89916  41.697   3.456  14.338
21699W        W89917   4.220  24.649   2.746
21700W        W89918  10.288  19.815   1.307
21701W        W89919  36.512  37.493  11.678
21702W        W89920  31.650  37.970   3.312
21703W        W89921   2.123  38.046  12.130
21704W        W89922   8.004   0.501   2.358
21705W        W89923  29.227  14.284   4.120
21706W        W89924   7.675  31.142  12.990
21707W        W89925  14.308   4.608   2.723
21708W        W89926  36.534  11.675   1.253
21709W        W89927   8.074  35.896  14.322
21710W        W89928   7.408  20.464   4.297
21711W        W89929   1.875   8.306   3.622
21712W        W89930   3.046  14.536   4.536
21713W        W89931  24.556  16.217  13.086
21714W        W89932  24.170  17.751  12.008
21715W        W89933  37.361  37.148  12.933
21716W        W89934   1.989  44.966   2.907
21717W        W89935   9.257  26.986  11.552
21718W        W89936  10.553  32.536  14.540
21719W        W89937  39.225  42.549   4.868
21720W        W89938  18.380  24.543   0.709
21721W        W89939  25.176  42.892  11.587
21722W        W89940   9.215  23.917   2.218
21723W        W89941   1.832   4.839   3.758
21724W        W89942  15.599  20.522  14.079
21725W        W89943  13.781  16.243  11.409
21726W        W89944   2.187  23.073   4.695
21727W        W89945  36.514  16.858   4.148
21728W        W89946  43.305  20.643   4.533
21729W        W89947   2.188   3.401  12.410
21730W        W89948   8.667  30.159   2.278
21731W        W89949  26.040  17.800  13.875
21732W        W89950  41.727  13.344  12.025
21733W        W89951  13.384  35.072   1.371
21734W        W89952   8.774   3.852   1.372
21735W        W89953  18.573  16.134  12.607
21736W        W89954  23.755  34.968   4.681
21737W        W89955  44.515  41.623   2.778
21738W        W89956  19.897  38.276  10.776
21739W        W89957  21.493  12.390  12.625
21740W        W89958  31.001  30.526   0.450
21741W        W89959   0.881  13.920  12.486
21742W        W89960  29.713  28.024  14.856
21743W        W89961  35.009   8.963  14.023
21744W        W89962  37.107   4.727   1.336
21745W        W89963  19.665  32.592   0.839
21746W        W89964  18.127  29.145  14.371
21747W        W89965  29.122  13.217  12.998
21748W        W89966   0.653  13.561   4.472
21749W        W89967   3.816  34.051   2.212
21750W        W89968   7.467  13.180  14.426
21751W        W89969  31.119  33.900  12.539
21752W        W89970  16.654  43.745   0.774
21753W        W89971   6.571   3.525  11.547
21754W        W89972  18.773  39.114   1.458
21755W        W89973  15.072   2.160  13.214
21756W        W89974   2.988  14.278   4.096
21757W        W89975  38.809  25.371  14.371
21758W        W89976  42.642  11.686   5.162
21759W        W89977   5.459  21.466  13.386
21760W        W89978   1.875  39.017   3.677
21761W        W89979  36.317  11.768  10.888
21762W        W89980  32.521  37.896  11.152
21763W        W89981  41.502  25.599  12.751
21764W        W89982   4.813  26.041  13.951
21765W        W89983  33.379  30.666   2.691
21766W        W89984  20.974  30.384   4.199
21767W        W89985  22.716   6.891  11.185
21768W        W89986  37.060   7.882   3.240
21769W        W89987  19.128  43.457   2.159
21770W        W89988  11.092   9.783   0.528
21771W        W89989  29.967  30.056   4.543
21772W        W89990  24.711  44.786  13.903
21773W        W89991  34.751  36.586   4.562
21774W        W89992   5.848  39.106   0.264
21775W        W89993  11.457  40.946   2.295
21776W        W89994  42.460  31.119   3.939
21777W        W89995   7.166  28.024  12.415
21778W        W89996   5.297  29.918   2.872
21779W        W89997  22.591  41.337  14.331
21780W        W89998  36.936  14.202   1.297
21781W        W89999  29.369  44.412   1.925
21782W        W90000  41.107  25.635  13.110
21783W        W90001  34.432  11.616  10.846
21784W        W90002   9.679  25.617  13.084
21785W        W90003  23.380  28.497  14.580
21786W        W90004  42.364  38.433   2.131
21787W        W90005  12.951  39.365  11.330
21788W        W90006  39.317  18.103   1.330
21789W        W90007  39.341  15.567  11.211
21790W        W90008  22.741   7.794  13.395
21791W        W90009  18.884  41.636   0.976
21792W        W90010   1.054  16.764  13.455
21793W        W90011  19.811  41.381   1.308
21794W        W90012  25.217   5.627  12.125
21795W        W90013   3.450  20.405  11.123
21796W        W90014  38.971   9.255  11.775
21797W        W90015  44.268  44.560  14.549
21798W        W90016  40.525  26.510  13.531
21799W        W90017  17.863   7.408  11.597
21800W        W90018  33.280  37.755   2.619
21801W        W90019  14.575  37.873  13.324
21802W        W90020  40.097  27.626  11.570
21803W        W90021  13.894   3.420   1.475
21804W        W90022  42.275  22.677  13.885
21805W        W90023  41.987  36.880   3.336
21806W        W90024  25.595   6.719  12.607
21807W        W90025  28.480  28.326  11.591
21808W        W90026  18.820  14.806   1.744
21809W        W90027  10.689   8.334  12.310
21810W        W90028   9.135  12.804   3.184
21811W        W90029   8.220  31.274  12.922
21812W        W90030  41.484  42.994  12.007
21813W        W90031   9.727  34.094  12.917
21814W        W90032  24.612  24.373  11.027
21815W        W90033  17.265   7.721   1.533
21816W        W90034  31.643  22.266  11.100
21817W        W90035  44.889  24.170   0.314
21818W        W90036  14.176  36.795   1.210
21819W        W90037  34.093  12.841   1.492
21820W        W90038  28.394  22.044  14.021
21821W        W90039  18.395   6.819   4.396
21822W        W90040  10.729  30.885  14.440
21823W        W90041  27.758   5.704  13.952
21824W        W90042  38.600  15.051  13.056
21825W        W90043   7.499   9.779  11.729
21826W        W90044  31.375   2.233  14.783
21827W        W90045  33.645  26.723  12.997
21828W        W90046   7.966  40.384  10.393
21829W        W90047  24.752  17.825   0.063
21830W        W90048  26.695  36.134   0.401
21831W        W90049  40.031  26.098   0.393
21832W        W90050   5.513   8.124   3.620
21833W        W90051  29.949  13.045  11.633
21834W        W90052  27.221  16.741  10.517
21835W        W90053   7.696   9.211  14.883
21836W        W90054  14.373   4.990   1.820
21837W        W90055  27.089  17.608   3.055
21838W        W90056  12.036  25.150   4.257
21839W        W90057   2.070   5.369   4.135
21840W        W90058  25.172  35.430  11.306
21841W        W90059  20.038  18.029   1.743
21842W        W90060  25.818   1.399  14.181
21843W        W90061  43.530   2.263   3.876
21844W        W90062  20.567  36.209   0.722
21845W        W90063   7.942  15.269   0.117
21846W        W90064  43.518  24.184  14.941
21847W        W90065  37.816  21.159  10.939
21848W        W90066  11.664  30.842   4.041
21849W        W90067  13.687   0.549   0.749
21850W        W90068  15.553  42.810   4.738
21851W        W90069  44.806  44.893  11.893
21852W        W90070  10.861  30.027  12.323
21853W        W90071   1.256  27.214   0.888
21854W        W90072  21.349  21.081  13.041
21855W        W90073  35.219  27.391   3.526
21856W        W90074  27.660  11.249  13.534
21857W        W90075   0.970  26.207   2.784
21858W        W90076   9.375  41.353   0.047
21859W        W90077  21.203  15.576   3.662
21860W        W90078  35.581   8.600   2.358
21861W        W90079  14.680  12.353  14.503
21862W        W90080  38.874  13.374   3.346
21863W        W90081  18.753  38.753   3.583
21864W        W90082  19.307  25.933   1.308
21865W        W90083   5.749  29.564  11.059
21866W        W90084  13.793  37.144  11.515
21867W        W90085  15.819  36.971  11.157
21868W        W90086  32.427  32.206  13.852
21869W        W90087  18.520  27.541   3.168
21870W        W90088  31.868   6.786  13.469
21871W        W90089  15.767  28.232   5.129
21872W        W90090  27.622  43.025   4.335
21873W        W90091  42.609  36.466  13.023
21874W        W90092  39.940  18.474  13.711
21875W        W90093   4.938   1.516   4.941
21876W        W90094  42.896  41.816  13.733
21877W        W90095  42.032  44.875  12.552
21878W        W90096  23.091  28.572   4.821
21879W        W90097  14.861  44.387  12.444
21880W        W90098  28.165  43.352  13.233
21881W        W90099  39.326  14.711   4.107
21882W        W90100  20.967  42.629  14.064
21883W        W90101  40.455  16.974  14.758
21884W        W90102  21.258  42.867   2.799
21885W        W90103   5.700  15.524  13.539
21886W        W90104  39.049  17.752  10.528
21887W        W90105   5.027  10.426  11.007
21888W        W90106   3.850  19.068  11.542
21889W        W90107  18.176  15.157  13.481
21890W        W90108  41.550  23.339  11.642
21891W        W90109  32.606  17.183   0.363
21892W        W90110  32.662  10.869  14.234
21893W        W90111  29.350  34.492   3.675
21894W        W90112  11.385  13.311   1.495
21895W        W90113   4.395   3.900   0.432
21896W        W90114  30.674  44.030   2.135
21897W        W90115  29.719   0.977   2.706
21898W        W90116  19.845  18.859   0.327
21899W        W90117  40.943  10.302   1.322
21900W        W90118   9.368  16.375   3.558
21901W        W90119  22.267  38.080   2.285
21902W        W90120  39.343   0.933  11.308
21903W        W90121  41.545  32.000   1.866
21904W        W90122  41.034   4.144  10.054
21905W        W90123  29.436  44.732  12.858
21906W        W90124  14.034  19.162  12.050
21907W        W90125  17.079  43.469  10.080
21908W        W90126  12.836  39.776   0.108
21909W        W90127   7.336  20.747   2.339
21910W        W90128  30.404  18.532  13.240
21911W        W90129  36.314   1.444  14.838
21912W        W90130  19.604  10.619   3.332
21913W        W90131   7.007  37.869  14.408
21914W        W90132  17.002   6.765   2.812
21915W        W90133  25.007   5.332  14.320
21916W        W90134  40.015  40.080   1.532
21917W        W90135   3.901  42.884   0.436
21918W        W90136  29.405  22.634  14.665
21919W        W90137  14.747  28.755  12.471
21920W        W90138  14.844  38.854  13.577
21921W        W90139  38.064  21.353   2.850
21922W        W90140  15.758   6.487   1.825
21923W        W90141  28.098   5.610   3.292
21924W        W90142  43.803  34.482  10.682
21925W        W90143  21.251  21.561  14.983
21926W        W90144  10.269  43.029   4.571
21927W        W90145  29.915   3.261   5.317
21928W        W90146   2.846  11.901   4.213
21929W        W90147  39.458  20.984   4.803
21930W        W90148  37.561  25.599  11.655
21931W        W90149  24.569  30.514  14.720
21932W        W90150  14.917  33.958   3.773
21933W        W90151  36.384  37.298  14.527
21934W        W90152  23.991  38.408   4.640
21935W        W90153   7.089   9.347   0.964
21936W        W90154  42.894  14.328  10.359
21937W        W90155  42.103  39.829  11.652
21938W        W90156  19.028  37.404  12.365
21939W        W90157  18.700  19.136   4.600
21940W        W90158  36.700  19.324  14.074
21941W        W90159   7.942  25.897   0.814
21942W        W90160  30.480  35.465   2.580
21943W        W90161  42.835  26.591  10.302
21944W        W90162  14.187  24.138  14.715
21945W        W90163  18.359   9.087   3.665
21946W        W90164   3.325  15.344   0.707
21947W        W90165   0.432  37.904   1.305
21948W        W90166   1.798  11.075   4.111
21949W        W90167  15.805  38.948   4.071
21950W        W90168  18.613  39.588  14.782
21951W        W90169  23.111  15.802  10.968
21952W        W90170   6.928  36.713  11.310
21953W        W90171  23.137   3.535   1.860
21954W        W90172   6.945  31.933   2.660
21955W        W90173   4.469  36.430   4.706
21956W        W90174  24.120  12.898  14.850
21957W        W90175  15.319  31.619   1.400
21958W        W90176  26.505  28.461   3.594
21959W        W90177  21.291  23.822   2.862
21960W        W90178  27.430  18.019  14.427
21961W        W90179  41.138  41.318   4.152
21962W        W90180  12.179  35.019   4.734
21963W        W90181   6.681   0.323  10.941
21964W        W90182  10.208   5.314  13.369
21965W        W90183  14.296  32.610  14.272
21966W        W90184  34.617  40.368   3.400
21967W        W90185  19.415  33.531   1.367
21968W        W90186  21.706  36.041   4.530
21969W        W90187   3.426  20.750  12.420
21970W        W90188  30.764   9.307   2.043
21971W        W90189  30.572  15.978   2.350
21972W        W90190  19.784  13.052  10.251
21973W        W90191  40.003  23.521  14.063
21974W        W90192  32.581  42.335  12.573
21975W        W90193   1.506  33.595   2.794
21976W        W90194  14.317  42.646  10.258
21977W        W90195   0.728  11.674  10.744
21978W        W90196  22.583  31.996  14.279
21979W        W90197  34.673  31.479  12.934
21980W        W90198  12.155  23.136  13.542
21981W        W90199  43.779  32.386   4.212
21982W        W90200  20.102  18.644   2.948
21983W        W90201  16.198  41.124  10.725
21984W        W90202  28.486  19.871   1.423
21985W        W90203   4.363  17.666   2.790
21986W        W90204  19.263  16.378   2.272
21987W        W90205  26.034  36.428  13.424
21988W        W90206  17.556  33.029   4.669
21989W        W90207  10.784  29.573   2.944
21990W        W90208  35.516  37.871   3.580
21991W        W90209  36.796  24.478  12.436
21992W        W90210  26.120  12.112   0.003
21993W        W90211  16.317  14.664   1.393
21994W        W90212  34.678  29.901   0.372
21995W        W90213  40.565   9.412  14.024
21996W        W90214  34.197  16.083  13.359
21997W        W90215  27.879   0.609   5.060
21998W        W90216  31.967  39.107  14.402
21999W        W90217  24.759   0.779   2.329
22000W        W90218  33.915  12.799  11.165
22001W        W90219  26.939  39.274  10.687
22002W        W90220  41.690  43.528   3.532
22003W        W90221  32.373   4.666  14.854
22004W        W90222   4.215  43.781  12.872
22005W        W90223  37.056   2.134   1.675
22006W        W90224  28.863   1.007   2.522
22007W        W90225  18.127   7.908   4.215
22008W        W90226  13.597   2.281  13.911
22009W        W90227  35.510   4.995   3.260
22010W        W90228  30.438  29.468  13.890
22011W        W90229  31.450  29.531   4.071
22012W        W90230   6.129  34.435  12.095
22013W        W90231  11.841  32.202  12.332
22014W        W90232  29.935  11.010  11.704
22015W        W90233  16.556  40.932  12.282
22016W        W90234   0.957   8.841   4.698
22017W        W90235  40.559  41.999  13.854
22018W        W90236  34.570  29.074  13.911
22019W        W90237  18.126  12.160  14.438
22020W        W90238  36.362  21.223   3.686
22021W        W90239  11.622  21.056  10.846
22022W        W90240  26.706  28.490  12.833
22023W        W90241  19.226  39.220  12.095
22024W        W90242   7.430  42.004  10.330
22025W        W90243  35.865   9.635   1.746
22026W        W90244  41.162   0.726  13.910
22027W        W90245  15.156  12.037   1.154
22028W        W90246   8.219  16.284  11.674
22029W        W90247   2.839  18.110  12.414
22030W        W90248  14.768  32.934   2.966
22031W        W90249  35.876  12.155   1.819
22032W        W90250   5.450  36.344  12.055
22033W        W90251  23.396   2.530   1.265
22034W        W90252  21.743  35.453   2.486
22035W        W90253  18.204  25.170  12.675
22036W        W90254   6.322   0.996   2.349
22037W        W90255  32.752  11.965   2.312
22038W        W90256  10.659  19.535   1.895
22039W        W90257  14.734  21.005  10.590
22040W        W90258  39.420  27.970  12.023
22041W        W90259  14.716  27.695  11.098
22042W        W90260  16.928  36.674  10.572
22043W        W90261  34.850  43.916   1.389
22044W        W90262   4.157  28.384   3.694
22045W        W90263  26.589  42.633  11.634
22046W        W90264  41.162   8.393  12.568
22047W        W90265   8.679  42.194   2.713
22048W        W90266   9.117   2.718   2.922
22049W        W90267  43.804  31.985  10.492
22050W        W90268  17.123  10.199   3.177
22051W        W90269  41.440   2.509   4.541
22052W        W90270   6.723  43.872  10.068
22053W        W90271  28.184  29.885  10.671
22054W        W90272  17.707  44.332   2.150
22055W        W90273  30.675  43.474  12.215
22056W        W90274  32.155  19.825   0.436
22057W        W90275  39.856  24.706   2.418
22058W        W90276   4.326  29.414   2.571
22059W        W90277   9.678  14.230  11.847
22060W        W90278  41.391  25.441   4.602
22061W        W90279  27.726  11.938   3.904
22062W        W90280  22.289  43.535  12.990
22063W        W90281   9.829  19.822  14.937
22064W        W90282   0.989   4.303  14.956
22065W        W90283  30.430  29.920   2.815
22066W        W90284  38.152  11.817  14.176
22067W        W90285  12.809  34.919  11.953
22068W        W90286   3.314  31.364  14.068
22069W        W90287  29.383  40.452  10.880
22070W        W90288  15.030  43.159  10.221
22071W        W90289  37.680   6.887  11.978
22072W        W90290  33.719  16.449  11.997
22073W        W90291   5.198   5.696  12.597
22074W        W90292   3.375  41.830  14.537
22075W        W90293  40.539  29.443   3.411
22076W        W90294  29.461  10.208  11.955
22077W        W90295   8.936  24.905   1.836
22078W        W90296   0.727  34.378   0.737
22079W        W90297  43.022  30.501   3.712
22080W        W90298   6.978  44.782  12.029
22081W        W90299  20.726  13.668  14.489
22082W        W90300  24.141  38.671  14.539
22083W        W90301  37.507  33.035  13.630
22084W        W90302  16.219  36.902   4.441
22085W        W90303  32.589  40.584  11.670
22086W        W90304   7.908  31.347   2.730
22087W        W90305  33.464  29.778  12.670
22088W        W90306  38.995  43.357   2.152
22089W        W90307  33.775  44.361  13.832
22090W        W90308  41.935  25.415  14.821
22091W        W90309  42.311  10.655  11.282
22092W        W90310   3.920   8.151   2.792
22093W        W90311  11.833  16.167  10.469
22094W        W90312   6.710   6.331  13.995
22095W        W90313  12.042   8.751   3.293
22096W        W90314   9.925  37.401  10.601
22097W        W90315  15.025  33.236  13.010
22098W        W90316  27.359  18.983   0.412
22099W        W90317  18.289  34.664   3.815
22100W        W90318  12.811   1.219  12.027
22101W        W90319  39.160   4.096  14.905
22102W        W90320  41.817  19.042   4.665
22103W        W90321   1.259  18.806  12.955
22104W        W90322  41.013  29.662  10.874
22105W        W90323  43.545  21.259  13.882
22106W        W90324  26.335  40.136   4.227
22107W        W90325  19.048  28.072  12.001
22108W        W90326  43.567   1.509   2.243
22109W        W90327  24.868   8.916  11.517
22110W        W90328   6.372   2.258   4.150
22111W        W90329   9.348  12.604   2.715
22112W        W90330  33.592   5.136   4.131
22113W        W90331  44.319  34.060  12.001
22114W        W90332  30.525  25.454   0.231
22115W        W90333  25.080   3.123   1.366
22116W        W90334  26.263  19.807   0.405
22117W        W90335   5.461   4.711  14.310
22118W        W90336  15.173  10.800   2.163
22119W        W90337  13.274  35.627  14.705
22120W        W90338   8.146   4.863  11.010
22121W        W90339  34.340   1.621  12.439
22122W        W90340  38.954  26.566   9.759
22123W        W90341  13.139  12.681  13.688
22124W        W90342  44.469  39.414   1.897
22125W        W90343  19.614  33.056   0.497
22126W        W90344  42.795   6.013   1.859
22127W        W90345   7.287  23.377   0.406
22128W        W90346  39.560  15.490   2.179
22129W        W90347  34.397  25.551   1.890
22130W        W90348  24.921   7.705   3.310
22131W        W90349  36.231  41.089  11.231
22132W        W90350   2.381  29.662  12.529
22133W        W90351  35.521   2.364  13.000
22134W        W90352  28.567  33.932  14.565
22135W        W90353  13.772  11.634   3.336
22136W        W90354  28.425  40.470   0.514
22137W        W90355  22.746   0.033   1.231
22138W        W90356  39.618  42.776  11.871
22139W        W90357  29.587   2.143   2.493
22140W        W90358  27.814  16.515   3.177
22141W        W90359  26.625  32.283   0.882
22142W        W90360  17.369  32.059   1.986
22143W        W90361  15.227  11.314  11.140
22144W        W90362  20.715  18.036   3.113
22145W        W90363  13.281   7.217  12.937
22146W        W90364   4.196  39.598  10.702
22147W        W90365  32.678   7.299   4.599
22148W        W90366  39.399   4.703  10.670
22149W        W90367   4.602  19.846  10.084
22150W        W90368   7.862  30.610   2.322
22151W        W90369  41.855  43.915  13.570
22152W        W90370   1.701  27.131   2.821
22153W        W90371  15.522  32.939  11.611
22154W        W90372   3.985  12.448   1.276
22155W        W90373  40.520  28.629   2.390
22156W        W90374  10.031  17.743  11.615
22157W        W90375  31.047   9.365  14.233
22158W        W90376  21.208  38.492  10.503
22159W        W90377   2.093  27.996   3.380
22160W        W90378  17.188  37.625   0.904
22161W        W90379  16.353   3.878   1.333
22162W        W90380   3.716  24.331   3.606
22163W        W90381  33.432  20.064   3.717
22164W        W90382  16.346  15.892   2.475
22165W        W90383  23.110  27.632   0.846
22166W        W90384   1.170  32.077  13.945
22167W        W90385   0.497  19.255   3.046
22168W        W90386  32.990  39.313  10.692
22169W        W90387  40.976  10.141   1.843
22170W        W90388  35.561   3.176  10.871
22171W        W90389  32.816  27.018  13.362
22172W        W90390  44.764  25.146   4.024
22173W        W90391  23.657  30.152  12.437
22174W        W90392  16.076   5.462   3.862
22175W        W90393  18.487   4.612  12.865
22176W        W90394   8.874  42.606   3.607
22177W        W90395  35.719  32.482   0.098
22178W        W90396  25.049  19.633  11.595
22179W        W90397  37.636   4.661  11.603
22180W        W90398  17.820  22.218  14.569
22181W        W90399  16.658  33.106   3.169
22182W        W90400   4.626  35.552   4.626
22183W        W90401  12.082  32.568  13.849
22184W        W90402  39.380   4.344  12.153
22185W        W90403  35.095  20.954  11.141
22186W        W90404  40.931  25.002  14.513
22187W        W90405  16.239  39.473  14.972
22188W        W90406   6.337  33.064   4.546
22189W        W90407  31.524  18.079   1.695
22190W        W90408  31.618  19.005  11.242
22191W        W90409  39.996  43.941  12.991
22192W        W90410  25.561  31.698   4.608
22193W        W90411  10.022  16.709   1.771
22194W        W90412   6.436  32.258   1.039
22195W        W90413  30.332  38.987  10.902
22196W        W90414  36.611  32.461  13.533
22197W        W90415  23.577  12.566  12.373
22198W        W90416  14.383  11.751  11.963
22199W        W90417   1.447   2.971   4.470
22200W        W90418  13.611  43.799  11.594
22201W        W90419  16.162   6.398   4.887
22202W        W90420  26.915   0.684   1.044
22203W        W90421   0.478  35.378   0.520
22204W        W90422   1.711  36.019   2.766
22205W        W90423  41.813  42.309  10.773
22206W        W90424  26.352  16.834  12.354
22207W        W90425  24.634  27.690  11.179
22208W        W90426  19.748   9.614  11.470
22209W        W90427  18.037   0.339   9.918
22210W        W90428  22.592  11.780  12.817
22211W        W90429   4.823  44.702   3.868
22212W        W90430  16.167  11.105   4.397
22213W        W90431   2.646  22.802  14.793
22214W        W90432  40.524  12.518  12.994
22215W        W90433  24.493   1.335   3.143
22216W        W90434  19.625  38.196   2.827
22217W        W90435  13.231  34.951  13.016
22218W        W90436  20.812  44.982   4.204
22219W        W90437  34.306  10.900  12.911
22220W        W90438  19.354  17.082  11.988
22221W        W90439  10.158   8.926   3.074
22222W        W90440  31.377   3.320   0.903
22223W        W90441  16.632  28.421  11.117
22224W        W90442  36.916  29.391  12.956
22225W        W90443  25.188  31.233   1.264
22226W        W90444   8.387  14.261  12.522
22227W        W90445  19.208  39.444  12.555
22228W        W90446  30.424  21.970   4.646
22229W        W90447  22.156  23.146  14.841
22230W        W90448  37.845  39.383  14.335
22231W        W90449  38.862  27.623  10.770
22232W        W90450  38.443  20.374   4.899
22233W        W90451  30.623  26.085  12.539
22234W        W90452   1.440  43.139  12.090
22235W        W90453  20.279   7.928   3.117
22236W        W90454  34.867  19.202  13.556
22237W        W90455  16.977   8.753  14.892
22238W        W90456  17.630   8.965  14.069
22239W        W90457  21.590  27.854   4.398
22240W        W90458  24.585   3.331  12.900
22241W        W90459  12.302   2.457   4.664
22242W        W90460  18.627  41.622   2.442
22243W        W90461   7.774  27.557   3.592
22244W        W90462   4.717   2.721   4.724
22245W        W90463  15.347  41.125  10.476
22246W        W90464   2.260  14.168   0.867
22247W        W90465  15.270  27.150   2.484
22248W        W90466  19.440  13.778   0.488
22249W        W90467  38.553  18.848  11.532
22250W        W90468   4.003  33.464   1.289
22251W        W90469  23.935  31.829   0.673
22252W        W90470  21.754   2.914   2.940
22253W        W90471   9.862   0.055  12.871
22254W        W90472   4.490  35.176   3.812
22255W        W90473  12.552  44.321   3.332
22256W        W90474   6.750  14.927  13.043
22257W        W90475  30.353  44.876   0.950
22258W        W90476  10.794  44.237  10.032
22259W        W90477  36.466  41.330   3.414
22260W        W90478  43.817  20.054   0.766
22261W        W90479  36.554   8.378  14.616
22262W        W90480  28.024  18.084  11.118
22263W        W90481   9.953   9.067   4.589
22264W        W90482   5.388  19.361   0.436
22265W        W90483  36.864  32.359  14.501
22266W        W90484  12.093   0.176  14.822
22267W        W90485  39.114  17.766   1.745
22268W        W90486  35.399  42.550  14.752
22269W        W90487  29.189  12.172   2.742
22270W        W90488  23.217  22.708  13.088
22271W        W90489  21.678   4.132  14.980
22272W        W90490  30.178  14.826   2.546
22273W        W90491  42.232   7.849   3.306
22274W        W90492  14.440  27.695   0.071
22275W        W90493  23.532  33.426  14.858
22276W        W90494  23.205  17.562   1.328
22277W        W90495  13.299  21.292  14.714
22278W        W90496  33.868  17.843  11.025
22279W        W90497  44.009   5.324   2.964
22280W        W90498  21.001  14.824   0.393
22281W        W90499  28.322  37.985   2.823
22282W        W90500  16.794  12.757  11.607
22283W        W90501  44.460   8.345  12.400
22284W        W90502   0.529  26.871  11.632
22285W        W90503  43.925  39.874  11.579
22286W        W90504  17.160  12.249  14.881
22287W        W90505  39.428  20.650   1.489
22288W        W90506  22.566  11.803   0.266
22289W        W90507  43.815  23.024  12.364
22290W        W90508  44.772  28.638  14.911
22291W        W90509  21.966   3.856  14.622
22292W        W90510  10.244  35.679   2.651
22293W        W90511  28.641  23.775   4.595
22294W        W90512  24.197   1.857   4.460
22295W        W90513  14.543  39.834   2.372
22296W        W90514  39.091  30.155  13.391
22297W        W90515  19.957  18.260  13.483
22298W        W90516  34.880   4.940  10.183
22299W        W90517  39.324  33.684  14.410
22300W        W90518  27.378  35.962   2.772
22301W        W90519  39.482  34.550  12.839
22302W        W90520  41.079  43.939   0.854
22303W        W90521  32.420   4.643   3.137
22304W        W90522  13.236  28.134   2.729
22305W        W90523  24.768  13.157   0.333
22306W        W90524  11.237   0.684   4.796
22307W        W90525  33.898   8.142   2.769
22308W        W90526  36.661  21.710   1.925
22309W        W90527  27.099  15.583   0.835
22310W        W90528  36.895  11.226   2.128
22311W        W90529  30.895  26.079  13.827
22312W        W90530  18.253  39.797   4.567
22313W        W90531  18.511  13.281  13.954
22314W        W90532   4.236   9.646   1.644
22315W        W90533  36.936  11.890   4.660
22316W        W90534  18.828   0.627   2.676
22317W        W90535  28.172   7.799  13.116
22318W        W90536   7.716  14.114  14.106
22319W        W90537   8.585  13.286   0.992
22320W        W90538  38.581  27.714   0.480
22321W        W90539   4.317  36.076   1.816
22322W        W90540   6.929  38.346  14.224
22323W        W90541  14.308  13.093  12.856
22324W        W90542  15.745  20.029   5.041
22325W        W90543   1.317  33.909  14.272
22326W        W90544  25.871  44.950   3.711
22327W        W90545  11.768   5.633   3.751
22328W        W90546   9.102  16.373   0.363
22329W        W90547  32.607  40.791  10.625
22330W        W90548  14.353   2.823   4.203
22331W        W90549  16.722  22.774  14.321
22332W        W90550  32.576   3.793  12.078
22333W        W90551   3.794  36.532  11.132
22334W        W90552   4.822  13.313   4.777
22335W        W90553  15.065  36.119  13.865
22336W        W90554  38.342  15.608  12.961
22337W        W90555  23.303   8.484   0.438
22338W        W90556   3.847  14.471  11.697
22339W        W90557   4.864  34.778   2.892
22340W        W90558  19.739  25.591   3.066
22341W        W90559   1.990  41.317   4.672
22342W        W90560  19.311  42.111   3.986
22343W        W90561  29.401  21.687  13.346
22344W        W90562  10.328  10.224   4.679
22345W        W90563  34.458  39.002  11.737
22346W        W90564   3.339  13.854  10.683
22347W        W90565  21.664  12.903  14.478
22348W        W90566  28.627   5.741   2.886
22349W        W90567   8.831  32.149   4.836
22350W        W90568  40.479  40.612  11.657
22351W        W90569  15.860   9.114  14.315
22352W        W90570  21.908   3.722  11.622
22353W        W90571  30.128  29.943   2.237
22354W        W90572  23.720  37.657   3.381
22355W        W90573  28.499  16.675   4.537
22356W        W90574  32.669  21.002   4.232
22357W        W90575  35.945  23.604   2.752
22358W        W90576   9.243  24.175   1.218
22359W        W90577  36.805  26.219  10.597
22360W        W90578   7.975  27.705  12.067
22361W        W90579  42.927  25.104  12.101
22362W        W90580   5.469  29.606  12.329
22363W        W90581  41.532  35.265   3.094
22364W        W90582  24.910  35.143  13.388
22365W        W90583   4.441  36.967   1.725
22366W        W90584  13.900  35.020   0.452
22367W        W90585  26.457  33.851   1.725
22368W        W90586   0.146  10.399  11.776
22369W        W90587  13.382  21.128  10.236
22370W        W90588  11.843  25.455  11.126
22371W        W90589  44.811  13.122   3.334
22372W        W90590  30.498   6.615  10.714
22373W        W90591  24.324  38.124   4.180
22374W        W90592  28.379  23.759  13.374
22375W        W90593  36.505   2.439  12.157
22376W        W90594  20.469   3.043   3.138
22377W        W90595  41.222  26.845   3.265
22378W        W90596  42.275  29.126  14.932
22379W        W90597  39.094  27.221  10.555
22380W        W90598  41.866  33.688  12.196
22381W        W90599  41.907  10.718  11.612
22382W        W90600  28.670  39.509   0.674
22383W        W90601   0.367  29.421  13.977
22384W        W90602  32.140  41.389   3.072
22385W        W90603  21.255  40.875   3.665
22386W        W90604  17.604  23.288   1.811
22387W        W90605   9.187  22.089   4.694
22388W        W90606  40.387   8.810   4.573
22389W        W90607  44.982   6.421  12.934
22390W        W90608   3.170  13.670  14.285
22391W        W90609  32.956  38.342   4.565
22392W        W90610  40.308  10.904  11.937
22393W        W90611   6.864  24.117  14.444
22394W        W90612  37.533   6.933   1.352
22395W        W90613  12.796  30.096   2.037
22396W        W90614  39.071  37.827  13.432
22397W        W90615  21.101  17.722   4.266
22398W        W90616  34.670  21.197   2.814
22399W        W90617  12.704   7.090  10.557
22400W        W90618  12.883  26.721  11.898
22401W        W90619  33.331  20.956   0.737
22402W        W90620  37.395  12.590   0.785
22403W        W90621   0.002  28.759  13.897
22404W        W90622  44.322  26.264  13.713
22405W        W90623  33.086  34.488   4.778
22406W        W90624  19.835  12.184   4.963
22407W        W90625  36.390   1.507   4.748
22408W        W90626  36.884  28.068   4.553
22409W        W90627  16.825  31.882  14.829
22410W        W90628  24.981  22.416  10.145
22411W        W90629  21.817  18.745   0.735
22412W        W90630  43.922  21.836  12.804
22413W        W90631  27.755  29.014   4.052
22414W        W90632   7.773   2.122  11.001
22415W        W90633  14.104   9.317  12.124
22416W        W90634  35.319   8.034   3.609
22417W        W90635   2.852  24.951   4.259
22418W        W90636  29.113  25.897   0.404
22419W        W90637  35.788   9.182   2.926
22420W        W90638  23.759   7.270  13.061
22421W        W90639  40.781  22.058  13.395
22422W        W90640  11.698   3.774   3.891
22423W        W90641   2.867  31.264   2.387
22424W        W90642  38.991  25.194  11.963
22425W        W90643  24.636  12.155  13.358
22426W        W90644   8.174  18.160  11.492
22427W        W90645   7.973  12.750  11.099
22428W        W90646  32.979  22.761   4.721
22429W        W90647  28.305  27.572  13.437
22430W        W90648  13.559  38.974   3.321
22431W        W90649  15.161  43.865   2.246
22432W        W90650  44.580  39.531   4.584
22433W        W90651  11.686   7.699  11.025
22434W        W90652  10.360   7.252   2.239
22435W        W90653  42.425  20.722   1.645
22436W        W90654   8.593  22.179   2.471
22437W        W90655  24.500  37.873   1.939
22438W        W90656  13.719   9.122  11.155
22439W        W90657  29.402  41.573  12.664
22440W        W90658  30.077  17.483   2.601
22441W        W90659  34.550  34.433   1.599
22442W        W90660   3.026  24.899  13.865
22443W        W90661  27.563  34.329  11.141
22444W        W90662   9.693  18.044   0.913
22445W        W90663  39.821  40.278  11.119
22446W        W90664   4.396  18.229  10.518
22447W        W90665  41.848   6.437   2.715
22448W        W90666  36.885  14.880   2.759
22449W        W90667  23.197  23.673  11.421
22450W        W90668  38.102  31.110  14.057
22451W        W90669  17.496  39.630  12.397
22452W        W90670  42.759   2.853   4.774
22453W        W90671  14.114  39.347   3.625
22454W        W90672  24.817  44.637  10.887
22455W        W90673  11.891  11.786  14.453
22456W        W90674  11.481   3.406   4.205
22457W        W90675  39.377  43.261  11.978
22458W        W90676  29.185  11.385   1.789
22459W        W90677  28.477  22.991   2.208
22460W        W90678   9.831  37.305   0.403
22461W        W90679  43.060  31.785   3.268
22462W        W90680   8.933  35.542  10.681
22463W        W90681  17.802  40.370  13.901
22464W        W90682   9.724  18.606   1.747
22465W        W90683   7.346  10.184   0.907
22466W        W90684   8.756   5.796  13.520
22467W        W90685  44.808  17.727   0.955
22468W        W90686  20.015  36.962   1.704
22469W        W90687   5.233  32.814  12.511
22470W        W90688  13.791  15.562   0.431
22471W        W90689   1.143  17.939  12.052
22472W        W90690  30.511   1.523   3.787
22473W        W90691   2.964  27.600   3.874
22474W        W90692  10.181  27.977   0.703
22475W        W90693   7.846  10.126  10.717
22476W        W90694  44.796  36.845  13.306
22477W        W90695  32.439  13.911   3.255
22478W        W90696  26.299   6.772   0.692
22479W        W90697  10.193  40.255   0.670
22480W        W90698  11.726  43.304   0.033
22481W        W90699  13.515  38.450   4.125
22482W        W90700  22.096  11.406   1.230
22483W        W90701  35.190  28.927  13.359
22484W        W90702   5.533  41.000  12.679
22485W        W90703   4.403  30.577  12.884
22486W        W90704   4.505  26.752   2.701
22487W        W90705   8.182  17.730   2.259
22488W        W90706  25.685  35.961  11.938
22489W        W90707  43.613  36.715   0.273
22490W        W90708  14.253  29.486   0.402
22491W        W90709  19.075  34.636   2.355
22492W        W90710  21.567  32.328  13.828
22493W        W90711  44.809  20.623  13.271
22494W        W90712  19.551  37.450  11.022
22495W        W90713   5.494   0.829  12.101
22496W        W90714  40.450  15.694  14.288
22497W        W90715  30.488   8.917  12.081
22498W        W90716  26.956   7.706   0.442
22499W        W90717  37.420  16.532   3.169
22500W        W90718  28.652  30.045  13.003
22501W        W90719  17.336  20.633   2.856
22502W        W90720  31.510  38.017  14.025
22503W        W90721  36.613  13.724   4.348
22504W        W90722   8.210   2.939   0.446
22505W        W90723  12.773  11.869  12.919
22506W        W90724  41.612  32.461  12.955
22507W        W90725  23.655  24.999   2.219
22508W        W90726  25.412   1.263   4.024
22509W        W90727  43.260  30.104   4.871
22510W        W90728  29.274  14.153   3.337
22511W        W90729  16.614  13.315   2.360
22512W        W90730   4.943  14.686  11.904
22513W        W90731  25.476  11.817  14.354
22514W        W90732   8.587  29.730   5.093
22515W        W90733  11.114  43.778  12.831
22516W        W90734  20.536  18.913   1.984
22517W        W90735  21.679  30.661  11.659
22518W        W90736   3.707  40.004  14.887
22519W        W90737  26.005   9.337   3.792
22520W        W90738  28.300  22.062   3.235
22521W        W90739  18.809  35.420   3.384
22522W        W90740  33.778  38.878  10.664
22523W        W90741   0.219  19.037   1.306
22524W        W90742  26.543  25.214  12.048
22525W        W90743  40.796  39.821   0.469
22526W        W90744   4.959  33.209  14.815
22527W        W90745   5.491  29.984  11.217
22528W        W90746  33.091  24.779  14.230
22529W        W90747   9.432  27.882  11.441
22530W        W90748  24.451  29.516  13.369
22531W        W90749  15.651   1.441  14.857
22532W        W90750   1.574  42.807  14.073
22533W        W90751  23.176  15.621   2.169
22534W        W90752   4.658  23.457  12.115
22535W        W90753  39.300  31.783   0.380
22536W        W90754  38.090  41.900  13.048
22537W        W90755  31.904  38.387  12.559
22538W        W90756  14.840  38.339  13.405
22539W        W90757  31.969   2.711  10.544
22540W        W90758  13.487   7.717  14.163
22541W        W90759   8.295  29.497   4.621
22542W        W90760   5.751  20.458  10.677
22543W        W90761  21.687  16.747  11.735
22544W        W90762  39.800  11.892  13.463
22545W        W90763  38.008  34.151  14.617
22546W        W90764  18.179   5.652  13.799
22547W        W90765  37.259   9.347  14.495
22548W        W90766  11.125  34.443  12.735
22549W        W90767   3.467  43.287   4.436
22550W        W90768  38.962  34.096   1.971
22551W        W90769  20.728  38.562   3.277
22552W        W90770  20.327  15.830  10.638
22553W        W90771   7.253  35.784  13.951
22554W        W90772  23.771  29.358  14.461
22555W        W90773  26.102  17.726   3.434
22556W        W90774  38.054  34.325  12.993
22557W        W90775  29.049  16.382  14.414
22558W        W90776  18.547  13.908   3.652
22559W        W90777  30.924  18.931  12.353
22560W        W90778   5.323   5.930  11.138
22561W        W90779   6.178   3.175   2.839
22562W        W90780  21.968   1.899   1.257
22563W        W90781   3.342  38.437   3.409
22564W        W90782   0.442  37.050   0.472
22565W        W90783   2.673  10.107   2.687
22566W        W90784  24.647  24.805  10.761
22567W        W90785  22.163  33.647  13.554
22568W        W90786  33.512   9.778   0.967
22569W        W90787  38.173   5.890   2.551
22570W        W90788   3.181  36.687   4.284
22571W        W90789  15.572  19.023   2.783
22572W        W90790  16.220   6.234   1.908
22573W        W90791  15.775  27.013   3.167
22574W        W90792  29.404  31.892  11.962
22575W        W90793  27.730  20.722   3.915
22576W        W90794  28.031  33.114   1.663
22577W        W90795  41.093  12.239   2.737
22578W        W90796  41.570  38.019   1.693
22579W        W90797  33.980   6.234   3.091
22580W        W90798  40.381  18.221   2.667
22581W        W90799  21.277   2.745  11.947
22582W        W90800  20.648  12.362   3.981
22583W        W90801  30.112  26.041   4.244
22584W        W90802   6.163  10.397  13.796
22585W        W90803  27.899   9.182  13.530
22586W        W90804  14.536  21.054   0.778
22587W        W90805  19.136  14.994   0.001
22588W        W90806  15.795  34.104  14.805
22589W        W90807  33.326  27.054  13.386
22590W        W90808  25.779  42.961   4.535
22591W        W90809  20.565  10.741   3.309
22592W        W90810  30.026  15.725   1.889
22593W        W90811  11.379  21.567  14.887
22594W        W90812  23.884  32.483  11.718
22595W        W90813   3.526  12.543  13.163
22596W        W90814  30.900  35.648  12.087
22597W        W90815  12.937  11.047   4.229
22598W        W90816  37.312   2.053   0.474
22599W        W90817   8.351   3.295   4.549
22600W        W90818  14.523   7.927   1.522
22601W        W90819   3.956  17.016  12.375
22602W        W90820  28.479  21.116  11.112
22603W        W90821   0.736  25.379  13.498
22604W        W90822  14.212  31.841   0.486
22605W        W90823  20.747  29.004   4.681
22606W        W90824  13.685   1.954  11.202
22607W        W90825  43.792  29.207   0.837
22608W        W90826  34.153  36.636   0.784
22609W        W90827   8.598   6.677   1.567
22610W        W90828  43.003  16.356   0.773
22611W        W90829   8.215  39.534  10.753
22612W        W90830  10.108   5.353   1.778
22613W        W90831   5.072   6.337  10.038
22614W        W90832   3.558   3.355   0.882
22615W        W90833  25.700  37.374  10.206
22616W        W90834  29.158   1.946   2.787
22617W        W90835  44.415  10.188  11.491
22618W        W90836  14.838  26.638   0.335
22619W        W90837  42.624   1.920  13.758
22620W        W90838  36.522   9.720  12.915
22621W        W90839  21.955  19.318  11.556
22622W        W90840   6.950  10.257  14.942
22623W        W90841  36.937  36.869   0.857
22624W        W90842  39.591   4.459   3.266
22625W        W90843  11.794  30.871  14.755
22626W        W90844  37.373  22.818   3.853
22627W        W90845  38.144  17.670   1.440
22628W        W90846   8.817  32.708  11.221
22629W        W90847  34.582  20.756  12.861
22630W        W90848   0.287   0.243   3.001
22631W        W90849  41.350  42.142   3.685
22632W        W90850  44.006   8.509   0.388
22633W        W90851  42.195  36.779  12.524
22634W        W90852  15.906  17.642  11.556
22635W        W90853  26.248  35.524  12.831
22636W        W90854  15.719  12.421  11.989
22637W        W90855  25.134   8.398   2.713
22638W        W90856  43.791  37.918  14.500
22639W        W90857  29.591  19.853   0.697
22640W        W90858  40.857  32.366  13.345
22641W        W90859  42.062  27.554  10.629
22642W        W90860  23.785  44.050   1.413
22643W        W90861  21.765  22.905  12.945
22644W        W90862  37.513   8.428   1.429
22645W        W90863  33.830  16.769  14.273
22646W        W90864  31.953   8.176   2.242
22647W        W90865  43.858  14.909   0.968
22648W        W90866  32.538  34.162   2.616
22649W        W90867  12.848  39.161   3.661
22650W        W90868  26.060  15.967   4.541
22651W        W90869  14.903  43.531   5.060
22652W        W90870   2.735  41.899  11.655
22653W        W90871  18.161   2.108  14.876
22654W        W90872   3.433  36.411  12.977
22655W        W90873  22.996  21.935  12.612
22656W        W90874  33.550  31.865   5.001
22657W        W90875  12.724  36.520  14.734
22658W        W90876   7.697  43.834  11.349
22659W        W90877  35.340   4.107  12.899
22660W        W90878  31.538  14.082  13.397
22661W        W90879  15.010  26.463  14.375
22662W        W90880  17.326  15.035  11.071
22663W        W90881  43.397  25.495  10.643
22664W        W90882  16.137   2.226   1.880
22665W        W90883  16.275  12.108   0.342
22666W        W90884  38.662  35.771   2.183
22667W        W90885  42.395  39.901   3.479
22668W        W90886  33.573   1.745   4.985
22669W        W90887  19.029  39.930   3.183
22670W        W90888  24.262  10.236  10.664
22671W        W90889  42.480  32.621   2.173
22672W        W90890  38.846   8.949  14.978
22673W        W90891  24.483   8.102  14.915
22674W        W90892  12.204  20.007  14.000
22675W        W90893  40.381  25.938   4.081
22676W        W90894  32.010   6.971   5.316
22677W        W90895   4.392   7.867  10.727
22678W        W90896  20.553   5.160  13.996
22679W        W90897  40.282  36.917   0.474
22680W        W90898   9.772  39.259  13.149
22681W        W90899   9.733  26.781  12.125
22682W        W90900  42.578  15.342   3.712
22683W        W90901  34.953  25.588  14.091
22684W        W90902  26.217  26.117  10.460
22685W        W90903  41.435  38.746  13.450
22686W        W90904  26.944  36.050   3.739
22687W        W90905  29.097  21.754   2.072
22688W        W90906  18.710   6.022   0.262
22689W        W90907  14.893  12.798   3.564
22690W        W90908  43.916   7.763  11.770
22691W        W90909  42.467  36.650  14.504
22692W        W90910   7.907  20.510   3.409
22693W        W90911  20.148  43.777  13.042
22694W        W90912  42.308  33.070   0.919
22695W        W90913  32.917  31.176  14.600
22696W        W90914  12.479   3.918   2.916
22697W        W90915  44.158  19.299  10.563
22698W        W90916  11.819  28.032  11.955
22699W        W90917   6.766  12.897  14.838
22700W        W90918  32.660  21.209   0.917
22701W        W90919  42.020  35.338   3.225
22702W        W90920  14.130   1.821  11.533
22703W        W90921  25.470  25.761   3.566
22704W        W90922  14.895  26.034  14.016
22705W        W90923   1.051  18.646  13.393
22706W        W90924  17.556  28.916   4.611
22707W        W90925  24.596  16.968  11.838
22708W        W90926  35.616  33.594  10.937
22709W        W90927  18.975  43.541  10.700
22710W        W90928  41.251  20.935   1.291
22711W        W90929  21.627  14.946  11.134
22712W        W90930  37.620  32.387  13.799
22713W        W90931  36.592  21.650  12.219
22714W        W90932   0.969  38.682  12.864
22715W        W90933  24.167   7.764   4.036
22716W        W90934   6.419  40.713   5.414
22717W        W90935  16.496  42.977  12.545
22718W        W90936  10.903  37.490   1.006
22719W        W90937  21.623  31.992   3.306
22720W        W90938   0.267  16.781  12.238
22721W        W90939  16.603  25.177  10.639
22722W        W90940  15.730  12.569  12.901
22723W        W90941  24.598  25.990   4.292
22724W        W90942  21.736   1.358  11.757
22725W        W90943  40.023   1.529  12.925
22726W        W90944  10.842  21.513   4.919
22727W        W90945  36.924  21.717   4.537
22728W        W90946  42.231  21.201   1.373
22729W        W90947  18.847  44.719  13.782
22730W        W90948   0.859  23.082   1.305
22731W        W90949  25.120  10.621  11.465
22732W        W90950  37.458  29.993   0.951
22733W        W90951  36.409  39.511   2.861
22734W        W90952  14.172  28.994   2.770
22735W        W90953  26.213  30.053   1.257
22736W        W90954  19.554   3.670  12.423
22737W        W90955  42.334   9.133   3.289
22738W        W90956  35.495   5.833  10.937
22739W        W90957  33.650  21.041   4.521
22740W        W90958  28.487   6.933   2.362
22741W        W90959  30.681  38.398  11.655
22742W        W90960  35.466   4.329  13.429
22743W        W90961  17.790   1.725   4.127
22744W        W90962  18.024   9.929   1.878
22745W        W90963   1.531  42.262   1.325
22746W        W90964  31.612  35.562  12.435
22747W        W90965  19.641  29.464  12.873
22748W        W90966  27.038  14.533   4.749
22749W        W90967  38.460  12.740   2.612
22750W        W90968  28.487  24.556  12.981
22751W        W90969  18.161  16.128  14.872
22752W        W90970   7.143  16.406   3.335
22753W        W90971  12.281  32.381   3.644
22754W        W90972  37.628   9.123  12.305
22755W        W90973  26.601  33.811  13.987
22756W        W90974   1.442   2.908   3.298
22757W        W90975   5.152  42.553   0.922
22758W        W90976   2.905  38.134   0.908
22759W        W90977  23.408  39.974   2.976
22760W        W90978   4.205  22.557   3.556
22761W        W90979  11.254   0.164  10.908
22762W        W90980  33.838  21.698   2.865
22763W        W90981  20.004  32.741   1.980
22764W        W90982  21.146  11.842  13.084
22765W        W90983   1.254   7.908   3.334
22766W        W90984  41.758  37.134  12.025
22767W        W90985  34.819  17.543  10.714
22768W        W90986   3.742  12.390  14.418
22769W        W90987  29.157  22.208   0.819
22770W        W90988  40.294  15.704   3.994
22771W        W90989  36.530  40.872  13.646
22772W        W90990   1.850   4.667  12.303
22773W        W90991   7.697  37.992   4.941
22774W        W90992  32.902  26.034  13.166
22775W        W90993  43.703  38.021   1.844
22776W        W90994  34.886  15.596   3.327
22777W        W90995   3.743  27.810  13.001
22778W        W90996  38.312  27.045   1.299
22779W        W90997  28.834  21.868   9.993
22780W        W90998  28.613   9.674  11.124
22781W        W90999  19.778  12.227  11.171
22782W        W91000  29.108   8.001  14.912
22783W        W91001  42.007  43.061   4.299
22784W        W91002  37.598  33.845  14.791
22785W        W91003  43.292  21.533  10.581
22786W        W91004   3.721  21.450   2.125
22787W        W91005  13.411  37.581   0.969
22788W        W91006  14.632  36.833  14.351
22789W        W91007  39.754  19.557   2.893
22790W        W91008   5.810  15.923  11.633
22791W        W91009  22.978  29.014  12.160
22792W        W91010  26.980   6.416  11.102
22793W        W91011  44.356  31.091   0.987
22794W        W91012  26.286  37.905   0.330
22795W        W91013   0.456   2.219  11.566
22796W        W91014  23.592  23.082   4.953
22797W        W91015  11.115  21.544   0.842
22798W        W91016  42.049  33.460  10.803
22799W        W91017  32.620   5.480  12.605
22800W        W91018  30.860  23.230   4.450
22801W        W91019  21.809  15.072   1.477
22802W        W91020  12.270  37.552  10.712
22803W        W91021  40.155  25.233   0.376
22804W        W91022   4.714  32.963  12.378
22805W        W91023   8.345   3.943   3.206
22806W        W91024  15.369  15.179   0.882
22807W        W91025  15.244  31.830  13.412
22808W        W91026   6.371  22.294  12.844
22809W        W91027  44.721  19.975  11.138
22810W        W91028   3.712  34.065  13.942
22811W        W91029  14.532   0.080  12.900
22812W        W91030   7.429  17.663  12.766
22813W        W91031  15.671  43.985  11.425
22814W        W91032   6.158  29.797  13.058
22815W        W91033  16.289  12.635   0.421
22816W        W91034  36.693  34.413  11.350
22817W        W91035  26.656  16.557   3.682
22818W        W91036   3.406  24.971  14.765
22819W        W91037  40.860   4.433  11.437
22820W        W91038  13.074  15.188   2.107
22821W        W91039  32.033  32.453  14.182
22822W        W91040  20.351  36.384   2.466
22823W        W91041  35.063   3.428   5.157
22824W        W91042   5.011  41.771   1.333
22825W        W91043  42.795  31.416   0.860
22826W        W91044  31.990  40.390   0.079
22827W        W91045  28.010  30.170   4.217
22828W        W91046  27.944  37.255   1.830
22829W        W91047  13.268  19.778   1.423
22830W        W91048   6.692   0.747  11.552
22831W        W91049  20.219  16.770  14.358
22832W        W91050  11.591  15.481  13.984
22833W        W91051   0.995  37.852   4.860
22834W        W91052  20.736  39.799   4.784
22835W        W91053  24.573  44.142   2.850
22836W        W91054  37.449  44.311   3.303
22837W        W91055  33.061  10.712   3.488
22838W        W91056  32.392  31.512  11.910
22839W        W91057  26.371  38.003  11.072
22840W        W91058  16.231  38.564  13.762
22841W        W91059   9.232  10.136  10.639
22842W        W91060  30.636   5.827  14.819
22843W        W91061  32.301  13.687  12.288
22844W        W91062  26.918  28.355  10.703
22845W        W91063   7.450   0.896  12.015
22846W        W91064  14.751  23.126   3.744
22847W        W91065   5.030  33.021   1.926
22848W        W91066  27.578   0.936   3.768
22849W        W91067  15.610  15.104   0.421
22850W        W91068  32.400  11.618   4.000
22851W        W91069   6.553  37.644   5.099
22852W        W91070  36.608  14.679  11.929
22853W        W91071  21.008  17.371   0.016
22854W        W91072  30.107  35.973  14.344
22855W        W91073  35.540  36.503  12.128
22856W        W91074  37.134  27.483   1.933
22857W        W91075  15.261  11.153  12.157
22858W        W91076  15.337  22.119   2.266
22859W        W91077  33.122  12.642  13.365
22860W        W91078   8.837  14.692  13.822
22861W        W91079   3.783  23.717   0.170
22862W        W91080  13.588  44.981   3.253
22863W        W91081  11.610   7.451  14.470
22864W        W91082   2.734   3.309  10.677
22865W        W91083  33.391   0.954   4.307
22866W        W91084  19.134  20.017  14.534
22867W        W91085  28.930  33.022  14.071
22868W        W91086  15.084  22.874   3.002
22869W        W91087  13.819  20.596   3.659
22870W        W91088   8.964  27.849  10.688
22871W        W91089  11.052  16.651  12.136
22872W        W91090  11.816  14.212  12.497
22873W        W91091   9.415  40.013   0.367
22874W        W91092  31.116  35.360   2.728
22875W        W91093  12.609  18.539   3.154
22876W        W91094  16.757  19.199  12.516
22877W        W91095  42.376   0.939  12.854
22878W        W91096  35.088   4.396   4.684
22879W        W91097  41.414  37.376   2.910
22880W        W91098  19.753   7.952   0.846
22881W        W91099  27.472  18.043  12.572
22882W        W91100  35.550  20.966  10.318
22883W        W91101  40.437   3.815   3.870
22884W        W91102  24.635  23.518  11.559
22885W        W91103  43.360  36.305   1.388
22886W        W91104  42.413  29.488   0.698
22887W        W91105   9.844  27.990  10.972
22888W        W91106  24.027  30.464   2.744
22889W        W91107  42.709  43.179  13.799
22890W        W91108  16.360  16.845   2.826
22891W        W91109  42.716   6.465  13.049
22892W        W91110  17.156  29.081  11.405
22893W        W91111   8.929   4.456  13.865
22894W        W91112   4.678  23.469   1.362
22895W        W91113   4.637  21.065   4.030
22896W        W91114   3.041  44.878  13.541
22897W        W91115  31.640  31.197  13.989
22898W        W91116  23.313  14.592   4.185
22899W        W91117  12.845  16.173  14.523
22900W        W91118  22.627  11.137  11.548
22901W        W91119   3.403  26.672   1.327
22902W        W91120   9.198  19.713  13.921
22903W        W91121  29.860  14.288  11.181
22904W        W91122   7.319  11.617   2.476
22905W        W91123  29.822  30.946  12.497
22906W        W91124  21.148  43.597   4.268
22907W        W91125  32.622  26.441   3.633
22908W        W91126  18.664  11.385  14.268
22909W        W91127  26.633  19.632   0.014
22910W        W91128  32.453  19.988   2.621
22911W        W91129  30.205  22.608  11.556
22912W        W91130   0.404  29.368   4.458
22913W        W91131  43.471   4.240   4.145
22914W        W91132  15.760  11.105  12.974
22915W        W91133   0.882  13.461  13.760
22916W        W91134  26.965  36.807   0.794
22917W        W91135  22.681   3.852   3.829
22918W        W91136   5.424   5.711  13.890
22919W        W91137  34.448  11.866  12.452
22920W        W91138  31.274   9.114   5.101
22921W        W91139  17.846  10.824  11.490
22922W        W91140  39.626  25.152  14.423
22923W        W91141  35.464  18.602   1.319
22924W        W91142   7.451  44.936  11.972
22925W        W91143  31.544  21.933   3.151
22926W        W91144  41.140  21.083   2.466
22927W        W91145  23.453  12.310  12.827
22928W        W91146  26.521  36.885  14.964
22929W        W91147  38.535  36.311   3.132
22930W        W91148   2.679  28.532  11.633
22931W        W91149  43.335  34.098   1.936
22932W        W91150   4.008  34.752  14.999
22933W        W91151  19.256  37.441   1.834
22934W        W91152  26.501  43.350   4.532
22935W        W91153  20.447  40.434   4.468
22936W        W91154  40.130  44.296   4.752
22937W        W91155  24.903  15.787   5.095
22938W        W91156   8.286   4.680  14.365
22939W        W91157  11.619  27.330  10.698
22940W        W91158  42.909  25.684  12.861
22941W        W91159  12.578  17.080  13.506
22942W        W91160  34.594  32.924  12.975
22943W        W91161  20.303  35.929   1.695
22944W        W91162  16.710  42.727  11.664
22945W        W91163   4.357  30.640   4.820
22946W        W91164  44.085  24.594  10.292
22947W        W91165  31.952  27.135  12.054
22948W        W91166  39.478  13.753   4.473
22949W        W91167  40.804  15.578  13.845
22950W        W91168  32.394  20.094   1.426
22951W        W91169   2.374  31.165  12.689
22952W        W91170  30.358  43.909  12.973
22953W        W91171  39.973  40.744   4.356
22954W        W91172  42.868  14.893  12.911
22955W        W91173   7.234  38.306   4.879
22956W        W91174  26.249  30.127  11.206
22957W        W91175  13.664  31.403  12.410
22958W        W91176  13.789  12.564  12.178
22959W        W91177  39.515  33.858   0.331
22960W        W91178  22.610  44.912   4.528
22961W        W91179  37.538   6.631  11.569
22962W        W91180   2.206  26.797   9.917
22963W        W91181  41.949  26.091   2.139
22964W        W91182  25.450  22.604   1.467
22965W        W91183  40.056  29.521  13.829
22966W        W91184  19.518  36.441   1.264
22967W        W91185  22.695  33.456  14.903
22968W        W91186   4.522  36.431  13.893
22969W        W91187  24.903  16.207  11.536
22970W        W91188  44.211  24.666  11.068
22971W        W91189  38.594  14.828   0.899
22972W        W91190   4.934  23.636  10.746
22973W        W91191  24.496   9.848   3.233
22974W        W91192  18.289  22.582  12.487
22975W        W91193  41.499  37.358  14.541
22976W        W91194  38.924  41.848  11.536
22977W        W91195  15.225  23.139  14.471
22978W        W91196   0.171  32.185  14.990
22979W        W91197   4.945  11.040   4.089
22980W        W91198  10.626  22.218   1.146
22981W        W91199   1.231   1.702  13.438
22982W        W91200  40.898   5.838   2.145
22983W        W91201  35.613  15.097   1.318
22984W        W91202  13.762  34.666  11.437
22985W        W91203  10.369  24.714   4.366
22986W        W91204  16.669  15.613  13.366
22987W        W91205  13.150  31.991   3.176
22988W        W91206  41.808   5.734   1.785
22989W        W91207  41.203  38.540   1.098
22990W        W91208  28.093  22.579   1.332
22991W        W91209  27.131  34.440  11.651
22992W        W91210  33.951  25.479  11.996
22993W        W91211  40.382  39.633   4.645
22994W        W91212  36.352  14.079  10.353
22995W        W91213   5.309   4.466  10.838
22996W        W91214  35.870  35.525   0.835
22997W        W91215  19.698  22.447  10.481
22998W        W91216  19.543  19.004  11.449
22999W        W91217  18.358  12.872  10.535
23000W        W91218  11.793   9.358  10.920
23001W        W91219  37.597  11.732  11.365
23002W        W91220  12.539  22.191  14.546
23003W        W91221  18.630  41.464   0.550
23004W        W91222  33.506  28.115   3.353
23005W        W91223  37.889  20.097   0.445
23006W        W91224  16.136  44.785  12.381
23007W        W91225   3.926   1.807  11.009
23008W        W91226   8.327   4.623   1.345
23009W        W91227  33.879   0.046  12.495
23010W        W91228  38.836   9.734   0.316
23011W        W91229  18.866  15.252  14.139
23012W        W91230  17.601  40.344  14.368
23013W        W91231   5.307  44.819   0.467
23014W        W91232   3.326  22.248  13.519
23015W        W91233  24.954  29.616  13.386
23016W        W91234  16.762  14.047  13.497
23017W        W91235   0.720   1.010  12.042
23018W        W91236  23.546   0.737  12.360
23019W        W91237   0.991  27.621  14.194
23020W        W91238  42.287  36.364  14.068
23021W        W91239   0.210   8.258   4.537
23022W        W91240  29.011  24.112   3.785
23023W        W91241  36.010  33.446  10.649
23024W        W91242   0.458  36.317   4.150
23025W        W91243  44.967   5.535   2.896
23026W        W91244   6.127  19.582   1.927
23027W        W91245  30.411  11.322   2.398
23028W        W91246  27.519  37.732   3.158
23029W        W91247   3.852  24.098   1.444
23030W        W91248  44.776   7.668  12.563
23031W        W91249  14.857   2.828   3.946
23032W        W91250   9.662  22.608  11.185
23033W        W91251  11.242  24.776   3.844
23034W        W91252  22.785  32.929  13.802
23035W        W91253  39.381  29.931  12.148
23036W        W91254  21.587  42.987   2.237
23037W        W91255  30.392  34.923  14.916
23038W        W91256  40.425  43.719  10.646
23039W        W91257  25.161  41.610   1.120
23040W        W91258  15.792  23.743  14.602
23041W        W91259   8.848  37.407  13.390
23042W        W91260  37.446  19.851   1.799
23043W        W91261   9.450  27.613   4.708
23044W        W91262   9.101  21.528  10.773
23045W        W91263   8.330  24.817   0.727
23046W        W91264  11.247  43.624   0.159
23047W        W91265   3.473  27.385   3.201
23048W        W91266  27.520  15.725   2.916
23049W        W91267   2.263   2.685  11.999
23050W        W91268  26.305  44.778  12.466
23051W        W91269   8.853  26.003  13.995
23052W        W91270  19.933  30.534  14.971
23053W        W91271   8.228  40.557  13.760
23054W        W91272  18.979  29.009  14.456
23055W        W91273  22.940  20.079   2.188
23056W        W91274  14.223  41.100   4.813
23057W        W91275  10.570  15.747   5.193
23058W        W91276  42.021  25.602  12.800
23059W        W91277  25.831  21.897   1.786
23060W        W91278  11.289  42.601   0.268
23061W        W91279  22.533  13.326  12.909
23062W        W91280  26.514  12.859  11.614
23063W        W91281  39.301   5.870  11.513
23064W        W91282  38.544   3.410  10.300
23065W        W91283  21.840  35.371  12.415
23066W        W91284  42.281  32.863  12.045
23067W        W91285  31.567  39.633   2.681
23068W        W91286  11.723  17.034   3.624
23069W        W91287  14.456  44.273  13.166
23070W        W91288   4.280   9.660  12.589
23071W        W91289  37.978  42.569   3.158
23072W        W91290  13.383   0.423  12.905
23073W        W91291  38.294   5.344   4.571
23074W        W91292   1.769  42.549   1.720
23075W        W91293  11.161   3.954   2.601
23076W        W91294  39.059  44.879   0.380
23077W        W91295  38.943   3.881   3.488
23078W        W91296  17.265  44.196  10.973
23079W        W91297  27.062  34.959  12.673
23080W        W91298  18.773   6.469   4.482
23081W        W91299  16.658  28.942  14.331
23082W        W91300   7.524  34.396   2.840
23083W        W91301  22.940  41.954  14.868
23084W        W91302  12.807  44.630  14.602
23085W        W91303  16.575  38.469   4.168
23086W        W91304  30.363   3.101  13.700
23087W        W91305   3.449  35.006   0.359
23088W        W91306  22.982   2.447  13.030
23089W        W91307  23.481   5.356  14.317
23090W        W91308  18.865  35.133  14.976
23091W        W91309  21.653  12.726  14.997
23092W        W91310  33.481  25.629   1.716
23093W        W91311  29.371  30.512   4.149
23094W        W91312  40.679  29.112   2.242
23095W        W91313  31.909  11.578   3.193
23096W        W91314  30.462  14.299   3.270
23097W        W91315  23.532   0.776   0.979
23098W        W91316   9.188  33.476  11.397
23099W        W91317  19.747  41.260  10.905
23100W        W91318  42.230  18.076  10.635
23101W        W91319   4.330  41.040  11.606
23102W        W91320  23.507   4.264  13.067
23103W        W91321  13.143  30.441   4.659
23104W        W91322  30.882   3.421   0.995
23105W        W91323  42.800  32.541  14.542
23106W        W91324  13.103  42.343   0.024
23107W        W91325  34.981  19.537  10.284
23108W        W91326  16.530  33.968  14.378
23109W        W91327  29.043  24.002   9.868
23110W        W91328   8.973  24.011  13.910
23111W        W91329  15.277  35.848   3.179
23112W        W91330   6.778  30.613   0.354
23113W        W91331   1.749   8.218   4.631
23114W        W91332  14.362  32.887  10.634
23115W        W91333  14.113  35.705   2.865
23116W        W91334  38.925  24.043   4.884
23117W        W91335  36.249   7.690  12.393
23118W        W91336   1.358  43.900   1.862
23119W        W91337  34.329  11.833  14.850
23120W        W91338  31.864  19.225   2.301
23121W        W91339   2.452   0.962  13.997
23122W        W91340  38.295  16.139  12.095
23123W        W91341  43.668   2.542  11.120
23124W        W91342  43.910   5.246   1.096
23125W        W91343  43.595   7.296  12.894
23126W        W91344  25.691  42.809  14.304
23127W        W91345  41.924  12.818   4.489
23128W        W91346  36.628   8.313  13.606
23129W        W91347  43.810  17.770   1.781
23130W        W91348  17.517  34.908   1.976
23131W        W91349  35.467  22.950  12.977
23132W        W91350  20.265  42.085  11.895
23133W        W91351  36.884  22.773  12.934
23134W        W91352  41.745  39.561   4.041
23135W        W91353  26.279  36.571   0.377
23136W        W91354   0.004  11.736   2.807
23137W        W91355  11.237  21.801  14.435
23138W        W91356   9.917  15.684  13.100
23139W        W91357  44.247  30.507   0.504
23140W        W91358  42.986   1.243  13.733
23141W        W91359  42.506   4.631  13.868
23142W        W91360  20.746  21.700   0.851
23143W        W91361  13.837  15.772  13.970
23144W        W91362  13.806   8.899  12.359
23145W        W91363  40.544  30.544  11.434
23146W        W91364  26.621  38.818  12.494
23147W        W91365  32.114  31.014  13.900
23148W        W91366  31.387  40.729  11.119
23149W        W91367   2.665   3.885   2.009
23150W        W91368   0.406  34.933   0.249
23151W        W91369   5.775  39.006   3.094
23152W        W91370  23.750   9.118   3.263
23153W        W91371   3.163   1.886   4.624
23154W        W91372  25.602  36.964  10.527
23155W        W91373  36.028  21.742   0.848
23156W        W91374  33.935  35.533  11.853
23157W        W91375  13.031  15.353  14.860
23158W        W91376   6.396   5.387   1.273
23159W        W91377  36.556  25.713  14.550
23160W        W91378   0.867  43.956   3.636
23161W        W91379  33.874  23.050  11.493
23162W        W91380  10.671   5.932   4.124
23163W        W91381  20.751  11.085  14.530
23164W        W91382  22.519  20.340   1.357
23165W        W91383  44.088  28.258  13.785
23166W        W91384  30.308  16.612   4.022
23167W        W91385  32.031  30.057   2.668
23168W        W91386   6.490  37.768  14.913
23169W        W91387  43.013   2.965   1.013
23170W        W91388  44.206   5.164   0.331
23171W        W91389  10.722  41.422  12.901
23172W        W91390  28.411  25.756  13.458
23173W        W91391   7.840  21.533  14.788
23174W        W91392  31.648  37.403  13.331
23175W        W91393  42.530  33.885   2.479
23176W        W91394  11.636   8.197   1.717
23177W        W91395  44.438   7.478   0.819
23178W        W91396  36.412  40.292  12.947
23179W        W91397  43.919  11.722   1.283
23180W        W91398   7.217  42.334   0.643
23181W        W91399  23.786  39.511  13.534
23182W        W91400  34.932   0.313  14.706
23183W        W91401  36.067  14.455   1.333
23184W        W91402  34.671  41.238   3.249
23185W        W91403  23.295  26.425  12.722
23186W        W91404  38.024  37.508  11.574
23187W        W91405  17.615  26.472   3.212
23188W        W91406  38.350   9.641   3.268
23189W        W91407  25.966  37.112   3.286
23190W        W91408  43.978  14.903   4.197
23191W        W91409  42.418  23.576  12.384
23192W        W91410  42.123  24.673   0.971
23193W        W91411  37.129   0.748  12.424
23194W        W91412  43.222  37.100   2.031
23195W        W91413  18.915   1.751  12.667
23196W        W91414  27.927   8.449  14.265
23197W        W91415   1.956  32.642  14.097
23198W        W91416  32.672  18.064  13.966
23199W        W91417  39.593  32.836  12.394
23200W        W91418  19.526  41.730   1.903
23201W        W91419   5.679  42.457   0.867
23202W        W91420  11.079  36.379  11.202
23203W        W91421  28.699  24.272   1.262
23204W        W91422  15.108  36.062  10.491
23205W        W91423   0.884   1.263   0.697
23206W        W91424  17.882  17.221   2.667
23207W        W91425  19.112  16.541   1.178
23208W        W91426  30.242  34.835  13.292
23209W        W91427  24.225  29.959  12.083
23210W        W91428  11.825   8.662   1.950
23211W        W91429  28.130  15.252  12.645
23212W        W91430  43.005   6.092   0.505
23213W        W91431  22.516  44.514   1.350
23214W        W91432  43.085  26.854   2.351
23215W        W91433   7.621  24.560   1.396
23216W        W91434  23.854  13.771  12.055
23217W        W91435  42.303  39.776   0.549
23218W        W91436  13.347  15.574  13.987
23219W        W91437   5.589   7.250   2.269
23220W        W91438   1.001  12.237  13.161
23221W        W91439  22.762  30.330   3.592
23222W        W91440  44.834  30.689  11.974
23223W        W91441  28.421  40.287   2.748
23224W        W91442   8.334   1.415  12.609
23225W        W91443   9.889   0.565  12.751
23226W        W91444   8.330   9.918  13.341
23227W        W91445  37.109  19.774  12.944
23228W        W91446  10.224  32.757   0.391
23229W        W91447  26.106  15.695   1.629
23230W        W91448  15.143   9.708   2.017
23231W        W91449  14.211  15.107  10.373
23232W        W91450   4.013  21.961  12.967
23233W        W91451   1.874   9.703  10.859
23234W        W91452   2.719  18.049  12.903
23235W        W91453  36.270   1.923  14.615
23236W        W91454  37.081  38.367  13.259
23237W        W91455  31.146  26.673   0.363
23238W        W91456   5.334  17.079   0.792
23239W        W91457   9.672   9.198   1.053
23240W        W91458   7.254  19.614  11.185
23241W        W91459  26.135  22.715  12.804
23242W        W91460   6.692  29.560   4.064
23243W        W91461  32.235  14.862   0.233
23244W        W91462   8.403  12.579   2.891
23245W        W91463   1.485  44.419   1.844
23246W        W91464  13.227  25.207   4.627
23247W        W91465  13.667  16.249  13.340
23248W        W91466  10.179  30.389  14.849
23249W        W91467  24.190  34.993   0.816
23250W        W91468  21.978  29.670  14.434
23251W        W91469  11.138  22.808  12.001
23252W        W91470  11.827  32.029   5.029
23253W        W91471  21.821  24.548  11.060
23254W        W91472  33.342  10.272   0.823
23255W        W91473  26.242  10.376  11.588
23256W        W91474  37.487   4.160   4.529
23257W        W91475  26.987  14.790   1.331
23258W        W91476  32.670  15.910   2.412
23259W        W91477   2.180  41.509   4.208
23260W        W91478  39.053   4.233  11.198
23261W        W91479  17.225  39.460   2.860
23262W        W91480  10.673  25.025   2.349
23263W        W91481  35.579  10.936  13.410
23264W        W91482  20.759  16.287   2.189
23265W        W91483  23.167  19.521  13.240
23266W        W91484  36.293   4.333   4.177
23267W        W91485  37.300  27.062  10.163
23268W        W91486   8.049  18.628   5.338
23269W        W91487  23.022  38.945   0.716
23270W        W91488  30.911  28.718   2.586
23271W        W91489  44.206   6.365   3.119
23272W        W91490  39.488  25.375  10.449
23273W        W91491   5.074  15.591  14.756
23274W        W91492   4.966  37.926  14.788
23275W        W91493  36.986  15.275   3.713
23276W        W91494  31.096  37.543   1.146
23277W        W91495   0.863  33.968   2.311
23278W        W91496  33.306  35.652   0.298
23279W        W91497  29.679  32.691   3.211
23280W        W91498  33.981   1.992  12.420
23281W        W91499  39.327  26.119   4.155
23282W        W91500  28.970  22.164   1.711
23283W        W91501  30.065  40.578  13.011
23284W        W91502  40.309  25.429   2.653
23285W        W91503  38.608  12.972   0.221
23286W        W91504   2.181  14.247  13.500
23287W        W91505  14.774  39.969  13.455
23288W        W91506  18.773  19.653  11.862
23289W        W91507  12.126  34.351  14.386
23290W        W91508  31.207  43.874  14.388
23291W        W91509  27.004  23.303  14.369
23292W        W91510  16.866  15.373   1.056
23293W        W91511  25.392  44.497  13.971
23294W        W91512   6.320  18.508   2.735
23295W        W91513   8.246  41.018  14.029
23296W        W91514  18.845  21.671   4.094
23297W        W91515  23.284  38.432   2.130
23298W        W91516  22.095  27.955   0.684
23299W        W91517   8.361  20.625  13.911
23300W        W91518  22.280  12.919   1.419
23301W        W91519  29.767  31.675  11.061
23302W        W91520  38.438  29.284   2.876
23303W        W91521   7.490  41.560   2.659
23304W        W91522  24.526   1.720  13.730
23305W        W91523   1.302   3.064  12.913
23306W        W91524   7.237  30.711   4.619
23307W        W91525   6.208  23.132   2.894
23308W        W91526   3.841   8.705   1.068
23309W        W91527  43.914   0.822   2.777
23310W        W91528  33.901  29.147   0.116
23311W        W91529  42.701  20.361   1.373
23312W        W91530  20.807  41.270   1.311
23313W        W91531  14.453  35.871   0.345
23314W        W91532  10.262  20.206   4.901
23315W        W91533  39.949  32.019  12.084
23316W        W91534   2.199  25.506   2.857
23317W        W91535  26.680  31.175  13.015
23318W        W91536   1.436   7.893  13.250
23319W        W91537  34.944  33.909  13.789
23320W        W91538   1.341  38.852   2.768
23321W        W91539  19.286   0.054   1.163
23322W        W91540  21.856  15.672  10.748
23323W        W91541  32.982  41.570   1.848
23324W        W91542  39.457  18.985   2.090
23325W        W91543  24.584  32.854  12.873
23326W        W91544  21.111  26.179   3.701
23327W        W91545   8.749   3.821  12.578
23328W        W91546   5.878  12.091   2.233
23329W        W91547  25.525  36.080   0.929
23330W        W91548  21.326  22.988  11.821
23331W        W91549   6.942  39.313   2.946
23332W        W91550   4.709   1.517  11.187
23333W        W91551   7.694   5.202  11.592
23334W        W91552  28.444  40.330  12.563
23335W        W91553   0.125  17.781  14.051
23336W        W91554  10.140   4.883  11.024
23337W        W91555  16.594  29.936   3.706
23338W        W91556  13.923  27.108   0.441
23339W        W91557   6.774  22.067  12.105
23340W        W91558  29.904  26.433  13.085
23341W        W91559  34.886  35.042   3.711
23342W        W91560  41.204   6.377   4.239
23343W        W91561  42.466  36.554   4.120
23344W        W91562  19.214  38.394  12.458
23345W        W91563  39.759  22.556  11.202
23346W        W91564  24.042  36.461  14.955
23347W        W91565  42.278  14.553   0.446
23348W        W91566  37.635  25.563   3.217
23349W        W91567   0.511   4.444   0.151
23350W        W91568  24.633  34.436   1.468
23351W        W91569  37.101  29.640   1.062
23352W        W91570  37.362  20.808  10.716
23353W        W91571  23.080  42.497   2.108
23354W        W91572  24.197   8.570  10.357
23355W        W91573  34.900  44.306   3.146
23356W        W91574   3.418   6.422   2.711
23357W        W91575  37.793  43.892   2.547
23358W        W91576  20.248   8.160   1.304
23359W        W91577  35.294   6.965  14.368
23360W        W91578  27.965  13.313   3.821
23361W        W91579   6.191  32.633  13.374
23362W        W91580  34.564   0.379   4.879
23363W        W91581  13.178  22.941   0.776
23364W        W91582  22.258  21.261  12.335
23365W        W91583  23.308  18.545  13.360
23366W        W91584  12.753  37.933   1.018
23367W        W91585  23.200  27.982  12.544
23368W        W91586  23.095  33.358   4.666
23369W        W91587  17.065  13.286   2.703
23370W        W91588  44.818   3.234  10.939
23371W        W91589  32.679  23.078  13.586
23372W        W91590  21.205   2.345  13.956
23373W        W91591   5.326   9.925  12.931
23374W        W91592   2.309   0.364   2.916
23375W        W91593  16.821  19.011   2.683
23376W        W91594  31.175  14.739  14.057
23377W        W91595  23.998  14.156   1.393
23378W        W91596  25.020  22.842   3.602
23379W        W91597  23.916  32.366  14.246
23380W        W91598  12.590  23.601  12.835
23381W        W91599  33.900  40.526   3.176
23382W        W91600  39.921  31.539  12.375
23383W        W91601  41.760   2.041   1.919
23384W        W91602  34.541  38.570  12.521
23385W        W91603  18.554  10.863  11.205
23386W        W91604   1.935  29.101  14.428
23387W        W91605   8.772  11.809  14.596
23388W        W91606   4.821  19.063   1.310
23389W        W91607  35.487  21.310   3.781
23390W        W91608  43.299  24.168   2.765
23391W        W91609  14.762  41.856  11.902
23392W        W91610  31.576  17.606  10.990
23393W        W91611  14.172  20.647  13.378
23394W        W91612  38.930  16.353   3.789
23395W        W91613   6.363  34.885  12.068
23396W        W91614  19.554  40.479   0.755
23397W        W91615  21.142  30.388   3.340
23398W        W91616  10.356   9.749   0.939
23399W        W91617  18.553  21.341  12.572
23400W        W91618  29.544   5.151   0.431
23401W        W91619  41.404   5.326  11.585
23402W        W91620   3.285  28.555  13.979
23403W        W91621   2.218  40.744   3.800
23404W        W91622  22.695  20.198  14.821
23405W        W91623   8.211  18.062   1.856
23406W        W91624  19.273  38.228   4.728
23407W        W91625  30.443  27.603   2.273
23408W        W91626  34.130  44.692   3.975
23409W        W91627   1.374  34.409   3.335
23410W        W91628  21.064  12.514   0.355
23411W        W91629  29.887  11.204   2.322
23412W        W91630  15.203  43.747  12.637
23413W        W91631  43.341   4.240   0.861
23414W        W91632  27.599  21.948  12.003
23415W        W91633  26.162  11.101   2.932
23416W        W91634   7.699  19.923  14.835
23417W        W91635  39.062  26.678   3.694
23418W        W91636  13.144   0.676  12.515
23419W        W91637  40.967   3.956  14.319
23420W        W91638  24.474  31.028  13.338
23421W        W91639  30.109   0.045  14.611
23422W        W91640   6.415  12.836  10.984
23423W        W91641   1.733  13.834   2.981
23424W        W91642  33.594  18.091   2.777
23425W        W91643   7.876  44.023   4.647
23426W        W91644  10.060  37.762   3.179
23427W        W91645  23.158  15.807   1.665
23428W        W91646  38.941  41.864  12.604
23429W        W91647  43.424  44.559   2.784
23430W        W91648  36.328  42.903  12.488
23431W        W91649  16.827  10.548  12.090
23432W        W91650  19.104  19.698  11.422
23433W        W91651  18.541  41.039   3.145
23434W        W91652   8.658   4.384   0.441
23435W        W91653  22.089  38.097   3.321
23436W        W91654  30.391   1.817   2.070
23437W        W91655  17.219  34.076   1.618
23438W        W91656  12.834   0.361  11.195
23439W        W91657  38.864   8.986   0.842
23440W        W91658   2.355  29.264   0.183
23441W        W91659  32.946   3.252   0.794
23442W        W91660  37.448  38.320   4.242
23443W        W91661  27.459  29.459   4.764
23444W        W91662  19.097  27.123  14.397
23445W        W91663  34.992   1.742  10.535
23446W        W91664  39.426   3.499  14.482
23447W        W91665  14.475  11.184   1.857
23448W        W91666   1.473  32.144   0.715
23449W        W91667  39.456   2.457   1.371
23450W        W91668   0.371  16.194   0.350
23451W        W91669  24.855  30.751   4.899
23452W        W91670  41.540   2.964  12.016
23453W        W91671  36.750   1.864   2.681
23454W        W91672   1.880   5.334   1.728
23455W        W91673   9.574  21.156   4.996
23456W        W91674  43.085   1.496   3.729
23457W        W91675  34.342  40.730  11.105
23458W        W91676  24.117  27.525   1.915
23459W        W91677  19.557  10.175  12.387
23460W        W91678  40.767  35.098   2.792
23461W        W91679   9.259   0.401   2.125
23462W        W91680  15.311  30.924  14.506
23463W        W91681  11.449  35.085  12.190
23464W        W91682  33.814  44.261  14.848
23465W        W91683   5.232   1.659  12.021
23466W        W91684  12.570  23.671  14.203
23467W        W91685  44.539  18.605   3.365
23468W        W91686   5.230  28.648   4.625
23469W        W91687  19.455  17.534  11.742
23470W        W91688  19.506  44.964   0.078
23471W        W91689   1.759   4.157   2.803
23472W        W91690   1.449  29.030  13.329
23473W        W91691  40.787  25.537   2.885
23474W        W91692   2.698  36.340  13.440
23475W        W91693   5.254   4.831   3.553
23476W        W91694   8.633  34.425   4.882
23477W        W91695  25.951   7.836   4.269
23478W        W91696  43.280  28.905   3.844
23479W        W91697  41.229  23.989  14.112
23480W        W91698  39.556  41.192   0.516
23481W        W91699   9.395  21.984  13.535
23482W        W91700  26.079  29.849   4.759
23483W        W91701  34.852  13.196  11.626
23484W        W91702  25.671   5.225  11.155
23485W        W91703  19.340  11.400   4.578
23486W        W91704  18.557  25.540  14.505
23487W        W91705   6.117  13.690   2.297
23488W        W91706   2.211  44.182  12.143
23489W        W91707   4.020  37.856  14.930
23490W        W91708  34.955   1.940  11.023
23491W        W91709  10.011  14.588  11.670
23492W        W91710  17.318  29.175   1.365
23493W        W91711  10.832  20.303   3.036
23494W        W91712  32.264   1.211  11.001
23495W        W91713  24.102  31.362  14.495
23496W        W91714  40.467  33.966   3.742
23497W        W91715  36.929  21.192   3.063
23498W        W91716  21.552  28.471  13.869
23499W        W91717   0.265  24.431  12.892
23500W        W91718  34.368   6.904  14.391
23501W        W91719  33.823  26.225  11.185
23502W        W91720  35.167  22.687  10.760
23503W        W91721  18.177   9.130  12.534
23504W        W91722   0.862  34.913   2.749
23505W        W91723  24.986  43.532   3.348
23506W        W91724  14.763  17.775  14.875
23507W        W91725  42.804  39.902   0.405
23508W        W91726   0.615  22.878   4.213
23509W        W91727  18.310  38.405   1.879
23510W        W91728  40.976   0.054  10.670
23511W        W91729  10.798  42.519  14.409
23512W        W91730   9.318  35.453   4.585
23513W        W91731   6.351   6.627   4.324
23514W        W91732   4.547   8.746   1.919
23515W        W91733  16.655  28.972   0.739
23516W        W91734  41.514  21.716   3.132
23517W        W91735  24.860  14.540   1.570
23518W        W91736   7.274  37.819   0.502
23519W        W91737  24.101  19.709  12.446
23520W        W91738   8.972   6.892  14.715
23521W        W91739  25.659  22.962  14.479
23522W        W91740  33.488   5.675  14.692
23523W        W91741  36.084  25.036   4.600
23524W        W91742  34.539  19.108  13.938
23525W        W91743  21.587  38.718   3.354
23526W        W91744  32.274  11.835   2.254
23527W        W91745  38.041   7.977  14.463
23528W        W91746  11.567  34.266   4.049
23529W        W91747  34.013  13.667   3.245
23530W        W91748  14.546  21.015   3.703
23531W        W91749  20.814  24.532   2.186
23532W        W91750  41.838  29.534   1.960
23533W        W91751  10.647  27.688  12.526
23534W        W91752  34.994  35.138   2.649
23535W        W91753  41.472  39.554   0.877
23536W        W91754  16.302  37.580  13.853
23537W        W91755  41.380  19.208   0.802
23538W        W91756   0.320  11.800  14.034
23539W        W91757   4.990   5.816   1.627
23540W        W91758  20.010   2.280   4.964
23541W        W91759  36.677  34.606   5.161
23542W        W91760   4.367  26.616   2.206
23543W        W91761  17.573  24.320   0.308
23544W        W91762  41.137  14.758   1.808
23545W        W91763  17.074  19.747   1.380
23546W        W91764  18.954  20.323  11.168
23547W        W91765  24.032  27.729   4.445
23548W        W91766  16.128  26.849  14.974
23549W        W91767   2.242   8.700   3.048
23550W        W91768   7.756  43.983   3.755
23551W        W91769  25.578  28.968   0.063
23552W        W91770  19.051  19.052  14.511
23553W        W91771   9.288  29.459   1.950
23554W        W91772  44.012  35.871   4.984
23555W        W91773  35.853   4.996   0.732
23556W        W91774  19.244  35.305   4.612
23557W        W91775  30.560  40.227   0.634
23558W        W91776  24.574  12.104  10.827
23559W        W91777  19.656  39.085   2.628
23560W        W91778  10.903  41.307  10.484
23561W        W91779  39.134  17.344   3.741
23562W        W91780   5.655  18.733  12.072
23563W        W91781  32.603  18.692  12.616
23564W        W91782   3.313  20.522   0.065
23565W        W91783   4.696  35.979   3.367
23566W        W91784  12.121  31.263  10.727
23567W        W91785  19.051  41.192  11.442
23568W        W91786   2.300  30.751   4.137
23569W        W91787  11.092  23.529  11.174
23570W        W91788  22.785   0.856   2.781
23571W        W91789  37.663  23.531  13.413
23572W        W91790   9.376  10.772   3.070
23573W        W91791  28.608   4.695  14.103
23574W        W91792  37.982  39.445   1.670
23575W        W91793  14.187   9.610   2.366
23576W        W91794  38.050  11.095  11.032
23577W        W91795  28.293   5.979  13.982
23578W        W91796   7.156  16.611   2.090
23579W        W91797  30.721  15.198   1.798
23580W        W91798  15.042  12.831  12.423
23581W        W91799  16.816   9.408   0.869
23582W        W91800  32.598  31.576  10.863
23583W        W91801  23.479  30.066   4.877
23584W        W91802   9.741  11.165   3.872
23585W        W91803  40.068  33.230  11.508
23586W        W91804  11.993  35.934   0.897
23587W        W91805  26.930  39.330  13.884
23588W        W91806   8.404   4.426  13.911
23589W        W91807  20.498  30.165  14.035
23590W        W91808   8.123  17.458   2.698
23591W        W91809  28.690   5.631  13.906
23592W        W91810  19.857  11.619  11.850
23593W        W91811   0.542  26.974   0.269
23594W        W91812  12.711  37.096  12.122
23595W        W91813  41.838   1.344   3.675
23596W        W91814   2.994  32.667  14.904
23597W        W91815  14.770  43.781  14.428
23598W        W91816  44.966   4.087   0.757
23599W        W91817   5.212  28.056   3.664
23600W        W91818  40.580  44.925  12.316
23601W        W91819  31.506  36.220  10.876
23602W        W91820  31.718  43.235  13.015
23603W        W91821  21.313  17.678   2.395
23604W        W91822  24.666  42.798  12.532
23605W        W91823  15.057   8.840   1.764
23606W        W91824  33.039  22.543  12.408
23607W        W91825  29.122  19.461  13.230
23608W        W91826   8.776  10.605  10.749
23609W        W91827  31.175  16.965  13.488
23610W        W91828  20.387  21.596   1.807
23611W        W91829  24.004   8.289  14.012
23612W        W91830  13.106   2.935   1.138
23613W        W91831  14.001   8.734   2.674
23614W        W91832  24.110   0.385  11.731
23615W        W91833  16.972  21.137   5.061
23616W        W91834  13.744  38.930   4.169
23617W        W91835  39.440  16.774   2.615
23618W        W91836  43.943  11.603  12.962
23619W        W91837  18.297   0.730  11.578
23620W        W91838  42.919   1.819   2.419
23621W        W91839  33.563  39.839   1.758
23622W        W91840  16.461  28.842   2.281
23623W        W91841  40.832   6.716  11.130
23624W        W91842   1.894  14.440   9.907
23625W        W91843  23.533  40.607   3.168
23626W        W91844  24.986  39.026  11.462
23627W        W91845  34.594  22.745  12.477
23628W        W91846  37.392  14.176  13.078
23629W        W91847  29.739  21.231   3.112
23630W        W91848  12.253  37.458   3.754
23631W        W91849  31.358  28.605   0.278
23632W        W91850  26.623  22.218   3.702
23633W        W91851   1.707  41.741  12.573
23634W        W91852  25.611  21.616  10.126
23635W        W91853  27.889   4.926   0.293
23636W        W91854  36.879  26.290   2.528
23637W        W91855  30.534  16.632   1.779
23638W        W91856  38.772  35.386  12.018
23639W        W91857   3.320  35.067  12.934
23640W        W91858   9.308  11.140   2.706
23641W        W91859   0.752   6.366  12.047
23642W        W91860  26.178  10.880  11.549
23643W        W91861  36.636  13.319   0.767
23644W        W91862  11.804  28.589   3.117
23645W        W91863  12.153  10.593   2.733
23646W        W91864   0.215   3.903   3.774
23647W        W91865  36.387  26.451   2.644
23648W        W91866  32.591  31.920   4.682
23649W        W91867  19.777   2.208   3.649
23650W        W91868  36.914  10.369   2.337
23651W        W91869  16.256  38.092  14.042
23652W        W91870  44.049  38.029   4.391
23653W        W91871  38.109  33.735   0.501
23654W        W91872  28.363   5.337   1.739
23655W        W91873  42.074   6.641  12.452
23656W        W91874   7.918  40.453   3.982
23657W        W91875  27.514  21.971  11.489
23658W        W91876  24.055  15.633   2.721
23659W        W91877  13.621   2.953   1.350
23660W        W91878  22.103   9.964  11.375
23661W        W91879  28.677  36.817   3.605
23662W        W91880  13.262  31.313  12.041
23663W        W91881  37.157  34.463   0.831
23664W        W91882  38.570  31.388  12.456
23665W        W91883  12.441   0.702  13.089
23666W        W91884  18.387  22.036   2.481
23667W        W91885   7.793  21.707   4.839
23668W        W91886  11.728  14.267   0.970
23669W        W91887   3.339   0.875  12.481
23670W        W91888  24.164   0.617   3.689
23671W        W91889  28.869   5.436   4.583
23672W        W91890  32.218  35.951   1.299
23673W        W91891  29.657  43.304   3.760
23674W        W91892  26.102  41.316   4.010
23675W        W91893  16.510  39.659   1.282
23676W        W91894  29.884  17.372   3.060
23677W        W91895   2.337  12.898   2.788
23678W        W91896  11.419  27.579  12.089
23679W        W91897  18.058  12.318   2.734
23680W        W91898  37.331  15.880  13.927
23681W        W91899  25.485   2.209   2.734
23682W        W91900   5.410   9.385   0.535
23683W        W91901  22.669  14.205   1.100
23684W        W91902  13.093  38.841  11.429
23685W        W91903  44.732  13.629  14.414
23686W        W91904   6.267  20.555  14.961
23687W        W91905  40.984  17.727   1.387
23688W        W91906  28.697  20.360   1.371
23689W        W91907  25.516   4.645   1.015
23690W        W91908  38.915  42.370  11.514
23691W        W91909   5.677  39.811   4.165
23692W        W91910  34.381   7.354   4.154
23693W        W91911  41.166  28.044  12.885
23694W        W91912  16.657  37.122  14.263
23695W        W91913   3.030  21.061   0.420
23696W        W91914  43.699  22.192  14.802
23697W        W91915  33.121  38.748  13.235
23698W        W91916   6.832  11.567   2.221
23699W        W91917  22.133  29.126   2.709
23700W        W91918   6.471  14.364  14.714
23701W        W91919  15.097  17.717  12.547
23702W        W91920  30.055  25.180   0.985
23703W        W91921  31.321  18.187   0.398
23704W        W91922  18.072  28.607   0.373
23705W        W91923  10.452   9.804   1.880
23706W        W91924   6.109  20.213   3.170
23707W        W91925  12.143  42.310  11.668
23708W        W91926   9.721  31.530   2.834
23709W        W91927   4.435  17.400  14.816
23710W        W91928  10.271   9.352   1.701
23711W        W91929   9.936  26.063  13.910
23712W        W91930  28.355   5.715  11.682
23713W        W91931  40.366   7.127  11.639
23714W        W91932  21.629  24.070   3.206
23715W        W91933  39.966   0.691   2.896
23716W        W91934   3.537  23.565  14.053
23717W        W91935  19.251  22.036  12.370
23718W        W91936  38.826  10.450   3.216
23719W        W91937  37.031   9.101  14.105
23720W        W91938  21.098   5.960  10.637
23721W        W91939   1.813  30.621  10.672
23722W        W91940  33.847  31.563  14.050
23723W        W91941  22.647  34.155  12.553
23724W        W91942  30.412  44.032   2.750
23725W        W91943  22.999  15.470   1.279
23726W        W91944  40.479  12.687   1.167
23727W        W91945  28.734  32.400  13.439
23728W        W91946  37.357  35.637   2.885
23729W        W91947   7.313  43.034  14.938
23730W        W91948   8.119   0.556   4.192
23731W        W91949  11.298  35.151   3.857
23732W        W91950  22.259  19.366  12.420
23733W        W91951  38.957  28.477  14.953
23734W        W91952  44.271  23.209  14.049
23735W        W91953  37.910  10.414   4.321
23736W        W91954  34.149  26.378  10.763
23737W        W91955   4.850  36.317   0.274
23738W        W91956  28.477  29.126  13.762
23739W        W91957  30.332  37.354  11.989
23740W        W91958  38.560  28.770  13.454
23741W        W91959  13.955  16.770   3.162
23742W        W91960  12.605  11.869   2.678
23743W        W91961  33.306  31.253  14.991
23744W        W91962  14.571  21.025  14.477
23745W        W91963   5.750  35.683   1.185
23746W        W91964  37.122   1.817  13.182
23747W        W91965  28.116  11.725   9.532
23748W        W91966   5.747   5.440   0.929
23749W        W91967   3.584  37.420   0.759
23750W        W91968  24.616   4.687  10.726
23751W        W91969  34.218   2.844   0.377
23752W        W91970  22.027  32.538  13.180
23753W        W91971  30.118  29.474   4.609
23754W        W91972  41.859   0.689  10.756
23755W        W91973  34.971  31.143  13.311
23756W        W91974  30.183  33.127  14.786
23757W        W91975   6.143  35.051  11.503
23758W        W91976  34.429  23.985   1.635
23759W        W91977  23.590  13.384   1.723
23760W        W91978  24.488  14.315   1.225
23761W        W91979  34.038   6.404  12.518
23762W        W91980  15.917   7.816   0.659
23763W        W91981  14.880   4.727  13.974
23764W        W91982  42.503  30.571   2.732
23765W        W91983  20.234  31.907  12.034
23766W        W91984  40.340  11.845   2.388
23767W        W91985  28.613  29.591  13.531
23768W        W91986  15.090  34.550   2.454
23769W        W91987  16.773  21.675  11.070
23770W        W91988  31.705  41.299  13.768
23771W        W91989  23.757  25.685   0.964
23772W        W91990  26.237  27.518   1.713
23773W        W91991  39.777  12.138  11.685
23774W        W91992  42.288   2.977  11.079
23775W        W91993  20.171  44.814  14.701
23776W        W91994  12.381  22.677  10.670
23777W        W91995  21.390  16.009   4.898
23778W        W91996  11.319  25.378  13.778
23779W        W91997  28.904  31.200  12.317
23780W        W91998  19.835  34.436  12.408
23781W        W91999   9.202  31.081   3.376
23782W        W92000  13.857  15.335   1.870
23783W        W92001  36.022  22.323   3.472
23784W        W92002   5.096  25.044  10.737
23785W        W92003  17.564   3.296  14.758
23786W        W92004  27.637  16.083   3.645
23787W        W92005  41.704  37.867   1.165
23788W        W92006  43.803  26.121   0.897
23789W        W92007  28.465  34.944  11.187
23790W        W92008  17.704  29.371  10.448
23791W        W92009  31.136  30.261   0.888
23792W        W92010  33.502  41.010   2.360
23793W        W92011  24.892  19.786   4.230
23794W        W92012  26.796  44.254   9.802
23795W        W92013   1.616  14.214  12.071
23796W        W92014  26.857  26.281  11.827
23797W        W92015  18.743  38.899  14.846
23798W        W92016  10.085  16.575  11.000
23799W        W92017   0.008  25.575   2.267
23800W        W92018  22.126  29.065   4.305
23801W        W92019  43.671  30.201   2.432
23802W        W92020  33.129  42.534  13.173
23803W        W92021  38.517   9.938   3.659
23804W        W92022  29.109  33.338  13.074
23805W        W92023  23.965  42.561  13.852
23806W        W92024  13.183  16.216  14.135
23807W        W92025  31.625  31.466  14.510
23808W        W92026   7.435  42.118  11.203
23809W        W92027  17.579  19.899  10.707
23810W        W92028   2.193  11.400   0.021
23811W        W92029   3.134  31.430   3.303
23812W        W92030  25.852  22.341   0.442
23813W        W92031  34.887  15.890  14.613
23814W        W92032   2.702   4.695   0.358
23815W        W92033  40.003  44.254   0.206
23816W        W92034  31.711   3.914   4.065
23817W        W92035   1.842  28.088  11.646
23818W        W92036   0.254  16.695  13.840
23819W        W92037  28.512  29.109  11.502
23820W        W92038  33.447  10.318  11.484
23821W        W92039  21.592  18.852  12.012
23822W        W92040  30.916  16.388   3.422
23823W        W92041  15.905  28.646   4.079
23824W        W92042  22.387  33.079   4.887
23825W        W92043  18.631  38.405  12.870
23826W        W92044  33.893  23.754  12.112
23827W        W92045  36.886  12.167  13.364
23828W        W92046  21.369  36.618  12.945
23829W        W92047   8.417  11.355  12.444
23830W        W92048   1.431  33.860  10.663
23831W        W92049   2.873  42.539   3.780
23832W        W92050  36.147  33.043  14.333
23833W        W92051  16.652  11.758  10.665
23834W        W92052   8.899  43.842   4.306
23835W        W92053   7.171  10.240   3.797
23836W        W92054  31.198  12.818   1.323
23837W        W92055  29.170  22.448  11.506
23838W        W92056  44.004  35.471  11.623
23839W        W92057  38.923   9.652   1.227
23840W        W92058  24.355  22.880  11.645
23841W        W92059  31.845  23.281   4.110
23842W        W92060  31.116  38.065   3.329
23843W        W92061  25.289  39.098  11.045
23844W        W92062  38.155  26.548  11.719
23845W        W92063  38.110  32.174   4.562
23846W        W92064   6.171  29.517  14.841
23847W        W92065  40.426  40.321   1.301
23848W        W92066   3.405   3.696   4.239
23849W        W92067   1.353  33.374   0.312
23850W        W92068  22.173  12.804  13.790
23851W        W92069   2.773   2.871   0.938
23852W        W92070  20.005   3.613  14.404
23853W        W92071  25.651  26.696   3.720
23854W        W92072  28.356  37.834  13.862
23855W        W92073  28.871   4.839   1.874
23856W        W92074  31.160  42.917  13.903
23857W        W92075  38.076   2.392   2.645
23858W        W92076  14.507  18.280   3.631
23859W        W92077  33.601  30.506   3.140
23860W        W92078  43.471  41.373  12.156
23861W        W92079  26.217  31.031  14.772
23862W        W92080  35.007  35.672  14.065
23863W        W92081  27.932  21.795   4.734
23864W        W92082  12.505  11.603  11.516
23865W        W92083  24.267   1.606  14.930
23866W        W92084   1.948  28.258   1.233
23867W        W92085   4.153  43.708   2.709
23868W        W92086  38.637  39.471   0.008
23869W        W92087   1.307   7.954  13.758
23870W        W92088  21.308  11.269   2.179
23871W        W92089  22.082  43.053  13.932
23872W        W92090  42.225  41.793   4.992
23873W        W92091   5.642  27.079  11.850
23874W        W92092  10.143  12.677  12.870
23875W        W92093   1.679   7.906  11.148
23876W        W92094  18.517  44.416  12.810
23877W        W92095  22.112  30.123   0.788
23878W        W92096  13.512  26.746   1.189
23879W        W92097  32.164  21.228   0.808
23880W        W92098   8.136  38.370   2.318
23881W        W92099  13.776  37.342   4.918
23882W        W92100  23.196  37.951   2.388
23883W        W92101  37.380   2.866   3.764
23884W        W92102  11.294  30.676  10.614
23885W        W92103  30.887  19.633   9.790
23886W        W92104  18.043  43.419   2.693
23887W        W92105  37.862  11.662   2.175
23888W        W92106  21.042   3.386   2.292
23889W        W92107  34.417  39.306  12.761
23890W        W92108  18.001  37.718  14.300
23891W        W92109   4.675  44.940  11.347
23892W        W92110   0.013   3.864   4.703
23893W        W92111  27.016  23.665   0.736
23894W        W92112   8.403  18.616  11.950
23895W        W92113  19.341  22.677   0.189
23896W        W92114  29.029  10.238  10.182
23897W        W92115  20.980  32.104  12.488
23898W        W92116   9.302   0.866   2.387
23899W        W92117  14.202  38.206  13.401
23900W        W92118   0.459  14.226   1.828
23901W        W92119   5.600  25.450  13.371
23902W        W92120  44.792  30.743   2.739
23903W        W92121  34.401  29.113  14.960
23904W        W92122  17.309  21.165   2.766
23905W        W92123  28.759  43.041   2.857
23906W        W92124  24.515  25.690  12.506
23907W        W92125  25.276  14.131   3.670
23908W        W92126  13.155   2.795  13.361
23909W        W92127  18.139   7.115  12.306
23910W        W92128  42.823  28.524  10.647
23911W        W92129  17.850   0.596  14.236
23912W        W92130  23.129   1.509  12.610
23913W        W92131  37.889  27.447  11.635
23914W        W92132  17.406  20.547  12.901
23915W        W92133  22.159   0.766  13.514
23916W        W92134  13.685  32.652  11.887
23917W        W92135  18.211   2.951  10.709
23918W        W92136  39.728  10.274   3.932
23919W        W92137  32.654  14.621   1.038
23920W        W92138   1.632  10.853   0.853
23921W        W92139  23.632  26.469  11.397
23922W        W92140  12.880   5.792  10.916
23923W        W92141  32.952   1.833   0.912
23924W        W92142  25.933  11.041  13.540
23925W        W92143  18.217  33.798   1.794
23926W        W92144  42.730  31.963  13.893
23927W        W92145  18.740  42.557   0.974
23928W        W92146  16.671  12.277   2.179
23929W        W92147  26.384  12.290   2.413
23930W        W92148   5.128  40.023  13.820
23931W        W92149  33.921  31.015   2.271
23932W        W92150  17.604  27.537   3.254
23933W        W92151  16.509  17.259  10.059
23934W        W92152  43.078  10.596   1.002
23935W        W92153   0.487  13.557   1.111
23936W        W92154  39.319  28.990  14.010
23937W        W92155  24.214  29.596  13.835
23938W        W92156  17.608  17.892   4.639
23939W        W92157  41.960  30.478   4.592
23940W        W92158  24.227  25.757  13.442
23941W        W92159  20.861  36.350   2.442
23942W        W92160   5.257  15.280   4.570
23943W        W92161  12.870  28.220  13.673
23944W        W92162   3.482  12.432   1.438
23945W        W92163  20.059  16.127   4.708
23946W        W92164  40.259  43.216  13.096
23947W        W92165  32.046  12.045   0.204
23948W        W92166  14.831  28.701   1.639
23949W        W92167  42.784   9.116   5.125
23950W        W92168  30.019   9.897  10.656
23951W        W92169  38.229  12.323  14.518
23952W        W92170  34.506  10.768  13.842
23953W        W92171   8.089  21.396   2.030
23954W        W92172  43.532  28.098  11.907
23955W        W92173  19.196  42.745  12.488
23956W        W92174  10.085   9.807  14.469
23957W        W92175  44.573   5.013  12.089
23958W        W92176   3.087   4.458  11.099
23959W        W92177  22.410   8.730  12.790
23960W        W92178  38.946  20.308  14.421
23961W        W92179  39.036   9.645  14.408
23962W        W92180  23.709  37.598  14.383
23963W        W92181  37.806  30.574   3.224
23964W        W92182   5.962  18.767   3.261
23965W        W92183   1.762  23.541  14.595
23966W        W92184   5.201  26.782  13.973
23967W        W92185  13.127  36.364  14.061
23968W        W92186  24.202  18.097  13.072
23969W        W92187  22.525  20.946  11.066
23970W        W92188  28.936  18.745   1.436
23971W        W92189  34.853  10.719  10.600
23972W        W92190   3.439  23.382  10.579
23973W        W92191  42.461  11.120  11.117
23974W        W92192  18.215   9.601   3.707
23975W        W92193  12.792  21.774  12.028
23976W        W92194  27.952  31.884   0.926
23977W        W92195  35.433  25.005  13.024
23978W        W92196  12.240  26.664  13.578
23979W        W92197   9.359  15.195  14.415
23980W        W92198  41.526   6.648  14.224
23981W        W92199  17.314   4.901   2.791
23982W        W92200  13.519  18.158   5.000
23983W        W92201   9.173  19.237   2.786
23984W        W92202  10.098  26.427  12.075
23985W        W92203   3.605  42.454   2.208
23986W        W92204  14.844  25.988  12.155
23987W        W92205   9.725  41.814   4.413
23988W        W92206  21.693   5.552   3.190
23989W        W92207  24.138  36.002  11.682
23990W        W92208  41.808  23.436  11.139
23991W        W92209   0.028  22.092  14.489
23992W        W92210   7.163   3.755  10.815
23993W        W92211  23.972  18.035  13.525
23994W        W92212   0.864  28.443   4.512
23995W        W92213  43.519  18.703   0.462
23996W        W92214   9.939  13.061   3.237
23997W        W92215  35.799  29.191   1.797
23998W        W92216  33.714   5.433   5.105
23999W        W92217  26.541  35.617  13.678
24000W        W92218  28.577  19.061  11.523
24001W        W92219  12.781  18.009   3.928
24002W        W92220  27.498  25.088  13.377
24003W        W92221  18.718   7.881  13.777
24004W        W92222  17.600  27.709   2.683
24005W        W92223   9.954   7.222  13.203
24006W        W92224   9.674  35.406   0.275
24007W        W92225  12.816  14.571   0.177
24008W        W92226  13.334  31.302   3.674
24009W        W92227  17.213  41.562   5.122
24010W        W92228  25.951  28.766  12.445
24011W        W92229  27.644  20.069  12.144
24012W        W92230  22.633   7.704  11.639
24013W        W92231   9.903  23.220   2.802
24014W        W92232  29.397  23.949  11.599
24015W        W92233   3.210  43.799  11.674
24016W        W92234  44.679  22.438  14.321
24017W        W92235  30.398   5.188  14.047
24018W        W92236   8.162  15.235  11.020
24019W        W92237  30.978   4.584  12.420
24020W        W92238  41.449  23.484  12.869
24021W        W92239   1.914  24.071   3.383
24022W        W92240  15.066  14.868  14.375
24023W        W92241  25.537  34.180   3.841
24024W        W92242  10.432  17.023   0.408
24025W        W92243  39.840   2.017  14.785
24026W        W92244  24.896  17.824   0.822
24027W        W92245  41.222  22.153  14.258
24028W        W92246   4.166   2.708  13.235
24029W        W92247  30.731  28.552  11.041
24030W        W92248  28.682  27.449  13.807
24031W        W92249  30.488   1.854  14.179
24032W        W92250   6.234  41.490   4.144
24033W        W92251  12.701  16.166  13.532
24034W        W92252  12.757   2.769  13.004
24035W        W92253  20.955  32.454   4.954
24036W        W92254  42.200  30.337  12.870
24037W        W92255  17.061  26.068   1.834
24038W        W92256  20.112  28.060  12.464
24039W        W92257  14.689  39.581   0.046
24040W        W92258  34.013  21.523  12.439
24041W        W92259  22.737  28.119  12.757
24042W        W92260  12.372  20.124   2.676
24043W        W92261  23.196   8.755   4.796
24044W        W92262  25.006  25.093  12.037
24045W        W92263  34.344  35.191   1.290
24046W        W92264   7.804   6.812  12.515
24047W        W92265   8.344   9.262  11.531
24048W        W92266  23.620  11.676   2.403
24049W        W92267  26.105  25.156  10.119
24050W        W92268   9.101  31.227   4.355
24051W        W92269   4.952  17.056  11.603
24052W        W92270  18.122  37.151   4.140
24053W        W92271   2.722  19.114   3.636
24054W        W92272  21.146  15.868   2.813
24055W        W92273  21.504   5.640  13.506
24056W        W92274  30.426   2.252   3.293
24057W        W92275  25.679   0.813  14.711
24058W        W92276  34.114   3.036   1.367
24059W        W92277  24.695   5.127  12.886
24060W        W92278  15.515   1.910  13.031
24061W        W92279  24.640   7.191  10.961
24062W        W92280  31.989  33.203   0.929
24063W        W92281  23.095  44.540  13.484
24064W        W92282  15.454  24.262  13.016
24065W        W92283  44.345  22.879  11.223
24066W        W92284  43.044   1.826   4.823
24067W        W92285  43.503  35.871   2.159
24068W        W92286  44.998   4.207   3.219
24069W        W92287   7.621   0.788  13.464
24070W        W92288  37.658  30.921  11.173
24071W        W92289  38.255   8.315  12.403
24072W        W92290  12.184  26.431   0.018
24073W        W92291  15.320  36.363   2.764
24074W        W92292  39.663   3.941  14.804
24075W        W92293  44.018  41.927  11.153
24076W        W92294  43.593   1.287  11.180
24077W        W92295  35.546  34.112  11.684
24078W        W92296  30.704  22.044   1.329
24079W        W92297  13.631  12.151   3.183
24080W        W92298  14.429  36.568  13.308
24081W        W92299  18.231   3.355   1.929
24082W        W92300  37.799  32.155  14.267
24083W        W92301  27.430  24.248  12.042
24084W        W92302  13.427   6.459   3.427
24085W        W92303  44.404  29.415  10.321
24086W        W92304   5.646  41.161   2.834
24087W        W92305  27.485  43.473  11.757
24088W        W92306  18.040   0.388   3.664
24089W        W92307  30.255  42.892   4.163
24090W        W92308   5.249  16.298   3.441
24091W        W92309  31.369  18.811   0.947
24092W        W92310  36.703  18.383   3.017
24093W        W92311  14.520  20.063  10.763
24094W        W92312  26.679  16.745  10.626
24095W        W92313   7.352   5.703   0.692
24096W        W92314  20.693  20.513   2.378
24097W        W92315  40.890  20.629   2.285
24098W        W92316  13.367   4.308   0.312
24099W        W92317  14.369  37.614   0.845
24100W        W92318  33.139  20.993  11.414
24101W        W92319  21.515  29.875   4.213
24102W        W92320  38.477  11.312   2.205
24103W        W92321  44.512   4.636   1.753
24104W        W92322  12.382  32.572  11.026
24105W        W92323  39.391  13.387   3.218
24106W        W92324  40.602  14.643   0.920
24107W        W92325  36.585  25.626   4.777
24108W        W92326   8.444  37.636  14.375
24109W        W92327  43.836   5.832  10.782
24110W        W92328   4.143  31.121  13.184
24111W        W92329   4.372   0.020   1.838
24112W        W92330  44.762  22.529   2.808
24113W        W92331   5.982   1.233  13.813
24114W        W92332  34.409  26.968   2.156
24115W        W92333   4.103  15.454   3.717
24116W        W92334  25.633  19.637   1.756
24117W        W92335  22.157  41.729   4.672
24118W        W92336  42.835   9.183   3.547
24119W        W92337   7.293  24.513  11.398
24120W        W92338   6.120   2.455   3.225
24121W        W92339  40.513  13.100   2.729
24122W        W92340  14.320  13.296   1.457
24123W        W92341  25.962   4.805   0.792
24124W        W92342  43.305  35.143   4.224
24125W        W92343  35.067  37.288  12.537
24126W        W92344  41.157  11.401  11.620
24127W        W92345  33.081   7.870  12.798
24128W        W92346  10.821  25.588   4.946
24129W        W92347  29.219  40.680  12.519
24130W        W92348   6.652  25.024  14.754
24131W        W92349  24.602  31.023   2.919
24132W        W92350  40.988  43.472  12.427
24133W        W92351   3.900  14.016  11.474
24134W        W92352  14.091  25.209  10.754
24135W        W92353  21.790  11.039  13.877
24136W        W92354  44.096  20.619  11.204
24137W        W92355   6.944  29.517   1.239
24138W        W92356   7.119   9.405   2.626
24139W        W92357  34.995  25.705  11.885
24140W        W92358  37.916  42.588   3.692
24141W        W92359  44.859  17.378   4.124
24142W        W92360  38.286  10.357  10.926
24143W        W92361   8.669  14.736  14.890
24144W        W92362  17.704  21.527   2.253
24145W        W92363  38.357  18.098   2.805
24146W        W92364  32.199  35.032  13.560
24147W        W92365  34.844  24.644   4.891
24148W        W92366  25.801  17.028  11.146
24149W        W92367  30.510  38.505  11.074
24150W        W92368  20.607   0.595   4.916
24151W        W92369  17.276  32.329  14.290
24152W        W92370  39.884  10.431   0.253
24153W        W92371   2.923  27.863   2.168
24154W        W92372   7.452  21.985   4.050
24155W        W92373  44.064  10.617   3.583
24156W        W92374  38.521   9.962   2.776
24157W        W92375  19.341   1.781   2.178
24158W        W92376  38.339  13.114  12.125
24159W        W92377  28.214  21.104   1.022
24160W        W92378   5.065  42.790  10.689
24161W        W92379  42.336  35.170   2.821
24162W        W92380  11.824  27.914   2.437
24163W        W92381  11.681  21.789  13.701
24164W        W92382   8.351  27.709  13.474
24165W        W92383   8.754   8.810  13.931
24166W        W92384  43.502  33.126  13.544
24167W        W92385  29.288  23.531  13.302
24168W        W92386  35.095   3.151   0.018
24169W        W92387  21.545  41.814   0.013
24170W        W92388   1.506  19.628  12.517
24171W        W92389  10.662  41.493   0.771
24172W        W92390  44.602  26.971   1.785
24173W        W92391  15.985  17.215  10.978
24174W        W92392  24.158  35.544  12.877
24175W        W92393   6.480  37.915  11.643
24176W        W92394   9.279  12.657  11.586
24177W        W92395  21.493  26.019   0.045
24178W        W92396   7.232  26.196  12.037
24179W        W92397   2.374  36.210   4.580
24180W        W92398  19.624  28.142  12.944
24181W        W92399  41.998  27.565   2.860
24182W        W92400   2.001  31.603  11.030
24183W        W92401  26.937  30.105  13.872
24184W        W92402  41.915  39.879   1.387
24185W        W92403  25.432  22.174  12.045
24186W        W92404   2.341  24.566   0.670
24187W        W92405  20.092   4.305   4.145
24188W        W92406  36.705  32.450  12.492
24189W        W92407  10.882  12.213   1.467
24190W        W92408   7.046   8.619   2.234
24191W        W92409  10.581  43.590   1.823
24192W        W92410  43.500  12.712  14.736
24193W        W92411  16.225   1.094   1.051
24194W        W92412  20.438  18.232  11.624
24195W        W92413  43.202  34.553   1.029
24196W        W92414  22.503  29.114   2.375
24197W        W92415  13.213  22.175   1.273
24198W        W92416  11.140   8.100   0.866
24199W        W92417  19.285  37.823   3.726
24200W        W92418   8.859  36.909  11.570
24201W        W92419  26.136   3.939  12.507
24202W        W92420  23.857  13.166  11.929
24203W        W92421  16.619  29.442   0.954
24204W        W92422  44.187  13.294  11.958
24205W        W92423   0.480  17.800  12.165
24206W        W92424  15.866  12.023  10.203
24207W        W92425  19.737   9.748   3.753
24208W        W92426  22.753  15.601  10.196
24209W        W92427  31.552   3.088   4.579
24210W        W92428   6.787  28.640   4.405
24211W        W92429  10.235   1.271   1.741
24212W        W92430  27.427  26.054   4.601
24213W        W92431  12.560  30.845   3.887
24214W        W92432  37.431  43.458   2.106
24215W        W92433  19.196  16.363  13.402
24216W        W92434  36.368  16.712   2.889
24217W        W92435   5.359  29.417  14.341
24218W        W92436  29.901  13.413   1.380
24219W        W92437  41.362  31.403  13.980
24220W        W92438   5.490  27.224   0.245
24221W        W92439  14.069   6.632   4.110
24222W        W92440   5.204  22.415  11.538
24223W        W92441  13.777  10.426   0.858
24224W        W92442  10.865  10.357  12.155
24225W        W92443  38.081  11.354   0.762
24226W        W92444  42.800   7.182  14.269
24227W        W92445  25.525  25.965   1.353
24228W        W92446  30.345  20.057   3.433
24229W        W92447  44.786  44.883  12.420
24230W        W92448  32.638  30.969   1.791
24231W        W92449  28.736  43.926   2.096
24232W        W92450  29.987  32.679   2.786
24233W        W92451   6.194  14.137   2.605
24234W        W92452  25.491  21.266   3.712
24235W        W92453  42.777  22.683   0.923
24236W        W92454  29.533   9.670  10.667
24237W        W92455  37.849   3.473  13.875
24238W        W92456  44.721  36.571  12.092
24239W        W92457  44.846  15.850  11.614
24240W        W92458  22.488  43.241   3.376
24241W        W92459  42.381  10.599  11.780
24242W        W92460  13.366   9.567   3.367
24243W        W92461  25.369  26.191   1.795
24244W        W92462  41.989  43.206  11.000
24245W        W92463  33.124  16.851  11.135
24246W        W92464  21.826  21.731   3.023
24247W        W92465  27.614  18.547   1.598
24248W        W92466  12.361  33.035   3.063
24249W        W92467  34.840  31.473   0.853
24250W        W92468  35.965  26.112   2.861
24251W        W92469  27.052  44.758   1.919
24252W        W92470   1.307  27.686   1.664
24253W        W92471  40.013  35.498  11.469
24254W        W92472  28.894  38.894   1.930
24255W        W92473  38.309  29.495   4.193
24256W        W92474  29.525  35.156  14.468
24257W        W92475  17.634  30.825   0.088
24258W        W92476  28.136  32.479  13.353
24259W        W92477  22.070  41.557  10.824
24260W        W92478  38.108   7.292   4.585
24261W        W92479  34.043   9.235  14.358
24262W        W92480   6.213  29.048   9.771
24263W        W92481  10.528  29.487  10.950
24264W        W92482  30.975   2.789   1.315
24265W        W92483  12.356  24.444  13.832
24266W        W92484   3.281  14.902  10.708
24267W        W92485  29.117  35.037   0.411
24268W        W92486   3.309   3.370  11.510
24269W        W92487  26.250  27.062   4.671
24270W        W92488  40.430  13.743  12.634
24271W        W92489  31.014  32.150  10.656
24272W        W92490  44.717   3.268  13.226
24273W        W92491  21.158  38.956  14.875
24274W        W92492  44.323  23.159   1.155
24275W        W92493  44.798  38.436   0.189
24276W        W92494  19.271   5.755   4.116
24277W        W92495   7.322  39.129  13.664
24278W        W92496   9.419  16.291  14.579
24279W        W92497  36.937  35.980  14.872
24280W        W92498   6.436  39.766   4.632
24281W        W92499  27.166   6.055   2.753
24282W        W92500  38.283   7.372   5.074
24283W        W92501   8.955  38.664  12.896
24284W        W92502  19.197   3.959  11.621
24285W        W92503  19.635  18.791   2.145
24286W        W92504  27.334  42.889   2.990
24287W        W92505   3.907  41.039  11.332
24288W        W92506  22.247  16.608   3.614
24289W        W92507  22.047  18.554  13.782
24290W        W92508  27.067  38.575   3.151
24291W        W92509  13.585  29.676   4.780
24292W        W92510   8.628  23.532   0.289
24293W        W92511   6.359   0.217  12.519
24294W        W92512  39.806   5.390   3.137
24295W        W92513  37.460  26.194   0.800
24296W        W92514  43.801  44.795  13.908
24297W        W92515   2.366  20.278   2.250
24298W        W92516  26.260  43.931   2.293
24299W        W92517   5.848  33.464   2.766
24300W        W92518  12.616   6.258   2.454
24301W        W92519  16.292  13.382  11.147
24302W        W92520   0.429  15.094  10.769
24303W        W92521  16.622  28.521   0.983
24304W        W92522  30.423  23.538  12.044
24305W        W92523  22.595  41.932   4.464
24306W        W92524  23.595  15.114  12.618
24307W        W92525  13.100  21.296   2.294
24308W        W92526   0.008  11.076  12.342
24309W        W92527  36.466   2.222   0.849
24310W        W92528  32.373  17.090   0.844
24311W        W92529  42.553  15.126  11.194
24312W        W92530   9.435   0.284   0.756
24313W        W92531  43.866   2.481  14.815
24314W        W92532  32.820  17.611   2.536
24315W        W92533   5.349   5.298   2.328
24316W        W92534  22.676  14.797  12.962
24317W        W92535  18.255   1.776  13.424
24318W        W92536  10.183  29.923  13.002
24319W        W92537  20.647  34.605  11.188
24320W        W92538   3.605  24.807   1.939
24321W        W92539  26.034  44.370   2.132
24322W        W92540  25.253  19.996  11.959
24323W        W92541   1.276  26.695   2.241
24324W        W92542  26.991  35.597  14.948
24325W        W92543  21.158  35.943   4.535
24326W        W92544  40.464   9.185   3.369
24327W        W92545   0.174  13.058   1.944
24328W        W92546  20.831  28.620   3.616
24329W        W92547  17.542  10.957  11.077
24330W        W92548  40.599  20.178   4.546
24331W        W92549  31.011  29.910  14.987
24332W        W92550   2.299  39.543   3.189
24333W        W92551   7.285   7.748  12.018
24334W        W92552  28.204  14.993  14.047
24335W        W92553   7.764   8.157  13.547
24336W        W92554  14.609  32.267   3.844
24337W        W92555   0.484  16.099   3.168
24338W        W92556  33.350   6.782   4.826
24339W        W92557  11.391  32.059   0.403
24340W        W92558  30.064  43.846  14.899
24341W        W92559  41.704   9.893  13.475
24342W        W92560  22.651  25.049   4.572
24343W        W92561  36.775  11.963  11.118
24344W        W92562  10.586  20.515  13.502
24345W        W92563  40.283   4.376   5.073
24346W        W92564  26.515  37.511   1.728
24347W        W92565   4.471  17.183   2.978
24348W        W92566  33.559  33.368   3.149
24349W        W92567  42.805  42.501   0.206
24350W        W92568  31.707  27.541  12.894
24351W        W92569  20.524  42.053   1.939
24352W        W92570  38.153   4.041   3.122
24353W        W92571  36.943  28.894  13.032
24354W        W92572  19.650   9.169   3.194
24355W        W92573  20.823  44.112  12.064
24356W        W92574   8.149   2.618  10.723
24357W        W92575  33.453  33.163   1.050
24358W        W92576  38.516  38.392   1.019
24359W        W92577  31.167  35.371   4.232
24360W        W92578   8.911   9.140   2.335
24361W        W92579  41.761  18.305  13.216
24362W        W92580  37.288   3.575   3.700
24363W        W92581  10.902  15.126   4.487
24364W        W92582   5.673  39.627   1.904
24365W        W92583  38.920  32.326  14.791
24366W        W92584  19.910  32.125  12.414
24367W        W92585  15.615  35.057  11.717
24368W        W92586  35.084   6.686  11.616
24369W        W92587   5.888   7.359  13.148
24370W        W92588  26.897  18.262   3.845
24371W        W92589  43.930  36.073   4.393
24372W        W92590  27.437  35.855  11.043
24373W        W92591  17.683  37.890  11.065
24374W        W92592   1.349  12.661   2.568
24375W        W92593  43.971  13.636  13.792
24376W        W92594   2.755  42.738  12.074
24377W        W92595   7.912  30.442  10.822
24378W        W92596  39.317  17.255  13.529
24379W        W92597  20.127  30.020   2.631
24380W        W92598  34.590  40.750  12.921
24381W        W92599   0.042   4.591   0.795
24382W        W92600  10.589  10.775   1.163
24383W        W92601  22.617  36.228  14.982
24384W        W92602  35.587  28.439   2.246
24385W        W92603  33.711   8.325  11.216
24386W        W92604  32.102  31.643  14.830
24387W        W92605  18.569   6.920  12.512
24388W        W92606  18.650   1.080  11.685
24389W        W92607  23.438  40.564   0.870
24390W        W92608   0.350  14.839   0.277
24391W        W92609  18.800   6.360  14.816
24392W        W92610  12.215  34.823   3.745
24393W        W92611  40.999  41.766  12.999
24394W        W92612   7.803   7.700  14.412
24395W        W92613  28.438  28.568   4.629
24396W        W92614  36.041  24.131   3.567
24397W        W92615  13.571   9.344  10.702
24398W        W92616  41.062  22.566   3.165
24399W        W92617  25.517   8.145   0.729
24400W        W92618  24.167  16.333  12.358
24401W        W92619  32.851  10.418  14.406
24402W        W92620  38.577  11.223   0.866
24403W        W92621  38.580  15.371   3.741
24404W        W92622  16.962  29.013   2.261
24405W        W92623   0.252  13.229  12.072
24406W        W92624   1.385  35.126   4.592
24407W        W92625  20.011  41.046   2.785
24408W        W92626  44.797  37.635  11.221
24409W        W92627  23.673  39.495  14.356
24410W        W92628  37.957   4.635   3.930
24411W        W92629  20.567  27.331   3.199
24412W        W92630  27.656  26.070   1.359
24413W        W92631  23.242  34.077   2.849
24414W        W92632   4.310  40.260   1.768
24415W        W92633   4.311  38.857  12.512
24416W        W92634   3.893  11.863  14.396
24417W        W92635  28.249  11.179   0.981
24418W        W92636  14.595  28.112   0.340
24419W        W92637  13.807  33.078   4.582
24420W        W92638  30.944   1.782   3.850
24421W        W92639  18.114  30.117  10.610
24422W        W92640  29.075  16.283   1.379
24423W        W92641   1.508  26.410  14.749
24424W        W92642  20.142  31.018   0.436
24425W        W92643  17.597  36.103  12.518
24426W        W92644  36.791  32.597   3.068
24427W        W92645  26.456  44.378  10.233
24428W        W92646  17.250  29.666  14.370
24429W        W92647   3.495  10.273  10.496
24430W        W92648  41.362  24.191   4.159
24431W        W92649  19.895  31.598  13.331
24432W        W92650   3.332  42.072   4.531
24433W        W92651  18.067  24.646   1.717
24434W        W92652  10.416  14.112   5.155
24435W        W92653  29.016  43.225   4.097
24436W        W92654   6.922  21.202  13.052
24437W        W92655  21.484  27.198   3.211
24438W        W92656  44.063  10.685  11.626
24439W        W92657  37.903  39.861   1.356
24440W        W92658  14.108   8.138  11.619
24441W        W92659   6.897  40.446  12.111
24442W        W92660  41.299  38.926   2.765
24443W        W92661  20.231  28.712  14.269
24444W        W92662  11.225  31.919  11.154
24445W        W92663  26.101   2.436   0.804
24446W        W92664   6.450  40.365  13.406
24447W        W92665  31.343  21.452   3.165
24448W        W92666  36.095  16.266  12.864
24449W        W92667   8.664   5.395  10.431
24450W        W92668  32.714  36.835   2.210
24451W        W92669  28.332  27.726  14.747
24452W        W92670   6.873  20.257   2.897
24453W        W92671   4.442   4.901   2.344
24454W        W92672  12.845   4.675   1.870
24455W        W92673  30.099  33.538  13.292
24456W        W92674  40.282  11.787   1.511
24457W        W92675  33.440  18.661  10.942
24458W        W92676  32.317  24.731  13.094
24459W        W92677  39.060  37.574  14.966
24460W        W92678  10.830   9.094   2.300
24461W        W92679   3.724  42.389  11.954
24462W        W92680  35.586  44.355  14.405
24463W        W92681  11.312   3.084  13.096
24464W        W92682   8.031  23.766  11.583
24465W        W92683  12.868  31.677  14.573
24466W        W92684  11.334  17.905   5.016
24467W        W92685   1.066  40.492   1.784
24468W        W92686  26.711  32.855  13.814
24469W        W92687   4.389  39.136  10.660
24470W        W92688  33.114  34.892  13.838
24471W        W92689  22.541  13.883   4.290
24472W        W92690  27.183  11.276  12.047
24473W        W92691  40.604  23.462  12.559
24474W        W92692   4.475  20.647  12.229
24475W        W92693  34.354  19.432   1.790
24476W        W92694  43.438  41.033   2.159
24477W        W92695  25.568  42.334   0.725
24478W        W92696  14.634  10.329   1.039
24479W        W92697   9.855  17.594   1.686
24480W        W92698  17.736   1.307  14.751
24481W        W92699  38.045  33.462  10.733
24482W        W92700  32.886  13.875   2.727
24483W        W92701  32.838   1.832  14.741
24484W        W92702  12.241  26.712   1.739
24485W        W92703   0.988   9.192  12.377
24486W        W92704  30.169  43.020   2.196
24487W        W92705  27.224  16.891   4.912
24488W        W92706   8.134  37.960   3.135
24489W        W92707   2.281  14.804   1.496
24490W        W92708  44.843  32.172  11.203
24491W        W92709  20.410  42.705  12.074
24492W        W92710  26.760  25.645   9.837
24493W        W92711  40.222  30.690  12.222
24494W        W92712  42.018  39.467   2.661
24495W        W92713  12.043  21.030  11.226
24496W        W92714  12.743  17.784   2.886
24497W        W92715  13.266  37.102   1.004
24498W        W92716  33.863  20.551  11.566
24499W        W92717  23.040  35.031   3.132
24500W        W92718   3.064  39.936   1.381
24501W        W92719   0.343   8.707   0.540
24502W        W92720   3.024  41.975  14.205
24503W        W92721   7.643  44.821   1.286
24504W        W92722  18.770  30.187   3.389
24505W        W92723  11.616  39.558   4.565
24506W        W92724  39.005  37.350   2.847
24507W        W92725  38.811  29.691  13.399
24508W        W92726  11.914   4.777   2.896
24509W        W92727  16.294  38.857   1.255
24510W        W92728  33.067   0.524   0.407
24511W        W92729  41.863  38.816  12.536
24512W        W92730  20.494  30.574   0.911
24513W        W92731  38.768  34.415  10.828
24514W        W92732  24.726   2.342   0.486
24515W        W92733  20.042  19.161   3.202
24516W        W92734  14.175   9.281   2.783
24517W        W92735  17.582  42.029  14.965
24518W        W92736   5.535   5.735  13.360
24519W        W92737  11.778  19.758   3.196
24520W        W92738   2.864   9.482  14.193
24521W        W92739   5.293   8.343  14.493
24522W        W92740  39.390  31.459  14.771
24523W        W92741  31.078  24.954  12.457
24524W        W92742   8.807  26.799  13.384
24525W        W92743   0.168  26.018  10.598
24526W        W92744  36.055  34.672   4.599
24527W        W92745  30.598   8.861  11.121
24528W        W92746  35.558  26.095   2.529
24529W        W92747  25.127  31.833  13.338
24530W        W92748  37.373  39.912   0.494
24531W        W92749  39.865  16.099   2.971
24532W        W92750  14.800  32.301   1.287
24533W        W92751   2.539  22.292  14.854
24534W        W92752  16.171  36.172   2.298
24535W        W92753  39.083   1.242   0.202
24536W        W92754   7.610  15.881   4.891
24537W        W92755  17.517  14.035  13.031
24538W        W92756  32.908  13.878   3.650
24539W        W92757  18.201  14.317   0.470
24540W        W92758  41.691  32.458   2.675
24541W        W92759  40.082  30.227  14.877
24542W        W92760  33.057  10.304  12.264
24543W        W92761  43.993  39.573  10.667
24544W        W92762  28.584  15.805  13.980
24545W        W92763  17.646  13.725   3.791
24546W        W92764  17.097  23.529   2.204
24547W        W92765  37.633   6.434   3.777
24548W        W92766  15.778  43.785   3.759
24549W        W92767  32.873   0.908   3.529
24550W        W92768  40.268  13.387  14.314
24551W        W92769  23.053   1.236   4.086
24552W        W92770  12.151   9.899  14.878
24553W        W92771   7.426   3.678  11.645
24554W        W92772  34.087   1.190   2.258
24555W        W92773  23.753  13.690  11.158
24556W        W92774   4.502  21.636   2.773
24557W        W92775  44.904  20.032  13.934
24558W        W92776  39.608  12.765  12.016
24559W        W92777  26.506  42.899  11.189
24560W        W92778  25.661  41.254  12.052
24561W        W92779  38.553  30.158  11.515
24562W        W92780  36.852  13.675   2.907
24563W        W92781  15.501  41.617   5.573
24564W        W92782   5.095  27.515   1.643
24565W        W92783  15.115   9.042   1.239
24566W        W92784  10.733  16.119  13.652
24567W        W92785  19.396  33.932   2.649
24568W        W92786  19.206  20.124   2.287
24569W        W92787  40.932   3.391  12.544
24570W        W92788   5.477  22.623  13.500
24571W        W92789  10.944  23.846   4.541
24572W        W92790  19.606  19.551  11.236
24573W        W92791  13.649  24.808   4.005
24574W        W92792   4.783   9.140   3.632
24575W        W92793   6.585  18.322   4.578
24576W        W92794  21.248  21.245  11.503
24577W        W92795   2.015  38.565   3.370
24578W        W92796  33.393  35.106  12.973
24579W        W92797  24.493  12.691   4.187
24580W        W92798  18.955   9.386   0.243
24581W        W92799  16.843   4.532  11.043
24582W        W92800   2.383  18.334  13.202
24583W        W92801  23.155  24.154  12.021
24584W        W92802  15.276   1.255  13.857
24585W        W92803  37.688   7.211   1.885
24586W        W92804   5.770  15.589   1.109
24587W        W92805   8.431  15.530  10.161
24588W        W92806  28.939  31.907   1.767
24589W        W92807  30.373  38.253   1.376
24590W        W92808  39.273  36.398  13.366
24591W        W92809  12.924  18.585  12.168
24592W        W92810  25.412   3.675   0.683
24593W        W92811  12.360  44.383   2.095
24594W        W92812  12.783  30.644   2.068
24595W        W92813  41.232  42.476  14.283
24596W        W92814  35.689  30.148   3.865
24597W        W92815  26.437  18.706  13.819
24598W        W92816  43.766  41.025   4.904
24599W        W92817  32.847   6.377   3.840
24600W        W92818  15.465  38.539   2.161
24601W        W92819  16.874   6.302  10.672
24602W        W92820  28.484   7.584  12.293
24603W        W92821  28.965  21.945  12.616
24604W        W92822   6.346  17.377  13.595
24605W        W92823  32.599  23.470   0.258
24606W        W92824  30.932  14.733   4.991
24607W        W92825  26.130  44.953  10.593
24608W        W92826  36.991   8.499  14.911
24609W        W92827  18.166  11.392   5.473
24610W        W92828  20.734  28.571  13.374
24611W        W92829  31.413  29.089  13.408
24612W        W92830  20.838  36.688   0.712
24613W        W92831  26.066  44.810   2.383
24614W        W92832  33.912   4.316   3.045
24615W        W92833  20.740  38.741  14.618
24616W        W92834  25.262  18.330   4.239
24617W        W92835  23.073  23.522  10.364
24618W        W92836  33.637  44.674  12.863
24619W        W92837  37.803  11.540   4.410
24620W        W92838   8.773  27.287  11.486
24621W        W92839  31.211   3.332  12.889
24622W        W92840   9.812  36.819   0.876
24623W        W92841  40.581  33.074   1.358
24624W        W92842  16.807  32.901   0.346
24625W        W92843   4.009  15.097  12.046
24626W        W92844  11.115  10.830  13.514
24627W        W92845   1.455  35.374   0.242
24628W        W92846  25.225  14.489   3.314
24629W        W92847  21.671  14.923   2.427
24630W        W92848  27.644  24.575  11.142
24631W        W92849  27.234  14.194  14.976
24632W        W92850  31.089  21.053   3.744
24633W        W92851   1.989  33.027  10.538
24634W        W92852   5.661   2.330   2.961
24635W        W92853  14.926  41.798   4.583
24636W        W92854  15.861   8.155  14.429
24637W        W92855  11.810  20.473   3.703
24638W        W92856  15.743  11.893   2.618
24639W        W92857   4.630  25.649   4.103
24640W        W92858  42.884   7.770  12.165
24641W        W92859  42.000  11.944   0.293
24642W        W92860  23.585  25.941   4.027
24643W        W92861  44.263  44.818   0.853
24644W        W92862  32.908   9.603  11.226
24645W        W92863  18.569  40.934  14.181
24646W        W92864   8.489  31.877   4.562
24647W        W92865  42.740   4.132  13.913
24648W        W92866  27.186  18.551   2.659
24649W        W92867  38.454  29.126   0.328
24650W        W92868  12.355   3.528  10.682
24651W        W92869  26.673  44.762   0.214
24652W        W92870  28.354  34.996   2.781
24653W        W92871  15.420  18.485   3.650
24654W        W92872  30.162  17.063   3.467
24655W        W92873  31.439  13.877   2.238
24656W        W92874  19.295  25.686   2.818
24657W        W92875  13.844  14.382   4.782
24658W        W92876  42.026  25.279   1.801
24659W        W92877   0.321  41.024  13.483
24660W        W92878  35.050  43.087  14.916
24661W        W92879  30.626  24.876  12.660
24662W        W92880  28.402  40.532  13.466
24663W        W92881   6.634  21.279  12.596
24664W        W92882  25.666  29.998   2.175
24665W        W92883  16.356   4.446  14.467
24666W        W92884  21.639   3.965   1.012
24667W        W92885  22.632  25.378   3.388
24668W        W92886  29.872  38.159  11.563
24669W        W92887  32.221  25.132   4.152
24670W        W92888  44.024   1.267   4.200
24671W        W92889  38.803  41.033  11.264
24672W        W92890   4.516   1.268   2.788
24673W        W92891  33.929   1.303  11.193
24674W        W92892  33.702  33.109  10.611
24675W        W92893  32.438  18.910   1.806
24676W        W92894  40.086   3.039  12.916
24677W        W92895  17.608  18.112   3.264
24678W        W92896   5.174  27.621   0.339
24679W        W92897   7.126  11.871  12.485
24680W        W92898  19.727  15.641   1.882
24681W        W92899  18.898  29.245   2.077
24682W        W92900  30.691  23.119   3.139
24683W        W92901  35.141  13.239  11.201
24684W        W92902  40.779  43.811   1.264
24685W        W92903  26.155  11.024   1.906
24686W        W92904  12.699  25.073  14.236
24687W        W92905  15.048  42.596   4.108
24688W        W92906  43.873   6.210  11.521
24689W        W92907  14.555   7.046   2.808
24690W        W92908  16.519  13.132  13.905
24691W        W92909   2.646  38.245   1.701
24692W        W92910  23.309  24.640   2.750
24693W        W92911  13.869   0.506  11.455
24694W        W92912  32.881  26.182   3.236
24695W        W92913  25.347  35.612  10.508
24696W        W92914  20.025  10.780  14.691
24697W        W92915  17.758  28.821  14.217
24698W        W92916  41.806   8.775   0.519
24699W        W92917  30.292   4.803  11.522
24700W        W92918  34.339  15.206  10.578
24701W        W92919   8.744  31.560   2.167
24702W        W92920  15.537  24.103  14.335
24703W        W92921  44.433  39.331  10.477
24704W        W92922   5.430  27.971   3.134
24705W        W92923  17.263  13.375  12.432
24706W        W92924  32.546  11.090   3.849
24707W        W92925  29.711  35.885   1.268
24708W        W92926  42.362  20.061  14.342
24709W        W92927  26.985  39.968  12.815
24710W        W92928  25.709  24.268   2.216
24711W        W92929  17.103  35.834  14.326
24712W        W92930  24.496  36.304  12.571
24713W        W92931  38.226   5.676   5.484
24714W        W92932  15.782   5.567   3.229
24715W        W92933  24.978  15.829  13.975
24716W        W92934  17.170  22.150  13.024
24717W        W92935  33.115  16.707   4.671
24718W        W92936  44.577  26.220   1.283
24719W        W92937  42.506  33.984   0.421
24720W        W92938   0.438  14.366   0.455
24721W        W92939  37.033   2.859   1.015
24722W        W92940  11.360  25.537   4.950
24723W        W92941  12.374  41.074  12.336
24724W        W92942   4.934  17.699   9.954
24725W        W92943  13.543   3.271   4.747
24726W        W92944  21.062  28.494  14.769
24727W        W92945  33.366  28.280   3.817
24728W        W92946  18.550  43.527   4.680
24729W        W92947  41.375  18.187  13.536
24730W        W92948  33.855  25.997   1.868
24731W        W92949  14.021  36.635  11.126
24732W        W92950   6.450  19.713   5.054
24733W        W92951  37.910  18.950   2.608
24734W        W92952  28.080  43.336   0.764
24735W        W92953  42.413  25.573  14.592
24736W        W92954  41.071  17.780  13.445
24737W        W92955  37.154  28.148   3.110
24738W        W92956  29.678  42.743   9.877
24739W        W92957  23.081  14.562  13.189
24740W        W92958  40.574  19.552   4.968
24741W        W92959  30.415  26.256   3.285
24742W        W92960  38.279  44.649   2.425
24743W        W92961   1.393  17.377   3.846
24744W        W92962  11.061  22.679  12.929
24745W        W92963  27.732  41.837   4.822
24746W        W92964   0.271  38.065  14.503
24747W        W92965  13.225  27.693   1.370
24748W        W92966  37.471  36.008   1.706
24749W        W92967  26.408   2.242  11.529
24750W        W92968  16.780  16.819  10.633
24751W        W92969  31.206   6.148  13.831
24752W        W92970   5.060  35.116  13.541
24753W        W92971  11.814  40.985   4.960
24754W        W92972   2.541  10.854   3.340
24755W        W92973  41.912  18.349  12.273
24756W        W92974  21.574  31.818  13.844
24757W        W92975  30.178  24.672   1.844
24758W        W92976   1.223  11.392  10.753
24759W        W92977  31.526  16.818  12.897
24760W        W92978  38.712   5.745   4.942
24761W        W92979  25.951  19.316  11.506
24762W        W92980  41.388  29.643   1.245
24763W        W92981  32.341  22.802   3.443
24764W        W92982  37.646   1.152   0.318
24765W        W92983  39.545   9.113   3.165
24766W        W92984  31.029  41.533   3.649
24767W        W92985  35.631   3.964  14.410
24768W        W92986  34.533  41.815  11.964
24769W        W92987  22.790  40.136  11.433
24770W        W92988  41.863   2.852   0.468
24771W        W92989  25.985  27.957   2.230
24772W        W92990  41.743  14.274   2.058
24773W        W92991  37.770  29.219  10.627
24774W        W92992  20.092  24.607   3.338
24775W        W92993   6.787  13.352   4.074
24776W        W92994  43.348  26.495   3.649
24777W        W92995   5.173  40.362   1.710
24778W        W92996  32.086  31.836   4.227
24779W        W92997  22.787   2.058   2.346
24780W        W92998  34.088  29.849   9.939
24781W        W92999   5.047  24.889  11.221
24782W        W93000   3.498  41.972  12.173
24783W        W93001  20.461  24.173  13.715
24784W        W93002   1.855  22.048  11.987
24785W        W93003  11.364  13.755   0.126
24786W        W93004  12.670  41.774  12.940
24787W        W93005  30.933  31.404  11.534
24788W        W93006  25.240  15.804  10.708
24789W        W93007   3.243  10.852   2.256
24790W        W93008  25.397  37.562  11.233
24791W        W93009  19.032  11.271  11.936
24792W        W93010  25.471   4.793   2.261
24793W        W93011   5.284  44.689   0.977
24794W        W93012  20.441   7.175   4.798
24795W        W93013   0.819  37.566   1.195
24796W        W93014  13.597  43.317  13.256
24797W        W93015   7.146  13.282  11.057
24798W        W93016  30.584  39.830  10.799
24799W        W93017  11.648   2.861   3.899
24800W        W93018  38.639  21.752   2.301
24801W        W93019   8.725  42.896   0.292
24802W        W93020  26.577  34.613  13.492
24803W        W93021  44.531  29.995   0.939
24804W        W93022  39.812  26.115   2.782
24805W        W93023  15.716  29.545  12.192
24806W        W93024  44.305  27.921   3.208
24807W        W93025  25.986  25.699   3.571
24808W        W93026  41.280   4.505   0.293
24809W        W93027  28.001   2.329   1.278
24810W        W93028  38.645  10.797  13.339
24811W        W93029  27.175  42.314  12.993
24812W        W93030   1.256  29.479   0.003
24813W        W93031  24.025  36.941  12.104
24814W        W93032  23.603  14.815   1.197
24815W        W93033  39.470  42.403   2.897
24816W        W93034  26.188  11.639   2.719
24817W        W93035  40.972  39.548  13.196
24818W        W93036  35.837  17.164  10.712
24819W        W93037  21.597  20.151  12.584
24820W        W93038  40.056   8.195   1.322
24821W        W93039  15.834   6.077  14.975
24822W        W93040  28.946   3.679   2.509
24823W        W93041  33.411  44.674   4.501
24824W        W93042  15.569  37.494   3.600
24825W        W93043   4.574   1.320  14.659
24826W        W93044  13.043  19.579   5.079
24827W        W93045  27.117  17.813   3.994
24828W        W93046  28.484  40.575   1.874
24829W        W93047  39.765  12.185   4.575
24830W        W93048  24.756  31.461   0.305
24831W        W93049  25.847  12.763   4.133
24832W        W93050  39.585   1.703   1.035
24833W        W93051  44.796  25.859  12.522
24834W        W93052   4.227  12.602   2.820
24835W        W93053  37.518  41.956   2.583
24836W        W93054   7.676  27.222   2.210
24837W        W93055  34.083  41.168  10.962
24838W        W93056  25.258  28.549  14.778
24839W        W93057  20.908  18.076   2.093
24840W        W93058   3.272   0.988  11.988
24841W        W93059  40.351  23.723  14.430
24842W        W93060   2.129  18.742   1.331
24843W        W93061  35.821  33.330   2.077
24844W        W93062  33.424  33.359   5.000
24845W        W93063  41.031   8.123  13.878
24846W        W93064  44.460  25.273   3.174
24847W        W93065  24.194  33.840   4.239
24848W        W93066  14.640  24.100   4.626
24849W        W93067   6.980  28.110   3.210
24850W        W93068  31.995  37.398  14.799
24851W        W93069   0.583  23.545   0.384
24852W        W93070  43.038  21.569   0.124
24853W        W93071   9.483  15.797  13.841
24854W        W93072  24.748  31.006   1.982
24855W        W93073  33.222  27.143  12.525
24856W        W93074  17.022  17.692   3.777
24857W        W93075  24.186  18.273   2.367
24858W        W93076  25.198  17.668  14.348
24859W        W93077  29.995  26.642  11.357
24860W        W93078  14.654  41.774   4.151
24861W        W93079  28.118  44.312   2.823
24862W        W93080   8.508   1.223   2.684
24863W        W93081  40.153  27.659  14.903
24864W        W93082  30.395  37.889   2.771
24865W        W93083   3.400  33.019   4.726
24866W        W93084  41.362  27.734   2.770
24867W        W93085   5.258  19.615   2.267
24868W        W93086  40.089  32.903   1.306
24869W        W93087  30.708   0.488  12.982
24870W        W93088  32.060  14.737   0.732
24871W        W93089  22.412  42.781   4.332
24872W        W93090  29.980  43.328  14.322
24873W        W93091  28.234  37.555   4.682
24874W        W93092  16.046  34.436  14.012
24875W        W93093  28.880   8.793  10.534
24876W        W93094  37.662  40.605  12.518
24877W        W93095  38.976  21.315   4.127
24878W        W93096  16.134  38.781  12.272
24879W        W93097   0.925   9.775  13.533
24880W        W93098  39.586  16.597   1.264
24881W        W93099  26.655   4.580   2.039
24882W        W93100  30.344  36.994   2.701
24883W        W93101  27.128  11.155  13.525
24884W        W93102  37.493   8.187  13.030
24885W        W93103  12.856  15.367  11.070
24886W        W93104  15.001  34.369   0.851
24887W        W93105  10.058  11.221  13.401
24888W        W93106  18.674   0.724   4.075
24889W        W93107  33.374  42.448  12.041
24890W        W93108  19.011  36.444  14.840
24891W        W93109   9.311  37.340  11.653
24892W        W93110  13.831   8.626  13.775
24893W        W93111   1.262  17.163   0.426
24894W        W93112  32.720  20.186   2.244
24895W        W93113   7.238   2.687  10.741
24896W        W93114  17.863  28.132   0.443
24897W        W93115  21.938  18.403  13.308
24898W        W93116  19.009  34.926  12.447
24899W        W93117  36.568  37.485  12.463
24900W        W93118   9.656  43.339  13.849
24901W        W93119  41.117  31.555   4.958
24902W        W93120   8.643   7.441   2.681
24903W        W93121   5.315  25.195   1.328
24904W        W93122  10.165  29.385  12.990
24905W        W93123  18.092  41.068   4.464
24906W        W93124  27.264  33.421  11.145
24907W        W93125  35.302  42.921   4.341
24908W        W93126  12.354  22.588  11.543
24909W        W93127  24.996  12.892   0.939
24910W        W93128  24.039   9.097   1.285
24911W        W93129  22.043  21.523   3.818
24912W        W93130   3.901  41.231  13.551
24913W        W93131   1.170  10.324   0.529
24914W        W93132   3.144  31.969   0.816
24915W        W93133   5.606  36.628   4.719
24916W        W93134   5.601   4.846   3.974
24917W        W93135  23.569  21.933   2.347
24918W        W93136  20.695  11.086   3.655
24919W        W93137  16.781  42.909  10.824
24920W        W93138  35.544  21.194   0.880
24921W        W93139  44.544  24.564   1.790
24922W        W93140   2.910  32.699   1.378
24923W        W93141  39.425  21.561  10.841
24924W        W93142  32.131   8.661   3.296
24925W        W93143  40.430  25.235   3.790
24926W        W93144   4.738  18.015   3.583
24927W        W93145   2.942  26.634   0.778
24928W        W93146  24.695  34.398  12.329
24929W        W93147  16.412  31.054   1.989
24930W        W93148  16.618   9.677   0.265
24931W        W93149  42.572   0.999  14.317
24932W        W93150  34.293  35.189   2.119
24933W        W93151  22.520  28.463  10.759
24934W        W93152  35.009  18.221  11.501
24935W        W93153  40.146  14.870   0.943
24936W        W93154  10.924  40.127   2.205
24937W        W93155  12.569   1.469  13.530
24938W        W93156  36.603  25.000   1.878
24939W        W93157  16.222  21.799   2.843
24940W        W93158  10.130  18.840   0.877
24941W        W93159  43.109  42.579   1.042
24942W        W93160   8.414  40.020  14.346
24943W        W93161  41.413  39.528  14.239
24944W        W93162   0.983  25.669   2.255
24945W        W93163  29.156  24.494  13.420
24946W        W93164  34.488  20.329  11.615
24947W        W93165  23.491  22.029   3.167
24948W        W93166  44.335   6.649   4.262
24949W        W93167  10.357  23.690  12.566
24950W        W93168  15.306  33.259  11.117
24951W        W93169  16.555  39.316   0.371
24952W        W93170  10.895   8.452  11.303
24953W        W93171  32.826   0.923  14.166
24954W        W93172  44.724  43.281   3.111
24955W        W93173  22.859  44.202   2.435
24956W        W93174  24.750  31.393   3.253
24957W        W93175  39.426  22.574  12.113
24958W        W93176  28.316   5.209  10.695
24959W        W93177  23.446   4.782   3.197
24960W        W93178  22.708  12.595   3.753
24961W        W93179  21.843  36.801   1.723
24962W        W93180  28.559   3.740   4.763
24963W        W93181  30.044  27.468  13.298
24964W        W93182  28.505  16.686  14.237
24965W        W93183  15.622   1.864  11.662
24966W        W93184  26.021   5.383  10.764
24967W        W93185  32.636  36.331   2.230
24968W        W93186  27.989  32.713  14.313
24969W        W93187  19.488  30.990  10.644
24970W        W93188  14.647   4.229   0.811
24971W        W93189  29.968  23.291   4.724
24972W        W93190  41.644   0.732   3.674
24973W        W93191   4.151  15.782   4.248
24974W        W93192  33.464  24.230   2.136
24975W        W93193  35.327  30.198   4.661
24976W        W93194  24.871   5.898  10.644
24977W        W93195  12.499  25.557   2.414
24978W        W93196  30.879   3.679  13.410
24979W        W93197  36.862  16.759  14.770
24980W        W93198  32.191  20.707  13.042
24981W        W93199  36.353  36.053  14.917
24982W        W93200  24.002   3.270  13.908
24983W        W93201  33.402  41.453  10.407
24984W        W93202   7.304   7.434   4.016
24985W        W93203  12.585  28.486  13.326
24986W        W93204  38.301  30.960  12.536
24987W        W93205  37.890  26.577  13.335
24988W        W93206  35.449  30.102   5.687
24989W        W93207  20.652  12.106   4.450
24990W        W93208  31.036  15.146  11.046
24991W        W93209  37.315  14.948   0.717
24992W        W93210  35.212  34.198  14.135
24993W        W93211  29.923  19.057   1.624
24994W        W93212  14.275  36.354   0.254
24995W        W93213   9.890  18.781  12.975
24996W        W93214   3.781  22.916   1.383
24997W        W93215  30.947   3.501  11.697
24998W        W93216  34.431  15.745   3.071
24999W        W93217  10.333   9.427  13.927
25000W        W93218  18.147  22.087  13.161
25001W        W93219   0.359   3.389  12.105
25002W        W93220  20.185  39.062  11.123
25003W        W93221  29.162  30.538   1.230
25004W        W93222  11.332  18.655  11.642
25005W        W93223  11.382   9.812  12.905
25006W        W93224   2.725  25.602   0.963
25007W        W93225  20.682  22.571  12.863
25008W        W93226  33.071  11.136  10.588
25009W        W93227  42.010  25.451  11.858
25010W        W93228  19.645   5.275  12.486
25011W        W93229   3.445   1.220   1.773
25012W        W93230  39.466  30.686   2.866
25013W        W93231  33.371  20.075  14.494
25014W        W93232   0.898  19.217  12.150
25015W        W93233  23.302   4.766  12.103
25016W        W93234  27.812   0.288  10.549
25017W        W93235  12.558   1.429  10.686
25018W        W93236  37.323  13.137  11.942
25019W        W93237  22.163   7.520  13.264
25020W        W93238   8.794  42.514   2.298
25021W        W93239  38.569  37.423   3.116
25022W        W93240  29.637   6.226  13.765
25023W        W93241  18.947  42.324  12.641
25024W        W93242  34.547  36.127   0.378
25025W        W93243  16.190  44.590  14.069
25026W        W93244  32.958  37.874   1.120
25027W        W93245  31.753   8.348   1.780
25028W        W93246   1.316  43.720   4.501
25029W        W93247  34.438  23.486   3.439
25030W        W93248  32.234  40.278  11.247
25031W        W93249  20.035  23.160  10.620
25032W        W93250  27.199  29.150  13.372
25033W        W93251  39.596  44.408   2.730
25034W        W93252  16.777  13.768   0.084
25035W        W93253  17.494  38.477  11.812
25036W        W93254  21.112  35.970   5.381
25037W        W93255  30.179  11.795  14.813
25038W        W93256   5.582  29.076   3.755
25039W        W93257  29.554   3.462   4.530
25040W        W93258   6.686  42.983   1.328
25041W        W93259  41.872  12.663  14.014
25042W        W93260  41.692  40.131  12.228
25043W        W93261  32.488  20.251   3.569
25044W        W93262  28.208   1.703   0.795
25045W        W93263   6.785  27.407  12.977
25046W        W93264  33.075  24.488   2.349
25047W        W93265  21.880  38.731  10.706
25048W        W93266  22.317  31.568   0.870
25049W        W93267  33.109  40.641  12.095
25050W        W93268   4.212  34.120   0.931
25051W        W93269   8.928  26.864   0.473
25052W        W93270  25.905  28.512  11.577
25053W        W93271  11.393  28.679   2.198
25054W        W93272  25.387  33.516  14.816
25055W        W93273   2.502  38.463  12.109
25056W        W93274  35.613  23.727  11.575
25057W        W93275   9.787   0.294  12.079
25058W        W93276  22.500  13.732   3.284
25059W        W93277  13.615   6.897   4.078
25060W        W93278   7.987   9.570  14.586
25061W        W93279  23.949  10.804   2.809
25062W        W93280  28.574  16.580  13.360
25063W        W93281  39.262  36.121  10.554
25064W        W93282  30.433  39.791   2.751
25065W        W93283   9.010   9.713  14.532
25066W        W93284  26.705   4.449   0.832
25067W        W93285  14.834   0.708   2.193
25068W        W93286  10.705  25.010   0.806
25069W        W93287  42.498  16.900  11.655
25070W        W93288  17.663   3.769  11.756
25071W        W93289  32.916  26.623  14.890
25072W        W93290  15.262  24.511   1.674
25073W        W93291  27.106  35.520  12.934
25074W        W93292   7.385  20.085   2.874
25075W        W93293  42.477   0.531   0.942
25076W        W93294  19.567  17.735   2.393
25077W        W93295  22.806  27.646  12.461
25078W        W93296  34.481  21.645   4.811
25079W        W93297  24.414   9.071  12.445
25080W        W93298  40.930  34.881  11.692
25081W        W93299  34.397  23.711  11.227
25082W        W93300  25.117  17.545  14.827
25083W        W93301  26.159  17.259   3.226
25084W        W93302  18.249  28.167  14.144
25085W        W93303  37.425  18.488  14.815
25086W        W93304  31.106  33.392   2.251
25087W        W93305  32.430  24.644  12.575
25088W        W93306  36.262   7.096  11.228
25089W        W93307  40.878   6.616  12.852
25090W        W93308  19.929  40.505   4.539
25091W        W93309  44.514  23.496   4.564
25092W        W93310  28.550  11.591   1.327
25093W        W93311  25.999  14.772   0.007
25094W        W93312  20.752   4.425  14.953
25095W        W93313  20.573   3.738   4.706
25096W        W93314   5.350  32.322  11.999
25097W        W93315  16.698  29.449   1.988
25098W        W93316  27.200  20.237  11.460
25099W        W93317   8.331  44.752  11.657
25100W        W93318  22.507  14.579   2.812
25101W        W93319  43.506   9.632  13.353
25102W        W93320  21.258  30.903  14.857
25103W        W93321   3.343  42.309  13.996
25104W        W93322  14.479  18.378   2.242
25105W        W93323  14.877  39.801   4.467
25106W        W93324   1.176   1.737  11.776
25107W        W93325  32.638  16.558  13.935
25108W        W93326  17.080  23.767  14.136
25109W        W93327  13.341  22.366  14.938
25110W        W93328   2.869  35.800   0.459
25111W        W93329  19.529   3.517   3.151
25112W        W93330  34.555  20.072  11.056
25113W        W93331  18.924  25.778  13.033
25114W        W93332  39.949  32.750   0.830
25115W        W93333   5.781  43.739  13.855
25116W        W93334  23.017  27.035   2.303
25117W        W93335  25.487  13.641  11.560
25118W        W93336  41.413  17.997  14.921
25119W        W93337  13.210  26.685  12.552
25120W        W93338   2.857  11.557   2.713
25121W        W93339  12.623  35.331  12.958
25122W        W93340   5.033  40.751  10.176
25123W        W93341  21.243  35.320   3.696
25124W        W93342   7.895  32.085   1.283
25125W        W93343  35.653  35.512   3.889
25126W        W93344  23.067  38.058   0.906
25127W        W93345  28.005  12.432  12.018
25128W        W93346  43.315  34.177   3.283
25129W        W93347  26.654   3.817  14.367
25130W        W93348  27.206  19.788  12.380
25131W        W93349   2.868  16.124  10.767
25132W        W93350   8.340  10.890  11.596
25133W        W93351   8.571   8.752   2.347
25134W        W93352   5.826  35.894  11.000
25135W        W93353  23.495  39.489   4.149
25136W        W93354   2.422  17.527   1.720
25137W        W93355   2.421  41.869  14.900
25138W        W93356   8.748  18.558   3.723
25139W        W93357   2.009  13.724   4.766
25140W        W93358  36.726  44.952   2.260
25141W        W93359   4.451  22.660  13.777
25142W        W93360  22.966  31.074   2.106
25143W        W93361  28.880   6.008   2.248
25144W        W93362  22.748  24.027   2.225
25145W        W93363  18.545  24.740   2.129
25146W        W93364  10.907  24.012   0.394
25147W        W93365   7.335  32.053   2.212
25148W        W93366  16.534   9.206   0.489
25149W        W93367   3.723   1.176  11.143
25150W        W93368  28.116  28.627   0.897
25151W        W93369  15.874  19.119  13.103
25152W        W93370  18.824  23.769  13.540
25153W        W93371  41.914   3.923  12.908
25154W        W93372   7.579  30.516   2.805
25155W        W93373  23.528  19.655   4.504
25156W        W93374  37.762  17.759  10.673
25157W        W93375  12.579  13.442  10.919
25158W        W93376  27.663  27.089  11.665
25159W        W93377  19.669  26.558   0.028
25160W        W93378  25.534  20.780   3.833
25161W        W93379  41.344  11.647   3.376
25162W        W93380  31.367   1.496  12.544
25163W        W93381  18.450  43.369  12.820
25164W        W93382  20.367   5.557  12.718
25165W        W93383  18.575  27.526  12.572
25166W        W93384  40.982  34.006   3.635
25167W        W93385  12.682  32.211   2.804
25168W        W93386   8.459   9.578  11.993
25169W        W93387  15.768  30.475  14.938
25170W        W93388  23.057  19.513   1.402
25171W        W93389  38.310  44.939  11.825
25172W        W93390  20.738  39.819   4.273
25173W        W93391  10.663  41.933   3.109
25174W        W93392  28.062  35.902  10.587
25175W        W93393  17.241  43.384  14.391
25176W        W93394   0.984   7.741   2.424
25177W        W93395   6.898  40.945  12.383
25178W        W93396  29.129  13.422   0.047
25179W        W93397  21.707  28.260  10.408
25180W        W93398  19.750   0.442  13.395
25181W        W93399  27.228  30.192   3.794
25182W        W93400  33.001  39.545  14.039
25183W        W93401  25.679  20.631   0.023
25184W        W93402  34.922  42.476   3.317
25185W        W93403  30.074  23.448  14.908
25186W        W93404  44.541  43.597   1.792
25187W        W93405  16.592  24.107  14.812
25188W        W93406  17.164   9.670   1.520
25189W        W93407  18.639   5.328  13.311
25190W        W93408  42.882  16.195   2.697
25191W        W93409   1.893  24.459   2.234
25192W        W93410   6.223   2.511  14.300
25193W        W93411  43.992   2.019   3.860
25194W        W93412  28.614   5.385  13.374
25195W        W93413   3.426  24.338   1.240
25196W        W93414  32.658  35.674   2.708
25197W        W93415  16.552  24.426   3.310
25198W        W93416  36.135  29.013  14.353
25199W        W93417  28.458  37.117   3.205
25200W        W93418  13.079  30.925  14.298
25201W        W93419  19.522   2.040  10.629
25202W        W93420  16.536  14.139  11.596
25203W        W93421  40.113   3.514  11.134
25204W        W93422  40.928  15.564  12.012
25205W        W93423   3.318  25.696   4.036
25206W        W93424   6.048  32.562   0.341
25207W        W93425  35.412  29.142  13.778
25208W        W93426  38.154   3.181  14.672
25209W        W93427  32.207   1.001   4.712
25210W        W93428  25.808  36.898  13.498
25211W        W93429  23.154  26.452   2.174
25212W        W93430  25.603  13.415   1.316
25213W        W93431  18.118  39.425   3.555
25214W        W93432  13.665   4.713  12.984
25215W        W93433  22.994   7.390   3.550
25216W        W93434  13.991  13.079  10.717
25217W        W93435  13.343  21.711  10.865
25218W        W93436  15.636  31.512  12.287
25219W        W93437  41.870  20.135   0.516
25220W        W93438   0.004  41.451   2.825
25221W        W93439  40.605  13.737   1.686
25222W        W93440  35.469   5.834  14.370
25223W        W93441  13.922   4.969   2.711
25224W        W93442  14.252   7.438   3.020
25225W        W93443  19.503  37.120  11.441
25226W        W93444  41.323  35.112  11.952
25227W        W93445  31.801   5.810   2.019
25228W        W93446  38.591   7.383   2.214
25229W        W93447  28.193   9.618  13.535
25230W        W93448  12.622   4.675   3.193
25231W        W93449  14.328   4.495  11.106
25232W        W93450  17.759  16.247   3.782
25233W        W93451  16.327  28.970  13.924
25234W        W93452  37.778  12.578  12.393
25235W        W93453   9.659  40.744   3.270
25236W        W93454  19.060   7.247   3.282
25237W        W93455  34.223   5.808  11.057
25238W        W93456  16.358   6.125  14.927
25239W        W93457   6.803  16.287  12.870
25240W        W93458  23.682  19.062  14.521
25241W        W93459  17.694  30.712   1.796
25242W        W93460   4.038  17.447  11.455
25243W        W93461   9.498  12.917  11.118
25244W        W93462  24.969  43.431   2.250
25245W        W93463   3.575  31.115   3.227
25246W        W93464  12.685  33.430   4.177
25247W        W93465  12.671  11.080  14.532
25248W        W93466  31.429  19.103  13.598
25249W        W93467  17.279  10.093  14.780
25250W        W93468   6.115  40.162  11.537
25251W        W93469   9.008  14.534   4.917
25252W        W93470  10.432  36.040   1.488
25253W        W93471   1.209  18.332   2.269
25254W        W93472  36.227   6.673   0.385
25255W        W93473   9.466  13.205   3.292
25256W        W93474  19.775  43.470  12.546
25257W        W93475  16.332  14.705   0.065
25258W        W93476   2.492   3.393  12.843
25259W        W93477  43.779  29.190  11.640
25260W        W93478  21.701   7.069   3.113
25261W        W93479  34.425   5.841   2.693
25262W        W93480  30.158  43.940   0.986
25263W        W93481  40.606  18.626  10.427
25264W        W93482   6.122  21.534   1.286
25265W        W93483  21.198  24.696  12.422
25266W        W93484  31.786  14.068  11.219
25267W        W93485  24.544  34.765  13.460
25268W        W93486  29.701  33.681  13.645
25269W        W93487  18.612  44.708   4.140
25270W        W93488  26.232   1.504   3.802
25271W        W93489  32.968  17.538   4.282
25272W        W93490  38.866   3.503   2.790
25273W        W93491  17.534  26.552  11.969
25274W        W93492  30.159  27.622   3.277
25275W        W93493   3.209  31.259   0.740
25276W        W93494   2.169   1.300  12.518
25277W        W93495  41.905  24.283  12.439
25278W        W93496  28.854  18.641  13.286
25279W        W93497  21.609  18.332  12.009
25280W        W93498   7.803  18.307   2.769
25281W        W93499   2.217  38.610   1.673
25282W        W93500  31.657  10.242   2.651
25283W        W93501  15.127  16.318   3.509
25284W        W93502  30.995  24.968  11.031
25285W        W93503  10.126  23.473  10.174
25286W        W93504   6.716  16.617   1.359
25287W        W93505  32.118  12.827   3.620
25288W        W93506  33.390   0.176  10.767
25289W        W93507  24.562  11.646  13.382
25290W        W93508  44.785  36.381  10.775
25291W        W93509   3.218  14.549  12.012
25292W        W93510  20.305  38.519   0.753
25293W        W93511  23.292  21.778  10.937
25294W        W93512   0.884  14.645   1.672
25295W        W93513  37.194  22.037  11.677
25296W        W93514  13.281  40.346   2.145
25297W        W93515   2.781   0.273  13.273
25298W        W93516   0.943  44.886   4.524
25299W        W93517  19.668  10.654   2.793
25300W        W93518   4.918  43.075  11.092
25301W        W93519  10.799  42.906  13.036
25302W        W93520   5.469  21.957   1.926
25303W        W93521   0.522  15.361   2.484
25304W        W93522   8.693  29.443  11.652
25305W        W93523  22.749  42.822   1.212
25306W        W93524  16.598  25.776   1.148
25307W        W93525  23.267  42.540   4.114
25308W        W93526  19.735  34.948   2.860
25309W        W93527  31.433  35.547   4.874
25310W        W93528  28.309  14.050   5.012
25311W        W93529  39.046  16.135  11.644
25312W        W93530  31.931  19.587   3.740
25313W        W93531  13.209  37.131  12.538
25314W        W93532  25.935  27.282  13.495
25315W        W93533  32.650  18.161   3.094
25316W        W93534   2.663  34.851  11.825
25317W        W93535   8.753  37.532  14.788
25318W        W93536  44.484   8.854   4.203
25319W        W93537  21.443  25.133   1.432
25320W        W93538  12.098   8.403   4.025
25321W        W93539  29.004  30.933  13.805
25322W        W93540  19.154  23.195   4.177
25323W        W93541  13.410  34.355  14.795
25324W        W93542  32.683  43.576   4.473
25325W        W93543  18.211   9.182   4.968
25326W        W93544   5.416  33.067   1.526
25327W        W93545  40.430   7.889  11.395
25328W        W93546  17.053  19.238   1.334
25329W        W93547  28.825  30.408  11.855
25330W        W93548   7.155  29.600  12.839
25331W        W93549  28.654  18.390   4.107
25332W        W93550   5.188  34.542  10.794
25333W        W93551  41.835  40.006   3.747
25334W        W93552  26.884  25.741   2.751
25335W        W93553  10.936   9.567   3.261
25336W        W93554  21.796   8.822  11.575
25337W        W93555  30.997  32.544  11.465
25338W        W93556  24.573  12.391   4.688
25339W        W93557  24.982   9.745  10.933
25340W        W93558  37.947  23.787   0.889
25341W        W93559  12.238  35.356   2.837
25342W        W93560  18.825  14.732   2.680
25343W        W93561  39.945  30.950   2.891
25344W        W93562  34.436  42.575  11.513
25345W        W93563   2.972   5.696  10.709
25346W        W93564   8.310  41.139   2.297
25347W        W93565   6.891  28.293   2.754
25348W        W93566  25.325  25.133  13.973
25349W        W93567   6.305  37.510  14.066
25350W        W93568   5.665  29.137   1.339
25351W        W93569  32.980  18.006   0.807
25352W        W93570  39.967  36.016  11.420
25353W        W93571  28.012  41.754  11.144
25354W        W93572  28.659  28.508   4.144
25355W        W93573  14.292  19.979  12.053
25356W        W93574  13.740  32.390  11.041
25357W        W93575  44.870  32.304   5.119
25358W        W93576  42.721  23.998  11.689
25359W        W93577  11.843   9.284   1.703
25360W        W93578   0.679  22.772  11.701
25361W        W93579  27.480  37.352   0.075
25362W        W93580  10.291  35.274  10.889
25363W        W93581  18.078  14.291  14.532
25364W        W93582  25.067  34.378  14.428
25365W        W93583  27.238  42.492  12.507
25366W        W93584  35.472  20.044   1.692
25367W        W93585  15.719  35.974  11.276
25368W        W93586  31.367  31.057  11.577
25369W        W93587   7.974  25.256  10.213
25370W        W93588  14.803   2.934   4.462
25371W        W93589   5.450  20.936  11.940
25372W        W93590  41.316  14.741  10.759
25373W        W93591  21.692  25.515   3.111
25374W        W93592   3.263  32.638  11.574
25375W        W93593  40.851  17.839   0.279
25376W        W93594   4.328  16.633  14.583
25377W        W93595  14.382   7.921  11.253
25378W        W93596  31.929  29.488   3.837
25379W        W93597  14.355  41.504  11.600
25380W        W93598   9.113  15.764   4.226
25381W        W93599  38.902  43.833   1.256
25382W        W93600  23.516  20.861   1.297
25383W        W93601   4.046   3.338   0.698
25384W        W93602  21.678   8.103   3.328
25385W        W93603   7.119  16.710  13.763
25386W        W93604  34.308  14.030   3.673
25387W        W93605  28.927  31.111   4.669
25388W        W93606  42.297   4.968   3.343
25389W        W93607   1.407  16.205   0.194
25390W        W93608  28.906   2.278   3.094
25391W        W93609  37.435  25.083   4.243
25392W        W93610  30.243  44.028  13.892
25393W        W93611  16.336   8.086  14.213
25394W        W93612  23.622  10.248  14.028
25395W        W93613  22.710  27.712  11.193
25396W        W93614  19.023  15.760  14.078
25397W        W93615  20.365  21.272  12.011
25398W        W93616  23.057  40.974  13.578
25399W        W93617  42.956   0.808  14.618
25400W        W93618  22.299  33.753   1.750
25401W        W93619  25.902  44.422  13.827
25402W        W93620  36.632  36.483  11.465
25403W        W93621  33.476  18.267  11.601
25404W        W93622   0.603  17.653  13.940
25405W        W93623  19.353  32.827  10.237
25406W        W93624  19.390  27.506  14.168
25407W        W93625  11.285  33.080   3.088
25408W        W93626  40.445  13.458  10.581
25409W        W93627  11.349   3.296   1.289
25410W        W93628  25.564   6.631  11.196
25411W        W93629  14.307  23.602   2.001
25412W        W93630  29.786  42.116  13.973
25413W        W93631   9.392  41.354  13.117
25414W        W93632  12.693  13.302  14.061
25415W        W93633   9.826  31.696   3.751
25416W        W93634  20.014  35.481  14.577
25417W        W93635  22.657  35.066   1.308
25418W        W93636  23.268  39.884   3.497
25419W        W93637  22.697  35.386   2.964
25420W        W93638   5.960  18.567   1.185
25421W        W93639  20.456  43.837  13.901
25422W        W93640  36.884  14.821   0.982
25423W        W93641  11.763  40.353   4.209
25424W        W93642  32.491  29.993   2.888
25425W        W93643  23.118   1.297   0.715
25426W        W93644  15.666  44.270  10.989
25427W        W93645  37.522   0.412  12.147
25428W        W93646  40.109  19.119   0.332
25429W        W93647  20.332  36.020   4.188
25430W        W93648   9.689  36.811   0.356
25431W        W93649   2.607  44.358   5.181
25432W        W93650   5.833   6.339  10.984
25433W        W93651  40.949  33.779  13.074
25434W        W93652  30.433  31.047   1.542
25435W        W93653  23.317  32.527   3.218
25436W        W93654   6.747  43.768  13.859
25437W        W93655  14.463   0.972   2.732
25438W        W93656  40.211  15.675  14.756
25439W        W93657  11.676  39.607  13.000
25440W        W93658  14.773  39.456  11.212
25441W        W93659  38.982   7.824   3.199
25442W        W93660   6.339   0.793   4.190
25443W        W93661  31.964  37.955  13.432
25444W        W93662   6.322  27.762   4.654
25445W        W93663  40.282  25.005   2.344
25446W        W93664  37.014  24.123  14.288
25447W        W93665   4.604  11.838  13.837
25448W        W93666  26.675  20.153  11.264
25449W        W93667  10.265  33.516   4.317
25450W        W93668  38.832   3.498  12.358
25451W        W93669  25.247  24.897  11.599
25452W        W93670  14.274  15.592  13.436
25453W        W93671  29.286  35.873   0.637
25454W        W93672  35.895  13.526   0.930
25455W        W93673  30.415  17.948  11.514
25456W        W93674  13.845  43.947  13.905
25457W        W93675  29.079  38.409   1.190
25458W        W93676   6.302   4.583   2.779
25459W        W93677   8.808   4.239  11.161
25460W        W93678  21.428  34.657   0.955
25461W        W93679   2.436  12.699  13.380
25462W        W93680  10.742  44.997   3.871
25463W        W93681  15.268  26.921  12.619
25464W        W93682  42.041  26.727   0.209
25465W        W93683  39.240  22.718   0.749
25466W        W93684   3.199  39.956  14.959
25467W        W93685   1.731  24.020   1.280
25468W        W93686  14.534  24.595   3.626
25469W        W93687   2.916   3.455   4.595
25470W        W93688  24.509  36.834  13.275
25471W        W93689  40.476  22.065  11.467
25472W        W93690  17.027   5.395  11.954
25473W        W93691  25.751  21.411   2.433
25474W        W93692  41.228  27.071   0.273
25475W        W93693  20.238   7.323   1.472
25476W        W93694   7.922  39.650   0.831
25477W        W93695  43.567  24.057  13.393
25478W        W93696  26.998  32.628   3.020
25479W        W93697  28.401  13.011   2.240
25480W        W93698  43.267  12.133   3.988
25481W        W93699  42.531  41.953  12.818
25482W        W93700  12.780  20.916  11.596
25483W        W93701   5.416  33.581  14.654
25484W        W93702   2.844  24.207   1.744
25485W        W93703  43.487  40.256  10.168
25486W        W93704   5.592  38.798   1.321
25487W        W93705  33.824   2.675   0.040
25488W        W93706  26.020  17.197  13.562
25489W        W93707  29.885   2.499  13.351
25490W        W93708  15.260  33.637  11.698
25491W        W93709  36.169  13.157   1.189
25492W        W93710  27.081  43.526   3.195
25493W        W93711  35.510   5.680  10.388
25494W        W93712   9.453  41.932   1.707
25495W        W93713  28.362   4.276  12.307
25496W        W93714  40.400   4.688  14.388
25497W        W93715   1.489   2.971  13.766
25498W        W93716  38.052  13.702   0.800
25499W        W93717  43.679  17.826  12.884
25500W        W93718  37.901  19.716   0.999
25501W        W93719  41.419  28.450   4.408
25502W        W93720  21.334  30.581   1.989
25503W        W93721   4.410  33.507   3.669
25504W        W93722  12.755  17.191  11.085
25505W        W93723   6.707  31.646   0.258
25506W        W93724  43.410  11.347   0.955
25507W        W93725   3.032   0.495  12.284
25508W        W93726   4.770  43.064   2.375
25509W        W93727  16.075  34.647  11.105
25510W        W93728  11.670  43.254   1.889
25511W        W93729  36.004  25.897  11.123
25512W        W93730  19.723  24.525  11.396
25513W        W93731  28.873  30.421  13.901
25514W        W93732  18.647  36.915  11.043
25515W        W93733  27.292  43.684  14.801
25516W        W93734   6.569  34.017   3.214
25517W        W93735   0.847  32.603  14.537
25518W        W93736   2.466  41.720  12.053
25519W        W93737  32.207  43.193  14.733
25520W        W93738  19.659  14.971  10.237
25521W        W93739   7.071  21.288  14.846
25522W        W93740  24.081   7.881   2.556
25523W        W93741   2.963  41.458   4.414
25524W        W93742  21.704  28.844  11.122
25525W        W93743  10.830  39.813  11.726
25526W        W93744  38.836  39.338   1.287
25527W        W93745  43.591  10.778  13.410
25528W        W93746  11.243  32.215  10.716
25529W        W93747  11.080   4.425  12.209
25530W        W93748  16.335  38.936   4.067
25531W        W93749   0.405   2.570  12.440
25532W        W93750  34.464   1.962   2.021
25533W        W93751  39.042   9.261   3.124
25534W        W93752   5.790  38.088   0.984
25535W        W93753  18.279  28.138  10.669
25536W        W93754   2.500  17.642  13.888
25537W        W93755   8.673  40.318   2.949
25538W        W93756  30.663   8.734   4.958
25539W        W93757  24.649  44.053   4.126
25540W        W93758  29.858  37.923   2.838
25541W        W93759  16.530  14.300   0.333
25542W        W93760  15.041   2.933   3.310
25543W        W93761   8.736   2.413   1.359
25544W        W93762  43.197  12.123  14.421
25545W        W93763  31.012  37.438   0.122
25546W        W93764  44.939   4.471  12.382
25547W        W93765  34.712  27.751  13.696
25548W        W93766  32.663  39.088   1.388
25549W        W93767  27.703  27.191   2.203
25550W        W93768  18.598   9.277  13.395
25551W        W93769  16.818   2.916  12.535
25552W        W93770  39.061  11.773   9.947
25553W        W93771   3.060  29.064  14.450
25554W        W93772   2.737  37.570   2.282
25555W        W93773  11.444  14.639  11.489
25556W        W93774   3.990   3.491  14.261
25557W        W93775  33.937   2.276  12.859
25558W        W93776  14.817  14.825   1.400
25559W        W93777  43.468  43.727   4.674
25560W        W93778  17.026  26.965   2.802
25561W        W93779  30.997  39.993  14.920
25562W        W93780  34.006   4.305   4.023
25563W        W93781   4.444  29.937   0.937
25564W        W93782  28.032  16.994  13.442
25565W        W93783   1.645  28.496   2.249
25566W        W93784  25.282  19.508   2.248
25567W        W93785  12.326   6.338   3.149
25568W        W93786  14.693   2.109   2.459
25569W        W93787   3.347   5.230   1.394
25570W        W93788   3.868  44.374   1.254
25571W        W93789  26.152  23.592  11.578
25572W        W93790  27.941   1.069  13.536
25573W        W93791  23.628   2.464   0.009
25574W        W93792  41.172  42.682  11.346
25575W        W93793  43.921  42.463  14.132
25576W        W93794   7.974  14.862  11.558
25577W        W93795  28.921  12.615   0.830
25578W        W93796  15.735  29.481   0.830
25579W        W93797  29.919   3.985  13.534
25580W        W93798  11.701  38.089   0.240
25581W        W93799  14.377  12.212   2.745
25582W        W93800  32.959  41.069   1.729
25583W        W93801  19.797  33.155   4.381
25584W        W93802  22.748  24.575   4.796
25585W        W93803  33.805  18.028   4.140
25586W        W93804  34.949  25.116  12.460
25587W        W93805  11.309  30.515   4.203
25588W        W93806  39.221  31.828   2.737
25589W        W93807  16.603  16.784  13.876
25590W        W93808  21.057  11.161   2.715
25591W        W93809  27.654  16.882   4.599
25592W        W93810   5.832   1.816   3.773
25593W        W93811  14.103  17.295   0.394
25594W        W93812   0.225  35.431  12.352
25595W        W93813  29.202   9.347   1.974
25596W        W93814  19.553  21.096  14.366
25597W        W93815  20.513  23.310   4.752
25598W        W93816   9.774   2.229   3.095
25599W        W93817   8.668  25.235   2.331
25600W        W93818  22.512  15.637   1.376
25601W        W93819   7.324  31.509   2.711
25602W        W93820  34.890  32.536  13.189
25603W        W93821   5.037  13.027  11.187
25604W        W93822  16.689  32.890  12.137
25605W        W93823  44.804  40.888   3.407
25606W        W93824  22.959  17.302   2.813
25607W        W93825  13.274  33.453  14.309
25608W        W93826   7.223   7.818  12.902
25609W        W93827   5.353  12.868   2.236
25610W        W93828  36.352  37.350  14.011
25611W        W93829  17.364   4.669   1.268
25612W        W93830  28.430  22.603   0.898
25613W        W93831  19.345  43.157   1.762
25614W        W93832  40.026  26.282   1.772
25615W        W93833  10.644   3.987   0.178
25616W        W93834  38.338  17.539   4.211
25617W        W93835  17.245  31.419   1.405
25618W        W93836  33.630  11.180   1.011
25619W        W93837  33.592  22.734   1.295
25620W        W93838   7.287  16.322  11.686
25621W        W93839  42.236  33.005  13.504
25622W        W93840   9.938  14.744   2.464
25623W        W93841   5.836  27.572   2.372
25624W        W93842  12.835  28.421  12.449
25625W        W93843  36.611  32.069   3.761
25626W        W93844  12.321  34.951   0.557
25627W        W93845  40.921   8.358   0.270
25628W        W93846  44.870   0.907  13.836
25629W        W93847   1.310  42.538   0.907
25630W        W93848  37.874  31.663  11.552
25631W        W93849   4.024  25.166  14.025
25632W        W93850  21.298  23.913   4.175
25633W        W93851  39.630  23.641  11.341
25634W        W93852  18.274   0.816  14.008
25635W        W93853  18.708  32.191   3.105
25636W        W93854  11.578  37.580  14.752
25637W        W93855  42.068  18.773  12.503
25638W        W93856   5.291   1.186   4.709
25639W        W93857  21.307  41.389  14.815
25640W        W93858  21.297  39.118  14.397
25641W        W93859  18.195  17.333  12.056
25642W        W93860  36.904  33.610   1.857
25643W        W93861  35.928   4.356  14.560
25644W        W93862  39.361  34.984   1.379
25645W        W93863  34.917  34.115   4.548
25646W        W93864  20.468   4.481  11.148
25647W        W93865  22.945  38.870   3.568
25648W        W93866   4.261   8.308  11.669
25649W        W93867  16.696  21.647   0.309
25650W        W93868   0.755   9.417  14.624
25651W        W93869  16.654  22.730   2.391
25652W        W93870  44.737   9.839   1.836
25653W        W93871  40.552  22.305  10.697
25654W        W93872  19.365  36.840   9.911
25655W        W93873  29.574  24.250  12.562
25656W        W93874  36.954   9.780  14.416
25657W        W93875  25.953  24.485   0.330
25658W        W93876  18.909   9.471  13.014
25659W        W93877  11.684  20.281  12.865
25660W        W93878  32.636   9.876   3.160
25661W        W93879   6.458  29.867   4.746
25662W        W93880   4.450  25.922  11.655
25663W        W93881  22.921   3.310   2.739
25664W        W93882  39.147  18.613   1.704
25665W        W93883  36.993  29.433  13.863
25666W        W93884  31.550  28.093  14.470
25667W        W93885   4.976  43.855  13.322
25668W        W93886   0.762  32.149  12.334
25669W        W93887   1.360  25.938  14.571
25670W        W93888  16.929   3.971  13.325
25671W        W93889  26.148   5.195  12.053
25672W        W93890  37.291  28.616   1.323
25673W        W93891  42.354  40.972   1.275
25674W        W93892  18.262  16.055  13.450
25675W        W93893  29.611   6.174  11.591
25676W        W93894  36.312  33.875   0.171
25677W        W93895   1.463   5.962   2.291
25678W        W93896   6.339  43.903  12.210
25679W        W93897  17.782  28.726   3.703
25680W        W93898  20.742  21.776  13.955
25681W        W93899  36.880  24.888  11.167
25682W        W93900   5.710  29.009   2.894
25683W        W93901  20.161  29.973   4.284
25684W        W93902  30.397  16.600  11.717
25685W        W93903  12.104  18.813   2.214
25686W        W93904  30.993  32.432   1.835
25687W        W93905  11.855   1.997   3.004
25688W        W93906  18.399  38.491  14.112
25689W        W93907  32.835  33.371   2.249
25690W        W93908  41.292  37.258   0.345
25691W        W93909  38.143  18.424  14.365
25692W        W93910  39.970  41.865  13.075
25693W        W93911  17.159  43.528   2.106
25694W        W93912  39.029  34.919   3.376
25695W        W93913   1.682  15.207  11.496
25696W        W93914  22.889   1.967  12.873
25697W        W93915  26.669  26.158  10.764
25698W        W93916  32.976  43.035  10.590
25699W        W93917  25.117  15.633   4.136
25700W        W93918  41.752  20.203   1.546
25701W        W93919  39.554  37.592   0.757
25702W        W93920  43.278  29.993   2.695
25703W        W93921  33.579  28.736   3.961
25704W        W93922  18.450  20.037   2.994
25705W        W93923  16.607  16.027  14.355
25706W        W93924   9.920  23.070   3.306
25707W        W93925   9.660  43.713   1.818
25708W        W93926  25.487   6.137  11.226
25709W        W93927  35.924  31.487   0.737
25710W        W93928  34.281   8.811  14.598
25711W        W93929  36.393  10.347  14.802
25712W        W93930  12.641  43.067  12.538
25713W        W93931  10.210   0.346  10.670
25714W        W93932  30.955  11.756   3.135
25715W        W93933  24.634  41.001   0.467
25716W        W93934   9.256  34.296   2.402
25717W        W93935  34.985  30.649   4.093
25718W        W93936  40.903  10.728   4.596
25719W        W93937  32.019   9.471  14.301
25720W        W93938   6.191  18.246  14.865
25721W        W93939  18.152  44.072  12.046
25722W        W93940  26.190   9.878  11.113
25723W        W93941  43.739   8.140  11.064
25724W        W93942  33.956  34.927  14.425
25725W        W93943  43.406   9.904  12.924
25726W        W93944  30.089  37.473   2.748
25727W        W93945  22.457  19.775   2.190
25728W        W93946  14.573   2.541  10.242
25729W        W93947   8.826  31.922  13.683
25730W        W93948  40.534  35.984  13.217
25731W        W93949  11.963  24.060   1.199
25732W        W93950  35.427  24.492  12.019
25733W        W93951   2.299  13.831  14.505
25734W        W93952  17.815  27.255  13.417
25735W        W93953  26.885  13.806   4.229
25736W        W93954  39.370  37.106   0.643
25737W        W93955  22.795  23.424   3.065
25738W        W93956   2.766   8.245  10.761
25739W        W93957  14.746  20.673  14.118
25740W        W93958  33.419  13.016   4.470
25741W        W93959  21.043  22.230  12.286
25742W        W93960  43.310   9.411  13.785
25743W        W93961  33.153  32.178   5.143
25744W        W93962   0.201  25.914  14.789
25745W        W93963  12.336   6.893   3.741
25746W        W93964  22.282  14.822  12.610
25747W        W93965  32.568  35.980  13.653
25748W        W93966  13.763  30.473   2.404
25749W        W93967  10.399  41.119  11.183
25750W        W93968  35.858  17.685   0.870
25751W        W93969  36.988  18.630   2.638
25752W        W93970  11.923  40.075   3.773
25753W        W93971  31.575  29.042   4.231
25754W        W93972  12.638  44.193   4.090
25755W        W93973   6.411  18.028   1.748
25756W        W93974   5.443   7.931  11.712
25757W        W93975  13.057  17.968   0.966
25758W        W93976  28.146  25.071  14.754
25759W        W93977  11.586   7.590   2.787
25760W        W93978  21.265  16.789   2.861
25761W        W93979  19.603  43.096   4.122
25762W        W93980  41.373  29.503  10.542
25763W        W93981  19.096  18.356   2.603
25764W        W93982  36.134  34.877  13.979
25765W        W93983   0.230  29.117   3.553
25766W        W93984  30.845  40.245  13.503
25767W        W93985  12.752  34.137   4.798
25768W        W93986  41.284  15.362   2.824
25769W        W93987  28.563  25.308   0.876
25770W        W93988  40.443  33.867  10.863
25771W        W93989  41.435  39.686  12.346
25772W        W93990  36.190  25.448  14.795
25773W        W93991  23.304  40.992  11.439
25774W        W93992  16.664   5.152  12.884
25775W        W93993  21.205   2.963  11.491
25776W        W93994  19.254  10.911   2.559
25777W        W93995  40.290  19.052   3.156
25778W        W93996  19.780  29.799   0.031
25779W        W93997  12.874  25.125  13.731
25780W        W93998  14.224  34.036  11.017
25781W        W93999  17.777   8.963   1.396
25782W        W94000  15.332   6.467   2.127
25783W        W94001  15.282  36.128  12.863
25784W        W94002  33.481  43.308  11.905
25785W        W94003  14.744  44.710   3.678
25786W        W94004   8.246   3.327  13.725
25787W        W94005  23.489  17.631   2.262
25788W        W94006   1.062  34.650  13.588
25789W        W94007  13.352  38.947   9.838
25790W        W94008   1.741   2.307   5.003
25791W        W94009  17.015  23.464  11.538
25792W        W94010  37.646  22.150  10.220
25793W        W94011  16.581  26.459   4.748
25794W        W94012  29.119   7.715  12.076
25795W        W94013  39.880  43.244   0.363
25796W        W94014  39.970  34.720   5.069
25797W        W94015  42.037  19.595  10.597
25798W        W94016  44.483  19.608   1.916
25799W        W94017  24.746   6.101  12.981
25800W        W94018   0.021  38.409  14.197
25801W        W94019   5.669  11.271  14.271
25802W        W94020  29.993   3.349   4.802
25803W        W94021  32.333  31.829   0.278
25804W        W94022  42.041  41.886  12.904
25805W        W94023  23.877  19.179  11.761
25806W        W94024  27.646  35.077   0.389
25807W        W94025  35.365  39.448   4.611
25808W        W94026  22.029  22.552  13.232
25809W        W94027  32.338  32.005  12.095
25810W        W94028  10.812  42.252   3.643
25811W        W94029  13.385  29.193  13.986
25812W        W94030  26.158   4.952   2.913
25813W        W94031   0.757  25.041  10.581
25814W        W94032  18.738  42.066  11.336
25815W        W94033  39.652  30.347  11.547
25816W        W94034  42.592  28.960  10.437
25817W        W94035  42.608  30.357  10.937
25818W        W94036  10.652  23.728  13.397
25819W        W94037   6.263   7.845  10.224
25820W        W94038  23.209   5.273  12.127
25821W        W94039   1.797  26.744   1.485
25822W        W94040  40.866  41.829   2.514
25823W        W94041  26.691  31.098   2.125
25824W        W94042  19.555   3.666   0.520
25825W        W94043  19.024  12.297   2.574
25826W        W94044   5.736  13.622  14.774
25827W        W94045  44.822  29.421  10.668
25828W        W94046  31.093  32.624  14.884
25829W        W94047  26.611  10.887   2.184
25830W        W94048  41.627   7.053   3.106
25831W        W94049  30.804  28.439   4.513
25832W        W94050  21.118   0.362   0.844
25833W        W94051  16.245  38.090  11.675
25834W        W94052   6.443  16.676  11.640
25835W        W94053   4.953  37.012   4.261
25836W        W94054  24.371  30.534   4.919
25837W        W94055  11.599  26.731  10.533
25838W        W94056  26.221  14.009   4.405
25839W        W94057  35.838   5.862   0.685
25840W        W94058  34.919  39.994   3.677
25841W        W94059   9.442  31.472  13.048
25842W        W94060  31.086  37.391   1.648
25843W        W94061  18.991   8.312  10.620
25844W        W94062  28.074  30.019  11.467
25845W        W94063  27.208  14.270  11.149
25846W        W94064   3.855  44.929   1.936
25847W        W94065  24.235  40.782   2.218
25848W        W94066   3.760  43.946   1.797
25849W        W94067   1.526   5.810  14.374
25850W        W94068  40.075   4.781   4.832
25851W        W94069  22.871   8.292   3.817
25852W        W94070  18.650   5.203   2.966
25853W        W94071  17.914  27.810   2.205
25854W        W94072  11.490  30.207  14.449
25855W        W94073  15.776  35.824   2.806
25856W        W94074  23.516  32.192  14.563
25857W        W94075   1.413   6.966  10.971
25858W        W94076   9.954  19.248   0.590
25859W        W94077  39.920  18.779   1.352
25860W        W94078  44.300  33.803   0.469
25861W        W94079   3.925  23.830   1.925
25862W        W94080  18.206   4.162   3.274
25863W        W94081  16.785  25.649  10.474
25864W        W94082  21.383   8.755  14.289
25865W        W94083  16.082  23.219  12.394
25866W        W94084  36.551  28.047   1.323
25867W        W94085   8.065  30.928  10.673
25868W        W94086  41.142  12.512  11.931
25869W        W94087  11.238  42.902  10.290
25870W        W94088  41.796  16.245   2.697
25871W        W94089  20.645  20.233   1.893
25872W        W94090   4.988  21.698  13.401
25873W        W94091  44.971   2.301   4.261
25874W        W94092  40.506  22.787   0.874
25875W        W94093  37.820   3.033  14.295
25876W        W94094  25.953   5.621   0.164
25877W        W94095   3.455  18.388   3.136
25878W        W94096  37.496   0.496   4.629
25879W        W94097  11.404  19.657   5.128
25880W        W94098  36.730  32.520  14.039
25881W        W94099  37.145  44.365   1.449
25882W        W94100  38.739  13.174   2.422
25883W        W94101  25.911  22.936   3.007
25884W        W94102  38.694  15.734   4.621
25885W        W94103  16.134  10.751   0.280
25886W        W94104  13.716   5.776   2.248
25887W        W94105   6.759  12.051   1.395
25888W        W94106  15.563  28.270   3.697
25889W        W94107   5.191  26.144   2.643
25890W        W94108  37.897  24.644  14.950
25891W        W94109   6.558  19.210   0.682
25892W        W94110  10.271  33.031  10.227
25893W        W94111  14.925  40.330  10.946
25894W        W94112  17.532   4.802   2.301
25895W        W94113  35.630  20.104   2.722
25896W        W94114   1.300  14.185   0.983
25897W        W94115  31.354  19.038  12.596
25898W        W94116  27.457  12.407  11.743
25899W        W94117  27.258  31.089   3.847
25900W        W94118  37.549  11.674   4.857
25901W        W94119  28.928   5.452   3.202
25902W        W94120   8.363   1.365  11.706
25903W        W94121  38.043  32.965  14.904
25904W        W94122  21.465   8.741  10.745
25905W        W94123  25.774   6.425  14.032
25906W        W94124  28.009  43.318  14.749
25907W        W94125  27.632  42.920   3.834
25908W        W94126  28.709  14.227  14.046
25909W        W94127   7.338  12.748   2.007
25910W        W94128  16.664  39.323  12.882
25911W        W94129  12.673  44.793   2.253
25912W        W94130  24.489  11.152   4.515
25913W        W94131  11.107  31.493   0.639
25914W        W94132  38.407  23.715   2.639
25915W        W94133   7.886  14.990   2.449
25916W        W94134   8.588  25.627  10.784
25917W        W94135  43.009   7.837  11.666
25918W        W94136  12.260  38.405   3.837
25919W        W94137  24.212  23.274  14.536
25920W        W94138  33.936  13.048  11.979
25921W        W94139  43.456   0.736  14.843
25922W        W94140  11.146  43.074  11.577
25923W        W94141  24.277   2.761   0.880
25924W        W94142  33.775  25.461   9.899
25925W        W94143  10.788  35.500  12.892
25926W        W94144  39.652   1.108   3.741
25927W        W94145  34.822  18.746   1.519
25928W        W94146  29.318   6.776   0.396
25929W        W94147  10.596   4.485  13.381
25930W        W94148  36.727  40.919  11.174
25931W        W94149   0.788  13.122  12.078
25932W        W94150   2.335  37.439   0.949
25933W        W94151  42.514  18.764   0.429
25934W        W94152  27.755  31.472   3.193
25935W        W94153   0.534   5.934   4.149
25936W        W94154  39.258  10.119   4.745
25937W        W94155   2.711  39.353   1.688
25938W        W94156  32.896  23.189  14.036
25939W        W94157  15.127  14.449  13.980
25940W        W94158   4.174  18.212  13.561
25941W        W94159  39.131  28.917   1.411
25942W        W94160  38.422  25.782   0.236
25943W        W94161  43.506  38.494   1.888
25944W        W94162  18.247  31.863   3.588
25945W        W94163  39.918  29.896   4.849
25946W        W94164  30.009  26.493   4.554
25947W        W94165  17.098  19.787   2.291
25948W        W94166  25.189  36.838  13.962
25949W        W94167  12.579   6.286  11.543
25950W        W94168   8.777   2.839   1.702
25951W        W94169   7.367  29.076  10.956
25952W        W94170  27.349  18.039  10.348
25953W        W94171  38.286  36.964   3.180
25954W        W94172  15.737  12.240  10.650
25955W        W94173   8.169  22.206   2.877
25956W        W94174   1.682  20.687   0.462
25957W        W94175  42.379  30.776   1.737
25958W        W94176  28.552  23.720   3.561
25959W        W94177   7.861   6.866   0.977
25960W        W94178   3.970  22.807  12.584
25961W        W94179  31.943  19.907  13.498
25962W        W94180  19.962  10.537  10.662
25963W        W94181  35.546  25.532   2.410
25964W        W94182  32.095  38.911   0.732
25965W        W94183   0.999  31.614   4.180
25966W        W94184   4.271  44.869   0.040
25967W        W94185  27.786  42.304   0.275
25968W        W94186  14.762  21.704  13.905
25969W        W94187  15.625  26.194   1.905
25970W        W94188   9.744   9.894  12.359
25971W        W94189  20.134  12.604  11.218
25972W        W94190  16.995  40.023  14.966
25973W        W94191  20.245  39.880   1.174
25974W        W94192  30.919  36.399   1.147
25975W        W94193  19.849  21.070  12.500
25976W        W94194  34.130  22.697  14.391
25977W        W94195  37.425   1.283  10.530
25978W        W94196  10.371   0.810   3.457
25979W        W94197  15.234  37.877  12.616
25980W        W94198  41.383   1.970   3.219
25981W        W94199  21.065   8.251   0.947
25982W        W94200  32.518   6.492   3.479
25983W        W94201  15.697  15.373  10.479
25984W        W94202  41.927   0.033   1.310
25985W        W94203  43.101  27.484  14.265
25986W        W94204  40.875  35.979  14.038
25987W        W94205  33.455   9.620  13.261
25988W        W94206   0.309  18.159  12.513
25989W        W94207  23.438  37.584   3.803
25990W        W94208  17.213  33.623  13.956
25991W        W94209  38.791  10.660  12.001
25992W        W94210   4.722  18.195   2.200
25993W        W94211   5.639  36.334  10.811
25994W        W94212  44.340   4.284  12.931
25995W        W94213  26.044  18.610   3.301
25996W        W94214  10.617  10.879   1.670
25997W        W94215  10.736  44.512   1.687
25998W        W94216  36.409  18.650   4.818
25999W        W94217  32.894  13.824  14.043
26000W        W94218  34.336  15.185  12.389
26001W        W94219   7.269  26.276   2.476
26002W        W94220  23.958  13.893  14.906
26003W        W94221  19.067   5.162   1.234
26004W        W94222  31.703   5.704   4.554
26005W        W94223  20.581  23.235   1.702
26006W        W94224  24.998  21.949   3.304
26007W        W94225   8.818  27.065   2.864
26008W        W94226   9.225  16.690  11.866
26009W        W94227   6.832   8.420  11.097
26010W        W94228  28.178  29.084  14.759
26011W        W94229  21.251  20.464   3.627
26012W        W94230  17.990  36.642   4.115
26013W        W94231   6.130  37.890  11.262
26014W        W94232  37.917  16.755  13.401
26015W        W94233  18.737  39.972  13.938
26016W        W94234  24.737   0.003  12.981
26017W        W94235  28.650  39.988  14.540
26018W        W94236  39.360  37.060   2.429
26019W        W94237  28.715  31.443  14.515
26020W        W94238  29.024   7.320  13.790
26021W        W94239   2.096  39.073  12.944
26022W        W94240  19.838  42.303   0.267
26023W        W94241   5.047  13.605   0.333
26024W        W94242  43.417  33.339   1.365
26025W        W94243  44.497  29.362   1.608
26026W        W94244  39.962  13.130  12.792
26027W        W94245  37.400  38.270   0.925
26028W        W94246  31.513  32.002   3.526
26029W        W94247  41.180  38.135   0.326
26030W        W94248  25.999  19.047   4.180
26031W        W94249  34.961  44.486   4.592
26032W        W94250  21.185  10.160  11.561
26033W        W94251  28.752  13.416   3.072
26034W        W94252  10.276  19.550   3.263
26035W        W94253  14.574   2.381   0.870
26036W        W94254   8.361  41.803   3.750
26037W        W94255  31.572  24.778  11.115
26038W        W94256   1.709  29.576   0.867
26039W        W94257  12.536  12.828  13.018
26040W        W94258   0.927   0.428   3.674
26041W        W94259  19.133  28.474   0.623
26042W        W94260  26.671  14.236   2.491
26043W        W94261  44.339  25.245   4.396
26044W        W94262   6.394  16.345   2.753
26045W        W94263  20.619  44.027  12.535
26046W        W94264  24.982  11.695   3.181
26047W        W94265  29.930  21.253   4.547
26048W        W94266  35.902  18.172  13.298
26049W        W94267   8.905  26.737   1.331
26050W        W94268   1.855  22.892  10.552
26051W        W94269  11.070   6.791   4.127
26052W        W94270  27.073  34.363  13.673
26053W        W94271  36.911  17.927   3.154
26054W        W94272  28.414  29.622   2.125
26055W        W94273  18.512  17.600   1.378
26056W        W94274  13.751   0.792   3.077
26057W        W94275  44.599  39.387  14.552
26058W        W94276  16.639  30.666  11.927
26059W        W94277  23.957  27.204   0.889
26060W        W94278  17.566  16.068   1.860
26061W        W94279   5.617   2.987  12.584
26062W        W94280  24.375  18.098  14.831
26063W        W94281   8.164   7.657  11.058
26064W        W94282   8.387  25.261   2.754
26065W        W94283   5.220  25.588   3.326
26066W        W94284  24.525  39.530   3.388
26067W        W94285   6.812  10.595   2.383
26068W        W94286  43.537  14.589   4.259
26069W        W94287  18.129  32.653  14.223
26070W        W94288  11.767   7.174   4.902
26071W        W94289  37.425  22.484  13.767
26072W        W94290  10.102   8.834   2.260
26073W        W94291  21.679   0.589  13.598
26074W        W94292   7.795  28.589   4.447
26075W        W94293   9.631  31.441  12.388
26076W        W94294   8.853  18.352   0.719
26077W        W94295  27.576   8.067  14.396
26078W        W94296   0.855  22.791   2.820
26079W        W94297  26.386  16.369  11.598
26080W        W94298  39.257  28.219   1.429
26081W        W94299  31.454  25.076   0.317
26082W        W94300   3.643  36.455   4.914
26083W        W94301  44.223  22.079   2.794
26084W        W94302  26.463  21.175   3.603
26085W        W94303  43.669  40.576   4.286
26086W        W94304   1.199  12.603  12.840
26087W        W94305  26.056  30.099   2.956
26088W        W94306  38.024   4.727   3.337
26089W        W94307  25.313  21.074  10.852
26090W        W94308  40.185  43.610  11.099
26091W        W94309  24.538  15.648  14.353
26092W        W94310   7.268  41.050   0.227
26093W        W94311  38.879  17.209   1.143
26094W        W94312  34.860  24.046  12.540
26095W        W94313  25.721   8.680  11.167
26096W        W94314   7.435   8.775   3.634
26097W        W94315  22.184   7.418   1.261
26098W        W94316  26.666   3.669  13.354
26099W        W94317   3.226  32.399   4.086
26100W        W94318  15.225  23.738  10.584
26101W        W94319  32.475  31.273   4.745
26102W        W94320  36.545  30.510  14.243
26103W        W94321  44.044  36.893   0.472
26104W        W94322   2.385  17.959   2.803
26105W        W94323  29.778  30.543   2.700
26106W        W94324  34.079   6.904  13.051
26107W        W94325  11.357  25.630  14.476
26108W        W94326  29.718  36.957   3.745
26109W        W94327  22.799  13.286  12.012
26110W        W94328  28.569  22.460  13.774
26111W        W94329   5.900  30.320   0.737
26112W        W94330  25.064  23.842  11.567
26113W        W94331   8.820  20.287   5.043
26114W        W94332  42.975   8.390   0.363
26115W        W94333   1.760  32.425  13.405
26116W        W94334  12.435   6.650   2.756
26117W        W94335   7.853   9.906   2.311
26118W        W94336  14.954  39.456  14.303
26119W        W94337  33.236  26.049   2.269
26120W        W94338  29.555  17.537  13.903
26121W        W94339  41.614  25.131   4.972
26122W        W94340  27.683  25.182   0.930
26123W        W94341  36.098   1.290   0.809
26124W        W94342  43.535  37.935   4.346
26125W        W94343   2.266  16.059  12.110
26126W        W94344   1.991   9.759  13.542
26127W        W94345   5.828  18.690   2.788
26128W        W94346  44.966  28.953  12.480
26129W        W94347   7.838  15.100   3.331
26130W        W94348  10.723  13.015   1.759
26131W        W94349   0.155  30.687  12.808
26132W        W94350  28.144  24.205   4.135
26133W        W94351  33.943  32.970  11.840
26134W        W94352  41.325  21.041   2.935
26135W        W94353  39.096  38.312   3.066
26136W        W94354   4.990  20.639   1.341
26137W        W94355  34.534  28.675  11.630
26138W        W94356   4.817  16.026  13.052
26139W        W94357   5.137  19.098  11.555
26140W        W94358  39.214  31.532  11.889
26141W        W94359  28.399   3.874   3.750
26142W        W94360  33.984  16.177  13.821
26143W        W94361   2.677  44.592  11.231
26144W        W94362  35.113   7.407   3.126
26145W        W94363  10.919  32.422   4.762
26146W        W94364   6.938  15.262  12.661
26147W        W94365  21.816  32.846   0.864
26148W        W94366  25.573   7.854   0.249
26149W        W94367  27.735  33.116   3.627
26150W        W94368  12.163  39.368  10.764
26151W        W94369  32.904   3.388  12.060
26152W        W94370  40.289  32.987   1.783
26153W        W94371   0.069  15.068   2.145
26154W        W94372  18.596  18.153   1.910
26155W        W94373  34.133  19.532  11.654
26156W        W94374  44.910   4.650  10.263
26157W        W94375  25.178   3.012  14.484
26158W        W94376  44.477  44.483  12.579
26159W        W94377  29.039   2.409  12.405
26160W        W94378   1.761  37.442  11.026
26161W        W94379   3.512  25.966   3.039
26162W        W94380   8.763  32.682  14.291
26163W        W94381  39.412   8.343   4.481
26164W        W94382  20.584  36.503   5.018
26165W        W94383   3.782  11.168   3.767
26166W        W94384  10.674  31.577   2.175
26167W        W94385  23.493  40.586   1.820
26168W        W94386  35.483  41.215  12.676
26169W        W94387  28.024  41.522  14.833
26170W        W94388   4.786   0.330  13.541
26171W        W94389  19.607  29.525   2.748
26172W        W94390  18.614  32.047  13.549
26173W        W94391   0.287  23.238  14.029
26174W        W94392   9.385  25.489   0.226
26175W        W94393  39.336  22.078   1.256
26176W        W94394  30.240  36.094   4.653
26177W        W94395  35.951   8.471  12.018
26178W        W94396  11.765  28.870   0.247
26179W        W94397   0.453   8.921  12.156
26180W        W94398  24.023  41.571  14.755
26181W        W94399  29.433   2.242   4.187
26182W        W94400  37.858  19.709   3.708
26183W        W94401  17.506  32.553   0.847
26184W        W94402  15.725  24.472  13.506
26185W        W94403  15.965  40.797  11.660
26186W        W94404   0.726  28.049   3.181
26187W        W94405  12.886  32.156  14.371
26188W        W94406  42.826  43.316  14.256
26189W        W94407  14.698  22.505   3.098
26190W        W94408  39.454  18.709  10.938
26191W        W94409   0.064  41.293   3.309
26192W        W94410  32.980  25.749   3.482
26193W        W94411  39.904  29.475   2.633
26194W        W94412  41.914  24.459   3.524
26195W        W94413  11.409  43.857  11.927
26196W        W94414  33.365   0.933   2.243
26197W        W94415  34.641  30.778   2.772
26198W        W94416  19.352  20.027  14.072
26199W        W94417  32.960  34.834   1.518
26200W        W94418  18.069  41.260   3.224
26201W        W94419   9.524  42.484   2.876
26202W        W94420  26.576  35.340   2.608
26203W        W94421  40.911  17.050  13.993
26204W        W94422  36.842  33.969   4.624
26205W        W94423   4.352  23.651   0.941
26206W        W94424   4.652  35.491  12.193
26207W        W94425  22.659  40.023   0.319
26208W        W94426  26.866  11.527   1.809
26209W        W94427   4.299   2.629   4.051
26210W        W94428  25.947  42.365  12.606
26211W        W94429  30.883  39.377   1.318
26212W        W94430   2.656  26.606   1.624
26213W        W94431   7.506  32.723  11.629
26214W        W94432  39.732  22.560   2.718
26215W        W94433  18.974  14.196   3.652
26216W        W94434  18.349   5.525  10.661
26217W        W94435  29.848  22.617  14.943
26218W        W94436  37.278  24.651   1.814
26219W        W94437  30.447  30.249   4.611
26220W        W94438   8.391   7.900   0.273
26221W        W94439  24.459   3.388   1.847
26222W        W94440  10.803   8.088  13.883
26223W        W94441  25.212  20.661   4.241
26224W        W94442  28.111  22.302   4.863
26225W        W94443   6.165  17.982   0.319
26226W        W94444   5.337  22.615   5.032
26227W        W94445  36.449   6.817   1.885
26228W        W94446  16.513  23.728   2.285
26229W        W94447  32.481  41.287   1.749
26230W        W94448   5.998  11.793   1.810
26231W        W94449  11.772  34.083   1.889
26232W        W94450  34.838  20.128  14.020
26233W        W94451  41.132   5.326   2.892
26234W        W94452  36.423  14.575   3.721
26235W        W94453  34.662   9.293  12.986
26236W        W94454   7.093  18.103  10.771
26237W        W94455  40.553  29.492  13.971
26238W        W94456  10.814   7.256   0.375
26239W        W94457   0.497  42.945  11.873
26240W        W94458  31.244   8.730   3.381
26241W        W94459  22.161  21.646  12.004
26242W        W94460  39.402  32.947   0.280
26243W        W94461  25.942  36.524   1.666
26244W        W94462  25.023  36.808   3.309
26245W        W94463  20.176  31.680  12.495
26246W        W94464   8.811  43.251  13.120
26247W        W94465  36.994  34.454  10.583
26248W        W94466  39.553  25.512  13.958
26249W        W94467  18.621  20.633   2.211
26250W        W94468  34.980   0.497  11.969
26251W        W94469  28.910   3.151   3.195
26252W        W94470  33.887   0.534  12.667
26253W        W94471  28.296  14.875  11.920
26254W        W94472  39.939  36.570  12.735
26255W        W94473  35.294  15.766  14.934
26256W        W94474  29.916  29.054   1.800
26257W        W94475  10.367  27.527  11.235
26258W        W94476  21.024  34.635  14.370
26259W        W94477   8.917   4.402  14.893
26260W        W94478   1.037   7.125  13.711
26261W        W94479  43.745  14.295  13.611
26262W        W94480  17.834  33.740   2.569
26263W        W94481  30.189   7.819  13.563
26264W        W94482  14.124  19.920  14.947
26265W        W94483   2.858  32.079   3.884
26266W        W94484  40.395  31.699   2.792
26267W        W94485  35.486  15.412  14.556
26268W        W94486   6.011   4.872  12.148
26269W        W94487  38.648  35.913   4.983
26270W        W94488   0.386  28.908  11.964
26271W        W94489  16.849  42.978  14.330
26272W        W94490  44.390  28.526   3.582
26273W        W94491   6.874  14.170  14.297
26274W        W94492  39.476  12.564   0.062
26275W        W94493  21.386  18.207   2.783
26276W        W94494  33.289  18.068   1.808
26277W        W94495   3.554  31.658   0.852
26278W        W94496  10.791   2.892  11.444
26279W        W94497  10.492  15.269  10.215
26280W        W94498  44.520  33.057  14.452
26281W        W94499  10.317   9.193  11.905
26282W        W94500  42.482  36.976   3.391
26283W        W94501  13.221  28.679   2.738
26284W        W94502  41.435  41.734   0.020
26285W        W94503  30.976  44.445  10.553
26286W        W94504  22.211  16.350  12.551
26287W        W94505   9.493   9.414   1.946
26288W        W94506  41.278  10.097  13.285
26289W        W94507  31.972  42.135   4.140
26290W        W94508  26.522  26.509   2.263
26291W        W94509   2.799  29.509   0.275
26292W        W94510  39.582  31.374   1.761
26293W        W94511   9.436   9.412   3.891
26294W        W94512   7.397  21.640   0.034
26295W        W94513  17.850  28.927  11.585
26296W        W94514   9.911  42.892  11.758
26297W        W94515   6.924  40.987   0.897
26298W        W94516  38.440   0.476  11.080
26299W        W94517  25.962  35.101   4.209
26300W        W94518  10.250  33.569   1.864
26301W        W94519  43.497   8.533  10.837
26302W        W94520  17.280  13.272   0.767
26303W        W94521  22.166  28.581  12.065
26304W        W94522   5.307  27.886   4.142
26305W        W94523  15.434  17.307  12.529
26306W        W94524  21.896  34.637  13.029
26307W        W94525   4.511  31.977   1.708
26308W        W94526   5.931  43.939   4.789
26309W        W94527  43.516  37.345  12.367
26310W        W94528  39.841  20.799   1.218
26311W        W94529  39.796  37.314  14.860
26312W        W94530   7.254   0.142  12.427
26313W        W94531  33.124  26.145   2.770
26314W        W94532  32.210  40.441  10.757
26315W        W94533   2.922  34.747  11.199
26316W        W94534  12.300  40.825   1.360
26317W        W94535   7.347  12.327   1.355
26318W        W94536  39.064  31.992  10.024
26319W        W94537   1.189  11.760  13.931
26320W        W94538   0.831  28.679  13.982
26321W        W94539   8.183  14.792  14.547
26322W        W94540  31.424   6.806  12.531
26323W        W94541  21.687   9.906   1.875
26324W        W94542  17.254  15.994  11.435
26325W        W94543   8.575  32.197   1.747
26326W        W94544  37.604  32.615  13.329
26327W        W94545  20.447  22.576   3.777
26328W        W94546  23.162  18.675   1.807
26329W        W94547  26.049  40.119   2.737
26330W        W94548  31.378  35.848   0.372
26331W        W94549  22.427  24.109   0.753
26332W        W94550  31.559   4.050   0.199
26333W        W94551  16.186   7.675  10.954
26334W        W94552  19.882  26.553  10.803
26335W        W94553  43.463  31.185   1.248
26336W        W94554  27.416   7.701   2.299
26337W        W94555  37.314   9.587   3.310
26338W        W94556  13.815  11.294   4.557
26339W        W94557  41.325  25.102  13.788
26340W        W94558  37.536   4.467  14.400
26341W        W94559   8.645  38.839  14.916
26342W        W94560  17.116   7.425  12.062
26343W        W94561  23.021  30.846  14.111
26344W        W94562  32.491  17.001  10.007
26345W        W94563   9.629  25.039   4.564
26346W        W94564  30.567   7.699   1.446
26347W        W94565  19.226   6.023   3.239
26348W        W94566  44.426  31.509   2.704
26349W        W94567  29.605  12.202  14.539
26350W        W94568  26.677  21.230  14.503
26351W        W94569  35.022  11.297   2.309
26352W        W94570  15.320   9.394  13.965
26353W        W94571  22.659  12.536  10.350
26354W        W94572  11.819  36.475  12.918
26355W        W94573   1.706  28.539   1.726
26356W        W94574   4.373  25.102   4.978
26357W        W94575  36.719  43.421   2.713
26358W        W94576  40.848  31.440  14.799
26359W        W94577  44.554  22.159   0.887
26360W        W94578  27.631  26.443   1.841
26361W        W94579   1.720  28.649   0.944
26362W        W94580  26.303  38.106  12.812
26363W        W94581  41.578  34.490  13.584
26364W        W94582   8.671  33.631   0.687
26365W        W94583  38.910   4.357  10.715
26366W        W94584   5.745  19.198   3.461
26367W        W94585   7.483   8.198   4.474
26368W        W94586  37.120  25.674   0.299
26369W        W94587   3.238  30.459   4.879
26370W        W94588   6.336   8.447  11.565
26371W        W94589   2.375  14.356  14.487
26372W        W94590  40.712  37.758  12.392
26373W        W94591  32.207  23.505  11.470
26374W        W94592  29.606   0.603  10.894
26375W        W94593  34.325   4.804   4.670
26376W        W94594  10.826  38.824   1.442
26377W        W94595   9.745  35.480  13.812
26378W        W94596  24.288  38.946   0.513
26379W        W94597  39.607  39.867   3.286
26380W        W94598  38.352  10.398   4.622
26381W        W94599  40.246  24.240   5.092
26382W        W94600  33.113  13.982  12.754
26383W        W94601  10.949  41.125   2.838
26384W        W94602  14.380  32.410  10.407
26385W        W94603  27.286  20.638   3.615
26386W        W94604  18.685   5.801   2.373
26387W        W94605  28.502  32.371   1.328
26388W        W94606  10.867  37.939   3.726
26389W        W94607  16.622  38.180   1.222
26390W        W94608  26.556  28.674   1.396
26391W        W94609  22.491  18.704  11.650
26392W        W94610   4.483  10.257   3.215
26393W        W94611  36.021  25.595  13.327
26394W        W94612  27.933  28.394  13.515
26395W        W94613  42.082  14.173   4.223
26396W        W94614  30.438  24.123  10.573
26397W        W94615  38.835  14.329  13.551
26398W        W94616  28.043  39.915   3.195
26399W        W94617  31.212  29.607  12.079
26400W        W94618  10.762  18.039  11.113
26401W        W94619  19.116   1.092  10.648
26402W        W94620  40.777   5.219   0.478
26403W        W94621   9.123   7.137  13.403
26404W        W94622  19.551  10.378  14.426
26405W        W94623  16.859  39.990   1.703
26406W        W94624   2.272  30.195   0.470
26407W        W94625  32.596  29.662  13.010
26408W        W94626  17.802  43.889  10.204
26409W        W94627  36.641   6.340   4.091
26410W        W94628   6.981   1.870  14.753
26411W        W94629  11.157   1.442   4.264
26412W        W94630   1.271  33.148  12.003
26413W        W94631  28.227  35.430   3.579
26414W        W94632  44.809  34.541   4.702
26415W        W94633   9.147  43.369  10.702
26416W        W94634  17.747  15.303   3.600
26417W        W94635   5.150  40.900   1.832
26418W        W94636   6.453  38.311  12.984
26419W        W94637  22.845  42.409   0.461
26420W        W94638   7.427   4.812   2.815
26421W        W94639   8.275   6.064  13.089
26422W        W94640  36.943   7.795   0.419
26423W        W94641  25.074  13.496   5.059
26424W        W94642  13.557   7.362  11.583
26425W        W94643  13.351  25.812   4.156
26426W        W94644  44.060  29.039   3.285
26427W        W94645  33.099  38.130   0.145
26428W        W94646  39.423  40.497   1.212
26429W        W94647  40.449  31.023   2.092
26430W        W94648  29.521   9.189  10.428
26431W        W94649   4.856   0.246  10.602
26432W        W94650  36.254   9.243   1.826
26433W        W94651  37.580  27.141  12.835
26434W        W94652  28.174  35.043  11.599
26435W        W94653  28.422   7.322  13.546
26436W        W94654  37.533  40.527   2.219
26437W        W94655   1.994  37.364  11.484
26438W        W94656  41.476  33.479   1.175
26439W        W94657  39.563  40.556   3.610
26440W        W94658   6.546  20.115   0.023
26441W        W94659  18.521  36.856  10.184
26442W        W94660  14.565  37.659   3.776
26443W        W94661  32.922  24.614  11.845
26444W        W94662  31.919  39.867   0.315
26445W        W94663  43.189  40.905  13.528
26446W        W94664  33.003  14.729   4.491
26447W        W94665  15.721  39.313   1.686
26448W        W94666  15.719  24.146   4.572
26449W        W94667  11.614  25.139   4.587
26450W        W94668  18.734  24.339   4.254
26451W        W94669  20.573  32.649   4.642
26452W        W94670  32.980  35.391  11.168
26453W        W94671  34.515  30.013  14.318
26454W        W94672  20.693  38.442   4.278
26455W        W94673  24.487  24.077   4.595
26456W        W94674  10.337  30.165   0.312
26457W        W94675  26.043  40.821   3.916
26458W        W94676   9.696  28.137  12.331
26459W        W94677  20.211  27.511   0.465
26460W        W94678  11.832  28.547   4.032
26461W        W94679  43.936   4.738   2.303
26462W        W94680  12.548  10.805   0.896
26463W        W94681  18.220   4.768  12.464
26464W        W94682  15.501  25.055   2.879
26465W        W94683  16.954  22.966  11.387
26466W        W94684  32.189   9.747   3.805
26467W        W94685  31.910  30.503   4.323
26468W        W94686   1.918   2.281  13.857
26469W        W94687  28.511  30.094   0.707
26470W        W94688   3.913  17.540  12.523
26471W        W94689  37.686  26.436   5.045
26472W        W94690  25.069  32.883  11.633
26473W        W94691  12.073   0.246   9.790
26474W        W94692  11.623  28.455  14.681
26475W        W94693  13.451  38.542   0.795
26476W        W94694   4.444  16.685  14.084
26477W        W94695  21.641  38.082  11.537
26478W        W94696   8.855  35.666  14.444
26479W        W94697   6.613  22.736  14.996
26480W        W94698  37.384  43.560  12.004
26481W        W94699  23.972  10.375   0.917
26482W        W94700  43.681  24.993  11.469
26483W        W94701  36.572  34.445   4.628
26484W        W94702  38.051  10.192  13.958
26485W        W94703  32.137  29.124   2.918
26486W        W94704  36.301  28.811   4.177
26487W        W94705  23.662  28.493   0.008
26488W        W94706  10.332   6.868   0.673
26489W        W94707  16.183  36.807  11.647
26490W        W94708  28.959  12.480  14.117
26491W        W94709  10.627  37.926  12.582
26492W        W94710   5.303  26.967  11.468
26493W        W94711  37.933  23.374   4.624
26494W        W94712  23.632  37.781  13.069
26495W        W94713  24.645  32.579  13.560
26496W        W94714  34.514  14.753  13.962
26497W        W94715  13.164  25.304  11.165
26498W        W94716   6.873  26.800  12.934
26499W        W94717  33.862  34.314   0.283
26500W        W94718   7.444   3.945  11.195
26501W        W94719  39.414  11.857  14.278
26502W        W94720   6.882  34.522  12.574
26503W        W94721  30.017  24.037  10.852
26504W        W94722  38.638  25.330   2.409
26505W        W94723  33.169  36.526   2.868
26506W        W94724  40.488   4.808  14.883
26507W        W94725  27.398   0.688  14.484
26508W        W94726  14.386  23.633   2.991
26509W        W94727  36.614   4.748   4.199
26510W        W94728  43.388  37.023  14.369
26511W        W94729  40.433  26.871   2.854
26512W        W94730  15.873  17.518   1.878
26513W        W94731  42.990   5.879   1.396
26514W        W94732   3.446   4.780  10.670
26515W        W94733  39.067   1.247   0.731
26516W        W94734  41.922   1.544  11.160
26517W        W94735  11.442   7.325   4.487
26518W        W94736   7.282  43.633   5.153
26519W        W94737  11.084  22.451  12.423
26520W        W94738  26.539  34.413   3.621
26521W        W94739  18.250  16.670  14.382
26522W        W94740  32.933  35.921  11.167
26523W        W94741  28.873   3.145   1.136
26524W        W94742  17.512  40.540   1.516
26525W        W94743   3.763  37.462   4.581
26526W        W94744   8.191   1.756  10.555
26527W        W94745  17.480  15.589   4.220
26528W        W94746  33.621  22.181   4.121
26529W        W94747  10.771  21.973   3.238
26530W        W94748   8.679  29.044  11.132
26531W        W94749  27.698  10.054  10.798
26532W        W94750  33.703  14.605  10.282
26533W        W94751  35.353  42.083   0.043
26534W        W94752  23.155  12.391   3.658
26535W        W94753   4.781   1.735   2.224
26536W        W94754  35.868   6.880   0.725
26537W        W94755   9.154  41.496  14.100
26538W        W94756  34.445   7.658   2.285
26539W        W94757  42.864  42.386  10.742
26540W        W94758  41.330  35.924   4.144
26541W        W94759  42.281   4.307  12.015
26542W        W94760  32.826  36.596   0.503
26543W        W94761  19.437  44.749  11.213
26544W        W94762  31.517  42.289  12.047
26545W        W94763  18.944  32.837   2.767
26546W        W94764   4.241  25.856   0.289
26547W        W94765  20.608  22.640   0.958
26548W        W94766   9.438  29.683   0.055
26549W        W94767   7.425  35.997   2.374
26550W        W94768   8.923  10.501  12.859
26551W        W94769  43.820  31.508   1.491
26552W        W94770  13.344  18.395  11.921
26553W        W94771  17.229  21.772   0.273
26554W        W94772  15.296   1.713  11.014
26555W        W94773   0.546   9.154   4.788
26556W        W94774  24.024  19.846   4.610
26557W        W94775  34.646  10.646  13.354
26558W        W94776  32.733  29.354   4.271
26559W        W94777  20.617  28.933  12.129
26560W        W94778   5.199  35.018  14.144
26561W        W94779   9.874  36.843   4.273
26562W        W94780  41.985   8.002   1.928
26563W        W94781  27.628  37.072   4.732
26564W        W94782  13.634  40.517  13.969
26565W        W94783  22.229   4.866   1.764
26566W        W94784  12.218   3.545  12.115
26567W        W94785  27.135  39.368   4.348
26568W        W94786  35.055   2.233  11.453
26569W        W94787  17.186  21.819   1.406
26570W        W94788  38.879  38.940  11.974
26571W        W94789  42.408  20.222  10.410
26572W        W94790  19.494   1.800   3.868
26573W        W94791  27.694  22.517  10.344
26574W        W94792  40.682  29.693   0.333
26575W        W94793  11.865   3.352   0.392
26576W        W94794  23.677  30.521  10.476
26577W        W94795  35.031  31.462  12.471
26578W        W94796  36.354   5.998   3.792
26579W        W94797   2.330  36.426   2.293
26580W        W94798   8.803  24.118   1.486
26581W        W94799  21.033  25.680  12.536
26582W        W94800  11.303  28.284  11.562
26583W        W94801   4.882  12.753  13.130
26584W        W94802   4.848  43.210   4.627
26585W        W94803  21.100  38.908   3.364
26586W        W94804  24.933  14.204   0.408
26587W        W94805   6.445  25.443   1.698
26588W        W94806   4.034  36.938   3.321
26589W        W94807   0.005  24.615   0.048
26590W        W94808   7.828   9.637  10.610
26591W        W94809   6.922  35.400   3.282
26592W        W94810  25.049  26.147   4.545
26593W        W94811  18.034  20.459  12.655
26594W        W94812  31.116  44.322   3.654
26595W        W94813  25.201   4.494   4.133
26596W        W94814  24.720  26.758  14.663
26597W        W94815   9.100  10.712  12.408
26598W        W94816  41.879  41.521  13.296
26599W        W94817   1.225  23.974   4.101
26600W        W94818  29.562   4.277  13.259
26601W        W94819  29.165  15.127   1.644
26602W        W94820  36.480  37.466  13.405
26603W        W94821  13.652   2.923  10.977
26604W        W94822  34.903   4.854  13.889
26605W        W94823  21.704  24.120   2.697
26606W        W94824  18.245  44.748   4.878
26607W        W94825  15.666  10.706   3.271
26608W        W94826   9.239  37.688  11.132
26609W        W94827  37.053  16.545   0.209
26610W        W94828  35.385  11.387   4.187
26611W        W94829   0.833   4.873   2.797
26612W        W94830  24.240  20.661   2.113
26613W        W94831  23.604  36.313   2.744
26614W        W94832  34.639  32.889   2.635
26615W        W94833  19.733  21.554  14.585
26616W        W94834  36.011   2.622  13.080
26617W        W94835  39.462   6.305  14.419
26618W        W94836  33.073  30.085   9.926
26619W        W94837  27.957  25.755  13.696
26620W        W94838  35.335  44.753  14.026
26621W        W94839   7.298  14.320   4.562
26622W        W94840  40.967   1.311   3.864
26623W        W94841  27.902  11.449   2.689
26624W        W94842  35.308   4.879   4.907
26625W        W94843  28.154  42.287   4.139
26626W        W94844  14.808   8.790  13.686
26627W        W94845   2.840  23.565   2.621
26628W        W94846   4.306  36.904  14.676
26629W        W94847  29.447  24.997   0.252
26630W        W94848  35.748   9.201  11.177
26631W        W94849  12.458  25.044  11.728
26632W        W94850  20.312  21.788   2.264
26633W        W94851  36.503  11.339   3.121
26634W        W94852   1.825  30.944  14.974
26635W        W94853  38.081   1.353   0.788
26636W        W94854  34.237  27.956  11.179
26637W        W94855  42.948  34.215   0.692
26638W        W94856  12.168  15.120   1.972
26639W        W94857  14.261  23.727   4.627
26640W        W94858  17.730  18.820   2.679
26641W        W94859  35.769   3.679  10.971
26642W        W94860  32.007  30.246  11.976
26643W        W94861   3.847  38.426   4.810
26644W        W94862  26.463   7.377  13.610
26645W        W94863  32.697  11.295   0.101
26646W        W94864   6.770  39.521  14.195
26647W        W94865  35.594  43.209   1.340
26648W        W94866   1.819   3.414  14.582
26649W        W94867  39.212  39.727  10.200
26650W        W94868  23.208  31.214  13.316
26651W        W94869  14.239  21.176  10.585
26652W        W94870  14.769  13.120  14.055
26653W        W94871   5.291  28.625   0.270
26654W        W94872  21.986  33.180  11.577
26655W        W94873  16.828   8.428   3.172
26656W        W94874  32.568  28.025  14.621
26657W        W94875   5.970  35.392  11.134
26658W        W94876  18.667  10.638  13.878
26659W        W94877  15.961   7.199  13.853
26660W        W94878  40.755  36.002   0.438
26661W        W94879  14.399   2.630   2.620
26662W        W94880  29.652  18.685  14.487
26663W        W94881  24.632  33.311   1.212
26664W        W94882   9.235  31.890  13.320
26665W        W94883  39.841  26.766   0.821
26666W        W94884  23.976  18.834  12.161
26667W        W94885   0.419  40.807   0.061
26668W        W94886  39.704  21.126  11.029
26669W        W94887  11.097   8.320   1.928
26670W        W94888  35.487  25.796  12.172
26671W        W94889  30.283  17.173   0.561
26672W        W94890  17.356  25.553   0.780
26673W        W94891  13.543  15.069   1.138
26674W        W94892  38.815  15.794   2.653
26675W        W94893  20.873  17.967  12.592
26676W        W94894  10.236  40.477  10.167
26677W        W94895  40.254  27.688   3.825
26678W        W94896  12.262  29.162  11.665
26679W        W94897  27.366  28.576   4.723
26680W        W94898   1.056  35.967  12.016
26681W        W94899  27.731  11.923   0.544
26682W        W94900  36.025   9.962   2.316
26683W        W94901   3.102   3.364  11.981
26684W        W94902  24.721  43.918   0.929
26685W        W94903  42.598  28.778   2.301
26686W        W94904  15.968  28.652   2.246
26687W        W94905  41.440   4.722   4.544
26688W        W94906  36.610   2.731  11.021
26689W        W94907  27.041  29.648  14.090
26690W        W94908  25.801  27.215  14.380
26691W        W94909  43.101  38.538  10.323
26692W        W94910  41.486  29.590  12.533
26693W        W94911  44.224  15.738   3.670
26694W        W94912  34.009  28.924   3.721
26695W        W94913  10.849  12.113   2.999
26696W        W94914  13.842  17.688  11.458
26697W        W94915  29.911  42.805   1.244
26698W        W94916  32.178   6.650   1.522
26699W        W94917  28.686   4.181   0.848
26700W        W94918  39.339   5.080  10.319
26701W        W94919   4.233  43.979  14.418
26702W        W94920  16.047  19.311   1.695
26703W        W94921  39.888  16.177  12.622
26704W        W94922  28.096  24.550   0.491
26705W        W94923   7.331  32.417   0.211
26706W        W94924   6.179  36.846   0.881
26707W        W94925  43.913  19.535   3.801
26708W        W94926   0.486  32.035  12.905
26709W        W94927   6.719   8.034  14.954
26710W        W94928  41.335  39.867   2.378
26711W        W94929   8.416  33.747  12.038
26712W        W94930   3.817  37.466  11.204
26713W        W94931  36.476  32.238   4.235
26714W        W94932  40.611  11.626   0.015
26715W        W94933  21.793   3.421   4.784
26716W        W94934  39.105  36.848   2.823
26717W        W94935   6.507  22.053   3.495
26718W        W94936  30.135   9.793   4.041
26719W        W94937  12.716  13.319   1.868
26720W        W94938   0.492  33.318   1.798
26721W        W94939   2.627  28.443  13.998
26722W        W94940  21.523  30.136   0.456
26723W        W94941  18.695  20.242  13.504
26724W        W94942  13.254  16.239  11.846
26725W        W94943  24.078  33.087  13.589
26726W        W94944  20.751  42.452  13.025
26727W        W94945  39.111  17.491  13.952
26728W        W94946  37.033  16.259   0.685
26729W        W94947  16.127  30.273   0.395
26730W        W94948  34.815  26.992  13.592
26731W        W94949  10.044  14.688   1.481
26732W        W94950  19.938  26.899  13.478
26733W        W94951  16.522   3.861   4.337
26734W        W94952  31.351  16.665   2.332
26735W        W94953  29.524  29.090  14.851
26736W        W94954  26.300   0.393   0.177
26737W        W94955   3.354  31.885  14.049
26738W        W94956  24.367  34.943  11.855
26739W        W94957   8.804  22.245  14.419
26740W        W94958  30.800  38.541   3.110
26741W        W94959   7.184   6.282   4.590
26742W        W94960   5.301   4.318   1.287
26743W        W94961  29.406  17.791  12.414
26744W        W94962  34.114  21.780   1.782
26745W        W94963  35.458  36.602  14.114
26746W        W94964  37.074   9.027  14.864
26747W        W94965  36.052  38.592  11.689
26748W        W94966  29.064  24.075  10.717
26749W        W94967  26.305  23.459   0.071
26750W        W94968  43.459  25.257  13.963
26751W        W94969  30.750  30.025   3.200
26752W        W94970   9.802  28.567   4.409
26753W        W94971  10.499  36.679  11.797
26754W        W94972  13.881  19.006   3.650
26755W        W94973  42.549   3.756  14.385
26756W        W94974  35.829  41.550  14.538
26757W        W94975  26.542  37.204   2.142
26758W        W94976  20.108  36.498   5.233
26759W        W94977  22.493  10.295  12.568
26760W        W94978  31.399  10.267   3.729
26761W        W94979  27.190  44.032   0.345
26762W        W94980  37.803  31.433  11.090
26763W        W94981  25.112  42.296   0.456
26764W        W94982  12.684  12.400   0.753
26765W        W94983   4.337  31.010  11.663
26766W        W94984  15.219   1.733   1.894
26767W        W94985   1.169  29.965   2.847
26768W        W94986  43.423  44.940   0.447
26769W        W94987  21.286   9.717  12.850
26770W        W94988  41.946  29.257  13.565
26771W        W94989   7.364  39.108  10.562
26772W        W94990  36.717  33.075  12.086
26773W        W94991   2.748  23.318  14.843
26774W        W94992   2.423  15.508   3.124
26775W        W94993  41.864  18.658   3.472
26776W        W94994  28.702  41.524  12.020
26777W        W94995  20.654   5.054   1.095
26778W        W94996  29.094  16.846   4.206
26779W        W94997  37.036   4.384   4.647
26780W        W94998   2.575  41.496   1.676
26781W        W94999  21.561  42.337  14.964
26782W        W95000  15.682  13.872  11.966
26783W        W95001   6.933  44.658   0.414
26784W        W95002  37.060  30.125   3.727
26785W        W95003  43.589  35.847  12.009
26786W        W95004  18.992  17.802  11.802
26787W        W95005  37.584  33.889  12.359
26788W        W95006   1.658   0.754   2.211
26789W        W95007  39.903   5.705   1.867
26790W        W95008  30.181   3.512   0.092
26791W        W95009  42.034   4.071  12.408
26792W        W95010  33.086   3.273   3.184
26793W        W95011  29.669  29.655  13.458
26794W        W95012  21.064  27.006   4.533
26795W        W95013   5.150  39.811   2.736
26796W        W95014  32.433  12.172  11.402
26797W        W95015  29.451  40.044  12.576
26798W        W95016  44.791  31.028  10.787
26799W        W95017  14.246   5.117  13.618
26800W        W95018  19.691  14.902   1.116
26801W        W95019  16.792   4.296   4.766
26802W        W95020   1.258  19.808  11.995
26803W        W95021   2.638  11.140  14.975
26804W        W95022  38.092  12.604   1.878
26805W        W95023  13.149   9.891   4.659
26806W        W95024  15.620  25.368  12.994
26807W        W95025  35.049  28.405   2.280
26808W        W95026  15.932  26.016   3.746
26809W        W95027  13.844   0.838   4.928
26810W        W95028  38.953   9.350  11.279
26811W        W95029   9.790  16.975   2.909
26812W        W95030  36.485  30.200  12.946
26813W        W95031  26.615  25.415   2.287
26814W        W95032   2.990  13.581   4.413
26815W        W95033  16.789  22.948  13.816
26816W        W95034  21.456  44.488  11.255
26817W        W95035  29.145  32.446  12.526
26818W        W95036   8.296  34.350  14.083
26819W        W95037  25.033  23.737  13.511
26820W        W95038  11.085   7.581   0.773
26821W        W95039  15.296  21.232  11.713
26822W        W95040   3.340  15.753   0.372
26823W        W95041  32.074  13.332   3.552
26824W        W95042  14.785   8.701   0.452
26825W        W95043  15.608  42.922   0.553
26826W        W95044  22.195   2.287  13.588
26827W        W95045  20.310  29.516   0.112
26828W        W95046  24.464   2.540  13.541
26829W        W95047  29.185  41.482  14.052
26830W        W95048  40.944  36.620  12.912
26831W        W95049   8.809  28.081   2.730
26832W        W95050   2.497  41.406   4.591
26833W        W95051  43.763  26.548   1.268
26834W        W95052  42.601   1.942  11.541
26835W        W95053  38.254   5.361   0.247
26836W        W95054  36.271  13.755  13.931
26837W        W95055  15.225  25.648  10.640
26838W        W95056  39.357  17.958  12.598
26839W        W95057  40.203   2.285   3.301
26840W        W95058  13.530  19.145   0.864
26841W        W95059  11.180   8.804   3.741
26842W        W95060  43.340   1.385   4.883
26843W        W95061  43.806  17.571   3.574
26844W        W95062  41.356  44.965   0.844
26845W        W95063  36.158  32.213  13.363
26846W        W95064  25.267  33.075   1.854
26847W        W95065  18.321  22.859   2.728
26848W        W95066  35.720  30.434   2.050
26849W        W95067  43.953  44.602   0.438
26850W        W95068  40.718  30.853  12.414
26851W        W95069  42.520   2.248   1.795
26852W        W95070  10.847   1.084   2.269
26853W        W95071  11.850  22.539  11.471
26854W        W95072  32.008   7.433   0.378
26855W        W95073  36.076   6.815   1.226
26856W        W95074  18.893  17.679   3.670
26857W        W95075  25.249  17.007   0.463
26858W        W95076  38.042  29.066  11.035
26859W        W95077  31.419  20.157  13.430
26860W        W95078   9.385   0.821  12.921
26861W        W95079  19.236  31.086   0.215
26862W        W95080   0.513  26.669  13.946
26863W        W95081  26.535  14.603   4.046
26864W        W95082  43.917  32.061  14.528
26865W        W95083  33.276   4.112  12.603
26866W        W95084   8.975  11.393   0.929
26867W        W95085   6.779   5.681  14.417
26868W        W95086  12.053  37.333  11.621
26869W        W95087  43.312  20.237  10.899
26870W        W95088   0.816  26.223  11.123
26871W        W95089  13.331   6.909  11.553
26872W        W95090  29.319  22.247   3.294
26873W        W95091  29.556  29.719   1.248
26874W        W95092  19.289  25.515  12.045
26875W        W95093  14.542  34.554  12.962
26876W        W95094   9.334  23.472  14.460
26877W        W95095   1.352   3.692   1.626
26878W        W95096  25.248   6.167   0.245
26879W        W95097  12.404  27.559  12.466
26880W        W95098  14.119  22.953  14.006
26881W        W95099  36.714  11.238   2.627
26882W        W95100  41.608   0.018  14.515
26883W        W95101  35.496  19.089   2.832
26884W        W95102  34.164   6.507   4.009
26885W        W95103  42.738  22.717  13.695
26886W        W95104  18.529   3.855   4.601
26887W        W95105  41.073  43.131   1.310
26888W        W95106  22.634  43.742   2.460
26889W        W95107  17.015  42.927   0.818
26890W        W95108  17.830   6.305  14.848
26891W        W95109  38.846  14.684   1.341
26892W        W95110   0.323  21.194  11.063
26893W        W95111  22.045  17.140   1.248
26894W        W95112   4.443  30.907   4.314
26895W        W95113  12.517   7.759  14.624
26896W        W95114  18.039  32.893  14.681
26897W        W95115  43.391  12.256   2.443
26898W        W95116  12.327   5.441   0.654
26899W        W95117  14.676  25.550  11.422
26900W        W95118   3.796  41.625  10.100
26901W        W95119  20.105   4.794  10.410
26902W        W95120  38.764  35.441  11.134
26903W        W95121  30.132  28.571   1.862
26904W        W95122  12.079  28.527  10.096
26905W        W95123  41.920  32.172  11.765
26906W        W95124  16.769  22.583   2.888
26907W        W95125   3.264  43.984  14.042
26908W        W95126  10.722  38.618   4.855
26909W        W95127  34.341  20.413   1.713
26910W        W95128  24.177  26.538  12.159
26911W        W95129  12.677  40.702  14.954
26912W        W95130   2.280  16.949  11.545
26913W        W95131  33.745   9.375   1.556
26914W        W95132  37.851  15.373  10.657
26915W        W95133  38.865  28.144  10.707
26916W        W95134  13.802  33.445   3.209
26917W        W95135  15.483  13.296  11.578
26918W        W95136  26.256  16.115  11.149
26919W        W95137  16.820   5.340  12.418
26920W        W95138  37.488  16.973  10.640
26921W        W95139  10.156  22.224   0.915
26922W        W95140  33.421  13.244   0.014
26923W        W95141  10.656  23.016  11.930
26924W        W95142   5.308   7.860  10.754
26925W        W95143  17.343  12.142  11.253
26926W        W95144  42.751  24.372   2.425
26927W        W95145  43.856  18.214  11.960
26928W        W95146  33.611  33.871  12.587
26929W        W95147  15.582   8.671  13.025
26930W        W95148  41.857  38.803  11.604
26931W        W95149  28.128  17.641   3.641
26932W        W95150  40.979  22.535   3.704
26933W        W95151  32.138  38.888   3.153
26934W        W95152   4.317   2.107  14.956
26935W        W95153  39.220  36.606  13.940
26936W        W95154  20.099  36.405   0.786
26937W        W95155  13.380  12.312  13.431
26938W        W95156  42.179  17.708  11.611
26939W        W95157  44.993  32.491   0.843
26940W        W95158  31.080  14.895   2.854
26941W        W95159   4.698   0.804  12.658
26942W        W95160  37.323  15.426   4.627
26943W        W95161   7.741   8.773  10.756
26944W        W95162   3.873  11.616  12.306
26945W        W95163  14.600  34.458  13.469
26946W        W95164   6.884  40.499  12.623
26947W        W95165  31.851   5.348   2.812
26948W        W95166  31.790  23.972  12.007
26949W        W95167  13.336  22.294  11.594
26950W        W95168  34.297  30.349  13.427
26951W        W95169  18.247  36.883  10.667
26952W        W95170  17.254   3.167  12.423
26953W        W95171  34.095  19.275   0.377
26954W        W95172  30.556  18.785  12.681
26955W        W95173  39.814  17.815   4.226
26956W        W95174   0.745  38.438  11.590
26957W        W95175  43.453  16.579  11.531
26958W        W95176  13.348   2.244  12.528
26959W        W95177  39.005  17.011   2.227
26960W        W95178  37.846  12.639   3.605
26961W        W95179  38.038   8.335   1.285
26962W        W95180   1.929  17.832   4.069
26963W        W95181  34.392  24.507   0.679
26964W        W95182   9.395   0.736  10.667
26965W        W95183  34.415   2.503  13.271
26966W        W95184  41.993  22.442  13.107
26967W        W95185   0.038  22.758  14.123
26968W        W95186  23.712   0.898   3.777
26969W        W95187   9.898  16.563   1.262
26970W        W95188  16.197  42.540  12.872
26971W        W95189  13.468  42.713   3.238
26972W        W95190   0.840  10.334  12.949
26973W        W95191  10.819  35.805   4.109
26974W        W95192  43.982  28.708   1.705
26975W        W95193  10.271  20.668   4.047
26976W        W95194  35.804  42.115  14.737
26977W        W95195  25.813   2.788  12.979
26978W        W95196  12.420  38.852  12.444
26979W        W95197  13.265  38.195  14.370
26980W        W95198  30.502  12.665  12.916
26981W        W95199  35.916  33.952  14.843
26982W        W95200  27.277  23.103  12.397
26983W        W95201  40.938  15.901   4.661
26984W        W95202  32.403  40.133  13.858
26985W        W95203  22.055  44.614   1.162
26986W        W95204   6.168  17.224   3.023
26987W        W95205  21.642  42.255   3.378
26988W        W95206  22.728  22.214   3.772
26989W        W95207  29.016   6.868   2.160
26990W        W95208  22.522   7.654   2.385
26991W        W95209   1.948   6.231  14.044
26992W        W95210  40.092  40.981  10.627
26993W        W95211  44.493  23.208  13.007
26994W        W95212  27.025  14.834  14.441
26995W        W95213  31.340  44.063  12.966
26996W        W95214   4.006   1.382   4.480
26997W        W95215  23.097  18.572   2.337
26998W        W95216   3.440  26.800  14.418
26999W        W95217   8.169  11.524   0.449
27000W        W95218  36.355   0.440  10.701
27001W        W95219  14.773  24.719  13.480
27002W        W95220  41.890  38.824   1.930
27003W        W95221   8.125   3.812  14.892
27004W        W95222  31.124  43.747  13.335
27005W        W95223  43.007  24.155   0.963
27006W        W95224   6.513  26.927   4.478
27007W        W95225  37.099  17.715   1.339
27008W        W95226  33.917   6.646  14.361
27009W        W95227  33.175  34.421   4.264
27010W        W95228  14.624  36.740   1.891
27011W        W95229  31.381  39.172  14.895
27012W        W95230  15.746  33.598  11.475
27013W        W95231  19.192  11.061   1.248
27014W        W95232   8.558  23.663   5.123
27015W        W95233  24.543  40.048  12.837
27016W        W95234  37.514   4.753  10.558
27017W        W95235  12.852  16.537   0.463
27018W        W95236  41.516  14.771  14.994
27019W        W95237   4.155  26.583  14.047
27020W        W95238   8.005   8.336   0.021
27021W        W95239  29.051  22.085   4.684
27022W        W95240  30.480  26.131  12.030
27023W        W95241  36.784  27.546  13.116
27024W        W95242  32.019  37.155   4.489
27025W        W95243  36.369   3.684  13.883
27026W        W95244  35.084  11.825   2.247
27027W        W95245  29.813  43.904   1.938
27028W        W95246  32.829  34.667  11.650
27029W        W95247  11.746   9.870  12.540
27030W        W95248  25.881  38.499  13.027
27031W        W95249   9.932  43.489  14.441
27032W        W95250  25.668  24.525  14.879
27033W        W95251   0.884  11.300  13.066
27034W        W95252  26.451   5.955  10.209
27035W        W95253  27.504   3.544   3.294
27036W        W95254  15.777  41.232  11.936
27037W        W95255   5.978  24.533   2.254
27038W        W95256  22.639  39.281  13.664
27039W        W95257  20.063  33.057  14.566
27040W        W95258  13.054  12.253  11.992
27041W        W95259  29.567  23.407   1.472
27042W        W95260  27.484   4.804  12.857
27043W        W95261  22.165  10.740   2.635
27044W        W95262  33.424  28.809   1.885
27045W        W95263  20.469  37.853   2.784
27046W        W95264  16.735  41.083   2.838
27047W        W95265   2.168   4.559   0.378
27048W        W95266  30.965  28.102  11.981
27049W        W95267  37.159   5.723   3.456
27050W        W95268  14.145  37.722   4.966
27051W        W95269   2.592   7.767  12.934
27052W        W95270  10.399   5.207  13.848
27053W        W95271  40.479   4.453  13.937
27054W        W95272  32.644  22.222  12.596
27055W        W95273  31.195  37.772  11.098
27056W        W95274  13.190  15.627  13.416
27057W        W95275  11.356  34.295   2.714
27058W        W95276  21.628  34.173   3.190
27059W        W95277   4.761  32.942  14.422
27060W        W95278  32.999  13.132  14.743
27061W        W95279   0.423  24.315   0.038
27062W        W95280  10.116  15.908   5.446
27063W        W95281  11.238  11.180  10.650
27064W        W95282  20.593  20.700   0.910
27065W        W95283  30.546  14.537   2.722
27066W        W95284  26.119   1.947   2.460
27067W        W95285  22.078   3.503   2.115
27068W        W95286   6.909  38.446   2.642
27069W        W95287  44.028  17.369  14.593
27070W        W95288  22.912  25.162   1.964
27071W        W95289  20.493  29.482  13.789
27072W        W95290  16.606  19.710   2.468
27073W        W95291  31.242  16.839   2.811
27074W        W95292  36.466   5.928   1.948
27075W        W95293   7.214  20.958  11.217
27076W        W95294   5.961  16.252  10.061
27077W        W95295  30.000  33.362   4.095
27078W        W95296  13.977  21.099  13.099
27079W        W95297  17.822  11.147   2.892
27080W        W95298  16.380  23.186   0.067
27081W        W95299   3.901  44.529  10.256
27082W        W95300  28.544  28.882  12.374
27083W        W95301  25.555  42.324   3.433
27084W        W95302  32.005   4.778  12.569
27085W        W95303  44.587   0.346  10.281
27086W        W95304  25.238  10.946   4.544
27087W        W95305   5.703  15.790  12.150
27088W        W95306  15.712  29.954   2.766
27089W        W95307  38.969  43.435  14.072
27090W        W95308  15.664   7.202   0.162
27091W        W95309  27.013   7.100   3.926
27092W        W95310   7.379  25.414   4.118
27093W        W95311  31.989  21.244  14.015
27094W        W95312  33.189  22.441  12.907
27095W        W95313  19.501  26.462  12.065
27096W        W95314   5.555  22.755  13.005
27097W        W95315   3.691  28.041  10.355
27098W        W95316  27.555   9.980   3.288
27099W        W95317  38.357  14.722  14.553
27100W        W95318  31.479  14.506  14.887
27101W        W95319  39.628  23.048  11.034
27102W        W95320  25.709  39.362   2.770
27103W        W95321  12.641   7.571  10.744
27104W        W95322  21.139  34.962  14.769
27105W        W95323  16.228  34.110   3.219
27106W        W95324  28.160   3.561  11.494
27107W        W95325  34.569  40.239  13.011
27108W        W95326  44.071  33.268  11.470
27109W        W95327  19.090   1.394   4.405
27110W        W95328  44.668  37.131  12.888
27111W        W95329   0.164  19.266   2.259
27112W        W95330   0.417   8.365   0.915
27113W        W95331  14.146  17.605  13.760
27114W        W95332  24.545   8.331   1.929
27115W        W95333  17.629  37.094   0.329
27116W        W95334   9.355  36.430   3.736
27117W        W95335  36.407   3.938  13.414
27118W        W95336  26.079  43.602  13.501
27119W        W95337  19.734  32.366  13.028
27120W        W95338   7.676  30.629   3.716
27121W        W95339  32.846   2.949   2.864
27122W        W95340  21.384  43.244   1.831
27123W        W95341  12.191  28.263   0.783
27124W        W95342   7.145  41.092  11.965
27125W        W95343  28.439   5.392  12.057
27126W        W95344  25.561  30.409  14.517
27127W        W95345   1.405  11.687  11.138
27128W        W95346   1.430  11.649   4.547
27129W        W95347  13.732  44.968   3.758
27130W        W95348  15.421  41.367   1.803
27131W        W95349  44.532  34.257  12.871
27132W        W95350  41.316   2.796   1.294
27133W        W95351  35.097  37.013   2.379
27134W        W95352  12.006   0.525   1.567
27135W        W95353  36.402  39.573  10.935
27136W        W95354   8.192  33.859  13.941
27137W        W95355  15.313  17.609  10.330
27138W        W95356  19.189  21.675  12.906
27139W        W95357  25.660  17.972  13.007
27140W        W95358  17.657  16.700  13.122
27141W        W95359  31.434  30.592   0.187
27142W        W95360  11.884  29.130  13.143
27143W        W95361  37.100   4.953  13.872
27144W        W95362  29.220   9.830  14.392
27145W        W95363  19.193   7.937  11.966
27146W        W95364  18.674   2.999  12.481
27147W        W95365  11.295  29.057  11.033
27148W        W95366  39.391   8.699  12.431
27149W        W95367   6.748  37.053   3.580
27150W        W95368   2.768  15.824  12.055
27151W        W95369  39.004   0.832   9.942
27152W        W95370   8.959  16.596  13.394
27153W        W95371  44.157   6.443  11.879
27154W        W95372  39.578   4.636  14.041
27155W        W95373  39.424  27.760   1.652
27156W        W95374  27.537  21.458   2.390
27157W        W95375  32.535  15.312  13.106
27158W        W95376   4.786  16.245  14.950
27159W        W95377  34.087  16.753   3.722
27160W        W95378  33.469  35.408  13.368
27161W        W95379  38.738  34.927   1.992
27162W        W95380  31.028   4.003   2.743
27163W        W95381  15.800  13.840  13.569
27164W        W95382  24.711  34.935   1.262
27165W        W95383   1.161   3.779  11.044
27166W        W95384  13.296  43.410   0.904
27167W        W95385  18.475  44.943  11.397
27168W        W95386  17.675  34.512   4.619
27169W        W95387   9.637   6.838  12.420
27170W        W95388  20.503  29.728  12.796
27171W        W95389  22.539  26.602   4.773
27172W        W95390  30.216  30.186  14.292
27173W        W95391  35.098  42.082  12.542
27174W        W95392  22.210  33.237   1.841
27175W        W95393  40.825   4.847   3.707
27176W        W95394  28.379  15.172   1.039
27177W        W95395  18.072   9.615  14.240
27178W        W95396  23.242  44.995  14.400
27179W        W95397  13.540   4.199  12.808
27180W        W95398  26.443  15.758   2.459
27181W        W95399  11.310  35.323   0.845
27182W        W95400   5.134   0.671  12.416
27183W        W95401  29.546   7.331   0.047
27184W        W95402   2.683  13.472  14.338
27185W        W95403  24.134   6.811   4.038
27186W        W95404  44.533   9.218   1.969
27187W        W95405   2.799  34.171   3.803
27188W        W95406  32.202  36.193   3.194
27189W        W95407  11.174   0.458   0.989
27190W        W95408   7.982  23.668  10.310
27191W        W95409  39.066  21.481  14.922
27192W        W95410  19.116  14.719  10.251
27193W        W95411  32.865  30.050   0.256
27194W        W95412  28.650  38.099   2.413
27195W        W95413   7.745   6.351  10.094
27196W        W95414   8.787  29.447   1.756
27197W        W95415  18.135   4.411   0.705
27198W        W95416  32.274   8.969   5.118
27199W        W95417   4.246  12.102   2.719
27200W        W95418   8.372   7.203  11.191
27201W        W95419  35.344  25.106   1.265
27202W        W95420  43.859  16.879  14.479
27203W        W95421  39.584  29.097   4.351
27204W        W95422   3.722  15.322  10.671
27205W        W95423  20.644   1.984   1.023
27206W        W95424  10.302  28.746   2.213
27207W        W95425  38.883  20.350   0.356
27208W        W95426   3.330  24.402  12.984
27209W        W95427  22.798  13.594   2.849
27210W        W95428  44.499  14.392   5.030
27211W        W95429  22.815   8.325   2.652
27212W        W95430  33.431  40.308   0.012
27213W        W95431  35.728  38.610   3.830
27214W        W95432  11.179  44.879  12.872
27215W        W95433  19.389  41.257  14.249
27216W        W95434  13.641   9.631  11.150
27217W        W95435   8.675  41.823   1.214
27218W        W95436   3.953  42.031   0.716
27219W        W95437  21.003  35.703  10.597
27220W        W95438   7.380  32.149  14.773
27221W        W95439  23.251  31.914   2.123
27222W        W95440  18.577   8.113  10.404
27223W        W95441  11.338  24.168  12.977
27224W        W95442   5.756  34.026  12.854
27225W        W95443  40.126  39.565  11.865
27226W        W95444   7.615  12.409  11.223
27227W        W95445  37.807   6.873   4.541
27228W        W95446  12.581  19.285   2.886
27229W        W95447   6.160  25.010  12.953
27230W        W95448  38.099   9.131   4.788
27231W        W95449  13.980   2.969   1.759
27232W        W95450   2.552  29.985  13.440
27233W        W95451  34.541  13.274  12.924
27234W        W95452  23.301   9.371  14.371
27235W        W95453  10.642  30.048  12.782
27236W        W95454  13.579  10.637   1.782
27237W        W95455   3.827  31.999   4.178
27238W        W95456  22.811   0.719  12.315
27239W        W95457  19.096  16.229  11.798
27240W        W95458   5.385  37.368   3.257
27241W        W95459  17.646  30.898  10.523
27242W        W95460  12.282  10.754  12.811
27243W        W95461  36.429  37.965  12.665
27244W        W95462  29.157  43.846   2.427
27245W        W95463  43.020  26.815  11.164
27246W        W95464  34.001   3.777   2.272
27247W        W95465  31.026  30.152   9.448
27248W        W95466  43.429  41.544  11.607
27249W        W95467  24.508  43.481  14.362
27250W        W95468  24.805  22.130   2.867
27251W        W95469  22.809  34.591   3.335
27252W        W95470  31.448   6.522   3.264
27253W        W95471  20.648  23.803   0.206
27254W        W95472  42.974  27.882   2.440
27255W        W95473  37.084  10.247   1.866
27256W        W95474  39.916  22.931  14.495
27257W        W95475   4.715  34.392  10.602
27258W        W95476   6.190  21.025  12.523
27259W        W95477   8.633  19.751  12.610
27260W        W95478  18.779  43.104  11.548
27261W        W95479  30.356  25.549   1.767
27262W        W95480  32.969  37.417   2.386
27263W        W95481   6.865   7.298   3.153
27264W        W95482  18.290  10.269   4.034
27265W        W95483  22.330  27.842  11.514
27266W        W95484  35.941  37.549   1.217
27267W        W95485  28.955   9.175   2.443
27268W        W95486   3.954  40.036  14.423
27269W        W95487  11.821   2.887   2.905
27270W        W95488  39.984  13.108   2.875
27271W        W95489  15.672  41.295   4.660
27272W        W95490  10.125  32.609   3.154
27273W        W95491  41.964  32.708   2.261
27274W        W95492  14.176   0.756   3.356
27275W        W95493  32.544  36.776  14.286
27276W        W95494  28.290  42.196  11.180
27277W        W95495  12.521  17.758  14.847
27278W        W95496   2.240   3.746  12.014
27279W        W95497  17.588  43.417  13.098
27280W        W95498  28.143  21.628   1.160
27281W        W95499   2.955  44.280   4.128
27282W        W95500  43.027  37.045  11.532
27283W        W95501  19.828  42.966  11.030
27284W        W95502  19.340  18.777  13.470
27285W        W95503   2.398  24.008   0.615
27286W        W95504  30.733  12.170   4.517
27287W        W95505   3.037  10.106  14.079
27288W        W95506   1.117  44.227   0.405
27289W        W95507  12.312  34.574   4.517
27290W        W95508  27.005  34.807  11.186
27291W        W95509  22.654  42.238  13.314
27292W        W95510  24.400   7.423   0.147
27293W        W95511   2.866  15.756   4.276
27294W        W95512  12.664  18.758   4.407
27295W        W95513  35.054   2.999  13.106
27296W        W95514  25.764   5.239   3.131
27297W        W95515  23.300  39.033   3.937
27298W        W95516  29.936   4.688   2.436
27299W        W95517  33.822  31.372  14.931
27300W        W95518   4.196  35.619   0.034
27301W        W95519  18.224  18.977   3.464
27302W        W95520  28.481  41.397  10.628
27303W        W95521   6.127  16.198   0.329
27304W        W95522  40.324   8.430   1.789
27305W        W95523   0.835  14.529   4.719
27306W        W95524  24.026   0.537  12.738
27307W        W95525  30.064  24.646   2.721
27308W        W95526  22.726  13.504  14.396
27309W        W95527  43.911  15.408   1.875
27310W        W95528  11.412  41.449   3.147
27311W        W95529   6.718  26.029   2.315
27312W        W95530  20.562   6.739   3.646
27313W        W95531  43.428   0.973  14.355
27314W        W95532  18.286   1.129  12.669
27315W        W95533  41.211  13.197   5.044
27316W        W95534  35.668  15.885   4.454
27317W        W95535  41.814  13.211  13.851
27318W        W95536   7.292  15.195   1.472
27319W        W95537  30.078  35.435   3.379
27320W        W95538  38.799  42.213   0.013
27321W        W95539  34.452  23.714   5.010
27322W        W95540  39.592  23.612  13.294
27323W        W95541  15.087  15.080   0.464
27324W        W95542  33.652  27.700  12.981
27325W        W95543  15.071  26.663  13.093
27326W        W95544  42.125  31.935   1.090
27327W        W95545   9.295  17.346  10.795
27328W        W95546  19.943   5.638   2.730
27329W        W95547   8.744  43.801   2.003
27330W        W95548  21.525  29.598   2.151
27331W        W95549  33.342  44.644  10.798
27332W        W95550  38.419  25.736  14.341
27333W        W95551  44.411  14.832   0.228
27334W        W95552  12.879   3.371   1.315
27335W        W95553  21.798  22.637   1.450
27336W        W95554   2.443  31.676   0.334
27337W        W95555  34.495  14.975   1.016
27338W        W95556  39.091  34.845  10.473
27339W        W95557  38.040   2.347   4.056
27340W        W95558  41.930  21.047   1.793
27341W        W95559   2.613  41.166   3.673
27342W        W95560  36.013  11.218  14.701
27343W        W95561  42.992  44.484  11.195
27344W        W95562  30.126  24.479   1.355
27345W        W95563  17.723  18.804   4.489
27346W        W95564  22.145  43.005   1.023
27347W        W95565  43.780  11.059   3.605
27348W        W95566  20.182   5.960   1.827
27349W        W95567  12.665  12.131   1.219
27350W        W95568  32.360  37.013   1.825
27351W        W95569  30.545   5.966   3.124
27352W        W95570  25.125  15.606   3.622
27353W        W95571  19.939  14.997   4.938
27354W        W95572  16.278  38.879   2.354
27355W        W95573  44.805  32.502  12.506
27356W        W95574  17.164  37.844   0.420
27357W        W95575  34.571  29.020  14.440
27358W        W95576  13.906  16.264  10.518
27359W        W95577  33.873  32.626   0.677
27360W        W95578   3.467  38.894  10.711
27361W        W95579   2.990  14.130   2.786
27362W        W95580   4.888  21.277  14.511
27363W        W95581   0.432  28.386  11.114
27364W        W95582  37.310   0.773   0.388
27365W        W95583  33.943  27.599   0.658
27366W        W95584  10.121   1.903  13.959
27367W        W95585  37.874  19.468   1.806
27368W        W95586  11.648  18.649  12.054
27369W        W95587   9.154  11.121   1.800
27370W        W95588  31.224   6.259   4.067
27371W        W95589   5.941   4.310  11.211
27372W        W95590   7.196  38.735   4.536
27373W        W95591  26.811  31.493  11.053
27374W        W95592  42.108  42.366   1.394
27375W        W95593  21.528   5.955  11.181
27376W        W95594  28.221  26.100  11.624
27377W        W95595  26.875  10.058  10.312
27378W        W95596  29.518  41.042   4.510
27379W        W95597  31.553  10.832  14.498
27380W        W95598  28.719  33.459   1.461
27381W        W95599  43.932   3.475   0.907
27382W        W95600   0.332   5.322   2.147
27383W        W95601  36.387  31.347   3.286
27384W        W95602  39.886  16.094  13.581
27385W        W95603  31.115  13.102   0.082
27386W        W95604  23.004  24.643  11.965
27387W        W95605  31.244   1.337  11.627
27388W        W95606  37.569  20.323   2.828
27389W        W95607  14.267  35.129  14.377
27390W        W95608  21.213  44.305   5.256
27391W        W95609  16.664  24.874   2.409
27392W        W95610   4.693  14.431  10.604
27393W        W95611   2.330  33.560   4.565
27394W        W95612  14.216  17.680   0.730
27395W        W95613  14.803  15.757   1.422
27396W        W95614  33.703   8.002   0.921
27397W        W95615  33.160  10.804  14.063
27398W        W95616  15.553  12.562  14.164
27399W        W95617   1.482  24.478  12.023
27400W        W95618  29.459  43.422  13.568
27401W        W95619  31.729   2.830   3.165
27402W        W95620  41.412  23.802   3.261
27403W        W95621  27.753  41.939  10.700
27404W        W95622  16.128  40.619   0.497
27405W        W95623  12.800  26.524  10.570
27406W        W95624  23.388  37.944   4.166
27407W        W95625  18.001  33.892   5.013
27408W        W95626  17.813  16.862  10.491
27409W        W95627  12.332  11.792  10.268
27410W        W95628  36.087   0.993   4.111
27411W        W95629   9.242  14.100   3.407
27412W        W95630  44.600   4.541   3.164
27413W        W95631  18.780   2.470   3.631
27414W        W95632  40.507  36.853  13.573
27415W        W95633  12.658   9.352  11.925
27416W        W95634  16.690  24.972   1.509
27417W        W95635   1.253  38.126  13.580
27418W        W95636  14.611  34.320  14.434
27419W        W95637  16.013  23.048   3.331
27420W        W95638   4.786  41.541   0.857
27421W        W95639   1.786  30.538  11.176
27422W        W95640  27.559  16.366   0.959
27423W        W95641  13.218  25.103   0.814
27424W        W95642  29.113   9.498  13.300
27425W        W95643  39.825  29.073  14.011
27426W        W95644  29.191  33.059  11.906
27427W        W95645  23.668  35.775   9.763
27428W        W95646  36.834  14.136   4.579
27429W        W95647  12.664  41.319  11.913
27430W        W95648  25.763  26.591   4.602
27431W        W95649  41.884  20.604  11.852
27432W        W95650  37.787   7.713   4.682
27433W        W95651  42.592  27.114  12.201
27434W        W95652   4.796  24.987   4.703
27435W        W95653  11.580  18.157   4.636
27436W        W95654  30.420  18.036   3.210
27437W        W95655   8.951  22.482   0.271
27438W        W95656  29.123   9.124  13.725
27439W        W95657  15.907  13.266   4.385
27440W        W95658  12.378  24.988  13.826
27441W        W95659   5.190  20.819   4.331
27442W        W95660  41.562   6.760  12.447
27443W        W95661  25.042  26.560  11.588
27444W        W95662  13.164  29.435  12.132
27445W        W95663  33.139  12.790   1.809
27446W        W95664  15.279  21.966  12.110
27447W        W95665   8.394  38.784   4.494
27448W        W95666  40.890  13.561   4.060
27449W        W95667   2.938  25.565  13.485
27450W        W95668  37.411   9.939   2.918
27451W        W95669  17.586  44.981  11.226
27452W        W95670  33.008  15.117   4.123
27453W        W95671  35.451  15.415   4.536
27454W        W95672  14.033  14.411  12.922
27455W        W95673  38.866  41.105  10.756
27456W        W95674  32.470  22.823   4.845
27457W        W95675  37.617   6.267   1.803
27458W        W95676   1.658  22.218   4.629
27459W        W95677   7.172   3.834   3.556
27460W        W95678  25.052  19.679  14.484
27461W        W95679   0.774  17.394  11.469
27462W        W95680  35.518  41.275   0.773
27463W        W95681  39.540  19.113   1.216
27464W        W95682   9.810  35.891   0.463
27465W        W95683   1.844  12.919  13.959
27466W        W95684   6.361  26.162   3.745
27467W        W95685  12.504   0.403   1.492
27468W        W95686   8.176  12.567  12.875
27469W        W95687  41.379  23.821   0.724
27470W        W95688   0.819  29.406   3.199
27471W        W95689  20.136  42.782   2.242
27472W        W95690   0.897  42.750  13.517
27473W        W95691  16.648   0.232  12.314
27474W        W95692  42.175  10.950   2.091
27475W        W95693  35.046   4.189   2.644
27476W        W95694   7.561   4.246  14.444
27477W        W95695  34.958  28.982  11.652
27478W        W95696   5.160   4.373   4.300
27479W        W95697  43.017   5.117   0.073
27480W        W95698  27.451  36.992  11.670
27481W        W95699  19.657  32.443   1.724
27482W        W95700  22.696  41.711  11.505
27483W        W95701  16.165  43.036  12.973
27484W        W95702  23.235  41.403   2.213
27485W        W95703  28.995  38.990   1.046
27486W        W95704   3.535  21.451  14.692
27487W        W95705  17.302   1.741   3.370
27488W        W95706  37.083  44.503  13.899
27489W        W95707  42.534   6.000  12.876
27490W        W95708  31.049  16.084   0.204
27491W        W95709   7.405   5.351   1.096
27492W        W95710  38.492   7.659   2.987
27493W        W95711   2.656  13.815   1.982
27494W        W95712   8.953  37.555   0.334
27495W        W95713  11.238  18.797   0.830
27496W        W95714   2.708  18.040  14.854
27497W        W95715   4.128  11.191  12.959
27498W        W95716   9.895  16.749   4.093
27499W        W95717   9.749   6.518  10.728
27500W        W95718  37.412   0.865  13.638
27501W        W95719  41.565  29.532   0.770
27502W        W95720  22.227  32.670   2.697
27503W        W95721  21.461  42.370  11.011
27504W        W95722  24.541   7.260   4.655
27505W        W95723   5.842  30.016  10.808
27506W        W95724  28.048  12.912  12.335
27507W        W95725  36.151   3.926  14.351
27508W        W95726  42.228   1.441  10.437
27509W        W95727  20.723   6.636  13.567
27510W        W95728  14.218   6.529   0.057
27511W        W95729  40.735  15.652  11.089
27512W        W95730   4.474  24.272  13.495
27513W        W95731  24.358   2.231   0.890
27514W        W95732  12.621  42.316  11.884
27515W        W95733   8.191   8.277  11.716
27516W        W95734   3.910  25.064   2.692
27517W        W95735  22.558  12.396   4.209
27518W        W95736  35.253  12.499  11.668
27519W        W95737  30.722  15.481   2.420
27520W        W95738   9.282   2.786   1.869
27521W        W95739  30.848  42.994   0.987
27522W        W95740  17.252  23.413   3.523
27523W        W95741  39.331  16.561   4.063
27524W        W95742  29.140  31.433   0.169
27525W        W95743  26.551   9.813  12.441
27526W        W95744  44.975  34.001   4.037
27527W        W95745  25.946  32.074   3.261
27528W        W95746  12.745  25.300   3.751
27529W        W95747  28.028  32.071   0.446
27530W        W95748  37.726  36.572  14.938
27531W        W95749  35.384  41.526  11.762
27532W        W95750  20.159  11.145  12.552
27533W        W95751  42.510  21.175   4.353
27534W        W95752  17.943  11.230   1.906
27535W        W95753  19.980   7.411  13.044
27536W        W95754  40.958  38.910   0.850
27537W        W95755  36.012   3.260  14.976
27538W        W95756   8.785  13.394   2.803
27539W        W95757  31.112   1.231  12.147
27540W        W95758  32.626  18.737  14.359
27541W        W95759  26.976  34.403   4.525
27542W        W95760   2.709  41.957   1.205
27543W        W95761  24.708  43.310   3.724
27544W        W95762  34.923  22.210  14.189
27545W        W95763   5.872  44.425  10.159
27546W        W95764  14.497  21.364   4.092
27547W        W95765   4.430  34.066  12.989
27548W        W95766  21.023  29.952  11.500
27549W        W95767  28.123  34.297   9.985
27550W        W95768   7.761  30.379   0.356
27551W        W95769  29.990  23.530   3.092
27552W        W95770   2.060  11.365  13.003
27553W        W95771  27.791  37.241   3.834
27554W        W95772   2.177  29.578  10.724
27555W        W95773   2.755  21.668  14.433
27556W        W95774   5.892  43.835  12.498
27557W        W95775  21.640  32.251  11.495
27558W        W95776  23.584  19.039  10.822
27559W        W95777  12.310  26.900  14.792
27560W        W95778   3.679  27.231  14.577
27561W        W95779  21.113  12.412   3.738
27562W        W95780  43.718  31.416   4.505
27563W        W95781   0.213  43.149   1.052
27564W        W95782  14.965  25.003  10.788
27565W        W95783  29.016  41.359  10.742
27566W        W95784  40.243  38.627  13.840
27567W        W95785  11.383  16.234   2.703
27568W        W95786  34.961  36.634   3.148
27569W        W95787  43.534  29.195  12.084
27570W        W95788   2.799  31.186  11.891
27571W        W95789  17.544   8.722   1.792
27572W        W95790   9.805  23.617   0.886
27573W        W95791  27.082  10.914   1.294
27574W        W95792  28.528  38.576  14.502
27575W        W95793  21.922  29.019  12.080
27576W        W95794  25.650  10.601  13.475
27577W        W95795  25.407   0.277   1.839
27578W        W95796   7.376  12.973  10.705
27579W        W95797  31.392   8.582  12.031
27580W        W95798  10.383   7.766   2.386
27581W        W95799   3.383  28.995  11.622
27582W        W95800  13.298  25.575  10.727
27583W        W95801  11.646   7.914   4.582
27584W        W95802  11.765  43.058  14.234
27585W        W95803  19.012  28.971   2.890
27586W        W95804  31.410  24.378  13.842
27587W        W95805  44.754  21.710   0.820
27588W        W95806  43.431   6.366  10.731
27589W        W95807   4.141  28.453   0.965
27590W        W95808   7.978   6.816   4.612
27591W        W95809  20.623  42.299  11.193
27592W        W95810  15.368   0.880   1.329
27593W        W95811  19.368  33.521   0.400
27594W        W95812  28.702  19.097  12.377
27595W        W95813   4.899  36.219   2.406
27596W        W95814  28.118  36.500  13.824
27597W        W95815  29.604  33.094  10.597
27598W        W95816  40.334  18.304  10.797
27599W        W95817  10.335  15.798   0.775
27600W        W95818  21.117  20.089   3.253
27601W        W95819  20.693  37.037   2.332
27602W        W95820  12.645  36.155  10.775
27603W        W95821   3.652  29.465   0.468
27604W        W95822  24.492  19.574  14.352
27605W        W95823   7.588  40.374   1.195
27606W        W95824  24.023  27.213   3.328
27607W        W95825  29.755   8.478  11.513
27608W        W95826  12.160  38.542  14.384
27609W        W95827  25.089  35.834   3.251
27610W        W95828  36.517   2.364  14.909
27611W        W95829   6.319  19.521  14.284
27612W        W95830   9.069   0.504  14.430
27613W        W95831   9.147  36.035  12.855
27614W        W95832  38.031   6.943   0.186
27615W        W95833  17.400  21.193   4.181
27616W        W95834  42.828  33.121  12.781
27617W        W95835  23.036   5.233  10.657
27618W        W95836  42.019   4.277  14.728
27619W        W95837  42.566  25.893   1.410
27620W        W95838  23.152  19.237   0.951
27621W        W95839  33.376  23.804  12.035
27622W        W95840  22.452  25.830  13.670
27623W        W95841  43.359  30.907  11.700
27624W        W95842   6.459   6.536   2.761
27625W        W95843  23.471  12.091  11.477
27626W        W95844  25.520  16.537  11.166
27627W        W95845  19.328  42.750   2.686
27628W        W95846  28.915   3.426  14.067
27629W        W95847   3.174   8.745  11.909
27630W        W95848  20.099  35.598   5.027
27631W        W95849  11.789  43.405   1.046
27632W        W95850  20.947  17.518  12.882
27633W        W95851  31.659  19.464   1.531
27634W        W95852   8.199  25.810  11.999
27635W        W95853  25.430  17.086  12.970
27636W        W95854  22.519  13.310  14.865
27637W        W95855   0.061   5.158  13.528
27638W        W95856   5.367  16.544  11.973
27639W        W95857  19.643  17.881  13.011
27640W        W95858   0.431  26.426   5.171
27641W        W95859  36.144  18.886  11.425
27642W        W95860  13.322  44.343   0.721
27643W        W95861  26.716  21.968  11.768
27644W        W95862  43.695  24.188  12.904
27645W        W95863  20.269  26.856  11.456
27646W        W95864  12.874  43.421   4.510
27647W        W95865  15.777  37.966   0.330
27648W        W95866  35.477  14.251  12.079
27649W        W95867  40.401  23.266   4.540
27650W        W95868   3.257  42.768  13.812
27651W        W95869  41.618  44.000   3.706
27652W        W95870   2.568  35.365   2.243
27653W        W95871  12.326  23.541   0.769
27654W        W95872  44.881  42.704   0.374
27655W        W95873  12.317   6.752  13.430
27656W        W95874   8.358  15.333  14.348
27657W        W95875  27.707  15.091   3.263
27658W        W95876  28.157  44.209  10.258
27659W        W95877  14.805  41.491  14.772
27660W        W95878  35.634  10.648   0.446
27661W        W95879  25.249  42.141  12.926
27662W        W95880  16.697  40.465  14.969
27663W        W95881  10.685  41.047  11.964
27664W        W95882  38.350  17.882  11.486
27665W        W95883   9.064  14.083   5.222
27666W        W95884  29.570  19.282   4.714
27667W        W95885  19.126   9.162   2.303
27668W        W95886  26.432  28.767   4.470
27669W        W95887   2.165  20.103  13.419
27670W        W95888   9.885  13.052  12.595
27671W        W95889  12.821  44.358   0.806
27672W        W95890  17.155  19.614  10.557
27673W        W95891  37.048  12.733  12.070
27674W        W95892  20.270  40.912  12.468
27675W        W95893  37.558  24.980  12.451
27676W        W95894  14.679  36.999   0.900
27677W        W95895  19.243   4.719  12.304
27678W        W95896  10.271  41.935   2.761
27679W        W95897  18.768  44.815   1.509
27680W        W95898  22.893  40.381   4.626
27681W        W95899  42.107  38.525  12.919
27682W        W95900  11.794   5.348   4.673
27683W        W95901  18.991   0.356  13.698
27684W        W95902  36.973  17.094   4.275
27685W        W95903  19.027  20.773   1.292
27686W        W95904  44.349  33.990  14.509
27687W        W95905  16.407   7.790   0.498
27688W        W95906  19.221  21.976   4.583
27689W        W95907  37.535  29.470  13.899
27690W        W95908  23.769  26.154  10.464
27691W        W95909  26.174  43.276  12.990
27692W        W95910   9.296  34.714   3.149
27693W        W95911  18.709   8.566   0.550
27694W        W95912  29.120   6.898  13.506
27695W        W95913  16.406  40.019   3.709
27696W        W95914  30.432  32.823   2.553
27697W        W95915  18.657  17.762  11.135
27698W        W95916  12.056  17.299  11.541
27699W        W95917  41.321  34.602   2.328
27700W        W95918   4.371  28.764  11.182
27701W        W95919  33.141  19.544   4.164
27702W        W95920  43.466  20.044   4.087
27703W        W95921  36.889  32.493   3.561
27704W        W95922  29.533  19.455  11.532
27705W        W95923  22.992  11.534  14.425
27706W        W95924  15.725  13.376  14.470
27707W        W95925  27.357  41.902   2.457
27708W        W95926  11.844  21.952   0.564
27709W        W95927   2.590  24.534   2.881
27710W        W95928   1.413  39.083  10.694
27711W        W95929  19.564  23.746  13.965
27712W        W95930   4.661  18.820   1.821
27713W        W95931  19.618   0.449   4.554
27714W        W95932  14.623  36.961  12.974
27715W        W95933  14.785  39.379   2.336
27716W        W95934  19.683  11.713  13.082
27717W        W95935  42.496  44.992  11.574
27718W        W95936  39.058  33.073   3.187
27719W        W95937  13.960  17.186  12.775
27720W        W95938  20.721  12.113   0.406
27721W        W95939  29.469  14.306   0.992
27722W        W95940  41.514  44.174   1.452
27723W        W95941  20.205  35.028  13.356
27724W        W95942  18.893  23.388  11.940
27725W        W95943  11.387  24.951  12.625
27726W        W95944   2.984  28.059  11.747
27727W        W95945  32.506  15.535   3.673
27728W        W95946   9.402  38.570  11.997
27729W        W95947  19.200   4.254   2.627
27730W        W95948  11.365   8.711   1.721
27731W        W95949   2.122  11.398   3.815
27732W        W95950  21.421  25.617   1.103
27733W        W95951  24.481  31.455   1.974
27734W        W95952  28.722  38.554  13.419
27735W        W95953  24.407   8.649  14.069
27736W        W95954  30.302  25.516   4.137
27737W        W95955  27.088   5.163   1.574
27738W        W95956  43.453   0.452  13.920
27739W        W95957  42.094  11.673  11.519
27740W        W95958   6.533  28.640  11.656
27741W        W95959  40.662   0.745  11.173
27742W        W95960  41.994   2.882   3.000
27743W        W95961  36.110  38.329  10.630
27744W        W95962  18.830  37.526  11.471
27745W        W95963  18.939  16.815  13.299
27746W        W95964   6.823  15.548   3.443
27747W        W95965  19.086  29.819   4.659
27748W        W95966  11.189  16.354   4.514
27749W        W95967  10.641  14.061   0.470
27750W        W95968   0.286  13.299   3.555
27751W        W95969   8.733   9.424  14.990
27752W        W95970  10.654  40.074   0.867
27753W        W95971  16.066   1.229  12.628
27754W        W95972  29.365  10.701  13.487
27755W        W95973  40.519  19.610  10.749
27756W        W95974  33.208   0.384   2.939
27757W        W95975  42.584  41.365   2.658
27758W        W95976   4.235  42.456   0.428
27759W        W95977   6.112  18.968  12.989
27760W        W95978   0.999   5.216  14.869
27761W        W95979  32.861  39.717   4.121
27762W        W95980  21.694  24.089  14.021
27763W        W95981  25.964  33.756   1.396
27764W        W95982  12.775  36.348   1.445
27765W        W95983   3.656  26.939   2.901
27766W        W95984  36.264  12.350  14.520
27767W        W95985  38.244  19.566  10.982
27768W        W95986  10.474  29.226   2.328
27769W        W95987  31.504  24.980   0.841
27770W        W95988  32.632   6.937   2.372
27771W        W95989  13.154  26.581   4.618
27772W        W95990  14.939  42.106   3.881
27773W        W95991  40.530  44.003   0.344
27774W        W95992  43.798   5.272  14.316
27775W        W95993  44.865  40.906  13.263
27776W        W95994   3.197  31.671  12.521
27777W        W95995  19.544  39.587   2.701
27778W        W95996  21.467  31.104  14.392
27779W        W95997  42.801   2.216  10.648
27780W        W95998  36.828  13.689   1.398
27781W        W95999  38.869  15.179   0.624
27782W        W96000  36.307  35.400  14.459
27783W        W96001  12.860  30.136   3.407
27784W        W96002  20.258  36.906   0.779
27785W        W96003  42.359  26.918  13.352
27786W        W96004   4.798   9.595  11.521
27787W        W96005  13.294   0.587   3.610
27788W        W96006  28.354   5.409   4.604
27789W        W96007  23.204  43.467   1.717
27790W        W96008  22.171  39.425  12.519
27791W        W96009  30.464   4.017  13.524
27792W        W96010   2.927  32.236   5.269
27793W        W96011  10.750  31.304   4.957
27794W        W96012  14.018  21.134  11.044
27795W        W96013   9.871  10.350  12.146
27796W        W96014  11.135  25.962   1.729
27797W        W96015   6.834   6.190  14.448
27798W        W96016  28.503   5.766  14.437
27799W        W96017  11.769  38.613   2.827
27800W        W96018  17.457  10.738   0.898
27801W        W96019  29.395  29.913   0.337
27802W        W96020  37.846  15.033   2.072
27803W        W96021   3.681   3.547   2.715
27804W        W96022  38.755  18.602   3.767
27805W        W96023  33.145  33.429  14.751
27806W        W96024  40.922  43.568  13.740
27807W        W96025  36.835  41.248   4.179
27808W        W96026  33.100  36.406  14.788
27809W        W96027  27.027  18.689  10.722
27810W        W96028  34.491  12.835  11.146
27811W        W96029  40.605  38.965  12.139
27812W        W96030  37.641  10.175   4.702
27813W        W96031  23.105  40.746   3.402
27814W        W96032  20.971   9.306   0.421
27815W        W96033  20.137  28.709   2.788
27816W        W96034  34.628  41.796   4.036
27817W        W96035  37.367   5.394  13.909
27818W        W96036  34.656  44.934   4.673
27819W        W96037  10.036  33.534   0.161
27820W        W96038  39.880   8.216   2.704
27821W        W96039  29.131  14.538  14.952
27822W        W96040  21.388   6.606   3.021
27823W        W96041  42.753  31.115   4.650
27824W        W96042  40.016  37.962  14.918
27825W        W96043  10.789  31.442  10.729
27826W        W96044  34.431   7.692   0.431
27827W        W96045  11.169  21.632   3.166
27828W        W96046  14.495  25.948   3.746
27829W        W96047  18.805  36.963   0.961
27830W        W96048   3.389  35.393  13.940
27831W        W96049   1.400  29.478   1.340
27832W        W96050  24.378  22.441  13.462
27833W        W96051  17.107  41.886  11.039
27834W        W96052  22.948  33.420  14.278
27835W        W96053  15.113  10.214   2.249
27836W        W96054  40.945   3.736   2.164
27837W        W96055  37.931  39.377   0.581
27838W        W96056  20.021  33.989  12.578
27839W        W96057   5.911  33.048   0.167
27840W        W96058  42.954   8.422   0.932
27841W        W96059  29.938  41.241   2.693
27842W        W96060   1.388   5.922   3.302
27843W        W96061  39.876  27.950   0.234
27844W        W96062  25.718  18.059  14.893
27845W        W96063   7.339  25.738   0.028
27846W        W96064  44.598   6.822  11.170
27847W        W96065   1.548  15.857  13.291
27848W        W96066  22.007   5.976  12.558
27849W        W96067   4.854   9.113  10.520
27850W        W96068   6.162  17.319   5.317
27851W        W96069  40.854  39.827   3.791
27852W        W96070  20.516  37.947  13.491
27853W        W96071  31.579  28.858   2.351
27854W        W96072   9.359  22.510  13.309
27855W        W96073  33.531   9.705   3.306
27856W        W96074  44.163  32.739   4.197
27857W        W96075  15.640  36.592   0.205
27858W        W96076  14.527  24.606   2.731
27859W        W96077  13.706  18.150   1.324
27860W        W96078  36.493  39.300  10.501
27861W        W96079  19.004  18.735  10.402
27862W        W96080   1.488  33.931  12.429
27863W        W96081  14.099   7.586   4.015
27864W        W96082  22.124  18.072  12.968
27865W        W96083  12.734  38.179   3.896
27866W        W96084   8.141   5.420   3.081
27867W        W96085  34.890   4.157  14.960
27868W        W96086   4.702  14.398  14.583
27869W        W96087  31.487  13.676   4.152
27870W        W96088  42.350  21.054  14.458
27871W        W96089  13.153   6.166   1.963
27872W        W96090   2.312  32.155  14.450
27873W        W96091   3.797   7.350   1.065
27874W        W96092   9.279  23.932   4.082
27875W        W96093   0.782  27.017   2.638
27876W        W96094  20.939  27.244   4.095
27877W        W96095   6.393   9.361  14.383
27878W        W96096  28.255  23.103  12.726
27879W        W96097  22.217  41.259   1.432
27880W        W96098  37.491   9.724  10.106
27881W        W96099  14.711  42.310  10.151
27882W        W96100   1.755  16.827   4.139
27883W        W96101  22.519  40.485   4.999
27884W        W96102  26.213  34.652   3.250
27885W        W96103  36.958  12.887   0.779
27886W        W96104  13.535  28.420   1.167
27887W        W96105  13.951  39.812  12.853
27888W        W96106  41.007  14.792   2.364
27889W        W96107  10.749  40.996  14.916
27890W        W96108  21.934   7.517  12.288
27891W        W96109  41.953  32.406   0.963
27892W        W96110  10.783  27.180   4.402
27893W        W96111  34.381   0.341  12.768
27894W        W96112   0.324   1.313  12.310
27895W        W96113  21.800  14.317   4.575
27896W        W96114  19.887  23.016   0.153
27897W        W96115  42.320   5.146  11.371
27898W        W96116  20.128   0.376  10.405
27899W        W96117  40.276  42.493  14.611
27900W        W96118  44.913  29.531   4.552
27901W        W96119   9.339  34.515   3.652
27902W        W96120   9.123  32.673   4.151
27903W        W96121  14.876   7.265  14.727
27904W        W96122  43.717   0.887  12.514
27905W        W96123  38.178   6.249   9.997
27906W        W96124  16.059  14.004  11.659
27907W        W96125  28.152  27.132   3.051
27908W        W96126  14.684  44.560  13.514
27909W        W96127   8.849  21.751   2.715
27910W        W96128   0.796  35.475   1.945
27911W        W96129  23.483   7.855  10.727
27912W        W96130   0.811  22.776  10.186
27913W        W96131  23.585  10.168   1.738
27914W        W96132  37.123  43.361  12.525
27915W        W96133  24.458   4.317  13.828
27916W        W96134   8.526  19.670  10.316
27917W        W96135   0.120   4.669   3.055
27918W        W96136  22.685  10.749   2.697
27919W        W96137  36.055  40.720  10.416
27920W        W96138   3.525   7.077  10.294
27921W        W96139  23.463   8.591  11.075
27922W        W96140   4.920  27.937   3.259
27923W        W96141   0.029  34.901  14.877
27924W        W96142  13.815   7.915  14.915
27925W        W96143   0.703  23.229   3.138
27926W        W96144   2.397  34.011   0.835
27927W        W96145  12.459  15.056   2.412
27928W        W96146   7.592  40.900   1.327
27929W        W96147   4.957  14.661   3.617
27930W        W96148  11.452  10.489  14.806
27931W        W96149  32.347  17.009  11.019
27932W        W96150  17.550   0.481   3.718
27933W        W96151  21.280  30.182   2.863
27934W        W96152  22.283  13.366  11.151
27935W        W96153  15.109  12.445  12.822
27936W        W96154  30.210  19.650   4.543
27937W        W96155   1.417  22.887   2.613
27938W        W96156  40.360  24.253  12.087
27939W        W96157  23.341  31.115   0.012
27940W        W96158   8.261   8.313   2.352
27941W        W96159  33.820  27.443   0.182
27942W        W96160  19.806   6.504  13.532
27943W        W96161  39.703  32.668  13.816
27944W        W96162  25.462  22.824   1.949
27945W        W96163  29.114  44.053  12.434
27946W        W96164   5.956  33.933   0.657
27947W        W96165  35.430  27.846  14.446
27948W        W96166  18.972  26.008   2.310
27949W        W96167  13.612  42.423  14.892
27950W        W96168  30.460   3.174   1.877
27951W        W96169   0.160  19.548   1.282
27952W        W96170  33.032  17.136   2.455
27953W        W96171  42.546  22.235  11.641
27954W        W96172  30.470  14.410  12.340
27955W        W96173  16.255  34.901  14.797
27956W        W96174   8.844  39.978  12.498
27957W        W96175  23.538   0.512  14.925
27958W        W96176  34.946  35.163   4.629
27959W        W96177  31.000  29.119  11.090
27960W        W96178  31.872  39.613   1.328
27961W        W96179  38.994   0.326   9.758
27962W        W96180   0.432  35.337  10.772
27963W        W96181  43.004   1.451  10.908
27964W        W96182  44.064  14.575   3.323
27965W        W96183  37.827  20.310   1.319
27966W        W96184   9.821  28.946  14.080
27967W        W96185  43.070  11.589  11.276
27968W        W96186  24.982  20.270   2.642
27969W        W96187  37.284  24.010   4.123
27970W        W96188   4.386  44.267   1.277
27971W        W96189   3.490  33.169  12.448
27972W        W96190  11.577   9.939   0.556
27973W        W96191  10.295  19.703  14.763
27974W        W96192  27.515   7.693  11.224
27975W        W96193  36.760  15.276   0.383
27976W        W96194  16.958  18.446  10.264
27977W        W96195  10.726  12.571   2.787
27978W        W96196  32.304  35.451   0.283
27979W        W96197  23.551   8.557  14.034
27980W        W96198  44.845  41.507  11.880
27981W        W96199  15.763  24.022  12.680
27982W        W96200  38.851  18.925   2.672
27983W        W96201  26.250  34.643   4.025
27984W        W96202   1.381   0.458  12.402
27985W        W96203  23.666   8.951  11.999
27986W        W96204  13.115  26.776   0.240
27987W        W96205  23.068   8.252  12.479
27988W        W96206  31.088  10.183   4.130
27989W        W96207  39.433   8.746   4.178
27990W        W96208  19.162  16.747  11.642
27991W        W96209  44.790  31.497   1.725
27992W        W96210  33.122  42.351   1.257
27993W        W96211  22.559  16.065   0.588
27994W        W96212  15.579  25.707  12.095
27995W        W96213   7.575  31.105   4.411
27996W        W96214  36.362   8.541   1.930
27997W        W96215   2.352  21.409  13.983
27998W        W96216  20.193  25.408   2.394
27999W        W96217   2.242  21.071   3.072
28000W        W96218  41.850  39.327  12.474
28001W        W96219  27.969  27.453   4.656
28002W        W96220  25.741  12.659   3.059
28003W        W96221  16.225  40.782  13.460
28004W        W96222  12.682  43.074   3.706
28005W        W96223  13.670  13.079   3.468
28006W        W96224  34.843  34.908  13.508
28007W        W96225  34.167   7.766   0.908
28008W        W96226   1.973   2.814  13.901
28009W        W96227  39.440   4.177   0.841
28010W        W96228  14.572  33.494  12.859
28011W        W96229  10.805  22.003   0.226
28012W        W96230  42.511  30.624   4.602
28013W        W96231  15.066  29.763  12.933
28014W        W96232  30.374  25.250   2.748
28015W        W96233  41.802  18.636  14.151
28016W        W96234   5.453  25.180  11.109
28017W        W96235  34.016   2.742   3.316
28018W        W96236  11.922  32.694   4.435
28019W        W96237  19.647  38.267  13.239
28020W        W96238  17.116  16.578   1.404
28021W        W96239  29.913  22.736  12.493
28022W        W96240  19.214  14.299   1.395
28023W        W96241   1.461  35.904   2.318
28024W        W96242  27.233  31.515   5.112
28025W        W96243   7.505  11.626  14.739
28026W        W96244  12.573  20.981   1.471
28027W        W96245  28.692  26.095  10.691
28028W        W96246   5.338   4.297  14.000
28029W        W96247   7.437  42.437   1.371
28030W        W96248  12.129  11.682   2.831
28031W        W96249  36.385  41.905  11.177
28032W        W96250  18.022  23.080   3.328
28033W        W96251   1.241  44.733   0.373
28034W        W96252  35.499  12.771  12.069
28035W        W96253   5.762  39.478  12.629
28036W        W96254  41.771  25.021  14.046
28037W        W96255   3.442   3.830   3.744
28038W        W96256   6.485  13.211   4.601
28039W        W96257  35.716  43.760  13.804
28040W        W96258  27.971  39.286  12.026
28041W        W96259  44.720  24.827   1.361
28042W        W96260  13.179  12.710  14.188
28043W        W96261   7.911  40.779   2.214
28044W        W96262  39.453  41.533   3.625
28045W        W96263  43.331  15.674  14.992
28046W        W96264  35.798  19.501   4.575
28047W        W96265  32.096  36.043  13.386
28048W        W96266  12.222  35.386  13.269
28049W        W96267  27.727  39.150  13.910
28050W        W96268  26.649  11.722  12.479
28051W        W96269  34.099  21.713  11.944
28052W        W96270  41.326   6.478   2.524
28053W        W96271  39.040   1.951  13.027
28054W        W96272  15.573  40.351  11.594
28055W        W96273  31.509  41.203   1.810
28056W        W96274   7.760  35.114  10.672
28057W        W96275   0.518  44.096  11.668
28058W        W96276  37.502   3.118   0.952
28059W        W96277   1.578  12.208   3.344
28060W        W96278  10.821  40.829   3.756
28061W        W96279  36.595   3.225   1.496
28062W        W96280  19.552  38.793  13.347
28063W        W96281  37.463  37.421  10.888
28064W        W96282   2.062   5.911   4.126
28065W        W96283  10.663  19.019  14.289
28066W        W96284   5.236  33.960  14.986
28067W        W96285  43.978  37.512  10.779
28068W        W96286  19.676   4.514   3.917
28069W        W96287   8.029  16.082  12.114
28070W        W96288  15.342  20.165   3.268
28071W        W96289   6.835  21.070   0.268
28072W        W96290  36.800  32.680  11.161
28073W        W96291   7.828  42.837  14.716
28074W        W96292  23.693  36.527   4.104
28075W        W96293  20.613  12.067  12.390
28076W        W96294  32.332  37.689   0.091
28077W        W96295   4.447  37.380   0.923
28078W        W96296  13.722   6.323  12.069
28079W        W96297  30.243   9.453  12.725
28080W        W96298  13.181  41.187  12.043
28081W        W96299  16.228  35.856  14.859
28082W        W96300  25.983   8.276   0.893
28083W        W96301  42.920  43.637   1.054
28084W        W96302  27.265  22.596  14.870
28085W        W96303  20.270  44.329  14.799
28086W        W96304  14.326  14.686   0.529
28087W        W96305   8.289  40.781   3.671
28088W        W96306  13.471  16.682   4.056
28089W        W96307  25.487  18.507  14.790
28090W        W96308  44.429   2.498  13.341
28091W        W96309  31.659   1.711   4.175
28092W        W96310  20.004  17.060   3.300
28093W        W96311  23.954   4.268  13.952
28094W        W96312  12.796  41.371   1.447
28095W        W96313   2.264  39.821  13.524
28096W        W96314   6.650  18.427  12.063
28097W        W96315   2.711   7.294   4.085
28098W        W96316  19.197  44.449  14.042
28099W        W96317  35.454   4.431  14.364
28100W        W96318  13.773  32.080   3.765
28101W        W96319  27.783   6.776  10.792
28102W        W96320  19.534  13.341   4.266
28103W        W96321  25.043   3.951  13.552
28104W        W96322   4.291   6.261   2.214
28105W        W96323  20.048   9.330   2.906
28106W        W96324  26.589   0.692  12.219
28107W        W96325  14.126  25.984   2.139
28108W        W96326  34.891  13.009  14.524
28109W        W96327   4.536  39.514  14.386
28110W        W96328   3.786  39.114   0.442
28111W        W96329  12.697  11.862   0.742
28112W        W96330  34.348   7.185   0.193
28113W        W96331  38.309  31.145  13.536
28114W        W96332  34.477  28.508  14.620
28115W        W96333  17.192  40.594  11.900
28116W        W96334  22.728  27.630   3.213
28117W        W96335  21.768  29.595   4.555
28118W        W96336   7.417  35.076   4.647
28119W        W96337  22.184   5.000  13.368
28120W        W96338   8.636  32.147   0.494
28121W        W96339   1.092  34.027   0.793
28122W        W96340   0.391  38.831  11.594
28123W        W96341   7.723   0.392   1.341
28124W        W96342   3.888  12.290  13.599
28125W        W96343  38.567   2.544  11.225
28126W        W96344   2.775   9.404   1.038
28127W        W96345   6.877  32.459   0.893
28128W        W96346  36.838  36.365   2.720
28129W        W96347  30.166  24.730  12.532
28130W        W96348   7.441  15.075  14.403
28131W        W96349  16.510  37.048   2.690
28132W        W96350  17.530  44.102  12.896
28133W        W96351  36.143   9.356   4.641
28134W        W96352  20.651  36.479  13.501
28135W        W96353  42.493  25.515  12.608
28136W        W96354   7.310  17.545   1.716
28137W        W96355   0.278  32.742   3.730
28138W        W96356  44.900  21.149   3.511
28139W        W96357  28.891   4.818  12.854
28140W        W96358  31.211  25.431  12.501
28141W        W96359   3.690  26.590   3.327
28142W        W96360  31.852  42.519  13.543
28143W        W96361  31.475  14.464   0.674
28144W        W96362  18.121  16.834   1.367
28145W        W96363  42.551   4.847   2.598
28146W        W96364   4.301   5.696   3.393
28147W        W96365  28.380   8.299  14.966
28148W        W96366   7.154  20.583  12.534
28149W        W96367   9.512  11.762  12.029
28150W        W96368  26.881  40.131   2.635
28151W        W96369   7.087  43.182   1.053
28152W        W96370  38.592   2.337   2.707
28153W        W96371   2.527   2.145   3.273
28154W        W96372  17.290   0.701   2.157
28155W        W96373  27.543  29.180  12.087
28156W        W96374  23.980   0.879   1.370
28157W        W96375  10.386  28.198   4.069
28158W        W96376   9.769  10.313   4.157
28159W        W96377  26.781  15.119   0.042
28160W        W96378  22.766   2.843  11.924
28161W        W96379  10.236   1.610   0.891
28162W        W96380   1.008  18.997   2.423
28163W        W96381  26.445  29.024   3.661
28164W        W96382  37.404  11.205   4.661
28165W        W96383  38.041  43.167   2.410
28166W        W96384  28.973  27.310  11.154
28167W        W96385  28.907  42.734   0.712
28168W        W96386  29.197   0.724  13.848
28169W        W96387  35.435   0.308   4.351
28170W        W96388  40.563  12.818   0.154
28171W        W96389  21.312   3.756   4.142
28172W        W96390  11.343  39.445  12.015
28173W        W96391  13.377   8.590   4.145
28174W        W96392  38.112   4.174  13.476
28175W        W96393  10.577  12.455   3.273
28176W        W96394  34.028  41.388  13.310
28177W        W96395  42.138  39.975   2.767
28178W        W96396  40.432  27.567   1.964
28179W        W96397  26.721  27.040   3.810
28180W        W96398  38.736  24.740   0.433
28181W        W96399   9.246  40.924  13.374
28182W        W96400  43.010   1.437   1.881
28183W        W96401  27.000  12.755   4.793
28184W        W96402  18.282  28.139  12.542
28185W        W96403  15.698  29.555  14.768
28186W        W96404  15.341  28.398   3.226
28187W        W96405   4.103   1.473  13.564
28188W        W96406  33.125   2.819   4.971
28189W        W96407  31.473  12.035  14.814
28190W        W96408  24.507  20.127  13.618
28191W        W96409  10.359  19.635   4.146
28192W        W96410  38.323  16.036   4.310
28193W        W96411  16.465  32.113   0.468
28194W        W96412  17.832  40.475  12.492
28195W        W96413  20.284  32.810  14.962
28196W        W96414  28.463  26.473  10.989
28197W        W96415  23.022  31.942   2.587
28198W        W96416  41.580   6.594   3.311
28199W        W96417  33.487  13.169  10.761
28200W        W96418  16.328  19.794  13.476
28201W        W96419  40.232   8.653   2.811
28202W        W96420  20.257  35.616   0.486
28203W        W96421  20.510  14.162  13.853
28204W        W96422   1.458  19.469  10.763
28205W        W96423  25.186   8.850  12.984
28206W        W96424  31.947   8.347   3.664
28207W        W96425  37.054   7.963   0.910
28208W        W96426  36.067  16.164  14.625
28209W        W96427   3.451  36.240  12.011
28210W        W96428  43.050  30.103  10.703
28211W        W96429  28.145  28.866  11.811
28212W        W96430  36.004   7.880   2.279
28213W        W96431  43.780  33.417   2.936
28214W        W96432  42.842   8.002   1.659
28215W        W96433  19.223  10.044   1.223
28216W        W96434  31.212  44.099   2.200
28217W        W96435  21.629   5.905   0.324
28218W        W96436  30.126  24.070  13.600
28219W        W96437   6.202  41.282   0.832
28220W        W96438  31.924  26.948  10.259
28221W        W96439  40.036  23.004   0.958
28222W        W96440  32.926  16.250   3.323
28223W        W96441  14.377  21.871   4.140
28224W        W96442  42.970  25.046   0.967
28225W        W96443  10.384   0.655   0.867
28226W        W96444   3.859  33.064  12.062
28227W        W96445  21.689   1.416   1.297
28228W        W96446  14.915  33.395  12.003
28229W        W96447  37.641  19.194   2.235
28230W        W96448  21.735   6.397   3.787
28231W        W96449   2.000  24.472  12.009
28232W        W96450  15.117  11.803  14.293
28233W        W96451  40.762  39.008   2.804
28234W        W96452  36.868  14.149  11.721
28235W        W96453  24.497  22.263   0.346
28236W        W96454   1.872  44.627  10.358
28237W        W96455  21.218  32.931   3.708
28238W        W96456  13.869   2.704  13.795
28239W        W96457  42.147   3.434  11.260
28240W        W96458  12.609  28.538   0.676
28241W        W96459   4.429  42.566   4.540
28242W        W96460   1.967  15.118  11.088
28243W        W96461  42.791  22.248   1.268
28244W        W96462  35.960  41.556   0.849
28245W        W96463  10.563  31.622  12.182
28246W        W96464  23.655  16.933  11.899
28247W        W96465   3.791  12.253   1.799
28248W        W96466  24.046  36.922   4.046
28249W        W96467  23.029  17.339   0.414
28250W        W96468  20.188  15.638  11.936
28251W        W96469  14.184  28.839  14.311
28252W        W96470  35.050  35.783   1.424
28253W        W96471  38.000  37.299  12.035
28254W        W96472   3.371   4.261  10.634
28255W        W96473  13.682  15.213  13.092
28256W        W96474  16.188  34.393   3.849
28257W        W96475   8.862  19.818  10.743
28258W        W96476   9.495  34.077  14.773
28259W        W96477  17.612  21.014   1.357
28260W        W96478  35.558  14.267  14.821
28261W        W96479   3.327  14.348  11.566
28262W        W96480  33.591  33.149  11.516
28263W        W96481  37.210  37.496   2.806
28264W        W96482   1.143  12.756  11.962
28265W        W96483  37.529   4.369   4.056
28266W        W96484  10.439  31.371   2.589
28267W        W96485  39.305  34.869   2.831
28268W        W96486   6.464  40.342   3.573
28269W        W96487  43.803  34.588   4.452
28270W        W96488  16.574  22.057  11.388
28271W        W96489   6.144  28.143   2.148
28272W        W96490  40.436  35.522   1.721
28273W        W96491  38.030  18.661  11.543
28274W        W96492  40.794  36.868   1.360
28275W        W96493  41.389   7.468   1.808
28276W        W96494  10.072   8.776  11.113
28277W        W96495  29.546  31.435  12.370
28278W        W96496  14.350  20.594   4.617
28279W        W96497  23.210  31.561  14.766
28280W        W96498   7.812  21.755  12.134
28281W        W96499  38.377  43.439  11.890
28282W        W96500  28.809  39.867   3.634
28283W        W96501  18.599  37.377   4.072
28284W        W96502  21.197   3.386   4.992
28285W        W96503  10.729  22.711   1.829
28286W        W96504  44.654   7.272  10.856
28287W        W96505  43.586   4.636  11.125
28288W        W96506  34.925  17.045  10.717
28289W        W96507  27.410  27.346   0.827
28290W        W96508  19.678  24.533   2.447
28291W        W96509  12.468   3.438  12.551
28292W        W96510  32.613  10.735   4.253
28293W        W96511  40.389  41.738   2.315
28294W        W96512   9.747  22.772   4.913
28295W        W96513  36.570  16.007   0.946
28296W        W96514   7.081   5.864   4.242
28297W        W96515  21.692  14.651  13.230
28298W        W96516  23.982  30.825  11.178
28299W        W96517  31.673  30.596  10.239
28300W        W96518  25.189  16.186   2.487
28301W        W96519  40.558  33.883   4.601
28302W        W96520  44.435   7.672  11.929
28303W        W96521  22.291  44.967   1.465
28304W        W96522  26.922  29.326   1.932
28305W        W96523  31.475   7.769   4.864
28306W        W96524  42.763  12.166   3.699
28307W        W96525   5.308  26.038  12.638
28308W        W96526  19.503  17.048  13.856
28309W        W96527   4.737   5.378  12.830
28310W        W96528  44.645  36.421   2.189
28311W        W96529  39.386   9.710  12.492
28312W        W96530  24.414  32.934   0.950
28313W        W96531  25.080  20.130   3.109
28314W        W96532  33.718  15.159   0.465
28315W        W96533  23.459  38.027  11.014
28316W        W96534  11.866  32.486   3.268
28317W        W96535   8.353  35.396  12.947
28318W        W96536  34.801  11.969   3.167
28319W        W96537  33.980  14.207   0.915
28320W        W96538   9.317  32.467   3.699
28321W        W96539  19.762  42.961  10.510
28322W        W96540  38.952  28.967  11.093
28323W        W96541  21.495   7.655  10.755
28324W        W96542  39.239  38.013  12.423
28325W        W96543  11.911  43.749  11.015
28326W        W96544  16.798   7.978   2.842
28327W        W96545  35.906   5.225   0.248
28328W        W96546  16.889  44.979  13.564
28329W        W96547  36.350  20.162   0.116
28330W        W96548  22.140   7.598   0.235
28331W        W96549  35.830  33.926   4.104
28332W        W96550  32.096   1.950   2.758
28333W        W96551  39.853   8.192   1.800
28334W        W96552  41.921  20.673  12.874
28335W        W96553   6.113   3.882  11.000
28336W        W96554   5.933  41.534  14.414
28337W        W96555  29.253   3.016   4.570
28338W        W96556   7.196  26.936  14.579
28339W        W96557  25.535  21.590   1.000
28340W        W96558  26.878  13.252  11.987
28341W        W96559  28.445  29.900   2.715
28342W        W96560  19.679  37.156   2.792
28343W        W96561  43.086  30.873  12.495
28344W        W96562   7.475   2.765  13.327
28345W        W96563  33.541  12.472   3.609
28346W        W96564  44.739  27.717  11.631
28347W        W96565   7.912  14.338   0.082
28348W        W96566  25.495  17.195  14.465
28349W        W96567  23.626  20.091   2.733
28350W        W96568   4.715  37.776   0.637
28351W        W96569   2.317  43.977   2.098
28352W        W96570  15.138  32.614   2.771
28353W        W96571  22.275  21.225  11.449
28354W        W96572  38.923  27.235   1.230
28355W        W96573  29.475  43.895   4.855
28356W        W96574  27.031  34.318   0.436
28357W        W96575  17.319   5.320   4.561
28358W        W96576  40.325   7.422  11.172
28359W        W96577  32.879  13.158   4.366
28360W        W96578  30.145  13.173   2.363
28361W        W96579  12.875  39.354   1.048
28362W        W96580  39.409  29.586   4.204
28363W        W96581  27.710   4.701  14.213
28364W        W96582  29.594  33.529  11.759
28365W        W96583  36.409  15.967  13.486
28366W        W96584   7.863  13.272   0.507
28367W        W96585  30.949  22.927  14.781
28368W        W96586  44.473  35.901   1.333
28369W        W96587   9.339  44.863   2.256
28370W        W96588  39.719  12.240   0.415
28371W        W96589  37.832  40.778  11.468
28372W        W96590   6.736  32.181  12.894
28373W        W96591  14.144  34.087  12.396
28374W        W96592  17.653   9.286  12.460
28375W        W96593  25.685  40.953   0.568
28376W        W96594   3.331  28.118  12.886
28377W        W96595  37.983   7.884   3.729
28378W        W96596  15.595   2.192  14.376
28379W        W96597  44.849  13.791  13.415
28380W        W96598  38.633  40.739   4.148
28381W        W96599  16.152  13.288   1.629
28382W        W96600  32.077   7.381  10.131
28383W        W96601  38.124   3.476  12.969
28384W        W96602  36.569   7.337  13.771
28385W        W96603  41.178  35.460  11.109
28386W        W96604  32.782  14.950   4.902
28387W        W96605   8.705  15.711   0.933
28388W        W96606   6.434   7.095  12.021
28389W        W96607  23.236  23.444   1.777
28390W        W96608   4.183  26.400  12.821
28391W        W96609  19.219  38.589   3.439
28392W        W96610   7.670  12.845  11.561
28393W        W96611  12.710   7.428   0.810
28394W        W96612  22.969   3.350  13.810
28395W        W96613  22.083  36.751  12.140
28396W        W96614   3.794  42.467   2.708
28397W        W96615  38.269  32.660  12.650
28398W        W96616   2.748   0.575   1.189
28399W        W96617  31.037  33.615   3.726
28400W        W96618   9.192  23.114  12.641
28401W        W96619  27.667  34.031  12.707
28402W        W96620  41.826  22.919   2.079
28403W        W96621  16.592   1.262   4.419
28404W        W96622   7.151   0.086   4.113
28405W        W96623  18.745  10.259   2.904
28406W        W96624  34.876  23.105  10.677
28407W        W96625  22.258  16.037  13.862
28408W        W96626  27.596  17.680   3.732
28409W        W96627  17.056  44.819   4.050
28410W        W96628   1.777  24.022   4.365
28411W        W96629  17.763  21.460  14.938
28412W        W96630  18.020  32.608  13.398
28413W        W96631  20.222  34.017  13.579
28414W        W96632  14.753  35.842  13.497
28415W        W96633  42.764   0.134   1.224
28416W        W96634  37.685  21.724   2.781
28417W        W96635  38.530  21.541  10.389
28418W        W96636  36.434  12.865  14.386
28419W        W96637  13.945   3.823  11.388
28420W        W96638  16.248  30.519  11.563
28421W        W96639  32.334  42.720  13.444
28422W        W96640  41.390  19.574  14.393
28423W        W96641   6.676  13.108  11.869
28424W        W96642  43.866  42.072  11.612
28425W        W96643  34.607  38.516  11.611
28426W        W96644   8.845  17.804  11.485
28427W        W96645  23.460   9.160   3.713
28428W        W96646  33.072   7.920   2.198
28429W        W96647  39.798   3.692   1.714
28430W        W96648  29.511   3.260  14.877
28431W        W96649  35.044  39.321   2.468
28432W        W96650  14.588   9.271   2.463
28433W        W96651  38.912  43.317   1.194
28434W        W96652  32.672  16.119  14.435
28435W        W96653  42.359  37.334   0.483
28436W        W96654   8.302  25.238  13.895
28437W        W96655   3.795  19.321  11.987
28438W        W96656  40.085  30.375  12.729
28439W        W96657  21.724  25.728  13.097
28440W        W96658  39.500   6.203  11.137
28441W        W96659  36.790  12.197   1.954
28442W        W96660  26.042  33.249   1.481
28443W        W96661  22.982  35.161   4.161
28444W        W96662  40.004  16.029   4.857
28445W        W96663   8.584  16.756  14.786
28446W        W96664  17.798  27.034  14.688
28447W        W96665  44.941  19.740  10.720
28448W        W96666  42.794  34.052   3.227
28449W        W96667  34.152  18.692  13.379
28450W        W96668  23.538  20.372   1.416
28451W        W96669  35.306   0.975  11.292
28452W        W96670  12.576  16.654  13.792
28453W        W96671  24.692  14.194   2.737
28454W        W96672  11.557   3.896   3.406
28455W        W96673  30.594  26.570  11.277
28456W        W96674   3.322  30.811  14.910
28457W        W96675  23.225   2.726  14.731
28458W        W96676  23.035  32.480  13.038
28459W        W96677  36.870  16.664   4.556
28460W        W96678  19.481  26.147   2.184
28461W        W96679   2.256  17.030   4.114
28462W        W96680  38.770  14.308   4.811
28463W        W96681  31.947  16.839  12.567
28464W        W96682  27.985   6.942   1.955
28465W        W96683  14.675   5.703  13.847
28466W        W96684  13.115  39.699  11.707
28467W        W96685   6.501   2.736   2.831
28468W        W96686  26.936  18.721   0.193
28469W        W96687   7.376  24.263   2.232
28470W        W96688  34.363  30.339   2.780
28471W        W96689  18.466  25.186   4.149
28472W        W96690  38.806  37.974   0.734
28473W        W96691  24.267   4.252   0.294
28474W        W96692   8.404  36.917  14.834
28475W        W96693  17.282  34.056  12.868
28476W        W96694  22.763  19.537   1.824
28477W        W96695  31.848   1.731  10.810
28478W        W96696   8.083  13.078  11.981
28479W        W96697  14.331  38.799  14.727
28480W        W96698   4.365  27.006  10.469
28481W        W96699  38.238  33.321   4.594
28482W        W96700  36.111  29.430   2.124
28483W        W96701  37.194  10.278  14.613
28484W        W96702  39.069   5.656  13.985
28485W        W96703  34.485  22.562  11.992
28486W        W96704  13.145  44.991  14.427
28487W        W96705  16.175  22.725   0.236
28488W        W96706   7.860  44.169   0.441
28489W        W96707   1.420  16.536   1.610
28490W        W96708  44.328  33.106  11.909
28491W        W96709  36.313  27.191  13.468
28492W        W96710  32.109  41.343   0.197
28493W        W96711  29.922   5.913  14.070
28494W        W96712  41.286  19.312   4.028
28495W        W96713  41.944  42.509   2.852
28496W        W96714  42.554  27.590  10.758
28497W        W96715   7.905   2.836  12.515
28498W        W96716  43.001  21.071  10.593
28499W        W96717  28.471  19.188   4.322
28500W        W96718  16.488   8.846  14.747
28501W        W96719  43.025  30.619  10.776
28502W        W96720  27.084   8.417  12.612
28503W        W96721   6.501  28.423   1.910
28504W        W96722  44.430   4.901  10.332
28505W        W96723  24.115  23.674   0.340
28506W        W96724   9.809   4.914   4.847
28507W        W96725   6.648  37.004   1.384
28508W        W96726  12.792   4.675   0.944
28509W        W96727  37.518  10.749  11.128
28510W        W96728  22.036  44.530   1.683
28511W        W96729   9.087  16.981   3.586
28512W        W96730  19.627   0.730   4.079
28513W        W96731   3.650  11.419   0.296
28514W        W96732   9.781  41.102  12.879
28515W        W96733  30.433  31.119   1.011
28516W        W96734  29.577  42.915   4.684
28517W        W96735  17.568   1.264   4.244
28518W        W96736  31.232  15.731  11.347
28519W        W96737  38.490  16.040   1.435
28520W        W96738  26.005   8.085  14.996
28521W        W96739  15.718  28.096  10.531
28522W        W96740  22.472   9.536  11.217
28523W        W96741  17.544  23.622  13.948
28524W        W96742  27.161  18.599   1.231
28525W        W96743  10.191  39.012   2.248
28526W        W96744  37.335  18.217  12.336
28527W        W96745  23.680  24.673  10.960
28528W        W96746  25.968  11.585   0.098
28529W        W96747  15.828  25.180   3.803
28530W        W96748  44.993  27.745  13.976
28531W        W96749  17.183  25.901  13.480
28532W        W96750  22.959   2.691   3.675
28533W        W96751   1.124  24.360  11.021
28534W        W96752  20.644   5.710  13.131
28535W        W96753  14.320   5.511   4.999
28536W        W96754   4.949  10.607  14.334
28537W        W96755   1.960   5.298   2.266
28538W        W96756  36.657  31.735  13.030
28539W        W96757   4.296  34.313   0.451
28540W        W96758  24.782  22.607   3.177
28541W        W96759   2.510  26.660  10.763
28542W        W96760  30.287   0.260  11.113
28543W        W96761   8.855  35.901  13.954
28544W        W96762  27.108  22.693  11.617
28545W        W96763  38.484  23.012   1.875
28546W        W96764  23.190  28.726   0.036
28547W        W96765  39.933  17.687   2.259
28548W        W96766  35.145  16.473   0.358
28549W        W96767  43.733   9.815  11.660
28550W        W96768  31.350  27.494   2.374
28551W        W96769  15.982  21.055   1.788
28552W        W96770   6.755  41.872  12.434
28553W        W96771  22.740  42.751  11.789
28554W        W96772   4.843  42.317   3.607
28555W        W96773  13.888  22.462   4.688
28556W        W96774  41.928  14.839   1.301
28557W        W96775  18.614  22.775   2.322
28558W        W96776  37.835  27.857  14.025
28559W        W96777  44.356  35.748  13.867
28560W        W96778  25.019  30.553   2.265
28561W        W96779   7.445  23.732   2.897
28562W        W96780  21.236  16.133   2.356
28563W        W96781  42.123  32.515  12.404
28564W        W96782   8.320  22.946  10.927
28565W        W96783  24.127   6.623  10.228
28566W        W96784   4.782  15.412   2.971
28567W        W96785  33.606  17.324  11.108
28568W        W96786  28.495  30.987   1.795
28569W        W96787  29.182  39.493  11.701
28570W        W96788  13.653   2.725  12.890
28571W        W96789  34.622   0.057  11.048
28572W        W96790  14.342  40.306   5.137
28573W        W96791  21.118  25.696   2.758
28574W        W96792  30.673  14.060   3.690
28575W        W96793  37.980  34.796  10.623
28576W        W96794  15.818  38.361  12.139
28577W        W96795  17.341  23.962  12.377
28578W        W96796  21.432  12.552  11.968
28579W        W96797  38.527  39.832   2.770
28580W        W96798  41.882  40.954   3.579
28581W        W96799  38.652  21.251   1.143
28582W        W96800  39.571  35.979   1.738
28583W        W96801  38.324  12.255   0.967
28584W        W96802  10.165  31.593   2.173
28585W        W96803  15.000  35.450   3.385
28586W        W96804  25.743  21.274  11.705
28587W        W96805  30.193  35.081   0.377
28588W        W96806  15.664  23.225   3.719
28589W        W96807   2.835  44.278   0.327
28590W        W96808   4.963   4.704   2.182
28591W        W96809  27.821  37.935  13.085
28592W        W96810  15.711   8.646   3.155
28593W        W96811  10.329  12.815   3.003
28594W        W96812  29.690  17.797   4.967
28595W        W96813  39.007  18.252   4.684
28596W        W96814  19.843  22.174   0.740
28597W        W96815  34.382  43.628  12.353
28598W        W96816  11.729  41.792   2.211
28599W        W96817  41.060  19.059  13.002
28600W        W96818  33.516  36.333   3.621
28601W        W96819  28.920  11.741  12.915
28602W        W96820  41.563  27.500   4.638
28603W        W96821  33.084  41.967  10.478
28604W        W96822  30.804  18.028   0.369
28605W        W96823  16.591  43.201  14.766
28606W        W96824  17.884  31.163   0.968
28607W        W96825   9.874  34.513  12.645
28608W        W96826   3.656  43.924  13.698
28609W        W96827  13.618  42.928   4.122
28610W        W96828  14.871   9.902   1.230
28611W        W96829   0.952  11.455   2.584
28612W        W96830   4.225  38.069  11.622
28613W        W96831   4.587   4.302  13.333
28614W        W96832  18.193  22.911  14.288
28615W        W96833   0.315   4.168  11.662
28616W        W96834   6.949   3.424   3.300
28617W        W96835   5.690   8.095   0.373
28618W        W96836  30.973   0.558   2.168
28619W        W96837   9.666   6.444  14.125
28620W        W96838  12.898  12.749  12.055
28621W        W96839  38.341   3.403  12.486
28622W        W96840  43.343   4.929   0.512
28623W        W96841  11.770  13.958  12.025
28624W        W96842  32.140  28.090   3.730
28625W        W96843  12.714  42.432  13.731
28626W        W96844   9.370  38.559   1.793
28627W        W96845  39.061  30.455   2.619
28628W        W96846   9.875  25.740  12.042
28629W        W96847  20.552  26.054  11.261
28630W        W96848  21.083  30.174   2.317
28631W        W96849  13.558   1.934   0.274
28632W        W96850  34.444  20.063   0.839
28633W        W96851  13.593  15.628   2.237
28634W        W96852  35.315  35.608  11.598
28635W        W96853   3.099  29.710   4.208
28636W        W96854  24.002  40.797   1.300
28637W        W96855   5.239  14.087   0.422
28638W        W96856  36.014  14.241   4.043
28639W        W96857   9.917  29.013  10.676
28640W        W96858  20.599  11.665  13.386
28641W        W96859   5.861   3.219   0.767
28642W        W96860   9.552  37.530  13.972
28643W        W96861  10.750  27.790  10.420
28644W        W96862  12.724  37.408   2.388
28645W        W96863   5.742  40.445  10.678
28646W        W96864  13.073  40.419   0.869
28647W        W96865  32.500  10.455  12.873
28648W        W96866  44.546  23.034  10.445
28649W        W96867  28.587  38.868  11.578
28650W        W96868  21.697   6.638  14.781
28651W        W96869  41.476  23.955  12.572
28652W        W96870   4.457  31.999  12.962
28653W        W96871  32.914   5.666   0.972
28654W        W96872  37.076  44.936  12.891
28655W        W96873  26.421  42.919  12.088
28656W        W96874  32.529  39.617  13.801
28657W        W96875   7.999  10.377  10.288
28658W        W96876  37.076  35.200  11.054
28659W        W96877  37.564  11.048  13.934
28660W        W96878  13.103  44.193  14.876
28661W        W96879   2.204  28.705  14.207
28662W        W96880  36.975  38.079   4.121
28663W        W96881  23.013   8.419  12.974
28664W        W96882  39.664  33.281   2.751
28665W        W96883  32.034  24.220   2.576
28666W        W96884  15.205  10.577   2.631
28667W        W96885   7.266  35.007  13.516
28668W        W96886  28.635  33.902   0.088
28669W        W96887  30.003  38.548   3.701
28670W        W96888  35.590   4.964   1.185
28671W        W96889  16.768   1.330   0.932
28672W        W96890  11.266  26.333   0.316
28673W        W96891  28.081  33.786  12.558
28674W        W96892  34.685  20.665   3.748
28675W        W96893  13.307  20.741  14.623
28676W        W96894  16.447  29.647  11.572
28677W        W96895  29.665   0.855  11.980
28678W        W96896  22.673  13.068  12.472
28679W        W96897  35.224  42.361  11.213
28680W        W96898  29.799  30.215   4.055
28681W        W96899  17.621  38.620   0.189
28682W        W96900  27.357  43.604   4.864
28683W        W96901   8.712   2.233  11.842
28684W        W96902  13.771   0.285   2.838
28685W        W96903  22.546  11.126  10.192
28686W        W96904  12.711   0.875  11.240
28687W        W96905  36.900  24.052  13.380
28688W        W96906   3.039  24.700   0.490
28689W        W96907  26.761   1.636   3.813
28690W        W96908  17.691   7.042   3.182
28691W        W96909  44.191  22.171  14.968
28692W        W96910  17.090   3.565  14.696
28693W        W96911  39.714  13.159   2.376
28694W        W96912  17.151   4.772   1.925
28695W        W96913  11.670  41.037  12.944
28696W        W96914  29.143   4.243  14.881
28697W        W96915  11.107   3.637   2.202
28698W        W96916  18.228  39.863   1.567
28699W        W96917  35.992  18.671   0.528
28700W        W96918  30.899  18.297   4.723
28701W        W96919  26.062  42.546   0.005
28702W        W96920   9.646  39.977   2.636
28703W        W96921  14.534  43.300  13.513
28704W        W96922  15.236   3.926   3.860
28705W        W96923  36.527   6.667  14.962
28706W        W96924   1.090  20.015   1.770
28707W        W96925  37.602  39.618   2.306
28708W        W96926  23.054  24.299   1.870
28709W        W96927   1.861  34.584  12.938
28710W        W96928   1.851  22.209  13.299
28711W        W96929  37.883  42.521  10.750
28712W        W96930  43.952  13.192   4.593
28713W        W96931  29.089  34.051   1.937
28714W        W96932  19.550  13.332  12.178
28715W        W96933  17.269  24.750   0.271
28716W        W96934   7.486   4.525   2.384
28717W        W96935   3.235  20.014   0.001
28718W        W96936  44.787   0.879   3.929
28719W        W96937   3.946  30.784   0.422
28720W        W96938  17.474  13.118   4.680
28721W        W96939  13.268  43.021  10.512
28722W        W96940  26.935  27.563   0.761
28723W        W96941  27.506  12.244   3.212
28724W        W96942  11.876  16.133   1.768
28725W        W96943  24.406  19.182   2.266
28726W        W96944  43.491  21.745   1.347
28727W        W96945  25.015  18.043  10.539
28728W        W96946  38.767  42.553   4.163
28729W        W96947  16.361  13.369   3.570
28730W        W96948  37.125  40.994  12.094
28731W        W96949  37.564  41.334  12.501
28732W        W96950  39.115  12.786  11.105
28733W        W96951  25.266  41.628  12.885
28734W        W96952  14.027  39.644  13.354
28735W        W96953   3.880  44.532   0.739
28736W        W96954  20.811  19.647  12.733
28737W        W96955  44.337  27.494   3.783
28738W        W96956  44.797  30.215   0.570
28739W        W96957  16.080  26.550  12.399
28740W        W96958  34.882   1.938   0.721
28741W        W96959   4.365  37.531  10.555
28742W        W96960  18.815  20.565   1.732
28743W        W96961  20.537   1.953   0.451
28744W        W96962  14.806  42.356   0.866
28745W        W96963   2.429  39.140   4.626
28746W        W96964  16.533  39.391  11.528
28747W        W96965  37.831  19.638   5.129
28748W        W96966  10.008  40.455  11.403
28749W        W96967  25.650  37.186   2.357
28750W        W96968  43.568  29.455  12.538
28751W        W96969  22.211   7.105   0.383
28752W        W96970   4.247  38.424   2.329
28753W        W96971  39.450   9.425   2.757
28754W        W96972  34.529  32.235  12.345
28755W        W96973  19.722   4.254   1.311
28756W        W96974  13.118  15.392  12.367
28757W        W96975  42.108   0.546  12.136
28758W        W96976  39.897  20.186  14.305
28759W        W96977  22.107   4.279   3.267
28760W        W96978  25.125  12.632   2.483
28761W        W96979  27.033   0.941   2.859
28762W        W96980   1.304  15.369  10.661
28763W        W96981  14.408   8.264   3.957
28764W        W96982   3.768  37.901   4.876
28765W        W96983   4.911   9.094   4.593
28766W        W96984  40.512  39.828  13.463
28767W        W96985  32.345   8.644   2.354
28768W        W96986  41.591  31.965  12.841
28769W        W96987  40.868  27.060   1.261
28770W        W96988   4.210  37.648   4.856
28771W        W96989  19.207  15.618   1.762
28772W        W96990  26.635   5.979   0.867
28773W        W96991  14.374   6.094   4.258
28774W        W96992  34.002  42.373   4.841
28775W        W96993  30.025  27.933   3.679
28776W        W96994   7.722   3.796  12.412
28777W        W96995  24.409   4.949   4.875
28778W        W96996   8.024  29.724  12.067
28779W        W96997  16.887   3.685  12.927
28780W        W96998  31.035  29.131  12.816
28781W        W96999  35.877   5.704   4.710
28782W        W97000   7.816  27.614  14.046
28783W        W97001  24.088  27.412   4.936
28784W        W97002  41.991  19.976   4.875
28785W        W97003  42.566  29.494  14.692
28786W        W97004  34.353   3.693   3.225
28787W        W97005  16.313  37.129  11.245
28788W        W97006  27.440   5.641   3.677
28789W        W97007  33.863   9.585  12.957
28790W        W97008  41.425  30.148  11.858
28791W        W97009  26.816  21.053  10.276
28792W        W97010  21.079  13.229   3.633
28793W        W97011  15.231  24.020   1.844
28794W        W97012  34.416  17.077  12.611
28795W        W97013   6.189   3.780   4.401
28796W        W97014  21.644   0.179   0.822
28797W        W97015  20.827  37.738   5.052
28798W        W97016  10.783  32.526  10.747
28799W        W97017  28.491  14.072   3.748
28800W        W97018  33.830  17.724  12.399
28801W        W97019  43.055  31.646  12.061
28802W        W97020   4.730  32.393   2.783
28803W        W97021  22.976  16.197  11.829
28804W        W97022  31.318  24.934  12.004
28805W        W97023  40.739   0.390  12.482
28806W        W97024   0.963  14.140   1.811
28807W        W97025  24.200  12.741   3.149
28808W        W97026  40.732  22.266   4.113
28809W        W97027  27.917  22.739   2.184
28810W        W97028  17.424  43.935   2.289
28811W        W97029  31.540  40.957  12.329
28812W        W97030  35.437  28.223   1.785
28813W        W97031  40.828   7.313   4.077
28814W        W97032   6.796   7.117  12.469
28815W        W97033  43.754  35.438   1.339
28816W        W97034  20.980  11.314  14.116
28817W        W97035  41.467   3.008   2.303
28818W        W97036   6.450  28.083   3.226
28819W        W97037   6.419  14.629  10.963
28820W        W97038  25.976   5.238  13.375
28821W        W97039  23.108  35.384  13.368
28822W        W97040   2.469  21.139   0.352
28823W        W97041  30.994  22.012  11.649
28824W        W97042  17.177  41.012   2.590
28825W        W97043  44.243  27.183  13.577
28826W        W97044  43.775   2.225   4.360
28827W        W97045  20.170   8.819   2.798
28828W        W97046   7.771  15.626   3.192
28829W        W97047  11.965   5.087   1.475
28830W        W97048  34.776  24.447   1.772
28831W        W97049  28.798  24.896  10.647
28832W        W97050  33.893  39.988   3.961
28833W        W97051  11.416  12.625  11.135
28834W        W97052   1.712  25.467  12.066
28835W        W97053  39.539   5.894   5.491
28836W        W97054   0.555  39.072   3.244
28837W        W97055  38.143  23.979   4.438
28838W        W97056  31.375  20.536  14.054
28839W        W97057  40.584  16.196   4.409
28840W        W97058  42.730   6.201   3.129
28841W        W97059  42.366  18.007  14.553
28842W        W97060   0.407  22.502   3.616
28843W        W97061  17.329  37.459   5.169
28844W        W97062  22.723  41.033   0.197
28845W        W97063  14.334  36.591   0.734
28846W        W97064  23.918  38.925   3.293
28847W        W97065  30.433  11.228  12.502
28848W        W97066  29.783  26.948   3.854
28849W        W97067  19.205  33.791   4.096
28850W        W97068  16.676  18.879   1.193
28851W        W97069  35.625  29.557   3.359
28852W        W97070  31.900   6.296   1.199
28853W        W97071   8.177  40.435   5.069
28854W        W97072  42.962  16.846  13.442
28855W        W97073  22.700  25.017   1.469
28856W        W97074  14.442  42.120  11.592
28857W        W97075  11.780  27.941   0.851
28858W        W97076   4.489  40.632   4.768
28859W        W97077  35.650  11.590   1.263
28860W        W97078  24.075  36.868  13.583
28861W        W97079  38.313  39.361   4.124
28862W        W97080  21.347  30.022   1.375
28863W        W97081  44.791  23.712   0.046
28864W        W97082  31.857  24.735  12.866
28865W        W97083  19.053  39.070  14.443
28866W        W97084  42.433  13.880  10.716
28867W        W97085  29.335  12.583  12.427
28868W        W97086  35.611  34.968   3.175
28869W        W97087   6.904  15.504  13.990
28870W        W97088  37.748  44.741   2.395
28871W        W97089   2.278  42.887  10.605
28872W        W97090   7.273  23.529   3.356
28873W        W97091  36.404   2.778   1.264
28874W        W97092  39.797   5.819  11.345
28875W        W97093   5.266  14.543   1.251
28876W        W97094  30.595   2.866   4.921
28877W        W97095  39.064  28.871  10.224
28878W        W97096   9.163  40.379  11.188
28879W        W97097  15.245  26.178  14.934
28880W        W97098  13.925   8.702   0.252
28881W        W97099  27.474  36.437  13.239
28882W        W97100  13.120   1.836   3.593
28883W        W97101  44.467  11.523  11.293
28884W        W97102  27.170   7.940  12.478
28885W        W97103  35.600  25.368   3.285
28886W        W97104  22.299  23.539  13.365
28887W        W97105   1.726  27.947  12.124
28888W        W97106  19.516   4.845  14.231
28889W        W97107  30.096  35.976   3.165
28890W        W97108  13.725   8.339  10.727
28891W        W97109  33.940  10.245  14.261
28892W        W97110   1.907   1.844  11.220
28893W        W97111  29.124  29.504   4.658
28894W        W97112  30.811   8.596   2.404
28895W        W97113  41.605  38.428  13.001
28896W        W97114  38.761  30.115  11.045
28897W        W97115  15.081  20.188  11.622
28898W        W97116  15.598  29.984  12.446
28899W        W97117  17.123  34.814  14.463
28900W        W97118  29.222  36.059  12.942
28901W        W97119  33.713  23.776   4.168
28902W        W97120  23.039  11.649   0.022
28903W        W97121  31.408  40.704  13.058
28904W        W97122   2.260   6.698  13.413
28905W        W97123  12.798   3.591  14.287
28906W        W97124  25.205  33.046   3.132
28907W        W97125   0.773   0.239   3.170
28908W        W97126  25.204  16.153   0.031
28909W        W97127  39.923  37.992  14.390
28910W        W97128  44.356   6.730  12.629
28911W        W97129  30.904  25.791   0.371
28912W        W97130   1.509  40.858   4.115
28913W        W97131   2.520  27.591   0.884
28914W        W97132  28.758  19.126  13.979
28915W        W97133  39.961  15.034  11.900
28916W        W97134  12.799  20.202   0.535
28917W        W97135   9.884  41.819   4.915
28918W        W97136   1.436   3.426   0.379
28919W        W97137  36.939  43.619  10.823
28920W        W97138   3.807  25.510  11.198
28921W        W97139  18.193   4.719   1.758
28922W        W97140   9.789  11.156   1.170
28923W        W97141   1.276  17.167  13.689
28924W        W97142   2.996  36.978  12.418
28925W        W97143  18.479  34.324   4.250
28926W        W97144  31.355  43.941   3.913
28927W        W97145  27.678  19.503   2.783
28928W        W97146  22.245  14.650   3.298
28929W        W97147  34.037   9.380   4.150
28930W        W97148  42.255  42.380  12.896
28931W        W97149   1.893  35.961  13.487
28932W        W97150   6.358  17.028  14.288
28933W        W97151  20.796  27.782   2.322
28934W        W97152  26.097  36.835  14.222
28935W        W97153  20.448  21.194  10.457
28936W        W97154  21.061  28.009   3.188
28937W        W97155   0.178  35.257   0.926
28938W        W97156  29.997  34.167   2.685
28939W        W97157   5.468   1.218   3.268
28940W        W97158   2.085   4.983  13.175
28941W        W97159   0.209  44.326   4.354
28942W        W97160  10.705  22.265  13.773
28943W        W97161  33.697  30.009   0.004
28944W        W97162  20.503  32.938  12.631
28945W        W97163   0.216  28.870   0.951
28946W        W97164  13.406  26.128   4.568
28947W        W97165  38.865  42.261   0.536
28948W        W97166   8.278  26.853  11.982
28949W        W97167  26.547  40.963  13.949
28950W        W97168  10.856  43.309   3.157
28951W        W97169  35.551  37.784   0.438
28952W        W97170  11.556  17.220  12.892
28953W        W97171  31.922  25.174   0.516
28954W        W97172  10.898   4.875  11.490
28955W        W97173  18.611   6.779   2.400
28956W        W97174   8.491  20.022  13.192
28957W        W97175  23.429   8.641   2.787
28958W        W97176  34.215  11.261  14.039
28959W        W97177  26.585  34.828  14.019
28960W        W97178  42.981   0.837   3.184
28961W        W97179   1.440   4.954  12.156
28962W        W97180  43.022   4.972   2.728
28963W        W97181   1.055  31.239  11.042
28964W        W97182  16.326  19.292  13.301
28965W        W97183  35.790  32.627  10.962
28966W        W97184  13.382  35.010   0.424
28967W        W97185   5.678   0.995   4.064
28968W        W97186  11.120  19.641  13.452
28969W        W97187   4.023  29.984   3.191
28970W        W97188   7.083  31.161   3.083
28971W        W97189   2.900  24.467  12.191
28972W        W97190  39.537  43.566  13.546
28973W        W97191  25.829   1.473  12.864
28974W        W97192  12.812  19.403   1.990
28975W        W97193  43.217  27.791  10.067
28976W        W97194  36.105   0.877  11.574
28977W        W97195   6.715  31.128   0.268
28978W        W97196  17.703  41.246  11.879
28979W        W97197   1.761  25.271   3.699
28980W        W97198   3.397  34.547   3.288
28981W        W97199  40.082  24.955  14.533
28982W        W97200  20.842  43.233   2.624
28983W        W97201   9.753  32.562  12.340
28984W        W97202   2.248  36.005  14.979
28985W        W97203  39.304  23.388   3.031
28986W        W97204   5.766  11.654   0.945
28987W        W97205   1.464   0.767  13.744
28988W        W97206  28.371   3.097   2.315
28989W        W97207  35.947  10.235   5.081
28990W        W97208   8.085  39.517  13.107
28991W        W97209  38.491  43.206   2.156
28992W        W97210   0.971  30.420   3.519
28993W        W97211  35.581  43.944   4.691
28994W        W97212   9.149  26.436  10.712
28995W        W97213  33.432  40.033  10.573
28996W        W97214  20.014  10.817  13.390
28997W        W97215  24.667  28.862   1.328
28998W        W97216  35.286   4.913  14.301
28999W        W97217  33.618  16.885  12.242
29000W        W97218  43.957   8.476  14.414
29001W        W97219  28.126  17.641   0.860
29002W        W97220  39.512  27.480  12.890
29003W        W97221   3.149  13.939  13.521
29004W        W97222   9.242   7.869  14.827
29005W        W97223  29.630  44.763   2.724
29006W        W97224  10.870  24.950  11.547
29007W        W97225  10.406  29.324  11.743
29008W        W97226  21.451   5.856   0.910
29009W        W97227   8.268   1.668   2.515
29010W        W97228  44.603  29.952   1.966
29011W        W97229  28.161  17.242  10.792
29012W        W97230   2.981  44.418  11.672
29013W        W97231  14.620   4.377   3.105
29014W        W97232  41.961  29.199  11.085
29015W        W97233  15.112  39.753   1.318
29016W        W97234  42.474  35.327  12.246
29017W        W97235  34.065  27.421   3.665
29018W        W97236  10.333   4.855  11.505
29019W        W97237   2.981  22.006  11.703
29020W        W97238  19.131  16.343  11.289
29021W        W97239   5.974  34.884   0.858
29022W        W97240  18.054   4.765  14.719
29023W        W97241   2.109   6.182   0.876
29024W        W97242  23.048  37.340  13.816
29025W        W97243  29.232  31.444   1.872
29026W        W97244  34.731  41.202   4.025
29027W        W97245  17.230  23.076   3.912
29028W        W97246  22.662  17.091  13.290
29029W        W97247  17.244  24.252   1.920
29030W        W97248  12.117  23.615   1.936
29031W        W97249   9.774  16.092  11.570
29032W        W97250   9.285   1.686  12.383
29033W        W97251  43.951  24.734   4.793
29034W        W97252  20.940  30.730   0.710
29035W        W97253  14.586  24.733  11.020
29036W        W97254  36.055   9.695   2.775
29037W        W97255   5.179  10.182   4.606
29038W        W97256  16.642   5.377   2.126
29039W        W97257  40.011   4.395   3.911
29040W        W97258   7.310  36.618   1.755
29041W        W97259   1.975   6.976  11.190
29042W        W97260  22.109   0.987  11.931
29043W        W97261  39.543  22.173   4.925
29044W        W97262  38.927  42.763   0.414
29045W        W97263  11.234  25.916  12.363
29046W        W97264  17.947   9.286   0.426
29047W        W97265  24.993  31.055   0.495
29048W        W97266  39.949   6.827   0.049
29049W        W97267  31.027   7.342  13.451
29050W        W97268  35.798  42.956   0.370
29051W        W97269  35.876  12.691  13.943
29052W        W97270  10.616  18.755  10.717
29053W        W97271  18.894  12.808   3.669
29054W        W97272  42.011   0.184   2.284
29055W        W97273  27.400  29.343   0.856
29056W        W97274  40.430   8.181   2.666
29057W        W97275  41.790  19.233   0.486
29058W        W97276  17.570   9.224  13.299
29059W        W97277  39.079   3.367   2.250
29060W        W97278  34.048   4.382  14.216
29061W        W97279  19.104  31.722  12.393
29062W        W97280  22.996  40.133  13.963
29063W        W97281  20.593  43.053   2.216
29064W        W97282  23.036  43.410   1.163
29065W        W97283  12.796  24.266   0.806
29066W        W97284  11.673  22.749  11.897
29067W        W97285  33.971  37.142   4.543
29068W        W97286  38.504  22.077   0.832
29069W        W97287  24.498   0.947  12.929
29070W        W97288   5.961  12.592   2.331
29071W        W97289  42.798  42.496   3.495
29072W        W97290  18.027  43.411  14.839
29073W        W97291  28.356  19.277   0.277
29074W        W97292  12.733  34.396  11.937
29075W        W97293  13.710  11.785   1.488
29076W        W97294  40.925   6.214  11.079
29077W        W97295  15.531  38.432   0.344
29078W        W97296  20.913  31.450   5.554
29079W        W97297  28.533  44.400  10.569
29080W        W97298  31.498  21.041  11.035
29081W        W97299  25.390  10.699   1.805
29082W        W97300  34.257   4.694   3.133
29083W        W97301   4.853  19.856   3.381
29084W        W97302  29.516  35.443  13.733
29085W        W97303  17.165  32.093   0.199
29086W        W97304  40.705  17.596  14.856
29087W        W97305  26.377  20.181   3.766
29088W        W97306  24.718   9.471  12.371
29089W        W97307  21.586   6.394  12.026
29090W        W97308  18.177  34.201   1.460
29091W        W97309   6.317  27.409  14.242
29092W        W97310  36.754  17.991  11.127
29093W        W97311   7.324  25.408   0.439
29094W        W97312  41.920  34.493  14.791
29095W        W97313  35.385  23.222  12.526
29096W        W97314  29.783  36.480  10.929
29097W        W97315  39.970  36.889   0.952
29098W        W97316   2.534  44.457  13.853
29099W        W97317  30.015  35.005  14.429
29100W        W97318  44.601   1.782   0.842
29101W        W97319  14.983  34.021   0.474
29102W        W97320  44.287   5.459  14.369
29103W        W97321  41.586  14.802  12.976
29104W        W97322   0.258   3.397   2.436
29105W        W97323  29.079   9.679   0.631
29106W        W97324  24.047  13.506   2.578
29107W        W97325   3.966   5.179   4.731
29108W        W97326   1.826  42.018   1.734
29109W        W97327  26.556   1.774   0.696
29110W        W97328  30.830  31.444  13.463
29111W        W97329  35.647   2.750  11.189
29112W        W97330  37.604  23.190   3.581
29113W        W97331   1.441   6.716   0.759
29114W        W97332  17.221   9.195  11.384
29115W        W97333  21.151  38.528   4.065
29116W        W97334  10.740  44.434   3.150
29117W        W97335  33.355   6.363   3.741
29118W        W97336  24.711  36.582  13.865
29119W        W97337  30.867  28.273   4.999
29120W        W97338  40.937  35.403  14.778
29121W        W97339  26.792  40.328   4.937
29122W        W97340   4.921  16.589   4.563
29123W        W97341  27.986   6.730   4.128
29124W        W97342  37.421  25.269   0.487
29125W        W97343   4.813  21.203  12.456
29126W        W97344  22.648  30.580   1.301
29127W        W97345  25.474   9.287   2.634
29128W        W97346   5.317  22.177   0.709
29129W        W97347  23.400   6.985  10.708
29130W        W97348  20.809  18.649   0.526
29131W        W97349  21.472  27.476   4.055
29132W        W97350   8.829  33.949   3.243
29133W        W97351  19.499   0.546  11.525
29134W        W97352  43.314  28.484  14.494
29135W        W97353   8.599  26.993  12.357
29136W        W97354  23.356   1.860  13.818
29137W        W97355  34.468  39.548  11.819
29138W        W97356  24.143  27.648   2.420
29139W        W97357  12.190  15.648  14.652
29140W        W97358  36.604   4.170  14.315
29141W        W97359  21.661  13.807  13.361
29142W        W97360  44.078   7.230  12.984
29143W        W97361  23.331  43.429   3.705
29144W        W97362   4.689  32.047   5.007
29145W        W97363  42.747  18.866   4.741
29146W        W97364  10.430  14.633   0.481
29147W        W97365  17.423  30.492  10.174
29148W        W97366  38.885  42.621  12.942
29149W        W97367  15.832  42.302  11.901
29150W        W97368  33.923  41.836   0.101
29151W        W97369  12.261   3.026  11.966
29152W        W97370   7.410  43.194   3.424
29153W        W97371  31.418  34.443   2.502
29154W        W97372  15.190  33.962   2.204
29155W        W97373  22.286  13.675  14.138
29156W        W97374   9.738  28.648  12.149
29157W        W97375  18.102   5.236   0.085
29158W        W97376  36.822  13.053   0.086
29159W        W97377  28.682  42.274   4.093
29160W        W97378  23.805  43.521   0.803
29161W        W97379  18.286  28.553   1.730
29162W        W97380  40.008  42.810   3.898
29163W        W97381  37.831   6.829  11.117
29164W        W97382  39.850  17.216  14.440
29165W        W97383  12.758  12.077  11.460
29166W        W97384  23.840  23.929  13.763
29167W        W97385  12.647  25.044  10.962
29168W        W97386  43.899  23.953  14.302
29169W        W97387   1.680  18.040   0.680
29170W        W97388  34.851  12.893   0.378
29171W        W97389  36.050  38.310  14.673
29172W        W97390  14.259  18.755  12.280
29173W        W97391   5.116  13.553  13.464
29174W        W97392  11.413   7.433  13.851
29175W        W97393   5.228  43.997  12.876
29176W        W97394  24.597  44.723   1.588
29177W        W97395   1.907  30.038  14.012
29178W        W97396   2.420  39.930   4.929
29179W        W97397  33.625  26.393   2.148
29180W        W97398  31.843  12.416  14.834
29181W        W97399  20.334  31.534  12.973
29182W        W97400  39.937  33.854   4.041
29183W        W97401   1.078  35.060  13.952
29184W        W97402   7.668  29.434  11.568
29185W        W97403   8.427  27.162  10.701
29186W        W97404  30.672  17.462   0.361
29187W        W97405  11.965   9.438   0.687
29188W        W97406  39.918   5.245   0.114
29189W        W97407   5.132  22.596   4.459
29190W        W97408   8.331  23.970   0.282
29191W        W97409  31.617  39.357  12.002
29192W        W97410  17.286  26.573  10.586
29193W        W97411  34.068  25.112  12.677
29194W        W97412  29.628  15.436  11.919
29195W        W97413  26.500   4.136   1.827
29196W        W97414  23.669  11.822   4.505
29197W        W97415  13.828   3.304   2.512
29198W        W97416  44.981  42.396  14.322
29199W        W97417  40.287  38.574  12.006
29200W        W97418   1.253  42.303  14.326
29201W        W97419  23.156  31.972  13.016
29202W        W97420   4.227  14.016  12.138
29203W        W97421   3.497  43.533   1.991
29204W        W97422   4.367  18.162   4.094
29205W        W97423  34.475  23.795  13.394
29206W        W97424   3.809  33.880  10.498
29207W        W97425  39.740  38.624   1.543
29208W        W97426  42.275  14.869   2.743
29209W        W97427  18.415  31.719   1.729
29210W        W97428  31.069   1.698  14.499
29211W        W97429  12.681  43.638  11.671
29212W        W97430   1.614   0.013   1.951
29213W        W97431  23.212  43.836   3.988
29214W        W97432   2.742  15.115  10.650
29215W        W97433   5.636   1.336  12.055
29216W        W97434  33.698  26.177  13.011
29217W        W97435  23.647  44.474   0.852
29218W        W97436   3.677   0.775   2.913
29219W        W97437  18.792  14.968  11.199
29220W        W97438  21.180  16.628  12.398
29221W        W97439  37.612  25.659   2.353
29222W        W97440  33.356  25.873   9.797
29223W        W97441   3.906  25.790  12.080
29224W        W97442  34.868  30.965  10.636
29225W        W97443  16.198  26.752   2.898
29226W        W97444   2.522  14.328  13.087
29227W        W97445  24.626  31.356   4.181
29228W        W97446  11.661   8.290   0.680
29229W        W97447   1.220   8.474  13.872
29230W        W97448  27.956  22.473   3.998
29231W        W97449  27.656  11.484  12.032
29232W        W97450   3.889  21.109  11.462
29233W        W97451  30.492  18.775   0.662
29234W        W97452  15.724  23.777  11.272
29235W        W97453  21.340  16.537  11.377
29236W        W97454   0.974  42.015   3.893
29237W        W97455  33.881  37.036   1.884
29238W        W97456  12.562  40.907  13.158
29239W        W97457  20.857  35.089  10.823
29240W        W97458   4.309  10.762   0.086
29241W        W97459  28.498  29.026   2.954
29242W        W97460  16.790  31.024   3.213
29243W        W97461  33.984  43.186  13.564
29244W        W97462  34.565  36.362  14.925
29245W        W97463  21.667  36.109   3.167
29246W        W97464  25.120  31.022   3.057
29247W        W97465   4.971   7.786   2.716
29248W        W97466  32.965  38.093  11.362
29249W        W97467   7.411  25.598  14.038
29250W        W97468  31.338  32.909   4.219
29251W        W97469  33.705  15.334  13.186
29252W        W97470  17.138   1.470   2.043
29253W        W97471  39.405  39.775   2.800
29254W        W97472  16.675  44.335  11.883
29255W        W97473  13.291  14.896  14.842
29256W        W97474   6.208  19.111  10.685
29257W        W97475  15.271   6.064   2.442
29258W        W97476  10.355   0.625  14.922
29259W        W97477   4.425   0.738  13.078
29260W        W97478  17.672  34.341  11.428
29261W        W97479   0.006   7.498  14.840
29262W        W97480  31.118  35.456  11.494
29263W        W97481  44.246  37.280  13.926
29264W        W97482   2.433  18.800  14.305
29265W        W97483  33.188  24.087   9.998
29266W        W97484  35.240   7.412  13.033
29267W        W97485   1.562  35.875   0.333
29268W        W97486  31.996  23.507  11.945
29269W        W97487   9.746  19.532   1.372
29270W        W97488   1.297  39.849   3.249
29271W        W97489  21.683  39.433  12.311
29272W        W97490   1.721   7.044   2.329
29273W        W97491  21.248   9.653   4.876
29274W        W97492  43.458   1.359  13.517
29275W        W97493  39.782  14.451  12.812
29276W        W97494  30.177   7.697   2.196
29277W        W97495  15.789  39.076  11.202
29278W        W97496  11.863  12.809   0.905
29279W        W97497  37.395  24.016  11.248
29280W        W97498  41.284  28.008  11.140
29281W        W97499  23.677  36.825   3.624
29282W        W97500   3.257  24.503   3.801
29283W        W97501  21.818  42.317  14.491
29284W        W97502  17.054  27.013   1.835
29285W        W97503  42.351  17.856  11.097
29286W        W97504  44.398  27.116  10.670
29287W        W97505  27.974  20.696  14.698
29288W        W97506  37.769  18.259   4.104
29289W        W97507  22.497   9.177  14.002
29290W        W97508  33.663  38.342  11.294
29291W        W97509  28.638  32.492  12.474
29292W        W97510   1.217  38.315   2.668
29293W        W97511  22.481  13.060  10.302
29294W        W97512   1.756  32.047   3.014
29295W        W97513   9.443  18.528  12.025
29296W        W97514  41.452  26.586  10.959
29297W        W97515  37.690  37.408   4.114
29298W        W97516   0.252  19.204  13.848
29299W        W97517  27.586  25.706   2.315
29300W        W97518  44.476   8.805   0.644
29301W        W97519   6.204  30.373   2.955
29302W        W97520   9.738  30.076  12.342
29303W        W97521  18.361  26.605   1.911
29304W        W97522  36.245  42.269  13.004
29305W        W97523  16.925   4.241  14.659
29306W        W97524  43.875  28.894   2.196
29307W        W97525  42.995  39.405  13.111
29308W        W97526   7.885  10.428   3.763
29309W        W97527   5.714  18.594   0.729
29310W        W97528  29.146  16.739  10.378
29311W        W97529   5.312  42.389  11.987
29312W        W97530  30.212  37.703   1.288
29313W        W97531  40.649  39.844   2.614
29314W        W97532   6.342  20.976   2.715
29315W        W97533  23.807  32.662   3.268
29316W        W97534   0.186  43.210  11.533
29317W        W97535  30.685  44.543  13.190
29318W        W97536  39.443  25.140   1.349
29319W        W97537   9.341  33.322  10.406
29320W        W97538  33.348  34.870   1.849
29321W        W97539  14.703  24.998  14.113
29322W        W97540  27.979  16.083   0.791
29323W        W97541  26.605  18.274   3.373
29324W        W97542  26.616  22.167   2.293
29325W        W97543  19.529  24.093  12.114
29326W        W97544  15.230  16.091  11.509
29327W        W97545   1.243   3.054   2.247
29328W        W97546  34.354   1.272  12.801
29329W        W97547   7.015   8.233  13.133
29330W        W97548   4.386   3.247   1.896
29331W        W97549  28.945  31.867   4.080
29332W        W97550  32.354  25.204   0.213
29333W        W97551  34.312  42.818   0.409
29334W        W97552  34.720  34.380  13.935
29335W        W97553  34.856   1.918   2.729
29336W        W97554  18.861  16.338  13.950
29337W        W97555   5.867  33.100  12.138
29338W        W97556   0.442  42.022   2.126
29339W        W97557   5.855   1.297   3.621
29340W        W97558  16.081  31.104   4.883
29341W        W97559  41.589  19.140   1.787
29342W        W97560  35.047  32.092  14.831
29343W        W97561  26.002  26.099   2.434
29344W        W97562  13.317  32.923  14.574
29345W        W97563  38.053  12.154  12.497
29346W        W97564  14.506  17.698   0.307
29347W        W97565  38.880  15.771  14.372
29348W        W97566   1.517  17.552   0.855
29349W        W97567  32.713  42.740   2.861
29350W        W97568  39.590  23.786   2.180
29351W        W97569  26.744  23.224   1.366
29352W        W97570  23.109   7.185  11.091
29353W        W97571  16.466  30.170  11.904
29354W        W97572   1.314  31.134   0.845
29355W        W97573  28.870  25.445  14.326
29356W        W97574  22.824   6.522  14.415
29357W        W97575   8.295  19.148   3.318
29358W        W97576  35.572  36.101  14.318
29359W        W97577  40.969  43.213  13.348
29360W        W97578  26.073  43.363   4.789
29361W        W97579  43.506   2.337  12.485
29362W        W97580  35.174  29.932  11.490
29363W        W97581  28.137  29.247   3.241
29364W        W97582  10.686  10.842   4.711
29365W        W97583   3.202  15.607  11.159
29366W        W97584  24.223  15.898   3.189
29367W        W97585   8.293  43.447   3.366
29368W        W97586  28.085   4.749   0.778
29369W        W97587   9.888  41.925   2.155
29370W        W97588   9.440  43.168  11.591
29371W        W97589   9.153   6.856   3.145
29372W        W97590  14.829   3.781   1.143
29373W        W97591   3.648  44.013  12.976
29374W        W97592   3.871   3.955  14.694
29375W        W97593  24.597  43.039   2.887
29376W        W97594  30.634  11.064  12.010
29377W        W97595   2.340  28.453   3.243
29378W        W97596  33.248  28.533   1.073
29379W        W97597  14.233  24.971  12.864
29380W        W97598  24.381   4.869   3.885
29381W        W97599  41.903  10.139  13.896
29382W        W97600   8.176  43.711   4.937
29383W        W97601   0.414   2.487   1.838
29384W        W97602  15.651  13.641  14.015
29385W        W97603  35.049  28.704   0.879
29386W        W97604  34.901   7.887  11.924
29387W        W97605  31.009  21.464   2.754
29388W        W97606  38.524  35.022  12.764
29389W        W97607  23.945  34.534   0.903
29390W        W97608  37.453  18.843  13.089
29391W        W97609  15.714  30.471   2.720
29392W        W97610  12.658   6.181  10.657
29393W        W97611  40.305  33.931   1.679
29394W        W97612  40.589  14.601  13.835
29395W        W97613  28.177   9.512   4.138
29396W        W97614  17.119   7.711  11.626
29397W        W97615  38.972  24.612  10.830
29398W        W97616  30.920  25.486  14.395
29399W        W97617  14.257  36.273   2.216
29400W        W97618  19.205  30.207   2.239
29401W        W97619   8.439  16.550  13.480
29402W        W97620  37.456   1.949  13.550
29403W        W97621  27.556  38.151   4.515
29404W        W97622  39.474  30.939   4.613
29405W        W97623  17.044  15.815  12.796
29406W        W97624  38.535   3.487   2.330
29407W        W97625   4.198  28.555  13.314
29408W        W97626   6.751  29.694  11.676
29409W        W97627  34.227  20.208   2.224
29410W        W97628  22.963  39.556   1.333
29411W        W97629   4.446  23.945  11.980
29412W        W97630  22.209  16.271   2.328
29413W        W97631  20.590  30.125  14.556
29414W        W97632  21.980  12.777  13.307
29415W        W97633  10.819  24.226   1.677
29416W        W97634   8.982  20.387  11.576
29417W        W97635  38.680   4.229  14.761
29418W        W97636  28.141  26.076  14.068
29419W        W97637  22.946   9.407  13.949
29420W        W97638  41.114  27.697  10.735
29421W        W97639  33.455   2.158   4.491
29422W        W97640  32.627  43.730   0.905
29423W        W97641  33.088  21.477  13.900
29424W        W97642  34.704  39.943  10.924
29425W        W97643  38.127  12.923   1.402
29426W        W97644   6.352  19.458  12.930
29427W        W97645  21.225  20.218  14.919
29428W        W97646  40.249  37.617  11.124
29429W        W97647  18.271  44.356  10.698
29430W        W97648   8.767  10.741   1.733
29431W        W97649   6.421  40.793  10.204
29432W        W97650  37.726  13.854   1.179
29433W        W97651  21.724  42.770  14.706
29434W        W97652  27.549  10.466  12.090
29435W        W97653  32.712  34.676   1.947
29436W        W97654  24.284  12.390  11.630
29437W        W97655  23.043  21.543  13.880
29438W        W97656  31.044  12.909   4.189
29439W        W97657   3.426  42.682   1.310
29440W        W97658  13.203  18.222   4.580
29441W        W97659  28.104  43.544  12.457
29442W        W97660  41.238  27.397   3.283
29443W        W97661  13.582   6.885   0.949
29444W        W97662  28.404  11.681  13.043
29445W        W97663  43.554  22.702   1.358
29446W        W97664   4.897  15.089   1.913
29447W        W97665  32.152  37.443  13.430
29448W        W97666  15.254  22.590  13.496
29449W        W97667   6.227  11.173   4.536
29450W        W97668  28.346  28.656  14.510
29451W        W97669   5.741  12.806  14.725
29452W        W97670   6.901  19.289  11.880
29453W        W97671  17.523  21.922  14.859
29454W        W97672  43.882   7.327  10.866
29455W        W97673  16.212  23.806   2.714
29456W        W97674  15.128  18.721  12.504
29457W        W97675  35.318   3.854   4.012
29458W        W97676  13.804  22.599  13.805
29459W        W97677  38.986  12.698  14.964
29460W        W97678   2.440  42.372   0.067
29461W        W97679  24.981   0.748  12.543
29462W        W97680  34.766   4.918  14.413
29463W        W97681  31.876   0.619  12.656
29464W        W97682  18.159  34.964   2.791
29465W        W97683  28.927  11.276   0.410
29466W        W97684  37.496  17.702  12.491
29467W        W97685  10.948  13.304   3.571
29468W        W97686  27.513  13.506  13.521
29469W        W97687  23.967   2.466   2.697
29470W        W97688  19.857   7.854   4.316
29471W        W97689  38.641  17.236   3.877
29472W        W97690  19.688  37.503   1.484
29473W        W97691   7.386  44.683   3.218
29474W        W97692   6.704   0.847  12.467
29475W        W97693  41.819  21.113  12.581
29476W        W97694   1.257  44.505   4.695
29477W        W97695   6.080  18.146  10.732
29478W        W97696  11.971  37.740   1.916
29479W        W97697   5.131  13.144   1.333
29480W        W97698  20.619  33.049   9.794
29481W        W97699  31.385  34.525  11.479
29482W        W97700  13.335  10.685   0.694
29483W        W97701  10.729  36.343  12.120
29484W        W97702   4.506  41.971  11.880
29485W        W97703  29.431  40.629   3.613
29486W        W97704  23.739   2.372   3.237
29487W        W97705  14.713  30.777  13.482
29488W        W97706   7.504   1.057   4.665
29489W        W97707  36.246  23.164  14.437
29490W        W97708  34.850  37.498   3.636
29491W        W97709  13.576   5.451  12.462
29492W        W97710  21.031  44.991  13.202
29493W        W97711  18.708  13.487  14.390
29494W        W97712  29.876  31.914   0.420
29495W        W97713  13.550  35.998   1.966
29496W        W97714   7.225  25.409  12.999
29497W        W97715   8.917  18.572  13.354
29498W        W97716  30.370  21.566  14.530
29499W        W97717   7.566   7.191   1.259
29500W        W97718   3.798  26.423  14.437
29501W        W97719  18.347  21.135   0.489
29502W        W97720  11.448   9.730   1.902
29503W        W97721  42.579  36.937  11.735
29504W        W97722  32.257  24.681   1.198
29505W        W97723   0.420   2.932   3.756
29506W        W97724  28.838   2.471  13.356
29507W        W97725  41.915  37.213   4.664
29508W        W97726   1.189  17.814   4.707
29509W        W97727  12.560   0.420  10.734
29510W        W97728  31.545   6.276   4.526
29511W        W97729  15.031  39.137   1.638
29512W        W97730   3.900  43.497  14.301
29513W        W97731  39.094  44.281   2.767
29514W        W97732  20.042   1.348  12.306
29515W        W97733  28.009  13.835  13.273
29516W        W97734   7.776  34.267   0.388
29517W        W97735  15.281  25.125   0.341
29518W        W97736   4.448  43.381   0.992
29519W        W97737  25.068  12.366   0.796
29520W        W97738  15.682  31.006   4.201
29521W        W97739   6.663  19.786   3.646
29522W        W97740  27.944   9.607   3.280
29523W        W97741  14.416  37.134   3.293
29524W        W97742   5.829  35.493  14.502
29525W        W97743  17.624  43.854   4.608
29526W        W97744   0.702  22.929  14.064
29527W        W97745   8.748  17.989   4.559
29528W        W97746  23.543   9.468  12.000
29529W        W97747  44.673   3.237   4.158
29530W        W97748   6.655  39.598  12.670
29531W        W97749  27.715  39.792   1.405
29532W        W97750  10.332  22.703   4.198
29533W        W97751  25.724   1.232   1.420
29534W        W97752  37.085  38.705   0.363
29535W        W97753  21.252   2.131   2.693
29536W        W97754  32.666  21.265  12.479
29537W        W97755  21.166  43.800  13.439
29538W        W97756  10.352  38.348  12.306
29539W        W97757  33.524  43.361   1.074
29540W        W97758   8.226  24.519   2.031
29541W        W97759   1.754   7.830  12.453
29542W        W97760  35.623  40.403  13.547
29543W        W97761  31.746  30.996   4.318
29544W        W97762  12.202  24.456   0.454
29545W        W97763  32.155  24.469  10.475
29546W        W97764  20.594   7.731  10.431
29547W        W97765   4.918  28.835  12.477
29548W        W97766   8.989  38.895   1.666
29549W        W97767   3.821   5.449   1.309
29550W        W97768  32.865  41.017   4.566
29551W        W97769  24.303  31.697  11.852
29552W        W97770  17.934  15.117   1.766
29553W        W97771   5.220  44.615  13.786
29554W        W97772  44.118  31.807   1.148
29555W        W97773  31.354  15.213   4.137
29556W        W97774  15.362  39.309   1.271
29557W        W97775   5.132  36.431  10.792
29558W        W97776   1.546   8.867  14.426
29559W        W97777  19.037  17.287  11.538
29560W        W97778  41.570  44.920  11.310
29561W        W97779   0.896  36.186   3.207
29562W        W97780  30.570   2.136  11.116
29563W        W97781  39.634  13.726   3.981
29564W        W97782   0.013  33.487  14.847
29565W        W97783  19.073  36.923  10.724
29566W        W97784  26.001  20.306   2.024
29567W        W97785  17.401   4.502  14.848
29568W        W97786   1.341  38.298  12.017
29569W        W97787  35.390   1.393   4.510
29570W        W97788  12.774   9.344  14.097
29571W        W97789  13.994   2.308  12.655
29572W        W97790  24.577  24.257   0.712
29573W        W97791   7.831  26.994   2.647
29574W        W97792  35.983  40.612   3.580
29575W        W97793  29.317  23.494   4.097
29576W        W97794  24.191  19.876   1.765
29577W        W97795  19.731   5.861   3.192
29578W        W97796  19.636  20.006   1.915
29579W        W97797  27.015  17.822  11.926
29580W        W97798   4.107  33.646   4.596
29581W        W97799  18.100   8.715  14.005
29582W        W97800   5.825  31.431   2.283
29583W        W97801  43.316  22.998  12.535
29584W        W97802  28.191   3.246   3.623
29585W        W97803  11.642  15.783  10.758
29586W        W97804  23.662   0.015  14.046
29587W        W97805   9.420   7.327   3.913
29588W        W97806  33.306   2.736  12.355
29589W        W97807  44.319  41.778  11.611
29590W        W97808  25.208  20.961  12.402
29591W        W97809  31.868  22.493  13.419
29592W        W97810   0.936  15.852  11.495
29593W        W97811  11.795  43.693  10.279
29594W        W97812   0.970   2.378  11.645
29595W        W97813  15.630  35.043   5.241
29596W        W97814  10.714  17.779   9.886
29597W        W97815  14.763  20.585  11.617
29598W        W97816  25.077  20.324  14.951
29599W        W97817  37.534  36.960  11.612
29600W        W97818  12.176  22.002   1.833
29601W        W97819  37.466   2.260   2.400
29602W        W97820  44.041   1.141  11.418
29603W        W97821  36.017  12.634  11.228
29604W        W97822  16.257  38.971  11.383
29605W        W97823  19.432  14.849  13.381
29606W        W97824   0.796  18.044   2.365
29607W        W97825  42.428  26.758   2.630
29608W        W97826   3.349   9.185  15.000
29609W        W97827  44.910  31.696   2.799
29610W        W97828  42.768  42.229   2.412
29611W        W97829   3.953  29.439  14.464
29612W        W97830   7.777   6.639   4.171
29613W        W97831  33.874  40.539   4.093
29614W        W97832  36.355  36.577  11.908
29615W        W97833   8.631  17.576   2.009
29616W        W97834   7.573  34.147  11.820
29617W        W97835  28.117  38.843  11.006
29618W        W97836  29.190  11.736  12.056
29619W        W97837   3.582  25.069   4.668
29620W        W97838  35.332  35.162  14.434
29621W        W97839   1.449  32.884   1.766
29622W        W97840  32.913  36.826   0.047
29623W        W97841  18.201  13.632  13.412
29624W        W97842   9.227   9.864   2.622
29625W        W97843  31.013   6.350   1.850
29626W        W97844   2.430   7.212  11.205
29627W        W97845  31.550   1.254   0.758
29628W        W97846  40.574  11.220  13.258
29629W        W97847  11.337  10.053   4.033
29630W        W97848  38.289  33.977   2.168
29631W        W97849  42.945  34.846  13.372
29632W        W97850  32.907  30.160  12.137
29633W        W97851  43.919  23.745  11.251
29634W        W97852  27.473   1.722   1.832
29635W        W97853   5.618  28.963   0.495
29636W        W97854  23.807   0.631   3.331
29637W        W97855   1.136  13.820  11.006
29638W        W97856   3.967  11.889   0.323
29639W        W97857   8.735  24.515   4.659
29640W        W97858  30.666  36.774   0.605
29641W        W97859   1.802  39.933   1.781
29642W        W97860  42.710  14.627  11.048
29643W        W97861  44.755   8.379   4.302
29644W        W97862  40.916   2.718   0.432
29645W        W97863  28.759  24.091  11.136
29646W        W97864   8.245   3.161   0.962
29647W        W97865   7.704  39.425  13.450
29648W        W97866   7.762  39.530   3.676
29649W        W97867  44.836  38.061  13.836
29650W        W97868  29.197  29.954   3.367
29651W        W97869  14.668  22.042  10.566
29652W        W97870   6.342  30.603  12.676
29653W        W97871  18.599   2.661   4.091
29654W        W97872  33.895  37.935   2.808
29655W        W97873  33.241  26.640   4.806
29656W        W97874   6.338  28.490   3.639
29657W        W97875  19.432  15.531  11.556
29658W        W97876  11.881  17.949   1.854
29659W        W97877  29.157  37.777  12.623
29660W        W97878  44.372  17.255  12.157
29661W        W97879   6.693   5.736   0.325
29662W        W97880  32.891  40.030   0.205
29663W        W97881  10.314  40.336   2.024
29664W        W97882  40.171  31.965   3.302
29665W        W97883  28.227   0.989   1.864
29666W        W97884  43.915  33.590  13.054
29667W        W97885  18.307  15.532   0.824
29668W        W97886  38.426  14.415  11.741
29669W        W97887   5.317  36.020  12.791
29670W        W97888  19.781  17.601   1.931
29671W        W97889  26.264  18.252  13.972
29672W        W97890  13.081   0.848   4.463
29673W        W97891   6.067   0.728  10.173
29674W        W97892  26.015  14.142   3.966
29675W        W97893  40.376  24.602  13.347
29676W        W97894   5.348  28.723  11.183
29677W        W97895  15.337  44.529  14.227
29678W        W97896  38.505  44.913  12.808
29679W        W97897  16.651   0.894   2.705
29680W        W97898  17.200   2.331  12.893
29681W        W97899  27.852  34.439  13.240
29682W        W97900  36.425  40.367  14.287
29683W        W97901  39.325  42.454  12.759
29684W        W97902  41.212  19.162  13.475
29685W        W97903  28.127  15.652  13.466
29686W        W97904  19.042  12.566  12.584
29687W        W97905   1.845  24.929  10.782
29688W        W97906  22.132  22.214  13.651
29689W        W97907   7.440   8.770  11.930
29690W        W97908  22.644  32.496  12.148
29691W        W97909  18.216  10.864   1.665
29692W        W97910  42.354   0.851   1.334
29693W        W97911  14.208  39.919   3.354
29694W        W97912  29.439  10.302   3.665
29695W        W97913   2.260  11.287  11.622
29696W        W97914  27.942   6.226  11.926
29697W        W97915  44.351  27.620  10.463
29698W        W97916  41.925  29.778  11.758
29699W        W97917  29.683  24.729   1.861
29700W        W97918  14.255   0.012   2.843
29701W        W97919   3.745  17.018  11.580
29702W        W97920  25.087  33.563   1.853
29703W        W97921  23.244  22.601   1.199
29704W        W97922  42.276  40.552  14.216
29705W        W97923   0.808  15.678  12.923
29706W        W97924  21.593   9.805  11.511
29707W        W97925  29.306   7.228   4.526
29708W        W97926  12.248  42.347   4.280
29709W        W97927  19.532  32.344   4.572
29710W        W97928  32.566  30.662  13.863
29711W        W97929  29.715  14.660   2.655
29712W        W97930  21.126  10.678   0.764
29713W        W97931   6.436   8.096  13.268
29714W        W97932   3.863  33.767   1.779
29715W        W97933   7.368   1.298  13.519
29716W        W97934   8.898   3.513  14.988
29717W        W97935  39.541  25.783   0.749
29718W        W97936  10.194  37.816  14.754
29719W        W97937  36.330  24.639  10.686
29720W        W97938  24.926   3.231   2.306
29721W        W97939  33.643  28.403  14.882
29722W        W97940   9.360   6.842  10.697
29723W        W97941  35.480   8.274   3.157
29724W        W97942  12.020   7.200  13.435
29725W        W97943   3.203  41.519  12.788
29726W        W97944   1.247   3.952   2.615
29727W        W97945  26.542  14.899   5.450
29728W        W97946   3.807  30.458   3.210
29729W        W97947   4.211  15.278   2.373
29730W        W97948  17.588  31.465   3.246
29731W        W97949   2.662  39.030  11.169
29732W        W97950  35.418  35.386   4.714
29733W        W97951   0.471  41.280   2.996
29734W        W97952  11.738   2.743  14.262
29735W        W97953  29.386  12.129   0.854
29736W        W97954   2.940  42.813   1.433
29737W        W97955  20.174   9.623  13.440
29738W        W97956  31.481  38.339   3.624
29739W        W97957  34.038   6.191  13.608
29740W        W97958  25.284  22.817  11.499
29741W        W97959  11.566  41.436   0.018
29742W        W97960  26.146  23.191   0.984
29743W        W97961  34.955  29.753   4.036
29744W        W97962   2.331  18.520   1.741
29745W        W97963  29.717  17.032  14.210
29746W        W97964  26.017  30.084  13.879
29747W        W97965  29.104  24.598   0.266
29748W        W97966   3.406   5.259  13.539
29749W        W97967  29.600   4.148   1.743
29750W        W97968   2.600   4.923  13.071
29751W        W97969  33.817  43.001   4.301
29752W        W97970  32.722   7.940  11.988
29753W        W97971  10.329  37.538  11.960
29754W        W97972  43.280  40.100   3.079
29755W        W97973  41.409  26.583   3.733
29756W        W97974  31.978   2.787  13.009
29757W        W97975   6.786  20.217  12.398
29758W        W97976  25.462  31.372   4.217
29759W        W97977  32.130  15.672  13.863
29760W        W97978  33.413  23.092  11.758
29761W        W97979  36.658  30.959   0.965
29762W        W97980  43.312  29.631   3.090
29763W        W97981  40.052  23.102   1.925
29764W        W97982   7.664  29.607  12.903
29765W        W97983   4.473  43.996  13.320
29766W        W97984  35.498  13.939   4.977
29767W        W97985   4.372  42.911   0.676
29768W        W97986  14.703   8.508   1.270
29769W        W97987  22.183  34.134  14.757
29770W        W97988  44.185  43.229  14.292
29771W        W97989  31.049  26.480  14.878
29772W        W97990  39.771  16.845   4.276
29773W        W97991  24.966  39.349  12.275
29774W        W97992  22.131  31.096   0.973
29775W        W97993  18.152  44.307  10.183
29776W        W97994  35.773  10.497  13.962
29777W        W97995   3.300  23.494   0.923
29778W        W97996  27.420  29.652  10.497
29779W        W97997  34.414   7.417  14.469
29780W        W97998  32.924  17.772  12.696
29781W        W97999  38.558  36.452  10.679
29782W        W98000  16.172   0.684  11.937
29783W        W98001  26.163   4.048  13.965
29784W        W98002  38.125  12.731   0.866
29785W        W98003  15.629  36.818  11.590
29786W        W98004  43.323   6.906  10.539
29787W        W98005  38.543  22.249   2.425
29788W        W98006  16.656  29.581   2.876
29789W        W98007   3.984  10.068  13.967
29790W        W98008  38.094   4.854   2.355
29791W        W98009  24.766  42.773   4.653
29792W        W98010  31.923  18.710  10.435
29793W        W98011  42.281   5.218  11.873
29794W        W98012  33.084  31.850  11.514
29795W        W98013  25.185  15.182  11.038
29796W        W98014  27.203  28.550  11.091
29797W        W98015  12.289  22.016   0.292
29798W        W98016  13.039  31.870  13.084
29799W        W98017   4.833  32.189  14.875
29800W        W98018  18.281  25.441  12.198
29801W        W98019  23.671  27.667  12.612
29802W        W98020  35.551  39.108  10.964
29803W        W98021  12.383  35.115  11.016
29804W        W98022   0.062  31.695  12.023
29805W        W98023  44.858  15.459  13.880
29806W        W98024  38.960  16.563   3.294
29807W        W98025  27.046  20.658  14.740
29808W        W98026   4.408   3.015  12.900
29809W        W98027  20.641  33.860   4.342
29810W        W98028  39.445  20.774   3.290
29811W        W98029  16.067  18.541  10.727
29812W        W98030  25.645   6.398   0.008
29813W        W98031  18.366  24.674   4.087
29814W        W98032  33.202  15.575   1.219
29815W        W98033  39.498  36.372   1.419
29816W        W98034  44.265   2.467   0.336
29817W        W98035  17.373  12.728   2.208
29818W        W98036  30.246  40.582   4.605
29819W        W98037  19.175  31.878  11.095
29820W        W98038  31.521  26.603  11.727
29821W        W98039  42.676  32.953  13.234
29822W        W98040   2.853  29.449   1.282
29823W        W98041  44.186  36.819   2.972
29824W        W98042   1.220  40.961  12.513
29825W        W98043  15.048  25.003   3.144
29826W        W98044  44.550  14.983   1.181
29827W        W98045  29.134  27.774  12.986
29828W        W98046   1.276   4.213   2.132
29829W        W98047  16.765  13.356   4.341
29830W        W98048  15.061   2.159   2.121
29831W        W98049  11.618  11.180  13.068
29832W        W98050  43.260  30.612   3.270
29833W        W98051   0.214  41.984  13.611
29834W        W98052  24.015  18.463   4.532
29835W        W98053  18.443   2.364  11.368
29836W        W98054  33.597   0.717  14.832
29837W        W98055  10.708  40.633  10.301
29838W        W98056   4.318  41.215  13.867
29839W        W98057   6.224  24.925   3.252
29840W        W98058  30.874   0.794  13.387
29841W        W98059  34.799  23.637  14.037
29842W        W98060  14.728  30.505   2.267
29843W        W98061  44.304   5.720   2.776
29844W        W98062  38.448  20.881   4.233
29845W        W98063  25.700  28.146  14.272
29846W        W98064  21.492  23.152   4.537
29847W        W98065  24.597  35.343  14.443
29848W        W98066  31.808  19.219  14.869
29849W        W98067  26.352  15.301  13.644
29850W        W98068   0.829   6.786  11.449
29851W        W98069  30.926  27.467  12.464
29852W        W98070   7.204  40.563   1.476
29853W        W98071  38.981  40.170  11.533
29854W        W98072  10.949  14.059   0.062
29855W        W98073   9.221  19.465   1.138
29856W        W98074  22.845   3.745  12.088
29857W        W98075  31.411  19.641  13.528
29858W        W98076  37.262  40.913  12.605
29859W        W98077   9.599  39.759  14.020
29860W        W98078  40.241   4.855   4.344
29861W        W98079   3.655  22.954  12.979
29862W        W98080   9.792  12.259   2.673
29863W        W98081  18.239  19.984  14.328
29864W        W98082  15.740  41.843  10.888
29865W        W98083  36.472  27.556  12.312
29866W        W98084  42.251  40.085  11.073
29867W        W98085  39.441  37.770   4.186
29868W        W98086  12.285  32.372   4.693
29869W        W98087  23.677  38.572  13.310
29870W        W98088   9.280  15.161  11.634
29871W        W98089  38.770  12.592  10.765
29872W        W98090   2.919   9.033  13.007
29873W        W98091  43.803   4.517  14.877
29874W        W98092  11.333  29.896   1.704
29875W        W98093  42.237  30.732   2.270
29876W        W98094  29.221  35.055   2.388
29877W        W98095  36.979  28.585   4.907
29878W        W98096  41.702   4.665  10.774
29879W        W98097  18.926   8.445   0.080
29880W        W98098  32.199  35.037   2.812
29881W        W98099  23.089  16.075   0.675
29882W        W98100  38.311  40.666  11.141
29883W        W98101  40.671  36.316   4.742
29884W        W98102   0.973  35.317   3.177
29885W        W98103  39.478  18.284  13.532
29886W        W98104   0.744  38.897   0.865
29887W        W98105  15.697  18.632   3.171
29888W        W98106  39.731   9.728   0.661
29889W        W98107  12.805  32.667   0.182
29890W        W98108  30.115  29.437   3.683
29891W        W98109  29.483  16.856  10.765
29892W        W98110  24.750  30.962  10.547
29893W        W98111   9.595  11.109  11.094
29894W        W98112   9.499   9.188  11.978
29895W        W98113   7.622   4.703  10.651
29896W        W98114  44.043  43.823   2.920
29897W        W98115  26.659  12.219  10.739
29898W        W98116  41.598  37.987   4.072
29899W        W98117   1.479  30.377   1.531
29900W        W98118  21.726  11.675   2.803
29901W        W98119  12.845   8.637   1.312
29902W        W98120  44.018  34.322  14.022
29903W        W98121   5.156  44.758   1.477
29904W        W98122  23.589  28.157   1.477
29905W        W98123  41.359  22.829   4.559
29906W        W98124  10.184  21.749  11.958
29907W        W98125   7.847  41.515   3.993
29908W        W98126  36.952  15.511  14.558
29909W        W98127  22.542   2.325  14.902
29910W        W98128  38.884   6.759  14.771
29911W        W98129  42.547  15.700   4.612
29912W        W98130  24.754   7.122  13.028
29913W        W98131  11.308  34.886   1.222
29914W        W98132  34.350  44.086  10.492
29915W        W98133  35.432  31.393  12.116
29916W        W98134  29.862   3.670   4.092
29917W        W98135  31.180  11.199   1.890
29918W        W98136  43.282  26.167  11.169
29919W        W98137  29.403   7.334  13.397
29920W        W98138  38.112  28.480  11.163
29921W        W98139  38.541   6.750  10.437
29922W        W98140  35.367  16.177  11.452
29923W        W98141   6.807  31.421   4.745
29924W        W98142  32.490  28.127  13.290
29925W        W98143  30.366  32.105   0.442
29926W        W98144  41.802  40.376  14.017
29927W        W98145  42.951  15.302   3.320
29928W        W98146   2.881  38.376   4.156
29929W        W98147  43.794  35.461   3.127
29930W        W98148  10.894  20.820   2.299
29931W        W98149  44.688  40.759  12.425
29932W        W98150  37.621  15.169  11.076
29933W        W98151  33.073  22.720  13.330
29934W        W98152  12.769  29.729   1.144
29935W        W98153  30.715  34.217  10.619
29936W        W98154  15.826   9.731   4.891
29937W        W98155   0.707  29.961   0.230
29938W        W98156   6.105  12.837  12.464
29939W        W98157  42.968  11.125  11.158
29940W        W98158  27.159   1.502   3.246
29941W        W98159  15.511  31.198   3.664
29942W        W98160   1.140  36.082   2.686
29943W        W98161  34.988   6.004   3.866
29944W        W98162  38.911   1.122   3.273
29945W        W98163   1.969   1.237  11.622
29946W        W98164   9.082  42.246   1.941
29947W        W98165  20.106  32.027  12.888
29948W        W98166  21.023   8.832  13.885
29949W        W98167  15.341   8.236  13.196
29950W        W98168  21.538  20.039  14.529
29951W        W98169  41.512  22.007   4.581
29952W        W98170   9.692  10.654   0.270
29953W        W98171   4.139   7.720  12.912
29954W        W98172   5.913  29.953  12.232
29955W        W98173   1.492  26.661  10.577
29956W        W98174  22.716  14.298  12.936
29957W        W98175  32.115   5.736   3.733
29958W        W98176  26.482  40.317   0.246
29959W        W98177  21.244  12.337   1.288
29960W        W98178  11.392  37.639   4.132
29961W        W98179  34.964  38.051   0.724
29962W        W98180  27.938  39.400   3.974
29963W        W98181   2.819  27.626  13.271
29964W        W98182   9.381   9.980   0.758
29965W        W98183   7.228  15.060  12.251
29966W        W98184  37.798  24.118  14.974
29967W        W98185  29.976  10.687   2.343
29968W        W98186  38.528  32.003  13.712
29969W        W98187  17.221   9.244  11.893
29970W        W98188  25.867  15.264  13.928
29971W        W98189   8.327  29.406   2.672
29972W        W98190   4.950   3.111  14.259
29973W        W98191   5.582  40.269  13.874
29974W        W98192  42.027  38.050  14.818
29975W        W98193  20.006   8.390  12.899
29976W        W98194   7.888  16.649   4.297
29977W        W98195  29.487  20.663   1.730
29978W        W98196   2.999  11.338  12.165
29979W        W98197  27.215  19.365   2.418
29980W        W98198  18.872  32.695  13.973
29981W        W98199  43.531  15.502  10.735
29982W        W98200   7.947  15.774   1.287
29983W        W98201  14.836   7.204  12.967
29984W        W98202  14.019  23.984   2.241
29985W        W98203   5.862   4.804   3.441
29986W        W98204  38.571  39.699  11.310
29987W        W98205   4.445  42.109   0.765
29988W        W98206  39.434  44.863  14.398
29989W        W98207  42.496   4.498  14.690
29990W        W98208  35.859   1.731   2.910
29991W        W98209  38.353  39.783   3.728
29992W        W98210  27.990  34.139  10.896
29993W        W98211  26.467  19.560  10.753
29994W        W98212  34.967  42.752   2.561
29995W        W98213  21.106  25.186   2.665
29996W        W98214  44.477  36.397   3.201
29997W        W98215  28.484  38.453   0.578
29998W        W98216  44.277  41.481   2.335
29999W        W98217  38.067   7.426   0.443
30000W        W98218  29.973   4.224   0.347
30001W        W98219  17.757  33.058  11.088
30002W        W98220  19.305  38.463   0.970
30003W        W98221   3.962  22.690   1.843
30004W        W98222  22.121  32.808   3.186
30005W        W98223  42.808  38.585   3.460
30006W        W98224  12.414  36.036  12.523
30007W        W98225  15.791   2.933  12.961
30008W        W98226  18.125   5.994  10.712
30009W        W98227  20.304   2.524   1.764
30010W        W98228   4.856  15.737   4.000
30011W        W98229  33.154  15.675  14.773
30012W        W98230  26.878  16.267   3.106
30013W        W98231  13.643   8.342   2.803
30014W        W98232  38.804  40.276   4.288
30015W        W98233  26.400  20.716  11.703
30016W        W98234  38.114  11.808  11.235
30017W        W98235  12.928  32.025   2.135
30018W        W98236  23.740  17.437  12.050
30019W        W98237  18.437   8.387   0.031
30020W        W98238  43.686  21.518   1.775
30021W        W98239   1.506  26.612   3.760
30022W        W98240  42.615   7.329  12.883
30023W        W98241  31.173  32.842   3.358
30024W        W98242   5.656  10.668  11.602
30025W        W98243  11.222   4.933   3.093
30026W        W98244  21.313  38.102   2.729
30027W        W98245  19.661  27.565  11.225
30028W        W98246   3.803   9.304  14.708
30029W        W98247  21.720  32.075   5.508
30030W        W98248  18.723   9.299   1.037
30031W        W98249  24.952  21.172   2.852
30032W        W98250  26.805  11.762   3.308
30033W        W98251  17.298  20.492   0.930
30034W        W98252  12.754  30.985  10.832
30035W        W98253  30.490   2.855   1.142
30036W        W98254  13.655   3.891   1.452
30037W        W98255  33.910  38.845   1.611
30038W        W98256   8.247  30.876   1.862
30039W        W98257  13.708   0.927   3.592
30040W        W98258  43.851  31.156  11.026
30041W        W98259  29.339   1.142   2.370
30042W        W98260  27.672  24.689   2.517
30043W        W98261   4.450   7.212  14.846
30044W        W98262  39.370   6.004   1.235
30045W        W98263  28.852  11.704  14.000
30046W        W98264  15.757   0.352   1.670
30047W        W98265  36.597  23.409  14.719
30048W        W98266  34.964  25.254   4.156
30049W        W98267  12.257  31.156   1.435
30050W        W98268  39.922  41.791  14.399
30051W        W98269  15.110  31.607  10.995
30052W        W98270   9.288   2.263   0.941
30053W        W98271  35.605  17.069   3.241
30054W        W98272  22.290  14.804  11.787
30055W        W98273  21.476  37.040   4.070
30056W        W98274  12.069   1.516   2.907
30057W        W98275  39.860   6.911   3.335
30058W        W98276   3.894  44.354  13.856
30059W        W98277  13.608  17.433  11.894
30060W        W98278  40.856  15.877  11.547
30061W        W98279   4.456  12.295  11.332
30062W        W98280   3.925  32.442  13.432
30063W        W98281  44.810  35.905   2.156
30064W        W98282  17.584  41.869  12.440
30065W        W98283   8.800  32.091   2.228
30066W        W98284  34.697  12.266  14.163
30067W        W98285  16.847   3.328   4.389
30068W        W98286  18.676  29.870  11.710
30069W        W98287  22.701  27.149  13.079
30070W        W98288  41.435  21.241   3.831
30071W        W98289  16.577  22.636   3.929
30072W        W98290   8.232  14.247   4.254
30073W        W98291  36.245  34.218   4.270
30074W        W98292  12.230  40.085  14.513
30075W        W98293  44.001  34.633   2.096
30076W        W98294  33.319  30.312  13.153
30077W        W98295  14.355   5.869  11.554
30078W        W98296  39.913   7.202   2.819
30079W        W98297  41.386  32.855  14.769
30080W        W98298   8.928  44.180  12.797
30081W        W98299   4.339  41.437   1.795
30082W        W98300   6.785  16.435  11.966
30083W        W98301  41.479  32.979   1.378
30084W        W98302  34.995   4.331  13.734
30085W        W98303  24.066  14.101  13.525
30086W        W98304   8.928  11.905   0.935
30087W        W98305  22.077  17.721   4.186
30088W        W98306   3.973   2.241  12.318
30089W        W98307   6.749   4.247   2.261
30090W        W98308  16.993  20.059   3.613
30091W        W98309  40.097  19.990  13.434
30092W        W98310  34.611  24.983  14.804
30093W        W98311   3.335  37.608   4.169
30094W        W98312   5.244   7.387   3.189
30095W        W98313   3.757  13.124  10.952
30096W        W98314  32.088   9.415  12.291
30097W        W98315  18.205  29.856  11.054
30098W        W98316  21.715  28.926   3.725
30099W        W98317  19.521  41.803   0.985
30100W        W98318  22.488   8.757  14.421
30101W        W98319  44.763   7.948   0.052
30102W        W98320  13.848   4.745   0.943
30103W        W98321  30.316  38.571   3.286
30104W        W98322  13.546  14.222   2.354
30105W        W98323  39.368  34.445  13.854
30106W        W98324  26.608   3.733  12.450
30107W        W98325   4.311  42.458   5.022
30108W        W98326  28.448  10.729   4.670
30109W        W98327   8.296   5.892   1.882
30110W        W98328   5.281  41.020  13.637
30111W        W98329  44.000   1.751  10.760
30112W        W98330  33.315  28.827  11.172
30113W        W98331  31.930  44.500   1.504
30114W        W98332   5.171  10.522  13.841
30115W        W98333  35.010  39.969  13.851
30116W        W98334  17.671   1.846  14.876
30117W        W98335  27.996  33.195   3.149
30118W        W98336  14.575   9.902  10.457
30119W        W98337  36.034  40.203  10.414
30120W        W98338   3.323  38.760  12.479
30121W        W98339  29.829  32.601   0.942
30122W        W98340  14.081   3.819   4.216
30123W        W98341   3.859  22.577  14.323
30124W        W98342   0.969  43.452  10.582
30125W        W98343  43.976  23.098   0.751
30126W        W98344  29.127   0.748   0.968
30127W        W98345  37.891  38.799   3.125
30128W        W98346   0.125  43.363  13.473
30129W        W98347  23.166  37.998   4.634
30130W        W98348  29.857  23.944  14.964
30131W        W98349  16.853  27.569  12.112
30132W        W98350  11.905  18.670   2.727
30133W        W98351  15.821  32.473  10.610
30134W        W98352  25.180  40.449   2.404
30135W        W98353  32.604  44.518  13.011
30136W        W98354  21.088  42.044  11.167
30137W        W98355   4.953  33.441  10.688
30138W        W98356  13.254  16.724  12.596
30139W        W98357   3.207  41.449  13.295
30140W        W98358  43.201  44.852  10.819
30141W        W98359   7.372  37.923  12.001
30142W        W98360  38.580   5.945  14.474
30143W        W98361   9.802  38.627   0.112
30144W        W98362  36.135  43.966   1.007
30145W        W98363  24.565  13.874   4.899
30146W        W98364   1.532  14.714   4.614
30147W        W98365  19.089  34.107  12.754
30148W        W98366   6.855  39.435  13.686
30149W        W98367  11.954  43.162  13.257
30150W        W98368  14.081  12.195  11.994
30151W        W98369   8.465  23.734   1.315
30152W        W98370  11.648   1.760  14.312
30153W        W98371  27.181  12.401   4.477
30154W        W98372  27.060  14.561  12.931
30155W        W98373  38.136  37.392   3.840
30156W        W98374  17.835  31.923   3.267
30157W        W98375  32.676   8.059   3.063
30158W        W98376  15.827  24.190  10.303
30159W        W98377  32.372  25.090   5.064
30160W        W98378  27.646   6.623  12.799
30161W        W98379  21.184  37.540  13.064
30162W        W98380  17.322  18.548  14.921
30163W        W98381  21.722  40.707  10.698
30164W        W98382  31.169  27.453   4.662
30165W        W98383   2.976  28.430   1.319
30166W        W98384  39.563  16.078  11.638
30167W        W98385  11.710  14.788  13.259
30168W        W98386  28.119  25.957   1.594
30169W        W98387   0.310   2.262   1.332
30170W        W98388  17.939  16.100  13.847
30171W        W98389   6.095  23.486  12.565
30172W        W98390  39.353  32.319  11.118
30173W        W98391  42.510  34.764   4.564
30174W        W98392  30.609  44.269  10.855
30175W        W98393  24.726  30.351   4.604
30176W        W98394  18.580  36.948  11.571
30177W        W98395   8.854  32.596   0.870
30178W        W98396  28.775  23.702   5.506
30179W        W98397  35.212  35.717   5.046
30180W        W98398   0.239  34.914   3.235
30181W        W98399  30.193  27.611   4.644
30182W        W98400   9.335  27.667  13.810
30183W        W98401   5.029  42.782   9.840
30184W        W98402  27.495  12.104   1.885
30185W        W98403  34.403  35.328  11.985
30186W        W98404  38.839   1.792   4.429
30187W        W98405   7.351  23.035   3.206
30188W        W98406  29.470  26.539   4.651
30189W        W98407  30.380  15.529   0.498
30190W        W98408   8.922  11.218  12.403
30191W        W98409  33.888  10.109  11.554
30192W        W98410  16.489  33.599   2.973
30193W        W98411   8.480   9.899   1.272
30194W        W98412  40.576  17.621   1.757
30195W        W98413   4.724   4.530  12.886
30196W        W98414  16.683  31.399  14.941
30197W        W98415  40.438  43.743  14.888
30198W        W98416  31.916  38.854   4.140
30199W        W98417   4.969  19.268  11.060
30200W        W98418  19.233  11.342  13.616
30201W        W98419  42.578  15.804   2.845
30202W        W98420  32.214  28.364  14.835
30203W        W98421  12.329  14.401  11.971
30204W        W98422   6.748  41.304   4.138
30205W        W98423  40.313   3.792   0.800
30206W        W98424  29.963  28.464   0.011
30207W        W98425  38.024   4.902   4.625
30208W        W98426   4.445  34.493   2.704
30209W        W98427  44.274  13.119   1.515
30210W        W98428  25.607  37.980   3.389
30211W        W98429   1.063  44.981   2.239
30212W        W98430  21.176   5.960   3.707
30213W        W98431  28.207  32.555   2.969
30214W        W98432  25.663  35.641   2.170
30215W        W98433  18.127  29.675   2.137
30216W        W98434  41.616  17.326  13.851
30217W        W98435   1.792  21.409  14.340
30218W        W98436  19.667  23.186   4.297
30219W        W98437  29.050  28.534   1.843
30220W        W98438   2.217  30.601  14.240
30221W        W98439  25.753  38.452  12.295
30222W        W98440  12.372  28.138   3.670
30223W        W98441  37.622   0.332  10.829
30224W        W98442   3.332  23.224   1.407
30225W        W98443  32.061  25.140  13.963
30226W        W98444  40.383  17.303   0.162
30227W        W98445  12.347   8.779   1.263
30228W        W98446   2.927  20.176   4.118
30229W        W98447  36.173  33.005   2.290
30230W        W98448  43.093  23.967   2.342
30231W        W98449  44.961   8.729   4.651
30232W        W98450  16.680  10.034  12.046
30233W        W98451   5.897  26.218   2.880
30234W        W98452   8.845   8.723  14.448
30235W        W98453  29.339   1.201   5.056
30236W        W98454  43.524   2.637  11.665
30237W        W98455  11.574  39.535   0.350
30238W        W98456  39.229  15.652  11.715
30239W        W98457  39.611  30.561  12.851
30240W        W98458  36.382  20.715   3.756
30241W        W98459  40.106  14.107   2.304
30242W        W98460  24.179  10.945  14.664
30243W        W98461  35.414  11.520   0.368
30244W        W98462   1.889  20.717   3.668
30245W        W98463  18.544  28.982  11.205
30246W        W98464  44.407  16.072  10.717
30247W        W98465  42.337  20.506  12.119
30248W        W98466  29.895  44.844  13.114
30249W        W98467  21.087  31.678  11.155
30250W        W98468  16.641  36.110  12.542
30251W        W98469  23.155  43.508   4.755
30252W        W98470  35.666   7.329   4.100
30253W        W98471  39.236  42.114   1.929
30254W        W98472   8.932  33.381   4.067
30255W        W98473   7.768  33.207  11.799
30256W        W98474  31.630   6.693   2.408
30257W        W98475  34.620  26.654   0.273
30258W        W98476  28.018  39.269  13.387
30259W        W98477  17.107  21.017  11.002
30260W        W98478  23.672   7.859   3.919
30261W        W98479  23.500   6.421  12.424
30262W        W98480  16.557  10.388  11.659
30263W        W98481   9.168  29.206  11.075
30264W        W98482  43.099   1.802  11.619
30265W        W98483   7.404  14.603  10.273
30266W        W98484  28.213  34.423  10.508
30267W        W98485  16.323  11.699   0.731
30268W        W98486   1.006  43.362  11.082
30269W        W98487   5.470  40.762   9.857
30270W        W98488  34.902  16.856  13.508
30271W        W98489   3.463   4.257   4.063
30272W        W98490  34.098  30.832  13.510
30273W        W98491  19.688   8.396  13.466
30274W        W98492  33.766  26.736   4.798
30275W        W98493  31.656   6.147   2.373
30276W        W98494  33.958  42.502   3.342
30277W        W98495  23.644  19.810  11.109
30278W        W98496  14.170  10.704  12.497
30279W        W98497  32.179  19.830  11.629
30280W        W98498  11.912  18.739  13.419
30281W        W98499   5.111   7.409   2.352
30282W        W98500  21.106  14.078  14.568
30283W        W98501  25.018  27.127  14.904
30284W        W98502   4.666  43.337   3.193
30285W        W98503  27.532  25.640   0.047
30286W        W98504   7.913  37.220   1.378
30287W        W98505   9.575  43.058  12.097
30288W        W98506  43.072  19.691   0.311
30289W        W98507  24.692  32.924   3.177
30290W        W98508  29.510  19.124   2.439
30291W        W98509  30.634  21.539  12.586
30292W        W98510   1.464   9.166   2.682
30293W        W98511  29.875  30.987  13.475
30294W        W98512  23.708  37.353   1.790
30295W        W98513  16.245  22.490   4.692
30296W        W98514  25.379   1.618  11.941
30297W        W98515  23.748  17.001  11.229
30298W        W98516  39.830  22.229   1.833
30299W        W98517  30.800  14.909  13.386
30300W        W98518  19.163  29.088  11.827
30301W        W98519  16.355   7.161   4.162
30302W        W98520  10.377  15.974   3.116
30303W        W98521  31.505  40.210   1.899
30304W        W98522  21.492  27.182  12.133
30305W        W98523   7.878  12.319   4.171
30306W        W98524  40.019  14.291  13.443
30307W        W98525   8.662  25.769  11.763
30308W        W98526  43.027   2.839  14.502
30309W        W98527  22.629  10.405   3.319
30310W        W98528  19.679  12.314   0.444
30311W        W98529  26.246  22.568  13.290
30312W        W98530   2.418  34.920   1.362
30313W        W98531  15.698  19.179   1.045
30314W        W98532  41.303  31.976   4.197
30315W        W98533  14.278   0.480   1.851
30316W        W98534  13.550  23.965   4.490
30317W        W98535  30.044  21.184   2.119
30318W        W98536  22.777  38.246   2.278
30319W        W98537  38.461  43.500   2.573
30320W        W98538  39.531  26.934   3.792
30321W        W98539   5.221  35.805   1.347
30322W        W98540  25.409   5.648  11.265
30323W        W98541   6.740   2.701  11.994
30324W        W98542   4.119  35.631   4.786
30325W        W98543  37.465  35.374   4.618
30326W        W98544   0.390  39.483   2.149
30327W        W98545  43.902  40.195   2.276
30328W        W98546  10.643  37.081  12.132
30329W        W98547  13.811  20.992  11.486
30330W        W98548  10.334   5.962   9.850
30331W        W98549  18.017  30.069  13.846
30332W        W98550  39.391   8.937   1.751
30333W        W98551  22.756  41.638   2.121
30334W        W98552  22.592  25.872   3.550
30335W        W98553  31.543  12.699   2.903
30336W        W98554  12.610  26.029  14.027
30337W        W98555  18.378   7.404  11.506
30338W        W98556   7.761  23.253   0.180
30339W        W98557  34.063  41.923  14.621
30340W        W98558  37.520  22.292   3.338
30341W        W98559  20.469  36.335  13.995
30342W        W98560  17.075  10.800   1.869
30343W        W98561  27.905   1.674  12.663
30344W        W98562   1.987  20.583  12.227
30345W        W98563  17.037  40.898  13.898
30346W        W98564   1.548  33.296   3.199
30347W        W98565   1.849   7.395   4.085
30348W        W98566  32.333   0.080  13.024
30349W        W98567   6.339  23.160  14.286
30350W        W98568  23.762   8.655   0.232
30351W        W98569  36.647  14.163  11.268
30352W        W98570  13.089  17.537   1.930
30353W        W98571   5.578  22.859   4.602
30354W        W98572  20.271   9.154  12.512
30355W        W98573  41.975  23.996  12.025
30356W        W98574   7.905  31.211  14.243
30357W        W98575  37.708  42.577  12.760
30358W        W98576  25.539  27.619   4.757
30359W        W98577   7.683  12.335   3.698
30360W        W98578  21.565  20.733   4.814
30361W        W98579  35.657  21.675  10.708
30362W        W98580  24.705  14.859   4.066
30363W        W98581  24.705  32.024   0.944
30364W        W98582  31.099  12.778   3.174
30365W        W98583  43.257  29.286   4.191
30366W        W98584  13.110   0.637  13.788
30367W        W98585  43.915  19.593  13.994
30368W        W98586  22.590   3.174   1.151
30369W        W98587  31.567  16.646  13.389
30370W        W98588  20.842   3.236   1.802
30371W        W98589   7.387   1.305   2.132
30372W        W98590  22.512  24.645  13.963
30373W        W98591   6.512  33.117  14.470
30374W        W98592  19.614   5.230  14.851
30375W        W98593  39.366  38.327   0.065
30376W        W98594  26.269  13.501   3.201
30377W        W98595   3.050   1.692   0.489
30378W        W98596   2.267  19.790   2.407
30379W        W98597   3.838  38.751  12.668
30380W        W98598   1.132   7.639   4.182
30381W        W98599  14.243  21.583  13.996
30382W        W98600   9.322  32.818   2.285
30383W        W98601  12.321  22.940   4.770
30384W        W98602   1.727   5.065  12.602
30385W        W98603  25.164  22.548  12.866
30386W        W98604   3.178  12.402   0.333
30387W        W98605  38.830  26.415   1.575
30388W        W98606  24.090  30.514  10.786
30389W        W98607  13.284  13.301   2.240
30390W        W98608   4.357   8.884  10.650
30391W        W98609  41.768  15.185   2.801
30392W        W98610  11.300   0.183   3.475
30393W        W98611  36.814  38.328   1.778
30394W        W98612  37.420  28.951  11.675
30395W        W98613  16.238  44.073  11.660
30396W        W98614  27.225  13.135   4.506
30397W        W98615  33.106  34.598  13.420
30398W        W98616  12.830  26.388   0.896
30399W        W98617  42.334   0.266   4.555
30400W        W98618   6.351  29.658  12.554
30401W        W98619   3.061  16.933  12.686
30402W        W98620  17.771  14.801  13.509
30403W        W98621  42.201  32.496  13.395
30404W        W98622   7.085  31.199   4.358
30405W        W98623  36.839   2.219  10.880
30406W        W98624  29.632  42.980  12.802
30407W        W98625  42.012   0.924  14.929
30408W        W98626  17.952  35.062   3.772
30409W        W98627  41.537  25.262   0.308
30410W        W98628  26.525  36.360  14.968
30411W        W98629   1.790  32.723  12.973
30412W        W98630   6.134  15.546  12.866
30413W        W98631  27.675  20.601   2.462
30414W        W98632  10.410   3.102  14.459
30415W        W98633   3.529   0.537  12.123
30416W        W98634  28.016  13.353  12.637
30417W        W98635  32.289  16.043  11.139
30418W        W98636  15.259   5.481  10.327
30419W        W98637  12.675  29.846   4.718
30420W        W98638  22.108  26.451   3.263
30421W        W98639  13.067  15.719  14.415
30422W        W98640  38.489  26.497  10.979
30423W        W98641  15.965  32.094   0.332
30424W        W98642  33.155   1.915  12.391
30425W        W98643  18.348  39.279   2.265
30426W        W98644  32.245  41.234  13.728
30427W        W98645  29.159  36.298   4.861
30428W        W98646  43.890   4.011  14.815
30429W        W98647  16.615  20.193   2.635
30430W        W98648   5.485   7.458  11.998
30431W        W98649   2.660   2.284  14.375
30432W        W98650  24.168  24.665  11.058
30433W        W98651  39.835  35.361  10.536
30434W        W98652   3.215  10.730   4.455
30435W        W98653  34.114  35.921   1.473
30436W        W98654  32.933   4.953  10.749
30437W        W98655  25.909  13.622   0.928
30438W        W98656  24.944  36.158  13.427
30439W        W98657  34.377  38.041  11.623
30440W        W98658  44.914  13.807  12.378
30441W        W98659  12.397  19.019   0.154
30442W        W98660  43.766  41.932   1.697
30443W        W98661   0.943  21.282   2.696
30444W        W98662   3.347  19.352  10.491
30445W        W98663  32.602  27.680   0.125
30446W        W98664  14.571  33.012  13.141
30447W        W98665  23.785  32.637  14.693
30448W        W98666   9.857  30.976  10.524
30449W        W98667  37.290  14.038   0.911
30450W        W98668  18.690  24.604   4.719
30451W        W98669  39.007  22.269  14.222
30452W        W98670  19.519  26.365  13.337
30453W        W98671  12.885   9.641   0.419
30454W        W98672  40.798  24.261  12.921
30455W        W98673  37.965  26.878  13.775
30456W        W98674  12.738   6.737  11.255
30457W        W98675  36.409  40.867   0.066
30458W        W98676  16.584  34.118   2.288
30459W        W98677  35.931  28.959  12.898
30460W        W98678   1.929  25.462  10.726
30461W        W98679  11.869  35.605  10.611
30462W        W98680  37.346  20.364   1.833
30463W        W98681  34.744  33.141  12.494
30464W        W98682  30.152  29.606  14.310
30465W        W98683  36.503  25.300   0.414
30466W        W98684  39.279   9.695   3.194
30467W        W98685  14.426  41.871   4.600
30468W        W98686  31.136  29.388   3.375
30469W        W98687  26.226  37.791  11.883
30470W        W98688   5.415   3.413  14.507
30471W        W98689   8.367  17.610   0.844
30472W        W98690   6.973  42.634   2.739
30473W        W98691  41.338  12.365   1.203
30474W        W98692  23.243  16.106  14.796
30475W        W98693  32.972  41.007   0.036
30476W        W98694  32.775  21.733  11.767
30477W        W98695  40.977  42.261  12.100
30478W        W98696   4.720  31.055   1.868
30479W        W98697  21.859  23.643   1.825
30480W        W98698  37.630   6.501  13.615
30481W        W98699  10.681   8.004  11.478
30482W        W98700   8.363  15.241   4.978
30483W        W98701  33.974  16.293   1.619
30484W        W98702  33.489  24.559  13.931
30485W        W98703  18.469  37.095   2.353
30486W        W98704  19.018  35.822  12.495
30487W        W98705  12.848  28.955   0.887
30488W        W98706  30.410   0.959  13.605
30489W        W98707  13.315   3.148   3.808
30490W        W98708  43.783  44.488  14.827
30491W        W98709  34.823  19.215   1.785
30492W        W98710  22.869   6.405   1.800
30493W        W98711  44.983  17.610   3.195
30494W        W98712  24.958  42.459   1.389
30495W        W98713  19.126  11.651   0.432
30496W        W98714  37.614  15.217  13.405
30497W        W98715  23.314  43.657   3.125
30498W        W98716  35.684  42.758   2.195
30499W        W98717  23.049  20.659  10.870
30500W        W98718  39.090  15.136  11.398
30501W        W98719   5.451   4.798  14.844
30502W        W98720  43.225  24.424  12.956
30503W        W98721  34.082   0.496   3.625
30504W        W98722   9.281   4.838   4.321
30505W        W98723  11.722  12.127   3.741
30506W        W98724  15.285  42.357   3.141
30507W        W98725  23.580  41.484  13.111
30508W        W98726  20.631  25.983   3.774
30509W        W98727  39.857  20.473  11.659
30510W        W98728  39.579   1.311   2.750
30511W        W98729  14.724  39.922  10.655
30512W        W98730  35.708   8.225   4.037
30513W        W98731  29.955   3.924  14.891
30514W        W98732   1.568  10.268  11.901
30515W        W98733  23.844  29.253  13.950
30516W        W98734   7.464  44.447  13.065
30517W        W98735  26.851  21.809  14.666
30518W        W98736  20.811   0.210   3.648
30519W        W98737  26.010   3.258  11.605
30520W        W98738  20.089  29.992  14.323
30521W        W98739  32.649   1.170   0.043
30522W        W98740  27.443  27.284   4.124
30523W        W98741  37.680  34.946  12.466
30524W        W98742   5.738  17.285  11.437
30525W        W98743  21.819  24.022   0.009
30526W        W98744  21.620   9.519  13.959
30527W        W98745   9.115   0.434   0.326
30528W        W98746  27.046  12.302   1.008
30529W        W98747  41.299  30.529  10.752
30530W        W98748  12.290  13.176   2.168
30531W        W98749  28.790  27.221   3.688
30532W        W98750  29.451   4.264  13.762
30533W        W98751  29.749  33.351  14.045
30534W        W98752  12.619  43.846   3.168
30535W        W98753  43.114  36.348   2.868
30536W        W98754  10.843   8.860   1.814
30537W        W98755  35.180  39.770  10.867
30538W        W98756  26.144  42.636  14.496
30539W        W98757  34.406   0.014   1.647
30540W        W98758  32.469  40.689  14.918
30541W        W98759   0.734   3.418  13.415
30542W        W98760   4.504  36.890   3.124
30543W        W98761  37.585  21.801  14.363
30544W        W98762  43.260   4.354   1.364
30545W        W98763   0.329  21.573  10.619
30546W        W98764  27.454  35.157  13.595
30547W        W98765  21.701  41.320  12.593
30548W        W98766  25.163  31.912  12.479
30549W        W98767  38.673   9.801  12.963
30550W        W98768  32.392  42.414   3.784
30551W        W98769  29.003  23.997   0.962
30552W        W98770  43.250  39.532   2.366
30553W        W98771  22.944   7.310  12.530
30554W        W98772  15.137  13.722  10.674
30555W        W98773  32.413   4.717   1.291
30556W        W98774  21.023   0.218   2.609
30557W        W98775  30.579  37.317  13.341
30558W        W98776  44.363  27.759   0.555
30559W        W98777   0.647  23.745   2.978
30560W        W98778  15.162  20.682   0.503
30561W        W98779  15.605  31.062  13.017
30562W        W98780  26.180  44.339   2.618
30563W        W98781  24.011  43.035  14.991
30564W        W98782  25.631  41.890   1.685
30565W        W98783  21.102  34.976   4.225
30566W        W98784  43.349   4.137   2.739
30567W        W98785  18.610  18.132  12.084
30568W        W98786   7.691  18.602   2.331
30569W        W98787   6.704  16.509   2.340
30570W        W98788  36.033   8.367   0.241
30571W        W98789   7.182  20.228  12.908
30572W        W98790  23.083   4.973  12.528
30573W        W98791  19.331  30.379  13.051
30574W        W98792   7.826   5.034   2.534
30575W        W98793  41.804  16.331   3.619
30576W        W98794  37.078  26.894  11.025
30577W        W98795  16.341  32.617   0.482
30578W        W98796  40.242  35.200   4.242
30579W        W98797  28.411  40.020  13.431
30580W        W98798  41.118  25.510   0.445
30581W        W98799  11.641   9.220  13.441
30582W        W98800  10.813  19.794  10.986
30583W        W98801  29.707  16.563  11.129
30584W        W98802   3.093   7.832  10.829
30585W        W98803  34.729  34.467   4.225
30586W        W98804  15.125   4.888   1.847
30587W        W98805   6.744  23.454  10.781
30588W        W98806  20.310  37.844  11.611
30589W        W98807  21.000  17.681   1.131
30590W        W98808   1.286   0.168  10.966
30591W        W98809  29.831   7.770   2.914
30592W        W98810   8.635  33.382  12.384
30593W        W98811  24.508   4.889   0.001
30594W        W98812  25.993  19.525  11.002
30595W        W98813  28.079  40.036  10.728
30596W        W98814  11.381  22.624   2.203
30597W        W98815  21.597  34.570  11.834
30598W        W98816  28.407   5.331  14.733
30599W        W98817   6.733  37.691   0.874
30600W        W98818   5.956  26.391   1.801
30601W        W98819   9.873  13.598  12.438
30602W        W98820  44.975  18.299  14.773
30603W        W98821   4.930  26.880  14.398
30604W        W98822   5.802  39.483   5.114
30605W        W98823  39.989   5.517   3.610
30606W        W98824  44.755  42.522  11.836
30607W        W98825  32.350  35.044   1.917
30608W        W98826  36.522  35.877   1.889
30609W        W98827   7.533  27.011  12.192
30610W        W98828  36.341   4.200   2.197
30611W        W98829   9.559  36.340  13.528
30612W        W98830   4.779  16.355   3.196
30613W        W98831  31.839  18.578   3.226
30614W        W98832  10.142  44.429  14.888
30615W        W98833   2.695   2.125   4.583
30616W        W98834  34.680  29.987  14.849
30617W        W98835  41.124  39.048   3.649
30618W        W98836  21.589  23.509   0.452
30619W        W98837  39.031   5.289   5.069
30620W        W98838  29.084  18.240  14.990
30621W        W98839   8.868   9.972   0.770
30622W        W98840  18.234  44.189   4.943
30623W        W98841   8.379  27.978  14.768
30624W        W98842  11.024   2.293  14.012
30625W        W98843  33.508  25.658  10.769
30626W        W98844  40.351   5.241  14.373
30627W        W98845  30.905  42.000  14.772
30628W        W98846  10.247  37.861   4.662
30629W        W98847   7.188  34.189  11.473
30630W        W98848  18.351  41.322   1.372
30631W        W98849  35.848  38.947   2.874
30632W        W98850  41.470  44.224  11.651
30633W        W98851   7.629  35.600  14.797
30634W        W98852  29.029  43.295   0.721
30635W        W98853  36.540  30.109   5.104
30636W        W98854  41.001  35.977  12.285
30637W        W98855  10.898   9.652   0.046
30638W        W98856  35.803   1.063   4.533
30639W        W98857  13.111   9.760  14.944
30640W        W98858  16.765  44.383  10.918
30641W        W98859  27.197  24.071  12.465
30642W        W98860  15.722  32.117  13.479
30643W        W98861   6.086  10.887   1.938
30644W        W98862  32.562  28.665  11.347
30645W        W98863   0.727  18.553  13.002
30646W        W98864   9.714  29.158   3.238
30647W        W98865  34.160  36.954  12.521
30648W        W98866  34.884  37.532   0.666
30649W        W98867  31.144   1.153   5.166
30650W        W98868   4.836  16.031   3.585
30651W        W98869  39.051  10.333   1.034
30652W        W98870  40.409   4.414  13.021
30653W        W98871  30.212  23.055  12.137
30654W        W98872   0.240  10.364   0.843
30655W        W98873  37.321   3.655   4.469
30656W        W98874   2.296   2.145  11.995
30657W        W98875  30.833  40.496   3.943
30658W        W98876  40.276  36.312  11.724
30659W        W98877   5.673  27.421  13.474
30660W        W98878  24.089  38.727   1.964
30661W        W98879  27.261  24.432  14.777
30662W        W98880  17.433   3.168   3.275
30663W        W98881  19.055  15.882   2.185
30664W        W98882  23.118  35.974  12.473
30665W        W98883   3.751  18.185  14.793
30666W        W98884  11.385  13.593  11.169
30667W        W98885   3.447   1.235  11.570
30668W        W98886  23.716  42.961   2.700
30669W        W98887  15.847  12.803   4.117
30670W        W98888  19.626   8.166  12.521
30671W        W98889  43.427  13.688   0.884
30672W        W98890  31.807  35.125  14.505
30673W        W98891  23.078   8.933  11.299
30674W        W98892  34.727  38.374  10.441
30675W        W98893  28.367  34.863   0.035
30676W        W98894  15.736  20.370   1.349
30677W        W98895   2.313   3.864   4.181
30678W        W98896  26.512  40.861  13.003
30679W        W98897  19.236  15.092   1.848
30680W        W98898  27.907  40.790   1.067
30681W        W98899  32.015  13.293  13.638
30682W        W98900  35.373   0.783   4.551
30683W        W98901  18.492  21.133   2.271
30684W        W98902   6.856  37.548  13.590
30685W        W98903   8.898  27.075  11.944
30686W        W98904  14.186  24.654   4.053
30687W        W98905  25.191   6.741  13.906
30688W        W98906  15.452  35.749   0.508
30689W        W98907  16.799   7.183  13.137
30690W        W98908  17.627  37.612   0.316
30691W        W98909  41.564  31.120   1.246
30692W        W98910  38.901  10.166  14.380
30693W        W98911  10.129  27.460   1.381
30694W        W98912  18.447  34.015   9.912
30695W        W98913   1.309  24.793  10.813
30696W        W98914  41.414  38.947   1.353
30697W        W98915  31.411  26.045  13.900
30698W        W98916  15.739  31.417   3.229
30699W        W98917  10.795  42.327   2.242
30700W        W98918  25.167  44.573   1.338
30701W        W98919  40.847   4.229   0.326
30702W        W98920  27.683   1.740   0.649
30703W        W98921  38.004  32.990  13.455
30704W        W98922  20.747   9.874   2.346
30705W        W98923  11.186  31.614   2.107
30706W        W98924  41.908  26.444   1.214
30707W        W98925   9.946  15.723  13.600
30708W        W98926  12.644  12.206   4.392
30709W        W98927  37.920   6.347   0.868
30710W        W98928  43.170  14.888   3.003
30711W        W98929  43.459   5.680   4.258
30712W        W98930  27.963  23.265   3.599
30713W        W98931  18.700  28.926   0.679
30714W        W98932  26.158  36.555  10.692
30715W        W98933  24.011  17.641   2.265
30716W        W98934  34.930  31.381  11.426
30717W        W98935  29.559  29.033  13.084
30718W        W98936  31.856  28.691   0.874
30719W        W98937   7.251  24.965   4.433
30720W        W98938  37.432  16.804   2.702
30721W        W98939  18.357  38.332   1.360
30722W        W98940  20.055  31.154  13.917
30723W        W98941  24.788  29.197   3.278
30724W        W98942   9.481  21.137  11.663
30725W        W98943  14.563  17.217   4.528
30726W        W98944   3.132  42.534   0.420
30727W        W98945  42.849  32.313   2.403
30728W        W98946  44.801  37.931  14.344
30729W        W98947  29.347  26.752  11.097
30730W        W98948  41.329  36.020   1.162
30731W        W98949   8.323  12.422  11.638
30732W        W98950  42.452  17.654   1.237
30733W        W98951  16.421  37.592   4.140
30734W        W98952  30.223  23.785   1.098
30735W        W98953  22.958  41.025  14.086
30736W        W98954   3.987  41.920  11.953
30737W        W98955  22.313  33.901  12.851
30738W        W98956  19.766  33.667   2.934
30739W        W98957  12.101   1.076   4.939
30740W        W98958  17.196  36.271   0.274
30741W        W98959  30.667  26.192   4.821
30742W        W98960  22.237   6.255  12.938
30743W        W98961  43.688  17.325   4.004
30744W        W98962  19.674  25.360   2.616
30745W        W98963  23.987   9.393  11.139
30746W        W98964  16.746  20.066   1.625
30747W        W98965  37.344  12.913   2.100
30748W        W98966  32.851   4.874  13.233
30749W        W98967  19.486  14.264  14.719
30750W        W98968  21.698  30.623   0.313
30751W        W98969   5.167  40.705  12.467
30752W        W98970   1.771  21.536   2.351
30753W        W98971   5.993  21.585   0.731
30754W        W98972   9.615  10.956   1.617
30755W        W98973   3.529  28.469   0.020
30756W        W98974  44.383  41.493  12.085
30757W        W98975  40.251  25.962  12.719
30758W        W98976  23.987  41.259  12.531
30759W        W98977  20.489  17.292   2.221
30760W        W98978  18.227  31.047   4.309
30761W        W98979  11.815  26.731  13.301
30762W        W98980   8.345   9.748  13.833
30763W        W98981  40.331  23.157   3.279
30764W        W98982   5.445  41.515   1.177
30765W        W98983  10.366  42.219  14.328
30766W        W98984  16.603  27.888   2.311
30767W        W98985  10.898  29.602  12.623
30768W        W98986  36.979  18.764   4.135
30769W        W98987  19.646  28.573   4.411
30770W        W98988  10.152   1.226  14.302
30771W        W98989  11.562  12.368   3.306
30772W        W98990   9.401  31.089  10.746
30773W        W98991   2.829   3.010  12.879
30774W        W98992  21.673  38.987  12.875
30775W        W98993  44.477  43.226  14.995
30776W        W98994  14.041  40.839   2.527
30777W        W98995  24.068  22.039  14.397
30778W        W98996  32.279   2.999   1.737
30779W        W98997  18.842   7.231  14.557
30780W        W98998  37.068  16.238   3.606
30781W        W98999  29.695  25.147  14.798
30782W        W99000  32.510  33.945   4.281
30783W        W99001   1.431  22.573  14.480
30784W        W99002   0.839  30.630  14.453
30785W        W99003  12.460  41.799   2.650
30786W        W99004  12.211  18.602   0.812
30787W        W99005  33.473   1.023  13.520
30788W        W99006  33.180   4.121  13.467
30789W        W99007  42.839  29.703   5.021
30790W        W99008  26.723   6.010   1.737
30791W        W99009  23.620  27.560   2.700
30792W        W99010   5.682  20.962   4.628
30793W        W99011  20.759  33.094   4.415
30794W        W99012   7.374  44.928   0.427
30795W        W99013  35.928   5.928  10.694
30796W        W99014   8.453  23.825   2.848
30797W        W99015   6.970  28.701  13.842
30798W        W99016  30.046  31.670  10.608
30799W        W99017  11.100  23.547   2.194
30800W        W99018  30.460  27.034  11.128
30801W        W99019  20.652  23.596   2.911
30802W        W99020   7.138  42.350   1.796
30803W        W99021  10.348  28.849   0.799
30804W        W99022  25.125  29.114   2.334
30805W        W99023  36.042  41.256   3.125
30806W        W99024   7.282  42.904  12.183
30807W        W99025  44.166  29.743   1.799
30808W        W99026  12.358   0.997  13.500
30809W        W99027  10.842  40.245  13.481
30810W        W99028  21.934   0.038   1.805
30811W        W99029  41.513  21.438   2.654
30812W        W99030  25.188  12.267  13.958
30813W        W99031  24.187   1.723  14.113
30814W        W99032   8.954   7.332  12.925
30815W        W99033  25.463   1.280   0.424
30816W        W99034   3.171  29.804  11.004
30817W        W99035  36.071   3.887   1.361
30818W        W99036   6.684  42.341   0.802
30819W        W99037  35.350   2.878   3.044
30820W        W99038  20.029  19.038   1.826
30821W        W99039  35.893  44.242   1.420
30822W        W99040  44.812  44.463  13.157
30823W        W99041  44.885  18.353  14.239
30824W        W99042  11.561  25.228   2.260
30825W        W99043  36.966  27.244   4.608
30826W        W99044   2.827   8.515  13.975
30827W        W99045  39.560  42.812  13.070
30828W        W99046  37.108   8.903   3.202
30829W        W99047   8.330  11.430  10.715
30830W        W99048   6.059  39.922   9.816
30831W        W99049  39.410  24.693   2.188
30832W        W99050   4.208  32.402   1.745
30833W        W99051  41.982  20.707   1.381
30834W        W99052  24.987  36.550  14.964
30835W        W99053  33.166   1.967  12.916
30836W        W99054  34.385  43.718   1.511
30837W        W99055  44.988   8.501  13.819
30838W        W99056  28.040  31.610  10.631
30839W        W99057  25.448  12.826   4.498
30840W        W99058  39.573  35.028  12.606
30841W        W99059  36.406   8.801   2.954
30842W        W99060   9.183  36.180  11.165
30843W        W99061  12.804  32.994   3.950
30844W        W99062  43.354  12.163   3.464
30845W        W99063   1.198  14.903   2.750
30846W        W99064  44.898  42.074  12.139
30847W        W99065  14.898  13.838   3.718
30848W        W99066  14.515   2.773  11.534
30849W        W99067  19.099  38.319   2.468
30850W        W99068  32.139   7.472   1.373
30851W        W99069  43.773  38.884   2.861
30852W        W99070  13.347  12.809  10.853
30853W        W99071   1.350  33.388  12.905
30854W        W99072  14.310  40.407  13.357
30855W        W99073  30.619  22.047   0.811
30856W        W99074   9.964  11.837   0.903
30857W        W99075   3.786  39.800  10.457
30858W        W99076  21.266  37.285  12.632
30859W        W99077  41.914  25.536   4.896
30860W        W99078  29.250  32.116   3.712
30861W        W99079  27.669  24.801  12.523
30862W        W99080  32.518  16.578   0.851
30863W        W99081  11.149  31.955  14.955
30864W        W99082  17.223  40.740   2.162
30865W        W99083  22.356   0.923  13.976
30866W        W99084  16.806  27.527  13.002
30867W        W99085   4.847   5.190   2.232
30868W        W99086   3.246  42.875   4.691
30869W        W99087  43.024  37.671  10.739
30870W        W99088   6.620  17.952   4.968
30871W        W99089  11.290  14.086   0.752
30872W        W99090  32.313  36.019   4.017
30873W        W99091  24.728   6.999   0.149
30874W        W99092  41.807  22.189   1.128
30875W        W99093  43.901  22.240   4.647
30876W        W99094  37.832  28.954  13.975
30877W        W99095  33.813  24.921   3.163
30878W        W99096  24.095   1.882  12.379
30879W        W99097   9.043  11.536   5.026
30880W        W99098   7.529  36.281  12.413
30881W        W99099  26.222  37.112   4.885
30882W        W99100  40.396  28.460  14.261
30883W        W99101  28.225   3.427   2.771
30884W        W99102  18.254  27.424   3.906
30885W        W99103  38.641  30.606  11.252
30886W        W99104  23.779   4.457   2.257
30887W        W99105  24.212  18.605  13.103
30888W        W99106   9.247   8.199   0.254
30889W        W99107  27.494  29.667   2.222
30890W        W99108  36.383  23.039   4.670
30891W        W99109  18.307   0.694   1.000
30892W        W99110  41.461  37.514   3.877
30893W        W99111  37.438  42.925   2.771
30894W        W99112  14.742  25.460  10.599
30895W        W99113   9.920   8.860  12.023
30896W        W99114   6.912  33.660  12.997
30897W        W99115  24.451   9.322   4.700
30898W        W99116  29.180   2.998  12.769
30899W        W99117  20.435  30.195   1.799
30900W        W99118  19.074  36.152  11.213
30901W        W99119  32.086  27.291  13.817
30902W        W99120  12.913  36.108  12.533
30903W        W99121  43.259  23.740   0.801
30904W        W99122  13.168  31.989  14.905
30905W        W99123   1.328  25.616   3.792
30906W        W99124  12.933  33.916   2.362
30907W        W99125   8.215  36.939  10.672
30908W        W99126   9.931  14.389  10.386
30909W        W99127  30.474  37.845  10.467
30910W        W99128   6.361  13.753  11.121
30911W        W99129  34.587   1.281   4.372
30912W        W99130  38.826  30.950  12.630
30913W        W99131  11.214  18.989   1.374
30914W        W99132  20.602  36.122   5.368
30915W        W99133  22.771   2.275  11.185
30916W        W99134  30.886  42.784  11.462
30917W        W99135  36.313  34.877  14.500
30918W        W99136  37.495   9.240   4.199
30919W        W99137   2.326  41.404   1.217
30920W        W99138  20.264  42.558   3.612
30921W        W99139  37.064   2.453   2.084
30922W        W99140  18.248  31.818  11.161
30923W        W99141   3.804   1.459  13.142
30924W        W99142   2.150  11.728   0.845
30925W        W99143  43.811  20.288   2.118
30926W        W99144  28.923   0.288   0.907
30927W        W99145  39.725  40.132  14.833
30928W        W99146   8.219  39.013   4.054
30929W        W99147  32.342  33.131  11.056
30930W        W99148  23.338  34.973   2.720
30931W        W99149  32.576  26.600   4.555
30932W        W99150  30.371  30.404  13.832
30933W        W99151   7.472   2.354   5.022
30934W        W99152  43.550   3.917   1.253
30935W        W99153  28.295   6.904  11.233
30936W        W99154  19.132   5.360  13.574
30937W        W99155  33.410  11.441  11.353
30938W        W99156  32.200  16.553  11.227
30939W        W99157  31.413   5.222  14.905
30940W        W99158  23.123  16.332  13.282
30941W        W99159  36.434  29.107   3.783
30942W        W99160  33.601  25.763  11.250
30943W        W99161  14.445  44.916  12.092
30944W        W99162  25.667   3.524  10.811
30945W        W99163   2.205  13.384  14.760
30946W        W99164   3.498  20.234   3.246
30947W        W99165  21.289   1.427  11.471
30948W        W99166   0.504   8.355   2.151
30949W        W99167  22.744  37.394  12.086
30950W        W99168   2.890   8.418   2.771
30951W        W99169  15.595   8.836  13.921
30952W        W99170  18.682  22.394   2.004
30953W        W99171   2.724  33.289   2.354
30954W        W99172  17.874  38.840  14.776
30955W        W99173  42.428   0.210  11.077
30956W        W99174  17.720  36.584   1.441
30957W        W99175  27.637  36.077  11.869
30958W        W99176  29.132  28.053   1.644
30959W        W99177  17.192  32.191  10.567
30960W        W99178  12.399  23.549  12.351
30961W        W99179  39.062  30.943   2.441
30962W        W99180  39.049   9.119  13.529
30963W        W99181   5.652   9.267   2.365
30964W        W99182   5.256   4.443   4.816
30965W        W99183  44.513  14.375   2.655
30966W        W99184   4.296  35.065  10.555
30967W        W99185  35.598  20.480  12.993
30968W        W99186  16.648  33.034  14.876
30969W        W99187   4.283   3.523   2.314
30970W        W99188  29.898   7.916   4.014
30971W        W99189  34.571  22.526   1.666
30972W        W99190  27.255  35.325   1.283
30973W        W99191  32.086  35.851   0.799
30974W        W99192   9.741   4.233   1.265
30975W        W99193  33.551   8.763   3.565
30976W        W99194   8.934  15.588  14.395
30977W        W99195  27.621  16.892   0.973
30978W        W99196  33.565  44.643   2.707
30979W        W99197  31.384   9.865  12.028
30980W        W99198  44.079  40.455  11.375
30981W        W99199  12.130  16.221  10.916
30982W        W99200  37.747  37.985  12.569
30983W        W99201  24.700  27.102  12.586
30984W        W99202  30.444   3.953  11.390
30985W        W99203  35.531  41.304  14.872
30986W        W99204  21.832  30.856   1.303
30987W        W99205  24.728  20.322  12.787
30988W        W99206  39.379   4.889   5.086
30989W        W99207  25.014  13.883  11.543
30990W        W99208  41.813   9.472  14.344
30991W        W99209  16.689  44.381   2.784
30992W        W99210  19.555  32.098  14.571
30993W        W99211  35.004  41.245  10.738
30994W        W99212  27.231   4.100  14.553
30995W        W99213  43.063  39.604   0.041
30996W        W99214  17.668  12.301  14.779
30997W        W99215   4.227   9.466  12.113
30998W        W99216  39.475  23.560  10.865
30999W        W99217  23.904   7.432   2.316
31000W        W99218  40.367  14.769  14.718
31001W        W99219  32.555   9.391   3.000
31002W        W99220  12.756  16.959   4.765
31003W        W99221  32.294  23.444   3.791
31004W        W99222   3.419  13.138   0.920
31005W        W99223  24.474  10.207   3.630
31006W        W99224  37.452   4.909   3.225
31007W        W99225  16.869  10.314   1.849
31008W        W99226  32.485  40.571   3.194
31009W        W99227  16.642  18.996   3.629
31010W        W99228   2.762  33.446   4.247
31011W        W99229  21.637  27.466   0.485
31012W        W99230  33.130   4.840  11.220
31013W        W99231  26.148  13.181   4.273
31014W        W99232  14.184  20.129   4.944
31015W        W99233  24.408  33.508   3.581
31016W        W99234  15.199   3.203   2.896
31017W        W99235  14.739  29.038   2.824
31018W        W99236  17.756  22.132  10.546
31019W        W99237  20.593  42.941   0.401
31020W        W99238  25.953   8.080   2.486
31021W        W99239   2.410  25.261   3.322
31022W        W99240  43.859  13.141   1.172
31023W        W99241  21.554  10.127  11.964
31024W        W99242  42.379  13.652  14.581
31025W        W99243   9.277  12.297  13.128
31026W        W99244  36.478  20.940  14.772
31027W        W99245  16.598  29.514  12.610
31028W        W99246  10.820  17.710   5.503
31029W        W99247   4.376  10.390  14.635
31030W        W99248  15.732   7.411   2.253
31031W        W99249   0.932  43.364   4.490
31032W        W99250  32.936  19.389   1.776
31033W        W99251  37.894  34.125  11.454
31034W        W99252   0.031  34.904   2.180
31035W        W99253  15.107  29.215   0.243
31036W        W99254  10.092   9.728   0.434
31037W        W99255   1.948  44.851   2.396
31038W        W99256   0.896  12.599   0.978
31039W        W99257  20.016   4.888  11.814
31040W        W99258  17.760   1.308  11.544
31041W        W99259  22.710  18.238   3.157
31042W        W99260  37.547  22.259  12.980
31043W        W99261  42.533  24.910   0.700
31044W        W99262  15.737  38.822  11.908
31045W        W99263  35.955  22.094  13.035
31046W        W99264  20.243   5.425   0.412
31047W        W99265   1.825  37.136  12.162
31048W        W99266  23.702  30.664  12.524
31049W        W99267   6.927  16.185  10.572
31050W        W99268  23.695  40.538  10.279
31051W        W99269   1.160   5.715   0.808
31052W        W99270  25.683   3.119   4.081
31053W        W99271   4.782  31.626   3.648
31054W        W99272  38.715  22.687   2.863
31055W        W99273  23.795  12.812   4.911
31056W        W99274  29.571  44.259   2.913
31057W        W99275   3.746  23.812  12.176
31058W        W99276  16.306  38.899  14.508
31059W        W99277  19.649  14.667   0.644
31060W        W99278   3.066  22.042  13.139
31061W        W99279   8.905   9.621   2.973
31062W        W99280  31.868  33.276  13.429
31063W        W99281  43.007   5.328   1.351
31064W        W99282  30.442  32.720   1.647
31065W        W99283   9.863  26.126   0.828
31066W        W99284  24.190  39.619   2.737
31067W        W99285  14.319  30.894  13.825
31068W        W99286  25.064  40.499   4.191
31069W        W99287   7.949  33.571  10.754
31070W        W99288  21.439  34.941  14.276
31071W        W99289  20.933  10.795   4.145
31072W        W99290  39.528  42.869   3.651
31073W        W99291  37.519  30.111  11.616
31074W        W99292   5.663  31.986  13.940
31075W        W99293   9.557  11.730  14.034
31076W        W99294  23.770  40.662  13.931
31077W        W99295  39.877  24.631   3.472
31078W        W99296  18.257  32.095  12.135
31079W        W99297  20.994  31.379   1.380
31080W        W99298  12.176  16.752  14.095
31081W        W99299  24.090  26.605  13.641
31082W        W99300  34.537  43.986  11.991
31083W        W99301  39.145  30.562  14.345
31084W        W99302  29.148  38.215   4.613
31085W        W99303  12.803  10.085  10.748
31086W        W99304  20.818   2.160  14.300
31087W        W99305  13.698  40.914  13.476
31088W        W99306  40.460  39.055  14.785
31089W        W99307  15.510  31.064  11.196
31090W        W99308  36.854  19.338   3.278
31091W        W99309  27.599  32.878   1.426
31092W        W99310  20.125  41.563  11.036
31093W        W99311  37.524  42.575   1.924
31094W        W99312  14.685   3.227  11.319
31095W        W99313   5.389   8.107   2.760
31096W        W99314  20.112  20.907   4.735
31097W        W99315  24.226   0.826  11.983
31098W        W99316  43.477  28.854   1.070
31099W        W99317  39.217   6.373  11.555
31100W        W99318  11.256   3.948  14.284
31101W        W99319  37.344  44.469   4.726
31102W        W99320  28.699  44.990   2.756
31103W        W99321   6.794  41.931   1.741
31104W        W99322  10.406  43.134   2.248
31105W        W99323  29.919  38.721  12.290
31106W        W99324  27.496  44.939   2.125
31107W        W99325  39.803   5.184   5.000
31108W        W99326  29.248  41.344   0.478
31109W        W99327  10.358  26.314  14.036
31110W        W99328   1.348   1.745   2.390
31111W        W99329  18.632   3.798   3.171
31112W        W99330  32.381  19.665  10.813
31113W        W99331  14.724  34.515   0.443
31114W        W99332  27.005  38.805  10.485
31115W        W99333  38.773  44.441   0.324
31116W        W99334  30.084  33.327   1.359
31117W        W99335   0.597  31.420  11.219
31118W        W99336  36.959   0.273  14.736
31119W        W99337   2.303  22.629   1.693
31120W        W99338   0.738  28.976  11.603
31121W        W99339   4.718  36.465  11.095
31122W        W99340   3.962  32.133  13.005
31123W        W99341  34.226  14.004   4.968
31124W        W99342  10.461  35.089  12.934
31125W        W99343   8.881  43.558   1.291
31126W        W99344   0.852  14.590   3.666
31127W        W99345  30.895   6.302  14.903
31128W        W99346   8.917  13.402  11.649
31129W        W99347  19.252  30.441   3.488
31130W        W99348  17.657  21.433  12.069
31131W        W99349  18.039   6.062  13.493
31132W        W99350  26.560  31.455  14.728
31133W        W99351   7.775  35.791  13.347
31134W        W99352  37.308   8.682   0.283
31135W        W99353  32.027  28.692  13.975
31136W        W99354   4.648  37.329  11.664
31137W        W99355  14.307  30.385   0.551
31138W        W99356  18.102  36.840   0.361
31139W        W99357  22.022  41.695  12.371
31140W        W99358   1.564  35.750  11.065
31141W        W99359  35.420   4.482  11.346
31142W        W99360  13.177  25.904  14.427
31143W        W99361  11.621  18.026  12.790
31144W        W99362   4.315  17.525   3.317
31145W        W99363   9.630   9.233   0.545
31146W        W99364  31.666  31.951  11.733
31147W        W99365  19.910  14.662   3.460
31148W        W99366  12.814  10.561   0.043
31149W        W99367  32.630   5.724   1.417
31150W        W99368  18.473   3.286  11.998
31151W        W99369  37.879  23.087  13.284
31152W        W99370  22.058  26.705   2.799
31153W        W99371  18.102  21.077   0.020
31154W        W99372  28.447  15.136  14.528
31155W        W99373   6.648  23.038   3.771
31156W        W99374   5.492  19.216  11.945
31157W        W99375  10.328  37.056   4.997
31158W        W99376  13.896  23.205   4.272
31159W        W99377  35.114  41.593  11.095
31160W        W99378   9.615   6.197   1.635
31161W        W99379  27.376  41.285   2.845
31162W        W99380  23.044  19.074   2.198
31163W        W99381  20.521  21.651  12.480
31164W        W99382  36.376  28.279  13.355
31165W        W99383  12.153   2.831   1.223
31166W        W99384  15.909  23.226   0.470
31167W        W99385  36.948  33.976  10.370
31168W        W99386  22.502  32.624   2.216
31169W        W99387   9.705  44.880  14.234
31170W        W99388  15.593  30.910   1.014
31171W        W99389  39.509  28.134  11.109
31172W        W99390  36.038  41.213   2.224
31173W        W99391  37.855  36.271  12.131
31174W        W99392  42.459  34.172   0.885
31175W        W99393   3.431  21.165  11.653
31176W        W99394  11.326  16.739   0.818
31177W        W99395  32.595  20.048   0.564
31178W        W99396  35.671   4.748   3.684
31179W        W99397   0.853  21.897   4.111
31180W        W99398  21.051  33.361   1.370
31181W        W99399  14.085   9.412   3.457
31182W        W99400   4.285  13.645  14.829
31183W        W99401   0.874  29.488   0.441
31184W        W99402   3.370  16.681   3.480
31185W        W99403  24.423   8.768   2.171
31186W        W99404   6.129  18.042  12.901
31187W        W99405  25.906   2.541  13.423
31188W        W99406  15.685   4.853  12.100
31189W        W99407  33.320  32.187   2.892
31190W        W99408  19.196  31.997  11.927
31191W        W99409  22.996  29.547  12.496
31192W        W99410   0.485  31.470  14.200
31193W        W99411   5.943  28.159   3.081
31194W        W99412  21.250   4.686   1.641
31195W        W99413  13.250  35.904  14.285
31196W        W99414  22.239   1.516  14.789
31197W        W99415  24.892   8.882   0.374
31198W        W99416  27.265  41.095  13.428
31199W        W99417  17.197  11.562   1.242
31200W        W99418   4.743  25.850   4.560
31201W        W99419  31.086  25.011  14.538
31202W        W99420  30.862  26.946   1.801
31203W        W99421  26.246  11.132  13.159
31204W        W99422   3.977  20.502   3.608
31205W        W99423  19.693  28.256   3.211
31206W        W99424  37.346  39.349  14.176
31207W        W99425  24.660  13.376   4.787
31208W        W99426  26.630  12.938   1.946
31209W        W99427  37.828   2.424  12.456
31210W        W99428  39.034  33.426  10.689
31211W        W99429   5.207  15.026   1.098
31212W        W99430  20.666   2.007   3.181
31213W        W99431  13.080  10.892   1.673
31214W        W99432  43.029   8.158  12.478
31215W        W99433  29.891   2.289   1.220
31216W        W99434  30.865  23.136  13.895
31217W        W99435  37.129   4.647   4.204
31218W        W99436  35.968  33.291   4.884
31219W        W99437  14.119   1.453  12.427
31220W        W99438  18.641  41.687  12.066
31221W        W99439  13.615  34.096  10.633
31222W        W99440  35.499   7.248   0.902
31223W        W99441  19.787  24.605  12.903
31224W        W99442  26.018  22.109  14.990
31225W        W99443  30.034  23.242  12.581
31226W        W99444   7.615  32.020   3.278
31227W        W99445  36.839  36.108   0.354
31228W        W99446  41.301   9.105  11.104
31229W        W99447  35.607   4.255   0.350
31230W        W99448  29.097  29.984  12.016
31231W        W99449  29.205   6.145   4.181
31232W        W99450  21.137  32.629  13.356
31233W        W99451  29.941  35.141  13.591
31234W        W99452   6.785   7.281   1.720
31235W        W99453   7.578  42.833   4.053
31236W        W99454  38.199  43.708  11.131
31237W        W99455  34.081  17.604   2.063
31238W        W99456  42.948   4.159  14.969
31239W        W99457  19.749  12.046  14.602
31240W        W99458  40.699   1.581  10.400
31241W        W99459  25.397  10.962  12.596
31242W        W99460  33.363  42.298   4.179
31243W        W99461   4.333  22.509  12.357
31244W        W99462  39.523  12.795   4.065
31245W        W99463   3.721  14.148   3.370
31246W        W99464  34.858  27.119   1.923
31247W        W99465   6.652  31.613   1.352
31248W        W99466   9.403  42.266  13.408
31249W        W99467  27.503   6.366  11.028
31250W        W99468  22.744  32.384  12.620
31251W        W99469  18.246   0.751   4.889
31252W        W99470  25.629  30.003   1.637
31253W        W99471   0.644  16.035   1.261
31254W        W99472  25.149  36.267   4.590
31255W        W99473  39.917   3.282  12.430
31256W        W99474  33.580  30.630   5.250
31257W        W99475  38.977  25.092   1.627
31258W        W99476  44.287  28.829   4.548
31259W        W99477  10.433   3.234  12.656
31260W        W99478   2.779  38.309  10.829
31261W        W99479   6.411  13.317  14.958
31262W        W99480  37.311   3.762   2.406
31263W        W99481  33.555  38.273  14.864
31264W        W99482   3.941  23.292   2.105
31265W        W99483  22.382   9.166   3.696
31266W        W99484  38.538   9.317   0.242
31267W        W99485   2.481  36.540  12.893
31268W        W99486   6.623  22.811   4.457
31269W        W99487  16.804  24.452  12.382
31270W        W99488   6.477   5.690  12.409
31271W        W99489  24.625  16.099  12.515
31272W        W99490  12.381  32.163  13.515
31273W        W99491  26.434  17.521  13.713
31274W        W99492  21.806  20.056   2.759
31275W        W99493   3.626   3.774   1.706
31276W        W99494   5.203  42.897   2.667
31277W        W99495   2.518   9.371  12.437
31278W        W99496  43.735  38.916   2.047
31279W        W99497   3.456  27.669   4.028
31280W        W99498   6.286  36.934   2.306
31281W        W99499  38.330  16.584   1.743
31282W        W99500  32.124  39.427  14.045
31283W        W99501   5.254  43.834  14.308
31284W        W99502   1.876  15.342  13.825
31285W        W99503  34.006  10.188   4.731
31286W        W99504   1.256  42.675   3.326
31287W        W99505  36.890  13.785  12.808
31288W        W99506  13.603  14.187  13.096
31289W        W99507  12.754  30.157   1.456
31290W        W99508  25.049   0.439  13.970
31291W        W99509  27.423   4.956   1.921
31292W        W99510  40.860   3.365  10.720
31293W        W99511   3.279  26.899   3.281
31294W        W99512  41.661  33.750  10.972
31295W        W99513  40.270  42.358  13.599
31296W        W99514  19.233   1.809   0.670
31297W        W99515  25.545  14.839   4.082
31298W        W99516  37.739  37.115  13.985
31299W        W99517   2.883  12.853   0.331
31300W        W99518   8.775  26.442   1.726
31301W        W99519  14.100  16.759  10.582
31302W        W99520  28.362  20.548  12.184
31303W        W99521  22.473   8.013   3.602
31304W        W99522  31.646  38.598   2.773
31305W        W99523  21.052  39.747  10.204
31306W        W99524  41.038  23.780   4.153
31307W        W99525  36.082  16.771  10.442
31308W        W99526  38.514   0.848  14.675
31309W        W99527  18.822  37.017  12.051
31310W        W99528  22.036  29.632   0.899
31311W        W99529  41.527  25.121   2.777
31312W        W99530  41.373  26.613  14.487
31313W        W99531  36.984  10.680  14.309
31314W        W99532  40.429  29.477   4.464
31315W        W99533  30.547  22.027  13.399
31316W        W99534  44.975  21.166  14.438
31317W        W99535  15.890  11.900  11.024
31318W        W99536  30.306  15.674  14.365
31319W        W99537  15.856   0.974  14.966
31320W        W99538  37.064   0.785  14.941
31321W        W99539   0.188   9.653  14.012
31322W        W99540   9.018  10.537  14.430
31323W        W99541  44.491  17.333   2.956
31324W        W99542  17.284  43.715   0.350
31325W        W99543  31.986  13.132   4.035
31326W        W99544   5.220  20.415   3.996
31327W        W99545  32.379   6.125   5.092
31328W        W99546  30.108  24.919  13.038
31329W        W99547   7.321  42.273   4.105
31330W        W99548   8.425  42.318  10.221
31331W        W99549  35.317  25.136  13.520
31332W        W99550  32.849  32.142   3.817
31333W        W99551  25.052  42.271  13.936
31334W        W99552   3.051   1.315   2.785
31335W        W99553  25.828  37.869   1.776
31336W        W99554  24.262  13.542   3.988
31337W        W99555  13.889   7.900   2.965
31338W        W99556  17.804  15.797   3.365
31339W        W99557  33.201   0.770  11.637
31340W        W99558  22.005  26.576  13.382
31341W        W99559  33.562   1.716  12.639
31342W        W99560  16.777  33.007  10.639
31343W        W99561  38.381  16.918  13.515
31344W        W99562  11.850  16.648   1.690
31345W        W99563   3.974   3.716   3.175
31346W        W99564   5.826  16.553   1.365
31347W        W99565  13.582  30.013  14.366
31348W        W99566  38.938  18.955  13.959
31349W        W99567  25.252  28.167   4.043
31350W        W99568  28.882  44.760  12.058
31351W        W99569  19.671   6.780  11.295
31352W        W99570  10.290  30.883  11.185
31353W        W99571  10.161  11.208   3.569
31354W        W99572  43.033  22.704   1.370
31355W        W99573  14.174  25.903   1.240
31356W        W99574  16.341  38.426   0.792
31357W        W99575  26.246   7.354   4.277
31358W        W99576  39.528   0.230   3.649
31359W        W99577  17.596  16.788  12.620
31360W        W99578   7.343  29.375   3.632
31361W        W99579  20.294   7.439   2.819
31362W        W99580  14.108   7.514   3.512
31363W        W99581  10.778  18.865   0.475
31364W        W99582  41.835  40.917   2.708
31365W        W99583  27.051  36.926  12.632
31366W        W99584   1.538  41.627  14.850
31367W        W99585   6.573  44.466  10.907
31368W        W99586  21.323  30.041  11.901
31369W        W99587  16.163  16.273  14.440
31370W        W99588  41.991  18.732  13.021
31371W        W99589  16.208  40.536   1.316
31372W        W99590  19.352  21.753   4.120
31373W        W99591  34.047  29.653  12.072
31374W        W99592  37.897  26.666   0.701
31375W        W99593  20.413   5.053   3.419
31376W        W99594   7.352  39.366  11.333
31377W        W99595   3.701  41.425   3.218
31378W        W99596  14.675  13.308   4.567
31379W        W99597  19.345  30.415  13.940
31380W        W99598  34.075  29.634  12.917
31381W        W99599   4.251   5.375   2.212
31382W        W99600   8.504  34.406  12.663
31383W        W99601   3.202  15.600   4.637
31384W        W99602  36.467  35.063   3.885
31385W        W99603  10.711  20.936  11.839
31386W        W99604  33.163   1.561  10.620
31387W        W99605  35.033  41.781   2.764
31388W        W99606  10.111  30.045  14.433
31389W        W99607  13.159  39.292   3.262
31390W        W99608  15.265  40.501  13.089
31391W        W99609  20.533  17.027   2.679
31392W        W99610  16.774  25.521  10.975
31393W        W99611   0.730  31.003   1.543
31394W        W99612  36.795   8.829  10.232
31395W        W99613  16.578  16.744  12.898
31396W        W99614  35.843  11.741  13.972
31397W        W99615  33.353   0.895   3.767
31398W        W99616  32.456  37.899   1.306
31399W        W99617  21.985  39.516   3.222
31400W        W99618  37.863   3.992  14.838
31401W        W99619  31.790  21.526   3.420
31402W        W99620   5.337  12.765   0.032
31403W        W99621  28.878  20.609   0.038
31404W        W99622  40.283   8.300   4.665
31405W        W99623   9.209  21.031  13.195
31406W        W99624  44.485  44.564   0.445
31407W        W99625   7.272  29.136  14.558
31408W        W99626  13.496  22.059  13.128
31409W        W99627  18.775  34.481   4.697
31410W        W99628  40.587  25.651  12.960
31411W        W99629   9.605  30.951   3.076
31412W        W99630  25.133  41.687   1.839
31413W        W99631  17.874   4.843  10.850
31414W        W99632  16.448  16.236   0.766
31415W        W99633  18.152  18.286   1.651
31416W        W99634  38.398  39.233  11.929
31417W        W99635  24.565  15.969   0.830
31418W        W99636  14.700  23.276   1.849
31419W        W99637  15.029  36.551  14.565
31420W        W99638  17.392   2.591  13.371
31421W        W99639  42.294  31.729  13.783
31422W        W99640  40.182   1.420  11.604
31423W        W99641  27.168  43.019  14.519
31424W        W99642  13.646  30.183   4.942
31425W        W99643   7.899   7.018   2.446
31426W        W99644  12.275  37.822   4.633
31427W        W99645  39.627   6.873  12.529
31428W        W99646  19.269  13.460   2.532
31429W        W99647  36.345  11.098   3.608
31430W        W99648  40.429   5.652  10.737
31431W        W99649  26.170  43.359   2.822
31432W        W99650  11.095  14.633  11.125
31433W        W99651  33.129  25.700  14.353
31434W        W99652  15.147  31.536  12.071
31435W        W99653  16.823  25.983   4.631
31436W        W99654   9.992  23.023   4.461
31437W        W99655   0.610  34.994   1.321
31438W        W99656  33.141  17.195   3.441
31439W        W99657  20.606  10.732   4.979
31440W        W99658  39.320   5.736   0.288
31441W        W99659  26.631   7.595   1.404
31442W        W99660  36.958  44.493   0.373
31443W        W99661  21.099   2.588  14.423
31444W        W99662   7.899  28.450  10.676
31445W        W99663  24.833  25.148  14.036
31446W        W99664   5.650  23.884   0.318
31447W        W99665  37.586   0.782  14.924
31448W        W99666  41.420  16.173   4.716
31449W        W99667   7.398  33.491  12.941
31450W        W99668  22.038  31.521   3.768
31451W        W99669  24.212  18.371   1.864
31452W        W99670  39.904  31.885   1.260
31453W        W99671  38.372   7.196  14.864
31454W        W99672  38.940  31.477  12.815
31455W        W99673   8.688  11.798  13.681
31456W        W99674  16.229   7.660  10.429
31457W        W99675  14.661  37.937  10.976
31458W        W99676  12.022  10.869  10.472
31459W        W99677  40.076  12.010   4.208
31460W        W99678  24.964  30.943   2.579
31461W        W99679  32.429   7.287  14.202
31462W        W99680   4.437  12.840   4.144
31463W        W99681  13.091  15.339   1.222
31464W        W99682   5.430  31.920  10.706
31465W        W99683  13.172  10.029   3.357
31466W        W99684  33.470   1.911  14.131
31467W        W99685  12.548  38.816   1.117
31468W        W99686  26.667  30.389  12.477
31469W        W99687   3.892  40.151   5.420
31470W        W99688  14.645  20.551  14.649
31471W        W99689  15.405  30.608  12.813
31472W        W99690  14.880   1.382   0.723
31473W        W99691   1.760  24.714   0.253
31474W        W99692  21.618  21.317  14.000
31475W        W99693   1.924   0.241  13.671
31476W        W99694  22.293  42.478  14.572
31477W        W99695  39.363  37.540   4.779
31478W        W99696  35.005  21.911  11.115
31479W        W99697   0.071  35.140   4.795
31480W        W99698  28.246   9.123  11.846
31481W        W99699  33.164  28.487   2.223
31482W        W99700  43.678  35.827  11.007
31483W        W99701   5.316   1.971   2.758
31484W        W99702  19.850  37.604  11.462
31485W        W99703  11.344  35.339  13.570
31486W        W99704  29.315   5.358   1.287
31487W        W99705  24.853  13.602   4.034
31488W        W99706   8.629  12.649   1.557
31489W        W99707  22.023  34.621  11.545
31490W        W99708  11.457   8.847   0.359
31491W        W99709  23.657  12.642   2.407
31492W        W99710  10.803  31.539   4.093
31493W        W99711  26.708  28.822   3.196
31494W        W99712  36.999  37.421   0.223
31495W        W99713  13.570   2.023   4.287
31496W        W99714  40.379  26.905  12.997
31497W        W99715   4.837  26.861   4.597
31498W        W99716  20.948  11.923   2.217
31499W        W99717  34.870  40.308  12.587
31500W        W99718  26.763  26.185   1.798
31501W        W99719  20.057  32.008  14.408
31502W        W99720  11.796  11.856  12.037
31503W        W99721  29.162  20.207   2.908
31504W        W99722   0.436   4.341  13.543
31505W        W99723  26.556  10.286   4.573
31506W        W99724  39.297  19.643   4.629
31507W        W99725   0.695   8.294   9.637
31508W        W99726   7.910  26.022  14.073
31509W        W99727   7.707  20.644  10.655
31510W        W99728   0.744  43.491  14.326
31511W        W99729  27.653  17.536  14.547
31512W        W99730  17.534  10.735  12.595
31513W        W99731  44.955  27.532   0.830
31514W        W99732  34.410  19.969  13.773
31515W        W99733  42.207   6.268  11.952
31516W        W99734   1.984  34.001   0.468
31517W        W99735  12.102   1.988   4.841
31518W        W99736  16.923  27.442  14.907
31519W        W99737   9.186   4.705   2.624
31520W        W99738   8.687  38.009   0.519
31521W        W99739  18.230  19.398   0.401
31522W        W99740  33.879  38.801  14.374
31523W        W99741  37.826  44.641   4.649
31524W        W99742   3.525  15.871  14.874
31525W        W99743  12.582  28.827   1.737
31526W        W99744  36.908   8.625  13.950
31527W        W99745  44.591  24.777  11.921
31528W        W99746  10.143  14.637  13.021
31529W        W99747  30.933   2.488   9.817
31530W        W99748  17.502  27.187   2.772
31531W        W99749   7.750  30.163  12.068
31532W        W99750  30.184   5.880   4.784
31533W        W99751  35.652  13.097  11.204
31534W        W99752  43.369  37.801   0.936
31535W        W99753  32.917  26.032  10.091
31536W        W99754  30.387  30.546  12.928
31537W        W99755  23.093  31.029   2.623
31538W        W99756  27.966  37.785  11.894
31539W        W99757  20.143  19.548   1.723
31540W        W99758  40.797  34.113   1.721
31541W        W99759  12.621  28.592   3.845
31542W        W99760   6.919  20.636   4.377
31543W        W99761  38.331   0.820   3.662
31544W        W99762  11.505  40.481  11.574
31545W        W99763  10.841  17.281   4.594
31546W        W99764  43.769   4.853  11.599
31547W        W99765  16.671  26.467   3.387
31548W        W99766  14.706  36.312  14.211
31549W        W99767  26.241  23.884  12.342
31550W        W99768  14.818  29.558   0.667
31551W        W99769  38.809  32.465  14.304
31552W        W99770  22.254   5.925   1.188
31553W        W99771   5.279  26.594   2.401
31554W        W99772  16.578  43.891  10.641
31555W        W99773  31.993  41.930  14.405
31556W        W99774  28.051   6.419   4.920
31557W        W99775  38.910  41.001  11.774
31558W        W99776   3.632  28.466   0.995
31559W        W99777   2.740  17.882  10.812
31560W        W99778  17.537  32.384  14.902
31561W        W99779  15.161  41.792  14.412
31562W        W99780   2.666  40.987  12.551
31563W        W99781   0.790  12.375  12.082
31564W        W99782  28.471  29.401   2.602
31565W        W99783  41.384  20.229   0.752
31566W        W99784   5.361  32.587  11.544
31567W        W99785  12.111   7.472   1.433
31568W        W99786  21.772   3.388  14.758
31569W        W99787  15.567  11.764   5.004
31570W        W99788   3.341  38.479  14.687
31571W        W99789  32.089  12.541  10.267
31572W        W99790  30.548  42.282   0.813
31573W        W99791   2.899  12.131  13.618
31574W        W99792   7.409  39.096  14.338
31575W        W99793  21.833  29.848  13.976
31576W        W99794   0.304  11.313  11.562
31577W        W99795  37.592  41.209  10.801
31578W        W99796  44.698  28.541   4.604
31579W        W99797  22.502   0.885   4.504
31580W        W99798  26.605  39.211  14.336
31581W        W99799  14.082  22.756   0.885
31582W        W99800  32.011  29.515   2.132
31583W        W99801  39.819  25.632   0.330
31584W        W99802  42.437   3.455  14.852
31585W        W99803   9.862  13.636   3.174
31586W        W99804  43.377  23.248  14.974
31587W        W99805  39.522  11.199   2.187
31588W        W99806   9.756  37.660  11.667
31589W        W99807  14.005  43.184  10.315
31590W        W99808  40.046  41.335   0.321
31591W        W99809  38.945  40.392   2.299
31592W        W99810  30.747  32.953  13.551
31593W        W99811  16.586  13.329   2.878
31594W        W99812  17.396  17.553  13.598
31595W        W99813  14.156  12.594  10.473
31596W        W99814   1.479   5.455   2.176
31597W        W99815  32.560  21.400  13.851
31598W        W99816  22.046  28.601  12.964
31599W        W99817  39.613  11.401   2.657
31600W        W99818   8.407  14.975   2.347
31601W        W99819   2.460  11.788  12.158
31602W        W99820  26.734  25.575   0.410
31603W        W99821  24.778  15.038   1.710
31604W        W99822  27.880  32.648  12.902
31605W        W99823  25.584   7.490  13.142
31606W        W99824  28.869  23.517   0.952
31607W        W99825  34.028  23.244  12.010
31608W        W99826  23.668   4.390  10.754
31609W        W99827   8.280   3.118  12.029
31610W        W99828  44.270   5.368   4.064
31611W        W99829   7.344  24.100   0.730
31612W        W99830  42.487  32.134  14.325
31613W        W99831  29.544  23.063   9.968
31614W        W99832  32.077  26.854   3.987
31615W        W99833  37.069  11.126  13.752
31616W        W99834  27.171  27.540  13.803
31617W        W99835  17.777  32.953  12.578
31618W        W99836   1.672  41.461   2.941
31619W        W99837  28.348  43.709  11.949
31620W        W99838  24.099  11.775   4.223
31621W        W99839  22.713  27.016  14.280
31622W        W99840  39.869   5.932   4.017
31623W        W99841  14.506  25.733  12.455
31624W        W99842   2.555   4.325   1.770
31625W        W99843  10.895   8.344  13.417
31626W        W99844  44.959  19.328  14.605
31627W        W99845  18.717   1.002   3.021
31628W        W99846  34.145  31.636   4.202
31629W        W99847   9.281  10.186  11.872
31630W        W99848  43.783  38.507  13.807
31631W        W99849  36.958  33.392  13.464
31632W        W99850  18.594  43.296  11.989
31633W        W99851  32.104  11.773  11.376
31634W        W99852  11.324  33.273   4.013
31635W        W99853  17.636  38.949  11.043
31636W        W99854  43.077  43.562   3.715
31637W        W99855  35.358  31.146  11.670
31638W        W99856  17.694   1.772  12.669
31639W        W99857  40.091  31.628   4.748
31640W        W99858  43.972  12.833  13.403
31641W        W99859   8.608  42.050   3.195
31642W        W99860  12.741  38.275   1.945
31643W        W99861  43.606  18.959   3.261
31644W        W99862  36.975  42.566  10.648
31645W        W99863  40.513  44.479  13.398
31646W        W99864  35.326  32.090   1.852
31647W        W99865   5.205  19.033  13.498
31648W        W99866   1.489  25.067   0.748
31649W        W99867  38.955  37.938   1.756
31650W        W99868   4.651  32.903  13.374
31651W        W99869  40.490  29.057  12.141
31652W        W99870  39.830  10.937  12.095
31653W        W99871  16.852  32.447  11.383
31654W        W99872  42.395  24.661   3.637
31655W        W99873  44.775   9.509  10.792
31656W        W99874   5.679  41.846   0.401
31657W        W99875  37.842  23.767   1.930
31658W        W99876  12.922   4.685  13.431
31659W        W99877   9.417  19.931   1.225
31660W        W99878   3.970   6.575  13.998
31661W        W99879  39.350  18.638   0.271
31662W        W99880  42.916  44.279  13.022
31663W        W99881  33.861  30.585   0.917
31664W        W99882  37.998  35.005  13.402
31665W        W99883  40.771  18.214   1.335
31666W        W99884  31.263  40.203  11.576
31667W        W99885  27.541  11.109  13.053
31668W        W99886   2.887  21.703   4.803
31669W        W99887   6.896  38.595  12.219
31670W        W99888  10.761   9.258  12.183
31671W        W99889   0.388  40.832   2.755
31672W        W99890  21.655  37.044   0.042
31673W        W99891  19.549  10.745   4.608
31674W        W99892  37.935   9.764  14.764
31675W        W99893  32.166  43.562   1.086
31676W        W99894   4.718  40.596   1.850
31677W        W99895  16.083   3.449   2.222
31678W        W99896  20.073  39.551   3.692
31679W        W99897  10.601  42.791   3.314
31680W        W99898  37.560  43.689  12.896
31681W        W99899  42.010  25.920  14.498
31682W        W99900   4.310  16.599  13.576
31683W        W99901  41.676  14.212  14.830
31684W        W99902  21.099  38.483  11.890
31685W        W99903  34.797  10.081  14.966
31686W        W99904  20.669  14.110   4.556
31687W        W99905  32.126  19.211  10.651
31688W        W99906  27.888  17.861   3.242
31689W        W99907   4.365  17.515  11.051
31690W        W99908  31.589  43.577   2.018
31691W        W99909  20.988  20.401  12.323
31692W        W99910  11.896  44.420  14.162
31693W        W99911   7.804  33.792  13.580
31694W        W99912   8.483  22.374   1.192
31695W        W99913  13.782  16.730  12.550
31696W        W99914  20.755  21.473  14.459
31697W        W99915  22.862   6.113  11.613
31698W        W99916  39.506  25.040  11.930
31699W        W99917  17.604   7.933   2.467
31700W        W99918  32.034  35.607   1.634
31701W        W99919  12.634  36.822   1.753
31702W        W99920  28.092  17.826   4.137
31703W        W99921  34.976  12.517  14.534
31704W        W99922  36.647  21.183  12.514
31705W        W99923  32.146  10.112   0.340
31706W        W99924   4.444   1.584   4.263
31707W        W99925  20.344  19.056   3.741
31708W        W99926   3.714  15.662  14.310
31709W        W99927   8.891  26.588  12.497
31710W        W99928  27.705  10.623  11.570
31711W        W99929  12.400   5.291   0.146
31712W        W99930  23.206  44.375  10.666
31713W        W99931   7.356  43.343  11.941
31714W        W99932  20.879  34.295  12.553
31715W        W99933  28.254  13.007   0.076
31716W        W99934   2.879  20.283  12.938
31717W        W99935  18.795  29.076   4.802
31718W        W99936   6.708  19.227   1.177
31719W        W99937  28.578   7.754   3.585
31720W        W99938   3.331  38.647   2.821
31721W        W99939   2.533  36.026  14.528
31722W        W99940  18.729  39.792  10.635
31723W        W99941   8.330  38.412  14.963
31724W        W99942  25.581  33.064   1.275
31725W        W99943  34.084   6.862   1.366
31726W        W99944  29.670  20.288  13.972
31727W        W99945  14.081   3.773  10.697
31728W        W99946  38.855  37.283   1.400
31729W        W99947  15.645   6.197  10.738
31730W        W99948  42.202  16.152  14.521
31731W        W99949  28.536  12.795  13.577
31732W        W99950   7.402  32.710  12.510
31733W        W99951   8.997   4.385   0.851
31734W        W99952   9.665  39.039   3.553
31735W        W99953  25.480  28.644  10.708
31736W        W99954  31.047   8.459   4.705
31737W        W99955  44.344  11.365  12.521
31738W        W99956  38.643   1.996  14.375
31739W        W99957   7.910  40.440   3.477
31740W        W99958   1.955  39.386  13.358
31741W        W99959   1.471   0.783   3.377
31742W        W99960  31.153  43.693  12.619
31743W        W99961  18.039   7.224  14.870
31744W        W99962   6.019   8.795   3.174
31745W        W99963  30.035  29.689   3.220
31746W        W99964  35.103  31.289   4.490
31747W        W99965  36.956  14.148   2.236
31748W        W99966  17.124  33.179  12.356
31749W        W99967  42.972  14.777  14.223
31750W        W99968  33.098   3.476   1.311
31751W        W99969  32.480  10.328   1.402
31752W        W99970  32.055  39.866   0.879
31753W        W99971  14.600  20.438  12.577
31754W        W99972   3.999  12.837   0.308
31755W        W99973  30.366  16.183   4.799
31756W        W99974   2.930  11.501   4.643
31757W        W99975  30.495  33.487   5.012
31758W        W99976  33.474  42.352  10.330
31759W        W99977  43.803   9.307   0.999
31760W        W99978  11.240   8.037  11.044
31761W        W99979  37.532  27.116   2.349
31762W        W99980  19.817  36.542   4.191
31763W        W99981   9.130  19.665   4.557
31764W        W99982  23.532   9.170  12.846
31765W        W99983  43.502  34.504  11.114
31766W        W99984  15.631  37.074   2.314
31767W        W99985   9.184  20.628   2.321
31768W        W99986  24.582   0.356  14.858
31769W        W99987  18.727  29.883  13.423
31770W        W99988  16.091  30.633  13.521
31771W        W99989  36.580  24.120  10.647
31772W        W99990  20.518  26.834   4.041
31773W        W99991   1.911  19.529   3.214
31774W        W99992  20.717  11.452   1.296
31775W        W99993  32.875  30.935   3.322
31776W        W99994  19.549  23.749  14.818
31777W        W99995  24.089   3.526  10.746
31778W        W99996   3.158  19.104  13.952
31779W        W99997  18.160  29.591  10.609
31780W        W99998  41.481   9.129   2.795
31781W        W99999  12.159   0.418   4.583
31782W        W    0  32.038   1.777   4.529
31783W        W    1   5.614   5.950   4.116
31784W        W    2  19.856  32.674   4.179
31785W        W    3  32.513   3.796   3.732
31786W        W    4  19.973  22.310  12.877
31787W        W    5  15.118  44.446  14.966
31788W        W    6  25.945  39.988  10.635
31789W        W    7   8.403  41.126  10.003
31790W        W    8  29.959   6.428   1.811
31791W        W    9  26.635   1.144   3.780
31792W        W   10  43.881  30.042   1.393
31793W        W   11  39.687  29.161   2.296
31794W        W   12  23.743  38.836   0.499
31795W        W   13  26.695  36.189   2.019
31796W        W   14   0.539   5.688   1.659
31797W        W   15  12.652   2.230   2.776
31798W        W   16  26.969  14.811   0.426
31799W        W   17  30.217  18.560  12.342
31800W        W   18  23.276  43.843   1.320
31801W        W   19   0.860   2.741  10.762
31802W        W   20  41.285   5.869   4.163
31803W        W   21  33.547  24.213  11.011
31804W        W   22  12.225  13.350   1.675
31805W        W   23  20.153  44.869   4.605
31806W        W   24  35.661   5.309  14.386
31807W        W   25  29.942   2.938   3.701
31808W        W   26  30.586   6.824  12.934
31809W        W   27   6.981  21.664   1.939
31810W        W   28  27.976   2.366  14.405
31811W        W   29   8.295  10.677  14.821
31812W        W   30  32.532  40.811   0.816
31813W        W   31  28.060  33.438   0.780
31814W        W   32  36.510  41.580   4.392
31815W        W   33   5.429  15.415   0.383
31816W        W   34  26.183  28.449   1.772
31817W        W   35  15.171   8.824   3.073
31818W        W   36  28.472  30.093   1.850
31819W        W   37  43.214   6.188   4.234
31820W        W   38  32.639  36.708  12.341
31821W        W   39  37.322   7.079  11.646
31822W        W   40  18.995  14.126  14.608
31823W        W   41  36.363  26.789   4.020
31824W        W   42  31.106   5.944   3.622
31825W        W   43  34.324  31.612  14.986
31826W        W   44  16.420  41.315  11.168
31827W        W   45  25.095   8.715   3.174
31828W        W   46  39.783  15.803  11.045
31829W        W   47   2.551  41.781  11.171
31830W        W   48   3.514   6.938   2.798
31831W        W   49  17.264  32.217  12.485
31832W        W   50  37.316  40.059   2.149
31833W        W   51   3.905  41.120   4.161
31834W        W   52  21.675  10.301  13.493
31835W        W   53  33.006  34.222  14.377
31836W        W   54   2.068   5.257  14.875
31837W        W   55  17.048   9.337   3.201
31838W        W   56   9.743   8.772   5.011
31839W        W   57  36.444  22.701   0.822
31840W        W   58  26.969  34.451  13.184
31841W        W   59  31.020  13.840   3.997
31842W        W   60   7.183  32.872   2.789
31843W        W   61   8.855  23.422   3.777
31844W        W   62  20.014  36.099  12.345
31845W        W   63  42.310  33.811  11.094
31846W        W   64   9.177   4.884  13.998
31847W        W   65  36.106   6.373   4.151
31848W        W   66  11.547   2.943   4.888
31849W        W   67   3.598   6.645  13.522
31850W        W   68   4.634  27.628  13.135
31851W        W   69  36.028  43.326  10.762
31852W        W   70  41.410  18.061   1.958
31853W        W   71  14.992  44.794   4.125
31854W        W   72  16.091  10.551  14.374
31855W        W   73  29.851   3.168   2.353
31856W        W   74   1.905  26.487   2.982
31857W        W   75  10.625  43.951  11.550
31858W        W   76  42.053  32.580  11.485
31859W        W   77  19.079  41.408   2.337
31860W        W   78  25.170  28.390   0.760
31861W        W   79  42.010  44.160   1.200
31862W        W   80  19.579  15.272   1.494
31863W        W   81  24.735  10.661   0.482
31864W        W   82   3.318  20.466   2.836
31865W        W   83  36.420   7.888  13.323
31866W        W   84  21.751  10.976  11.195
31867W        W   85  19.969  32.665   0.374
31868W        W   86  17.373  13.905  12.538
31869W        W   87  40.817  37.494  11.964
31870W        W   88  29.613  30.555  13.393
31871W        W   89  24.814  43.890   2.466
31872W        W   90  39.168  31.142   1.548
31873W        W   91   1.652  15.194  12.497
31874W        W   92  26.405   0.361   4.192
31875W        W   93  38.721  34.407   3.727
31876W        W   94  10.714  24.435  11.393
31877W        W   95  44.866  31.555  13.407
31878W        W   96  23.203  10.436   4.145
31879W        W   97  18.630   6.974  13.932
31880W        W   98   0.264   6.208  11.429
31881W        W   99  35.129  18.125   2.887
31882W        W  100  17.097  37.724  12.173
31883W        W  101  15.760  15.111  12.539
31884W        W  102  27.653  15.305  12.429
31885W        W  103  32.026   9.971  14.351
31886W        W  104  28.650  41.389   3.214
31887W        W  105  11.866   6.651  11.535
31888W        W  106  30.434  33.640   4.154
31889W        W  107  37.593  19.280  11.515
31890W        W  108   6.376  32.927  14.932
31891W        W  109  44.789   6.751  14.370
31892W        W  110  11.479  10.245  14.329
31893W        W  111  31.348  42.070  11.557
31894W        W  112   1.988  22.025  12.827
31895W        W  113  39.350   6.506  13.491
31896W        W  114  34.827   1.660   0.208
31897W        W  115   7.311  21.594   4.632
31898W        W  116   4.819   6.667  11.186
31899W        W  117  27.470  29.912   2.822
31900W        W  118  22.798   2.265   4.586
31901W        W  119   2.657  12.689   4.073
31902W        W  120  23.332   9.143  12.360
31903W        W  121  37.872  18.572  12.965
31904W        W  122  30.043  39.541   1.358
31905W        W  123  22.488  27.018   2.343
31906W        W  124  35.280  25.335  12.102
31907W        W  125  35.551  10.000  10.069
31908W        W  126  20.298   4.745   1.803
31909W        W  127  18.574  40.823   0.588
31910W        W  128  41.537   8.646  11.132
31911W        W  129  22.631  39.006   1.900
31912W        W  130  15.318  18.319  11.105
31913W        W  131  13.174  38.163   4.667
31914W        W  132  32.373   4.859   3.644
31915W        W  133  37.091   9.109  13.208
31916W        W  134   7.418  16.134  14.809
31917W        W  135  16.846  11.133   0.146
31918W        W  136   5.979  14.548  10.636
31919W        W  137   1.296   7.023  11.470
31920W        W  138   2.850   6.211   1.957
31921W        W  139  20.174  35.585  11.154
31922W        W  140  39.540  17.050  13.980
31923W        W  141   9.636  20.539   2.752
31924W        W  142   3.777  41.311  10.505
31925W        W  143   6.931   4.819   3.016
31926W        W  144  41.255  39.473  11.168
31927W        W  145   7.334  33.773   4.143
31928W        W  146  10.840  21.074   2.767
31929W        W  147  24.548   2.758  10.537
31930W        W  148  22.693  16.623  14.457
31931W        W  149  26.203  33.829  11.067
31932W        W  150  38.932  36.419  14.374
31933W        W  151  17.754  44.344  10.685
31934W        W  152   2.000  38.463  11.249
31935W        W  153  15.119  15.657   0.953
31936W        W  154   2.055   9.284  13.359
31937W        W  155  38.579  25.021  13.955
31938W        W  156  38.346  20.260   1.941
31939W        W  157  34.453  34.394   4.641
31940W        W  158  12.199  14.261   1.765
31941W        W  159  36.806  40.718   1.609
31942W        W  160  29.963  11.480   0.485
31943W        W  161  36.123  15.100   4.035
31944W        W  162  29.542   7.214  10.721
31945W        W  163  12.742  41.607  12.363
31946W        W  164   6.682   1.938   3.285
31947W        W  165   5.782  11.817   0.010
31948W        W  166   7.610   4.948  11.100
31949W        W  167   7.878  33.920   4.756
31950W        W  168   9.157  41.365  14.586
31951W        W  169  25.446  25.051   3.143
31952W        W  170  20.682  16.240  14.512
31953W        W  171  26.988  22.931   3.719
31954W        W  172  37.244  41.361  12.886
31955W        W  173   0.085  15.102  12.585
31956W        W  174  33.099   5.744   0.009
31957W        W  175  24.701   3.127  12.416
31958W        W  176  26.186   0.634   2.556
31959W        W  177  10.636  20.153  12.877
31960W        W  178  17.170  36.093   3.084
31961W        W  179  21.563  14.436  11.176
31962W        W  180   8.646   2.622   4.323
31963W        W  181  41.071   2.405   9.799
31964W        W  182  29.047  22.965  12.623
31965W        W  183  41.297  40.552   3.613
31966W        W  184  27.913   0.237   4.237
31967W        W  185  15.075  43.934   1.724
31968W        W  186  42.874  10.704  14.522
31969W        W  187   1.876  35.578  12.151
31970W        W  188  32.515  37.424   0.553
31971W        W  189  40.458   8.397  13.080
31972W        W  190  25.011  10.183   4.488
31973W        W  191  11.524  30.413  10.222
31974W        W  192  34.887  16.541   3.325
31975W        W  193  24.188  34.878   3.273
31976W        W  194  25.113  15.823   1.713
31977W        W  195  28.680   8.299  10.419
31978W        W  196  26.749  30.257   4.535
31979W        W  197  43.033  43.257  11.354
31980W        W  198  33.364   4.314   1.789
31981W        W  199  22.036  20.173   4.214
31982W        W  200  34.925  37.430   1.174
31983W        W  201  24.594  14.736   3.578
31984W        W  202   5.722  16.356  11.052
31985W        W  203  20.508  38.029   1.449
31986W        W  204  35.430  10.360   4.081
31987W        W  205  18.291  39.872  10.369
31988W        W  206  22.435   1.235  14.391
31989W        W  207  31.609  20.209  14.901
31990W        W  208   5.323  35.559  14.322
31991W        W  209   5.762  27.126   2.134
31992W        W  210   4.608  32.829   4.007
31993W        W  211  37.228  16.146   2.176
31994W        W  212  21.571   9.760  13.514
31995W        W  213  38.066   6.193   2.027
31996W        W  214  28.083  43.452  13.851
31997W        W  215   3.415  24.540   3.263
31998W        W  216  41.041  28.609  12.448
31999W        W  217  42.217  15.844  13.895
32000W        W  218   5.985  31.179  11.149
32001W        W  219  19.359  27.699  12.978
32002W        W  220   5.551   1.415   0.666
32003W        W  221  25.174  25.524   2.235
32004W        W  222  39.466  37.143  11.159
32005W        W  223  26.610  20.597  10.423
32006W        W  224  41.758  41.262   2.306
32007W        W  225  12.144  15.835  11.910
32008W        W  226  33.194  40.509   1.283
32009W        W  227  23.287  31.672  13.965
32010W        W  228  22.043  37.641   4.668
32011W        W  229  33.078   0.547   4.323
32012W        W  230  35.522  38.442  11.509
32013W        W  231  31.391  15.105  10.605
32014W        W  232   5.896   8.875   4.516
32015W        W  233  34.480   1.031   3.081
32016W        W  234  21.645  32.680  13.461
32017W        W  235  12.190  22.555  10.197
32018W        W  236  23.752  12.249   4.240
32019W        W  237   5.391   3.166   3.225
32020W        W  238  19.399  38.227  11.988
32021W        W  239   2.735  27.771   3.427
32022W        W  240  34.214  15.224   1.968
32023W        W  241  13.768  39.791  10.594
32024W        W  242  28.633  16.430   5.370
32025W        W  243  18.524  19.556   0.837
32026W        W  244  26.084  15.678   4.082
32027W        W  245  27.489  39.260  14.372
32028W        W  246   2.899  19.058   2.846
32029W        W  247   5.761  10.153  13.126
32030W        W  248  30.451  20.179  13.002
32031W        W  249  31.088  21.660  13.963
32032W        W  250   0.525  23.017   0.408
32033W        W  251  41.933  29.918   2.608
32034W        W  252  41.536  13.607  11.463
32035W        W  253  19.200  24.232  10.772
32036W        W  254   7.300  28.563  12.528
32037W        W  255  20.311  22.140  14.812
32038W        W  256  11.767  11.032   1.182
32039W        W  257  37.317  43.843  12.436
32040W        W  258  16.172  20.021   2.453
32041W        W  259  35.287  21.505  12.865
32042W        W  260  31.254   2.984  12.527
32043W        W  261  39.056  35.905  14.386
32044W        W  262  34.482   1.903   3.172
32045W        W  263  31.993   0.717   0.732
32046W        W  264  36.101  14.957   1.418
32047W        W  265   8.154  22.615   1.981
32048W        W  266  42.824  16.017  11.916
32049W        W  267   7.670  37.452   4.187
32050W        W  268  14.230  23.533  13.628
32051W        W  269  32.571  30.461   3.058
32052W        W  270  22.131  28.660   1.696
32053W        W  271  39.364  26.055  10.511
32054W        W  272  32.290   8.836   4.270
32055W        W  273  35.622  22.503  12.057
32056W        W  274  31.673  36.699  10.941
32057W        W  275  20.193  13.251  11.943
32058W        W  276  36.465  18.000   1.559
32059W        W  277  17.567  22.097  11.470
32060W        W  278  32.696  30.534   5.129
32061W        W  279  18.219  20.926  12.544
32062W        W  280   1.694  36.433  13.587
32063W        W  281   6.643  29.663  12.979
32064W        W  282  12.318  40.941  14.055
32065W        W  283  35.037   9.700  12.007
32066W        W  284  15.731  16.183  11.658
32067W        W  285  41.314  43.279  13.885
32068W        W  286  30.068   4.934   1.084
32069W        W  287  16.272   8.836  11.652
32070W        W  288  34.640  29.625  10.602
32071W        W  289  32.905  39.847   2.774
32072W        W  290  42.524  36.900   2.234
32073W        W  291  19.105  29.098   3.916
32074W        W  292  18.984   1.856   0.223
32075W        W  293   6.670   3.616   4.547
32076W        W  294   1.203  23.064   3.180
32077W        W  295  18.166  17.723  10.880
32078W        W  296  30.663   5.938  12.533
32079W        W  297  23.660   8.703   1.737
32080W        W  298  16.491   7.698   1.890
32081W        W  299  34.400  34.845   0.830
32082W        W  300  12.443  39.447  11.200
32083W        W  301   0.187  20.226  12.490
32084W        W  302  24.446   8.136  12.826
32085W        W  303  10.201   3.473  10.647
32086W        W  304   1.220  44.951  11.452
32087W        W  305   9.857  23.766   2.788
32088W        W  306  44.270  25.413   0.831
32089W        W  307  35.669  26.262  12.036
32090W        W  308  35.349  20.729  13.384
32091W        W  309  34.378  19.164   0.830
32092W        W  310  23.642   6.756  11.696
32093W        W  311  15.700  35.895  13.122
32094W        W  312   1.336   3.031  10.707
32095W        W  313   1.836  44.427  10.825
32096W        W  314  20.662  11.229   1.849
32097W        W  315  35.695  33.987  14.076
32098W        W  316   4.407  15.102   2.836
32099W        W  317   3.806  12.565  11.583
32100W        W  318  41.068  32.735   3.645
32101W        W  319  24.974  31.877  14.416
32102W        W  320  14.231   7.111  12.094
32103W        W  321  42.364  20.060   2.304
32104W        W  322  44.526  11.637  11.799
32105W        W  323  36.275   4.724  13.898
32106W        W  324  41.354   1.512   0.663
32107W        W  325  10.735  21.546  12.556
32108W        W  326  32.870  44.345  14.375
32109W        W  327  13.127  22.439   0.765
32110W        W  328  25.460  36.942   1.923
32111W        W  329   5.329  27.347  13.855
32112W        W  330  27.467  21.103  10.876
32113W        W  331  37.118  32.040   3.682
32114W        W  332  28.719  39.370   3.690
32115W        W  333  35.019  14.320  12.871
32116W        W  334   9.883  42.507  13.364
32117W        W  335  26.180  15.460  14.502
32118W        W  336   2.790   0.876   3.047
32119W        W  337  16.780  44.904   2.911
32120W        W  338  15.785  15.862  10.616
32121W        W  339  12.719  12.812   0.378
32122W        W  340  40.829  29.701  14.357
32123W        W  341  17.455  21.022   0.519
32124W        W  342  22.251  27.961  13.945
32125W        W  343   8.386  24.772   2.891
32126W        W  344   7.316  12.816   4.571
32127W        W  345  18.110  27.183  12.437
32128W        W  346  35.087  29.341  10.265
32129W        W  347  43.520   8.537   3.211
32130W        W  348  23.065  32.699   1.738
32131W        W  349   7.703  10.889  11.147
32132W        W  350  24.358  35.989  10.179
32133W        W  351  35.819   1.937   1.469
32134W        W  352   2.346  15.931   5.086
32135W        W  353  36.384  37.818  10.752
32136W        W  354   4.404  13.216   0.129
32137W        W  355  42.504  19.766  13.366
32138W        W  356  21.034   4.989  12.864
32139W        W  357   3.144  16.623   4.729
32140W        W  358  30.628   0.020   3.796
32141W        W  359  43.566  25.417   0.215
32142W        W  360  13.149  41.256  13.952
32143W        W  361   9.072  26.165  11.940
32144W        W  362  14.476   8.627  10.404
32145W        W  363  10.718  29.594   1.074
32146W        W  364  11.310  14.644   3.344
32147W        W  365   1.853  33.535   1.947
32148W        W  366  42.517  39.426   0.885
32149W        W  367  35.341  11.349  12.528
32150W        W  368  28.418  27.029  12.041
32151W        W  369   2.767  35.393   3.193
32152W        W  370  14.385  10.899  14.758
32153W        W  371  20.049  29.711  13.067
32154W        W  372  33.008  18.593   4.354
32155W        W  373  26.530  21.546   5.363
32156W        W  374  20.430  15.095   0.912
32157W        W  375  17.007  27.527  10.995
32158W        W  376  20.611   2.466  12.982
32159W        W  377   2.334  24.750   3.317
32160W        W  378  36.011  41.134   3.618
32161W        W  379  36.503   9.793  14.765
32162W        W  380  34.491  29.097   1.299
32163W        W  381  34.561  38.294  13.566
32164W        W  382  19.404  43.806  10.541
32165W        W  383  27.582  22.852   4.158
32166W        W  384  43.515  32.705   0.857
32167W        W  385   3.472   3.277  12.841
32168W        W  386  22.268  28.929  10.768
32169W        W  387   5.308   5.295   1.163
32170W        W  388  34.935  23.269  14.377
32171W        W  389  39.990  14.312  10.956
32172W        W  390   5.977  14.139  14.899
32173W        W  391  18.705  40.030   4.447
32174W        W  392   3.186  20.055   3.665
32175W        W  393  10.367  24.701  11.660
32176W        W  394  26.842   5.936  10.994
32177W        W  395  40.118  13.367   3.837
32178W        W  396  31.877  26.072   1.624
32179W        W  397  12.643  30.599  14.961
32180W        W  398  22.246   7.177  12.024
32181W        W  399  23.116   1.835  14.281
32182W        W  400  18.033   5.425   2.288
32183W        W  401  10.591  33.500   1.436
32184W        W  402  22.738  32.165   2.196
32185W        W  403  22.218  33.984   3.849
32186W        W  404   8.890  35.387  12.413
32187W        W  405  14.043  34.974  14.960
32188W        W  406  31.133  22.836   1.273
32189W        W  407  10.796  34.093   0.494
32190W        W  408  13.618  29.089  11.753
32191W        W  409   5.735  31.899  13.446
32192W        W  410  16.545  10.775  13.388
32193W        W  411  20.997  21.362   1.192
32194W        W  412  29.509  19.582   1.682
32195W        W  413  10.393  30.410   2.721
32196W        W  414  10.310  18.769   5.092
32197W        W  415  17.022   1.403   2.584
32198W        W  416  37.594  39.966  11.208
32199W        W  417  39.496   9.468  13.436
32200W        W  418  10.240   6.025   4.550
32201W        W  419   4.342   0.233   0.854
32202W        W  420   3.319  24.782  12.015
32203W        W  421  37.118  32.387  13.304
32204W        W  422  19.675  41.593   3.292
32205W        W  423  18.044  23.494  11.663
32206W        W  424  21.617  36.164   5.436
32207W        W  425  19.988  35.022  12.893
32208W        W  426  24.479  15.768  13.832
32209W        W  427  26.636  10.839   0.069
32210W        W  428  18.749   8.309  11.459
32211W        W  429  16.622  40.915   1.831
32212W        W  430  39.374  33.138   4.226
32213W        W  431  40.672   3.760   3.005
32214W        W  432  39.762  19.569   2.391
32215W        W  433  26.683  13.285   4.467
32216W        W  434  18.378  27.673  13.027
32217W        W  435  22.073  10.812   4.718
32218W        W  436  27.145  37.955  14.396
32219W        W  437  15.865  34.409  12.515
32220W        W  438  37.116  33.450   2.829
32221W        W  439  19.219  10.602   3.727
32222W        W  440  18.229   5.785   0.323
32223W        W  441   9.768   2.981   2.598
32224W        W  442  43.535  30.424   2.881
32225W        W  443  16.127  31.859   0.771
32226W        W  444  10.780  18.629   4.447
32227W        W  445   1.291   9.376   3.719
32228W        W  446  24.592  23.139   1.301
32229W        W  447  11.140  21.791   4.152
32230W        W  448  21.718  20.613   0.002
32231W        W  449  14.922  22.058   2.914
32232W        W  450   8.427  13.362   3.200
32233W        W  451  13.361  27.654  13.938
32234W        W  452   4.791   7.379   0.678
32235W        W  453   1.447   8.638   4.707
32236W        W  454  40.951   2.794   3.126
32237W        W  455  22.348  12.115  14.377
32238W        W  456  24.525  11.457  12.487
32239W        W  457  27.449  12.041  11.383
32240W        W  458  13.150  29.985   4.898
32241W        W  459  21.270   6.797   1.908
32242W        W  460  19.498   6.313   1.436
32243W        W  461  41.072  35.537   3.114
32244W        W  462  42.761  25.989  10.988
32245W        W  463  37.372  40.992   3.461
32246W        W  464   4.817  13.814   4.932
32247W        W  465  32.417  24.125  14.021
32248W        W  466  38.947   2.194   0.609
32249W        W  467   8.767  13.611   1.352
32250W        W  468  13.150  23.162   4.685
32251W        W  469  36.159  37.118   0.492
32252W        W  470  34.361  38.780   0.410
32253W        W  471  40.335  35.976   2.435
32254W        W  472  29.988   5.577   1.863
32255W        W  473  23.391  37.021   5.216
32256W        W  474  19.378   6.078  10.738
32257W        W  475  18.473  21.540   2.665
32258W        W  476  35.045  44.230   1.765
32259W        W  477   6.742  36.481   0.479
32260W        W  478  44.315   9.671  11.503
32261W        W  479   4.900  32.437   1.015
32262W        W  480   9.931  35.035  12.979
32263W        W  481   9.865  18.159  13.460
32264W        W  482  37.455   2.439  14.547
32265W        W  483  13.895  11.137   3.167
32266W        W  484  43.290   3.615  13.903
32267W        W  485  23.678  29.655   1.450
32268W        W  486   6.520  11.857   3.586
32269W        W  487  31.184  26.735  10.747
32270W        W  488  34.903  18.137  13.518
32271W        W  489  25.500  39.982   2.683
32272W        W  490   9.874  24.607   0.821
32273W        W  491  15.283   5.610   0.976
32274W        W  492  35.157  24.633   1.127
32275W        W  493  15.483  31.481   4.114
32276W        W  494  26.899   7.123  12.256
32277W        W  495  36.379  43.909   2.108
32278W        W  496  30.387   5.390  14.988
32279W        W  497   0.585  35.821   4.132
32280W        W  498  33.724  12.757   0.028
32281W        W  499  43.067  34.456  13.734
32282W        W  500   1.722  29.363   3.239
32283W        W  501   1.261  36.155  12.784
32284W        W  502   7.860  16.369  13.089
32285W        W  503  30.901   5.427   3.638
32286W        W  504  26.917  23.698   1.252
32287W        W  505  10.779  18.096   2.592
32288W        W  506   7.663  25.258   4.531
32289W        W  507   5.605  23.053  11.127
32290W        W  508  24.680  39.739  11.128
32291W        W  509   5.765  29.956   3.766
32292W        W  510  37.119  38.535   1.354
32293W        W  511  27.911  25.498   3.718
32294W        W  512   0.512  21.179  14.439
32295W        W  513   6.048  15.640   2.973
32296W        W  514  39.368  37.191   5.211
32297W        W  515  36.910  10.442   3.181
32298W        W  516  18.720  42.113   2.502
32299W        W  517  21.865   0.801  14.054
32300W        W  518  43.467  18.558  14.545
32301W        W  519  40.414  32.486  12.111
32302W        W  520   9.467  30.749   0.618
32303W        W  521   1.889   0.807  11.378
32304W        W  522  25.159  20.761  11.570
32305W        W  523  33.934  21.351  12.941
32306W        W  524  14.701  22.732  11.146
32307W        W  525  42.925   2.994  12.235
32308W        W  526  33.471  20.779  13.490
32309W        W  527  23.718   9.196   4.161
32310W        W  528  22.543  17.501  10.745
32311W        W  529  24.273  44.934   1.214
32312W        W  530  34.910  34.625   1.906
32313W        W  531  30.168  42.574   3.223
32314W        W  532  17.570  12.437   0.709
32315W        W  533  43.242  21.605  14.282
32316W        W  534  25.368   8.301   3.726
32317W        W  535   5.965  30.553  14.021
32318W        W  536  12.926  21.263   0.536
32319W        W  537  36.087  17.684  13.913
32320W        W  538   3.912  32.445  12.107
32321W        W  539  20.417   8.595  12.052
32322W        W  540  18.515  32.025  12.998
32323W        W  541  34.014   1.663  13.536
32324W        W  542  14.427  21.133   4.914
32325W        W  543  43.750  38.294  11.058
32326W        W  544  42.608  33.530   1.718
32327W        W  545  35.898   3.963  14.927
32328W        W  546  18.837   9.566  12.336
32329W        W  547   2.295  19.984   4.712
32330W        W  548  33.897  32.050  13.903
32331W        W  549  21.036  33.899  12.887
32332W        W  550   7.893  40.037   4.891
32333W        W  551  43.216  31.628   1.099
32334W        W  552  15.376  34.029   1.728
32335W        W  553  35.808  35.407  12.865
32336W        W  554  14.155  31.597  12.480
32337W        W  555  36.823   5.370  11.607
32338W        W  556  31.454  27.456  12.454
32339W        W  557   4.692  37.133  10.348
32340W        W  558  26.491  26.596  11.639
32341W        W  559  28.519   2.348   1.214
32342W        W  560   8.753   6.334  13.628
32343W        W  561  27.001  26.794  11.948
32344W        W  562  31.886   0.803  13.951
32345W        W  563   1.234  28.298  12.854
32346W        W  564  17.173  27.022   0.266
32347W        W  565   1.395  20.075   4.559
32348W        W  566  22.143   0.083   0.986
32349W        W  567  38.136   0.292  10.307
32350W        W  568  20.139  23.522  11.578
32351W        W  569   0.761   5.201   2.427
32352W        W  570  37.154   5.348   0.905
32353W        W  571  31.868  11.318  11.188
32354W        W  572  38.027  44.620  11.550
32355W        W  573   7.195  35.451  12.889
32356W        W  574   0.797  42.234   0.547
32357W        W  575  30.034  38.306  11.113
32358W        W  576   1.996  17.023  14.341
32359W        W  577  39.345  42.405   1.216
32360W        W  578   5.723  39.101  12.026
32361W        W  579  11.413  22.001   0.873
32362W        W  580  29.059  29.986  14.927
32363W        W  581  36.340  37.725   0.923
32364W        W  582  31.201  38.996  10.568
32365W        W  583   1.228  39.870   0.712
32366W        W  584  20.769  41.987  14.563
32367W        W  585  43.987  19.258  11.907
32368W        W  586  41.014   0.342   0.442
32369W        W  587  24.766   8.097   2.880
32370W        W  588  37.869  26.004  12.484
32371W        W  589  41.767  37.797  14.371
32372W        W  590   9.155  27.705   0.053
32373W        W  591  21.799  18.648   2.137
32374W        W  592  26.307  29.716  11.999
32375W        W  593  40.422  42.392   1.414
32376W        W  594  35.387   9.804  12.935
32377W        W  595  38.594  28.075  12.947
32378W        W  596  37.602   7.691   0.364
32379W        W  597  29.511  13.684   4.535
32380W        W  598   5.347  31.151   1.188
32381W        W  599  33.663  34.937  11.483
32382W        W  600  30.039  42.842  11.525
32383W        W  601  37.431  25.537  11.155
32384W        W  602  41.105  19.015   3.659
32385W        W  603  18.088  15.254   4.669
32386W        W  604  26.985   3.749   3.339
32387W        W  605  10.254   1.327  12.537
32388W        W  606   9.640   1.490  13.462
32389W        W  607  32.379  32.014  13.023
32390W        W  608  13.115  35.746  11.231
32391W        W  609  33.997  29.889  11.362
32392W        W  610  12.619   3.009  10.729
32393W        W  611  13.315  17.615  11.515
32394W        W  612  30.470  43.750   3.225
32395W        W  613  18.685  28.989   2.469
32396W        W  614  25.617   0.245  13.491
32397W        W  615  43.012  39.875   2.694
32398W        W  616   7.444  42.428   2.235
32399W        W  617  16.693  33.404   4.612
32400W        W  618  43.905  18.049  12.444
32401W        W  619   7.151  30.942  12.113
32402W        W  620  33.613   5.830   3.892
32403W        W  621   3.347  15.892  10.702
32404W        W  622   8.419  13.343  11.649
32405W        W  623   9.822  17.605   0.656
32406W        W  624  14.409   2.108   3.697
32407W        W  625  17.641   1.497   2.195
32408W        W  626  36.536   6.720   3.284
32409W        W  627  28.061   2.987   4.066
32410W        W  628   3.689  15.635   4.475
32411W        W  629  26.051   2.842   1.136
32412W        W  630  18.249  12.655  14.382
32413W        W  631  24.963  43.107  11.140
32414W        W  632  39.780  42.335  12.946
32415W        W  633   1.243  10.196  13.283
32416W        W  634  17.723   5.943   2.304
32417W        W  635  10.606  32.834  12.618
32418W        W  636  31.756  32.133  12.598
32419W        W  637  43.346  21.125  12.958
32420W        W  638   6.251  39.823  14.876
32421W        W  639   0.956   3.409   1.360
32422W        W  640  12.688  30.539  13.546
32423W        W  641  42.997  33.305   3.089
32424W        W  642  23.939  42.981   4.235
32425W        W  643  43.536  39.457  10.865
32426W        W  644  41.924   7.529  10.743
32427W        W  645  10.656  40.882  10.750
32428W        W  646  39.588  40.389  10.660
32429W        W  647  27.178  30.201   3.257
32430W        W  648  29.006  21.678  14.374
32431W        W  649  17.107  44.240   3.256
32432W        W  650  38.941  40.515  11.958
32433W        W  651  37.811  23.859   4.790
32434W        W  652  13.221  10.155   4.211
32435W        W  653  14.311  18.190  14.927
32436W        W  654  31.523  27.604   4.326
32437W        W  655  21.857  27.138   1.823
32438W        W  656  38.554  15.676  10.971
32439W        W  657  35.353   2.323  10.990
32440W        W  658  22.017  29.381  13.960
32441W        W  659   0.010  33.743   2.809
32442W        W  660  25.570  29.442   2.748
32443W        W  661   5.238  38.420   1.175
32444W        W  662  11.193  26.279  12.736
32445W        W  663   1.752   8.888  11.608
32446W        W  664  29.051  14.811  12.670
32447W        W  665  31.066   0.948   3.401
32448W        W  666  41.777  37.354   3.285
32449W        W  667  40.324  11.181   1.336
32450W        W  668  10.865  36.044  13.589
32451W        W  669  30.642  44.792   1.939
32452W        W  670  41.241   1.238   0.224
32453W        W  671  32.545  43.892   1.842
32454W        W  672  11.847  41.016  13.803
32455W        W  673  27.787   8.735   2.720
32456W        W  674  38.742   3.305  10.769
32457W        W  675  32.519  44.840   0.423
32458W        W  676   6.623  26.477  10.808
32459W        W  677  44.079  15.459  12.373
32460W        W  678  18.755   7.959  14.926
32461W        W  679  18.993  38.764   1.778
32462W        W  680  23.264  13.595  14.405
32463W        W  681  25.650  19.205  13.591
32464W        W  682   8.311  30.931  14.355
32465W        W  683  29.432  19.142  11.975
32466W        W  684  31.567  37.984   2.219
32467W        W  685  15.197  23.198  11.463
32468W        W  686  24.169  10.608   1.335
32469W        W  687  18.957   3.376   2.187
32470W        W  688  39.868   9.691   1.151
32471W        W  689  14.436  15.730   2.843
32472W        W  690  35.749  17.678   1.896
32473W        W  691  21.385  27.317   1.780
32474W        W  692  16.268  29.174   2.842
32475W        W  693   5.895  15.557  14.357
32476W        W  694  27.177  27.640  11.023
32477W        W  695  32.058  37.102   5.044
32478W        W  696   7.948  42.705  10.652
32479W        W  697  39.083  16.845   3.689
32480W        W  698   3.775   2.717  12.495
32481W        W  699  21.547  11.412   1.710
32482W        W  700  33.652   7.166  13.654
32483W        W  701  13.278  14.782  13.389
32484W        W  702  39.100   1.439  13.010
32485W        W  703   3.056  17.163   2.118
32486W        W  704  44.030  19.368   3.283
32487W        W  705  36.301   7.610  11.158
32488W        W  706  25.176  19.512  10.658
32489W        W  707  20.023   4.690  14.252
32490W        W  708   6.606  29.876  13.472
32491W        W  709  40.191  37.987   0.435
32492W        W  710  40.591   7.222  12.477
32493W        W  711  23.591  36.794  11.565
32494W        W  712  25.487  36.973   3.233
32495W        W  713  21.367  36.257   9.762
32496W        W  714  30.698  26.956   0.400
32497W        W  715  37.296  23.207   0.168
32498W        W  716  38.582  18.553  12.528
32499W        W  717  29.173   6.332   1.934
32500W        W  718  32.350   5.322   2.718
32501W        W  719  29.998  37.272  11.217
32502W        W  720   2.477  25.686  10.737
32503W        W  721  41.743   4.273  11.138
32504W        W  722  10.127  14.708  14.429
32505W        W  723   2.873  22.979   3.338
32506W        W  724  22.613  37.783  14.498
32507W        W  725  11.950   8.169  13.398
32508W        W  726  31.383  35.289  11.104
32509W        W  727  29.840  23.968  12.936
32510W        W  728   9.376  10.254  12.380
32511W        W  729   7.197   2.511   4.553
32512W        W  730  18.887  21.704  12.450
32513W        W  731   7.695  34.996  12.579
32514W        W  732   4.964  40.223   1.262
32515W        W  733  21.871  13.126   4.139
32516W        W  734  26.445   5.802   4.555
32517W        W  735  19.578  34.781  13.809
32518W        W  736  30.578   5.310   2.294
32519W        W  737  12.794  20.519  11.266
32520W        W  738  26.716  11.835  10.330
32521W        W  739  18.041  36.595  10.284
32522W        W  740  28.720   6.746  10.975
32523W        W  741   0.278  41.776  12.338
32524W        W  742  40.310  40.320   1.894
32525W        W  743  29.022  25.319  12.943
32526W        W  744  30.872  11.210   0.135
32527W        W  745  37.370  14.606  10.899
32528W        W  746  36.707  38.073  13.498
32529W        W  747  25.568   5.735   2.135
32530W        W  748  22.134   8.437  12.404
32531W        W  749   6.385  23.420   3.294
32532W        W  750  33.580  20.707   0.336
32533W        W  751  13.256   8.609   1.641
32534W        W  752  25.310  26.898   2.842
32535W        W  753  33.865   5.435   1.031
32536W        W  754  40.190  16.706   1.869
32537W        W  755  44.581  16.733   1.306
32538W        W  756  21.418  16.383  14.693
32539W        W  757  13.048  10.776  11.889
32540W        W  758  30.485   1.743   0.177
32541W        W  759  25.192  12.322  11.949
32542W        W  760  26.523  38.748   4.275
32543W        W  761   2.769  28.651  13.536
32544W        W  762   6.269  22.551  10.708
32545W        W  763   8.905  26.054   4.776
32546W        W  764  40.530  19.815  11.668
32547W        W  765  17.664  27.946  14.392
32548W        W  766  37.073  27.123  14.876
32549W        W  767   1.796   0.016  13.076
32550W        W  768  17.633   8.761  11.389
32551W        W  769  12.911  13.081  14.926
32552W        W  770  42.300  16.809  12.919
32553W        W  771  15.611  37.519  13.355
32554W        W  772  11.332  43.113  10.744
32555W        W  773  18.993  41.269  12.845
32556W        W  774  31.841  44.006  13.057
32557W        W  775  43.207  16.190  14.560
32558W        W  776   8.473  15.709   1.833
32559W        W  777  30.049  30.635   4.173
32560W        W  778   8.393  37.099   1.247
32561W        W  779  28.994  25.234   4.129
32562W        W  780  15.376  39.936   0.325
32563W        W  781  42.750  14.158  11.848
32564W        W  782  41.753  21.460  13.973
32565W        W  783  35.399  15.328  14.002
32566W        W  784  24.011  13.375  11.485
32567W        W  785  25.517  33.942  12.963
32568W        W  786  19.687  14.833   1.763
32569W        W  787  30.995  29.668   2.459
32570W        W  788  33.151  34.957   2.840
32571W        W  789   3.896  42.650  10.265
32572W        W  790  24.673  24.245  14.251
32573W        W  791  33.843  32.013   3.720
32574W        W  792  38.957  10.445   0.030
32575W        W  793  11.868  38.108   2.869
32576W        W  794   3.463  32.617  13.610
32577W        W  795  32.073  26.974  14.280
32578W        W  796   5.563  39.308   5.589
32579W        W  797  23.235  35.875  10.647
32580W        W  798  34.201  23.423   0.415
32581W        W  799   7.219   6.231  10.670
32582W        W  800  24.709  22.607  13.088
32583W        W  801  28.171  16.968   3.267
32584W        W  802  25.633  23.991   3.291
32585W        W  803  16.710  37.535  14.829
32586W        W  804  37.679  20.280  11.090
32587W        W  805  25.838  33.929  12.176
32588W        W  806  24.202   0.445   1.207
32589W        W  807   6.939  10.632  10.710
32590W        W  808  25.535  26.507   1.302
32591W        W  809  12.322  23.116   1.068
32592W        W  810   8.837  40.173  13.028
32593W        W  811   7.729  22.042   0.051
32594W        W  812  42.822  32.614   0.048
32595W        W  813  13.408  20.638   0.140
32596W        W  814  18.727  19.049   3.649
32597W        W  815  29.783   8.731  14.716
32598W        W  816  15.078  43.480  11.198
32599W        W  817  28.673  17.836  11.122
32600W        W  818  17.053  35.491  14.834
32601W        W  819   9.146  38.115  12.075
32602W        W  820   9.694  30.099   2.372
32603W        W  821  12.645  34.385  13.099
32604W        W  822  35.581  23.577  14.720
32605W        W  823  29.085  11.723   1.163
32606W        W  824  44.361  39.332   5.033
32607W        W  825  29.557   2.457   0.267
32608W        W  826  14.550  23.222   2.733
32609W        W  827  37.294  20.552   0.837
32610W        W  828  21.657   2.672   2.106
32611W        W  829  28.121  19.986   3.659
32612W        W  830  30.694  20.041  10.691
32613W        W  831  17.379  20.512   1.808
32614W        W  832  44.306  23.773  10.870
32615W        W  833  23.112  23.723  13.878
32616W        W  834   1.082  38.078  12.561
32617W        W  835  44.527   9.702  13.520
32618W        W  836  40.114  14.633   0.501
32619W        W  837   9.994  25.769   3.189
32620W        W  838  39.392  25.484  11.699
32621W        W  839  43.255  13.132   1.800
32622W        W  840  32.979  37.362   4.420
32623W        W  841  19.539  44.015   0.871
32624W        W  842  42.807   2.508   4.038
32625W        W  843  39.511  33.638  10.735
32626W        W  844  13.081  14.150   1.405
32627W        W  845  40.305  38.770   2.717
32628W        W  846  22.231  10.701  12.941
32629W        W  847  15.670  39.659   0.703
32630W        W  848   6.434  36.350   4.846
32631W        W  849  39.018  25.328  10.219
32632W        W  850   6.086  26.000   0.533
32633W        W  851   0.720  23.619  11.561
32634W        W  852  25.082  17.495   4.757
32635W        W  853  23.074  36.554   2.738
32636W        W  854  22.662   4.434   0.945
32637W        W  855  36.197  22.726  13.652
32638W        W  856  35.043  31.364  10.918
32639W        W  857   2.803  14.890   3.310
32640W        W  858  39.606  39.003   4.758
32641W        W  859  27.794  19.643  12.376
32642W        W  860   0.031  18.828  14.446
32643W        W  861  23.598  40.581  11.549
32644W        W  862  43.540   2.358   3.334
32645W        W  863  26.048  15.435   0.805
32646W        W  864  27.681  43.262  12.259
32647W        W  865  31.451   2.317   9.902
32648W        W  866  38.606  30.399   1.947
32649W        W  867  43.427  34.689   3.336
32650W        W  868   5.037   8.743   4.143
32651W        W  869  33.416   6.756  12.493
32652W        W  870  22.612  20.638   4.595
32653W        W  871  27.891   9.950   3.698
32654W        W  872  36.457  35.996   2.856
32655W        W  873  35.903  21.211  10.624
32656W        W  874   2.390   9.683   2.764
32657W        W  875  26.391  43.268  12.493
32658W        W  876  39.869   4.465  10.689
32659W        W  877  21.021  25.934   4.156
32660W        W  878  21.127  26.203   2.802
32661W        W  879  11.673  34.021  11.531
32662W        W  880  12.748  21.763   4.589
32663W        W  881  42.760   7.353   3.864
32664W        W  882  17.150   4.039   2.608
32665W        W  883  36.106  26.599  13.318
32666W        W  884  15.092  43.713  13.132
32667W        W  885   4.061   9.662  10.942
32668W        W  886  16.330  32.641   1.387
32669W        W  887  12.439  10.294  13.657
32670W        W  888  19.967  26.395  13.559
32671W        W  889   4.958  34.869   0.964
32672W        W  890  12.205   7.778   3.343
32673W        W  891   0.171  32.617   0.365
32674W        W  892  15.692  13.412  12.172
32675W        W  893   4.546  15.068  13.461
32676W        W  894   4.418  42.834  13.371
32677W        W  895  41.604  23.121   3.797
32678W        W  896  32.958  30.205  10.430
32679W        W  897  40.513  42.875   4.027
32680W        W  898  18.293  44.272  14.507
32681W        W  899  40.757  21.433   2.464
32682W        W  900   0.786  36.021  11.590
32683W        W  901  32.637  24.680   0.829
32684W        W  902  26.232  24.169   4.560
32685W        W  903  22.116  39.999   2.472
32686W        W  904  22.003  18.770  14.246
32687W        W  905  38.110  21.561   0.186
32688W        W  906  34.515   8.799  14.140
32689W        W  907  12.231  21.050   4.110
32690W        W  908  13.307  21.137  11.576
32691W        W  909  15.816   2.982   9.963
32692W        W  910  37.517  39.897   2.900
32693W        W  911  39.579  19.565  14.548
32694W        W  912  36.537  23.531   2.331
32695W        W  913  21.529  44.560  13.470
32696W        W  914   7.720   3.884   3.704
32697W        W  915  12.767  38.404  12.122
32698W        W  916  34.857  19.098  11.228
32699W        W  917  25.643  21.472   1.497
32700W        W  918   7.940  41.319   3.509
32701W        W  919  29.659  41.795  12.050
32702W        W  920  24.614  35.825   1.923
32703W        W  921  35.377  43.171   0.872
32704W        W  922  12.587  29.463   3.261
32705W        W  923   8.572   9.745   0.410
32706W        W  924  37.987  38.352  12.261
32707W        W  925  28.968  31.178  10.829
32708W        W  926  14.699  29.819  11.241
32709W        W  927  38.673  18.712  10.044
32710W        W  928  19.189  31.216  12.335
32711W        W  929  14.798  12.161   3.437
32712W        W  930  33.242  21.632   1.877
32713W        W  931  40.824  17.379   0.930
32714W        W  932  39.609  19.821  12.567
32715W        W  933   9.085  40.699   2.674
32716W        W  934  42.800  10.238  14.767
32717W        W  935  33.330  37.576   3.124
32718W        W  936  11.578  15.813  11.714
32719W        W  937  44.936  27.686  12.079
32720W        W  938   5.178  44.427  10.662
32721W        W  939   0.096  41.863  14.457
32722W        W  940  19.287  39.106  10.904
32723W        W  941  31.348  16.640  10.192
32724W        W  942  38.386  10.613   5.093
32725W        W  943  18.333  36.166  10.230
32726W        W  944  41.349  19.814  13.875
32727W        W  945  31.404  18.218   4.536
32728W        W  946  42.482  38.480  11.018
32729W        W  947  33.035  34.335  11.271
32730W        W  948  26.514  15.624   1.964
32731W        W  949  14.798   9.887   3.249
32732W        W  950  23.170  38.084  11.567
32733W        W  951  18.783   2.947  13.227
32734W        W  952  43.306  35.920  12.492
32735W        W  953  42.860  22.904   3.154
32736W        W  954  23.982  31.422   3.822
32737W        W  955  40.816   5.663   4.122
32738W        W  956  11.411   0.178  14.642
32739W        W  957  43.434   8.593   1.397
32740W        W  958  25.752  26.988   0.520
32741W        W  959  18.548   8.609   1.900
32742W        W  960   1.860  21.244  13.296
32743W        W  961  26.532   4.248  12.428
32744W        W  962   6.828  12.921  11.289
32745W        W  963  38.586   7.407  11.050
32746W        W  964  26.108  23.426  12.067
32747W        W  965  24.533  43.339  10.898
32748W        W  966  33.496  34.675   0.332
32749W        W  967  12.408  33.977  14.754
32750W        W  968   4.432  14.337   1.868
32751W        W  969  15.544  39.566  14.411
32752W        W  970  43.142   3.714  12.627
32753W        W  971  37.165  30.970   0.842
32754W        W  972   3.106  11.475   3.150
32755W        W  973  40.933  21.743  14.573
32756W        W  974  29.697  41.414   3.143
32757W        W  975  36.383  30.914   0.511
32758W        W  976  19.343  14.846   4.126
32759W        W  977  30.655  14.574   4.572
32760W        W  978  27.984  18.772  14.788
32761W        W  979  36.876  16.123   4.574
32762W        W  980  22.075  25.373  12.168
32763W        W  981  44.341   7.701   4.101
32764W        W  982  38.448   8.032   3.358
32765W        W  983   0.361  27.429  12.920
32766W        W  984  29.676  35.957   0.264
32767W        W  985  12.327  25.494  14.773
32768W        W  986   2.425  38.087   0.708
32769W        W  987  15.469  39.920   2.463
32770W        W  988  14.516  34.115  10.538
32771W        W  989  10.221  13.844   4.760
32772W        W  990  38.497   9.156   2.269
32773W        W  991  16.511  26.711   1.356
32774W        W  992   2.178  24.584  13.826
32775W        W  993   3.586  17.696   0.939
32776W        W  994  16.311  18.178  13.589
32777W        W  995  25.559  24.001  14.735
32778W        W  996  22.044   4.535   4.897
32779W        W  997  28.235  40.290  13.037
32780W        W  998  41.768  16.785  12.960
32781W        W  999  29.856  13.528  11.537
32782W        W 1000  18.653  42.083   0.007
32783W        W 1001  17.650  44.015   3.259
32784W        W 1002  41.316   8.850   0.708
32785W        W 1003  35.953  19.760   2.325
32786W        W 1004  16.713  30.670   1.289
32787W        W 1005  11.764  16.750   0.268
32788W        W 1006  34.066  25.022   1.811
32789W        W 1007   0.283  30.394  14.434
32790W        W 1008  36.504  36.397   4.138
32791W        W 1009  37.891  20.076   4.257
32792W        W 1010  20.769  28.500   1.966
32793W        W 1011  25.784   8.374   4.568
32794W        W 1012  44.580  44.783   3.960
32795W        W 1013   6.161  15.744  12.393
32796W        W 1014  14.265  38.134  11.222
32797W        W 1015   2.663  21.676  11.949
32798W        W 1016  36.791  24.524  11.597
32799W        W 1017  31.096  29.611  12.584
32800W        W 1018  32.094  35.869  13.880
32801W        W 1019  20.571  24.029   0.997
32802W        W 1020   9.827  17.027  14.967
32803W        W 1021  30.293  18.510   2.711
32804W        W 1022  31.012  29.645  11.108
32805W        W 1023  41.511  24.770   0.466
32806W        W 1024   5.239  23.891  11.622
32807W        W 1025  10.867  37.947  11.570
32808W        W 1026  32.939  18.206  11.535
32809W        W 1027  24.301   9.234  13.315
32810W        W 1028  18.695   0.505   0.334
32811W        W 1029  28.154  44.667   5.041
32812W        W 1030   8.142  28.173  13.461
32813W        W 1031  21.663  37.714  10.651
32814W        W 1032  26.437  42.203   3.887
32815W        W 1033  38.644  29.147  14.482
32816W        W 1034  34.735  11.425   1.900
32817W        W 1035   4.054   5.669  10.615
32818W        W 1036   2.438   3.224  11.120
32819W        W 1037  14.646  41.974   5.330
32820W        W 1038   5.816  23.733  14.096
32821W        W 1039  17.791  11.583   2.621
32822W        W 1040  22.019  13.569   3.615
32823W        W 1041  27.966  18.061   2.382
32824W        W 1042  14.793  33.090  14.486
32825W        W 1043  19.197  36.889  14.495
32826W        W 1044  24.489  17.017   2.832
32827W        W 1045  26.569  35.555  11.272
32828W        W 1046  27.597  23.198  14.399
32829W        W 1047  11.147  14.703   4.340
32830W        W 1048   7.996  22.626  13.439
32831W        W 1049  26.966  33.003  11.067
32832W        W 1050   6.855  16.031   3.637
32833W        W 1051   1.502  43.302  11.006
32834W        W 1052  32.203  40.827  13.406
32835W        W 1053  21.087  12.849  10.207
32836W        W 1054  22.533  44.968  13.107
32837W        W 1055  23.730  17.506  11.133
32838W        W 1056   7.794  26.285  11.551
32839W        W 1057  18.176  20.524  12.133
32840W        W 1058  20.223   0.785  11.190
32841W        W 1059   0.244   1.407  14.471
32842W        W 1060  18.133  27.028  11.391
32843W        W 1061  19.202  28.286   4.537
32844W        W 1062  22.090   6.447   1.112
32845W        W 1063  24.937   6.550   3.138
32846W        W 1064  32.597  26.092  12.333
32847W        W 1065  31.401  19.444  14.466
32848W        W 1066  13.851  42.365   2.478
32849W        W 1067  37.048  44.797   5.018
32850W        W 1068   0.844  41.898   2.469
32851W        W 1069  31.572   0.032   0.357
32852W        W 1070   1.246  35.173   1.844
32853W        W 1071  36.574  28.101  14.314
32854W        W 1072  32.026   1.855  10.318
32855W        W 1073   1.409   5.195  11.082
32856W        W 1074  31.574  23.578  10.655
32857W        W 1075  31.533  34.955   3.183
32858W        W 1076  28.876  42.886  12.130
32859W        W 1077  32.601  34.323   3.930
32860W        W 1078  42.372  36.222   2.790
32861W        W 1079  22.052  31.947  11.629
32862W        W 1080   9.761  10.759  13.969
32863W        W 1081  29.470  36.478   3.551
32864W        W 1082  28.435  26.067  14.884
32865W        W 1083  41.344   3.494   2.453
32866W        W 1084  38.991  20.505  11.643
32867W        W 1085   5.380  18.239  14.293
32868W        W 1086  33.839   0.828   4.042
32869W        W 1087  23.139  20.280  10.535
32870W        W 1088  22.649  37.450   3.957
32871W        W 1089   0.417  10.705  10.814
32872W        W 1090  35.823  31.960   1.931
32873W        W 1091  44.125  10.782  13.450
32874W        W 1092   1.270  29.152   3.375
32875W        W 1093   8.174  13.995  12.915
32876W        W 1094  34.846  21.332   4.102
32877W        W 1095   1.410  10.608  11.111
32878W        W 1096  41.498   3.751  11.099
32879W        W 1097   8.756   5.685   1.858
32880W        W 1098  41.046  34.087   0.437
32881W        W 1099   0.050  29.991   1.706
32882W        W 1100  42.955  10.579   3.710
32883W        W 1101   5.364   9.646  10.925
32884W        W 1102  31.335  18.544  14.988
32885W        W 1103  29.663   1.009   3.641
32886W        W 1104   0.259  33.582   3.938
32887W        W 1105   6.452  12.883   0.257
32888W        W 1106  40.233  27.147  11.395
32889W        W 1107  29.857  34.630   3.662
32890W        W 1108  27.496  41.315  12.637
32891W        W 1109  18.170  28.490   2.626
32892W        W 1110  35.099  35.839  13.197
32893W        W 1111  27.530  34.834  11.135
32894W        W 1112  30.114  40.132   1.443
32895W        W 1113  20.356  15.298  14.227
32896W        W 1114  39.759  32.512  12.037
32897W        W 1115  39.970   6.521  14.536
32898W        W 1116  33.135  35.180   0.534
32899W        W 1117  17.835   3.290  13.784
32900W        W 1118  36.381  20.102   1.604
32901W        W 1119  42.003  34.631   4.621
32902W        W 1120  11.504  32.894   2.661
32903W        W 1121  37.359   8.383  14.089
32904W        W 1122   9.257  22.608   4.868
32905W        W 1123  32.174  22.928   3.934
32906W        W 1124  32.957   5.776  12.372
32907W        W 1125  41.430  22.849  11.604
32908W        W 1126  36.885   2.316   0.284
32909W        W 1127  24.990  31.646  14.876
32910W        W 1128  13.856  20.442   0.434
32911W        W 1129  37.636  22.013  13.883
32912W        W 1130  41.784  15.405   1.934
32913W        W 1131  33.004  40.860  12.542
32914W        W 1132  23.267  15.843   3.875
32915W        W 1133  34.288   4.724  14.508
32916W        W 1134  40.308   1.710  12.543
32917W        W 1135  14.045  41.446   3.165
32918W        W 1136  33.685   5.739   3.404
32919W        W 1137   3.232  37.964  14.309
32920W        W 1138  15.581  17.342  13.419
32921W        W 1139  42.473  28.226   2.407
32922W        W 1140   8.773   8.261   3.639
32923W        W 1141  19.556  39.788   3.891
32924W        W 1142  44.040  33.627   0.009
32925W        W 1143  27.439  20.792   1.153
32926W        W 1144   4.389   5.419  12.447
32927W        W 1145  29.005  11.980  12.471
32928W        W 1146  26.498   5.495   3.701
32929W        W 1147  10.240  15.210   4.771
32930W        W 1148   1.855  31.920  14.311
32931W        W 1149  10.862  14.240   1.027
32932W        W 1150  21.024  25.290   1.116
32933W        W 1151   5.909  23.077   0.352
32934W        W 1152  17.686  38.878  10.522
32935W        W 1153  44.860  22.595  12.034
32936W        W 1154  14.969  15.414   0.104
32937W        W 1155  40.874   5.134  14.971
32938W        W 1156  40.593  19.076   3.604
32939W        W 1157   8.460  17.480  11.291
32940W        W 1158  37.799  15.643   2.711
32941W        W 1159   3.217  26.365   3.268
32942W        W 1160  23.865  23.200   2.347
32943W        W 1161   3.436  40.851  14.822
32944W        W 1162  18.786  36.066   2.769
32945W        W 1163   0.495  25.670   3.241
32946W        W 1164  15.531  39.992   3.335
32947W        W 1165  23.686  41.604  11.387
32948W        W 1166  35.766  44.218  11.147
32949W        W 1167  22.699  44.889  14.764
32950W        W 1168  32.518  13.706   0.009
32951W        W 1169  17.243  28.220   1.767
32952W        W 1170  16.562  37.384  10.682
32953W        W 1171  14.425  11.116   3.175
32954W        W 1172   0.502  34.430   3.345
32955W        W 1173  28.626  36.731   4.117
32956W        W 1174   4.337  21.314  11.586
32957W        W 1175  14.242  35.416   1.917
32958W        W 1176   9.153  42.290   3.253
32959W        W 1177  44.918  21.520  12.180
32960W        W 1178  41.263  17.078   2.183
32961W        W 1179  36.841  37.184  11.187
32962W        W 1180  22.037   0.561   0.789
32963W        W 1181  44.528  39.741   2.802
32964W        W 1182  43.424  37.555  13.281
32965W        W 1183  42.528  26.527   3.119
32966W        W 1184  43.823  18.181  14.386
32967W        W 1185  30.526  29.476  10.978
32968W        W 1186  20.146   6.303   0.352
32969W        W 1187  40.377  43.418   4.844
32970W        W 1188  25.727  11.361   1.425
32971W        W 1189  43.345  23.084   3.164
32972W        W 1190  23.730  35.489   1.820
32973W        W 1191  41.923  40.951   0.487
32974W        W 1192  16.612  23.099   3.697
32975W        W 1193  27.954  15.847   2.665
32976W        W 1194  42.518  14.682   1.949
32977W        W 1195  28.977  27.133   2.715
32978W        W 1196  13.366  22.657   2.656
32979W        W 1197   9.065  12.587   0.389
32980W        W 1198  38.372   5.007  14.276
32981W        W 1199  18.834   4.032   1.789
32982W        W 1200  24.216  13.387   3.468
32983W        W 1201  19.263  30.023  10.801
32984W        W 1202  38.564  34.598  14.056
32985W        W 1203  13.283   4.522  13.801
32986W        W 1204  25.026  33.824   1.389
32987W        W 1205  32.178   2.965  13.526
32988W        W 1206  20.130  15.267  10.058
32989W        W 1207  36.016  38.159   2.359
32990W        W 1208   4.908   1.660   2.721
32991W        W 1209  15.939  25.282  13.405
32992W        W 1210   4.439  37.708  13.285
32993W        W 1211  14.146   1.057   0.958
32994W        W 1212  27.863  20.381  14.284
32995W        W 1213   5.130  34.955   4.164
32996W        W 1214  19.724  31.933  11.960
32997W        W 1215  16.312   5.203   4.776
32998W        W 1216  19.236  14.575   0.933
32999W        W 1217  22.642  10.728  13.892
33000W        W 1218  24.364  27.872  13.893
33001W        W 1219   5.926  38.411  14.245
33002W        W 1220  39.061  30.581  10.960
33003W        W 1221  23.113  22.941   1.740
33004W        W 1222  33.676  33.865   3.235
33005W        W 1223  13.162  44.052  13.561
33006W        W 1224  37.141   1.204   4.716
33007W        W 1225  31.554  31.696  14.025
33008W        W 1226   0.800  31.694   0.514
33009W        W 1227  29.793   6.079  13.297
33010W        W 1228   8.166  29.624   2.250
33011W        W 1229  43.870  14.582  12.164
33012W        W 1230  12.379  18.771   1.765
33013W        W 1231  14.165  28.972   0.307
33014W        W 1232  31.590  10.707  12.700
33015W        W 1233  18.992  31.318  14.812
33016W        W 1234  29.045  31.598   4.518
33017W        W 1235   2.095  17.085   2.835
33018W        W 1236  25.077  33.262   2.315
33019W        W 1237  37.105  27.523   3.833
33020W        W 1238  38.343  16.540   4.335
33021W        W 1239  32.629   1.877   0.466
33022W        W 1240  11.742   4.648   3.731
33023W        W 1241   7.952  25.030   1.652
33024W        W 1242  18.569  18.147   1.371
33025W        W 1243  29.083   8.237   1.936
33026W        W 1244   9.421  44.810   3.298
33027W        W 1245  17.723  13.331   3.407
33028W        W 1246  19.845  12.204  12.914
33029W        W 1247   3.477   1.284  10.693
33030W        W 1248   7.278  20.572   4.807
33031W        W 1249  38.645  40.583  11.529
33032W        W 1250  11.433   5.695  12.549
33033W        W 1251   6.871  44.508   2.124
33034W        W 1252  10.485  42.922   1.363
33035W        W 1253  31.972  27.670   0.740
33036W        W 1254  20.112  13.214   2.205
33037W        W 1255  10.632  43.210  11.100
33038W        W 1256  24.277  24.069   4.133
33039W        W 1257  25.143  22.329  13.927
33040W        W 1258  11.918   7.398   2.373
33041W        W 1259   3.889  12.815  13.495
33042W        W 1260  26.005  28.366   3.618
33043W        W 1261  18.810   0.696   4.961
33044W        W 1262  33.563   6.281  12.365
33045W        W 1263  20.382  23.250  11.957
33046W        W 1264  41.536  37.526  11.649
33047W        W 1265  13.650   7.806   1.945
33048W        W 1266  28.707  44.517  11.034
33049W        W 1267   9.670  40.976  10.684
33050W        W 1268   0.737   3.634  13.895
33051W        W 1269  37.394  28.882   0.912
33052W        W 1270  34.354  33.057  12.131
33053W        W 1271  20.713  20.147   0.024
33054W        W 1272  26.168  31.510  13.777
33055W        W 1273  13.186  15.124   4.587
33056W        W 1274  10.593  27.680  13.442
33057W        W 1275  24.979  28.909  11.116
33058W        W 1276  12.757  29.696  11.110
33059W        W 1277  43.327  13.633   4.788
33060W        W 1278   8.326   7.328  10.679
33061W        W 1279  24.248  44.953   4.182
33062W        W 1280  22.200  25.162  10.513
33063W        W 1281  16.300  29.709   2.258
33064W        W 1282  41.995  18.777   2.494
33065W        W 1283  17.211  35.570   3.212
33066W        W 1284   0.761  31.342   4.537
33067W        W 1285  27.830   3.343  13.804
33068W        W 1286  12.757  38.003  12.622
33069W        W 1287  32.536  42.079  12.106
33070W        W 1288   6.722   4.389  14.954
33071W        W 1289  44.109  31.579  11.176
33072W        W 1290  18.249  25.941  14.451
33073W        W 1291   7.137   9.886  14.315
33074W        W 1292  41.260  30.872  11.159
33075W        W 1293  16.771  23.256  12.149
33076W        W 1294  29.424  29.187   0.936
33077W        W 1295  36.897  24.659  13.934
33078W        W 1296  16.327  27.516   0.666
33079W        W 1297  24.539   8.097   2.400
33080W        W 1298  20.702  11.874  14.953
33081W        W 1299   3.323  35.950   0.683
33082W        W 1300  27.431  44.188  14.834
33083W        W 1301  29.236  18.245  13.975
33084W        W 1302  16.298   9.637  14.291
33085W        W 1303  43.282   8.176   2.947
33086W        W 1304  16.631  38.387   0.380
33087W        W 1305  31.102  43.417   0.756
33088W        W 1306  25.580  19.247   4.423
33089W        W 1307  27.132  25.898   0.949
33090W        W 1308  14.015  19.469  12.905
33091W        W 1309  42.169  17.438  12.375
33092W        W 1310  25.072  32.661   4.451
33093W        W 1311  44.365  29.019  13.794
33094W        W 1312  40.412  18.754   0.030
33095W        W 1313  14.723  27.876   2.752
33096W        W 1314   8.681   4.763   2.305
33097W        W 1315  17.343  15.095   0.916
33098W        W 1316  34.069  13.284   2.256
33099W        W 1317  21.498  39.998  13.942
33100W        W 1318  34.519   7.625  10.587
33101W        W 1319  40.604  40.422   0.007
33102W        W 1320  16.197  27.406   1.870
33103W        W 1321  13.664  10.276   2.765
33104W        W 1322  40.844  44.779  11.885
33105W        W 1323  28.982  34.840  11.203
33106W        W 1324  29.087  16.362   2.406
33107W        W 1325  19.447  12.463   1.783
33108W        W 1326  31.797  27.386   1.137
33109W        W 1327  18.095  43.330   3.236
33110W        W 1328  40.833  26.018   1.991
33111W        W 1329   5.949  28.547   2.746
33112W        W 1330  15.199  38.302   3.820
33113W        W 1331  20.732  22.611   3.346
33114W        W 1332  32.897  31.993  12.988
33115W        W 1333  24.303  18.653   2.742
33116W        W 1334   8.330  37.251   3.593
33117W        W 1335   3.389  30.952  12.020
33118W        W 1336  25.601  38.086   2.409
33119W        W 1337  14.766  15.462  13.678
33120W        W 1338  29.915  26.504  13.657
33121W        W 1339  17.056  40.640   5.040
33122W        W 1340   2.547  12.126   1.328
33123W        W 1341   1.932  20.146  11.927
33124W        W 1342   0.448  36.902  14.976
33125W        W 1343  35.086  37.003  14.035
33126W        W 1344  33.365  16.789   3.237
33127W        W 1345  35.895  17.934  11.552
33128W        W 1346   7.845  23.270   4.131
33129W        W 1347  12.035  15.616   1.858
33130W        W 1348   6.927  21.689   2.821
33131W        W 1349  26.015  41.963  11.412
33132W        W 1350  39.566  25.190  10.918
33133W        W 1351  43.062  22.206  11.581
33134W        W 1352  23.698   4.882  10.479
33135W        W 1353  27.160   0.940  13.850
33136W        W 1354   4.626  14.921   0.441
33137W        W 1355  23.472  26.046  13.565
33138W        W 1356  36.452  36.013  13.655
33139W        W 1357  11.764   5.284  12.570
33140W        W 1358  28.090  41.735   2.782
33141W        W 1359  22.017  22.456  11.849
33142W        W 1360  36.102   5.515  12.158
33143W        W 1361   4.368  17.741  13.475
33144W        W 1362  41.050   9.470  12.177
33145W        W 1363  18.583   2.184  14.003
33146W        W 1364  42.391  18.523  14.584
33147W        W 1365  26.750   6.623  11.517
33148W        W 1366  29.563  44.817   2.195
33149W        W 1367  19.275  36.459  10.737
33150W        W 1368  12.894   6.290   4.300
33151W        W 1369   8.105  44.036   4.199
33152W        W 1370  10.635  33.412  14.380
33153W        W 1371  25.232  35.635   2.778
33154W        W 1372   5.737  12.922  11.155
33155W        W 1373  10.261   0.780   1.941
33156W        W 1374   3.115   8.186   3.200
33157W        W 1375  17.525  11.595  12.553
33158W        W 1376  12.304  11.809  13.964
33159W        W 1377  41.424  26.506  11.473
33160W        W 1378  44.971   8.425  12.945
33161W        W 1379   1.842  26.254   1.716
33162W        W 1380  44.155   7.970   2.629
33163W        W 1381   5.302   7.357  10.669
33164W        W 1382  35.285  38.143   1.748
33165W        W 1383  32.107  25.191  12.952
33166W        W 1384  18.110  10.398  10.762
33167W        W 1385   7.829  28.101   3.654
33168W        W 1386  44.191  20.763  10.722
33169W        W 1387  15.886  42.242   3.697
33170W        W 1388  30.619  24.396  13.483
33171W        W 1389   6.010  33.295   2.289
33172W        W 1390  11.332  10.032   1.065
33173W        W 1391   2.039  20.594  14.709
33174W        W 1392  10.182  39.070  13.418
33175W        W 1393  11.396  25.578   4.381
33176W        W 1394  19.573  33.905   3.357
33177W        W 1395   6.258  22.000  14.330
33178W        W 1396  35.557  33.765  10.463
33179W        W 1397   6.246  42.170   1.005
33180W        W 1398  30.170  27.016  10.662
33181W        W 1399  44.800  43.763   2.259
33182W        W 1400  10.054   7.147   1.822
33183W        W 1401  18.307  13.681  12.900
33184W        W 1402   0.801   3.381  12.397
33185W        W 1403  42.255  25.673   3.040
33186W        W 1404  43.257   0.787   2.161
33187W        W 1405  24.543  13.767   3.613
33188W        W 1406  19.430  30.972   4.628
33189W        W 1407   9.921  24.958  11.583
33190W        W 1408  35.814  32.128  12.987
33191W        W 1409  22.030  13.670   2.330
33192W        W 1410  33.868  37.470   1.235
33193W        W 1411  21.449  25.195   1.948
33194W        W 1412  26.373  32.644  13.130
33195W        W 1413  24.261  26.141   3.302
33196W        W 1414  14.150  13.384   3.295
33197W        W 1415   2.286  18.039   0.939
33198W        W 1416  10.339  21.983   0.473
33199W        W 1417  44.777  39.809   3.277
33200W        W 1418  41.933  20.060   2.011
33201W        W 1419   8.080  29.540   0.526
33202W        W 1420  12.370  18.520  13.310
33203W        W 1421  20.565  23.994  12.898
33204W        W 1422  23.382  34.238   4.216
33205W        W 1423  39.486  27.455  11.988
33206W        W 1424   9.136  35.078   1.774
33207W        W 1425  10.934  25.300  13.363
33208W        W 1426  11.861  24.433   9.723
33209W        W 1427   1.756  20.210   1.151
33210W        W 1428  39.859  16.829  10.353
33211W        W 1429  41.238  30.390   4.165
33212W        W 1430   6.353  33.420   4.120
33213W        W 1431  11.994  32.722  14.999
33214W        W 1432  44.279  41.723   3.849
33215W        W 1433  39.203   6.897   1.910
33216W        W 1434  34.442  12.433   3.670
33217W        W 1435   2.871   6.972  11.322
33218W        W 1436  12.409  33.926   0.646
33219W        W 1437  37.869   6.766   2.184
33220W        W 1438  27.104  34.518  12.170
33221W        W 1439  38.835   5.193  14.114
33222W        W 1440   2.100  20.159   5.176
33223W        W 1441  15.309  37.239  11.114
33224W        W 1442  26.397  40.256   1.333
33225W        W 1443  26.143  38.362   0.813
33226W        W 1444  12.657  13.118  13.530
33227W        W 1445  30.065  33.631   0.938
33228W        W 1446  27.127  39.991   4.104
33229W        W 1447  29.020  39.099   0.005
33230W        W 1448  35.097   6.915  12.934
33231W        W 1449  41.968  20.494  14.054
33232W        W 1450  18.152  38.890  12.355
33233W        W 1451  35.523  39.395   1.481
33234W        W 1452  24.756  39.302  13.527
33235W        W 1453  16.767  14.429   0.794
33236W        W 1454  28.497  14.742  11.462
33237W        W 1455   9.626  38.374  10.944
33238W        W 1456  36.464  15.829   4.158
33239W        W 1457  38.922  23.334   3.710
33240W        W 1458  31.063  37.142  13.025
33241W        W 1459   6.447  16.316   5.331
33242W        W 1460  19.095  20.214   4.106
33243W        W 1461  40.175  43.847  14.438
33244W        W 1462   0.277   6.813   3.716
33245W        W 1463  29.415  22.652   0.761
33246W        W 1464  42.274  19.243  13.981
33247W        W 1465  39.209  24.144  14.892
33248W        W 1466  14.816   0.057   2.823
33249W        W 1467   6.593  23.634  12.496
33250W        W 1468  29.790  23.707  13.384
33251W        W 1469  17.105  25.056  14.301
33252W        W 1470  22.583  36.131  13.450
33253W        W 1471   2.559  41.126  14.581
33254W        W 1472  42.367  31.456   4.830
33255W        W 1473  31.942  37.791  13.899
33256W        W 1474  41.427   0.176   1.320
33257W        W 1475  10.812   2.884  13.073
33258W        W 1476  15.684  43.463  14.123
33259W        W 1477  24.806  25.926  10.540
33260W        W 1478  36.551  28.238   1.806
33261W        W 1479   5.190   6.940  11.916
33262W        W 1480   0.194  17.725  14.871
33263W        W 1481  11.772   9.390  11.432
33264W        W 1482  18.198  19.994   4.262
33265W        W 1483  15.839  40.438   4.166
33266W        W 1484  33.981   7.907  12.361
33267W        W 1485   2.826   3.938  13.457
33268W        W 1486  25.295  41.408   4.649
33269W        W 1487  24.528  35.426   2.326
33270W        W 1488  15.298  31.373   2.280
33271W        W 1489  31.176  30.070   2.195
33272W        W 1490  30.241  15.348  13.913
33273W        W 1491  24.234   1.353  12.629
33274W        W 1492  24.658  39.490  14.364
33275W        W 1493  40.221  35.813  12.435
33276W        W 1494   4.344  18.294  12.515
33277W        W 1495  24.987   1.365  11.648
33278W        W 1496  19.209  27.142   2.615
33279W        W 1497  36.805  26.754   1.362
33280W        W 1498  22.115  24.301   0.368
33281W        W 1499   5.121   5.968  13.056
33282W        W 1500   1.843   3.207  12.755
33283W        W 1501   4.987  33.385   1.565
33284W        W 1502  31.869  14.288   0.947
33285W        W 1503  31.531  34.062   3.377
33286W        W 1504  25.668  22.478   4.124
33287W        W 1505  41.975   9.780  11.923
33288W        W 1506  43.904   0.902   0.080
33289W        W 1507  40.899   6.160   0.858
33290W        W 1508  41.439   3.056  10.613
33291W        W 1509  20.807   0.818  12.561
33292W        W 1510  36.312  24.908  13.385
33293W        W 1511  15.705  40.464   3.198
33294W        W 1512  16.149  19.570   2.160
33295W        W 1513  33.847  21.021   0.793
33296W        W 1514   4.472  10.699   1.763
33297W        W 1515  32.426  41.754   0.037
33298W        W 1516   7.204  39.094   4.181
33299W        W 1517  42.335   0.866   0.334
33300W        W 1518  30.413  22.876  12.622
33301W        W 1519   4.707  33.055   2.323
33302W        W 1520  15.822  36.478   1.426
33303W        W 1521  28.704  10.041  10.566
33304W        W 1522  39.781  13.700  12.073
33305W        W 1523  15.562  31.572  11.313
33306W        W 1524  14.093   5.716   3.113
33307W        W 1525  19.307   1.921  12.958
33308W        W 1526  38.970  25.951   0.292
33309W        W 1527  28.690  44.898  11.615
33310W        W 1528   2.737  16.188   1.342
33311W        W 1529  33.111  32.958   2.428
33312W        W 1530  28.104  36.073  12.712
33313W        W 1531  28.907  34.481   1.715
33314W        W 1532  42.983  38.043   0.717
33315W        W 1533  25.612  26.506   3.247
33316W        W 1534  44.189  34.113  10.589
33317W        W 1535  24.354  42.316  11.681
33318W        W 1536  37.559  10.189  12.830
33319W        W 1537  39.868  42.752   2.838
33320W        W 1538   4.169  28.889   3.798
33321W        W 1539   2.805  23.990  10.322
33322W        W 1540   3.567   8.234  14.491
33323W        W 1541  27.520  41.127  11.575
33324W        W 1542  30.704   3.389   3.541
33325W        W 1543  39.963  18.701   3.315
33326W        W 1544  28.760  20.256  13.776
33327W        W 1545   8.180  38.491   0.444
33328W        W 1546   8.618   1.822   3.286
33329W        W 1547  30.555  24.193   4.136
33330W        W 1548  28.888  15.692  11.625
33331W        W 1549  17.672   2.842   4.763
33332W        W 1550  15.356  30.170  13.099
33333W        W 1551  34.880   7.155  11.126
33334W        W 1552  28.024   9.931  13.164
33335W        W 1553  40.017  37.334   0.708
33336W        W 1554   6.957  36.319   0.919
33337W        W 1555  24.778  26.049   3.249
33338W        W 1556   5.507   1.806   4.165
33339W        W 1557  28.205  18.682   0.239
33340W        W 1558  38.346  19.408  13.446
33341W        W 1559  43.681   2.959   4.166
33342W        W 1560  14.084   2.403   0.709
33343W        W 1561  31.587  42.094   0.244
33344W        W 1562  41.325  35.928  14.311
33345W        W 1563  32.891  20.985  13.906
33346W        W 1564   1.921   6.695  13.813
33347W        W 1565   6.855   0.824  14.212
33348W        W 1566   3.432  14.955   2.760
33349W        W 1567  35.459   8.288   1.090
33350W        W 1568  40.806  14.831  10.730
33351W        W 1569   3.437  23.167  11.165
33352W        W 1570  13.663  43.971  12.518
33353W        W 1571  28.741  41.167  11.234
33354W        W 1572  28.275  27.881  11.438
33355W        W 1573  12.371   4.176   0.162
33356W        W 1574  43.359  27.191  11.276
33357W        W 1575  30.002  20.405  13.369
33358W        W 1576  29.117   3.912   5.574
33359W        W 1577   9.393  16.312  12.563
33360W        W 1578  17.067   9.752   2.896
33361W        W 1579  40.856  16.130  13.716
33362W        W 1580  10.467  18.024   1.306
33363W        W 1581  27.515  18.181  11.208
33364W        W 1582  38.968  21.909  12.725
33365W        W 1583  39.199  15.678   4.505
33366W        W 1584   4.632  21.634  10.964
33367W        W 1585  36.438  25.955   2.743
33368W        W 1586  21.274  18.421   2.260
33369W        W 1587  40.499  15.532   5.006
33370W        W 1588   1.527  31.047   2.054
33371W        W 1589  34.946   6.735   0.053
33372W        W 1590  40.534  44.017  11.042
33373W        W 1591  23.278  10.245   0.041
33374W        W 1592  26.859  28.704   4.808
33375W        W 1593  25.780   4.378   2.220
33376W        W 1594  17.030  13.875   1.891
33377W        W 1595   9.569  24.925  10.319
33378W        W 1596  36.002  20.510   1.331
33379W        W 1597   4.745  28.173  10.776
33380W        W 1598  19.870  44.467   0.939
33381W        W 1599  27.531   0.256   2.714
33382W        W 1600  10.257  18.046   0.426
33383W        W 1601  36.096  40.394  11.421
33384W        W 1602  30.794  13.540   2.802
33385W        W 1603  32.078  32.848   1.880
33386W        W 1604  38.301  31.597   4.281
33387W        W 1605  17.853  30.976   3.284
33388W        W 1606  20.675  11.625  14.440
33389W        W 1607   1.319  30.817  14.364
33390W        W 1608  31.389  39.916   0.420
33391W        W 1609  26.732  35.182  10.943
33392W        W 1610  33.481  27.585  12.506
33393W        W 1611  28.149   4.345   3.700
33394W        W 1612  15.345  30.125  14.857
33395W        W 1613  33.383   8.931   0.796
33396W        W 1614  35.515  13.204   4.426
33397W        W 1615  38.102  21.811  14.307
33398W        W 1616   0.119  11.333  12.771
33399W        W 1617  19.959  40.375  11.696
33400W        W 1618   4.440  20.195   0.893
33401W        W 1619  32.852   4.640  14.329
33402W        W 1620   6.752  27.078  13.373
33403W        W 1621  36.558  39.468   1.402
33404W        W 1622  10.614  37.548  11.346
33405W        W 1623  14.574  29.420   2.207
33406W        W 1624  18.717  25.725   1.647
33407W        W 1625  30.699  27.920  11.538
33408W        W 1626  35.782  33.132  11.077
33409W        W 1627   5.329  13.366   3.297
33410W        W 1628   0.468  11.895  12.082
33411W        W 1629  10.825  22.715   4.406
33412W        W 1630   2.267  34.690  14.776
33413W        W 1631  32.629  30.821   3.822
33414W        W 1632   9.641   1.990  13.844
33415W        W 1633  41.489  36.001  10.431
33416W        W 1634   0.296  36.066   3.740
33417W        W 1635  44.077  29.447  12.553
33418W        W 1636   0.290   6.851   1.385
33419W        W 1637   5.642   3.310   2.779
33420W        W 1638  39.934  40.458   2.283
33421W        W 1639  33.984  10.783   3.903
33422W        W 1640   9.196  34.903  11.573
33423W        W 1641  40.224  42.863   0.032
33424W        W 1642   6.964  43.565  14.289
33425W        W 1643  21.709  22.063  11.630
33426W        W 1644  42.599  41.300  11.604
33427W        W 1645  28.599  39.956  10.743
33428W        W 1646  41.353  38.028  11.660
33429W        W 1647  12.920   4.877  13.962
33430W        W 1648  34.340  30.001   4.822
33431W        W 1649   7.897  39.933  12.862
33432W        W 1650  18.291  22.541   1.238
33433W        W 1651  37.576  23.728  12.954
33434W        W 1652  19.808  31.021   1.361
33435W        W 1653  12.274  39.859  14.990
33436W        W 1654  35.559  23.943  14.305
33437W        W 1655   1.505   9.261  12.463
33438W        W 1656  35.378   4.499   2.385
33439W        W 1657  42.722  25.963  12.405
33440W        W 1658  32.404  11.256   0.527
33441W        W 1659  25.060  42.315   3.615
33442W        W 1660   8.631  41.122  12.052
33443W        W 1661  41.881  27.158  13.385
33444W        W 1662  26.986   6.970   1.856
33445W        W 1663  30.267  37.510  14.517
33446W        W 1664  26.821  38.976   4.642
33447W        W 1665  30.115  22.553   3.787
33448W        W 1666  37.310  30.602  10.380
33449W        W 1667   7.706   6.787  10.724
33450W        W 1668   3.399  22.361   2.969
33451W        W 1669  34.887  21.453  12.529
33452W        W 1670  43.646  19.208   2.798
33453W        W 1671  16.665  23.139   4.731
33454W        W 1672  34.322  32.257   3.751
33455W        W 1673  16.313   1.648  14.554
33456W        W 1674   3.266  22.088   4.682
33457W        W 1675  26.052   9.667  12.367
33458W        W 1676  40.401   9.840   0.541
33459W        W 1677   2.984  24.684   4.713
33460W        W 1678  13.261  10.653   4.272
33461W        W 1679  25.675  29.423   4.070
33462W        W 1680  24.609   6.258  10.897
33463W        W 1681   9.332   7.279  10.945
33464W        W 1682  38.534  17.085   1.848
33465W        W 1683  40.731  36.836   3.691
33466W        W 1684  39.048  18.268  12.950
33467W        W 1685  20.171  14.828  13.622
33468W        W 1686   9.310  37.134  13.345
33469W        W 1687  10.773  28.770  13.299
33470W        W 1688  42.539   5.660   4.763
33471W        W 1689  28.389  41.897   3.218
33472W        W 1690  15.719  39.305   3.700
33473W        W 1691   4.445  21.277   1.023
33474W        W 1692  16.207   8.209   0.271
33475W        W 1693  26.858  43.812   3.689
33476W        W 1694  15.393  19.283   3.202
33477W        W 1695  42.269   9.298  14.510
33478W        W 1696  26.263  20.253  14.389
33479W        W 1697   8.268   5.301   4.562
33480W        W 1698  43.149  18.726  14.093
33481W        W 1699  35.893  21.775  14.021
33482W        W 1700  37.467  13.749  14.420
33483W        W 1701  23.061  24.594   1.442
33484W        W 1702  34.628  40.951  13.771
33485W        W 1703   1.690  11.819  14.904
33486W        W 1704  10.049  16.681  11.948
33487W        W 1705  11.914  14.272  14.740
33488W        W 1706  15.878  33.000  10.661
33489W        W 1707  33.915  34.738  12.822
33490W        W 1708  13.058  31.329   4.507
33491W        W 1709  41.987   4.818  11.168
33492W        W 1710  42.114  16.916   1.988
33493W        W 1711  34.663   9.700  13.357
33494W        W 1712  21.119  12.662   2.822
33495W        W 1713  28.981  41.095  13.800
33496W        W 1714  19.669  15.655  13.727
33497W        W 1715  21.154  15.533   4.895
33498W        W 1716   4.532  17.362  11.544
33499W        W 1717  30.971  35.132  12.051
33500W        W 1718  35.031  30.124  12.969
33501W        W 1719  15.270  37.991   4.253
33502W        W 1720  35.181  44.972  12.840
33503W        W 1721  22.639  13.592  13.345
33504W        W 1722  12.603  32.853   3.502
33505W        W 1723  18.209  27.367  14.792
33506W        W 1724   7.752  33.431  14.578
33507W        W 1725  13.147  36.866   0.430
33508W        W 1726   3.521  39.077   1.750
33509W        W 1727  35.355  25.580   3.705
33510W        W 1728  44.233  31.077  12.946
33511W        W 1729   9.139  18.699   3.356
33512W        W 1730  10.146  12.391  14.816
33513W        W 1731  15.436  20.713   1.904
33514W        W 1732  27.853  37.482   2.337
33515W        W 1733   8.810  44.929   3.607
33516W        W 1734  18.250  39.893  11.405
33517W        W 1735   8.451  34.610   3.222
33518W        W 1736  24.697  20.722  14.326
33519W        W 1737  29.654  34.895   1.335
33520W        W 1738  25.968  44.021  14.592
33521W        W 1739   8.170  25.702   2.668
33522W        W 1740  41.696  15.021  12.420
33523W        W 1741  31.083  23.439   4.031
33524W        W 1742  14.731  31.762  11.830
33525W        W 1743   3.359  36.364   2.967
33526W        W 1744  21.723   8.810   2.156
33527W        W 1745  22.748  21.728  14.761
33528W        W 1746   6.485   5.430   3.005
33529W        W 1747  12.338   9.667   3.300
33530W        W 1748   4.237  39.109  11.494
33531W        W 1749   9.557  41.906   3.206
33532W        W 1750  44.486  25.754  13.481
33533W        W 1751  34.868  44.772  13.801
33534W        W 1752  31.571   9.780   2.330
33535W        W 1753  21.591  16.662  10.948
33536W        W 1754  36.886  16.564  11.145
33537W        W 1755   4.928   5.748   2.814
33538W        W 1756  21.238   4.848   2.161
33539W        W 1757  29.282  27.069   3.786
33540W        W 1758  41.080   8.136  12.111
33541W        W 1759  30.636  13.839  14.181
33542W        W 1760  26.051  21.492   9.860
33543W        W 1761  32.025   6.606   4.854
33544W        W 1762   4.297   3.951  13.082
33545W        W 1763  12.113  14.555  12.976
33546W        W 1764   7.727  25.647   2.407
33547W        W 1765  33.754   5.754  10.201
33548W        W 1766  12.620  35.909  11.225
33549W        W 1767  43.960  41.973   3.175
33550W        W 1768   5.621  35.906   1.652
33551W        W 1769  32.414  42.330   2.884
33552W        W 1770  34.565  18.319  14.435
33553W        W 1771  39.395  14.770  14.981
33554W        W 1772  26.176  27.526  11.114
33555W        W 1773   1.293  41.901   4.677
33556W        W 1774   3.853  36.062  12.364
33557W        W 1775  39.800  37.068   0.310
33558W        W 1776  43.237  13.210   0.790
33559W        W 1777   2.785  37.858  14.037
33560W        W 1778  40.624  10.863  13.596
33561W        W 1779   6.184  38.004  13.969
33562W        W 1780   1.119  37.333  14.767
33563W        W 1781  34.148  11.929   2.271
33564W        W 1782  34.866  24.157   5.060
33565W        W 1783   2.763   0.061   1.194
33566W        W 1784  31.720   3.246  12.992
33567W        W 1785   8.265  40.891  11.002
33568W        W 1786  18.015  14.801   1.295
33569W        W 1787   9.744  41.522   2.698
33570W        W 1788  38.970  43.269   0.344
33571W        W 1789  22.591  14.569  13.441
33572W        W 1790  10.399  16.400   4.583
33573W        W 1791  11.543   0.534   2.173
33574W        W 1792  33.176  33.482   4.101
33575W        W 1793  24.481  16.208  10.602
33576W        W 1794  13.293  22.186   2.433
33577W        W 1795   5.075  27.424  13.429
33578W        W 1796  42.594  13.553  12.863
33579W        W 1797  32.092  43.984  13.537
33580W        W 1798  15.790  11.937  14.258
33581W        W 1799   3.870  35.830  10.530
33582W        W 1800  26.042  33.481   0.438
33583W        W 1801  34.673  16.744  12.269
33584W        W 1802  40.829  10.318  13.213
33585W        W 1803  31.439  14.276  12.080
33586W        W 1804  27.745  31.786   4.836
33587W        W 1805  39.001  35.037  10.935
33588W        W 1806  29.565   6.913  13.090
33589W        W 1807  30.345  23.536   0.368
33590W        W 1808  35.416   0.712  12.115
33591W        W 1809   1.174  42.973  12.620
33592W        W 1810  25.626   0.093  10.752
33593W        W 1811  28.308  38.163   1.004
33594W        W 1812   4.330  36.009   1.273
33595W        W 1813  42.885  15.706   1.304
33596W        W 1814  31.981  20.642   4.597
33597W        W 1815   4.763  35.419  11.669
33598W        W 1816  13.298   9.897   1.335
33599W        W 1817  37.076  21.696   0.430
33600W        W 1818  32.670   1.969  11.118
33601W        W 1819   5.963  25.466   1.970
33602W        W 1820   9.372  21.763   2.608
33603W        W 1821  12.195  30.005   3.025
33604W        W 1822  11.312  20.124   2.863
33605W        W 1823  12.603   5.103  11.584
33606W        W 1824   2.984  32.062   2.579
33607W        W 1825   5.017  44.891   2.920
33608W        W 1826  18.395  17.721  13.461
33609W        W 1827  37.829  17.252   1.165
33610W        W 1828  16.664   5.756  12.108
33611W        W 1829   7.039  36.001  14.359
33612W        W 1830  42.436  22.661  12.941
33613W        W 1831   3.341  34.030   0.316
33614W        W 1832  36.940  24.958   4.198
33615W        W 1833  42.823  42.240  11.585
33616W        W 1834  21.626   9.856  14.508
33617W        W 1835  29.497  33.982   3.759
33618W        W 1836  40.564  34.617  14.314
33619W        W 1837  39.648  25.151   0.437
33620W        W 1838  24.080  39.408  12.554
33621W        W 1839  41.824  33.556  10.350
33622W        W 1840  34.648  44.431  12.207
33623W        W 1841  23.541  13.159  14.243
33624W        W 1842   8.392  41.254   0.482
33625W        W 1843   6.795  27.734  14.089
33626W        W 1844  36.596  38.502   1.320
33627W        W 1845  26.691   0.474   4.602
33628W        W 1846  22.237  17.155   4.460
33629W        W 1847   9.066  43.844   0.605
33630W        W 1848   0.059   7.069   1.795
33631W        W 1849   9.354  13.699  12.536
33632W        W 1850   3.720  36.814   1.871
33633W        W 1851  30.350  23.778  14.225
33634W        W 1852  17.085  24.039  14.600
33635W        W 1853  26.970  23.621  11.203
33636W        W 1854  24.800  22.825   5.396
33637W        W 1855   6.803  16.319   1.807
33638W        W 1856   5.903  29.095  14.766
33639W        W 1857  43.867  27.258  11.387
33640W        W 1858  25.622  44.763   1.135
33641W        W 1859   8.774   7.835  12.961
33642W        W 1860  17.784  16.281  10.260
33643W        W 1861  33.304   9.261  11.140
33644W        W 1862  42.793  41.463   5.052
33645W        W 1863  18.507   1.535  12.445
33646W        W 1864   8.844  15.274  12.561
33647W        W 1865  39.678  26.624   2.094
33648W        W 1866  19.623  36.999   1.339
33649W        W 1867  27.909   8.097   0.008
33650W        W 1868   7.859   9.165  10.421
33651W        W 1869  10.194  34.849  10.609
33652W        W 1870   8.895  42.595  11.106
33653W        W 1871  28.468  30.846  10.718
33654W        W 1872   6.505  25.015  10.337
33655W        W 1873   3.372  25.805  12.054
33656W        W 1874   2.065  17.902   3.213
33657W        W 1875  36.420  37.984   3.373
33658W        W 1876  11.349  33.170  13.348
33659W        W 1877  22.200  40.334   0.188
33660W        W 1878   8.889  23.088  13.958
33661W        W 1879   5.552  21.229  12.914
33662W        W 1880  36.877   0.474   2.188
33663W        W 1881  32.000   2.380  14.841
33664W        W 1882  35.944   1.280  11.980
33665W        W 1883  36.101  19.970  12.757
33666W        W 1884   1.626  37.351  14.878
33667W        W 1885  39.612  28.014  14.324
33668W        W 1886  29.257  34.383  11.264
33669W        W 1887  33.169  25.376   4.266
33670W        W 1888  21.223  13.709  14.942
33671W        W 1889  15.322  10.141   1.266
33672W        W 1890  44.752  13.376   2.890
33673W        W 1891   0.203   0.881  10.748
33674W        W 1892  32.075  27.011   0.329
33675W        W 1893  14.970  35.850  12.557
33676W        W 1894   0.361  29.732   1.345
33677W        W 1895   8.059   4.235  13.081
33678W        W 1896  23.018  13.564  12.954
33679W        W 1897  40.615   9.176  12.145
33680W        W 1898  16.779  32.482  10.510
33681W        W 1899  28.646  36.105  14.476
33682W        W 1900  20.980  24.162  13.844
33683W        W 1901  42.387   9.348   4.894
33684W        W 1902  32.414  29.536   2.648
33685W        W 1903  14.011  29.285  12.634
33686W        W 1904  10.903   7.262   2.154
33687W        W 1905  39.797  41.208   2.784
33688W        W 1906   3.999  40.388   2.315
33689W        W 1907  15.120  27.526   2.783
33690W        W 1908   6.409  41.188  14.810
33691W        W 1909  42.886   4.189  12.900
33692W        W 1910  32.468  19.026   4.891
33693W        W 1911  36.151  17.144  11.153
33694W        W 1912  37.112  28.961  14.476
33695W        W 1913  26.014  35.100  14.873
33696W        W 1914   5.287  15.135   2.249
33697W        W 1915   3.728  31.878  13.390
33698W        W 1916   9.621  13.840   3.610
33699W        W 1917  22.642  19.314   0.813
33700W        W 1918  14.375  26.351   0.348
33701W        W 1919  26.659  38.934   3.769
33702W        W 1920  21.351   9.439  14.818
33703W        W 1921  12.966  10.372  12.194
33704W        W 1922  12.062  33.467   4.743
33705W        W 1923  36.597  26.783  12.619
33706W        W 1924  36.944  38.490  12.771
33707W        W 1925   6.662   5.089   2.651
33708W        W 1926  16.211  24.998   1.268
33709W        W 1927  41.339   2.230  11.018
33710W        W 1928  42.655  36.990  12.399
33711W        W 1929  28.066  30.658  13.424
33712W        W 1930  17.211  28.497  12.827
33713W        W 1931  18.192  31.158  11.696
33714W        W 1932  39.020  19.183   4.558
33715W        W 1933   6.637   1.778  10.508
33716W        W 1934  25.248  43.512   3.827
33717W        W 1935  36.892  15.769   0.565
33718W        W 1936  32.258  14.683  11.194
33719W        W 1937   4.759  13.105  12.766
33720W        W 1938  41.420  13.765   3.895
33721W        W 1939  12.868  11.334  11.117
33722W        W 1940  34.342  21.184   3.223
33723W        W 1941  35.662  34.087  12.662
33724W        W 1942  12.915  25.547   0.814
33725W        W 1943  44.968  12.884   2.854
33726W        W 1944  27.100  14.059  12.650
33727W        W 1945  25.215  36.640   2.864
33728W        W 1946  34.028  39.867  13.906
33729W        W 1947  14.816  36.440   2.906
33730W        W 1948  25.558  16.844  12.444
33731W        W 1949  44.493  22.642  14.777
33732W        W 1950  28.980   3.488  11.566
33733W        W 1951   2.946   2.480   2.177
33734W        W 1952  36.942  34.780   3.101
33735W        W 1953  41.918  19.263   1.372
33736W        W 1954   4.657  27.235   2.777
33737W        W 1955  40.705   8.714   4.150
33738W        W 1956  33.670  16.107   0.379
33739W        W 1957  20.048   7.957  13.964
33740W        W 1958  23.000  12.048   0.360
33741W        W 1959  10.925   8.743   4.290
33742W        W 1960   9.926  39.351  13.884
33743W        W 1961  31.994   2.667   0.902
33744W        W 1962  18.282  21.192   3.000
33745W        W 1963  38.607   4.049   0.522
33746W        W 1964  39.444   5.871   2.830
33747W        W 1965  22.180  14.738   2.407
33748W        W 1966  10.310  21.678   1.360
33749W        W 1967  11.696  13.853  13.848
33750W        W 1968  31.826  13.484  11.408
33751W        W 1969  13.062   8.810  12.798
33752W        W 1970  42.661  14.119  13.643
33753W        W 1971  19.393  11.026  11.012
33754W        W 1972  19.110  28.967   1.399
33755W        W 1973  28.967  16.178   3.804
33756W        W 1974  39.802  32.532  10.880
33757W        W 1975  33.430   2.311   3.538
33758W        W 1976  38.738  41.738  14.827
33759W        W 1977  24.026   8.714  14.395
33760W        W 1978   1.413   3.779  13.447
33761W        W 1979  20.583  30.991   4.012
33762W        W 1980  22.245  40.824   4.031
33763W        W 1981  29.233   9.548   4.236
33764W        W 1982  31.505   1.993  12.422
33765W        W 1983   0.497  39.011  10.558
33766W        W 1984  24.100  10.665  10.451
33767W        W 1985   2.469  44.755  14.821
33768W        W 1986   8.391  21.138  12.477
33769W        W 1987   9.430  25.205  13.346
33770W        W 1988   8.253  18.882  10.176
33771W        W 1989  10.201  28.996   3.666
33772W        W 1990  10.394  25.569  14.279
33773W        W 1991  34.697   4.617  10.535
33774W        W 1992  20.550   2.462   2.289
33775W        W 1993  44.807  30.508  12.451
33776W        W 1994  14.531  19.619  12.915
33777W        W 1995  13.356   7.439   0.297
33778W        W 1996  15.209   7.888  11.888
33779W        W 1997  14.194  32.924  12.070
33780W        W 1998   7.953  18.708   0.870
33781W        W 1999  11.394  29.020  13.282
33782W        W 2000  37.827   7.372  14.987
33783W        W 2001  35.382  13.690   4.554
33784W        W 2002  18.845  17.669   4.267
33785W        W 2003  14.601  42.451  12.631
33786W        W 2004   0.085   1.242   2.433
33787W        W 2005  30.545  44.936  11.986
33788W        W 2006   0.520  26.437  12.835
33789W        W 2007   1.290  21.817   4.529
33790W        W 2008   3.621  33.310   1.650
33791W        W 2009  31.830   8.635   2.421
33792W        W 2010  26.643   1.651  13.836
33793W        W 2011  23.551   1.813  11.497
33794W        W 2012  35.886  27.459   2.716
33795W        W 2013   7.779  26.426   0.814
33796W        W 2014   9.957  23.126  10.593
33797W        W 2015  22.029   5.895  14.365
33798W        W 2016  11.860  41.060   2.707
33799W        W 2017  27.832  26.967  13.867
33800W        W 2018   0.534  13.409  11.664
33801W        W 2019   1.053  33.089   3.312
33802W        W 2020  21.227   7.173  10.176
33803W        W 2021  33.797  38.285  14.308
33804W        W 2022  29.245  39.285  13.833
33805W        W 2023  20.546   0.318  11.602
33806W        W 2024  27.739  21.561  11.260
33807W        W 2025  17.361  10.238   0.695
33808W        W 2026  16.486   3.321  14.044
33809W        W 2027  44.369  19.729  14.888
33810W        W 2028  16.097  41.846  12.154
33811W        W 2029  41.286  21.618  11.573
33812W        W 2030  26.470  42.977  13.844
33813W        W 2031   5.877   2.790  14.036
33814W        W 2032   6.352  43.745   2.182
33815W        W 2033   5.684  18.034   5.084
33816W        W 2034  18.850  14.272   0.799
33817W        W 2035  13.661  17.610   3.656
33818W        W 2036   6.153  43.474   9.930
33819W        W 2037   0.820  18.087  13.784
33820W        W 2038  33.493  13.261  13.115
33821W        W 2039  10.814  27.465   0.360
33822W        W 2040  34.231  21.321   1.939
33823W        W 2041  24.879   8.857  10.853
33824W        W 2042  14.698  14.362  14.913
33825W        W 2043   8.370  28.288  14.348
33826W        W 2044  27.156  34.744  14.578
33827W        W 2045  15.142  27.876  14.425
33828W        W 2046   7.646  42.983  13.019
33829W        W 2047  12.552  31.663   2.083
33830W        W 2048   8.399  36.324   3.735
33831W        W 2049  25.494  27.753   2.310
33832W        W 2050   3.933   4.160   1.874
33833W        W 2051  22.236  20.536  11.925
33834W        W 2052  11.096   5.825   3.188
33835W        W 2053  21.806  35.641  14.725
33836W        W 2054  24.490  16.520  11.032
33837W        W 2055  10.345  13.607   0.502
33838W        W 2056  25.241  27.605  14.813
33839W        W 2057  44.571   3.425   0.327
33840W        W 2058   7.199  35.260  14.871
33841W        W 2059  19.632  25.241   0.015
33842W        W 2060  11.657  12.955   4.447
33843W        W 2061  42.660  41.459   0.409
33844W        W 2062   1.963  40.299   3.612
33845W        W 2063  16.693  14.349   4.252
33846W        W 2064  26.245  14.009  11.043
33847W        W 2065  38.733  36.577  13.120
33848W        W 2066  10.427  37.388  10.660
33849W        W 2067  40.965  20.162  13.948
33850W        W 2068  34.344  12.515  13.403
33851W        W 2069  27.169   4.921   4.218
33852W        W 2070  12.122  10.160  11.084
33853W        W 2071  38.424  38.008  13.381
33854W        W 2072  14.641  40.148   3.554
33855W        W 2073  27.133  30.904  13.009
33856W        W 2074  16.324  31.080  14.727
33857W        W 2075  30.128   2.286  12.933
33858W        W 2076  20.522  28.667  10.754
33859W        W 2077  23.641  17.617  14.513
33860W        W 2078  23.458  10.412  13.564
33861W        W 2079   7.404  25.076  14.249
33862W        W 2080  26.434  26.100  13.783
33863W        W 2081   4.563  10.068  12.394
33864W        W 2082  44.693  13.598  11.423
33865W        W 2083  33.386  29.708   3.756
33866W        W 2084  21.516  38.481  12.199
33867W        W 2085  10.781  21.729  11.680
33868W        W 2086   6.772  44.525   2.635
33869W        W 2087  32.823  11.743   0.953
33870W        W 2088   7.947   2.108   5.007
33871W        W 2089  17.821  32.385   1.229
33872W        W 2090  38.823  40.734   0.962
33873W        W 2091  29.116   7.309   1.801
33874W        W 2092  41.466  10.330  13.696
33875W        W 2093   5.051   7.927   5.162
33876W        W 2094  39.774  22.141  10.909
33877W        W 2095  26.074  24.651   1.179
33878W        W 2096  12.406  17.864  12.139
33879W        W 2097   9.384  41.916   2.252
33880W        W 2098  26.097  24.624   3.631
33881W        W 2099  30.897   6.096  12.000
33882W        W 2100  16.221  24.131   0.835
33883W        W 2101  42.814  32.090  11.958
33884W        W 2102  27.179  13.346   0.256
33885W        W 2103   2.198  40.971  10.749
33886W        W 2104  15.726  10.662   1.298
33887W        W 2105  29.496   5.366   2.188
33888W        W 2106  16.647  23.738  13.034
33889W        W 2107  11.220  44.317   2.417
33890W        W 2108  28.278  24.298  10.458
33891W        W 2109   9.727  26.355   3.836
33892W        W 2110  19.317   1.197  14.852
33893W        W 2111  23.907   0.936   1.886
33894W        W 2112  26.970  21.715  12.396
33895W        W 2113   8.318  44.293   1.724
33896W        W 2114  22.616   2.295   1.763
33897W        W 2115  38.690   0.578   5.094
33898W        W 2116   2.170  39.827   3.592
33899W        W 2117  12.033   7.155  11.594
33900W        W 2118  23.951  36.358  13.400
33901W        W 2119  42.721  25.085  13.566
33902W        W 2120  14.005  13.886   1.715
33903W        W 2121   4.761  17.964   2.654
33904W        W 2122  31.131  10.059   2.417
33905W        W 2123  27.597  13.249   2.300
33906W        W 2124  24.677  10.713   1.409
33907W        W 2125  18.022  17.568   4.810
33908W        W 2126  35.314  15.499   0.403
33909W        W 2127  17.021  34.494   0.726
33910W        W 2128   4.436   0.255  13.942
33911W        W 2129  33.135  26.143  12.162
33912W        W 2130  39.973  29.229  14.766
33913W        W 2131  18.136  44.326  11.201
33914W        W 2132  31.370  28.669   2.809
33915W        W 2133  42.361  33.792   3.402
33916W        W 2134  42.453   0.351   0.453
33917W        W 2135   5.663  14.770  12.485
33918W        W 2136  20.107  38.015  13.114
33919W        W 2137  39.413  43.778  13.076
33920W        W 2138  13.551   0.845   0.339
33921W        W 2139   2.445   2.410  13.866
33922W        W 2140  12.401  12.884   3.612
33923W        W 2141  16.175  10.653   2.030
33924W        W 2142  23.386   3.327  10.278
33925W        W 2143  15.118  25.999   3.277
33926W        W 2144  19.017  19.312  14.958
33927W        W 2145  11.928  12.223  12.821
33928W        W 2146   8.611  20.682  12.436
33929W        W 2147  35.617  20.267   4.577
33930W        W 2148   8.234  14.520  12.961
33931W        W 2149  19.085  26.266  10.702
33932W        W 2150  28.973   1.703   3.823
33933W        W 2151  27.117  29.893  12.920
33934W        W 2152   8.605  34.434  11.099
33935W        W 2153  24.984  16.218  10.607
33936W        W 2154  16.785  15.839  11.946
33937W        W 2155   3.950  42.545  12.710
33938W        W 2156  32.581  17.472  11.049
33939W        W 2157  23.949  34.619  12.014
33940W        W 2158   8.825  15.662  10.807
33941W        W 2159  43.954  38.353  13.325
33942W        W 2160  38.943  16.254   2.864
33943W        W 2161  33.270  18.516   2.864
33944W        W 2162   1.959  23.908  10.716
33945W        W 2163   2.385  26.233   1.856
33946W        W 2164  40.429  17.038   1.171
33947W        W 2165   9.941   8.229  10.983
33948W        W 2166   4.140  37.046   2.155
33949W        W 2167  24.292  19.046  14.399
33950W        W 2168  43.329  12.285   1.457
33951W        W 2169  23.765  42.077  13.997
33952W        W 2170   1.002  41.455   4.602
33953W        W 2171  18.021  16.765   2.879
33954W        W 2172  25.809  13.615  14.308
33955W        W 2173  39.144  31.131   0.106
33956W        W 2174   6.912  37.461   1.325
33957W        W 2175  13.596   1.700   1.364
33958W        W 2176  11.853  13.747   0.939
33959W        W 2177  28.672   7.319   0.110
33960W        W 2178  37.462  18.338   2.591
33961W        W 2179   8.240   5.887   3.311
33962W        W 2180   2.689  13.567   3.969
33963W        W 2181  28.431  13.546   2.188
33964W        W 2182   6.413  28.170  13.989
33965W        W 2183  19.162  13.305  12.593
33966W        W 2184  41.437  21.247   0.914
33967W        W 2185  21.465  17.672  11.474
33968W        W 2186   3.919  19.547  14.727
33969W        W 2187  38.776  44.428   2.374
33970W        W 2188  16.882  37.540   4.387
33971W        W 2189  12.075  41.441   4.879
33972W        W 2190  17.355  14.852   0.281
33973W        W 2191  21.025  44.803   1.850
33974W        W 2192  11.099  23.944  13.364
33975W        W 2193  28.165  10.546   4.270
33976W        W 2194  14.538   6.930  14.511
33977W        W 2195  34.843  42.793  13.491
33978W        W 2196  27.842   4.395   1.303
33979W        W 2197   4.065  18.229  11.965
33980W        W 2198  37.654  38.907  14.395
33981W        W 2199  34.131  37.965   2.358
33982W        W 2200  28.669  33.055  11.859
33983W        W 2201   3.188   0.793   3.588
33984W        W 2202  18.261  33.815   4.209
33985W        W 2203  12.302   0.434   3.572
33986W        W 2204  37.037  34.518   1.756
33987W        W 2205  11.596  15.047   2.674
33988W        W 2206   7.401  22.784  14.527
33989W        W 2207   0.475  21.443   1.402
33990W        W 2208  27.719   2.682   4.345
33991W        W 2209  44.892  12.837  11.929
33992W        W 2210   8.924  20.280   3.605
33993W        W 2211   8.492  22.134  12.631
33994W        W 2212  17.133   6.640   2.334
33995W        W 2213   8.846   2.491  10.582
33996W        W 2214  12.861  40.059  13.832
33997W        W 2215  44.396   3.945   2.310
33998W        W 2216  44.371  28.938   1.946
33999W        W 2217  28.714  34.834  14.073
34000W        W 2218  16.637  17.222   2.599
34001W        W 2219  18.617   1.828  11.174
34002W        W 2220   6.285  35.884  10.294
34003W        W 2221  20.242   6.925   2.769
34004W        W 2222  24.725  40.108   4.932
34005W        W 2223  24.333  37.385  11.406
34006W        W 2224  34.877  31.841  13.954
34007W        W 2225   9.632   5.759   3.108
34008W        W 2226  27.969  43.492  11.595
34009W        W 2227  39.455  31.899  12.177
34010W        W 2228   5.260  31.640   1.445
34011W        W 2229  21.170  20.098   4.268
34012W        W 2230  24.452   2.472   1.796
34013W        W 2231  36.075  22.710  11.510
34014W        W 2232  19.654  40.966   0.068
34015W        W 2233  41.571  20.353   2.227
34016W        W 2234  13.618  38.061  10.650
34017W        W 2235  33.938  36.508   1.248
34018W        W 2236  24.657   7.912  14.343
34019W        W 2237   5.235   3.899   4.041
34020W        W 2238  35.928  20.253   1.831
34021W        W 2239  31.240   8.440   1.726
34022W        W 2240  10.763   9.497   4.983
34023W        W 2241  33.963  31.004   1.693
34024W        W 2242  26.592  11.973   2.853
34025W        W 2243  17.145  13.095  11.017
34026W        W 2244  28.945  42.533   1.370
34027W        W 2245  42.368  26.245   1.035
34028W        W 2246  21.473  36.514  13.819
34029W        W 2247  12.207  19.204  11.771
34030W        W 2248  26.982  43.943  14.462
34031W        W 2249  28.171  35.411  11.955
34032W        W 2250  14.747  35.815  12.089
34033W        W 2251  35.102  17.625  14.287
34034W        W 2252   6.803   9.190   0.481
34035W        W 2253   4.291  19.374   1.511
34036W        W 2254  22.271  10.648   3.594
34037W        W 2255   2.276  35.262  12.112
34038W        W 2256  15.640   7.615  11.922
34039W        W 2257  23.096  24.616   3.224
34040W        W 2258  28.258  30.562   4.543
34041W        W 2259  11.251  27.949   4.755
34042W        W 2260  11.642  39.266  13.511
34043W        W 2261  31.680  13.038  13.299
34044W        W 2262  36.286  30.688  10.316
34045W        W 2263  42.878   9.041  12.469
34046W        W 2264  32.541   1.753  10.286
34047W        W 2265   9.899  32.623   0.815
34048W        W 2266  13.713  35.403  11.020
34049W        W 2267  36.324  33.987   0.690
34050W        W 2268   1.691  28.694   3.716
34051W        W 2269   8.421  15.633   0.336
34052W        W 2270  34.449  10.170   3.332
34053W        W 2271  36.255  18.896   1.194
34054W        W 2272  33.039  43.905  12.060
34055W        W 2273  35.791  27.628  12.848
34056W        W 2274  23.660  32.678  12.590
34057W        W 2275   4.475  20.699   3.568
34058W        W 2276   2.050  27.087   3.192
34059W        W 2277  24.121  30.189  13.390
34060W        W 2278  17.979  31.067  10.895
34061W        W 2279  30.338  42.072   4.759
34062W        W 2280  16.726  40.284  11.687
34063W        W 2281  38.813  22.007   1.263
34064W        W 2282  21.135  29.333  14.826
34065W        W 2283  21.238   7.700   4.140
34066W        W 2284  10.669   5.465  12.080
34067W        W 2285  32.167  39.792  11.761
34068W        W 2286  12.178  13.361  14.939
34069W        W 2287  37.506  28.108  13.037
34070W        W 2288  42.390  35.894  13.836
34071W        W 2289  44.823  27.169  11.202
34072W        W 2290  31.102   6.500   0.805
34073W        W 2291   7.660  44.306   0.903
34074W        W 2292  10.904   6.618  11.168
34075W        W 2293  31.729  39.028  10.633
34076W        W 2294  36.288   2.026   4.629
34077W        W 2295   5.782  36.463  13.356
34078W        W 2296  31.487  44.711  11.065
34079W        W 2297  21.303  26.551  14.964
34080W        W 2298   5.381  10.572   3.796
34081W        W 2299  24.006  39.617   4.077
34082W        W 2300  21.762   7.388  14.453
34083W        W 2301  29.015   5.291   5.048
34084W        W 2302  20.576  35.130  12.321
34085W        W 2303  44.600  13.909   1.255
34086W        W 2304  42.791   6.935  11.893
34087W        W 2305  12.637  22.995   4.110
34088W        W 2306   9.269   6.276  11.475
34089W        W 2307  44.904  15.107  12.090
34090W        W 2308  11.029  35.113   4.505
34091W        W 2309  43.978  31.414   2.386
34092W        W 2310  42.466  14.785   0.920
34093W        W 2311  18.172   3.440  13.416
34094W        W 2312  44.020  16.630   0.285
34095W        W 2313  13.763  37.267  12.543
34096W        W 2314  10.827   7.232  14.821
34097W        W 2315  26.595  20.558  14.047
34098W        W 2316  34.448  18.328   2.389
34099W        W 2317  43.326  37.324  12.831
34100W        W 2318  16.514  24.220  13.292
34101W        W 2319  42.903  26.941   0.739
34102W        W 2320  29.919   3.198   3.267
34103W        W 2321  42.819  14.166   1.251
34104W        W 2322  35.925   9.043  13.892
34105W        W 2323  22.784  16.515  10.091
34106W        W 2324  14.194  12.659   0.294
34107W        W 2325  29.698  16.276  13.266
34108W        W 2326  27.294   6.305  13.316
34109W        W 2327  17.034   8.894   2.682
34110W        W 2328  31.732  11.357  12.818
34111W        W 2329  22.503  34.818  14.368
34112W        W 2330  41.088  14.297   3.290
34113W        W 2331  43.266   3.975  11.673
34114W        W 2332  40.892  26.197  13.743
34115W        W 2333  21.759   3.217  13.367
34116W        W 2334   4.203  39.991   3.605
34117W        W 2335  33.424  30.083   3.357
34118W        W 2336  17.715  24.697   4.684
34119W        W 2337  38.035  31.940  14.699
34120W        W 2338   8.748  11.463   3.242
34121W        W 2339   8.595  17.102   3.551
34122W        W 2340  39.547   5.016   1.372
34123W        W 2341  20.990  25.218  14.747
34124W        W 2342  22.275  15.319   3.560
34125W        W 2343   5.390  20.039  10.721
34126W        W 2344  23.078  39.456  13.452
34127W        W 2345  10.321   1.699  14.396
34128W        W 2346  12.402  33.049   1.337
34129W        W 2347   1.888  20.927   4.946
34130W        W 2348  10.109   7.311  11.925
34131W        W 2349  43.393  39.382  11.353
34132W        W 2350  35.509  33.511  12.838
34133W        W 2351  17.076   0.588   1.688
34134W        W 2352   9.607  18.919  14.740
34135W        W 2353  21.957   3.147  12.848
34136W        W 2354  39.320  26.036  13.867
34137W        W 2355  16.016  18.597   0.419
34138W        W 2356  26.958  29.933  10.502
34139W        W 2357  15.257  42.734  14.739
34140W        W 2358  19.066  22.176   4.142
34141W        W 2359  22.412  12.101   4.620
34142W        W 2360  41.467  40.846   0.271
34143W        W 2361   8.390  35.837   2.411
34144W        W 2362  30.494  40.264  11.261
34145W        W 2363  21.060   6.229   3.138
34146W        W 2364   3.406  40.211   2.760
34147W        W 2365  36.111  20.754   4.211
34148W        W 2366  19.221   7.199   4.543
34149W        W 2367  10.309   3.802  13.937
34150W        W 2368   7.311   9.883  14.803
34151W        W 2369   4.943  17.312   3.222
34152W        W 2370  25.176  40.503  14.678
34153W        W 2371  30.443   3.933   3.410
34154W        W 2372  41.314  43.144   3.688
34155W        W 2373   4.261  36.994  11.624
34156W        W 2374  15.073  34.549  13.002
34157W        W 2375   1.919  16.530   2.269
34158W        W 2376  39.817  32.594   0.344
34159W        W 2377  25.721  32.063   1.267
34160W        W 2378  22.230  24.005  13.611
34161W        W 2379  19.504  33.336  11.189
34162W        W 2380  23.460  17.052   0.383
34163W        W 2381  20.058  41.334   2.347
34164W        W 2382  23.752  40.241  11.142
34165W        W 2383  35.765  42.020  13.348
34166W        W 2384  37.123   5.390  12.053
34167W        W 2385  21.130   2.865   0.432
34168W        W 2386   4.880  18.874   3.161
34169W        W 2387  33.565  33.408  13.803
34170W        W 2388  22.148   9.589   0.215
34171W        W 2389  34.556   6.554   3.179
34172W        W 2390  27.858  36.554   4.520
34173W        W 2391  37.671   1.253   3.788
34174W        W 2392  22.495  20.475  14.412
34175W        W 2393  34.455  43.448  13.541
34176W        W 2394  12.695  29.445  10.633
34177W        W 2395  29.069   6.261  12.932
34178W        W 2396  16.061  43.716   4.586
34179W        W 2397  27.041   5.204  10.453
34180W        W 2398   0.158  10.683  14.001
34181W        W 2399  27.914  22.570   0.811
34182W        W 2400  31.552   5.210   0.846
34183W        W 2401  36.838  20.673  12.532
34184W        W 2402  32.499  37.467  14.598
34185W        W 2403  36.886  17.203   1.524
34186W        W 2404  39.841  15.230  13.290
34187W        W 2405  40.723   3.837   4.297
34188W        W 2406  29.405  22.204  10.705
34189W        W 2407  10.455  36.837   3.092
34190W        W 2408  30.361  35.027   4.659
34191W        W 2409  26.164  42.065  10.922
34192W        W 2410  10.243  27.160  10.924
34193W        W 2411  15.639  35.523  11.501
34194W        W 2412  19.387   7.150  11.596
34195W        W 2413   3.915  24.792   4.993
34196W        W 2414   2.844  22.160  12.701
34197W        W 2415  16.855  35.562   2.471
34198W        W 2416  12.562  42.840   2.448
34199W        W 2417  11.170  33.152  11.547
34200W        W 2418  16.353  37.600  11.512
34201W        W 2419  28.603   0.503   0.309
34202W        W 2420  10.356  42.086   2.287
34203W        W 2421   5.635  16.041  13.574
34204W        W 2422  27.225  34.876   4.048
34205W        W 2423  11.078   3.844   3.629
34206W        W 2424   3.171   1.836   0.971
34207W        W 2425   7.367  44.376   0.389
34208W        W 2426  41.168  43.027   4.593
34209W        W 2427   8.827  26.665   4.062
34210W        W 2428  37.060  32.578  12.086
34211W        W 2429  22.359  28.438  12.533
34212W        W 2430  36.098  36.794   2.313
34213W        W 2431  13.209  34.473   2.609
34214W        W 2432  13.044  28.117   0.360
34215W        W 2433  17.529   8.720  10.356
34216W        W 2434   4.200  40.869   1.750
34217W        W 2435  24.790   9.880  13.728
34218W        W 2436   7.958  24.572   0.994
34219W        W 2437  18.065  13.068   1.812
34220W        W 2438  13.616   3.750  10.476
34221W        W 2439   7.559   4.437   4.168
34222W        W 2440  22.241   8.182  11.068
34223W        W 2441  21.176  19.584   0.714
34224W        W 2442  25.212  35.842  13.764
34225W        W 2443   5.174  16.303  11.060
34226W        W 2444  27.741   8.545   0.267
34227W        W 2445   1.355  21.933  11.218
34228W        W 2446  36.931  24.173  11.982
34229W        W 2447  24.063  10.414  11.114
34230W        W 2448  25.402  31.592   2.005
34231W        W 2449  21.065  19.371  10.426
34232W        W 2450  30.178  13.638  11.963
34233W        W 2451  23.633  31.180  14.363
34234W        W 2452  39.122  28.602   0.895
34235W        W 2453  29.962  13.813  12.432
34236W        W 2454  15.784  18.191   3.941
34237W        W 2455   9.008  40.513   0.534
34238W        W 2456  23.542   2.852  12.352
34239W        W 2457  24.707  36.308  12.092
34240W        W 2458   0.830   7.328   0.698
34241W        W 2459  44.568  13.058  10.757
34242W        W 2460  28.437  14.211   2.822
34243W        W 2461  20.031   5.658  11.165
34244W        W 2462  38.036  33.163  14.405
34245W        W 2463  33.564  36.611  13.051
34246W        W 2464  33.073  34.979   3.673
34247W        W 2465   9.987  18.940   1.405
34248W        W 2466  20.713  40.263  11.052
34249W        W 2467  18.654  16.392  13.463
34250W        W 2468  39.269  33.686   2.203
34251W        W 2469  21.857  34.375   3.624
34252W        W 2470  44.246  26.213  14.202
34253W        W 2471  33.495  38.533   3.211
34254W        W 2472  34.074  32.357   4.648
34255W        W 2473   3.959  12.570   3.278
34256W        W 2474  38.842   5.019   4.227
34257W        W 2475  11.923  37.343  12.517
34258W        W 2476  10.619  33.022  11.512
34259W        W 2477  23.040  32.169  10.549
34260W        W 2478   2.988  30.210  10.722
34261W        W 2479   4.924  36.485   3.263
34262W        W 2480  27.198  17.804  11.125
34263W        W 2481  37.968  11.591   3.561
34264W        W 2482  19.729  14.121   0.180
34265W        W 2483  13.744  43.146  12.808
34266W        W 2484   7.522  44.194   1.745
34267W        W 2485  31.437   3.109  10.321
34268W        W 2486  16.615  18.371   1.264
34269W        W 2487  41.966  32.033  12.498
34270W        W 2488   0.991   9.086  10.677
34271W        W 2489  23.214  20.301   1.813
34272W        W 2490  19.502   6.220   4.090
34273W        W 2491  31.067   1.507  13.084
34274W        W 2492  29.540   8.640  13.244
34275W        W 2493  44.274  32.277   0.351
34276W        W 2494  26.192  44.869   1.888
34277W        W 2495  41.498  38.925   2.265
34278W        W 2496  34.462   5.783  13.851
34279W        W 2497  42.292  32.318   1.385
34280W        W 2498   0.328  44.979  12.090
34281W        W 2499   0.456  43.780   1.351
34282W        W 2500  20.242  19.543  14.772
34283W        W 2501  24.235  19.247   0.821
34284W        W 2502  25.028  19.079   1.372
34285W        W 2503  29.140   4.400   1.719
34286W        W 2504  29.556  10.122  10.926
34287W        W 2505  39.065  35.748  10.233
34288W        W 2506  34.609  34.415   0.591
34289W        W 2507  39.885  29.974   2.450
34290W        W 2508   4.963  30.687  14.242
34291W        W 2509  29.578  17.866   0.768
34292W        W 2510  37.259  28.518  12.874
34293W        W 2511  22.057   9.891  10.383
34294W        W 2512  17.333  32.466   1.351
34295W        W 2513  29.689  44.866  14.864
34296W        W 2514  31.436  14.175   4.841
34297W        W 2515  38.303  22.062   1.355
34298W        W 2516   3.674   1.498  11.945
34299W        W 2517  12.772  14.250   1.858
34300W        W 2518  31.517  11.587  12.113
34301W        W 2519  44.246  43.466   3.259
34302W        W 2520  43.042  21.874  12.259
34303W        W 2521  32.043  44.501   4.994
34304W        W 2522   2.891  32.915  12.187
34305W        W 2523  30.911  16.257   4.130
34306W        W 2524  33.148  43.589  11.629
34307W        W 2525  16.664  44.727  14.927
34308W        W 2526   0.031  33.031  14.538
34309W        W 2527  16.355  36.537  14.017
34310W        W 2528  26.391  15.680  12.309
34311W        W 2529  30.900  13.034  10.680
34312W        W 2530  13.347  12.715   4.401
34313W        W 2531  32.505  41.562   3.440
34314W        W 2532  11.359  16.198   1.727
34315W        W 2533  19.683   8.796   1.213
34316W        W 2534   9.805  29.387   3.724
34317W        W 2535  33.406  30.744  13.439
34318W        W 2536  11.718  17.616   2.688
34319W        W 2537   8.930  20.587  12.051
34320W        W 2538  28.336  16.492   3.178
34321W        W 2539   9.315  22.412   1.444
34322W        W 2540  20.233  40.988  13.339
34323W        W 2541   2.351  30.490   4.626
34324W        W 2542  40.537   4.381   1.627
34325W        W 2543  11.779  13.445  12.091
34326W        W 2544   5.975   6.406  11.461
34327W        W 2545   0.214  14.067   5.141
34328W        W 2546  40.665  26.231  14.231
34329W        W 2547  21.135  24.011   3.331
34330W        W 2548  37.159  38.897  14.512
34331W        W 2549   6.403  40.987   2.218
34332W        W 2550   7.814  36.366  14.350
34333W        W 2551  10.428  41.497   4.038
34334W        W 2552  24.445   1.426  14.460
34335W        W 2553  20.186  10.417   0.013
34336W        W 2554  22.706  15.664   5.117
34337W        W 2555   0.978   6.137   3.614
34338W        W 2556   8.004  40.696   4.606
34339W        W 2557  39.889  11.110  14.011
34340W        W 2558  30.064   2.730   1.429
34341W        W 2559  33.844   9.785  12.493
34342W        W 2560  38.003  13.141   1.882
34343W        W 2561  29.679  40.364  11.698
34344W        W 2562  13.750  31.876   0.828
34345W        W 2563  14.642   4.817   3.399
34346W        W 2564  16.611   0.690   1.910
34347W        W 2565  24.829  11.743   2.030
34348W        W 2566  20.692  22.536   1.455
34349W        W 2567   8.813  11.095   2.462
34350W        W 2568  43.237   8.106   1.320
34351W        W 2569   5.425  29.206  11.164
34352W        W 2570  24.716  28.668   3.281
34353W        W 2571  17.387   3.038   0.952
34354W        W 2572   6.288  35.614  11.554
34355W        W 2573  21.541  24.429  14.669
34356W        W 2574  35.584  20.669   3.219
34357W        W 2575  16.030   8.732   3.678
34358W        W 2576  10.329  10.297  12.421
34359W        W 2577  24.144  18.594   1.381
34360W        W 2578  23.334  18.768   0.789
34361W        W 2579   7.639  26.060  13.647
34362W        W 2580  44.807  41.907   0.879
34363W        W 2581  23.722  24.328   1.316
34364W        W 2582  27.271   8.822   2.686
34365W        W 2583   9.606  41.952   0.779
34366W        W 2584   1.735  42.458  12.048
34367W        W 2585  29.460   3.236  14.362
34368W        W 2586  43.424  10.150   4.578
34369W        W 2587   4.922  22.135   2.336
34370W        W 2588  32.378  11.296  11.875
34371W        W 2589  43.440  23.107  11.099
34372W        W 2590  11.201   2.428  13.098
34373W        W 2591  35.929   8.569  12.566
34374W        W 2592  42.353  40.800  14.865
34375W        W 2593   4.983  11.655   1.967
34376W        W 2594  21.163  30.102   4.571
34377W        W 2595  25.077   7.390   4.610
34378W        W 2596  17.324  35.854  10.777
34379W        W 2597  22.227  26.220   0.368
34380W        W 2598  19.677  33.580  11.592
34381W        W 2599  25.524   1.037  10.791
34382W        W 2600  14.867   4.241  14.807
34383W        W 2601   5.654  15.270   2.916
34384W        W 2602  14.642  32.685   0.366
34385W        W 2603  12.166  20.532  13.863
34386W        W 2604  18.407  12.035   0.871
34387W        W 2605  17.435  28.541   4.051
34388W        W 2606  22.678  20.770   1.062
34389W        W 2607  37.454  41.118   1.705
34390W        W 2608  43.829  23.225   3.706
34391W        W 2609  20.232  16.684  12.099
34392W        W 2610  17.158  41.198  12.762
34393W        W 2611   8.176  38.247   3.583
34394W        W 2612  39.649  15.070  14.595
34395W        W 2613   5.894  28.691   4.340
34396W        W 2614   0.858   8.412   3.728
34397W        W 2615  43.590  22.292  13.811
34398W        W 2616  14.713  30.156   1.889
34399W        W 2617  18.516   4.368   1.499
34400W        W 2618  33.812   4.837  14.287
34401W        W 2619  22.421  31.183  11.709
34402W        W 2620  35.895  12.512   4.669
34403W        W 2621   8.400   7.768   2.312
34404W        W 2622  44.295  36.025  14.293
34405W        W 2623  38.979   5.675   3.686
34406W        W 2624   6.510  10.038   2.627
34407W        W 2625  18.048  21.221   2.517
34408W        W 2626  34.471  31.820  14.285
34409W        W 2627  38.492  25.648   0.720
34410W        W 2628   3.837   0.726  12.572
34411W        W 2629   6.210  42.272   3.402
34412W        W 2630  26.898  22.000   1.846
34413W        W 2631  42.893  40.074   3.428
34414W        W 2632  39.475  31.749  13.448
34415W        W 2633   0.585  39.986  12.162
34416W        W 2634   3.148   5.969  10.140
34417W        W 2635  36.354   7.041   3.676
34418W        W 2636  10.402   6.689   1.148
34419W        W 2637   1.960  43.898   4.435
34420W        W 2638  39.900  26.726  11.706
34421W        W 2639  25.658  12.782  11.066
34422W        W 2640  22.379  34.255   1.854
34423W        W 2641   5.481  36.569   3.674
34424W        W 2642  28.400  16.070   1.133
34425W        W 2643   9.154  18.720  13.777
34426W        W 2644   9.708  20.452  11.158
34427W        W 2645   8.369  32.709   3.360
34428W        W 2646  14.202  34.938   2.082
34429W        W 2647  17.736  43.595  14.436
34430W        W 2648   3.157  32.483   0.399
34431W        W 2649   8.780   3.025   4.658
34432W        W 2650  38.298  26.010  13.917
34433W        W 2651  15.652  43.991  12.690
34434W        W 2652  19.796  35.375   2.303
34435W        W 2653  18.829  32.569   0.265
34436W        W 2654   6.948  10.112   2.359
34437W        W 2655  11.071  32.422   4.278
34438W        W 2656  37.493  26.864   2.847
34439W        W 2657  22.744  40.596  13.866
34440W        W 2658  33.235  28.038  14.655
34441W        W 2659  37.937  14.879  10.671
34442W        W 2660  17.048  14.182   1.150
34443W        W 2661  42.296  34.104   2.926
34444W        W 2662   5.381  34.581   1.785
34445W        W 2663  37.307  38.136  12.803
34446W        W 2664  44.469  10.806   1.906
34447W        W 2665   6.204  19.234  12.489
34448W        W 2666  26.627   5.119   3.341
34449W        W 2667  25.029  29.128  12.467
34450W        W 2668  19.338   2.289   0.822
34451W        W 2669  43.794   4.802  13.507
34452W        W 2670  13.733  23.984   2.697
34453W        W 2671   5.268  10.702  13.333
34454W        W 2672  27.944  24.601   0.990
34455W        W 2673  28.059  20.801   4.674
34456W        W 2674  11.854  42.787   0.148
34457W        W 2675  22.545  37.360  13.030
34458W        W 2676  32.604  11.338  10.397
34459W        W 2677  40.036  36.084  10.909
34460W        W 2678  22.770  32.389   0.086
34461W        W 2679  18.675  28.397  11.333
34462W        W 2680  34.859  40.039   2.295
34463W        W 2681  28.638  21.823   1.216
34464W        W 2682  16.324  28.436   1.940
34465W        W 2683   2.405  19.259  12.072
34466W        W 2684   3.467  18.859  14.438
34467W        W 2685  39.842   9.689   1.662
34468W        W 2686  42.487  20.105   4.724
34469W        W 2687  16.409  13.087  11.554
34470W        W 2688  18.148  32.650  12.394
34471W        W 2689   8.614  38.773  14.017
34472W        W 2690   3.371  14.892  14.876
34473W        W 2691  40.013  12.746   2.218
34474W        W 2692   8.401  44.085  13.986
34475W        W 2693  12.608   8.943   2.709
34476W        W 2694  22.162  16.472  14.753
34477W        W 2695  39.955  16.645   4.719
34478W        W 2696  15.565  34.310  14.248
34479W        W 2697  39.861   2.536   3.584
34480W        W 2698  23.041  12.316   2.195
34481W        W 2699  34.093   8.969  13.883
34482W        W 2700  28.701  40.929  10.775
34483W        W 2701  14.112   2.818  12.557
34484W        W 2702  40.304  36.252   0.438
34485W        W 2703  17.173  31.786   1.043
34486W        W 2704  39.874  35.286  12.992
34487W        W 2705  16.601  18.707   4.925
34488W        W 2706  19.091   2.198  12.488
34489W        W 2707   6.301   7.436  14.468
34490W        W 2708  40.522   3.878   2.454
34491W        W 2709  26.572  41.844  13.522
34492W        W 2710  18.621  29.479  11.389
34493W        W 2711  40.939  25.772   0.022
34494W        W 2712  32.591  23.770   3.150
34495W        W 2713  12.764  13.610   1.222
34496W        W 2714  30.170  17.463   0.139
34497W        W 2715   2.883  17.629  14.219
34498W        W 2716   4.663  16.153  11.014
34499W        W 2717  18.237   8.829   4.549
34500W        W 2718  39.337  43.642   1.882
34501W        W 2719   2.364  39.251   2.731
34502W        W 2720  32.417  20.535   3.161
34503W        W 2721  22.479  25.972   2.612
34504W        W 2722  21.699  26.485  11.612
34505W        W 2723  41.366  15.276  13.884
34506W        W 2724  25.258  27.878  13.119
34507W        W 2725  18.280  35.658  12.058
34508W        W 2726  40.796  40.932   0.624
34509W        W 2727  30.527  28.570   3.424
34510W        W 2728  32.465  10.772  10.723
34511W        W 2729  36.604  31.329   1.389
34512W        W 2730  25.600   4.166   4.244
34513W        W 2731  10.408  32.001   1.399
34514W        W 2732  31.136  32.478   4.619
34515W        W 2733  10.784   2.264   3.297
34516W        W 2734  38.714  23.965  14.795
34517W        W 2735  29.971  22.099   1.812
34518W        W 2736  16.812  42.645   3.689
34519W        W 2737  24.243  31.476   0.887
34520W        W 2738  24.608  31.756  12.257
34521W        W 2739  30.653  23.605  11.606
34522W        W 2740   0.458   6.582  13.063
34523W        W 2741  33.069  13.492  12.924
34524W        W 2742  43.970  13.099  13.835
34525W        W 2743  34.517  25.126  12.914
34526W        W 2744  12.291  40.365   3.069
34527W        W 2745  35.791  11.591   0.002
34528W        W 2746   3.364   2.507  13.852
34529W        W 2747  37.961  15.129   0.637
34530W        W 2748  38.900  17.290   2.715
34531W        W 2749  36.335  39.573  13.727
34532W        W 2750  37.261  18.552   1.206
34533W        W 2751  43.056   1.542  12.726
34534W        W 2752  39.939  25.547   1.027
34535W        W 2753   5.346  41.959  13.254
34536W        W 2754  44.439  38.845   0.422
34537W        W 2755  34.501  15.747  13.121
34538W        W 2756  21.742  25.494   0.724
34539W        W 2757  18.954  12.649   0.464
34540W        W 2758  27.858  38.486   2.439
34541W        W 2759   6.872  38.321   1.838
34542W        W 2760   1.310   3.988   0.270
34543W        W 2761  29.016  22.231  10.295
34544W        W 2762  29.008  43.299  10.549
34545W        W 2763  15.369  12.187  14.518
34546W        W 2764  13.305   8.620  11.902
34547W        W 2765  29.723  31.913   4.570
34548W        W 2766  12.731  39.437  13.071
34549W        W 2767  43.916  39.334   3.893
34550W        W 2768  29.418  17.385  10.733
34551W        W 2769  31.342   6.254   0.209
34552W        W 2770   6.379  39.483  13.488
34553W        W 2771  29.090  10.060   4.178
34554W        W 2772  21.216  13.714   1.831
34555W        W 2773  12.687  29.848   2.940
34556W        W 2774   6.809  37.044   2.207
34557W        W 2775  28.917  12.339   2.278
34558W        W 2776   7.502  14.510  13.539
34559W        W 2777   3.531  33.042  10.570
34560W        W 2778  40.287   6.827   3.599
34561W        W 2779  44.375  24.281   0.562
34562W        W 2780  28.157  17.808  14.915
34563W        W 2781  21.856   5.123   3.405
34564W        W 2782   9.616  34.347  14.340
34565W        W 2783  34.161  16.705  12.178
34566W        W 2784  39.495  41.530   1.001
34567W        W 2785  30.279   5.595  11.638
34568W        W 2786  26.144  14.506  12.647
34569W        W 2787  13.306   6.205  10.828
34570W        W 2788  11.337  22.346  11.966
34571W        W 2789  10.994  19.059  14.708
34572W        W 2790  42.930  25.111   0.428
34573W        W 2791  15.442  15.788  10.985
34574W        W 2792   0.463  31.758   4.029
34575W        W 2793  18.354  13.208  12.656
34576W        W 2794  22.814  37.652  13.395
34577W        W 2795   7.271  42.397  12.345
34578W        W 2796  32.594  23.732   4.144
34579W        W 2797  21.733  38.352   2.929
34580W        W 2798  18.688  20.889  12.787
34581W        W 2799  43.894  40.566   1.441
34582W        W 2800  14.474  44.933   1.709
34583W        W 2801   2.191  35.054  10.579
34584W        W 2802   4.716   7.846  11.982
34585W        W 2803   3.468   9.736   1.276
34586W        W 2804  14.372  28.548  13.487
34587W        W 2805  27.357  30.519  11.655
34588W        W 2806  43.884  11.522   2.013
34589W        W 2807  38.848  30.687   0.200
34590W        W 2808  22.143  28.559   4.526
34591W        W 2809  18.432  30.455   1.039
34592W        W 2810   8.129  27.210  14.096
34593W        W 2811  29.923  29.427  13.001
34594W        W 2812  38.536  21.636  14.533
34595W        W 2813  43.379  19.912  11.276
34596W        W 2814  12.282   2.934  12.474
34597W        W 2815  18.029  25.082  14.828
34598W        W 2816  25.195  40.211  12.124
34599W        W 2817  19.022  40.360  11.747
34600W        W 2818   7.860  24.119   2.134
34601W        W 2819  28.051  44.077   3.268
34602W        W 2820  38.831  11.074  14.257
34603W        W 2821  32.227   0.987   2.469
34604W        W 2822  31.175  14.546   1.478
34605W        W 2823  42.087  18.330  11.060
34606W        W 2824   6.134  40.946   1.767
34607W        W 2825  19.313  24.543   2.838
34608W        W 2826   5.816  31.054  12.518
34609W        W 2827  39.364   5.122   9.791
34610W        W 2828  11.866  20.458  11.578
34611W        W 2829  32.024   7.892   4.468
34612W        W 2830  27.406  18.127   1.903
34613W        W 2831  39.388  13.313  14.399
34614W        W 2832  17.212   6.122  12.483
34615W        W 2833  33.904  12.869   0.499
34616W        W 2834  27.527  27.163   3.211
34617W        W 2835   1.510   6.321   3.611
34618W        W 2836  24.089  24.743   4.189
34619W        W 2837  38.885  41.963   2.303
34620W        W 2838  30.611  12.729   3.931
34621W        W 2839   2.385  26.486  14.062
34622W        W 2840  20.073  32.798   4.641
34623W        W 2841  33.988  44.794   0.818
34624W        W 2842  18.090  36.375  12.489
34625W        W 2843  41.089   2.460   2.734
34626W        W 2844  40.428   4.373   2.657
34627W        W 2845   7.840   0.155   0.364
34628W        W 2846  28.442   6.842  13.776
34629W        W 2847  38.560  10.813  14.977
34630W        W 2848  11.151  30.822   2.518
34631W        W 2849  30.122  31.887   1.807
34632W        W 2850   3.760   7.442   3.061
34633W        W 2851   0.494  16.361  14.865
34634W        W 2852  30.982  16.133  11.133
34635W        W 2853  22.765  19.781   0.159
34636W        W 2854  18.975  23.975   4.560
34637W        W 2855  42.288  38.503  14.882
34638W        W 2856  20.258  19.455  13.938
34639W        W 2857  41.271  36.794  11.172
34640W        W 2858  19.693  23.756  13.094
34641W        W 2859   8.167  36.785   3.682
34642W        W 2860  19.530  26.355   1.055
34643W        W 2861  12.182  10.612  11.819
34644W        W 2862   6.896  13.138   0.281
34645W        W 2863  32.040  10.022   2.375
34646W        W 2864  38.296  14.602   0.549
34647W        W 2865  17.267   1.846   1.235
34648W        W 2866  27.687  18.124  10.728
34649W        W 2867  40.112   3.133  11.969
34650W        W 2868  19.716  17.375   4.325
34651W        W 2869  26.081  26.666   3.403
34652W        W 2870  18.341  39.701  12.391
34653W        W 2871   1.460  23.097  14.470
34654W        W 2872  27.508  44.554  13.103
34655W        W 2873  23.494  38.366   4.527
34656W        W 2874  27.431  36.331   2.405
34657W        W 2875  30.905  21.190  14.017
34658W        W 2876  36.491  13.646  12.018
34659W        W 2877   2.035  34.924  12.573
34660W        W 2878  18.601  19.009  10.577
34661W        W 2879  10.641  32.092   3.289
34662W        W 2880   6.611   5.654   4.239
34663W        W 2881   7.780  43.084  13.828
34664W        W 2882  41.596  16.012   4.240
34665W        W 2883  18.247   1.642   0.925
34666W        W 2884  26.684  24.130   1.399
34667W        W 2885  38.525   2.742  13.895
34668W        W 2886  12.728   1.263   2.347
34669W        W 2887  39.918  20.053   3.152
34670W        W 2888  21.358  13.077   4.170
34671W        W 2889  28.688   2.025  12.962
34672W        W 2890   7.418  13.714  11.087
34673W        W 2891  12.538  16.332  13.070
34674W        W 2892   4.163  43.753  12.011
34675W        W 2893  23.063  19.772  12.620
34676W        W 2894   2.890  32.156  14.011
34677W        W 2895  40.342  31.498  14.046
34678W        W 2896  19.538  36.820   5.429
34679W        W 2897  10.276  17.831  12.436
34680W        W 2898  24.897   1.734  12.030
34681W        W 2899  11.355  10.270  10.585
34682W        W 2900  40.802   0.771   2.266
34683W        W 2901   8.594  42.941  11.937
34684W        W 2902  38.098  23.541  13.111
34685W        W 2903   2.531  41.448  11.576
34686W        W 2904  34.168   6.105   9.759
34687W        W 2905  25.104   2.464  12.562
34688W        W 2906   4.768  44.941  14.877
34689W        W 2907  19.480   2.846   1.822
34690W        W 2908  41.847   2.249   3.236
34691W        W 2909   8.477  29.711   1.414
34692W        W 2910  27.023   3.240   4.643
34693W        W 2911  24.320  29.438  14.482
34694W        W 2912  18.979  28.590  13.500
34695W        W 2913   0.422   7.831   1.026
34696W        W 2914  36.957  37.275   3.760
34697W        W 2915  42.448  20.250  10.920
34698W        W 2916  18.107   4.575   1.250
34699W        W 2917  43.597  32.546  11.928
34700W        W 2918  36.374  23.155   0.494
34701W        W 2919  19.155  19.753   1.930
34702W        W 2920  27.449   4.479   3.223
34703W        W 2921   5.357  20.724   3.010
34704W        W 2922  17.652  25.590   0.205
34705W        W 2923  37.130   5.782  11.427
34706W        W 2924   0.702  37.078   4.450
34707W        W 2925  10.669  37.294   3.294
34708W        W 2926  40.017  23.628   4.515
34709W        W 2927  32.410   4.361  14.440
34710W        W 2928  39.306  29.679  11.129
34711W        W 2929   8.591  15.457  12.075
34712W        W 2930  40.682  17.246  12.418
34713W        W 2931  10.580   4.562  14.487
34714W        W 2932  36.065  18.301  12.834
34715W        W 2933   9.087  22.580   4.235
34716W        W 2934  26.698  32.474   4.282
34717W        W 2935  13.087  39.015   2.831
34718W        W 2936  16.723   9.315  12.053
34719W        W 2937  33.495  20.018   2.777
34720W        W 2938  14.288  39.147   0.745
34721W        W 2939  20.786   4.892   4.610
34722W        W 2940  21.936  40.263  10.854
34723W        W 2941   8.026  19.190   1.955
34724W        W 2942  17.171  17.657   2.335
34725W        W 2943  35.882  18.598   1.027
34726W        W 2944   8.791  36.590   0.010
34727W        W 2945  29.532  21.726   3.030
34728W        W 2946  12.867  30.514  14.511
34729W        W 2947  33.445  43.609   3.715
34730W        W 2948  16.276   2.956  13.744
34731W        W 2949   1.055  30.412   4.062
34732W        W 2950  17.475  39.136  12.600
34733W        W 2951   5.281  40.319   2.678
34734W        W 2952  35.421  39.342   0.966
34735W        W 2953  16.744  27.004  12.601
34736W        W 2954  44.853  23.458   3.377
34737W        W 2955  17.186  20.861  11.500
34738W        W 2956   8.110  42.765   4.015
34739W        W 2957   7.733  31.871   4.145
34740W        W 2958  32.619   2.288   4.659
34741W        W 2959  23.119  24.995   2.404
34742W        W 2960  13.425  32.962   1.500
34743W        W 2961  21.104  31.845   3.343
34744W        W 2962  14.592  14.647  14.137
34745W        W 2963  18.891  23.403  10.136
34746W        W 2964  42.748  36.118  14.134
34747W        W 2965   0.050   7.991  13.715
34748W        W 2966  12.652  36.643  11.895
34749W        W 2967   8.704  17.831  14.008
34750W        W 2968  36.898   8.744  14.449
34751W        W 2969   1.004  12.941  11.181
34752W        W 2970   7.268  14.743  13.058
34753W        W 2971   0.416  10.830  14.425
34754W        W 2972   1.852   7.745   1.738
34755W        W 2973  24.078  17.652  13.846
34756W        W 2974  15.105   7.796   0.429
34757W        W 2975  16.146   4.973  12.960
34758W        W 2976   9.666   6.031  11.664
34759W        W 2977  34.255  19.698  10.690
34760W        W 2978  35.595   1.863  11.133
34761W        W 2979  21.336   2.247  12.054
34762W        W 2980   0.014   1.964  12.927
34763W        W 2981   8.229   9.371   0.428
34764W        W 2982  41.299  32.439  13.843
34765W        W 2983   8.086   8.647   3.256
34766W        W 2984   1.201  19.570   4.322
34767W        W 2985  31.973  35.105   4.111
34768W        W 2986   5.276  41.735   0.736
34769W        W 2987  21.677  36.973   2.166
34770W        W 2988  40.652  44.128   3.320
34771W        W 2989   3.835  22.606   0.968
34772W        W 2990  38.055  10.183   3.678
34773W        W 2991   5.988  30.595   2.554
34774W        W 2992  19.307  42.186  14.378
34775W        W 2993  30.010  25.173   1.910
34776W        W 2994  17.676  38.789   4.849
34777W        W 2995  16.233  27.015  12.163
34778W        W 2996  31.469  27.170  11.156
34779W        W 2997  43.402   2.205  14.946
34780W        W 2998  34.272  30.119  12.919
34781W        W 2999  13.084  28.670  13.470
34782W        W 3000  33.497  18.065   0.949
34783W        W 3001  38.410  33.017   2.612
34784W        W 3002  18.650   1.357   2.116
34785W        W 3003   8.304  18.528   0.510
34786W        W 3004  16.706  11.653   1.435
34787W        W 3005   6.319  13.887   3.233
34788W        W 3006  24.078   2.348  12.061
34789W        W 3007   5.050   9.579   3.704
34790W        W 3008  25.193  17.327  12.077
34791W        W 3009  23.763  44.093  12.154
34792W        W 3010  21.459   2.043  10.935
34793W        W 3011  43.366  14.245  12.616
34794W        W 3012  30.431   9.642  13.307
34795W        W 3013  12.659   3.236   0.853
34796W        W 3014  26.674  37.569  12.048
34797W        W 3015  41.121  18.090  11.153
34798W        W 3016  19.110  39.462   2.935
34799W        W 3017  27.556  30.618  13.536
34800W        W 3018   8.649  16.617   3.737
34801W        W 3019  35.641  43.454   0.487
34802W        W 3020  20.797  18.510  12.619
34803W        W 3021   8.342  37.327   4.950
34804W        W 3022  14.218  30.463  13.555
34805W        W 3023  36.042  25.104  10.647
34806W        W 3024  40.687   3.826  14.757
34807W        W 3025  40.499  41.977  13.186
34808W        W 3026   8.925  33.629  11.906
34809W        W 3027  21.016  29.441  11.555
34810W        W 3028  16.519   5.770   2.674
34811W        W 3029  17.606  41.047   0.721
34812W        W 3030  35.168  27.117  11.105
34813W        W 3031  18.740  37.541  14.010
34814W        W 3032  29.824  37.602  12.634
34815W        W 3033  26.632  10.743  14.062
34816W        W 3034  20.098  14.281   4.519
34817W        W 3035  23.353  37.244  14.319
34818W        W 3036  21.232  10.465  10.217
34819W        W 3037  22.773  22.653   1.414
34820W        W 3038  39.410  35.593  13.841
34821W        W 3039   9.632   1.357   0.029
34822W        W 3040   7.302  38.427  14.907
34823W        W 3041  43.696  37.576   2.192
34824W        W 3042   8.450  26.432   1.304
34825W        W 3043   4.942  26.057   1.750
34826W        W 3044  26.145  15.681  14.026
34827W        W 3045  17.562  17.023   3.059
34828W        W 3046  33.380  30.890   1.007
34829W        W 3047   8.666  31.680   1.663
34830W        W 3048  36.493   0.669   1.870
34831W        W 3049  43.014  18.762   0.443
34832W        W 3050  29.571  42.482  12.605
34833W        W 3051  24.457  36.396  14.271
34834W        W 3052  28.689  27.823   1.774
34835W        W 3053  23.244  19.118   3.115
34836W        W 3054   5.700  32.909  13.164
34837W        W 3055   6.351  24.245  11.028
34838W        W 3056  35.086  40.004   0.748
34839W        W 3057  18.281   7.887   0.142
34840W        W 3058  41.914  41.018   4.084
34841W        W 3059  36.796  37.905   0.720
34842W        W 3060  33.885  35.101  13.211
34843W        W 3061  19.557  40.872   1.917
34844W        W 3062  20.766  30.101  13.015
34845W        W 3063  30.056  19.961  11.136
34846W        W 3064  43.473  16.083  14.063
34847W        W 3065   1.376  18.501   1.632
34848W        W 3066  38.541   4.471  13.478
34849W        W 3067  29.921  33.186   2.325
34850W        W 3068  22.647  43.564   4.622
34851W        W 3069  12.042  12.854   1.846
34852W        W 3070  27.052  18.947   3.294
34853W        W 3071  15.850  12.369  14.544
34854W        W 3072  41.795  13.187   0.942
34855W        W 3073  31.491  26.671  13.496
34856W        W 3074   7.967   0.850  12.038
34857W        W 3075  25.878  43.632  14.258
34858W        W 3076  20.353   8.338   2.813
34859W        W 3077  20.470  14.711  14.042
34860W        W 3078  19.739  31.092  11.094
34861W        W 3079  15.829  10.380   1.752
34862W        W 3080  16.856  39.783  11.601
34863W        W 3081  32.825  33.466   0.219
34864W        W 3082  28.117  14.182   3.262
34865W        W 3083  17.528  40.434   3.165
34866W        W 3084  31.501  31.450   2.258
34867W        W 3085  24.090  26.009  14.333
34868W        W 3086  18.063   6.208  12.473
34869W        W 3087  19.706  13.098  13.638
34870W        W 3088  33.523  14.830   3.183
34871W        W 3089  27.222  14.088   4.489
34872W        W 3090  14.557  13.034   0.136
34873W        W 3091   5.969  18.711  13.413
34874W        W 3092  12.953  26.905  14.124
34875W        W 3093  13.724   9.933   1.027
34876W        W 3094  30.689  38.387   0.983
34877W        W 3095   8.735  38.752  10.714
34878W        W 3096   7.497   0.479   2.333
34879W        W 3097  31.076  35.556  14.720
34880W        W 3098   5.926  36.566  12.494
34881W        W 3099   9.325  32.971   0.478
34882W        W 3100  43.807   9.041  13.099
34883W        W 3101  23.224  27.970  12.012
34884W        W 3102  13.167  24.902  14.480
34885W        W 3103   5.110  26.822  12.992
34886W        W 3104   7.452  33.719  10.848
34887W        W 3105  43.726  13.092   4.074
34888W        W 3106   9.885  11.859   3.592
34889W        W 3107  42.993   5.475   2.721
34890W        W 3108  39.284  22.265  11.088
34891W        W 3109  44.442  29.444   2.115
34892W        W 3110  30.185  30.912  13.885
34893W        W 3111  13.243  12.704   1.258
34894W        W 3112  11.274  34.007   1.735
34895W        W 3113   1.917   4.512   0.850
34896W        W 3114  28.425  23.833   0.915
34897W        W 3115  29.748  31.824   2.401
34898W        W 3116   8.484  25.734   0.754
34899W        W 3117  33.371  15.723   0.234
34900W        W 3118  33.355  32.967  13.068
34901W        W 3119  32.471  21.745   4.591
34902W        W 3120  25.535  41.292  11.144
34903W        W 3121  15.629  39.249  13.999
34904W        W 3122   8.746   0.004   1.228
34905W        W 3123  21.456  24.309   3.630
34906W        W 3124  18.217  38.767   2.322
34907W        W 3125   0.805  22.740   3.326
34908W        W 3126   7.958  37.369  11.659
34909W        W 3127  10.281  36.056   3.419
34910W        W 3128  13.354  24.748  13.982
34911W        W 3129  31.359  14.353  14.408
34912W        W 3130   8.398  10.095  11.989
34913W        W 3131  17.667  23.617  12.675
34914W        W 3132  31.858  16.181  11.367
34915W        W 3133  36.057  30.675  11.598
34916W        W 3134  44.983   9.208  13.921
34917W        W 3135   3.440  16.252  13.052
34918W        W 3136  16.580  42.827   1.079
34919W        W 3137  32.450   3.130  14.860
34920W        W 3138  23.356   2.401  13.939
34921W        W 3139  33.373  22.151   0.288
34922W        W 3140   5.383   1.647  14.609
34923W        W 3141   4.517  32.026  11.673
34924W        W 3142  33.983  30.280   5.065
34925W        W 3143  33.133  32.619  12.164
34926W        W 3144  19.271   6.791   2.686
34927W        W 3145   3.706  39.457   4.840
34928W        W 3146  40.857  27.047  11.923
34929W        W 3147   0.892  18.138  13.283
34930W        W 3148  16.800   7.378   3.204
34931W        W 3149   2.158  43.514   3.777
34932W        W 3150  13.853  26.982  14.914
34933W        W 3151  34.797  34.164   3.097
34934W        W 3152   4.659  31.674   2.183
34935W        W 3153   4.904  10.850   0.765
34936W        W 3154  32.038   1.416  13.076
34937W        W 3155  27.167   3.563   2.899
34938W        W 3156   3.780  13.572  10.621
34939W        W 3157  25.578  34.444  13.018
34940W        W 3158  13.730  38.122   0.583
34941W        W 3159   1.197  16.134  12.483
34942W        W 3160  29.207  26.109   3.739
34943W        W 3161  38.900  21.241  13.918
34944W        W 3162  43.809   3.220   0.463
34945W        W 3163  34.620  17.212  11.104
34946W        W 3164  13.940  38.611   1.644
34947W        W 3165  18.909   7.852   4.509
34948W        W 3166  36.308  11.127   0.393
34949W        W 3167   0.720  40.517  12.915
34950W        W 3168  24.800  18.109   4.223
34951W        W 3169  23.015  39.112   2.625
34952W        W 3170   4.728  27.668   3.675
34953W        W 3171   0.248  32.057  11.542
34954W        W 3172   1.280   7.109  12.858
34955W        W 3173  34.516  19.390   4.164
34956W        W 3174  22.345   6.692   2.725
34957W        W 3175  18.252  36.421   3.722
34958W        W 3176  34.104  41.299  13.815
34959W        W 3177  22.236   9.427   3.214
34960W        W 3178   5.793  34.495   2.097
34961W        W 3179   4.936  24.179  13.302
34962W        W 3180   3.923   9.244  10.621
34963W        W 3181  30.011   7.286   2.866
34964W        W 3182  25.305  34.341   3.190
34965W        W 3183  43.172  40.323   1.753
34966W        W 3184  21.486  27.559  11.630
34967W        W 3185   8.811   6.188  12.560
34968W        W 3186  38.736   3.259   4.855
34969W        W 3187  20.096  27.235   2.557
34970W        W 3188  26.465  24.343  13.100
34971W        W 3189  14.817  21.489   4.892
34972W        W 3190  30.922   2.498  14.939
34973W        W 3191  12.291  27.484   1.316
34974W        W 3192   3.944  44.958   2.803
34975W        W 3193  18.092  20.476   4.067
34976W        W 3194  18.336  30.674   1.779
34977W        W 3195  25.221  30.194   3.237
34978W        W 3196  32.522   3.783   2.787
34979W        W 3197   5.403   0.930   2.823
34980W        W 3198  22.018  36.559  13.984
34981W        W 3199   7.453  38.158  13.328
34982W        W 3200  44.924  29.519   1.894
34983W        W 3201  34.587  33.948  11.727
34984W        W 3202  30.996  23.454  14.849
34985W        W 3203   2.015   0.380  12.785
34986W        W 3204  42.013  39.102   3.346
34987W        W 3205  37.347  26.518  10.232
34988W        W 3206  35.605  26.254  12.929
34989W        W 3207  13.272  27.150   3.929
34990W        W 3208  39.897  25.442  11.866
34991W        W 3209  25.007  43.147  13.739
34992W        W 3210   7.676  39.320   4.150
34993W        W 3211   4.766   2.267  13.430
34994W        W 3212  20.495   5.380  11.348
34995W        W 3213  13.304  13.749  12.031
34996W        W 3214   0.983  29.009  13.559
34997W        W 3215  22.577  19.742  13.869
34998W        W 3216   7.686  16.569  14.435
34999W        W 3217  44.863  23.756  11.099
35000W        W 3218  38.593  31.919  11.506
35001W        W 3219   8.757  19.594   2.374
35002W        W 3220   9.325  29.946  13.033
35003W        W 3221  40.364  29.585   2.437
35004W        W 3222  20.343   0.574   2.056
35005W        W 3223  11.837  36.340   1.821
35006W        W 3224   6.765  26.483  13.311
35007W        W 3225   2.370  43.744  11.200
35008W        W 3226  31.043  19.448  12.448
35009W        W 3227  26.480  19.269  11.600
35010W        W 3228  14.673  25.092  11.966
35011W        W 3229  16.288  20.694  10.435
35012W        W 3230   4.820  17.358   4.170
35013W        W 3231  21.107  30.670   5.181
35014W        W 3232   7.873  14.332   0.926
35015W        W 3233  31.892   3.773  11.436
35016W        W 3234  32.514   2.748  10.643
35017W        W 3235  26.360  43.701   3.656
35018W        W 3236  37.655   3.869   1.264
35019W        W 3237  29.164   7.766   2.239
35020W        W 3238   2.674  25.189   2.075
35021W        W 3239  35.659  38.949  13.906
35022W        W 3240   6.591  39.953   4.097
35023W        W 3241   1.548  24.326  14.892
35024W        W 3242   7.162  14.871  14.789
35025W        W 3243  39.097  28.274  12.947
35026W        W 3244  26.519  43.403   0.838
35027W        W 3245  28.302  24.658   5.005
35028W        W 3246  13.611  25.934  13.485
35029W        W 3247   0.506   8.317   4.129
35030W        W 3248  29.938  13.797   0.272
35031W        W 3249  12.309   2.300   0.044
35032W        W 3250  38.530   4.669   0.832
35033W        W 3251  37.976  28.173  10.764
35034W        W 3252  12.965  40.044   4.591
35035W        W 3253  14.671  28.348   1.255
35036W        W 3254  30.666  40.574  14.326
35037W        W 3255  20.512  15.470   3.390
35038W        W 3256  29.465  29.201  13.571
35039W        W 3257  20.477  44.153  13.005
35040W        W 3258   3.741  31.206   3.729
35041W        W 3259   1.919   0.233   1.253
35042W        W 3260  20.422  12.819   4.115
35043W        W 3261  18.105  35.322  12.491
35044W        W 3262  11.047  11.944  14.949
35045W        W 3263  19.465  15.240   2.667
35046W        W 3264   3.495  23.905  14.756
35047W        W 3265  37.816  21.302   0.542
35048W        W 3266  16.366   2.926  12.939
35049W        W 3267   7.849   4.712  13.126
35050W        W 3268  41.075  28.436   4.795
35051W        W 3269  23.895  29.044   3.613
35052W        W 3270  14.915  34.865  13.614
35053W        W 3271  37.900  25.552   2.767
35054W        W 3272  10.241   9.465   3.666
35055W        W 3273  43.854  32.481  10.650
35056W        W 3274   0.696  10.357   4.636
35057W        W 3275  24.199  32.561   2.929
35058W        W 3276  11.418  39.920  12.657
35059W        W 3277  38.909  34.680  11.268
35060W        W 3278   9.434  26.422   3.097
35061W        W 3279  21.094   5.720   3.272
35062W        W 3280   1.331  22.453  11.171
35063W        W 3281   3.902  18.725  12.027
35064W        W 3282  28.037  26.505  14.370
35065W        W 3283   4.202  27.344   0.336
35066W        W 3284  36.998   1.952   2.208
35067W        W 3285   6.469  12.211  13.195
35068W        W 3286  37.865   3.717   3.676
35069W        W 3287  28.681  22.930  10.118
35070W        W 3288  27.993  39.378   4.922
35071W        W 3289  35.452  21.130  12.079
35072W        W 3290  10.649   5.263   2.690
35073W        W 3291   2.613  39.125  12.873
35074W        W 3292  16.543  24.003  11.065
35075W        W 3293  25.204  28.716   3.176
35076W        W 3294  22.019  43.962   3.523
35077W        W 3295   1.317  38.363   4.508
35078W        W 3296  37.646  38.036   0.472
35079W        W 3297  12.073   0.103   1.819
35080W        W 3298  18.394  32.450  13.817
35081W        W 3299   0.995   6.219   3.079
35082W        W 3300   9.346  13.179   4.309
35083W        W 3301  34.505   6.234  12.716
35084W        W 3302  13.641  20.315  10.716
35085W        W 3303   7.756  12.253  14.549
35086W        W 3304  30.505  41.330   2.676
35087W        W 3305  23.052  22.002   3.414
35088W        W 3306   0.847  39.430   4.350
35089W        W 3307   2.277   2.689   1.415
35090W        W 3308  27.119  40.072   2.178
35091W        W 3309  14.827  14.584   3.321
35092W        W 3310   2.803  27.982   0.666
35093W        W 3311   9.657  19.580   0.860
35094W        W 3312  14.177  43.877   4.379
35095W        W 3313  41.431   1.393   4.069
35096W        W 3314  41.976  16.553   0.826
35097W        W 3315  23.344  20.757  14.314
35098W        W 3316  10.825   1.188  12.887
35099W        W 3317  29.405  33.994   4.658
35100W        W 3318  35.582   7.930   1.503
35101W        W 3319  25.360  30.962   2.266
35102W        W 3320  26.649  15.552   0.306
35103W        W 3321  25.053  43.727  12.510
35104W        W 3322  12.841  35.190  11.513
35105W        W 3323  32.175  41.232   2.166
35106W        W 3324  32.136  31.441   3.913
35107W        W 3325  13.507  30.926   1.769
35108W        W 3326  12.729   3.069  14.361
35109W        W 3327  10.276  36.123   2.928
35110W        W 3328   6.976   6.430  13.024
35111W        W 3329  36.153  20.014  11.143
35112W        W 3330  36.364  24.822   0.246
35113W        W 3331   4.706  37.773   3.730
35114W        W 3332   4.793  12.474   1.833
35115W        W 3333  29.913  28.586   4.685
35116W        W 3334  38.449  23.594  12.163
35117W        W 3335  12.793  22.897   1.212
35118W        W 3336  34.907   8.350   1.260
35119W        W 3337  22.527  13.936   1.534
35120W        W 3338   4.183   3.835   0.902
35121W        W 3339  24.739   5.225  13.880
35122W        W 3340  40.788  44.803   4.164
35123W        W 3341   6.835  26.757   3.197
35124W        W 3342  16.261  35.571  10.705
35125W        W 3343  31.957  12.367  11.192
35126W        W 3344   2.951   4.511  12.013
35127W        W 3345  42.617   2.356  11.100
35128W        W 3346  30.372  42.587   1.184
35129W        W 3347  42.792  14.199   3.211
35130W        W 3348  35.938  43.026   3.669
35131W        W 3349  14.983  37.560   4.553
35132W        W 3350   7.312  36.576   0.038
35133W        W 3351  42.037  19.931  13.525
35134W        W 3352  12.985  34.899   2.360
35135W        W 3353  38.841   6.231  13.877
35136W        W 3354  36.490   5.110   3.217
35137W        W 3355  22.207  40.456   2.201
35138W        W 3356  28.209  14.096  14.043
35139W        W 3357  12.920  21.578  11.144
35140W        W 3358  13.524  25.526  14.429
35141W        W 3359  25.972  20.030   2.987
35142W        W 3360  12.734  26.017   2.374
35143W        W 3361  26.503  18.895   5.012
35144W        W 3362  28.935  11.957  14.839
35145W        W 3363  10.636  36.113  12.602
35146W        W 3364  22.727  28.359   2.873
35147W        W 3365   9.326  30.979  12.251
35148W        W 3366  11.159  43.987  12.364
35149W        W 3367  43.085  10.440   3.206
35150W        W 3368  37.266  22.327   3.789
35151W        W 3369   0.970  14.952  10.684
35152W        W 3370  11.250  34.519  14.024
35153W        W 3371  16.314  26.206   1.197
35154W        W 3372   2.446  42.746  13.786
35155W        W 3373   0.335  39.049   3.699
35156W        W 3374  10.623  32.634   0.049
35157W        W 3375  44.985   8.335  12.449
35158W        W 3376  11.051  19.534  12.113
35159W        W 3377  25.725   4.729   3.221
35160W        W 3378  25.993  33.012   0.122
35161W        W 3379  19.796   6.391  10.992
35162W        W 3380  22.788  26.670  10.223
35163W        W 3381  29.609   9.669  13.434
35164W        W 3382  10.226  22.094   3.444
35165W        W 3383   2.950  17.836   1.751
35166W        W 3384  38.153  11.852   3.167
35167W        W 3385  35.174  23.746   1.297
35168W        W 3386  35.461  18.357  12.356
35169W        W 3387  31.645  42.724  13.101
35170W        W 3388  36.538  32.373  11.488
35171W        W 3389  15.736   1.728   3.102
35172W        W 3390  14.797   5.299   2.608
35173W        W 3391  20.091  35.594   3.665
35174W        W 3392  29.909  20.063  14.411
35175W        W 3393  31.418  19.612  10.748
35176W        W 3394  23.783  27.153   2.002
35177W        W 3395  21.938  17.020   3.529
35178W        W 3396  26.084   0.446   3.783
35179W        W 3397  28.649  13.092   3.809
35180W        W 3398  25.270  42.389  14.397
35181W        W 3399   0.887   5.614  12.690
35182W        W 3400  44.783  17.544   3.648
35183W        W 3401  15.418  19.772  12.475
35184W        W 3402  33.353  18.736  11.900
35185W        W 3403   8.869  25.085   2.770
35186W        W 3404   6.380  42.534   1.346
35187W        W 3405   4.508   7.263   4.978
35188W        W 3406   0.348  31.037   4.671
35189W        W 3407  41.512  33.797  13.892
35190W        W 3408  30.685   3.236   1.430
35191W        W 3409  34.813  43.730  11.633
35192W        W 3410  25.678  38.576   0.686
35193W        W 3411   4.827   9.322  14.722
35194W        W 3412  43.293  44.236   1.231
35195W        W 3413  31.017   9.315   0.736
35196W        W 3414  19.514  13.624  13.991
35197W        W 3415   9.422  30.879   0.115
35198W        W 3416  29.110  39.984   3.217
35199W        W 3417  41.317   6.072  12.177
35200W        W 3418   2.146  15.037   0.337
35201W        W 3419  37.628  42.070  12.905
35202W        W 3420  36.917  39.502  10.744
35203W        W 3421   3.791  39.033  13.524
35204W        W 3422  10.176  10.152  14.884
35205W        W 3423   6.476  11.247   1.025
35206W        W 3424  21.129  16.611  12.916
35207W        W 3425  37.731   0.453  14.527
35208W        W 3426  14.120  35.478   0.047
35209W        W 3427   9.718   8.143   0.857
35210W        W 3428  12.381  12.781  12.146
35211W        W 3429  36.346  42.804  10.079
35212W        W 3430  25.707  15.053   0.782
35213W        W 3431  29.438  23.809  14.244
35214W        W 3432  30.856  27.439   2.006
35215W        W 3433  11.742  42.422   3.454
35216W        W 3434   3.780  24.534   4.064
35217W        W 3435  26.105   3.025   2.830
35218W        W 3436   9.982  18.620  12.016
35219W        W 3437  16.184  11.233  12.120
35220W        W 3438   2.258  28.520   2.338
35221W        W 3439   6.230  31.046   1.893
35222W        W 3440   3.836   2.158  13.901
35223W        W 3441  17.720  29.417   1.911
35224W        W 3442  11.326  35.941  12.646
35225W        W 3443  21.610  16.816  13.036
35226W        W 3444  10.906  32.773   1.011
35227W        W 3445  32.053   0.483   4.518
35228W        W 3446  26.419  35.014   3.553
35229W        W 3447  17.605  42.362   1.663
35230W        W 3448  24.750  42.994   2.404
35231W        W 3449  10.669   4.943   2.212
35232W        W 3450  33.502  28.351  11.254
35233W        W 3451  38.108  26.552  12.467
35234W        W 3452   3.078  42.814  14.287
35235W        W 3453  10.307  38.978  12.900
35236W        W 3454  13.833  12.041  11.602
35237W        W 3455  38.630  19.511   4.180
35238W        W 3456  38.214  18.040   4.251
35239W        W 3457  20.127  15.772  10.184
35240W        W 3458  38.415  15.075   0.388
35241W        W 3459  36.906  31.195  12.466
35242W        W 3460  22.961   2.456   0.784
35243W        W 3461   4.166  44.959  14.518
35244W        W 3462   7.250  17.287  11.901
35245W        W 3463  25.073  35.970   0.685
35246W        W 3464   3.686  14.840  13.596
35247W        W 3465  13.879   0.695  14.969
35248W        W 3466  43.839  18.676  11.077
35249W        W 3467  33.121  19.342   1.232
35250W        W 3468   4.970  35.887   0.523
35251W        W 3469  41.207  40.586   0.665
35252W        W 3470  17.800  27.253   3.689
35253W        W 3471   8.020  37.019   4.160
35254W        W 3472  30.327   8.624   4.587
35255W        W 3473  32.046  37.246  12.057
35256W        W 3474  38.533   7.750  11.577
35257W        W 3475  15.566   5.989   0.833
35258W        W 3476  40.391  44.261  10.597
35259W        W 3477   2.964  19.626  11.575
35260W        W 3478   7.332   4.630  14.780
35261W        W 3479   3.388  21.270  12.151
35262W        W 3480  12.186  23.572  14.565
35263W        W 3481  36.915  35.282   3.741
35264W        W 3482  16.767   9.043  11.613
35265W        W 3483  40.757  44.481   3.692
35266W        W 3484   4.423  36.448   2.356
35267W        W 3485  43.963  22.645  14.875
35268W        W 3486  22.001  20.791  12.321
35269W        W 3487   5.271  26.659  11.900
35270W        W 3488  16.182  19.774   3.188
35271W        W 3489  42.086  11.768   3.798
35272W        W 3490   2.157  28.700  11.558
35273W        W 3491  31.974  36.445   2.451
35274W        W 3492  33.509  22.263   2.246
35275W        W 3493   2.348  38.089  12.902
35276W        W 3494   8.458  10.699   4.831
35277W        W 3495   6.596   1.837   1.384
35278W        W 3496  37.402  13.912   2.379
35279W        W 3497  10.678  11.270  11.479
35280W        W 3498  27.167  42.739   3.929
35281W        W 3499  10.830  32.073  11.484
35282W        W 3500  33.735  24.682   4.211
35283W        W 3501   3.376  21.837   0.403
35284W        W 3502  33.323  37.038  12.885
35285W        W 3503  20.589  40.449   2.616
35286W        W 3504  38.217  15.691   3.895
35287W        W 3505  31.147   9.522   4.774
35288W        W 3506  30.641  33.410  14.845
35289W        W 3507   8.462  23.220  11.348
35290W        W 3508  25.571  30.456   1.406
35291W        W 3509  43.880  36.920  14.467
35292W        W 3510  35.096  25.603  13.360
35293W        W 3511   7.742   5.271   4.422
35294W        W 3512  26.502  26.732   0.938
35295W        W 3513  28.996  26.338  11.017
35296W        W 3514  27.522  36.635  10.676
35297W        W 3515  25.918  29.552   2.356
35298W        W 3516  22.952  31.655  10.656
35299W        W 3517  16.627   8.322  11.132
35300W        W 3518  32.008  24.706  11.409
35301W        W 3519  16.131  41.798  14.888
35302W        W 3520  39.570  39.458  13.441
35303W        W 3521  18.394  42.443  14.700
35304W        W 3522  15.262  11.794  11.519
35305W        W 3523  25.273  40.528  12.521
35306W        W 3524   4.412  40.148   1.179
35307W        W 3525  35.280  22.463  11.691
35308W        W 3526  13.413  40.017   3.775
35309W        W 3527  16.597   9.789  13.859
35310W        W 3528  35.007   9.830   2.145
35311W        W 3529  15.632  41.898   2.295
35312W        W 3530  27.495  28.469  13.784
35313W        W 3531  12.938  39.929   1.125
35314W        W 3532  17.522  27.510  10.810
35315W        W 3533   4.277  13.682  11.603
35316W        W 3534  27.180  12.235  14.227
35317W        W 3535  24.207   3.714  12.162
35318W        W 3536  19.192  37.604   3.254
35319W        W 3537  10.040  19.143  13.868
35320W        W 3538  21.059   6.190  11.124
35321W        W 3539   2.716  22.288   3.905
35322W        W 3540   0.335  27.514   4.599
35323W        W 3541  16.570  13.861  14.092
35324W        W 3542  28.096  10.639   3.299
35325W        W 3543  25.491  25.420  14.794
35326W        W 3544  29.179   3.327  12.003
35327W        W 3545  36.103   1.284   2.761
35328W        W 3546  15.789  17.761   4.252
35329W        W 3547  38.358  43.245  14.314
35330W        W 3548   1.377  37.347  12.387
35331W        W 3549   7.393  35.083   0.372
35332W        W 3550  32.582  37.276  14.114
35333W        W 3551  14.679   9.606  11.839
35334W        W 3552   1.351  26.122  11.159
35335W        W 3553  19.506  21.507  12.508
35336W        W 3554  16.125   4.954   3.837
35337W        W 3555  41.901  42.766  12.898
35338W        W 3556  34.902  13.775   4.426
35339W        W 3557  33.575  29.549  11.917
35340W        W 3558  33.642  42.506  12.493
35341W        W 3559  44.610  37.149  11.238
35342W        W 3560  24.214  12.523   5.050
35343W        W 3561  14.680  34.813  12.101
35344W        W 3562  14.791  27.957   4.570
35345W        W 3563  12.136  28.984   3.858
35346W        W 3564  32.695  35.159   2.739
35347W        W 3565   1.824   1.404  12.084
35348W        W 3566  28.525   7.286   3.826
35349W        W 3567  40.766  35.615  12.007
35350W        W 3568  22.544  28.030   1.336
35351W        W 3569   2.893  20.728   2.792
35352W        W 3570  10.898  44.397  11.569
35353W        W 3571  34.913  42.968  14.413
35354W        W 3572  38.494  24.997   4.399
35355W        W 3573   6.733   4.412  12.947
35356W        W 3574   6.310  13.375   3.257
35357W        W 3575  29.154  28.754  12.900
35358W        W 3576   7.806  40.713  12.089
35359W        W 3577  13.820  14.645   2.229
35360W        W 3578  34.044   6.375   4.503
35361W        W 3579   0.701  20.138  12.440
35362W        W 3580  37.578   2.029  13.041
35363W        W 3581  16.220  43.307  14.359
35364W        W 3582  21.360   9.139   2.282
35365W        W 3583  16.008  16.512   5.434
35366W        W 3584   0.052   8.184   2.298
35367W        W 3585  42.356   2.925   0.015
35368W        W 3586  24.427  34.880   1.687
35369W        W 3587   1.937  26.040  12.398
35370W        W 3588  23.065  12.825  14.129
35371W        W 3589  33.100  20.050   4.251
35372W        W 3590  35.992  37.045  13.000
35373W        W 3591  24.214   9.798   4.539
35374W        W 3592  32.478   2.863   3.578
35375W        W 3593  29.160  26.978  11.511
35376W        W 3594  42.421  22.175   3.394
35377W        W 3595  39.567  27.501   2.615
35378W        W 3596  23.630   1.244  13.588
35379W        W 3597  28.425  42.419  10.730
35380W        W 3598  36.169  43.700  14.587
35381W        W 3599  38.892  27.037  11.651
35382W        W 3600  42.845  38.457   1.658
35383W        W 3601  26.608  39.359   0.316
35384W        W 3602  20.083  37.035   0.310
35385W        W 3603  27.721  13.296   0.319
35386W        W 3604  32.331  34.553  12.447
35387W        W 3605  29.491   0.881   0.637
35388W        W 3606  29.826  33.528  10.418
35389W        W 3607   7.629  16.600  14.955
35390W        W 3608  25.092  37.320   3.260
35391W        W 3609  27.899  17.358  14.976
35392W        W 3610  42.414  42.742   4.899
35393W        W 3611  30.707  37.330  14.691
35394W        W 3612  12.299  10.379  14.942
35395W        W 3613  34.597   3.254  14.800
35396W        W 3614  22.280  24.705   2.806
35397W        W 3615  15.259  37.895   0.005
35398W        W 3616  36.185  11.751   3.187
35399W        W 3617   4.995  38.732   5.180
35400W        W 3618  31.393  39.175  11.551
35401W        W 3619  26.457  22.228  13.627
35402W        W 3620  11.161  33.048   0.652
35403W        W 3621  14.264  35.877  11.604
35404W        W 3622  29.676   7.676   2.346
35405W        W 3623   8.833  19.624  13.080
35406W        W 3624  11.444  42.290   1.689
35407W        W 3625  25.240  35.613   0.268
35408W        W 3626   0.745   6.474  13.530
35409W        W 3627  23.591  23.506  13.918
35410W        W 3628  16.268  29.152  12.767
35411W        W 3629  40.534  32.617  11.590
35412W        W 3630  30.409  13.269   1.462
35413W        W 3631  44.470  20.346   3.276
35414W        W 3632   9.224   5.115  14.456
35415W        W 3633  30.686   0.033  14.987
35416W        W 3634   8.473  23.488  12.111
35417W        W 3635  15.720  38.917   0.355
35418W        W 3636  11.385   8.425  14.389
35419W        W 3637  12.174  30.745  12.431
35420W        W 3638  19.842  13.614  11.870
35421W        W 3639   2.849  39.962  14.055
35422W        W 3640   3.821  44.692  14.816
35423W        W 3641   8.672  23.144  14.934
35424W        W 3642  23.453  25.595   1.364
35425W        W 3643  41.250  34.446   3.623
35426W        W 3644  35.082   8.465  12.529
35427W        W 3645  17.089  44.523   1.416
35428W        W 3646  14.209   6.925   4.898
35429W        W 3647  35.904  30.528  14.635
35430W        W 3648  40.869   4.227  12.859
35431W        W 3649  20.799  29.218  12.985
35432W        W 3650  36.543  30.696   2.739
35433W        W 3651  25.756  27.540  14.778
35434W        W 3652  25.691   7.108  11.104
35435W        W 3653  22.988  38.518   1.193
35436W        W 3654  33.077  39.446  14.550
35437W        W 3655   1.606  27.616  11.688
35438W        W 3656  21.681  12.391   0.453
35439W        W 3657  12.163   9.357   2.433
35440W        W 3658  44.945  21.026  13.603
35441W        W 3659  13.580  36.588  13.560
35442W        W 3660  16.554   1.472  11.955
35443W        W 3661  17.903  43.279  12.718
35444W        W 3662   2.704  40.244   0.054
35445W        W 3663  15.807   1.283  11.460
35446W        W 3664  20.578   7.182   2.441
35447W        W 3665   2.854  21.665   3.151
35448W        W 3666  36.335   3.203   5.383
35449W        W 3667  11.134  25.202   3.602
35450W        W 3668  29.960  40.317  12.123
35451W        W 3669  15.658  31.947   4.339
35452W        W 3670  35.991  36.045   0.779
35453W        W 3671  27.937  39.807   4.623
35454W        W 3672   3.759   3.261   3.130
35455W        W 3673   1.981  44.236  14.434
35456W        W 3674   2.491   2.444   3.752
35457W        W 3675   6.327  23.125  13.783
35458W        W 3676  22.600  16.164  11.487
35459W        W 3677  21.045  22.053  12.913
35460W        W 3678  32.799  17.480   0.748
35461W        W 3679  25.566  26.456  13.864
35462W        W 3680  12.454   4.982  14.228
35463W        W 3681  14.264  21.509   1.779
35464W        W 3682  40.579  21.733   3.553
35465W        W 3683  32.526  10.274   0.002
35466W        W 3684   6.923   2.223  10.812
35467W        W 3685  37.609  19.565   3.215
35468W        W 3686  30.406  41.810   3.381
35469W        W 3687  43.933  41.472  11.418
35470W        W 3688  16.493  42.833   4.575
35471W        W 3689  14.009  41.393  13.769
35472W        W 3690  18.577  29.628   1.862
35473W        W 3691  29.069   6.353  11.607
35474W        W 3692  13.316  15.325  11.364
35475W        W 3693   1.223  30.001   3.757
35476W        W 3694  24.556  12.887   4.688
35477W        W 3695  27.970  25.924   0.080
35478W        W 3696  43.801  42.227  12.188
35479W        W 3697   1.332  26.088   1.810
35480W        W 3698  17.113  25.088   0.844
35481W        W 3699  31.126  15.648   0.967
35482W        W 3700   8.397  34.501   3.986
35483W        W 3701  25.058   0.933   4.572
35484W        W 3702   5.265  32.084   1.156
35485W        W 3703  15.695  22.739   3.593
35486W        W 3704  43.846   4.249   4.809
35487W        W 3705  39.113  21.604   3.287
35488W        W 3706  16.101  29.863  12.129
35489W        W 3707  19.358  28.244  12.374
35490W        W 3708  19.671  11.444   1.816
35491W        W 3709  22.073  34.614   0.425
35492W        W 3710   9.851  20.324   0.058
35493W        W 3711  31.121  13.014  14.579
35494W        W 3712  15.696   9.867   4.400
35495W        W 3713  11.976  27.319   4.086
35496W        W 3714  30.363   0.926  10.705
35497W        W 3715  14.381  31.166   1.442
35498W        W 3716  27.961   1.263   3.900
35499W        W 3717  27.473  34.383  14.340
35500W        W 3718  33.638   2.825   4.969
35501W        W 3719  26.072   0.471   3.221
35502W        W 3720   2.935  40.106  12.751
35503W        W 3721  17.264  21.015   0.975
35504W        W 3722  39.576   5.385  10.721
35505W        W 3723  25.488   6.808  10.713
35506W        W 3724  15.630  13.717   2.177
35507W        W 3725  28.169  21.058  13.353
35508W        W 3726  39.909  27.771  12.017
35509W        W 3727  17.107   9.317  12.405
35510W        W 3728  40.035  39.050   4.392
35511W        W 3729   4.358  29.163   3.404
35512W        W 3730  19.631   0.818  11.108
35513W        W 3731  29.601  36.004   4.679
35514W        W 3732  23.163  40.190   5.023
35515W        W 3733  27.877  15.875   0.009
35516W        W 3734  28.342  36.007   0.966
35517W        W 3735   7.737  17.194  11.648
35518W        W 3736   8.995  15.752   2.875
35519W        W 3737  19.824  43.026   2.658
35520W        W 3738  15.909  21.053   3.139
35521W        W 3739  27.306  32.070  10.027
35522W        W 3740  19.303  10.365  12.800
35523W        W 3741  17.262  40.449  11.019
35524W        W 3742  11.031  13.570   2.619
35525W        W 3743  14.712  30.102  13.037
35526W        W 3744  14.307  25.721  10.751
35527W        W 3745  42.781  28.874  12.347
35528W        W 3746  43.948  15.850  13.310
35529W        W 3747   0.513   3.308   0.395
35530W        W 3748  10.998  11.342  12.440
35531W        W 3749  25.738  43.325   3.764
35532W        W 3750  30.056  42.242   2.819
35533W        W 3751  17.958  37.545   1.148
35534W        W 3752  25.767  23.525   4.200
35535W        W 3753  24.100  37.192   5.007
35536W        W 3754   0.429  13.617   1.746
35537W        W 3755   2.447  20.198   3.175
35538W        W 3756   5.686  29.708   3.266
35539W        W 3757  31.230  44.446  11.455
35540W        W 3758   7.697  31.386   0.654
35541W        W 3759  11.921  33.921  13.741
35542W        W 3760  29.084   7.858  11.536
35543W        W 3761   2.176  22.133   4.781
35544W        W 3762  44.441  14.327   3.585
35545W        W 3763  30.484  37.014  12.405
35546W        W 3764  23.844  12.332   1.258
35547W        W 3765  17.363   7.466   4.045
35548W        W 3766  20.715  44.388   4.106
35549W        W 3767  10.172  19.607   0.265
35550W        W 3768  31.484  26.091   5.518
35551W        W 3769  14.637  11.935  13.589
35552W        W 3770  13.220  40.045  14.858
35553W        W 3771  39.576  44.085   2.312
35554W        W 3772  19.575   9.472  11.930
35555W        W 3773  11.359  17.351   4.825
35556W        W 3774  43.383  10.599   0.232
35557W        W 3775  42.760  22.452  11.233
35558W        W 3776  39.358  38.006  13.849
35559W        W 3777   5.387  19.329   4.718
35560W        W 3778  37.317  37.850   0.088
35561W        W 3779  38.565  31.902  12.438
35562W        W 3780  24.609  24.489  13.396
35563W        W 3781  11.127  18.737   3.621
35564W        W 3782   9.008  44.767  10.637
35565W        W 3783  27.275   2.485  13.833
35566W        W 3784  29.410  27.437   0.840
35567W        W 3785  32.927  26.711   3.283
35568W        W 3786  41.361  31.368  14.661
35569W        W 3787  12.625  19.522   0.129
35570W        W 3788  18.670  18.556   3.773
35571W        W 3789  33.440  26.977   4.456
35572W        W 3790  35.092  17.192   2.246
35573W        W 3791  21.765  44.998  10.756
35574W        W 3792  39.396  39.947   4.657
35575W        W 3793  26.500   1.630   1.707
35576W        W 3794  11.271  25.174   3.113
35577W        W 3795   2.372  13.367   1.665
35578W        W 3796  26.494  22.063   5.319
35579W        W 3797  33.873   4.749  13.790
35580W        W 3798  11.738   7.691   3.603
35581W        W 3799  26.111  24.718  13.046
35582W        W 3800   8.970   8.988  13.482
35583W        W 3801  21.550  44.339  11.747
35584W        W 3802  20.088  12.738  13.569
35585W        W 3803   6.866  21.758   0.003
35586W        W 3804   1.315  12.874   4.078
35587W        W 3805  21.665  15.011   0.872
35588W        W 3806  34.574  12.169   0.202
35589W        W 3807   2.715  21.654   2.634
35590W        W 3808  28.585  19.745   3.618
35591W        W 3809  36.328  20.128   1.092
35592W        W 3810   5.062  15.859  10.801
35593W        W 3811  27.477  16.424  11.752
35594W        W 3812  38.851  39.164   2.177
35595W        W 3813  32.625  12.658  10.231
35596W        W 3814  36.943  39.106   2.177
35597W        W 3815  38.246  38.765  12.086
35598W        W 3816  13.591  12.610  12.653
35599W        W 3817   7.695  30.192   1.391
35600W        W 3818   7.680   9.065  11.392
35601W        W 3819   8.330  43.015   3.062
35602W        W 3820  32.624  41.322   0.938
35603W        W 3821  12.225  22.923   0.031
35604W        W 3822  23.018   5.381   1.617
35605W        W 3823  10.707  27.382  11.637
35606W        W 3824  14.287   8.177   1.918
35607W        W 3825  29.683   1.771  12.822
35608W        W 3826   8.395   5.836  10.617
35609W        W 3827   2.979  37.971   2.509
35610W        W 3828   9.382  42.418  14.340
35611W        W 3829  17.696  18.220  12.543
35612W        W 3830  26.894  30.988  12.022
35613W        W 3831  24.233  43.096   2.312
35614W        W 3832   3.715  43.507   1.524
35615W        W 3833  18.023   0.836  12.994
35616W        W 3834  34.441  33.981   1.826
35617W        W 3835  42.047  13.248   4.756
35618W        W 3836  20.066  11.727  13.414
35619W        W 3837  15.340  22.220   1.287
35620W        W 3838  11.227  12.677   4.335
35621W        W 3839  24.516  30.512  13.493
35622W        W 3840  36.980  25.059  10.635
35623W        W 3841   1.036   8.765  14.330
35624W        W 3842  18.702  39.275   3.815
35625W        W 3843   7.242  38.884  12.608
35626W        W 3844  44.339  18.851   1.542
35627W        W 3845  15.601  20.140   0.896
35628W        W 3846  19.245  25.555  13.597
35629W        W 3847  40.836  43.758   4.165
35630W        W 3848  28.965  18.548  12.345
35631W        W 3849  21.716  44.743  12.641
35632W        W 3850  43.494  37.223   1.593
35633W        W 3851   6.796   8.232  13.596
35634W        W 3852  24.983  32.187   0.514
35635W        W 3853  26.258  30.428   4.719
35636W        W 3854  20.386  19.791   0.204
35637W        W 3855   9.199  35.644   3.058
35638W        W 3856   2.215  17.536   1.196
35639W        W 3857  31.892  17.737  12.353
35640W        W 3858  30.174  34.264  10.686
35641W        W 3859  33.601   5.679  11.675
35642W        W 3860  30.412  39.397  10.558
35643W        W 3861  40.680  25.106   5.083
35644W        W 3862  14.348  19.761   0.643
35645W        W 3863   8.551  29.740   0.729
35646W        W 3864  38.666   1.778  10.474
35647W        W 3865  10.766  26.523  13.774
35648W        W 3866  11.406  16.693  11.149
35649W        W 3867  43.525  36.369   3.570
35650W        W 3868  16.291  33.610  12.134
35651W        W 3869  37.018   8.200  13.305
35652W        W 3870  13.732   8.663  13.282
35653W        W 3871  36.990  29.627   1.568
35654W        W 3872  19.087  33.058   1.268
35655W        W 3873  38.601  39.518  12.565
35656W        W 3874  11.434  11.614  14.260
35657W        W 3875  20.694  17.408  11.898
35658W        W 3876  29.860  25.523  14.405
35659W        W 3877   2.805  12.200  12.659
35660W        W 3878   2.009   2.374  12.374
35661W        W 3879  28.178  31.717  11.946
35662W        W 3880  44.977  17.125   2.636
35663W        W 3881  10.332   1.551   3.840
35664W        W 3882  23.101   8.217  11.085
35665W        W 3883  28.095  39.971   2.351
35666W        W 3884   6.649  18.451   5.091
35667W        W 3885   4.316  26.093  14.008
35668W        W 3886  13.704  24.721  12.096
35669W        W 3887   6.953  19.228   0.299
35670W        W 3888  18.804  37.639   3.669
35671W        W 3889  41.880  26.959   1.397
35672W        W 3890   0.209  14.579  12.424
35673W        W 3891  19.980  25.022  12.055
35674W        W 3892  14.736  38.094   1.391
35675W        W 3893  26.261  20.159   1.098
35676W        W 3894   8.377  42.611  11.043
35677W        W 3895  26.732   9.616   0.959
35678W        W 3896  39.323  10.310   1.492
35679W        W 3897  39.042  32.032  13.544
35680W        W 3898  43.945   3.000  14.821
35681W        W 3899  11.740  19.519  14.963
35682W        W 3900  43.820  32.057  11.006
35683W        W 3901  14.085   8.789  14.751
35684W        W 3902  18.212  10.206  12.528
35685W        W 3903  18.650  41.157   0.978
35686W        W 3904   2.980  19.063   1.227
35687W        W 3905  40.996  27.226   4.065
35688W        W 3906  29.357  23.096  13.004
35689W        W 3907  16.343  43.799   9.790
35690W        W 3908  25.876   4.286  13.517
35691W        W 3909   3.475  29.616   0.928
35692W        W 3910  25.449   4.312  12.694
35693W        W 3911  41.614  33.410   2.610
35694W        W 3912   9.932  43.477  14.957
35695W        W 3913   3.498  40.672   4.949
35696W        W 3914  36.011  12.343   2.301
35697W        W 3915  36.358  25.085   1.413
35698W        W 3916  15.192   5.341  12.494
35699W        W 3917  12.300  43.167  13.753
35700W        W 3918  33.427   9.212   3.363
35701W        W 3919  35.481  43.600   3.185
35702W        W 3920  43.592   5.909   2.265
35703W        W 3921  16.812   5.216   4.505
35704W        W 3922  25.969  22.609  12.327
35705W        W 3923  14.576  16.775  13.803
35706W        W 3924  26.031  31.230  11.003
35707W        W 3925  41.818  24.984  14.553
35708W        W 3926   8.778  28.123   1.195
35709W        W 3927  16.289  20.697   2.704
35710W        W 3928  26.753  37.847   4.742
35711W        W 3929   5.346  12.592  11.197
35712W        W 3930  22.161  38.058   2.808
35713W        W 3931   6.839  22.707   1.862
35714W        W 3932  26.363  14.389   0.770
35715W        W 3933  37.930  21.017  11.976
35716W        W 3934  39.893  37.142  11.925
35717W        W 3935  11.023  20.452   1.946
35718W        W 3936  39.480  43.636  11.635
35719W        W 3937   3.047  29.582  14.304
35720W        W 3938   3.232  12.265  12.351
35721W        W 3939  22.948  26.261  11.122
35722W        W 3940  36.100   0.166  11.178
35723W        W 3941  11.835  15.881  11.248
35724W        W 3942  32.240  27.614  14.767
35725W        W 3943  34.020  24.664   4.730
35726W        W 3944  18.058  28.326   4.009
35727W        W 3945  16.174  29.657   4.527
35728W        W 3946  36.840  22.988   0.648
35729W        W 3947   1.079   0.783  14.605
35730W        W 3948   1.277   9.207  12.906
35731W        W 3949  35.491  22.597   3.247
35732W        W 3950  41.431  28.921   4.140
35733W        W 3951  26.885   5.622  14.379
35734W        W 3952  13.796  17.259  13.953
35735W        W 3953  23.197  12.771  13.629
35736W        W 3954  25.780  11.873   1.445
35737W        W 3955   5.430  18.169   2.023
35738W        W 3956  28.053  26.898   0.228
35739W        W 3957   4.939  21.793  14.464
35740W        W 3958  30.977  34.249   2.250
35741W        W 3959  22.054  10.090   0.303
35742W        W 3960  10.053  36.381  13.403
35743W        W 3961  10.676  23.179  13.328
35744W        W 3962  14.174  11.111  14.333
35745W        W 3963   1.960  34.648  14.352
35746W        W 3964  28.185  40.738  12.722
35747W        W 3965   8.748  15.826  13.091
35748W        W 3966  18.791  17.325   1.755
35749W        W 3967  39.390  25.219   2.885
35750W        W 3968  33.662  41.805   1.840
35751W        W 3969   3.665  38.524  13.474
35752W        W 3970   1.442  22.412   2.293
35753W        W 3971  41.841  24.133  10.677
35754W        W 3972  42.978  38.941  14.481
35755W        W 3973  25.988  37.651  13.990
35756W        W 3974  10.276   5.688   2.791
35757W        W 3975  18.109  26.016   4.132
35758W        W 3976  26.568  39.593  11.897
35759W        W 3977  31.142  38.077  14.366
35760W        W 3978   2.823  16.637  11.705
35761W        W 3979  10.153  39.372  10.637
35762W        W 3980  27.200  12.595   2.938
35763W        W 3981  41.245  28.107   3.104
35764W        W 3982  34.914  28.743  12.079
35765W        W 3983  12.645  26.783   5.053
35766W        W 3984  35.590  19.177  14.815
35767W        W 3985  16.727  17.261  14.027
35768W        W 3986  20.213  13.733   0.886
35769W        W 3987  30.826  31.965   4.798
35770W        W 3988  14.651  20.658   1.170
35771W        W 3989  37.668   8.356   2.140
35772W        W 3990  35.486  26.178   5.095
35773W        W 3991   8.645   3.577  11.429
35774W        W 3992   1.853  39.506   3.871
35775W        W 3993  10.348  40.814  11.620
35776W        W 3994  35.816  42.210  13.858
35777W        W 3995  21.716  36.511   0.973
35778W        W 3996  10.118   2.942  10.618
35779W        W 3997  12.614  14.151  11.628
35780W        W 3998  31.156  43.917   0.843
35781W        W 3999  36.631   1.074   1.580
35782W        W 4000  26.667  11.706  10.853
35783W        W 4001  36.102  43.328  12.283
35784W        W 4002  13.047  21.486   3.185
35785W        W 4003  16.266   5.982  13.834
35786W        W 4004  25.715  41.968  12.176
35787W        W 4005   6.405  24.725  12.507
35788W        W 4006  34.189  37.350  11.204
35789W        W 4007  27.183  26.037  12.637
35790W        W 4008  35.379   2.907   2.538
35791W        W 4009  26.374  35.043  10.571
35792W        W 4010  23.571   4.318  11.264
35793W        W 4011  26.197  19.006   0.933
35794W        W 4012  23.738   7.684  11.150
35795W        W 4013  10.245  12.523   3.971
35796W        W 4014  22.787  35.356   3.687
35797W        W 4015   9.805  17.649   4.605
35798W        W 4016  21.629  44.404   1.340
35799W        W 4017  40.461  17.346  11.976
35800W        W 4018  31.545  29.392  14.507
35801W        W 4019  24.713  33.786  13.260
35802W        W 4020   1.451   2.129  11.592
35803W        W 4021   1.724  39.102  13.747
35804W        W 4022  13.381   7.135  12.016
35805W        W 4023  25.445  34.625   0.940
35806W        W 4024   4.167  24.056   0.643
35807W        W 4025   0.350  38.973  13.559
35808W        W 4026  28.152  24.408  10.979
35809W        W 4027  43.657  43.319   1.529
35810W        W 4028  36.476   9.315  14.990
35811W        W 4029   0.388  36.874   1.434
35812W        W 4030  20.003  17.393   2.367
35813W        W 4031  27.015  32.839   0.164
35814W        W 4032   1.334   2.534   4.714
35815W        W 4033  37.784   6.107  14.546
35816W        W 4034   0.246  26.588   3.717
35817W        W 4035   6.112  37.412  11.449
35818W        W 4036  36.146  14.113  11.209
35819W        W 4037  14.542  12.797  12.511
35820W        W 4038   2.409  17.029  13.476
35821W        W 4039  29.621  39.811   4.074
35822W        W 4040  16.023  22.908  10.991
35823W        W 4041  32.529  29.059  14.840
35824W        W 4042  22.833  13.756  11.182
35825W        W 4043  40.162  41.739   4.975
35826W        W 4044  13.851  29.383   3.597
35827W        W 4045  44.432  20.831  13.576
35828W        W 4046  38.523  24.439  12.204
35829W        W 4047  31.289  26.874   4.954
35830W        W 4048   7.645   7.321  14.040
35831W        W 4049  27.634   4.356  10.665
35832W        W 4050  15.843  32.556  11.479
35833W        W 4051  12.357   4.897   4.127
35834W        W 4052  40.982  36.766   4.557
35835W        W 4053  20.465  39.369   0.847
35836W        W 4054  15.050  10.783  11.889
35837W        W 4055   0.160   6.455   4.063
35838W        W 4056  37.595  36.456  10.448
35839W        W 4057   7.387   2.811  12.516
35840W        W 4058   5.246  21.030  14.798
35841W        W 4059  44.053  39.638   4.722
35842W        W 4060  11.978  19.101  10.656
35843W        W 4061  12.887  32.853   3.082
35844W        W 4062  13.784  22.528  13.300
35845W        W 4063  21.437   7.690  13.519
35846W        W 4064  31.523  12.201   1.331
35847W        W 4065  22.341  35.001   2.892
35848W        W 4066  29.811  28.632   2.372
35849W        W 4067   9.411  16.295  14.058
35850W        W 4068   0.428  15.743  14.397
35851W        W 4069   3.756  36.671  14.336
35852W        W 4070  38.521  22.757  14.858
35853W        W 4071  39.943   5.799   1.366
35854W        W 4072  33.387  42.917  13.441
35855W        W 4073  40.304   3.957  13.966
35856W        W 4074  42.999  23.120  11.434
35857W        W 4075  10.018  11.697   2.742
35858W        W 4076  18.300  29.478   1.386
35859W        W 4077  12.787  24.529   3.295
35860W        W 4078   4.624  41.214  14.768
35861W        W 4079  37.019  27.021  12.948
35862W        W 4080  42.327  25.553   4.585
35863W        W 4081  31.808   7.797  14.627
35864W        W 4082  34.887   1.955   1.741
35865W        W 4083   4.224  25.311   4.081
35866W        W 4084   9.949  33.088  14.014
35867W        W 4085   7.586   9.764   0.703
35868W        W 4086   5.372  33.624   2.884
35869W        W 4087  34.562  35.387  13.834
35870W        W 4088   0.894  32.602  10.684
35871W        W 4089  23.990  23.997  12.440
35872W        W 4090  36.964  26.502  13.784
35873W        W 4091  37.705  31.435  10.542
35874W        W 4092  25.472  25.174   0.891
35875W        W 4093  14.361  36.480  12.814
35876W        W 4094  10.647  19.283  13.044
35877W        W 4095  25.035  11.775   4.221
35878W        W 4096  28.080  44.582   3.294
35879W        W 4097  39.559  18.038  14.394
35880W        W 4098   1.008   9.386   0.758
35881W        W 4099  29.138  43.838  11.541
35882W        W 4100  34.878  38.910   0.353
35883W        W 4101  17.863  43.837   5.089
35884W        W 4102   2.003  36.849  12.554
35885W        W 4103  43.922   1.462  13.264
35886W        W 4104  29.248  24.216  11.193
35887W        W 4105  10.615  23.574   3.180
35888W        W 4106  33.012  10.131   0.312
35889W        W 4107  43.685  43.825   1.916
35890W        W 4108  42.299  30.150   4.909
35891W        W 4109  17.568  15.302   0.443
35892W        W 4110  21.097  18.786   3.795
35893W        W 4111  19.787  37.899   3.970
35894W        W 4112  34.634  28.166   3.208
35895W        W 4113  21.497  15.644   4.518
35896W        W 4114  17.421  31.421  13.612
35897W        W 4115  20.355  18.602  13.374
35898W        W 4116  29.560  22.162  11.699
35899W        W 4117  13.174  44.952  13.038
35900W        W 4118   4.370  17.819  11.460
35901W        W 4119   6.320  23.091  12.803
35902W        W 4120  37.075  29.007  12.054
35903W        W 4121   8.466  29.157   1.374
35904W        W 4122  22.285  26.432   1.204
35905W        W 4123  16.584  35.187  10.555
35906W        W 4124  22.250  10.661  14.392
35907W        W 4125  20.375  39.463  11.544
35908W        W 4126  20.605  15.272  10.852
35909W        W 4127  42.959  41.379   3.794
35910W        W 4128   5.946  43.514   1.161
35911W        W 4129  36.894  37.553  12.058
35912W        W 4130  31.053  32.361   3.204
35913W        W 4131   9.743  22.719  14.100
35914W        W 4132   2.437  40.385  11.813
35915W        W 4133  28.635  19.269   2.325
35916W        W 4134  32.236   9.027  14.151
35917W        W 4135  38.084  38.539  13.280
35918W        W 4136  39.035  38.377  14.435
35919W        W 4137  21.501  14.168  10.737
35920W        W 4138  27.241  38.901  14.077
35921W        W 4139   7.424  43.421   1.351
35922W        W 4140  39.820  40.962   2.291
35923W        W 4141  35.832   8.831  11.571
35924W        W 4142  25.654  41.985  10.848
35925W        W 4143  31.437  25.813  14.882
35926W        W 4144   2.391  23.674  10.397
35927W        W 4145   0.261  41.321  14.435
35928W        W 4146  13.798  43.398   2.314
35929W        W 4147   1.974   9.208  14.803
35930W        W 4148  16.622  20.963   3.871
35931W        W 4149  16.312  13.828  13.547
35932W        W 4150  43.886   0.028   1.358
35933W        W 4151  35.788  18.186   4.239
35934W        W 4152  22.725  35.176  12.637
35935W        W 4153  16.696  31.969  13.517
35936W        W 4154  15.986  14.699   2.654
35937W        W 4155  23.526  30.457  12.040
35938W        W 4156  41.377  12.914  10.608
35939W        W 4157  44.175  19.959   3.901
35940W        W 4158  21.767  40.736   2.154
35941W        W 4159  15.108  11.512   1.300
35942W        W 4160  20.139  17.866   2.260
35943W        W 4161   9.719  36.632   1.357
35944W        W 4162  33.527  20.689   2.292
35945W        W 4163  18.214  10.031   4.528
35946W        W 4164  23.522  14.263   1.169
35947W        W 4165   6.479  37.958   1.771
35948W        W 4166  26.940  14.570  10.756
35949W        W 4167   5.511  23.140  13.588
35950W        W 4168  43.993   3.511  14.756
35951W        W 4169  33.087   3.995   2.094
35952W        W 4170   2.054  21.768   3.759
35953W        W 4171  40.857  30.922   2.869
35954W        W 4172  21.702  40.902   2.900
35955W        W 4173  31.383  44.960  12.831
35956W        W 4174  35.013  41.499  14.073
35957W        W 4175  43.486  22.951  10.612
35958W        W 4176   2.410  32.930  13.990
35959W        W 4177  32.616  21.742  12.795
35960W        W 4178  17.178  24.652   4.125
35961W        W 4179  40.731  19.325  13.405
35962W        W 4180   4.446  26.171   4.268
35963W        W 4181  41.927  27.732  14.249
35964W        W 4182  26.910   2.829  13.494
35965W        W 4183  30.437  13.197   0.391
35966W        W 4184  37.490  34.853   3.240
35967W        W 4185  41.807  21.522   4.966
35968W        W 4186  37.997  25.877   1.454
35969W        W 4187  18.144  42.409   2.591
35970W        W 4188  30.330  22.439  11.068
35971W        W 4189   1.909  19.194  10.869
35972W        W 4190  16.063   6.299   3.857
35973W        W 4191  26.230  22.969  11.844
35974W        W 4192  14.090   2.454   1.750
35975W        W 4193   5.439  26.566   0.008
35976W        W 4194   1.343  42.005   0.167
35977W        W 4195  31.283   1.318   0.319
35978W        W 4196  11.347  15.172   3.990
35979W        W 4197  40.370  10.909   4.518
35980W        W 4198  38.557  31.020   3.248
35981W        W 4199  16.696  34.591   0.294
35982W        W 4200  22.162  11.633   3.693
35983W        W 4201  38.325  43.101  12.278
35984W        W 4202  41.331  32.116   0.148
35985W        W 4203  35.484  20.796   3.712
35986W        W 4204  38.888  42.462  14.042
35987W        W 4205  28.056  29.132  12.278
35988W        W 4206  13.124  33.706   4.060
35989W        W 4207  32.150  17.068  14.437
35990W        W 4208  20.157  29.686   0.944
35991W        W 4209  35.434  12.699   1.687
35992W        W 4210  33.196   4.803  12.114
35993W        W 4211  37.154   5.846  13.854
35994W        W 4212  21.265   1.753  14.975
35995W        W 4213  19.543  37.534   0.967
35996W        W 4214  14.174   4.811  11.704
35997W        W 4215  35.328   7.187  12.524
35998W        W 4216   2.332  41.292   5.067
35999W        W 4217   2.513  17.625   3.190
36000W        W 4218  18.646  43.290   3.916
36001W        W 4219   0.237  40.516  13.126
36002W        W 4220  24.618  35.338  12.614
36003W        W 4221  33.002  12.878  12.934
36004W        W 4222  40.297   2.714  12.566
36005W        W 4223  17.080  11.576   3.252
36006W        W 4224  30.092  13.105  14.446
36007W        W 4225   5.857  33.884  10.584
36008W        W 4226  41.581  38.446   1.425
36009W        W 4227  14.903  18.041  13.755
36010W        W 4228  12.385  42.449  13.126
36011W        W 4229  14.076   0.524   5.269
36012W        W 4230  13.737  13.855   4.786
36013W        W 4231   4.735  17.155  11.136
36014W        W 4232  23.230  29.756   4.043
36015W        W 4233  16.817  41.867  10.588
36016W        W 4234  24.975  40.397  13.430
36017W        W 4235  30.929  38.807  12.195
36018W        W 4236   9.691  26.640   0.945
36019W        W 4237  34.533  31.195  12.457
36020W        W 4238   8.108   0.745   2.819
36021W        W 4239  40.388  41.544  14.449
36022W        W 4240  40.384  25.824  10.610
36023W        W 4241   6.452   8.512   3.598
36024W        W 4242   2.270  29.501   2.435
36025W        W 4243  41.948  26.966  14.743
36026W        W 4244  12.830  40.143  13.326
36027W        W 4245   8.355  42.909   5.145
36028W        W 4246   7.596  44.058  13.880
36029W        W 4247   4.494  38.539   0.544
36030W        W 4248  23.166  37.127   0.950
36031W        W 4249  33.930   4.768   2.738
36032W        W 4250  18.210   6.183  11.994
36033W        W 4251  25.035  37.061  12.029
36034W        W 4252   6.623  41.696   2.905
36035W        W 4253  36.526  12.168  10.630
36036W        W 4254  37.235  21.082  13.929
36037W        W 4255  11.744  29.512  10.173
36038W        W 4256  36.490  44.473  11.700
36039W        W 4257  23.091  20.000   0.552
36040W        W 4258  28.195  43.284   0.237
36041W        W 4259  39.272  40.259   3.298
36042W        W 4260  14.620  20.338  13.490
36043W        W 4261  33.950  26.873  10.806
36044W        W 4262   1.237  29.866   0.400
36045W        W 4263  25.539  32.652  11.673
36046W        W 4264   4.828   5.887  14.805
36047W        W 4265   7.233  40.041   1.402
36048W        W 4266  13.645  31.688   1.396
36049W        W 4267  21.884   3.817   3.164
36050W        W 4268  27.581  44.725   3.531
36051W        W 4269   5.747  36.288  12.879
36052W        W 4270  20.802  37.557   4.108
36053W        W 4271  36.942  16.064  11.098
36054W        W 4272  39.056  35.160  11.466
36055W        W 4273  22.789  25.097  12.124
36056W        W 4274   6.750  34.062  12.383
36057W        W 4275   1.039  12.218   3.697
36058W        W 4276  41.434  39.305  13.766
36059W        W 4277   1.783  19.531  12.961
36060W        W 4278  17.000   5.656   3.628
36061W        W 4279  19.612  37.842   4.612
36062W        W 4280  28.855  38.432  11.574
36063W        W 4281  44.179  39.855   0.410
36064W        W 4282  13.045  31.389  11.013
36065W        W 4283  42.407  17.543   2.677
36066W        W 4284  32.165   6.829  11.013
36067W        W 4285  32.325  16.237  11.606
36068W        W 4286   5.833  21.908   3.115
36069W        W 4287  15.315  41.254  11.756
36070W        W 4288   5.466   2.791   0.963
36071W        W 4289  44.263  34.921   3.578
36072W        W 4290  37.918   9.669   1.260
36073W        W 4291  27.266   2.614  14.360
36074W        W 4292   1.278  31.325   2.412
36075W        W 4293  41.648  31.518   0.074
36076W        W 4294  20.278  20.121  13.358
36077W        W 4295  15.062   6.372   0.210
36078W        W 4296   3.941   7.391  13.332
36079W        W 4297  14.259  26.949  14.091
36080W        W 4298  26.321  39.465  13.102
36081W        W 4299  15.177  11.107   2.592
36082W        W 4300  22.944  17.088   3.681
36083W        W 4301  10.308  31.774   0.510
36084W        W 4302  14.646  42.707   4.602
36085W        W 4303  24.528  13.009  12.590
36086W        W 4304  22.467  28.352   0.665
36087W        W 4305   2.972  16.681   1.420
36088W        W 4306  35.017  28.415  11.681
36089W        W 4307  38.084   9.340  11.995
36090W        W 4308  41.253  28.902   4.637
36091W        W 4309  30.861  37.045   2.662
36092W        W 4310   7.676   1.927   4.113
36093W        W 4311  37.500  33.961   3.305
36094W        W 4312   7.753  15.185  10.222
36095W        W 4313  38.629  11.611   3.262
36096W        W 4314  32.132  43.986  11.731
36097W        W 4315   6.337   2.395  11.902
36098W        W 4316  18.038  28.007   4.463
36099W        W 4317  17.978  13.275  13.058
36100W        W 4318  34.549   6.110   1.254
36101W        W 4319  11.694  31.498  10.537
36102W        W 4320  35.265   0.723   3.789
36103W        W 4321   9.447   5.511  13.126
36104W        W 4322  33.192  12.353   0.853
36105W        W 4323  15.177   5.149  13.360
36106W        W 4324  15.091  39.799  11.000
36107W        W 4325  23.343  35.730  10.172
36108W        W 4326  17.351  18.573  13.802
36109W        W 4327  29.071  35.497  10.750
36110W        W 4328  40.932  18.057  14.782
36111W        W 4329   7.491   6.432  11.045
36112W        W 4330  39.387  12.593   2.964
36113W        W 4331   4.759  27.122   3.664
36114W        W 4332   3.513  22.030  12.879
36115W        W 4333  34.063  40.819   1.011
36116W        W 4334  35.884  23.128   4.575
36117W        W 4335  33.892   0.850   1.396
36118W        W 4336  24.039  29.740  11.642
36119W        W 4337  25.761  26.193   3.666
36120W        W 4338  24.903  27.452   0.766
36121W        W 4339  10.102  24.328   3.409
36122W        W 4340  29.025  14.656   1.863
36123W        W 4341  20.487  38.948   0.538
36124W        W 4342  21.227  25.228  10.709
36125W        W 4343  34.107  44.941  12.013
36126W        W 4344  32.146  10.740   3.739
36127W        W 4345   7.160  16.075  13.508
36128W        W 4346   6.057   4.878  10.228
36129W        W 4347  36.860   1.947  13.615
36130W        W 4348  22.966  17.636   2.331
36131W        W 4349  33.744  13.222   4.084
36132W        W 4350  38.520  24.944  13.048
36133W        W 4351   3.087   6.823  13.269
36134W        W 4352  11.334  40.190   1.229
36135W        W 4353   4.786   2.925  10.586
36136W        W 4354  15.051  22.225   0.861
36137W        W 4355  34.414  40.822   0.563
36138W        W 4356  10.662  15.501  14.861
36139W        W 4357  40.858  31.459   3.706
36140W        W 4358  42.001   5.384   3.600
36141W        W 4359  28.477  10.738   1.808
36142W        W 4360   0.299  18.815  12.062
36143W        W 4361  44.263  42.545   3.109
36144W        W 4362  33.672   0.158   2.794
36145W        W 4363   3.957   5.682  13.323
36146W        W 4364  32.409   1.672   3.417
36147W        W 4365   8.884  13.413   0.017
36148W        W 4366   5.097  44.315  11.147
36149W        W 4367  41.960  10.951   3.660
36150W        W 4368  13.542  39.269  14.448
36151W        W 4369  25.776  19.264   0.030
36152W        W 4370  40.688  13.976   3.197
36153W        W 4371  43.988   1.946  11.681
36154W        W 4372   9.813   9.197   3.635
36155W        W 4373  25.416  44.708  11.079
36156W        W 4374  40.140  10.262  12.933
36157W        W 4375   1.258  34.890   3.115
36158W        W 4376  34.645  24.620   1.134
36159W        W 4377  21.694  41.524  11.648
36160W        W 4378   1.289  40.087  11.598
36161W        W 4379  28.855  25.725   3.701
36162W        W 4380   1.692  11.703   3.212
36163W        W 4381  20.604   8.347  11.667
36164W        W 4382  40.289  24.611   3.167
36165W        W 4383  34.674   4.883  12.118
36166W        W 4384   8.704  34.904   4.698
36167W        W 4385  32.225   8.813   1.469
36168W        W 4386   8.153  39.525   4.070
36169W        W 4387  11.124   3.919  11.540
36170W        W 4388  32.882  32.013  13.944
36171W        W 4389  25.700  25.641   0.810
36172W        W 4390  15.166   3.927   1.500
36173W        W 4391   7.979  42.505   1.323
36174W        W 4392   3.434   1.808  12.612
36175W        W 4393  11.791   8.700  13.378
36176W        W 4394  35.315  19.959  13.872
36177W        W 4395  10.517  13.582   2.690
36178W        W 4396   6.302   4.667  13.865
36179W        W 4397  10.356   6.529   4.511
36180W        W 4398   0.943  32.023   0.879
36181W        W 4399  35.313  12.068  11.947
36182W        W 4400  23.708  33.368  13.053
36183W        W 4401  39.451  13.640  11.115
36184W        W 4402  15.282  27.955   1.684
36185W        W 4403  26.642   6.523   1.019
36186W        W 4404   9.357  15.327  12.488
36187W        W 4405  22.178  21.887   0.935
36188W        W 4406  24.710   3.894  11.293
36189W        W 4407   3.576  23.031   1.842
36190W        W 4408  12.250  26.952   2.243
36191W        W 4409  26.370  13.322  11.850
36192W        W 4410   3.645  42.843  12.293
36193W        W 4411  13.737  32.662   2.178
36194W        W 4412  30.351  24.040  11.673
36195W        W 4413  33.370   4.905  13.984
36196W        W 4414   2.945  20.890   0.919
36197W        W 4415  37.285  36.087   2.632
36198W        W 4416  34.646  16.267  11.891
36199W        W 4417  12.801  24.270   2.849
36200W        W 4418  20.283   5.920  11.528
36201W        W 4419  16.330  39.601  11.992
36202W        W 4420  30.115   9.656  11.569
36203W        W 4421  20.275   8.625  12.533
36204W        W 4422  12.856  34.903  11.079
36205W        W 4423  36.688  16.602   3.723
36206W        W 4424  10.341  38.107  14.357
36207W        W 4425  11.597  15.148   0.180
36208W        W 4426  10.749  44.484   3.688
36209W        W 4427  32.433   8.268   4.533
36210W        W 4428  41.514  35.311  12.643
36211W        W 4429   3.977   6.779  12.637
36212W        W 4430  37.880  33.158   3.770
36213W        W 4431   0.528  30.486   0.359
36214W        W 4432  10.875   5.931  10.747
36215W        W 4433  30.421   5.840  12.069
36216W        W 4434  13.612   8.158   3.371
36217W        W 4435  25.549  20.033   2.132
36218W        W 4436  39.860   8.441  12.447
36219W        W 4437  21.849   2.883  14.846
36220W        W 4438  43.248   0.646   4.052
36221W        W 4439  38.091   0.299   3.827
36222W        W 4440  42.104  35.128  10.985
36223W        W 4441   5.019  43.943  11.510
36224W        W 4442  44.282  21.728   5.002
36225W        W 4443  35.037  30.627   0.448
36226W        W 4444  24.545  34.155   2.876
36227W        W 4445   1.890  17.778  12.467
36228W        W 4446  26.906  19.242   0.385
36229W        W 4447  32.787  12.481   2.395
36230W        W 4448  31.189   5.945  11.494
36231W        W 4449  14.268  23.182   4.653
36232W        W 4450  42.560  44.303  12.037
36233W        W 4451  27.624  40.909   0.378
36234W        W 4452  26.768  12.149  13.924
36235W        W 4453   9.159  27.870   3.382
36236W        W 4454   6.413  33.567  10.738
36237W        W 4455   7.107  44.161  14.038
36238W        W 4456   8.543  44.332   4.207
36239W        W 4457   5.287  15.545  11.914
36240W        W 4458   4.847  20.723  12.640
36241W        W 4459  22.804   4.949  12.073
36242W        W 4460  33.954  23.616  14.495
36243W        W 4461  39.955  17.039   0.965
36244W        W 4462  22.088  13.064   3.693
36245W        W 4463  13.015  27.911   1.810
36246W        W 4464  25.139  39.358  14.503
36247W        W 4465  40.010  12.536   1.342
36248W        W 4466  20.325  28.746  12.972
36249W        W 4467  34.084  27.033  13.868
36250W        W 4468  44.984  38.506  12.026
36251W        W 4469   9.067  17.521  14.891
36252W        W 4470  17.767  35.379   0.937
36253W        W 4471   8.441  44.897   0.828
36254W        W 4472   3.346  23.008  12.520
36255W        W 4473  15.241  26.903   1.009
36256W        W 4474   1.904  36.402  10.761
36257W        W 4475   0.276  12.589   1.683
36258W        W 4476  41.589   1.803  14.629
36259W        W 4477  14.432  17.122  12.582
36260W        W 4478  25.561  33.512   2.383
36261W        W 4479  41.883   8.669  11.520
36262W        W 4480  13.127  21.460   0.968
36263W        W 4481  44.157  30.590  14.984
36264W        W 4482  24.663  17.131  13.795
36265W        W 4483  16.478  12.181   0.814
36266W        W 4484   1.086  33.535   3.075
36267W        W 4485  17.478  24.475  12.353
36268W        W 4486  27.816  26.532  10.324
36269W        W 4487  15.497  38.332   4.580
36270W        W 4488  17.626  32.004   1.503
36271W        W 4489  18.893   7.274   0.884
36272W        W 4490  39.364  11.617   4.334
36273W        W 4491  39.694  20.496   1.913
36274W        W 4492  23.567  16.005   4.257
36275W        W 4493  13.632  18.156  12.765
36276W        W 4494   0.410  29.213  12.405
36277W        W 4495  21.112  30.535   0.250
36278W        W 4496  26.422  30.484   4.210
36279W        W 4497  14.997  33.004   4.057
36280W        W 4498  37.651   3.375  11.288
36281W        W 4499  13.853  26.738   3.159
36282W        W 4500  17.199  20.936  13.763
36283W        W 4501  15.804   8.912  12.524
36284W        W 4502  17.654  19.689   0.920
36285W        W 4503  19.059  22.728  14.275
36286W        W 4504  32.536  39.425  10.949
36287W        W 4505  11.146  24.681  13.063
36288W        W 4506  18.346   1.447  11.449
36289W        W 4507  27.568  39.600  13.474
36290W        W 4508  43.294  22.580   1.812
36291W        W 4509  21.775  30.957  14.845
36292W        W 4510  27.158  13.298   2.542
36293W        W 4511  12.851   4.255  12.549
36294W        W 4512   8.113  43.917  11.638
36295W        W 4513  38.454  26.908   3.145
36296W        W 4514   6.741  20.546   0.215
36297W        W 4515  15.266  11.935   3.197
36298W        W 4516  13.718   2.513   4.130
36299W        W 4517  14.922   5.342   0.452
36300W        W 4518  26.519  36.931  13.974
36301W        W 4519  24.990  35.913   4.195
36302W        W 4520  37.049   1.723  12.190
36303W        W 4521   6.752  19.003  11.421
36304W        W 4522  10.566   1.423  12.015
36305W        W 4523  24.501  31.688  14.477
36306W        W 4524  42.171  25.171   4.148
36307W        W 4525   2.936  18.042   1.251
36308W        W 4526  37.786  36.492  11.688
36309W        W 4527  17.261  44.430  10.520
36310W        W 4528   0.575  41.025  12.056
36311W        W 4529  43.769  17.053  13.986
36312W        W 4530  18.316  19.630  12.681
36313W        W 4531  16.162  43.486  14.873
36314W        W 4532  39.530  21.848  11.258
36315W        W 4533  26.789   7.606  12.437
36316W        W 4534  26.459   7.950  14.352
36317W        W 4535  29.732  23.962   2.321
36318W        W 4536  26.533  13.034   1.146
36319W        W 4537  24.256  18.118   3.359
36320W        W 4538  41.234  32.958   1.838
36321W        W 4539  16.382  36.658   2.084
36322W        W 4540  34.884   2.204   0.278
36323W        W 4541  13.315   6.904   3.628
36324W        W 4542  27.991  23.300   1.850
36325W        W 4543  16.132  19.363  11.340
36326W        W 4544   9.370  37.678  14.416
36327W        W 4545  17.557   4.371   2.594
36328W        W 4546  40.203  44.208   2.100
36329W        W 4547  19.827  36.560  10.735
36330W        W 4548  32.967  26.127  12.669
36331W        W 4549  30.436   3.654   1.690
36332W        W 4550  30.759   8.747   3.216
36333W        W 4551  37.517   4.281  11.252
36334W        W 4552  26.746  32.996  13.313
36335W        W 4553  14.621  27.706   3.618
36336W        W 4554  12.683  22.183  10.361
36337W        W 4555   6.342  13.093   4.114
36338W        W 4556  38.543  31.435   3.797
36339W        W 4557  13.595  16.715  10.535
36340W        W 4558  31.512  42.511   0.551
36341W        W 4559  23.733  32.868   4.160
36342W        W 4560  19.029  44.467   3.950
36343W        W 4561  38.067   2.815  12.113
36344W        W 4562  19.275  43.261  11.651
36345W        W 4563  39.386  18.817   0.783
36346W        W 4564   6.780  11.678   0.914
36347W        W 4565  20.256  14.258  14.322
36348W        W 4566  11.781   5.663  13.960
36349W        W 4567  33.533  23.952   4.614
36350W        W 4568   5.288   8.348   4.371
36351W        W 4569   0.967  30.027  11.619
36352W        W 4570  29.204  17.619   2.818
36353W        W 4571   7.690  22.424   2.315
36354W        W 4572  32.538  24.089  12.564
36355W        W 4573  40.716   7.640  12.893
36356W        W 4574   4.877  35.692   2.436
36357W        W 4575  32.887  13.139   0.257
36358W        W 4576  38.569  42.763  14.335
36359W        W 4577  15.245   2.516   3.557
36360W        W 4578  35.003   8.307   4.879
36361W        W 4579  33.051  11.219  13.239
36362W        W 4580  25.463   9.704  10.657
36363W        W 4581  10.161  17.980   4.745
36364W        W 4582  23.938  34.118  11.985
36365W        W 4583   1.039  38.457   3.682
36366W        W 4584  29.138   7.227   3.115
36367W        W 4585  26.184  37.058   1.232
36368W        W 4586  42.384   0.730  11.041
36369W        W 4587   8.809  18.670   2.802
36370W        W 4588   5.928   5.918  10.713
36371W        W 4589   5.986  11.128   2.412
36372W        W 4590   0.531  43.556   3.608
36373W        W 4591  25.707  40.028   3.589
36374W        W 4592  31.319   1.894  11.960
36375W        W 4593  10.637  38.618  14.968
36376W        W 4594  42.415  27.885  14.380
36377W        W 4595  29.973  44.838  11.124
36378W        W 4596  12.880  23.931   1.352
36379W        W 4597   8.330  35.583   0.293
36380W        W 4598  23.162  31.021   3.141
36381W        W 4599  23.520   9.972   0.422
36382W        W 4600   0.376  41.889   0.304
36383W        W 4601   6.477  20.961   1.343
36384W        W 4602  13.123  37.367   0.240
36385W        W 4603  13.861  29.096  12.187
36386W        W 4604   4.302  22.628  10.988
36387W        W 4605  35.083   7.000  12.059
36388W        W 4606   6.950  27.538  12.475
36389W        W 4607  31.872   3.576   1.783
36390W        W 4608  12.894  24.050  11.238
36391W        W 4609  22.204  13.579   0.625
36392W        W 4610  16.786  36.846  13.846
36393W        W 4611  17.156  22.214   1.800
36394W        W 4612  42.181  37.940  11.689
36395W        W 4613  17.617  24.726   3.746
36396W        W 4614  25.021  14.003   5.088
36397W        W 4615   5.066  23.270  11.799
36398W        W 4616  42.073  42.603   4.095
36399W        W 4617  36.287  27.272  14.285
36400W        W 4618  32.914  36.120   4.068
36401W        W 4619  38.864  29.230  12.049
36402W        W 4620  15.661  31.589  13.947
36403W        W 4621  21.551  38.019  12.457
36404W        W 4622  18.850   4.424   3.773
36405W        W 4623  26.945   2.832   3.210
36406W        W 4624  31.009  11.776   4.728
36407W        W 4625  26.389  23.087   2.912
36408W        W 4626  18.125  39.294   3.048
36409W        W 4627  15.614  17.365   3.793
36410W        W 4628  17.036  15.328  12.998
36411W        W 4629  22.089  18.619   4.428
36412W        W 4630   0.649  43.391  13.486
36413W        W 4631  15.790  41.063  13.532
36414W        W 4632  39.384  22.203   3.414
36415W        W 4633  27.179   6.326   2.303
36416W        W 4634   7.357  15.810   0.228
36417W        W 4635  39.327  44.987   3.182
36418W        W 4636  15.662  40.900  10.889
36419W        W 4637  29.600   7.496   4.165
36420W        W 4638  21.887  25.484  12.642
36421W        W 4639  44.992   4.708  14.447
36422W        W 4640  10.106   7.147   3.123
36423W        W 4641  25.523  36.237  11.031
36424W        W 4642  39.394  10.483  13.352
36425W        W 4643  11.337   0.002   1.208
36426W        W 4644   6.915  18.504  11.220
36427W        W 4645   7.973  36.490  12.596
36428W        W 4646  10.477  11.272  12.435
36429W        W 4647  30.925   0.488  14.842
36430W        W 4648  33.126  18.760  13.300
36431W        W 4649  36.061  28.732  14.941
36432W        W 4650  41.795  36.381  13.370
36433W        W 4651  37.355  18.238   3.088
36434W        W 4652   9.337  20.524  10.812
36435W        W 4653  16.214  19.178   0.820
36436W        W 4654  15.150  41.342   4.546
36437W        W 4655   8.378  23.576  14.373
36438W        W 4656   1.297   8.988   4.068
36439W        W 4657  40.122  12.794  12.062
36440W        W 4658  29.659  30.057   2.449
36441W        W 4659  24.695  15.791   3.415
36442W        W 4660  24.616  14.717   2.688
36443W        W 4661  20.688   9.324   3.681
36444W        W 4662  22.207  40.798  12.935
36445W        W 4663  14.352  23.568  10.479
36446W        W 4664  38.265  32.367   3.236
36447W        W 4665  16.575   1.368   4.918
36448W        W 4666   6.127  35.751   5.122
36449W        W 4667  21.352  44.927  12.355
36450W        W 4668  24.498  22.571   9.982
36451W        W 4669  30.710  42.613   4.149
36452W        W 4670  27.652   4.544  13.704
36453W        W 4671  36.883   4.382   1.001
36454W        W 4672  19.621   2.936  14.999
36455W        W 4673  10.493  25.710   3.233
36456W        W 4674  42.892  32.618   1.465
36457W        W 4675  13.321  15.246  10.859
36458W        W 4676   8.209  28.648   3.544
36459W        W 4677  15.879   0.305  11.194
36460W        W 4678   5.222  31.799  12.666
36461W        W 4679  41.858  18.735  10.599
36462W        W 4680  36.350  11.709  14.286
36463W        W 4681  38.867  43.872   3.653
36464W        W 4682  13.365   5.928  13.593
36465W        W 4683  26.520  34.090   0.425
36466W        W 4684   8.194  27.624  11.592
36467W        W 4685  15.060  28.599   3.618
36468W        W 4686  18.610   2.961   4.736
36469W        W 4687  33.690  41.568  13.991
36470W        W 4688  13.106  22.465   3.575
36471W        W 4689   0.850  20.748   2.668
36472W        W 4690  26.584  33.008  12.807
36473W        W 4691  29.400  15.548   2.711
36474W        W 4692   9.475   7.406  13.057
36475W        W 4693  17.846  12.165  13.414
36476W        W 4694  29.586  35.492   3.172
36477W        W 4695  28.567  28.288   1.955
36478W        W 4696  40.581  44.291  11.492
36479W        W 4697   7.253   0.723  13.857
36480W        W 4698  43.687  29.649   1.693
36481W        W 4699  44.145  39.513  14.270
36482W        W 4700  24.112  14.689   1.217
36483W        W 4701   4.836  15.671  11.228
36484W        W 4702  22.744   8.769  13.267
36485W        W 4703  27.372  25.615   1.437
36486W        W 4704  40.788  15.792   4.135
36487W        W 4705  43.891  24.506   0.589
36488W        W 4706  38.499   5.733   3.848
36489W        W 4707  21.520  39.975  14.796
36490W        W 4708  33.165  30.560   2.206
36491W        W 4709   8.144  24.105   3.437
36492W        W 4710  15.759  13.601  10.312
36493W        W 4711  13.382  10.833   1.268
36494W        W 4712  20.145  26.525  10.024
36495W        W 4713   4.813  13.598   4.347
36496W        W 4714  44.674  24.991  11.467
36497W        W 4715   4.497   7.060   2.768
36498W        W 4716  23.783  44.277   3.297
36499W        W 4717  15.577   9.756   0.364
36500W        W 4718  13.204   0.358  12.068
36501W        W 4719   1.856  17.343   4.061
36502W        W 4720  33.550  30.040  11.721
36503W        W 4721  21.661  20.931   2.399
36504W        W 4722  27.116  15.833  13.955
36505W        W 4723  24.270  37.516  14.898
36506W        W 4724  41.940   3.260  14.833
36507W        W 4725  27.885  26.144  12.009
36508W        W 4726  41.053  37.069  14.486
36509W        W 4727  32.873  34.297   2.240
36510W        W 4728  21.159  36.907  13.938
36511W        W 4729   2.220   2.013   1.816
36512W        W 4730  28.006  26.663  11.159
36513W        W 4731  26.719  30.882  12.565
36514W        W 4732  20.816   9.681   4.594
36515W        W 4733  40.255  24.529   2.135
36516W        W 4734  17.520  11.314   9.834
36517W        W 4735  44.853  40.963  13.782
36518W        W 4736  13.656  43.357  10.664
36519W        W 4737  16.705  37.637  12.535
36520W        W 4738  41.793  23.547   3.582
36521W        W 4739   8.705  16.644   1.136
36522W        W 4740  42.860  40.975   0.589
36523W        W 4741   2.749   0.937  10.770
36524W        W 4742  18.676  12.900   2.751
36525W        W 4743  19.883  24.487  12.402
36526W        W 4744  10.820  21.113   0.846
36527W        W 4745  11.294  43.120   0.232
36528W        W 4746  43.318  32.419  11.520
36529W        W 4747  37.495  34.964  14.910
36530W        W 4748  24.315  16.784  13.046
36531W        W 4749  42.025  38.738   4.538
36532W        W 4750   7.925   0.751  11.097
36533W        W 4751   4.026  23.015  13.370
36534W        W 4752  16.047  38.920   3.637
36535W        W 4753  32.558  11.108   2.719
36536W        W 4754  41.254   6.335   0.025
36537W        W 4755  10.544  16.155   5.588
36538W        W 4756  13.684  32.938  13.310
36539W        W 4757  13.238  37.865   3.162
36540W        W 4758   7.300  18.648   4.253
36541W        W 4759   7.963  33.811   3.299
36542W        W 4760   0.847   0.278  12.147
36543W        W 4761  44.273  33.399   3.073
36544W        W 4762  24.018  43.264  14.487
36545W        W 4763  14.875   3.493   5.106
36546W        W 4764   2.349  21.599   4.778
36547W        W 4765  27.011  29.163  12.046
36548W        W 4766  11.892   9.640   3.604
36549W        W 4767  31.502  19.294   4.607
36550W        W 4768  28.437  26.937   0.914
36551W        W 4769   3.065  12.793  10.276
36552W        W 4770  41.284  26.733   2.370
36553W        W 4771  12.809  35.678   4.819
36554W        W 4772  25.120  35.567   3.691
36555W        W 4773  38.470  28.730  12.574
36556W        W 4774  16.078  22.541   3.147
36557W        W 4775   5.676   7.324   4.497
36558W        W 4776  44.504  29.177  12.543
36559W        W 4777  24.934  21.431   1.816
36560W        W 4778  35.764  14.668   4.210
36561W        W 4779  23.738  31.409   0.966
36562W        W 4780  30.097  27.154  14.334
36563W        W 4781   8.863   1.850   4.969
36564W        W 4782   1.260  27.886  11.941
36565W        W 4783  33.579   5.242  11.386
36566W        W 4784  38.949   8.112   4.539
36567W        W 4785  28.220  29.681  12.120
36568W        W 4786   2.294  40.012   0.943
36569W        W 4787  34.967   2.681   2.758
36570W        W 4788   9.712  17.632  14.063
36571W        W 4789  12.610  37.891  12.153
36572W        W 4790  27.956  13.574   4.278
36573W        W 4791  18.022  41.574   3.634
36574W        W 4792  13.353  14.643   3.696
36575W        W 4793   1.770  34.433  12.464
36576W        W 4794  15.825  41.939  12.616
36577W        W 4795  41.401  38.115   0.798
36578W        W 4796  23.784  29.406   3.275
36579W        W 4797  10.009  43.348  10.084
36580W        W 4798  25.862  14.782  10.715
36581W        W 4799   2.127  25.392  12.560
36582W        W 4800  37.385   0.930   2.863
36583W        W 4801  23.209  33.004   3.725
36584W        W 4802  27.011  16.866  13.682
36585W        W 4803  44.954  25.458  14.247
36586W        W 4804  11.651  33.094   3.615
36587W        W 4805  13.631  14.859   1.790
36588W        W 4806  10.805  16.404  14.633
36589W        W 4807   2.830  13.048  13.425
36590W        W 4808  19.125  13.156  13.109
36591W        W 4809  33.837  43.636   0.276
36592W        W 4810  41.873   3.417  12.760
36593W        W 4811  15.090  10.371  14.251
36594W        W 4812  27.145  43.929  10.666
36595W        W 4813  31.261  40.926   1.431
36596W        W 4814   3.899  19.638   1.284
36597W        W 4815   2.884  23.185  14.362
36598W        W 4816   6.212   3.626   0.856
36599W        W 4817  10.840  36.507   0.798
36600W        W 4818  19.478   1.358   3.625
36601W        W 4819  38.553   2.688  13.029
36602W        W 4820   9.648  11.129  14.380
36603W        W 4821  20.925  17.570  11.447
36604W        W 4822   1.132  41.971  14.712
36605W        W 4823  21.184  15.801   0.800
36606W        W 4824  43.114  11.536  13.903
36607W        W 4825  14.648   8.335   0.797
36608W        W 4826  16.095   7.359   2.915
36609W        W 4827   5.806   2.263   0.764
36610W        W 4828  32.096  23.072  11.152
36611W        W 4829  19.835   7.265   3.697
36612W        W 4830   5.462  44.167  12.453
36613W        W 4831  23.114   8.720  14.521
36614W        W 4832   7.895  30.893  11.704
36615W        W 4833  10.199   6.488  13.857
36616W        W 4834  30.948  12.798   0.859
36617W        W 4835  35.181  16.072  12.839
36618W        W 4836  42.400  19.812   3.747
36619W        W 4837  37.553  27.241   3.843
36620W        W 4838   3.071  23.163   1.864
36621W        W 4839   1.631  29.048   1.498
36622W        W 4840  19.673  24.172   3.578
36623W        W 4841  30.209  40.841  12.502
36624W        W 4842  35.462   8.757  13.324
36625W        W 4843  29.609   0.350   1.851
36626W        W 4844  35.803  32.074  10.936
36627W        W 4845  22.545  41.981   0.244
36628W        W 4846  28.568   4.972   4.425
36629W        W 4847  31.375   0.931  13.960
36630W        W 4848   5.896  17.021   2.258
36631W        W 4849   7.804  15.257   4.123
36632W        W 4850  13.732  41.912   5.077
36633W        W 4851  27.423  29.041   4.480
36634W        W 4852  35.938  12.752   1.949
36635W        W 4853   3.473   2.230   4.413
36636W        W 4854  12.732  20.760   3.645
36637W        W 4855  27.611  43.732  12.532
36638W        W 4856   7.934  18.470  14.254
36639W        W 4857  22.030  23.351   4.097
36640W        W 4858  23.241  30.674  13.147
36641W        W 4859  24.666  21.005  14.763
36642W        W 4860  19.965  27.533  14.904
36643W        W 4861  23.945  37.079  12.597
36644W        W 4862   7.141  16.318   0.208
36645W        W 4863  28.748  37.605  12.932
36646W        W 4864  44.183   0.978   4.980
36647W        W 4865  41.110   4.900   0.726
36648W        W 4866  22.959  23.728  12.912
36649W        W 4867  18.275  22.653   3.243
36650W        W 4868  32.156  39.191  11.187
36651W        W 4869  42.384  21.557  14.426
36652W        W 4870  40.295  38.517  13.043
36653W        W 4871  17.075  25.765  11.576
36654W        W 4872  41.969  11.721  13.149
36655W        W 4873  32.670   2.771   4.055
36656W        W 4874   4.025  25.990   3.028
36657W        W 4875  22.178  39.870   4.897
36658W        W 4876  13.276  35.898   0.196
36659W        W 4877   7.751  43.676  14.196
36660W        W 4878  42.836  20.852  14.498
36661W        W 4879  25.544  35.298  14.926
36662W        W 4880  34.805  37.448  13.891
36663W        W 4881  38.781  14.573  10.576
36664W        W 4882  37.453  34.149   4.284
36665W        W 4883  27.989  12.148  10.548
36666W        W 4884  42.183  19.995  11.273
36667W        W 4885   2.492  11.776  12.682
36668W        W 4886  12.130  21.668   3.553
36669W        W 4887   3.852  24.076   4.365
36670W        W 4888  13.626   5.288  12.980
36671W        W 4889  40.838  22.234  12.403
36672W        W 4890  43.968  26.019   4.469
36673W        W 4891   9.813   0.815  12.059
36674W        W 4892  36.160  11.171  11.111
36675W        W 4893  11.404  22.176   3.971
36676W        W 4894  30.164  33.126  12.289
36677W        W 4895  25.720  44.307  10.993
36678W        W 4896  25.406  16.039   0.624
36679W        W 4897   7.237  23.743   2.189
36680W        W 4898  37.306  30.354   4.124
36681W        W 4899  18.225  41.025  11.470
36682W        W 4900  14.809  19.105   0.282
36683W        W 4901  34.501  35.205  12.469
36684W        W 4902  39.399  25.933   4.650
36685W        W 4903  25.234  27.783   4.400
36686W        W 4904  38.997  13.591  14.791
36687W        W 4905  37.298  32.236   2.781
36688W        W 4906  20.021  21.482   2.813
36689W        W 4907   7.905  22.429   5.085
36690W        W 4908  16.762  31.684   1.350
36691W        W 4909  15.418  13.713   5.588
36692W        W 4910  13.309  34.994  13.528
36693W        W 4911  44.506   9.658   2.247
36694W        W 4912  14.826  16.703  10.813
36695W        W 4913  24.991  35.695  10.903
36696W        W 4914  17.304  32.869   1.728
36697W        W 4915  41.860   2.757  14.942
36698W        W 4916   1.415  12.122  12.892
36699W        W 4917  31.126   6.239  10.186
36700W        W 4918  36.630  30.518  13.341
36701W        W 4919  36.945   4.766   2.645
36702W        W 4920   2.082   5.812   1.582
36703W        W 4921  34.349  35.070  13.444
36704W        W 4922   3.893   9.144   2.411
36705W        W 4923  17.284  11.765  13.049
36706W        W 4924  26.811  14.157   0.900
36707W        W 4925  19.633   9.202   2.148
36708W        W 4926  18.618  11.359  12.899
36709W        W 4927  12.101  34.370  10.725
36710W        W 4928  41.439   6.769  11.604
36711W        W 4929  33.723  38.451   4.119
36712W        W 4930  12.832   6.213   2.955
36713W        W 4931  17.309  37.000   3.124
36714W        W 4932   7.568  38.971   3.304
36715W        W 4933  21.517  23.448   4.118
36716W        W 4934  36.665  32.865   2.238
36717W        W 4935  41.100  18.993   1.871
36718W        W 4936  40.952  27.819  13.918
36719W        W 4937   8.372  32.302  13.056
36720W        W 4938  12.618  39.319  14.346
36721W        W 4939   4.862  18.161   0.323
36722W        W 4940   2.198  30.728  11.438
36723W        W 4941  42.430  12.776  11.926
36724W        W 4942  28.085   2.493  12.056
36725W        W 4943   9.654  12.862  14.901
36726W        W 4944  24.364  35.956   2.351
36727W        W 4945  19.768  43.458  11.680
36728W        W 4946   1.361  25.791   0.459
36729W        W 4947  36.924  13.118  10.636
36730W        W 4948  20.769  44.854  11.552
36731W        W 4949  36.816  28.638   1.485
36732W        W 4950  41.467   1.712  12.448
36733W        W 4951  28.095  44.960  13.909
36734W        W 4952  18.098  25.473  14.002
36735W        W 4953  34.306  32.634   2.265
36736W        W 4954  42.861  42.900   3.172
36737W        W 4955  15.702   3.244  13.400
36738W        W 4956  38.561  23.041   4.969
36739W        W 4957  33.127  28.349  13.002
36740W        W 4958  10.379  13.397   3.629
36741W        W 4959  30.426  31.139  11.469
36742W        W 4960  10.723  15.787   2.272
36743W        W 4961  23.230  24.180  12.927
36744W        W 4962  41.791   8.465   1.760
36745W        W 4963  10.510  17.175  14.216
36746W        W 4964   0.748   2.756   0.469
36747W        W 4965  43.796  20.843  12.876
36748W        W 4966  38.443  44.858  14.201
36749W        W 4967  33.717  39.993   4.444
36750W        W 4968  22.212   3.977  13.363
36751W        W 4969   8.936  29.580  13.730
36752W        W 4970  32.151   9.846  10.969
36753W        W 4971  32.236  32.371  12.493
36754W        W 4972  13.285  33.558  11.016
36755W        W 4973   9.400   4.311  14.020
36756W        W 4974  18.346   8.660   4.996
36757W        W 4975   3.733  38.750  13.964
36758W        W 4976  31.647  21.182   0.825
36759W        W 4977  11.591   1.212   4.725
36760W        W 4978  26.600  32.443   1.783
36761W        W 4979   0.366   3.657  12.544
36762W        W 4980  14.126  10.654   2.268
36763W        W 4981  36.065   1.784   1.001
36764W        W 4982   1.790   7.444  12.009
36765W        W 4983   1.277  38.008   3.530
36766W        W 4984   6.738   1.064   4.486
36767W        W 4985  22.246  19.804   0.199
36768W        W 4986  10.658   6.853   2.362
36769W        W 4987  41.808  22.986  12.048
36770W        W 4988   7.331  40.458  13.303
36771W        W 4989  38.543  44.403   2.828
36772W        W 4990   7.175  42.426  13.352
36773W        W 4991  32.050  21.460  11.076
36774W        W 4992  20.659  37.166  10.692
36775W        W 4993  41.450  39.477  12.815
36776W        W 4994   5.804  32.817   3.690
36777W        W 4995  17.049   3.226   2.366
36778W        W 4996  36.947   1.774  11.221
36779W        W 4997  17.191  14.141   2.628
36780W        W 4998   5.586  15.226   4.153
36781W        W 4999  17.877  22.204   4.574
36782W        W 5000  29.835  27.693  12.343
36783W        W 5001  30.151  34.419  14.016
36784W        W 5002  17.540  37.863   1.751
36785W        W 5003  27.396  21.144   4.075
36786W        W 5004  12.226  19.586  10.585
36787W        W 5005  20.337  41.790   4.335
36788W        W 5006  40.272   7.434  12.057
36789W        W 5007  36.157  18.800  12.827
36790W        W 5008  37.905  11.339  12.474
36791W        W 5009  34.216  12.032  11.093
36792W        W 5010   3.232  36.758   4.789
36793W        W 5011  14.646   3.402  13.431
36794W        W 5012  12.459  13.628   0.814
36795W        W 5013  36.780  15.777   2.898
36796W        W 5014  44.549   2.152  12.965
36797W        W 5015  16.375   4.989  12.404
36798W        W 5016  20.847  16.664  11.437
36799W        W 5017  24.575  21.091   4.054
36800W        W 5018  28.995  30.650  12.493
36801W        W 5019  41.126  35.641   2.277
36802W        W 5020  16.633  42.894   2.130
36803W        W 5021  15.788  17.132  14.279
36804W        W 5022  12.170  26.605   3.859
36805W        W 5023  34.386   3.577   1.451
36806W        W 5024  30.548  44.370  12.703
36807W        W 5025   6.387   5.176  12.450
36808W        W 5026  17.247   7.953   3.098
36809W        W 5027   1.362   1.065   4.719
36810W        W 5028  42.301  32.093  12.109
36811W        W 5029  43.006   7.821  13.634
36812W        W 5030  39.331  21.436   1.911
36813W        W 5031  13.655  28.730  13.091
36814W        W 5032  43.406   1.881   5.194
36815W        W 5033  19.941  43.030  12.009
36816W        W 5034  12.239  36.952  11.907
36817W        W 5035  21.261  42.433   3.074
36818W        W 5036  39.096  30.042   2.926
36819W        W 5037  25.306  33.108  10.370
36820W        W 5038  21.603  28.958   4.226
36821W        W 5039  22.588   7.045   0.049
36822W        W 5040   6.257  39.036   2.875
36823W        W 5041  17.452  11.404   1.827
36824W        W 5042  42.787  34.840  12.883
36825W        W 5043  25.173  40.913   0.442
36826W        W 5044  43.856  40.030  10.470
36827W        W 5045  19.868  15.509   5.062
36828W        W 5046  29.499  20.281   2.089
36829W        W 5047  42.372  22.184   2.882
36830W        W 5048   0.401  34.548  12.580
36831W        W 5049  10.194  34.103   3.526
36832W        W 5050  22.309  32.312   3.052
36833W        W 5051  38.970  24.520   0.849
36834W        W 5052  31.879  18.482  13.050
36835W        W 5053   8.116  26.974  14.543
36836W        W 5054  22.855  28.625  12.577
36837W        W 5055  21.326  30.986   1.320
36838W        W 5056  15.536  27.881   2.740
36839W        W 5057  12.635  32.622   1.128
36840W        W 5058  22.426  37.871   9.867
36841W        W 5059  20.529   0.912   4.121
36842W        W 5060  32.038  11.869   1.356
36843W        W 5061  18.066  34.722   1.405
36844W        W 5062   4.034  42.973  14.267
36845W        W 5063  43.522  37.890   0.444
36846W        W 5064   5.404  34.070  10.994
36847W        W 5065  16.585  39.069  14.914
36848W        W 5066  31.896   7.385   2.654
36849W        W 5067  27.819   6.461   3.228
36850W        W 5068  10.960   5.841  13.440
36851W        W 5069  39.754   7.266  14.265
36852W        W 5070  35.342  10.861  10.666
36853W        W 5071  24.058  17.695   0.920
36854W        W 5072  15.795   8.746   0.304
36855W        W 5073  35.324  38.204  14.310
36856W        W 5074  29.684  42.316   3.164
36857W        W 5075  41.540  36.973  11.583
36858W        W 5076   9.738  39.433   2.712
36859W        W 5077  25.510  21.491   1.989
36860W        W 5078  20.594  35.677   0.887
36861W        W 5079  36.283  30.088   4.654
36862W        W 5080  12.390  41.596  14.516
36863W        W 5081  32.574  26.738   4.062
36864W        W 5082  40.475  38.615  12.534
36865W        W 5083  31.758  44.851  10.648
36866W        W 5084   6.265  44.633  13.927
36867W        W 5085  21.619   2.203   0.957
36868W        W 5086  28.182  42.936   2.287
36869W        W 5087  12.271  40.295   4.114
36870W        W 5088  17.214  43.739   3.161
36871W        W 5089  34.360  25.471   2.766
36872W        W 5090  10.251  18.590   0.393
36873W        W 5091   9.621  43.378   2.702
36874W        W 5092   1.167  16.700   3.266
36875W        W 5093  15.240  12.245   1.646
36876W        W 5094  36.215  42.786   4.174
36877W        W 5095  26.890   7.376  13.297
36878W        W 5096  16.304  19.700   0.739
36879W        W 5097  41.537   6.737   1.264
36880W        W 5098   1.874  22.034   1.214
36881W        W 5099  12.771   6.395   1.397
36882W        W 5100  14.736  27.946  13.810
36883W        W 5101  29.161  20.524  11.192
36884W        W 5102   6.224   9.034   4.111
36885W        W 5103  15.037  21.080  14.302
36886W        W 5104  16.305  21.203   1.393
36887W        W 5105   6.392  32.015  11.642
36888W        W 5106  26.667  27.572  13.873
36889W        W 5107  26.452  27.193  10.402
36890W        W 5108  37.090  34.382   4.881
36891W        W 5109  11.709  33.981  14.231
36892W        W 5110  19.385  19.829  14.968
36893W        W 5111  10.924  20.947  14.395
36894W        W 5112  22.062   0.760   2.346
36895W        W 5113  16.701  37.090   4.154
36896W        W 5114  28.060   9.753  11.504
36897W        W 5115  42.372  20.184   2.824
36898W        W 5116  23.198  25.987  11.984
36899W        W 5117  12.533   3.446   1.825
36900W        W 5118  36.239  38.390   3.662
36901W        W 5119  38.330  43.922   2.835
36902W        W 5120   5.287  11.374  11.434
36903W        W 5121  13.577   5.845   4.620
36904W        W 5122  39.430  27.530   0.884
36905W        W 5123  28.489  14.416   5.324
36906W        W 5124  33.985  14.673  13.793
36907W        W 5125  31.482  12.138   1.898
36908W        W 5126  34.369   3.795  12.071
36909W        W 5127  27.392   3.402   2.332
36910W        W 5128   4.386   4.639  10.794
36911W        W 5129  39.061  39.411  13.574
36912W        W 5130  27.688  22.727   1.675
36913W        W 5131  34.063  22.540  10.373
36914W        W 5132  44.001  30.896   3.816
36915W        W 5133  32.487  35.167   4.095
36916W        W 5134  38.620  14.074   2.579
36917W        W 5135  34.955   4.120  13.284
36918W        W 5136   9.441   8.908   4.522
36919W        W 5137  37.021  25.826  11.241
36920W        W 5138   8.189   0.329   1.876
36921W        W 5139  24.046  37.982   1.151
36922W        W 5140   2.405  26.371  12.400
36923W        W 5141  24.517  10.545   0.937
36924W        W 5142  24.957   2.859   4.051
36925W        W 5143  32.091  27.037   0.864
36926W        W 5144  38.300  36.931   0.266
36927W        W 5145  12.670  34.138  10.673
36928W        W 5146  37.266  11.794  14.520
36929W        W 5147  31.454  28.657   1.310
36930W        W 5148  11.728  36.459  10.648
36931W        W 5149   6.624  40.527   0.828
36932W        W 5150  34.189  33.127   2.520
36933W        W 5151  32.604  21.121  14.310
36934W        W 5152   4.055  23.636   3.298
36935W        W 5153  11.508   4.853  13.843
36936W        W 5154   7.842  21.489  13.049
36937W        W 5155  19.592  12.932  14.291
36938W        W 5156  36.254  42.022   3.644
36939W        W 5157  30.445   2.552   2.152
36940W        W 5158  31.402   2.353  14.246
36941W        W 5159  18.106  22.999   1.418
36942W        W 5160  29.653  39.471   1.920
36943W        W 5161  27.056  20.825  13.827
36944W        W 5162  28.493  44.896  12.390
36945W        W 5163   1.765  29.401  12.342
36946W        W 5164  22.322  17.341   0.870
36947W        W 5165   4.918  35.787  12.998
36948W        W 5166  14.053  40.912   0.990
36949W        W 5167  29.565  16.397   3.097
36950W        W 5168   0.432   1.194   3.133
36951W        W 5169  43.904  40.311  11.847
36952W        W 5170  31.172  36.348  14.340
36953W        W 5171  27.605  13.481   4.680
36954W        W 5172  38.073  36.991   0.744
36955W        W 5173  41.398  37.502   4.374
36956W        W 5174  39.503  11.741   0.379
36957W        W 5175  33.826   3.740  14.820
36958W        W 5176  16.311   3.683   0.274
36959W        W 5177  21.040   6.705  11.118
36960W        W 5178  20.681  20.430  14.478
36961W        W 5179  33.618   1.423   2.346
36962W        W 5180  19.254   5.734  13.924
36963W        W 5181  38.300   3.774   1.809
36964W        W 5182  12.779  28.693  12.889
36965W        W 5183   0.738   0.951   3.577
36966W        W 5184  11.243  28.473   4.637
36967W        W 5185   3.124  39.060  12.853
36968W        W 5186  10.271  44.372   1.463
36969W        W 5187  16.684  15.617  14.739
36970W        W 5188   5.171  29.421   3.772
36971W        W 5189  22.574   6.430  14.881
36972W        W 5190  21.479  20.620  12.389
36973W        W 5191  25.958   6.714   2.705
36974W        W 5192   0.210  34.361  11.631
36975W        W 5193  24.053   4.919   5.278
36976W        W 5194  39.088   5.952  14.419
36977W        W 5195  34.806  20.659   1.816
36978W        W 5196  39.626  20.107  13.736
36979W        W 5197  15.818  22.098   2.937
36980W        W 5198  42.718  14.662   2.932
36981W        W 5199  28.984  15.328   3.658
36982W        W 5200   2.155  24.041   2.871
36983W        W 5201  11.694  23.641  13.114
36984W        W 5202  11.603   5.858   3.262
36985W        W 5203  35.624  11.065   4.565
36986W        W 5204  17.404  22.702  12.095
36987W        W 5205  40.242  19.754   0.484
36988W        W 5206  16.077  29.208   2.359
36989W        W 5207   4.312  18.308   1.327
36990W        W 5208  33.588  41.937  12.064
36991W        W 5209  38.046   2.996   3.244
36992W        W 5210  35.980   7.886   4.895
36993W        W 5211  42.501   9.949   1.340
36994W        W 5212  28.673   2.998  12.984
36995W        W 5213  44.783  36.358  13.462
36996W        W 5214  21.078   6.812   0.946
36997W        W 5215  20.297  42.519   0.358
36998W        W 5216  24.243  42.371   3.042
36999W        W 5217   1.416  20.046   0.762
37000W        W 5218  30.033  19.711  13.492
37001W        W 5219  32.888   8.943  12.060
37002W        W 5220   7.138  25.041  10.662
37003W        W 5221  44.396  24.460  13.418
37004W        W 5222   2.366  17.458  11.643
37005W        W 5223  30.615  23.875  13.395
37006W        W 5224  43.440  15.323   3.128
37007W        W 5225  20.760  35.068   1.811
37008W        W 5226  42.230  28.173   2.882
37009W        W 5227   3.478   4.141  11.111
37010W        W 5228  35.356  15.592   2.598
37011W        W 5229   6.808  36.231  11.122
37012W        W 5230   7.286  22.472   2.665
37013W        W 5231   7.924  16.968   2.228
37014W        W 5232  27.498   2.481   2.349
37015W        W 5233  24.008  25.529  12.556
37016W        W 5234  34.881  17.901   3.285
37017W        W 5235  20.341  31.372  13.464
37018W        W 5236  32.718  10.366   3.295
37019W        W 5237  15.387  37.109   3.296
37020W        W 5238  23.194  32.589  14.742
37021W        W 5239  11.682   3.841   4.422
37022W        W 5240  17.334  39.388   2.370
37023W        W 5241   4.790  31.659   4.163
37024W        W 5242   7.779   9.074   3.257
37025W        W 5243   0.499  38.485  10.748
37026W        W 5244  28.984  37.936  11.631
37027W        W 5245  41.111  23.792  12.190
37028W        W 5246   8.634  43.579   2.575
37029W        W 5247  40.881  10.643   0.905
37030W        W 5248  30.577  39.836   3.634
37031W        W 5249   5.602   9.677  14.049
37032W        W 5250  39.271  30.182  11.203
37033W        W 5251  29.590  11.100  10.799
37034W        W 5252  38.752  41.206  14.373
37035W        W 5253  44.300  28.036   2.688
37036W        W 5254   4.052   0.022  10.422
37037W        W 5255   1.262  23.871   1.413
37038W        W 5256  10.274   4.636  14.962
37039W        W 5257  39.047   5.268   1.314
37040W        W 5258  24.191  21.240  14.803
37041W        W 5259   0.829  23.613   1.269
37042W        W 5260  35.883  24.745  13.122
37043W        W 5261   9.330  39.114   2.640
37044W        W 5262  26.945  27.547  11.500
37045W        W 5263   9.200   7.366   1.912
37046W        W 5264  30.839  23.027   1.789
37047W        W 5265  37.945  40.049  14.929
37048W        W 5266   9.261  24.307   2.599
37049W        W 5267   6.958  20.676  12.054
37050W        W 5268  26.687  34.088  13.464
37051W        W 5269  20.612  26.830  12.872
37052W        W 5270   4.929   5.413  11.580
37053W        W 5271  17.950  30.436  14.919
37054W        W 5272   6.114  38.728  11.325
37055W        W 5273  34.644  35.304   3.007
37056W        W 5274   3.129  19.990   2.792
37057W        W 5275  25.057  13.579  10.648
37058W        W 5276  14.722  12.706  12.035
37059W        W 5277  25.099  26.629   3.244
37060W        W 5278  40.588  26.384   2.797
37061W        W 5279  43.042  13.186   4.779
37062W        W 5280  30.942   7.714   1.794
37063W        W 5281  22.014  23.730   3.145
37064W        W 5282  22.718  11.177   4.344
37065W        W 5283  25.701   9.821  13.796
37066W        W 5284  34.926  26.109  13.381
37067W        W 5285   5.212  16.135   4.428
37068W        W 5286  34.663  12.638  14.952
37069W        W 5287  31.123  35.955   5.068
37070W        W 5288  41.150  23.625   1.171
37071W        W 5289  10.615  10.494   0.730
37072W        W 5290   2.762  25.506  11.193
37073W        W 5291  36.172  32.993   3.908
37074W        W 5292  25.102  44.196  12.260
37075W        W 5293  29.595  20.772  11.071
37076W        W 5294   6.826  39.761   5.562
37077W        W 5295  11.097  22.506   4.817
37078W        W 5296  42.118  30.878  14.849
37079W        W 5297   7.767  34.562   1.679
37080W        W 5298  28.437  38.550   3.293
37081W        W 5299  27.724   4.910  11.921
37082W        W 5300  10.319  19.575   2.327
37083W        W 5301  43.625   0.299   4.276
37084W        W 5302  15.279  25.070   4.522
37085W        W 5303  44.844  10.342   3.293
37086W        W 5304  20.142  14.775  10.170
37087W        W 5305  30.624  22.479   3.978
37088W        W 5306   5.784  18.889   4.235
37089W        W 5307  41.170  13.391  10.726
37090W        W 5308  13.763  10.839  11.530
37091W        W 5309   3.628  38.980   2.280
37092W        W 5310  42.722  16.797   0.626
37093W        W 5311  15.769  34.335   2.718
37094W        W 5312  28.667  19.068  10.483
37095W        W 5313  36.958  25.087   2.734
37096W        W 5314  15.226  38.316   1.506
37097W        W 5315  27.985  42.493  14.742
37098W        W 5316  32.841  28.125   2.390
37099W        W 5317  44.071  17.278   2.641
37100W        W 5318  28.625   6.227   3.076
37101W        W 5319  10.745   0.167   2.461
37102W        W 5320  15.701  22.979  12.641
37103W        W 5321  18.631  31.099  12.928
37104W        W 5322  35.552  17.602  14.548
37105W        W 5323  31.366  22.206  12.977
37106W        W 5324  24.026  25.109   1.820
37107W        W 5325  22.687  16.571  13.449
37108W        W 5326   9.225   7.193   9.878
37109W        W 5327   5.231   8.510  12.838
37110W        W 5328  30.225  31.423  11.020
37111W        W 5329   3.867  34.624   0.482
37112W        W 5330  13.061  16.782   0.043
37113W        W 5331  16.552  24.697  12.016
37114W        W 5332  42.088  44.772  14.392
37115W        W 5333  38.336  14.817  11.413
37116W        W 5334   7.316  22.261  11.436
37117W        W 5335  39.308  25.552  14.425
37118W        W 5336   4.138  21.005   1.395
37119W        W 5337  16.111  24.740  14.841
37120W        W 5338   9.325  16.190   4.032
37121W        W 5339  22.551  23.000   0.438
37122W        W 5340  35.991  27.963  13.685
37123W        W 5341  13.749  34.703   1.382
37124W        W 5342  44.968  17.861  12.126
37125W        W 5343  30.363  44.501  13.628
37126W        W 5344  28.260  31.837   1.340
37127W        W 5345  23.664  12.068  12.294
37128W        W 5346  29.992  10.391  10.511
37129W        W 5347  29.964  28.106  12.041
37130W        W 5348  40.944  22.524   0.947
37131W        W 5349  31.183  26.091  12.455
37132W        W 5350  36.366  12.204   0.024
37133W        W 5351   4.456  14.724  11.103
37134W        W 5352  36.122   2.355   1.676
37135W        W 5353   7.673  36.917   3.796
37136W        W 5354   3.860   2.031  12.775
37137W        W 5355  42.300  14.673   4.843
37138W        W 5356  27.216  38.380   4.175
37139W        W 5357  19.100   7.442  12.861
37140W        W 5358  35.611  21.276  12.537
37141W        W 5359  15.629  22.982  13.511
37142W        W 5360  34.850  11.368   3.175
37143W        W 5361   4.807  28.384   4.439
37144W        W 5362   9.828  13.393  10.762
37145W        W 5363  26.533  32.598   3.307
37146W        W 5364  14.237  34.107  13.387
37147W        W 5365  16.532   6.302   4.025
37148W        W 5366  17.238   4.968  10.017
37149W        W 5367  31.072  29.132  14.538
37150W        W 5368  33.596  33.547   0.709
37151W        W 5369  29.609  22.701   3.627
37152W        W 5370   2.356  44.986   2.116
37153W        W 5371  17.861  29.662  11.960
37154W        W 5372   2.071  12.671   1.811
37155W        W 5373   2.365  41.413  12.485
37156W        W 5374  26.575  18.113   2.188
37157W        W 5375  42.995  44.267   5.167
37158W        W 5376  12.481  13.595   3.051
37159W        W 5377  20.364   7.219   3.674
37160W        W 5378   1.926  43.548   2.796
37161W        W 5379  24.697  43.494  12.882
37162W        W 5380  15.106  39.417  11.915
37163W        W 5381  16.127  22.576   4.178
37164W        W 5382  42.008  34.097  12.860
37165W        W 5383  40.982   7.841   0.334
37166W        W 5384  19.130  29.536  13.554
37167W        W 5385  32.191  27.238   3.240
37168W        W 5386  20.697  24.664  12.314
37169W        W 5387   0.340  32.338   1.875
37170W        W 5388  29.156  26.928   3.312
37171W        W 5389   8.335   2.899  11.100
37172W        W 5390  12.047  43.042   0.788
37173W        W 5391  43.058   7.228   4.272
37174W        W 5392   8.995   4.608   1.918
37175W        W 5393  24.460  19.035   3.668
37176W        W 5394  17.862  14.077   0.776
37177W        W 5395   0.092  44.536  12.170
37178W        W 5396  22.186  10.369  13.387
37179W        W 5397  27.074  26.953  14.943
37180W        W 5398  12.214  16.597   2.635
37181W        W 5399   7.424  23.293  13.386
37182W        W 5400  13.692  25.452  13.370
37183W        W 5401  23.182   3.685   3.799
37184W        W 5402  10.050   5.918  11.977
37185W        W 5403  27.486   2.450   0.481
37186W        W 5404  11.067  43.969  10.743
37187W        W 5405  36.855  33.645  13.904
37188W        W 5406  10.141   5.859  14.773
37189W        W 5407  37.627  36.971  12.098
37190W        W 5408  25.694  14.065   2.220
37191W        W 5409  14.587  15.034   2.281
37192W        W 5410  19.015   0.891   0.196
37193W        W 5411  22.274   2.378  11.135
37194W        W 5412   4.796  10.159  14.126
37195W        W 5413   1.226  25.745   2.703
37196W        W 5414   6.911  17.408   0.012
37197W        W 5415  10.940  18.217  10.633
37198W        W 5416  14.130  41.974   3.243
37199W        W 5417  14.759  21.694   2.573
37200W        W 5418   9.564   0.443   1.705
37201W        W 5419   5.424  37.465  13.958
37202W        W 5420  22.201  38.904   4.317
37203W        W 5421  41.273   0.240  13.994
37204W        W 5422  41.213   5.267  12.663
37205W        W 5423  19.006   8.785  10.904
37206W        W 5424  11.645  19.071  13.094
37207W        W 5425   5.413  44.002   4.794
37208W        W 5426  30.190  16.482   0.033
37209W        W 5427  14.589  18.248  13.411
37210W        W 5428   4.642  40.957  10.473
37211W        W 5429   5.662  37.941  14.067
37212W        W 5430  35.478  30.603  14.912
37213W        W 5431  31.162  33.642  14.978
37214W        W 5432  41.393  14.040   2.405
37215W        W 5433   6.670   7.952  11.074
37216W        W 5434  27.146  39.893   3.591
37217W        W 5435  10.913  19.526   4.073
37218W        W 5436  33.947  28.964   1.981
37219W        W 5437   4.843  31.613  14.225
37220W        W 5438  17.330  17.748   0.760
37221W        W 5439  12.797  15.181  11.539
37222W        W 5440   4.160  32.816   0.362
37223W        W 5441  42.031  24.966   1.389
37224W        W 5442  20.158  32.670  13.757
37225W        W 5443  27.466  38.281   0.276
37226W        W 5444  17.250  43.259  11.523
37227W        W 5445  40.285  17.034   4.385
37228W        W 5446  37.324   2.882  11.960
37229W        W 5447  31.996   1.002  14.415
37230W        W 5448  37.890  22.088  10.685
37231W        W 5449  28.372  26.995  11.140
37232W        W 5450   4.850  41.520   1.771
37233W        W 5451  30.452  28.545   9.892
37234W        W 5452  28.003  18.499  14.340
37235W        W 5453  37.849  24.165  12.913
37236W        W 5454  29.623  40.927  10.835
37237W        W 5455  44.786   4.986   2.826
37238W        W 5456  27.780  13.216   9.995
37239W        W 5457  44.344  29.998   0.466
37240W        W 5458  29.154  23.992  14.644
37241W        W 5459   3.378  16.543  13.468
37242W        W 5460  29.061  16.781   2.748
37243W        W 5461  42.871  27.665   4.980
37244W        W 5462   7.895   0.478  14.911
37245W        W 5463  16.234  13.591  14.388
37246W        W 5464  21.107  20.243  10.640
37247W        W 5465  21.003   2.527  13.492
37248W        W 5466   8.176  17.146  14.067
37249W        W 5467  35.349   3.148  11.385
37250W        W 5468  19.653  26.732  12.981
37251W        W 5469  13.142   5.457  13.361
37252W        W 5470  18.379   6.667  12.088
37253W        W 5471   9.998  39.371  12.317
37254W        W 5472  17.651  12.796  11.210
37255W        W 5473  33.010   9.738  12.686
37256W        W 5474  31.818  18.100  13.589
37257W        W 5475  27.652  12.834  12.011
37258W        W 5476  13.282  14.285  12.025
37259W        W 5477   3.991   3.460   1.196
37260W        W 5478  25.210  18.759  11.498
37261W        W 5479   9.219  34.320   1.007
37262W        W 5480   6.998  19.165  11.000
37263W        W 5481   7.312  12.812  11.189
37264W        W 5482  11.400   6.689   2.685
37265W        W 5483  42.106  13.684  13.847
37266W        W 5484   2.359  21.125  10.795
37267W        W 5485  42.746  22.251  12.550
37268W        W 5486   7.241  26.677  10.987
37269W        W 5487  24.106  18.071   1.447
37270W        W 5488  35.457  26.009  13.347
37271W        W 5489  24.446   1.365   4.486
37272W        W 5490   4.460   2.854  11.397
37273W        W 5491  23.559  16.279   3.773
37274W        W 5492  18.808   5.404   4.995
37275W        W 5493  35.349  32.011  13.211
37276W        W 5494  31.670  18.561   3.727
37277W        W 5495  43.728   1.737   3.341
37278W        W 5496  23.565   2.328  10.762
37279W        W 5497  26.198  31.973   1.706
37280W        W 5498  26.469   8.268  14.860
37281W        W 5499   1.674  18.680   4.349
37282W        W 5500  25.913  16.873   4.565
37283W        W 5501   5.243   8.414  10.366
37284W        W 5502  31.973  28.118  12.041
37285W        W 5503  39.551  31.977  10.768
37286W        W 5504  32.630   7.347   3.152
37287W        W 5505  35.515  38.061  12.519
37288W        W 5506  29.969  21.579  14.190
37289W        W 5507  38.246   0.296   5.032
37290W        W 5508  24.777  26.926   2.927
37291W        W 5509  36.123  20.531   0.480
37292W        W 5510  44.094  23.566  10.448
37293W        W 5511  39.895   0.494   0.925
37294W        W 5512  17.815  43.085  14.389
37295W        W 5513   2.472  10.350   3.357
37296W        W 5514  38.369  17.266   1.201
37297W        W 5515  31.462  21.638   4.335
37298W        W 5516  12.357  40.655  11.402
37299W        W 5517   6.398  10.863  13.749
37300W        W 5518  38.835  38.374  10.950
37301W        W 5519  13.188  22.131  14.507
37302W        W 5520   6.927  39.528   0.868
37303W        W 5521  27.679  18.133   4.210
37304W        W 5522  17.683   0.758  14.687
37305W        W 5523   0.675  30.567   0.861
37306W        W 5524  14.261   1.333   4.725
37307W        W 5525  42.109  30.448   0.486
37308W        W 5526  31.662  21.801  12.859
37309W        W 5527  18.181  14.756   4.689
37310W        W 5528  24.012   0.761   0.804
37311W        W 5529  35.425  31.907  14.310
37312W        W 5530  11.768  30.479  10.679
37313W        W 5531   5.487  29.203   2.430
37314W        W 5532   8.305  44.121  10.063
37315W        W 5533  24.212  29.122  13.602
37316W        W 5534  37.504  43.313  13.291
37317W        W 5535  29.462   0.330  14.775
37318W        W 5536  39.787  35.499  11.942
37319W        W 5537   6.112  26.944  12.015
37320W        W 5538  43.930   9.744   4.105
37321W        W 5539  11.725  21.938   2.776
37322W        W 5540  15.095  40.543  11.695
37323W        W 5541  27.549  38.588  13.160
37324W        W 5542   9.180   4.704   4.839
37325W        W 5543  13.497   8.802  14.146
37326W        W 5544   4.099  30.018  13.296
37327W        W 5545  18.354  16.783   3.293
37328W        W 5546   5.508  39.561  11.965
37329W        W 5547  35.148  44.351  12.406
37330W        W 5548  33.472  35.128  11.053
37331W        W 5549  11.705  35.278  14.332
37332W        W 5550  20.203  39.388   3.196
37333W        W 5551  11.880  17.012   2.330
37334W        W 5552  27.509   3.037   4.713
37335W        W 5553   2.199  25.422   4.661
37336W        W 5554  25.528   0.862   4.383
37337W        W 5555  42.403  15.080   0.467
37338W        W 5556  43.521  16.667   2.616
37339W        W 5557  17.635  41.884  14.453
37340W        W 5558  23.889  37.904   3.835
37341W        W 5559  26.075  36.587  14.897
37342W        W 5560  35.925  18.483   3.682
37343W        W 5561  16.749   7.821   3.868
37344W        W 5562  22.342  25.086   4.134
37345W        W 5563  24.236  19.209  13.923
37346W        W 5564  19.545  22.268   3.241
37347W        W 5565  31.433   9.696  13.490
37348W        W 5566  44.225   6.839   3.775
37349W        W 5567   0.226  44.263   2.595
37350W        W 5568  19.181   1.028   2.735
37351W        W 5569   6.073  38.742  11.840
37352W        W 5570  42.396  41.280   3.776
37353W        W 5571  18.374   7.306   0.836
37354W        W 5572  26.616  24.938   2.602
37355W        W 5573  42.857   3.429   3.834
37356W        W 5574  34.116  30.839   2.740
37357W        W 5575   7.504   4.229  13.852
37358W        W 5576  16.319   9.887   3.396
37359W        W 5577  24.530  21.354  13.479
37360W        W 5578  20.840  36.906   1.843
37361W        W 5579  39.346  29.373   1.687
37362W        W 5580  32.448  19.339  14.941
37363W        W 5581  14.715  31.966   4.286
37364W        W 5582  20.745  13.581   0.884
37365W        W 5583   9.750   1.803   0.839
37366W        W 5584  44.891  27.192  14.752
37367W        W 5585  19.178  17.100   3.604
37368W        W 5586  25.202  35.343  13.754
37369W        W 5587  28.575  22.210  10.586
37370W        W 5588  36.924   7.095  14.062
37371W        W 5589  20.473   8.385   3.327
37372W        W 5590  19.762  28.218  13.461
37373W        W 5591  23.108  33.696  14.704
37374W        W 5592  21.284  31.600   4.601
37375W        W 5593   0.860  28.693  12.041
37376W        W 5594   4.658  18.340  13.485
37377W        W 5595  10.546  12.570  13.158
37378W        W 5596   8.481   6.412   0.072
37379W        W 5597  13.608  18.136   3.703
37380W        W 5598  24.352  31.760   4.527
37381W        W 5599  36.916  12.342   0.760
37382W        W 5600  44.028   2.166   3.292
37383W        W 5601  28.890  25.548   1.415
37384W        W 5602  27.228  38.295  13.452
37385W        W 5603   1.977  30.287  11.589
37386W        W 5604  23.184  35.674  11.508
37387W        W 5605  41.508  23.343   0.906
37388W        W 5606  44.911  41.301  10.508
37389W        W 5607  38.376  18.797   0.248
37390W        W 5608  21.573   0.969   4.191
37391W        W 5609  25.216  39.012  13.628
37392W        W 5610  24.380   1.165   1.761
37393W        W 5611  30.887  38.048   3.816
37394W        W 5612   7.221  28.563   3.126
37395W        W 5613  33.860   9.842   1.347
37396W        W 5614  18.050  25.652   3.344
37397W        W 5615   3.308  27.427   0.253
37398W        W 5616   3.054  32.869  11.162
37399W        W 5617   3.421  39.797  12.516
37400W        W 5618  21.500  23.803   3.679
37401W        W 5619  16.467  35.033  11.854
37402W        W 5620  15.157  35.988   1.732
37403W        W 5621  33.100  16.736  13.043
37404W        W 5622  20.282  13.814   4.338
37405W        W 5623  33.485  21.234   2.300
37406W        W 5624  38.583   9.297  12.126
37407W        W 5625   8.881   7.415  11.155
37408W        W 5626  29.661   6.390  11.126
37409W        W 5627  13.621  12.625   2.944
37410W        W 5628  10.762  29.443   1.959
37411W        W 5629  26.953   0.029   3.348
37412W        W 5630  23.067  29.174  14.784
37413W        W 5631   9.100  24.940   3.211
37414W        W 5632  34.637  18.292   2.875
37415W        W 5633   2.276   0.359   4.378
37416W        W 5634  25.501   9.317  12.962
37417W        W 5635  42.056  14.570   1.736
37418W        W 5636  43.575  17.295   1.816
37419W        W 5637  31.041  33.049  10.748
37420W        W 5638  20.607  38.912   1.491
37421W        W 5639  16.906   2.384   9.827
37422W        W 5640  12.811   2.480  11.417
37423W        W 5641  24.116  41.570   3.896
37424W        W 5642  43.884   2.866   2.006
37425W        W 5643  31.410  20.197   3.398
37426W        W 5644  11.376  21.078   0.837
37427W        W 5645  40.055  18.745   4.196
37428W        W 5646  10.291  19.224  13.418
37429W        W 5647  41.204  33.764   2.764
37430W        W 5648  37.261   3.981  13.175
37431W        W 5649  31.044  12.164  10.749
37432W        W 5650  33.123  35.993   3.622
37433W        W 5651  44.126  29.025  14.270
37434W        W 5652   0.701  28.597   0.393
37435W        W 5653   1.480  13.749  11.865
37436W        W 5654   4.852  16.037  12.508
37437W        W 5655  23.441  18.335  14.878
37438W        W 5656  24.422  14.671  10.390
37439W        W 5657  25.681  25.574   0.271
37440W        W 5658   9.347  22.819   1.077
37441W        W 5659  10.653  31.496  13.564
37442W        W 5660  20.637  23.528  12.663
37443W        W 5661  24.938  43.895   0.413
37444W        W 5662  26.922  31.581   1.499
37445W        W 5663  12.339  39.043  12.939
37446W        W 5664  32.498  31.550  12.826
37447W        W 5665  42.870  28.359  12.426
37448W        W 5666  27.689  10.249  14.755
37449W        W 5667  26.561  44.377   2.235
37450W        W 5668  37.477   4.258  10.740
37451W        W 5669  39.432  26.138   2.263
37452W        W 5670  29.288  36.006  11.766
37453W        W 5671  35.131  41.879   0.481
37454W        W 5672  14.172   1.991  11.052
37455W        W 5673  19.077   6.820   1.670
37456W        W 5674  17.835  29.934  13.369
37457W        W 5675  31.427   9.322   3.609
37458W        W 5676  24.397   5.847   0.825
37459W        W 5677  13.891  27.621  13.880
37460W        W 5678  18.506  43.032   2.202
37461W        W 5679  11.754  10.781  12.075
37462W        W 5680  32.932  26.251   4.683
37463W        W 5681  16.563  30.584  14.254
37464W        W 5682  38.409  23.170  14.395
37465W        W 5683  12.323  30.289  13.287
37466W        W 5684  26.623   0.347   0.728
37467W        W 5685  44.775  35.297  12.556
37468W        W 5686  29.912   6.093   1.395
37469W        W 5687   8.496  20.160   2.097
37470W        W 5688  12.754  12.738  12.550
37471W        W 5689  35.473  42.877   1.718
37472W        W 5690  39.851   0.330  10.304
37473W        W 5691  34.352  18.020  14.060
37474W        W 5692  41.785  34.453   3.668
37475W        W 5693   5.392  36.609  13.036
37476W        W 5694  22.059  16.032   2.762
37477W        W 5695  43.576  21.279   0.008
37478W        W 5696  21.942  11.130  12.978
37479W        W 5697  44.443  10.923  14.386
37480W        W 5698   9.493  15.728   0.547
37481W        W 5699  44.752  41.687   3.229
37482W        W 5700   6.684  40.874  11.890
37483W        W 5701   8.479  15.629  13.483
37484W        W 5702  14.346  16.164   4.305
37485W        W 5703  29.950  42.351   3.602
37486W        W 5704  33.877  19.095  11.589
37487W        W 5705   9.382  12.153   0.397
37488W        W 5706  38.036   4.382  11.204
37489W        W 5707   6.182   7.816  10.735
37490W        W 5708  24.590  33.075  13.384
37491W        W 5709  43.862  31.483  10.624
37492W        W 5710  21.169   7.250  11.072
37493W        W 5711  29.373   8.398  11.163
37494W        W 5712  30.098  32.255  12.532
37495W        W 5713  42.012  37.362  13.470
37496W        W 5714  36.395  13.826  12.521
37497W        W 5715  28.143  35.936   3.758
37498W        W 5716  18.289  35.199  14.325
37499W        W 5717  11.375  11.219   0.462
37500W        W 5718  10.398  38.890   1.751
37501W        W 5719  39.114  44.033  11.043
37502W        W 5720   1.417   5.842  13.499
37503W        W 5721  30.568  20.751   4.961
37504W        W 5722   7.676  43.796   2.581
37505W        W 5723  27.212  27.097   3.645
37506W        W 5724  23.134   5.372   2.103
37507W        W 5725  39.358  23.767   2.648
37508W        W 5726  41.550   2.210   2.794
37509W        W 5727  44.177  41.879   2.039
37510W        W 5728  27.155   0.280   1.930
37511W        W 5729  36.844  36.978  14.938
37512W        W 5730   6.565  36.085  14.196
37513W        W 5731   1.927  40.010  14.494
37514W        W 5732   2.556   8.657  13.007
37515W        W 5733  26.905  20.212   4.706
37516W        W 5734   8.220  30.181   1.440
37517W        W 5735  17.301  28.082  13.751
37518W        W 5736  12.759  17.072  12.091
37519W        W 5737   3.442  40.399   2.198
37520W        W 5738   0.220  23.408   3.016
37521W        W 5739  27.240  27.456  14.943
37522W        W 5740   4.786  34.493  11.100
37523W        W 5741  28.503   0.106  14.752
37524W        W 5742  32.985  16.918  13.853
37525W        W 5743  14.070   6.343   1.916
37526W        W 5744  24.163  37.973   3.371
37527W        W 5745  21.111  18.998  11.894
37528W        W 5746  30.153  14.742  14.401
37529W        W 5747  26.968  13.559  10.613
37530W        W 5748  40.939   1.744   3.057
37531W        W 5749  21.499  23.733  12.080
37532W        W 5750  29.466   0.297   3.296
37533W        W 5751  11.145  22.020  11.076
37534W        W 5752  15.679  33.810   5.119
37535W        W 5753  21.975  28.135   4.196
37536W        W 5754  30.708   9.746   2.336
37537W        W 5755  18.142  10.020  14.973
37538W        W 5756  25.203  36.331   3.311
37539W        W 5757   2.271   7.446   5.331
37540W        W 5758  34.088  39.741   1.876
37541W        W 5759  30.079   9.797  14.678
37542W        W 5760   8.256  43.542  14.936
37543W        W 5761  20.378  40.391  11.408
37544W        W 5762  44.849  36.876   0.685
37545W        W 5763  36.137  34.699   4.079
37546W        W 5764   7.974   3.688   4.598
37547W        W 5765  35.870   0.293   3.106
37548W        W 5766  33.102  10.843  14.565
37549W        W 5767  14.214  42.777  12.001
37550W        W 5768  15.538  40.874  13.929
37551W        W 5769  22.764  37.310   1.911
37552W        W 5770  20.747   7.175   1.946
37553W        W 5771  12.858  10.135   1.246
37554W        W 5772  44.994  40.007   0.760
37555W        W 5773  12.537  17.820   0.993
37556W        W 5774   7.594   5.744   4.208
37557W        W 5775  18.724  22.215  12.355
37558W        W 5776  23.507  18.206   0.841
37559W        W 5777   0.187   1.310   1.243
37560W        W 5778   0.472  36.592  13.113
37561W        W 5779  39.915  15.019   2.882
37562W        W 5780  26.819  25.126   3.546
37563W        W 5781  44.417  44.051  14.471
37564W        W 5782  29.243   2.446  11.494
37565W        W 5783  36.037  43.748  11.969
37566W        W 5784  36.449  34.620   3.126
37567W        W 5785  42.363  18.583  10.700
37568W        W 5786  32.751  26.518  13.057
37569W        W 5787   1.012  30.579  13.105
37570W        W 5788   3.215  10.916  12.521
37571W        W 5789  42.568  43.276   0.053
37572W        W 5790  41.306   4.225  12.569
37573W        W 5791  15.811  25.306   1.040
37574W        W 5792  22.185  38.899   4.866
37575W        W 5793  15.766  16.353   4.140
37576W        W 5794   8.003  23.959  14.339
37577W        W 5795  22.591  25.126   2.776
37578W        W 5796   7.698  29.879   0.488
37579W        W 5797  14.888   1.396   9.786
37580W        W 5798  17.128  16.495  11.548
37581W        W 5799  17.591   0.486  11.168
37582W        W 5800  31.547   7.766   4.345
37583W        W 5801  20.462   3.830  14.440
37584W        W 5802  34.159   8.795   4.768
37585W        W 5803   8.780  23.998   4.663
37586W        W 5804  43.613  16.269   3.371
37587W        W 5805  43.006   6.612   0.352
37588W        W 5806  13.099  14.863   3.259
37589W        W 5807  12.331  36.506   4.404
37590W        W 5808  12.130  43.716   3.319
37591W        W 5809   8.798  39.515   9.486
37592W        W 5810  25.620  17.827  13.517
37593W        W 5811  24.135  36.457  11.389
37594W        W 5812  32.086  29.154  10.230
37595W        W 5813  37.570  34.808  13.940
37596W        W 5814  26.592   5.477  11.081
37597W        W 5815  13.946  29.165   0.731
37598W        W 5816   6.498  37.883  14.403
37599W        W 5817   4.241  32.998  11.586
37600W        W 5818  16.341  39.276   2.714
37601W        W 5819  39.665  36.996  14.273
37602W        W 5820  16.721  40.639  12.680
37603W        W 5821  16.847  10.217   0.561
37604W        W 5822  22.236   5.622  14.827
37605W        W 5823  40.604  26.044  13.317
37606W        W 5824  13.119  27.995   4.646
37607W        W 5825  18.506  38.008  13.883
37608W        W 5826   1.644   4.004  12.987
37609W        W 5827  41.952  32.028  14.035
37610W        W 5828  29.387  39.922   1.009
37611W        W 5829  32.926   0.329  10.987
37612W        W 5830  12.273  22.595   1.043
37613W        W 5831  34.119  30.495  10.560
37614W        W 5832   7.086  29.447   4.941
37615W        W 5833  39.831   1.815  11.618
37616W        W 5834  44.892  18.072   1.351
37617W        W 5835  15.943   4.208   1.449
37618W        W 5836   6.816  33.853   2.746
37619W        W 5837   5.513  20.740   1.323
37620W        W 5838  31.577  24.464   0.877
37621W        W 5839  11.231  32.454   2.430
37622W        W 5840  31.402  12.265  13.848
37623W        W 5841  25.524  42.819   0.567
37624W        W 5842  34.094  31.324   5.014
37625W        W 5843  30.516   8.176  14.314
37626W        W 5844  15.215   2.692  14.886
37627W        W 5845   6.408  16.125  14.873
37628W        W 5846  30.215  12.719  14.799
37629W        W 5847  41.187  25.254  10.971
37630W        W 5848   1.513  39.807   2.788
37631W        W 5849  42.934  26.248  11.959
37632W        W 5850  36.346   0.835   2.851
37633W        W 5851  12.240  16.856   1.392
37634W        W 5852  32.402  16.108  13.981
37635W        W 5853  42.323  14.635   4.299
37636W        W 5854  32.646  24.054   0.375
37637W        W 5855   1.625   3.327   4.142
37638W        W 5856  17.777   0.727  11.598
37639W        W 5857  16.745  31.984   1.850
37640W        W 5858  36.581  10.918   0.794
37641W        W 5859  43.483   8.284  12.292
37642W        W 5860  23.079  18.586   4.247
37643W        W 5861  20.761  39.802   0.907
37644W        W 5862  22.245   7.079   1.886
37645W        W 5863   2.275   6.903   1.876
37646W        W 5864  13.453  12.737  11.366
37647W        W 5865   2.620  34.627  13.610
37648W        W 5866  11.247  22.846   3.670
37649W        W 5867  34.993   7.339   9.842
37650W        W 5868  12.126  42.852   4.309
37651W        W 5869   8.746  44.787  11.381
37652W        W 5870   6.204   8.199  14.836
37653W        W 5871   3.295  30.978   1.601
37654W        W 5872  40.466  31.352  11.086
37655W        W 5873  17.588   5.251  11.086
37656W        W 5874  14.109  41.508   1.323
37657W        W 5875  42.743  13.534  14.917
37658W        W 5876  40.262  12.100   3.752
37659W        W 5877  31.069  22.787   0.735
37660W        W 5878  15.946   9.733  11.544
37661W        W 5879  39.042   0.924  10.463
37662W        W 5880  36.663  41.928  13.885
37663W        W 5881  11.218  10.535   4.149
37664W        W 5882  27.594  18.810   4.540
37665W        W 5883  19.926  17.764   2.757
37666W        W 5884  18.096   9.645   0.935
37667W        W 5885  31.410  11.448  11.020
37668W        W 5886   7.948  32.436  11.638
37669W        W 5887  27.174  12.913  12.849
37670W        W 5888   2.368  27.704  10.092
37671W        W 5889  20.537  41.844  13.666
37672W        W 5890  18.796  44.901  14.534
37673W        W 5891   0.184   9.888  11.894
37674W        W 5892   7.409  10.886  11.578
37675W        W 5893  18.404  23.557   0.315
37676W        W 5894  24.908  10.679   2.811
37677W        W 5895  42.486  11.787  13.276
37678W        W 5896  13.405  31.402   0.486
37679W        W 5897  33.062  16.669  10.656
37680W        W 5898  37.058  14.311   4.137
37681W        W 5899  38.301  42.279  10.931
37682W        W 5900  33.964  38.777   1.099
37683W        W 5901  44.464   8.636  14.378
37684W        W 5902   4.252  23.472  13.466
37685W        W 5903  21.078  37.758  12.608
37686W        W 5904   4.362  36.470   0.473
37687W        W 5905   6.415   2.907  11.095
37688W        W 5906  17.669  10.089  10.771
37689W        W 5907  36.149  12.372   4.207
37690W        W 5908   1.430  38.054  14.060
37691W        W 5909   8.922  18.158  11.117
37692W        W 5910  24.973  17.213  11.597
37693W        W 5911  15.774  15.773  10.100
37694W        W 5912  38.547  17.761   1.073
37695W        W 5913  17.600  23.629  11.178
37696W        W 5914  16.767   5.631  13.095
37697W        W 5915  28.042  38.910   4.151
37698W        W 5916   2.471  34.860  10.961
37699W        W 5917  30.412  44.899   4.250
37700W        W 5918  39.386  37.873  10.451
37701W        W 5919  27.126   8.653  13.138
37702W        W 5920  37.817  13.891  13.028
37703W        W 5921  25.239   9.263   4.250
37704W        W 5922  42.932  18.224   2.692
37705W        W 5923  16.555  44.794   3.846
37706W        W 5924  25.908  43.845   0.071
37707W        W 5925  13.216   6.760   4.527
37708W        W 5926  29.104  21.673   4.386
37709W        W 5927  26.207  34.450   2.255
37710W        W 5928  34.035  23.980  13.661
37711W        W 5929  44.859  12.121  12.585
37712W        W 5930   1.814  11.175   0.308
37713W        W 5931  33.682  37.453   0.081
37714W        W 5932  40.335  28.967  10.697
37715W        W 5933   1.603  17.218   0.038
37716W        W 5934  20.358   5.709  10.783
37717W        W 5935  33.499  10.639  11.043
37718W        W 5936  32.455   5.784   0.802
37719W        W 5937  37.803  29.602  14.342
37720W        W 5938   8.150  10.095  11.126
37721W        W 5939   6.687  11.742   4.277
37722W        W 5940  28.481  12.006   2.266
37723W        W 5941  14.340   5.256  14.553
37724W        W 5942   1.693   9.984  13.987
37725W        W 5943  29.341   2.417   2.857
37726W        W 5944   1.481  22.067   1.868
37727W        W 5945  39.845  16.159   3.495
37728W        W 5946  33.511  20.973  14.784
37729W        W 5947  20.533  10.168  12.508
37730W        W 5948  13.236  41.303   2.621
37731W        W 5949   8.439  30.971  12.524
37732W        W 5950  41.924  32.156   5.136
37733W        W 5951  42.239  34.979   1.234
37734W        W 5952  40.087  44.677   1.821
37735W        W 5953  33.752  37.593  11.066
37736W        W 5954  40.072  28.635  13.888
37737W        W 5955   9.896  17.229  11.677
37738W        W 5956  41.022  14.214  13.332
37739W        W 5957  34.376  41.990   3.604
37740W        W 5958  19.619  41.999  11.631
37741W        W 5959   5.173  34.633  13.334
37742W        W 5960  30.134   8.104  12.863
37743W        W 5961  38.846  11.170   4.560
37744W        W 5962  36.850  29.157   0.284
37745W        W 5963  34.994  18.197   3.685
37746W        W 5964  12.838   3.753  12.405
37747W        W 5965   3.618  26.222  13.489
37748W        W 5966  16.701  24.977  12.408
37749W        W 5967  30.663  12.848   2.854
37750W        W 5968   4.226  15.774  14.293
37751W        W 5969  43.592   8.787   3.645
37752W        W 5970   5.781  40.061  14.910
37753W        W 5971  42.898  12.897   0.481
37754W        W 5972  14.289   9.786   3.997
37755W        W 5973   4.148  43.737  11.261
37756W        W 5974  35.601  10.270  13.051
37757W        W 5975   5.709   4.323  13.028
37758W        W 5976  37.499  41.418   3.197
37759W        W 5977   7.657  23.633   1.374
37760W        W 5978   8.241   7.411  14.427
37761W        W 5979   1.004  35.313   0.517
37762W        W 5980  37.569  19.560  13.687
37763W        W 5981  12.422  20.518   2.337
37764W        W 5982  31.646  44.324   3.677
37765W        W 5983  32.092  10.837  12.026
37766W        W 5984   0.465  35.486  14.081
37767W        W 5985  25.687  14.158  10.277
37768W        W 5986  12.772  41.416   2.378
37769W        W 5987  21.427  43.630  14.822
37770W        W 5988  22.906  10.309   2.377
37771W        W 5989  35.601   4.470   3.243
37772W        W 5990  14.359   7.408  13.857
37773W        W 5991  11.896  33.252  10.971
37774W        W 5992  15.464  36.605   3.191
37775W        W 5993   5.149  11.731   1.483
37776W        W 5994  26.399  19.400   4.082
37777W        W 5995  37.532  22.991  14.732
37778W        W 5996  13.779  24.556   1.203
37779W        W 5997   4.441  39.638   4.556
37780W        W 5998   9.599   1.145   4.111
37781W        W 5999  34.419   0.861   1.268
37782W        W 6000  18.025  17.661  14.780
37783W        W 6001   4.127   0.327   0.382
37784W        W 6002  26.446  30.015  13.071
37785W        W 6003   5.753   2.739   2.316
37786W        W 6004  35.585  42.684  14.008
37787W        W 6005  28.864   7.976   2.850
37788W        W 6006  28.977   8.429   3.993
37789W        W 6007   4.310  21.703  13.876
37790W        W 6008  37.511   9.399  13.261
37791W        W 6009  11.736  18.780   3.207
37792W        W 6010   1.251  22.054   3.843
37793W        W 6011  27.693  36.808   0.436
37794W        W 6012   9.287   7.912  12.995
37795W        W 6013  10.286  14.477  12.100
37796W        W 6014   0.532  28.322   2.375
37797W        W 6015  41.948   8.627  13.902
37798W        W 6016  27.953  40.303   1.850
37799W        W 6017  27.293  13.117   3.126
37800W        W 6018  21.177  25.047  13.783
37801W        W 6019   0.374  18.729   1.700
37802W        W 6020  22.571  32.663   0.490
37803W        W 6021  24.071  10.872   0.905
37804W        W 6022  22.657  26.862   3.793
37805W        W 6023  33.124  39.553  13.539
37806W        W 6024  37.757  13.939  11.568
37807W        W 6025  38.963  24.153   1.982
37808W        W 6026   7.734  31.124  12.149
37809W        W 6027  17.292  41.326  12.206
37810W        W 6028   1.032  44.366   4.253
37811W        W 6029  10.403  43.932   2.907
37812W        W 6030  26.582  18.214  10.759
37813W        W 6031  42.453  11.933  10.651
37814W        W 6032  25.766   9.254   4.257
37815W        W 6033  38.294  23.712   1.697
37816W        W 6034  11.708  26.142  13.971
37817W        W 6035  10.445  11.673   4.622
37818W        W 6036   8.372  26.270  13.989
37819W        W 6037   6.347  25.265  11.181
37820W        W 6038  11.182   2.948   3.692
37821W        W 6039   1.984  38.048   4.677
37822W        W 6040  30.613  16.179  10.420
37823W        W 6041  33.658  35.573  10.086
37824W        W 6042  16.836  13.106  13.458
37825W        W 6043  11.734  35.531   2.688
37826W        W 6044  42.407  39.922   1.050
37827W        W 6045  37.104  10.147   1.366
37828W        W 6046  32.575  35.339  13.395
37829W        W 6047  40.624  30.984  14.859
37830W        W 6048   5.897  31.416  13.343
37831W        W 6049  32.367  21.577   1.185
37832W        W 6050   4.762  11.909  12.890
37833W        W 6051  32.926  12.272  11.535
37834W        W 6052  35.617   0.773  14.932
37835W        W 6053  29.556   8.435   1.811
37836W        W 6054  36.013  26.817   4.696
37837W        W 6055  12.710   1.170  10.276
37838W        W 6056   6.318  43.756   0.907
37839W        W 6057  29.951  39.852  14.013
37840W        W 6058  21.596   0.854  13.057
37841W        W 6059  10.276  22.558  14.594
37842W        W 6060  36.117  22.507  11.037
37843W        W 6061  15.194  18.967  12.052
37844W        W 6062  14.144  24.471  12.046
37845W        W 6063  14.434   7.406  11.244
37846W        W 6064  40.029   4.372  14.206
37847W        W 6065  25.267  41.017   3.255
37848W        W 6066   5.804  20.635   3.262
37849W        W 6067  17.574  34.805  11.233
37850W        W 6068  21.033  29.469  13.917
37851W        W 6069  18.029  35.529   4.542
37852W        W 6070   5.068  41.199  12.841
37853W        W 6071  25.583  29.460   1.340
37854W        W 6072   0.845  24.929   5.136
37855W        W 6073  24.195  28.144   3.606
37856W        W 6074   0.928  28.366   1.209
37857W        W 6075  21.746  32.712  10.526
37858W        W 6076  36.453  25.615  11.089
37859W        W 6077  40.095  42.813   1.356
37860W        W 6078  23.996  33.113   2.359
37861W        W 6079  30.408  18.423   4.930
37862W        W 6080  32.153  20.671   1.534
37863W        W 6081  18.526  19.379   3.244
37864W        W 6082  21.894  11.751   4.142
37865W        W 6083  15.670  12.196   3.844
37866W        W 6084  38.005  13.800  13.976
37867W        W 6085   8.779  13.602  14.432
37868W        W 6086  44.338  13.071  12.994
37869W        W 6087  27.997  18.645  12.134
37870W        W 6088  12.871  41.596   3.401
37871W        W 6089  24.489  27.752   1.641
37872W        W 6090  31.649  14.383   2.203
37873W        W 6091  29.165  27.388  13.312
37874W        W 6092  10.645  31.904   0.936
37875W        W 6093  28.820  29.605   1.810
37876W        W 6094  44.488  40.563   0.469
37877W        W 6095  15.042  23.292  14.027
37878W        W 6096   1.007  23.896  12.525
37879W        W 6097  10.439  29.137  13.494
37880W        W 6098  26.926  23.129  14.883
37881W        W 6099  33.489   3.761   3.818
37882W        W 6100  37.932  44.297   2.215
37883W        W 6101   5.048  37.942  12.070
37884W        W 6102   9.298   5.010   3.406
37885W        W 6103  17.575  44.611  12.834
37886W        W 6104  28.427  44.326   3.578
37887W        W 6105  44.835  34.399  13.917
37888W        W 6106  28.357  38.545   2.359
37889W        W 6107  36.534  34.569   2.637
37890W        W 6108  29.744  14.998  12.683
37891W        W 6109  12.321  17.750  13.263
37892W        W 6110   3.569  25.953  11.126
37893W        W 6111  36.448  30.970  12.455
37894W        W 6112  27.443  33.548   4.496
37895W        W 6113  13.709   9.393   2.552
37896W        W 6114  44.774  13.923   2.867
37897W        W 6115  43.389  38.895  11.547
37898W        W 6116  40.331  21.188  12.057
37899W        W 6117  14.071   9.367   4.319
37900W        W 6118  32.074   6.417   9.929
37901W        W 6119  19.944   0.085  13.764
37902W        W 6120   4.239  34.329   3.416
37903W        W 6121   9.813  18.139  14.136
37904W        W 6122  17.005  17.712  12.845
37905W        W 6123  42.481  27.150   1.221
37906W        W 6124  24.108  21.237   4.179
37907W        W 6125  30.090   9.609   1.388
37908W        W 6126  35.946  24.657   2.269
37909W        W 6127   0.813  21.092   4.957
37910W        W 6128  39.552  23.435  13.792
37911W        W 6129  28.057  27.955  11.895
37912W        W 6130  11.003  32.861   4.038
37913W        W 6131  23.752   4.255   0.275
37914W        W 6132  10.784  21.248  13.882
37915W        W 6133  15.310   1.278  12.922
37916W        W 6134  18.996  14.855  11.666
37917W        W 6135  12.084  12.538  11.783
37918W        W 6136  26.276  38.265   4.181
37919W        W 6137  11.766  44.318   0.184
37920W        W 6138  35.558  19.228   5.029
37921W        W 6139   5.959  29.037   3.373
37922W        W 6140   2.776   5.217   1.708
37923W        W 6141  40.375  38.004  10.797
37924W        W 6142   4.828  18.079  12.587
37925W        W 6143  28.150  20.258   1.313
37926W        W 6144  43.958  25.701   2.620
37927W        W 6145  44.574  43.849  11.943
37928W        W 6146   6.952   9.927  13.828
37929W        W 6147  11.672  43.173  10.153
37930W        W 6148  14.411  23.130   2.248
37931W        W 6149   3.713  26.652  13.789
37932W        W 6150  31.383  43.975   1.716
37933W        W 6151  28.318  25.821   3.737
37934W        W 6152   5.481  37.947  14.578
37935W        W 6153  18.964  15.459  13.356
37936W        W 6154  10.138   8.027   2.779
37937W        W 6155  25.380  31.042  13.594
37938W        W 6156   4.581   0.999   2.136
37939W        W 6157   8.422  26.965   1.306
37940W        W 6158  23.697  28.659   3.342
37941W        W 6159   6.043  20.045   1.717
37942W        W 6160   6.882   5.036  13.547
37943W        W 6161  24.986  26.621   0.641
37944W        W 6162  36.243   4.847   0.296
37945W        W 6163  22.736  22.513   2.470
37946W        W 6164  23.027  34.348   3.734
37947W        W 6165  28.205   5.249   0.540
37948W        W 6166  12.236  42.800  14.116
37949W        W 6167  21.599  10.934   1.915
37950W        W 6168  27.827  41.557  11.579
37951W        W 6169  19.576  18.356   4.061
37952W        W 6170  20.611  38.068  12.580
37953W        W 6171  27.217   8.448   2.217
37954W        W 6172  18.488  20.353   0.520
37955W        W 6173  19.695  33.957  14.335
37956W        W 6174   7.110  20.092   0.132
37957W        W 6175   8.768  39.938   3.305
37958W        W 6176  15.801   1.722  11.196
37959W        W 6177  31.923  43.323  11.224
37960W        W 6178  22.673  39.179   0.060
37961W        W 6179  44.294  23.333  12.147
37962W        W 6180  34.602  16.227   4.201
37963W        W 6181  22.433  21.085   0.274
37964W        W 6182  44.519   2.402   1.975
37965W        W 6183  28.364  19.687  11.543
37966W        W 6184  28.560  21.469  10.207
37967W        W 6185  34.861  13.701  11.535
37968W        W 6186   3.963  32.658  12.962
37969W        W 6187  37.014  10.738  13.392
37970W        W 6188  33.017  27.605   3.785
37971W        W 6189  42.835   4.230   3.780
37972W        W 6190  34.171  26.565  14.387
37973W        W 6191  26.706  18.598  12.461
37974W        W 6192   9.743   6.965  10.326
37975W        W 6193  19.523  28.401   1.838
37976W        W 6194  32.063  36.043  14.393
37977W        W 6195  21.647   7.457   0.159
37978W        W 6196  14.283  13.545  11.938
37979W        W 6197  18.631  35.046   3.711
37980W        W 6198  19.991  14.177  10.669
37981W        W 6199  16.063  30.128   1.982
37982W        W 6200  22.137   1.705  12.418
37983W        W 6201  30.133  43.915  12.502
37984W        W 6202  37.300  32.867   4.767
37985W        W 6203  37.885   4.335   1.124
37986W        W 6204  25.371  38.664  11.473
37987W        W 6205  27.685  42.536  12.992
37988W        W 6206   2.621  23.559  13.573
37989W        W 6207  19.519  23.003   3.793
37990W        W 6208  20.516  22.706   2.902
37991W        W 6209  18.565  18.666  12.254
37992W        W 6210  36.635  22.998   3.961
37993W        W 6211  12.655  14.346  13.821
37994W        W 6212  27.956  24.085   0.735
37995W        W 6213  44.979  22.104   4.635
37996W        W 6214  33.068  10.597   4.856
37997W        W 6215   9.422  24.712   2.897
37998W        W 6216   3.235  29.691   2.237
37999W        W 6217  23.602  12.907   1.951
38000W        W 6218  37.970   7.794   0.794
38001W        W 6219  15.730  21.836  10.127
38002W        W 6220  27.837   7.351  13.493
38003W        W 6221  35.398  30.127  12.018
38004W        W 6222  35.372  27.068   9.829
38005W        W 6223   1.908  36.597   3.213
38006W        W 6224  23.926  23.150  11.102
38007W        W 6225  36.554  16.358   4.225
38008W        W 6226   8.966  41.812   1.633
38009W        W 6227  14.870   9.207  11.589
38010W        W 6228  23.454  22.252  13.297
38011W        W 6229   1.352  18.994   0.843
38012W        W 6230  34.515  37.879  13.898
38013W        W 6231  19.248  23.780  11.542
38014W        W 6232  10.830  26.127   4.862
38015W        W 6233  40.005  37.559   0.246
38016W        W 6234  10.764  30.954  11.975
38017W        W 6235  26.994  39.525   2.855
38018W        W 6236  19.049  33.077  12.589
38019W        W 6237  33.914  33.869   4.591
38020W        W 6238   2.825   4.035   1.008
38021W        W 6239   3.668  20.566   4.479
38022W        W 6240  35.395  17.276   3.664
38023W        W 6241  37.903  36.530   4.261
38024W        W 6242  17.462  14.559   2.824
38025W        W 6243   1.731   8.295   1.801
38026W        W 6244   0.713  21.519  10.965
38027W        W 6245  30.609  38.020   2.261
38028W        W 6246  13.849  12.555  11.661
38029W        W 6247  17.688   0.314  13.837
38030W        W 6248  20.759  32.610  11.614
38031W        W 6249   2.989  32.345  11.232
38032W        W 6250  14.013  39.585   0.722
38033W        W 6251  10.771  19.088   1.666
38034W        W 6252  15.058  22.442  12.068
38035W        W 6253  25.681  36.497   3.156
38036W        W 6254  27.546   9.602   2.953
38037W        W 6255  28.852  32.389   3.548
38038W        W 6256  29.135  33.495   0.206
38039W        W 6257  35.345   1.841  12.413
38040W        W 6258   8.619  24.928  12.171
38041W        W 6259  23.548  35.856   3.848
38042W        W 6260   6.294  23.428  10.510
38043W        W 6261  26.019  16.317  10.691
38044W        W 6262  11.735   6.473   2.366
38045W        W 6263  12.724  10.784  11.122
38046W        W 6264  27.153   9.013  14.530
38047W        W 6265  25.199   4.381  10.581
38048W        W 6266   7.718   5.137   4.931
38049W        W 6267  22.649   7.797   1.384
38050W        W 6268   1.282  20.561  13.365
38051W        W 6269  10.695  29.523  13.820
38052W        W 6270   2.786  12.552   3.612
38053W        W 6271   9.393  43.957  11.973
38054W        W 6272  42.796  24.540   1.499
38055W        W 6273  14.887   7.165  11.103
38056W        W 6274  33.875   3.899   4.578
38057W        W 6275  22.911   9.180   4.578
38058W        W 6276  10.549  34.330   4.137
38059W        W 6277  15.108  30.098   3.167
38060W        W 6278  41.336  40.312  13.805
38061W        W 6279  18.185  11.798   5.099
38062W        W 6280  34.383  32.643   1.384
38063W        W 6281  44.508  38.215   4.552
38064W        W 6282  12.344  18.167   1.942
38065W        W 6283   4.903   4.706  13.434
38066W        W 6284  43.531  36.412  12.959
38067W        W 6285  37.907  12.897   4.054
38068W        W 6286  35.699   0.754   4.982
38069W        W 6287  18.305   5.750  14.351
38070W        W 6288  43.706  22.006   2.820
38071W        W 6289  33.340  33.457   0.237
38072W        W 6290  42.003  38.894   2.446
38073W        W 6291  11.790  15.588  10.307
38074W        W 6292  28.916  41.855   2.233
38075W        W 6293   1.219   4.069   3.631
38076W        W 6294  12.676  37.060  14.079
38077W        W 6295   6.419   2.729   1.869
38078W        W 6296   2.555   5.166   4.138
38079W        W 6297  14.071  37.707  13.453
38080W        W 6298  28.225  13.659  10.653
38081W        W 6299  21.281  28.003  14.833
38082W        W 6300  24.116  40.591   4.038
38083W        W 6301  44.934  28.575  14.393
38084W        W 6302  35.880  32.448  14.614
38085W        W 6303   8.896  32.976   1.425
38086W        W 6304  26.108  21.392   2.792
38087W        W 6305  30.043  43.678   2.718
38088W        W 6306   2.860  41.260   2.315
38089W        W 6307  36.999  19.620   1.968
38090W        W 6308   3.997  18.544  11.019
38091W        W 6309   8.752  39.831   2.774
38092W        W 6310  38.195   2.929  11.194
38093W        W 6311   4.429  44.865   4.195
38094W        W 6312  26.027  22.018  12.046
38095W        W 6313  21.632  27.330  14.048
38096W        W 6314  35.824  20.225   3.206
38097W        W 6315   9.212   4.598  14.474
38098W        W 6316  21.557   2.819   4.577
38099W        W 6317  44.307  36.444   1.779
38100W        W 6318  27.911  37.816  11.049
38101W        W 6319   5.015  25.435   4.685
38102W        W 6320  17.339  16.253  12.913
38103W        W 6321  41.294  19.327   2.211
38104W        W 6322  37.903  39.578  11.957
38105W        W 6323  37.571  44.867   1.919
38106W        W 6324  16.201  24.982   1.788
38107W        W 6325  11.254  34.541   4.490
38108W        W 6326  32.251  18.838  13.004
38109W        W 6327   3.717  16.104   0.372
38110W        W 6328   1.294  18.297  12.980
38111W        W 6329  19.131  10.474  10.654
38112W        W 6330  40.433  11.290   3.689
38113W        W 6331  11.536  38.239   4.152
38114W        W 6332  17.333  22.158   2.399
38115W        W 6333   8.790  37.840   2.880
38116W        W 6334  35.331   2.404   3.568
38117W        W 6335  38.764   8.109  14.294
38118W        W 6336  20.276  41.997   0.350
38119W        W 6337  26.521   0.824  13.544
38120W        W 6338  16.551   0.266  10.577
38121W        W 6339  30.709  28.645  13.565
38122W        W 6340  36.520  11.387   1.704
38123W        W 6341  14.101  38.933   1.249
38124W        W 6342  38.433  28.794   2.722
38125W        W 6343  18.897  44.279   3.493
38126W        W 6344  26.486   3.715  11.133
38127W        W 6345   3.788   1.763  14.238
38128W        W 6346  36.351  43.460  13.436
38129W        W 6347  14.760  41.862  10.904
38130W        W 6348   7.402  38.459   0.961
38131W        W 6349  13.246   0.418   0.366
38132W        W 6350  27.485   6.941   4.106
38133W        W 6351  10.094  41.606  12.051
38134W        W 6352  21.943   5.734   0.836
38135W        W 6353  28.223  18.375   1.217
38136W        W 6354  44.388  40.498  12.069
38137W        W 6355  38.773  12.737   3.589
38138W        W 6356  38.542   6.988  12.602
38139W        W 6357  36.126   8.380  13.551
38140W        W 6358  13.208  24.650  13.477
38141W        W 6359  25.150  18.698  12.575
38142W        W 6360  34.339  33.994   0.785
38143W        W 6361   2.716  25.454  12.022
38144W        W 6362  38.962  27.227  10.013
38145W        W 6363   6.489  31.462  12.639
38146W        W 6364  10.186  44.706  12.585
38147W        W 6365  43.978  25.181   3.386
38148W        W 6366  44.442  43.379   4.094
38149W        W 6367  26.185  23.985  13.377
38150W        W 6368  39.054   8.418  11.793
38151W        W 6369  16.860   0.531  10.869
38152W        W 6370  29.522  34.970   3.184
38153W        W 6371  25.975  35.371  14.369
38154W        W 6372  32.843  13.668  12.438
38155W        W 6373  39.828   7.690   2.613
38156W        W 6374  42.141  13.131   3.797
38157W        W 6375  33.047  12.645   4.568
38158W        W 6376   6.674   3.923   0.896
38159W        W 6377  37.971  34.076   4.470
38160W        W 6378  19.181  39.738  13.823
38161W        W 6379  43.365  26.932   0.514
38162W        W 6380  29.645  19.160   2.927
38163W        W 6381   6.027  30.926   3.727
38164W        W 6382   2.050  14.107   0.363
38165W        W 6383  19.500  11.223  14.037
38166W        W 6384   6.928  37.488   4.782
38167W        W 6385  36.901  12.648   3.789
38168W        W 6386  29.949  40.565   3.643
38169W        W 6387  14.682  11.890   4.576
38170W        W 6388  15.830  31.749   1.380
38171W        W 6389  13.765  29.156  14.403
38172W        W 6390  20.106   0.391   4.813
38173W        W 6391  25.546  36.506   3.667
38174W        W 6392  16.669  24.051   4.598
38175W        W 6393  44.847   7.157   0.688
38176W        W 6394  38.276  13.790   0.317
38177W        W 6395   7.961  37.818  14.367
38178W        W 6396  17.463  26.677   0.516
38179W        W 6397  12.353  36.521   3.907
38180W        W 6398   7.953  41.180   0.784
38181W        W 6399   3.713  32.582  10.753
38182W        W 6400  39.363  16.573  14.246
38183W        W 6401  30.041   9.333   3.818
38184W        W 6402  13.739  15.656  13.460
38185W        W 6403  30.684  35.931   0.268
38186W        W 6404  30.379  13.363  11.569
38187W        W 6405  18.940   5.963   2.786
38188W        W 6406  11.258   6.294   0.960
38189W        W 6407  13.933  19.961   1.265
38190W        W 6408  13.288  28.390   3.203
38191W        W 6409  19.733   0.445  12.875
38192W        W 6410  12.847  27.316  13.818
38193W        W 6411  31.706   4.380   2.844
38194W        W 6412   2.956  16.112   2.225
38195W        W 6413  40.397  14.745   2.839
38196W        W 6414  25.965  22.636  14.747
38197W        W 6415  35.475  39.878  12.081
38198W        W 6416  22.546  10.754  13.343
38199W        W 6417  34.832  28.469   2.814
38200W        W 6418  44.227  11.271  14.722
38201W        W 6419   8.177  41.950  14.979
38202W        W 6420  33.064   2.771   3.307
38203W        W 6421   5.265  15.780  12.952
38204W        W 6422  43.012  16.769  10.657
38205W        W 6423  10.457  10.184  14.414
38206W        W 6424   3.348   3.881  11.528
38207W        W 6425  19.791  11.149   3.374
38208W        W 6426   2.034  24.775   1.839
38209W        W 6427  33.629  20.537   0.925
38210W        W 6428  36.891   2.177  12.374
38211W        W 6429   1.026  26.869  11.660
38212W        W 6430  40.413  14.962   0.214
38213W        W 6431  28.633  25.237   4.505
38214W        W 6432  39.721  34.858   1.026
38215W        W 6433   3.847   3.814  13.297
38216W        W 6434  41.394  37.998  14.049
38217W        W 6435  21.605  41.429  14.419
38218W        W 6436   6.159  35.348   0.995
38219W        W 6437  32.073  30.598  13.573
38220W        W 6438  17.493  10.126  13.278
38221W        W 6439   3.887   4.404   1.220
38222W        W 6440  16.371   9.877  13.395
38223W        W 6441   5.839  38.316  13.745
38224W        W 6442  15.324   6.264   1.626
38225W        W 6443  41.039   1.334  10.700
38226W        W 6444   4.816  36.881  10.794
38227W        W 6445  38.634  21.121   1.644
38228W        W 6446  33.067  30.460  11.410
38229W        W 6447  18.165   7.673   3.712
38230W        W 6448  36.362  11.823  11.896
38231W        W 6449   1.673  17.255  14.019
38232W        W 6450  11.417  20.778  14.456
38233W        W 6451  13.104   1.074  14.036
38234W        W 6452  21.041   7.995   3.735
38235W        W 6453  20.472  18.146   4.509
38236W        W 6454  32.215  35.306  10.666
38237W        W 6455  19.284  36.021   4.102
38238W        W 6456  24.876  43.249  12.406
38239W        W 6457   2.462  17.861  14.395
38240W        W 6458  43.551  19.818   2.174
38241W        W 6459   7.206  10.278   4.574
38242W        W 6460   2.216  39.608   4.568
38243W        W 6461  32.638   2.050  12.930
38244W        W 6462   5.644   6.704  11.726
38245W        W 6463  20.206  20.593   1.767
38246W        W 6464   5.651  44.610   0.079
38247W        W 6465  33.339   9.205   3.855
38248W        W 6466  35.404  23.158  10.714
38249W        W 6467   0.249   2.380   0.718
38250W        W 6468  22.269  28.121  12.968
38251W        W 6469   1.886  14.090  14.336
38252W        W 6470  12.547   8.925  13.778
38253W        W 6471  13.071  28.173   1.335
38254W        W 6472   7.504   6.915  11.201
38255W        W 6473  43.417  32.879   0.360
38256W        W 6474  14.156  19.048   0.469
38257W        W 6475   6.107   9.041  10.960
38258W        W 6476   1.842   9.185   3.097
38259W        W 6477   9.717   9.878  11.833
38260W        W 6478  15.167   9.372   0.286
38261W        W 6479  21.822  40.394  14.800
38262W        W 6480  10.437  43.793  13.850
38263W        W 6481  10.686  26.932   4.853
38264W        W 6482  39.217  16.721   1.623
38265W        W 6483  35.390  23.296   4.081
38266W        W 6484  39.635  20.071  13.232
38267W        W 6485  38.548   0.361  10.586
38268W        W 6486  36.011  19.731   3.254
38269W        W 6487  27.479  13.746   1.256
38270W        W 6488  30.177  29.584  13.428
38271W        W 6489   1.740  10.661   1.699
38272W        W 6490  40.472  11.738  12.029
38273W        W 6491  30.424   9.777   4.488
38274W        W 6492   4.924  30.138  12.083
38275W        W 6493  23.532  10.304  13.057
38276W        W 6494  32.556  35.605  11.405
38277W        W 6495  39.967  36.587   0.207
38278W        W 6496   2.908  31.433   0.343
38279W        W 6497   5.785  34.891   1.337
38280W        W 6498   5.253   7.396  14.349
38281W        W 6499  43.226   8.133  11.102
38282W        W 6500  19.970  34.430  13.811
38283W        W 6501  22.688   6.766   4.671
38284W        W 6502  13.432  30.436  11.878
38285W        W 6503  11.813  21.228   1.911
38286W        W 6504  32.882  42.628  10.929
38287W        W 6505  28.403  20.038  10.569
38288W        W 6506  22.301  21.769   0.031
38289W        W 6507  27.145  44.033   1.242
38290W        W 6508  43.094   3.507  11.547
38291W        W 6509  23.413   0.801   2.017
38292W        W 6510  44.412  19.810  13.362
38293W        W 6511  12.474  19.089  10.538
38294W        W 6512  37.064  12.783  12.973
38295W        W 6513  14.777   1.357   0.220
38296W        W 6514  39.241  27.042   0.309
38297W        W 6515  30.663  39.014   3.266
38298W        W 6516  19.486   0.033   2.657
38299W        W 6517  42.428  27.376  11.221
38300W        W 6518   3.494  19.740   0.936
38301W        W 6519  43.905  24.444  13.586
38302W        W 6520  37.087  28.181  12.336
38303W        W 6521  33.151  18.731  14.262
38304W        W 6522  24.479  16.751   2.302
38305W        W 6523  25.561  35.651  11.085
38306W        W 6524  13.311  34.625  11.156
38307W        W 6525  14.209  14.103   4.512
38308W        W 6526  16.322  21.001   2.282
38309W        W 6527  25.025  27.369   2.749
38310W        W 6528  10.865  29.749   1.549
38311W        W 6529  21.280  37.845   2.273
38312W        W 6530  19.585   4.816  12.730
38313W        W 6531  11.757   3.957  11.143
38314W        W 6532  23.103  25.564   3.166
38315W        W 6533  34.475   4.943  12.576
38316W        W 6534  42.586  24.094   1.319
38317W        W 6535  41.754  42.847  10.664
38318W        W 6536   6.366  20.807   1.832
38319W        W 6537  34.089   0.892  14.908
38320W        W 6538   6.735  19.681   0.200
38321W        W 6539  22.309  34.095  11.555
38322W        W 6540  27.538  39.094   4.127
38323W        W 6541  39.128  39.870   0.652
38324W        W 6542  29.562  33.733   0.376
38325W        W 6543  26.954   5.631  11.413
38326W        W 6544   5.357  41.784   3.140
38327W        W 6545  40.500  17.672   0.629
38328W        W 6546  25.889  16.354  11.537
38329W        W 6547  32.486  24.592   4.959
38330W        W 6548  14.382  11.837   4.136
38331W        W 6549   6.857  28.603   2.281
38332W        W 6550  31.672  16.211  12.448
38333W        W 6551  42.782  39.856  13.876
38334W        W 6552  20.402  14.268   4.103
38335W        W 6553  37.522  32.465  14.630
38336W        W 6554  17.802  27.414  11.246
38337W        W 6555  26.636  38.845   0.337
38338W        W 6556  13.897  33.510   2.500
38339W        W 6557  42.931  22.230   2.148
38340W        W 6558   3.634  37.131   2.278
38341W        W 6559  34.090  41.761   2.717
38342W        W 6560  13.775   4.770  14.876
38343W        W 6561   0.204  29.393   0.977
38344W        W 6562  10.263  20.217   4.335
38345W        W 6563  26.471   7.833   4.172
38346W        W 6564  32.191  20.907   2.362
38347W        W 6565   7.497  44.557  13.991
38348W        W 6566  44.685  26.644   2.217
38349W        W 6567   9.909   5.140  10.585
38350W        W 6568  40.192  38.607  14.716
38351W        W 6569  44.363  42.409  10.917
38352W        W 6570  22.715  15.306  14.418
38353W        W 6571  33.840  23.025   3.218
38354W        W 6572  24.571  30.909   3.915
38355W        W 6573  11.613  31.512  11.422
38356W        W 6574  37.643  37.342   0.763
38357W        W 6575   7.621   8.298  12.104
38358W        W 6576   7.192  26.307   1.369
38359W        W 6577  19.703  36.903  12.913
38360W        W 6578  22.718  22.781   4.588
38361W        W 6579  29.632  29.656   4.676
38362W        W 6580   5.275  33.520   0.757
38363W        W 6581  35.884  25.427   3.777
38364W        W 6582  28.293  18.539   2.656
38365W        W 6583  32.869   1.320   1.808
38366W        W 6584  13.752  28.455  12.568
38367W        W 6585  31.884  33.397  12.435
38368W        W 6586  12.651   3.756  11.898
38369W        W 6587   4.280  30.911  14.300
38370W        W 6588  11.789  31.374   0.531
38371W        W 6589  43.655  31.370   0.423
38372W        W 6590  10.667   1.839   0.684
38373W        W 6591  34.398  11.042   1.354
38374W        W 6592  10.272  36.309  10.522
38375W        W 6593  10.385  15.869  13.355
38376W        W 6594  30.964   9.921  10.528
38377W        W 6595   8.081  29.880  11.113
38378W        W 6596  40.250  11.108  11.482
38379W        W 6597  33.102  36.419   4.844
38380W        W 6598  39.928  44.110   3.951
38381W        W 6599   9.238  33.714   0.065
38382W        W 6600   9.150   8.681   2.318
38383W        W 6601  41.506  43.038  10.210
38384W        W 6602  29.049   6.488  14.340
38385W        W 6603  44.919  21.027   0.310
38386W        W 6604  12.248  37.893  11.096
38387W        W 6605  15.735  21.508  14.867
38388W        W 6606  17.058  18.719  13.412
38389W        W 6607  17.328  27.383  12.136
38390W        W 6608   2.834  16.660  14.616
38391W        W 6609  24.063   1.372  10.710
38392W        W 6610   5.803   4.730   2.930
38393W        W 6611  14.181   2.896   2.235
38394W        W 6612   6.325  32.469  11.921
38395W        W 6613  16.320  34.576   3.397
38396W        W 6614  43.039  39.469   1.805
38397W        W 6615  15.488  16.617   9.864
38398W        W 6616  41.422  35.612   1.859
38399W        W 6617  14.749   2.361  14.922
38400W        W 6618  32.329  11.347   2.310
38401W        W 6619  28.914  40.269   1.919
38402W        W 6620  23.532  21.540  14.068
38403W        W 6621  36.558  41.134   1.435
38404W        W 6622  43.212  21.612   4.157
38405W        W 6623  44.936  30.006  12.464
38406W        W 6624   7.403  12.647  12.041
38407W        W 6625   2.679  12.650  12.450
38408W        W 6626   2.898  10.618  13.952
38409W        W 6627  11.065  25.255   4.110
38410W        W 6628  12.820  28.387   2.926
38411W        W 6629  11.676  42.028  11.600
38412W        W 6630  31.626  28.894  12.105
38413W        W 6631  37.554  33.464  14.426
38414W        W 6632  11.342  19.647  11.673
38415W        W 6633  14.438  17.832   2.307
38416W        W 6634  26.455   4.618  14.942
38417W        W 6635  34.607  24.253   4.122
38418W        W 6636  39.009  23.628   4.541
38419W        W 6637   0.750  43.001  14.518
38420W        W 6638  26.196   6.234  14.291
38421W        W 6639  15.294  40.372   0.055
38422W        W 6640  21.819  11.379   2.150
38423W        W 6641  44.442  23.483   1.888
38424W        W 6642  19.958  22.122   0.239
38425W        W 6643  16.473  30.438   4.895
38426W        W 6644  29.977  14.320   4.967
38427W        W 6645  23.900   8.821   2.190
38428W        W 6646  15.363  20.045  12.986
38429W        W 6647  30.668  33.371  10.616
38430W        W 6648  25.649  38.921  10.138
38431W        W 6649   7.161  29.434  11.514
38432W        W 6650  43.060  26.632  13.017
38433W        W 6651  44.030  35.157   2.251
38434W        W 6652  37.524  12.605  12.854
38435W        W 6653  19.941  24.733   5.209
38436W        W 6654  24.570   7.649   3.723
38437W        W 6655  38.129  10.140  11.416
38438W        W 6656  40.488  29.786  13.528
38439W        W 6657  29.089  35.545   2.474
38440W        W 6658   3.008   3.219   1.572
38441W        W 6659  43.547   5.380   1.471
38442W        W 6660   5.858  27.489  13.959
38443W        W 6661  35.334  24.762  12.467
38444W        W 6662  24.622  17.967  12.149
38445W        W 6663   3.250  43.923   0.890
38446W        W 6664  30.658  28.664   1.974
38447W        W 6665  14.928  17.227  12.480
38448W        W 6666  32.927  37.906  10.831
38449W        W 6667  14.226  12.588  12.923
38450W        W 6668  23.397  24.139  11.568
38451W        W 6669  19.742  28.620   1.431
38452W        W 6670  26.909   5.235   0.450
38453W        W 6671  33.709  40.060  12.579
38454W        W 6672  14.565  20.091  11.589
38455W        W 6673  39.488  42.648  10.839
38456W        W 6674  25.533  19.638   5.079
38457W        W 6675  18.228   8.180   3.741
38458W        W 6676   8.251  22.826  12.719
38459W        W 6677  28.573  44.403   3.098
38460W        W 6678   6.462   4.902   1.805
38461W        W 6679   5.975  25.248  12.512
38462W        W 6680  21.127  40.743   0.341
38463W        W 6681  28.819  28.960  14.153
38464W        W 6682  24.216  14.327  14.804
38465W        W 6683  16.817   4.033   1.509
38466W        W 6684  27.556  41.701  14.672
38467W        W 6685  14.594  33.332   1.216
38468W        W 6686  38.344  23.039  10.509
38469W        W 6687  12.733  28.661   4.868
38470W        W 6688  26.544  34.130  14.409
38471W        W 6689   7.909  39.934  13.406
38472W        W 6690  33.204  20.607   1.296
38473W        W 6691  38.611   0.219  10.095
38474W        W 6692   3.985  26.742   2.533
38475W        W 6693  14.280   0.945  12.174
38476W        W 6694  28.640  36.780   1.433
38477W        W 6695   6.237  10.212  13.328
38478W        W 6696  41.525   3.509   3.206
38479W        W 6697  12.622   9.606  10.587
38480W        W 6698  18.060   0.679  12.047
38481W        W 6699  13.840  16.076   2.238
38482W        W 6700  37.483   0.273  14.973
38483W        W 6701  44.422  31.930  14.514
38484W        W 6702  40.821   0.319   0.954
38485W        W 6703  17.696   7.813   3.864
38486W        W 6704   6.288   2.662  12.332
38487W        W 6705  28.239  24.135   0.220
38488W        W 6706  17.730  16.116   0.367
38489W        W 6707  38.078  13.453   1.276
38490W        W 6708   2.290  10.867  12.919
38491W        W 6709  41.763  21.526   1.761
38492W        W 6710  15.950  35.711   2.325
38493W        W 6711  34.484  36.018   3.733
38494W        W 6712  30.739  41.043  14.511
38495W        W 6713  35.153  23.032  11.139
38496W        W 6714  36.883  31.874  14.770
38497W        W 6715  14.093  15.611   2.409
38498W        W 6716  39.299  31.184  10.363
38499W        W 6717  38.000  32.360  12.997
38500W        W 6718  29.580  23.647   4.635
38501W        W 6719  20.289  30.614  11.639
38502W        W 6720   9.806  10.959   4.757
38503W        W 6721  35.239  42.929   5.099
38504W        W 6722  26.132  21.258  12.525
38505W        W 6723  23.226  31.727  11.130
38506W        W 6724  34.148  18.725   3.705
38507W        W 6725   5.374   8.806   4.556
38508W        W 6726  44.062   4.271  12.347
38509W        W 6727  20.655  17.755   2.383
38510W        W 6728  33.181  37.439   1.865
38511W        W 6729  35.061  41.053   3.606
38512W        W 6730  38.039  30.061   2.689
38513W        W 6731  37.408  28.127  14.002
38514W        W 6732  13.775  38.951   4.678
38515W        W 6733  19.358   8.649  14.858
38516W        W 6734  32.961  34.864   2.361
38517W        W 6735  35.176  39.697   3.220
38518W        W 6736  19.525  18.691   3.653
38519W        W 6737  28.855   3.885  12.849
38520W        W 6738  44.955  40.721  11.213
38521W        W 6739  10.337  39.088  11.028
38522W        W 6740  44.926  25.601  13.274
38523W        W 6741   4.842  11.092  12.557
38524W        W 6742   0.547  33.289   0.937
38525W        W 6743   3.442  14.278   3.818
38526W        W 6744  22.638  37.854  12.867
38527W        W 6745  42.943  33.526  11.109
38528W        W 6746  10.684  18.407  12.869
38529W        W 6747  41.692   3.720  14.826
38530W        W 6748   1.170  29.928   1.471
38531W        W 6749  21.205  44.501  12.121
38532W        W 6750  14.852  12.135   2.930
38533W        W 6751  11.227   1.514  14.635
38534W        W 6752  14.228   5.484  14.070
38535W        W 6753  35.913  32.891  11.513
38536W        W 6754  20.811  42.831   4.761
38537W        W 6755   9.248   7.213  11.479
38538W        W 6756  29.472   8.390   0.941
38539W        W 6757  28.448   8.306  11.580
38540W        W 6758   8.367  16.471  12.125
38541W        W 6759   2.385  26.933   4.576
38542W        W 6760  17.726  10.918   4.192
38543W        W 6761  27.540  18.557   2.127
38544W        W 6762  15.685  24.986  14.492
38545W        W 6763  44.913  26.956  10.749
38546W        W 6764  30.705   1.140   4.615
38547W        W 6765  15.629  30.131   3.264
38548W        W 6766  12.764  14.545  10.841
38549W        W 6767  29.453  33.531  12.695
38550W        W 6768  37.361  10.846  12.039
38551W        W 6769   0.085  32.591  12.093
38552W        W 6770  40.147  42.422   1.849
38553W        W 6771  31.500  22.442   3.275
38554W        W 6772  30.720   0.313   4.807
38555W        W 6773  17.484  39.913  14.094
38556W        W 6774  42.829  31.771  12.498
38557W        W 6775  44.005   9.236   1.977
38558W        W 6776  44.263  22.968   3.611
38559W        W 6777  36.273   4.606  10.343
38560W        W 6778  29.463  25.025  12.979
38561W        W 6779  42.795   8.433   1.982
38562W        W 6780  37.881  18.075   1.620
38563W        W 6781   6.939  36.221  13.277
38564W        W 6782  37.403  11.387  10.656
38565W        W 6783  42.587  28.005   1.693
38566W        W 6784  22.986  39.602  14.973
38567W        W 6785   7.265   8.771  11.446
38568W        W 6786   1.559  24.727  11.587
38569W        W 6787  10.406  29.353  14.879
38570W        W 6788   6.778  39.573   3.779
38571W        W 6789  34.780  10.623  12.866
38572W        W 6790  31.081   5.424  11.352
38573W        W 6791   3.826  26.961   1.550
38574W        W 6792   4.965   7.396  12.021
38575W        W 6793  28.947  44.420  12.788
38576W        W 6794  29.574  31.336   3.647
38577W        W 6795  12.838  11.940  14.309
38578W        W 6796  37.106  12.802   3.055
38579W        W 6797  35.654  24.641   1.269
38580W        W 6798  25.088   3.281  12.083
38581W        W 6799  34.660  26.419  10.910
38582W        W 6800  34.858  19.009  13.065
38583W        W 6801   2.787  14.630  13.612
38584W        W 6802  14.644  41.588   4.976
38585W        W 6803   5.270   8.353  10.881
38586W        W 6804  13.241  27.179  11.587
38587W        W 6805  28.836  15.355  13.063
38588W        W 6806  44.978  10.841   3.677
38589W        W 6807  33.284  30.431  11.892
38590W        W 6808  41.806   7.397   4.052
38591W        W 6809  12.291  31.853   2.811
38592W        W 6810  17.252  17.182  12.625
38593W        W 6811  31.988  37.649  12.987
38594W        W 6812  34.095   7.304   0.635
38595W        W 6813  37.841  38.292   2.220
38596W        W 6814  39.238  37.040   0.141
38597W        W 6815  17.792  31.487  11.208
38598W        W 6816  27.245   9.901   4.963
38599W        W 6817   8.750  33.077  12.805
38600W        W 6818   9.171   2.127  13.626
38601W        W 6819  34.449  32.098  14.751
38602W        W 6820  14.507   2.457  12.530
38603W        W 6821   6.866  18.064   1.286
38604W        W 6822  36.343  34.852   0.384
38605W        W 6823  27.104  39.403  13.392
38606W        W 6824  27.976  15.323  14.392
38607W        W 6825  19.084  14.242   2.261
38608W        W 6826   0.761  33.324  11.084
38609W        W 6827   4.021  44.452  12.451
38610W        W 6828  27.592  43.716   2.574
38611W        W 6829   2.019  13.318  12.493
38612W        W 6830  11.558   7.683  14.964
38613W        W 6831  40.263  40.050   2.337
38614W        W 6832  39.407  25.094  13.429
38615W        W 6833  15.342   9.795  12.572
38616W        W 6834   4.866  29.703  11.504
38617W        W 6835   7.340  14.487  12.077
38618W        W 6836  28.722  38.358  10.815
38619W        W 6837  31.152  20.119   4.890
38620W        W 6838  16.148  35.819  12.505
38621W        W 6839  27.430  13.851  10.542
38622W        W 6840   5.887  17.049   3.726
38623W        W 6841   0.618  21.287  11.465
38624W        W 6842  39.459   7.672  12.373
38625W        W 6843   8.146  16.557   3.599
38626W        W 6844  10.159  33.981  11.637
38627W        W 6845  42.298  30.072  13.284
38628W        W 6846   3.587  32.222   3.741
38629W        W 6847   4.895  25.431   3.706
38630W        W 6848  11.572  36.368  12.477
38631W        W 6849  31.865  22.687   3.595
38632W        W 6850  39.147  13.181  12.922
38633W        W 6851  41.436  20.147   2.735
38634W        W 6852  43.903  38.678  12.915
38635W        W 6853  14.650  29.652   1.737
38636W        W 6854  34.650  42.041   1.870
38637W        W 6855  22.150  21.170   2.387
38638W        W 6856  34.612  23.041   3.719
38639W        W 6857  29.735  14.219   0.543
38640W        W 6858  17.714   6.675  11.093
38641W        W 6859   9.346  23.579  12.502
38642W        W 6860   8.603  38.074   3.323
38643W        W 6861  43.024   7.488   3.438
38644W        W 6862  31.679  35.359   2.850
38645W        W 6863  10.365   7.513   0.511
38646W        W 6864   9.247  39.644   2.676
38647W        W 6865   3.222   0.512   2.258
38648W        W 6866  29.076  29.178  13.202
38649W        W 6867   0.312  11.705   1.140
38650W        W 6868  30.319  17.531   3.312
38651W        W 6869  36.427  15.640  13.928
38652W        W 6870  42.819  11.766   4.654
38653W        W 6871  17.767  15.661  14.100
38654W        W 6872  37.364  38.026   2.366
38655W        W 6873  38.087  15.305  14.786
38656W        W 6874  35.787   6.931  13.454
38657W        W 6875  23.971   8.168  12.571
38658W        W 6876   6.319   5.781  11.053
38659W        W 6877   8.303  11.952  10.766
38660W        W 6878  16.330  41.748   5.039
38661W        W 6879  23.909  28.048  14.985
38662W        W 6880  44.307  34.605  10.710
38663W        W 6881  26.795  17.828   5.093
38664W        W 6882   0.035  42.544   3.629
38665W        W 6883  28.884   7.379  13.275
38666W        W 6884  20.568  40.924  14.686
38667W        W 6885  21.271  25.260  11.611
38668W        W 6886  28.010  36.129   4.237
38669W        W 6887  36.027  29.140   4.573
38670W        W 6888  40.541   3.152  13.511
38671W        W 6889  32.658  37.396  13.388
38672W        W 6890  33.072  39.341   2.741
38673W        W 6891   8.292  27.496   3.191
38674W        W 6892  40.029  33.832  12.925
38675W        W 6893  23.470  31.963   0.423
38676W        W 6894  40.498  10.955   1.829
38677W        W 6895  37.623  40.317   0.238
38678W        W 6896   2.836  31.074  13.363
38679W        W 6897   5.865   1.932  12.651
38680W        W 6898  42.527  23.047   4.919
38681W        W 6899   5.848  29.701  12.669
38682W        W 6900  18.086  36.174   3.190
38683W        W 6901  18.336   2.949  13.507
38684W        W 6902  21.103   8.347  10.975
38685W        W 6903  43.860  12.785  10.281
38686W        W 6904  22.308   3.637   1.648
38687W        W 6905   7.621  42.754   3.192
38688W        W 6906  15.548  15.219   2.285
38689W        W 6907  31.441  41.923   2.283
38690W        W 6908  43.469   5.343   0.120
38691W        W 6909  13.069   5.370   2.680
38692W        W 6910  28.860  43.955  13.507
38693W        W 6911  13.920  42.005  14.911
38694W        W 6912  24.590  33.878  11.693
38695W        W 6913  28.149  36.456   2.816
38696W        W 6914  23.669  10.845  13.028
38697W        W 6915   2.083   6.721  12.912
38698W        W 6916  22.637   1.570  14.040
38699W        W 6917  33.040  13.179  13.370
38700W        W 6918   7.191  21.596   3.252
38701W        W 6919  18.622  11.227   0.401
38702W        W 6920  19.529   1.409   0.785
38703W        W 6921  32.636   8.681   3.163
38704W        W 6922  21.407   6.434   4.922
38705W        W 6923  28.851  36.140   0.932
38706W        W 6924  22.159  14.228   2.988
38707W        W 6925   8.038  35.807   2.877
38708W        W 6926   9.111  19.197  12.980
38709W        W 6927   1.271  42.813  14.492
38710W        W 6928  26.219  26.030   3.937
38711W        W 6929  25.703  25.018   2.695
38712W        W 6930  10.429  42.913  14.050
38713W        W 6931  31.390  24.024   3.722
38714W        W 6932   1.537  33.964   4.238
38715W        W 6933  14.755  39.556   1.822
38716W        W 6934  12.898  41.805   1.732
38717W        W 6935  43.860  42.331   2.830
38718W        W 6936  35.913  23.136   1.271
38719W        W 6937  20.162  36.592   4.720
38720W        W 6938  40.566  43.057   1.285
38721W        W 6939   6.269  29.667   2.189
38722W        W 6940   7.157  14.187  11.110
38723W        W 6941  36.604  31.238  12.032
38724W        W 6942   7.257  41.408  12.361
38725W        W 6943  40.531  11.416   4.626
38726W        W 6944  20.647  41.397   3.706
38727W        W 6945  25.129  38.011   3.700
38728W        W 6946  42.405   6.181   4.687
38729W        W 6947   7.931  11.892  14.881
38730W        W 6948   4.617  23.544  11.119
38731W        W 6949  35.579  43.375   1.826
38732W        W 6950  30.616  19.879   2.124
38733W        W 6951  21.215  33.918   3.075
38734W        W 6952   6.633  30.921   0.756
38735W        W 6953  42.992   5.720  12.815
38736W        W 6954  36.881  17.741   0.854
38737W        W 6955  17.344  35.358   1.217
38738W        W 6956  11.831  38.340  11.677
38739W        W 6957  43.335  28.625  10.693
38740W        W 6958  11.372  28.928  14.818
38741W        W 6959  41.620   2.681  13.275
38742W        W 6960  33.508   6.309   2.741
38743W        W 6961  39.807   4.143   1.973
38744W        W 6962  39.396  20.009   1.721
38745W        W 6963  36.049  17.180   2.031
38746W        W 6964  12.411  34.536   1.945
38747W        W 6965  11.765  24.430  11.214
38748W        W 6966   2.944  31.931  13.119
38749W        W 6967  18.297   9.809   5.014
38750W        W 6968  36.921  36.131  14.387
38751W        W 6969  12.360  36.879   3.123
38752W        W 6970  25.464  14.882  14.805
38753W        W 6971  12.246  29.199  10.559
38754W        W 6972  24.544  37.404  10.918
38755W        W 6973  36.560  12.139   1.486
38756W        W 6974  33.143  25.016  12.988
38757W        W 6975  30.046  12.615  11.372
38758W        W 6976  34.871  16.415  12.619
38759W        W 6977  12.787  14.812   1.912
38760W        W 6978  13.872  41.875   2.800
38761W        W 6979  21.760   3.496  12.455
38762W        W 6980  43.545  17.353  14.974
38763W        W 6981   1.613  38.865   3.223
38764W        W 6982  37.380  37.738  12.321
38765W        W 6983  19.815  28.865   1.887
38766W        W 6984  23.880  27.714   9.898
38767W        W 6985  10.128   6.659  12.453
38768W        W 6986  37.792  20.531   0.762
38769W        W 6987   2.704   8.317  11.277
38770W        W 6988  38.507  41.712  14.356
38771W        W 6989  26.672  24.740   0.514
38772W        W 6990  26.058  11.344   3.870
38773W        W 6991  14.702  31.860  11.313
38774W        W 6992  25.939   5.356  11.596
38775W        W 6993  15.279  13.399  10.274
38776W        W 6994  28.573  33.241  12.863
38777W        W 6995  43.336  32.104   4.207
38778W        W 6996  26.718   2.688  11.255
38779W        W 6997  18.857   9.726   2.134
38780W        W 6998  17.682  31.937  12.329
38781W        W 6999  11.770  21.569   0.228
38782W        W 7000  15.186  37.002   4.579
38783W        W 7001  39.527  24.713  14.743
38784W        W 7002  36.451  31.429  10.603
38785W        W 7003  37.420  43.833  11.585
38786W        W 7004  29.579  41.077  12.525
38787W        W 7005  11.229  23.265   3.351
38788W        W 7006  35.509  37.834  13.374
38789W        W 7007   8.416  39.961   5.010
38790W        W 7008  43.967   0.468   3.838
38791W        W 7009  43.795  14.186   3.048
38792W        W 7010  31.617   3.659  13.892
38793W        W 7011  44.785  18.155   0.268
38794W        W 7012  16.463  33.067  12.916
38795W        W 7013  30.869  18.540  12.994
38796W        W 7014  25.449  32.461   2.252
38797W        W 7015  30.168   1.273   5.226
38798W        W 7016  10.796  22.481   0.437
38799W        W 7017  32.850  44.012   2.779
38800W        W 7018   8.269  16.863   3.990
38801W        W 7019  10.979  38.520  13.854
38802W        W 7020   4.722  17.613   1.727
38803W        W 7021   6.481  11.199   2.293
38804W        W 7022  36.949  24.037   1.232
38805W        W 7023  39.325  32.858  11.930
38806W        W 7024  33.631  11.992  13.037
38807W        W 7025  22.522  13.219  13.978
38808W        W 7026  22.245  22.767  12.800
38809W        W 7027  16.914  21.178  12.496
38810W        W 7028  38.935  39.404   0.795
38811W        W 7029  37.921   0.994  13.908
38812W        W 7030   3.857  16.075   2.302
38813W        W 7031  11.454  42.679   1.180
38814W        W 7032  44.380  37.712   4.625
38815W        W 7033  36.920  30.589   3.540
38816W        W 7034   2.691  28.426   0.900
38817W        W 7035  17.655   1.032  12.018
38818W        W 7036  39.879  22.230  12.322
38819W        W 7037  18.624  28.641   2.840
38820W        W 7038   8.490   3.943  13.005
38821W        W 7039  24.009   2.886   2.214
38822W        W 7040  19.578  41.421   0.316
38823W        W 7041  24.728  26.279  14.860
38824W        W 7042  28.762  16.780   0.223
38825W        W 7043  19.144  42.243   0.109
38826W        W 7044  15.386  24.732  10.686
38827W        W 7045  17.083  32.818   0.776
38828W        W 7046  36.943  14.670   2.282
38829W        W 7047  31.425  25.193   2.863
38830W        W 7048  20.780  34.030  11.435
38831W        W 7049  17.660  27.414  14.350
38832W        W 7050  27.121  30.026   4.282
38833W        W 7051  23.227  40.792  10.437
38834W        W 7052  22.494  32.431  13.976
38835W        W 7053  13.521   0.709  10.727
38836W        W 7054  39.883  23.833  13.663
38837W        W 7055  12.715  24.463  13.449
38838W        W 7056  35.551  32.959   2.734
38839W        W 7057  16.754   0.377  12.784
38840W        W 7058   7.415  30.901  13.420
38841W        W 7059  29.280  27.730  11.059
38842W        W 7060  15.664  12.340   4.324
38843W        W 7061  36.469  38.945  11.861
38844W        W 7062   0.764  34.058  14.200
38845W        W 7063  36.459  44.834   2.701
38846W        W 7064   4.818  42.069   2.380
38847W        W 7065  36.648   5.002  13.615
38848W        W 7066  25.156  19.774   2.702
38849W        W 7067  22.525  37.518   4.477
38850W        W 7068  35.054  41.553  12.743
38851W        W 7069  10.627   4.468   4.333
38852W        W 7070  16.812  16.567   2.784
38853W        W 7071  12.745  25.848  13.509
38854W        W 7072  38.427   5.982  12.460
38855W        W 7073  36.902  29.086   4.981
38856W        W 7074   6.696   2.710  14.413
38857W        W 7075  30.746   1.996   4.280
38858W        W 7076  18.639  32.492   4.067
38859W        W 7077  26.798  24.609   4.255
38860W        W 7078  29.190  29.556  12.360
38861W        W 7079  38.798  36.285  13.514
38862W        W 7080  36.720  37.673  13.826
38863W        W 7081  33.902  37.340  14.210
38864W        W 7082   7.708  11.137  13.094
38865W        W 7083  30.468  27.472   1.246
38866W        W 7084  26.034  19.567  10.438
38867W        W 7085  38.225  35.754   1.290
38868W        W 7086  24.985  42.546   2.276
38869W        W 7087  40.609  34.313   3.405
38870W        W 7088  36.893  12.683  13.481
38871W        W 7089  12.753  21.443  11.632
38872W        W 7090  16.721  25.554  14.720
38873W        W 7091  21.206   7.981  12.563
38874W        W 7092  36.230  27.296   4.805
38875W        W 7093   9.124   1.897   2.312
38876W        W 7094  31.644   1.196   4.997
38877W        W 7095  28.480   7.135   4.728
38878W        W 7096   1.387   4.977  14.030
38879W        W 7097   0.620  30.107  11.990
38880W        W 7098   8.335  14.304  14.726
38881W        W 7099  22.735  37.538  10.747
38882W        W 7100  32.099  26.462   4.412
38883W        W 7101  34.475   0.978  11.682
38884W        W 7102  22.133  35.524  13.787
38885W        W 7103  19.905  44.053  11.792
38886W        W 7104   5.308  42.372   2.314
38887W        W 7105  41.930  35.772   1.877
38888W        W 7106  44.032  28.055   0.143
38889W        W 7107  39.445  41.935  12.851
38890W        W 7108  33.909  26.528  13.925
38891W        W 7109  26.853  41.802   2.322
38892W        W 7110   1.214   3.363   3.378
38893W        W 7111  28.491   4.528   0.501
38894W        W 7112  42.010  30.661  11.587
38895W        W 7113  24.003  36.610  14.453
38896W        W 7114   5.511  30.066  12.588
38897W        W 7115  34.958   8.349  11.088
38898W        W 7116  14.039  26.660   4.140
38899W        W 7117  41.974   5.915   3.767
38900W        W 7118  16.863   4.848  12.502
38901W        W 7119  22.556  41.897   1.225
38902W        W 7120   9.140  15.098   2.933
38903W        W 7121   2.830  33.215  13.030
38904W        W 7122  10.992   2.126   0.419
38905W        W 7123  39.893  16.199   0.985
38906W        W 7124   5.940  21.477  14.832
38907W        W 7125  11.123  10.126  13.830
38908W        W 7126  32.744  19.141  12.440
38909W        W 7127   1.966   9.204  10.745
38910W        W 7128   0.615  24.767  14.816
38911W        W 7129   1.796  43.491   4.158
38912W        W 7130   2.140  12.847  14.814
38913W        W 7131  16.712  30.117  14.095
38914W        W 7132  43.275   9.644   4.627
38915W        W 7133  33.885   2.780  14.533
38916W        W 7134   5.700  10.779  12.124
38917W        W 7135  22.592   4.703   4.767
38918W        W 7136   5.819   3.402  10.505
38919W        W 7137   3.991  30.640   1.525
38920W        W 7138  25.520  44.235   2.943
38921W        W 7139  36.414  39.439  14.202
38922W        W 7140  35.293  19.726  10.668
38923W        W 7141  34.622  17.870  13.167
38924W        W 7142  42.699   4.236   1.520
38925W        W 7143  38.916  37.846   3.237
38926W        W 7144  22.045  26.818   1.471
38927W        W 7145  19.018  27.581  14.593
38928W        W 7146  18.301  40.703  12.416
38929W        W 7147  21.719  39.506  11.305
38930W        W 7148  10.227  21.999  10.600
38931W        W 7149  38.649   1.141   5.399
38932W        W 7150   1.448   4.549  13.710
38933W        W 7151  19.387  18.687  14.316
38934W        W 7152  39.045  43.828   3.062
38935W        W 7153  20.841  43.832   1.972
38936W        W 7154   4.675  11.051   2.711
38937W        W 7155  30.839  13.560   3.614
38938W        W 7156  32.574  19.567  14.145
38939W        W 7157  44.496  19.905  12.551
38940W        W 7158  13.520  41.501  11.811
38941W        W 7159  11.460  17.435  13.918
38942W        W 7160  17.586  27.713  13.490
38943W        W 7161   0.666  44.622   1.747
38944W        W 7162  44.973  34.656  11.991
38945W        W 7163  35.432  37.327  14.714
38946W        W 7164  24.496   2.342  11.375
38947W        W 7165  19.459  36.620   4.921
38948W        W 7166  37.170   3.925   4.894
38949W        W 7167  43.674   9.823  13.840
38950W        W 7168  40.065  30.845   1.267
38951W        W 7169  17.763   7.107  13.421
38952W        W 7170  41.779   5.741   4.207
38953W        W 7171  44.056  15.274   2.383
38954W        W 7172  12.362  23.415   0.021
38955W        W 7173  34.444   9.443   2.836
38956W        W 7174  20.186  44.556   3.629
38957W        W 7175  42.510  29.729   4.621
38958W        W 7176  24.108  23.047   0.523
38959W        W 7177  31.542  15.945   0.938
38960W        W 7178   7.844   3.437  12.037
38961W        W 7179  35.370  19.680  12.513
38962W        W 7180   5.122  13.375  10.734
38963W        W 7181  39.902  26.913   3.183
38964W        W 7182  40.422  17.553  14.142
38965W        W 7183  34.051  20.041  12.483
38966W        W 7184  20.272   0.897   0.251
38967W        W 7185   7.398  34.494  12.586
38968W        W 7186  43.493   0.798   3.126
38969W        W 7187  31.077  23.590   1.825
38970W        W 7188  33.304  32.114   1.956
38971W        W 7189  42.966  40.255  13.590
38972W        W 7190  32.220  19.089  12.439
38973W        W 7191   6.677  17.149  12.468
38974W        W 7192  31.848  42.009  12.856
38975W        W 7193  10.336  10.802  12.580
38976W        W 7194  12.641  42.080  14.544
38977W        W 7195  20.316   8.847  11.586
38978W        W 7196  23.677  29.906   3.350
38979W        W 7197  40.121  38.368   1.878
38980W        W 7198   6.349  16.130   0.788
38981W        W 7199  10.607   0.884  14.290
38982W        W 7200  26.515  10.881  13.561
38983W        W 7201   3.821  20.868  10.997
38984W        W 7202  34.090  16.985   3.266
38985W        W 7203   9.646   7.624   0.815
38986W        W 7204  18.280  35.412   3.546
38987W        W 7205  44.768  30.031   4.892
38988W        W 7206  27.223  31.184  11.114
38989W        W 7207  10.000   2.746  11.918
38990W        W 7208  28.368  44.625  11.965
38991W        W 7209  24.647  15.046   3.168
38992W        W 7210   9.349  10.307   1.419
38993W        W 7211  23.888   9.868  11.985
38994W        W 7212   1.265  14.811   0.317
38995W        W 7213  10.648  40.036   1.772
38996W        W 7214  14.299  40.423   3.263
38997W        W 7215  26.987  14.809  13.552
38998W        W 7216  39.577  28.614   2.188
38999W        W 7217   4.613  29.068  10.825
39000W        W 7218  22.519  32.588  11.661
39001W        W 7219  15.089  34.068  14.474
39002W        W 7220  31.993  15.274   2.438
39003W        W 7221  39.050   9.145   1.328
39004W        W 7222  41.480   5.338   3.296
39005W        W 7223   4.754  17.674   4.594
39006W        W 7224   7.955  38.499  13.123
39007W        W 7225  24.705  21.038   0.678
39008W        W 7226  40.991  16.281   3.443
39009W        W 7227  12.411  40.968  10.691
39010W        W 7228  44.243  19.603  12.894
39011W        W 7229   2.943  38.598  12.969
39012W        W 7230   4.428   8.681  14.971
39013W        W 7231  43.551  28.275  14.920
39014W        W 7232  35.588  18.210  14.341
39015W        W 7233  42.898  29.872  12.429
39016W        W 7234  10.017  40.312   1.579
39017W        W 7235  17.373   6.810  13.849
39018W        W 7236   3.737  24.127   4.862
39019W        W 7237  27.912   0.083   2.407
39020W        W 7238   5.373  33.226  10.429
39021W        W 7239  29.756  20.839  11.994
39022W        W 7240  19.495  26.341  12.572
39023W        W 7241  32.233   4.399   2.696
39024W        W 7242  18.001  26.769  13.347
39025W        W 7243  28.544   8.465  12.109
39026W        W 7244  27.970  14.527   4.110
39027W        W 7245  22.590   5.147  14.262
39028W        W 7246   7.240  18.995  14.427
39029W        W 7247  27.189  11.069  12.689
39030W        W 7248  33.016  26.715   3.801
39031W        W 7249   2.885   5.576  11.776
39032W        W 7250  32.834  25.147  12.018
39033W        W 7251  30.623  25.413   1.266
39034W        W 7252  11.304  12.061  11.156
39035W        W 7253  41.374  21.526   1.367
39036W        W 7254  28.014  38.551   0.281
39037W        W 7255   6.936   9.363  14.477
39038W        W 7256   0.434  11.637   0.024
39039W        W 7257   7.221  22.252   2.125
39040W        W 7258  23.097  32.879   5.384
39041W        W 7259  14.746   8.223  11.061
39042W        W 7260  35.102  21.578  13.355
39043W        W 7261   3.816  11.087   4.787
39044W        W 7262  29.863  36.233   4.294
39045W        W 7263  28.728  44.192  13.978
39046W        W 7264  16.384   5.731   1.710
39047W        W 7265  10.946  43.474  14.343
39048W        W 7266  10.081  33.330  14.541
39049W        W 7267  43.327  22.159   0.196
39050W        W 7268  39.996  28.401   1.993
39051W        W 7269  30.230  29.002  11.640
39052W        W 7270  20.288  29.266  12.986
39053W        W 7271  22.949  19.039   2.692
39054W        W 7272   7.470  39.321  12.418
39055W        W 7273  15.247  20.187   0.329
39056W        W 7274   1.450  41.418  10.469
39057W        W 7275   7.299  37.139  11.475
39058W        W 7276  10.667  21.013   4.013
39059W        W 7277  16.259   3.931   2.243
39060W        W 7278   1.763  25.984  14.240
39061W        W 7279  13.330  25.573  11.600
39062W        W 7280  35.595   7.341  11.820
39063W        W 7281   3.234   5.023   5.021
39064W        W 7282  24.773  27.966   0.232
39065W        W 7283   5.251   4.543   1.762
39066W        W 7284   5.950  10.854  11.231
39067W        W 7285  40.260  39.046  13.098
39068W        W 7286  24.607  42.254  14.937
39069W        W 7287  26.128  17.697  11.894
39070W        W 7288  21.857  28.349   2.802
39071W        W 7289  35.965  21.308   1.155
39072W        W 7290  23.511   2.261   1.864
39073W        W 7291   7.370  34.060  12.291
39074W        W 7292  42.360  23.472   2.180
39075W        W 7293  17.647  29.068   0.725
39076W        W 7294  27.995   3.724  10.528
39077W        W 7295  40.487  43.245   0.817
39078W        W 7296  14.225   8.812   1.169
39079W        W 7297  21.091  38.227  12.374
39080W        W 7298  29.390  26.529  13.742
39081W        W 7299   4.988   8.919   1.687
39082W        W 7300  40.489  11.864   4.907
39083W        W 7301  23.782   9.870  12.938
39084W        W 7302  18.340  44.775  13.817
39085W        W 7303  24.258  11.463  14.678
39086W        W 7304   3.760  30.975  12.891
39087W        W 7305  18.650  28.440  11.867
39088W        W 7306  23.389   3.676   0.818
39089W        W 7307   6.180  43.407  12.352
39090W        W 7308  26.727  25.507   3.211
39091W        W 7309  43.396  19.844   1.239
39092W        W 7310  19.198  42.520  13.612
39093W        W 7311   2.473  44.726   0.828
39094W        W 7312  10.481  39.143   1.263
39095W        W 7313  23.541   7.183  13.539
39096W        W 7314  14.440  40.472  10.795
39097W        W 7315  10.385  29.179   4.145
39098W        W 7316  43.940  14.053  14.966
39099W        W 7317  39.440  41.955   4.878
39100W        W 7318  42.226  23.579   0.705
39101W        W 7319  33.945   9.335   2.754
39102W        W 7320  29.137   6.440   2.418
39103W        W 7321  25.158  32.994   4.051
39104W        W 7322  19.804  43.955  12.301
39105W        W 7323  25.778   3.915   3.812
39106W        W 7324  19.083  42.423   2.261
39107W        W 7325   6.813  17.934  11.181
39108W        W 7326  21.181  27.440   2.310
39109W        W 7327  27.182  44.417   2.858
39110W        W 7328  41.531   1.957   4.102
39111W        W 7329  28.714   1.794   4.342
39112W        W 7330  20.061   2.770   3.341
39113W        W 7331   3.719  23.744  10.811
39114W        W 7332   7.592  28.031  13.267
39115W        W 7333  21.627  20.239   4.543
39116W        W 7334   0.228  27.795   1.840
39117W        W 7335   2.159  13.808   2.684
39118W        W 7336  22.278  15.200   1.243
39119W        W 7337  32.450  25.703   3.332
39120W        W 7338  22.173   3.440  14.292
39121W        W 7339   5.994  37.791  11.930
39122W        W 7340  14.656  29.697  12.137
39123W        W 7341  12.612  37.181  10.603
39124W        W 7342  21.029  10.141   4.734
39125W        W 7343  28.599  25.705  10.328
39126W        W 7344  37.606  13.402   2.797
39127W        W 7345  42.933  13.767   1.785
39128W        W 7346  20.354  34.353  12.476
39129W        W 7347  36.894  14.227  13.091
39130W        W 7348  14.237  23.043   1.727
39131W        W 7349  29.255  32.035  13.915
39132W        W 7350  26.397  36.981   1.685
39133W        W 7351   9.096  18.008  14.367
39134W        W 7352  32.765  20.746  12.520
39135W        W 7353  31.526  29.854  11.178
39136W        W 7354   9.077  21.962   0.037
39137W        W 7355   5.049  27.696  11.875
39138W        W 7356  13.406  18.665  14.477
39139W        W 7357   5.247  37.630   1.863
39140W        W 7358  20.481  31.430   4.965
39141W        W 7359  15.188  36.122   2.249
39142W        W 7360  36.636  13.818  14.894
39143W        W 7361  34.402  22.128  13.580
39144W        W 7362   7.075  12.441  12.984
39145W        W 7363  16.704   1.576   1.789
39146W        W 7364  36.192  28.399   0.451
39147W        W 7365  15.764  38.304   1.699
39148W        W 7366  26.383  24.440   1.991
39149W        W 7367  16.143  44.020  14.928
39150W        W 7368   5.331   4.401   3.812
39151W        W 7369  14.213  26.143   4.128
39152W        W 7370  38.848  29.150   1.818
39153W        W 7371  34.899  22.837   1.347
39154W        W 7372  32.686  43.755  12.399
39155W        W 7373  11.906  28.832  12.701
39156W        W 7374  32.206  30.665  11.736
39157W        W 7375  30.452   6.469  13.364
39158W        W 7376  26.259  22.126  11.590
39159W        W 7377   5.411  26.250   1.622
39160W        W 7378  44.375   0.496   1.820
39161W        W 7379  31.700  32.900   0.635
39162W        W 7380  33.394   7.786   0.537
39163W        W 7381  24.498  28.091   3.172
39164W        W 7382   5.234  12.783   0.896
39165W        W 7383  13.826  18.255   2.338
39166W        W 7384  17.800  20.780   2.662
39167W        W 7385  37.230  36.401  14.973
39168W        W 7386  10.180  13.563   2.125
39169W        W 7387   9.156  31.461  12.532
39170W        W 7388   9.255   3.928   3.561
39171W        W 7389  17.060  29.997  11.180
39172W        W 7390  15.600   6.223   3.608
39173W        W 7391   4.723  30.935  10.704
39174W        W 7392  25.680  30.701   5.306
39175W        W 7393  31.617  26.092   2.771
39176W        W 7394  17.757  33.925  12.639
39177W        W 7395  26.447  21.237   0.323
39178W        W 7396  22.432  23.018  13.326
39179W        W 7397  21.638  23.900  11.585
39180W        W 7398  17.292  25.205   5.088
39181W        W 7399   4.722  29.124   2.756
39182W        W 7400  11.380  24.116   4.560
39183W        W 7401  25.116  27.897   0.612
39184W        W 7402  43.853  27.540   3.989
39185W        W 7403  42.732   9.716   1.735
39186W        W 7404   7.879  18.033  11.054
39187W        W 7405  39.027   5.298   2.229
39188W        W 7406  38.619  18.445  11.136
39189W        W 7407  32.011   8.792  10.707
39190W        W 7408  16.068  16.064  13.069
39191W        W 7409   1.226  27.601   3.235
39192W        W 7410  24.683  29.414   1.310
39193W        W 7411  23.841  38.578  12.131
39194W        W 7412  25.078  18.742  14.068
39195W        W 7413  38.547  32.155   2.381
39196W        W 7414  30.572  38.343  14.394
39197W        W 7415  16.739   1.776   1.304
39198W        W 7416  11.289   2.225   3.188
39199W        W 7417  30.979   0.767   4.853
39200W        W 7418   3.210  12.885   3.748
39201W        W 7419  19.710  38.114   1.452
39202W        W 7420  29.334  15.392   2.079
39203W        W 7421  42.559  34.386   1.773
39204W        W 7422  13.138  37.348   3.169
39205W        W 7423  13.597  32.120  10.531
39206W        W 7424  20.056  14.472   0.381
39207W        W 7425  39.561  11.836  11.227
39208W        W 7426   2.852  37.549  10.388
39209W        W 7427  30.456   8.500  12.913
39210W        W 7428  41.973  19.857  12.630
39211W        W 7429   6.894  38.466  13.233
39212W        W 7430   3.498  18.627   3.633
39213W        W 7431  13.409   2.272   3.646
39214W        W 7432  17.048   6.744   4.552
39215W        W 7433  11.360  14.950   1.486
39216W        W 7434  38.037  10.208   5.031
39217W        W 7435   6.235  35.082   3.603
39218W        W 7436  21.666  36.109   2.656
39219W        W 7437  30.200  37.577  13.010
39220W        W 7438  30.864  43.360   3.190
39221W        W 7439  42.571  21.228   3.827
39222W        W 7440  11.638   3.443   3.175
39223W        W 7441  44.039   6.785   1.805
39224W        W 7442  41.573   3.012   0.880
39225W        W 7443  12.592  38.978  11.448
39226W        W 7444   2.524  28.051  10.493
39227W        W 7445   5.773   2.893   1.397
39228W        W 7446  11.328   3.660   0.815
39229W        W 7447  31.955  17.478   0.809
39230W        W 7448  40.929   2.110  14.119
39231W        W 7449  14.386  14.834   3.175
39232W        W 7450  26.349   0.431  10.551
39233W        W 7451  32.074  34.279   3.566
39234W        W 7452  26.216   0.312  12.930
39235W        W 7453  20.247   1.136  14.779
39236W        W 7454  36.022  24.038  14.549
39237W        W 7455   2.235  13.543  14.080
39238W        W 7456  25.925  11.157  12.094
39239W        W 7457   3.423  40.328  13.358
39240W        W 7458  20.250  23.124   2.279
39241W        W 7459  23.520  22.008   4.145
39242W        W 7460  31.885  34.227  13.026
39243W        W 7461  26.986  25.244   2.774
39244W        W 7462  35.406  26.704   1.740
39245W        W 7463  24.239  24.989   4.639
39246W        W 7464  41.069  21.090   4.743
39247W        W 7465  36.506  11.945  12.381
39248W        W 7466   1.834  37.594   0.895
39249W        W 7467  22.206  39.602  14.432
39250W        W 7468   4.461  20.317   1.759
39251W        W 7469  43.888  36.468  12.480
39252W        W 7470   6.120   3.728   2.308
39253W        W 7471  26.545   9.924   0.072
39254W        W 7472  14.000  30.909   3.313
39255W        W 7473  23.035  36.974   4.191
39256W        W 7474  30.584  23.596   2.366
39257W        W 7475  18.285  11.507   1.604
39258W        W 7476  42.938  17.327  13.675
39259W        W 7477  34.983  39.021  10.268
39260W        W 7478  17.816   8.838  13.577
39261W        W 7479  22.726  15.671  11.269
39262W        W 7480   6.427  38.548   2.778
39263W        W 7481   3.272  20.909   1.831
39264W        W 7482  40.565  19.128  10.583
39265W        W 7483  20.273  25.259   0.636
39266W        W 7484  40.509  16.311   1.805
39267W        W 7485  31.004  18.140   4.216
39268W        W 7486  29.399  21.189   2.258
39269W        W 7487   3.405  44.983   4.139
39270W        W 7488  23.282   2.828   4.076
39271W        W 7489  39.918  16.802  10.866
39272W        W 7490  13.881   4.307   0.358
39273W        W 7491   8.092  37.850   4.275
39274W        W 7492   7.943  42.288  11.123
39275W        W 7493  22.604   3.980  11.691
39276W        W 7494  41.276  23.246   4.205
39277W        W 7495   5.406  36.112  13.288
39278W        W 7496  37.483   7.700   3.010
39279W        W 7497   2.318  31.670  12.527
39280W        W 7498  24.643  41.194  12.136
39281W        W 7499  19.059  36.566  10.272
39282W        W 7500  28.932  37.672  12.082
39283W        W 7501  36.640   2.303   1.367
39284W        W 7502   9.827  27.131   2.860
39285W        W 7503  42.562  39.991  11.509
39286W        W 7504  22.454  44.808  14.331
39287W        W 7505  41.921   8.746   3.348
39288W        W 7506   5.328  32.614   1.834
39289W        W 7507  26.579  23.755   4.517
39290W        W 7508  21.080  33.449   3.775
39291W        W 7509  40.913  34.610   2.653
39292W        W 7510  32.874  44.009  13.059
39293W        W 7511  39.753  43.338  11.116
39294W        W 7512   7.903  38.971   0.243
39295W        W 7513  21.183  19.536   4.494
39296W        W 7514  12.325  29.467   3.731
39297W        W 7515  18.340  30.938   0.860
39298W        W 7516  12.461  39.884   0.490
39299W        W 7517   9.772  12.887  10.642
39300W        W 7518  34.464  21.552  11.201
39301W        W 7519   8.070  21.585  10.586
39302W        W 7520  33.848  22.089   3.217
39303W        W 7521  28.566   3.770  14.284
39304W        W 7522   9.468  25.467   0.981
39305W        W 7523  10.858  30.728   4.013
39306W        W 7524  11.638   5.140   3.815
39307W        W 7525  12.241   9.257  11.192
39308W        W 7526  39.553  33.542   3.174
39309W        W 7527  31.155  36.013  10.190
39310W        W 7528  12.653   9.605   2.291
39311W        W 7529  41.843  30.924   1.947
39312W        W 7530   6.058  19.046  12.018
39313W        W 7531   8.809  29.640   2.820
39314W        W 7532   0.010  23.140  14.449
39315W        W 7533  27.400   6.805   2.469
39316W        W 7534  18.148  37.596  12.010
39317W        W 7535  44.434  16.787  12.424
39318W        W 7536  26.393  27.030   2.063
39319W        W 7537   3.252   9.746  13.694
39320W        W 7538  16.756  43.303   1.858
39321W        W 7539  17.762  16.415  10.735
39322W        W 7540  14.549   1.768  13.044
39323W        W 7541  24.622   6.921   4.251
39324W        W 7542  35.924  30.665   0.580
39325W        W 7543  41.400  16.193   0.012
39326W        W 7544  21.287  12.539   4.235
39327W        W 7545  43.746   9.620   1.739
39328W        W 7546   7.830  11.421   2.153
39329W        W 7547   2.353  37.793  10.541
39330W        W 7548  12.894  20.719  10.762
39331W        W 7549   9.912  21.677   0.335
39332W        W 7550  25.741   8.377   1.326
39333W        W 7551   4.841  35.365   0.697
39334W        W 7552  25.163  27.322  12.521
39335W        W 7553  36.200   9.541  12.552
39336W        W 7554  15.758  42.799  10.413
39337W        W 7555  15.959  35.900   4.605
39338W        W 7556  37.401  44.409   0.595
39339W        W 7557  20.366   7.946   4.484
39340W        W 7558  18.979   4.722  12.786
39341W        W 7559  27.343   7.479  13.522
39342W        W 7560  38.555  34.685   4.146
39343W        W 7561   6.156  39.930  13.406
39344W        W 7562  35.973  16.744  13.474
39345W        W 7563  28.026   5.864   2.428
39346W        W 7564  13.715   7.142   2.398
39347W        W 7565  14.734  38.927   4.364
39348W        W 7566  44.531  21.981   3.639
39349W        W 7567  35.646   9.401   3.759
39350W        W 7568  41.940   9.255   4.654
39351W        W 7569  11.550  39.183   1.191
39352W        W 7570  25.136  39.410  11.808
39353W        W 7571  28.000  13.764   0.378
39354W        W 7572   3.771  14.802  14.516
39355W        W 7573   0.502  16.299  13.012
39356W        W 7574  22.366  41.489   2.444
39357W        W 7575  30.843  14.784   2.367
39358W        W 7576  12.482  18.279   3.581
39359W        W 7577  43.798  38.911   1.016
39360W        W 7578  22.274  17.488  14.897
39361W        W 7579  14.583  20.190  13.987
39362W        W 7580   6.721   1.946  12.745
39363W        W 7581  30.808  32.493  14.472
39364W        W 7582  18.153  10.120   1.256
39365W        W 7583  31.601  15.815  13.939
39366W        W 7584   3.775   7.543  14.746
39367W        W 7585  13.318  44.134   2.416
39368W        W 7586   6.139  40.332   9.478
39369W        W 7587  10.434  35.087   4.450
39370W        W 7588  35.115  41.486   4.771
39371W        W 7589  37.866  14.978  11.538
39372W        W 7590  40.367   0.540   3.755
39373W        W 7591   3.311  32.948  14.088
39374W        W 7592   1.189  41.888  11.513
39375W        W 7593  25.271  26.150   3.117
39376W        W 7594  12.409  20.311   3.625
39377W        W 7595  13.054  30.157  11.652
39378W        W 7596   2.973  21.125  13.084
39379W        W 7597  29.754  10.402   3.180
39380W        W 7598  23.051   7.423  11.572
39381W        W 7599  35.538  44.219  12.006
39382W        W 7600  44.091  44.343  12.145
39383W        W 7601  14.069  26.468  11.228
39384W        W 7602  15.719  17.252   0.244
39385W        W 7603  40.840  42.878   3.614
39386W        W 7604  21.064   8.780   1.002
39387W        W 7605  33.141  44.901  11.200
39388W        W 7606  28.060   0.568  13.580
39389W        W 7607  36.463  44.750  10.427
39390W        W 7608  43.934   8.409   2.878
39391W        W 7609  28.107  11.605   3.137
39392W        W 7610  36.763  18.738   1.145
39393W        W 7611   2.296  31.753  13.459
39394W        W 7612  17.376  16.770   0.016
39395W        W 7613   6.424  43.467   1.433
39396W        W 7614  10.635  14.021  11.508
39397W        W 7615  32.089  44.275  14.104
39398W        W 7616  38.328  18.040  12.652
39399W        W 7617  43.923   6.951   4.733
39400W        W 7618   5.054   5.692  13.531
39401W        W 7619   8.709  25.001   0.359
39402W        W 7620  14.996  16.193  11.057
39403W        W 7621  16.125  44.519   3.976
39404W        W 7622  26.110   7.158  11.908
39405W        W 7623  32.167  21.957   4.962
39406W        W 7624  41.918  43.025   2.824
39407W        W 7625  30.178  29.914  11.618
39408W        W 7626  34.727  36.216  10.487
39409W        W 7627  13.319   5.876  12.606
39410W        W 7628  31.672  14.585  13.329
39411W        W 7629   5.145  17.674   3.670
39412W        W 7630   7.503  25.707   4.717
39413W        W 7631   4.742  40.399  10.426
39414W        W 7632  25.560  15.757   3.868
39415W        W 7633  34.167   4.686   0.013
39416W        W 7634  42.885  11.103   3.827
39417W        W 7635  36.515   3.200  14.063
39418W        W 7636  15.140  28.692  11.630
39419W        W 7637  39.358  33.022  14.762
39420W        W 7638  17.169  41.941   3.936
39421W        W 7639  19.621  44.373  12.590
39422W        W 7640  22.528  30.987  14.273
39423W        W 7641  22.598  41.446   4.738
39424W        W 7642  37.603  30.569   2.352
39425W        W 7643  25.045  11.652   1.452
39426W        W 7644  42.000  35.607   1.012
39427W        W 7645   2.028  37.996   1.173
39428W        W 7646   4.774   1.700   0.249
39429W        W 7647  39.293  36.201   4.405
39430W        W 7648  34.173  16.056  10.952
39431W        W 7649  18.923  25.496  11.203
39432W        W 7650  34.419  19.231  14.477
39433W        W 7651   9.188  28.557   0.332
39434W        W 7652  29.955  24.147  11.361
39435W        W 7653  17.008  23.145  10.239
39436W        W 7654  17.113  14.303  14.739
39437W        W 7655  35.133  20.499   3.922
39438W        W 7656   2.694   3.390   4.144
39439W        W 7657   8.609  37.132  12.082
39440W        W 7658  34.193   2.271  11.934
39441W        W 7659  23.963  32.411   1.956
39442W        W 7660  40.867  36.281   3.639
39443W        W 7661  11.843  40.611   2.925
39444W        W 7662  39.868  30.000   0.861
39445W        W 7663  11.266  40.276   0.099
39446W        W 7664  32.959  38.893  14.608
39447W        W 7665  19.085   5.647   4.592
39448W        W 7666  23.934  37.845  13.956
39449W        W 7667  31.651  23.461   3.161
39450W        W 7668  12.374  19.974   4.409
39451W        W 7669  13.134   3.455  14.775
39452W        W 7670  19.436  33.578  10.727
39453W        W 7671  38.942  43.371   2.667
39454W        W 7672  43.937  17.342   3.131
39455W        W 7673   2.109  27.606  11.582
39456W        W 7674  27.132  16.454   1.276
39457W        W 7675  30.542   1.885  11.567
39458W        W 7676  25.673  38.074   0.866
39459W        W 7677  10.790   1.407  13.371
39460W        W 7678   5.792   8.917  13.660
39461W        W 7679  20.077  22.952   4.525
39462W        W 7680  39.415   6.340   2.619
39463W        W 7681  30.443   2.949   3.639
39464W        W 7682   3.641  34.496  13.600
39465W        W 7683  15.181  30.477  13.559
39466W        W 7684  35.792  30.066   4.861
39467W        W 7685  19.146  34.147   2.244
39468W        W 7686  20.065  38.527   2.361
39469W        W 7687  34.956  29.405  13.802
39470W        W 7688  43.361  39.183   0.280
39471W        W 7689  23.056  42.384   1.094
39472W        W 7690  22.231  23.963   2.185
39473W        W 7691  10.929  13.718  13.291
39474W        W 7692  35.814  42.250   2.283
39475W        W 7693  28.263  21.586  11.149
39476W        W 7694  13.140  21.289  13.760
39477W        W 7695   1.051  41.536   5.114
39478W        W 7696   8.526  10.666   0.300
39479W        W 7697  21.191  28.103  13.865
39480W        W 7698  11.679  21.789   3.786
39481W        W 7699  22.754  20.272   0.874
39482W        W 7700  38.549   7.136   1.300
39483W        W 7701  43.792  44.827   2.583
39484W        W 7702  34.318  11.258   4.037
39485W        W 7703   0.264  23.111   3.428
39486W        W 7704  19.325  25.396  12.936
39487W        W 7705  17.097  15.583   2.858
39488W        W 7706  12.629  21.251  14.033
39489W        W 7707   2.472  31.153   0.392
39490W        W 7708  18.141   4.410   4.528
39491W        W 7709   6.484  36.342   3.959
39492W        W 7710  15.500  32.550   3.631
39493W        W 7711  42.865   4.863  13.376
39494W        W 7712  21.245  13.666   4.196
39495W        W 7713  42.375  17.097   2.960
39496W        W 7714   9.795  14.288  13.363
39497W        W 7715   7.871  21.736   4.303
39498W        W 7716  17.997   4.237   1.637
39499W        W 7717  44.263  40.128  10.160
39500W        W 7718   1.130   1.919   0.150
39501W        W 7719  12.816   1.416  11.556
39502W        W 7720   0.688  41.837   3.487
39503W        W 7721   3.832  10.855  11.379
39504W        W 7722   3.894  17.653   3.053
39505W        W 7723  32.070  10.826   2.766
39506W        W 7724   5.647  32.027   4.063
39507W        W 7725  44.771  42.022  11.650
39508W        W 7726  31.604   9.358   2.643
39509W        W 7727  11.828  15.708   3.430
39510W        W 7728  41.317  32.793   0.695
39511W        W 7729   1.425  24.413   4.340
39512W        W 7730  39.423  42.009  11.555
39513W        W 7731  22.781   8.893   1.823
39514W        W 7732  24.861  24.511  12.443
39515W        W 7733  28.808  29.500  11.652
39516W        W 7734  21.074  37.519  11.885
39517W        W 7735  39.485  31.966   2.330
39518W        W 7736  23.701  17.596   4.539
39519W        W 7737  15.839  40.556   2.696
39520W        W 7738  19.121  41.361   4.527
39521W        W 7739  24.688  10.104   0.724
39522W        W 7740  26.020  30.443  14.256
39523W        W 7741  19.050  18.783  11.434
39524W        W 7742  30.803  27.704   9.813
39525W        W 7743  24.903  23.186   3.247
39526W        W 7744  24.519   8.943  13.665
39527W        W 7745  13.700   9.858  11.613
39528W        W 7746   6.173   4.238   4.162
39529W        W 7747   2.001   4.846   2.455
39530W        W 7748  23.251  18.796  14.697
39531W        W 7749  25.759  35.435  13.030
39532W        W 7750   9.673   0.207  11.188
39533W        W 7751   1.063   4.714   0.892
39534W        W 7752  22.549   1.239   1.787
39535W        W 7753   8.611  19.532  11.205
39536W        W 7754  12.216  13.755  10.741
39537W        W 7755  40.393  23.237   2.311
39538W        W 7756  14.850   2.201   1.285
39539W        W 7757  39.501   3.758  11.644
39540W        W 7758   2.123  24.581   2.678
39541W        W 7759  12.337  43.688  13.797
39542W        W 7760  19.990  14.909  14.096
39543W        W 7761  19.265   0.050   0.599
39544W        W 7762  12.215  41.304  13.080
39545W        W 7763   7.292  12.321  13.799
39546W        W 7764   6.926  12.114   3.207
39547W        W 7765   5.161   2.602  13.430
39548W        W 7766  22.629  43.786   4.132
39549W        W 7767  13.623  20.705   0.807
39550W        W 7768   8.640  15.186  10.744
39551W        W 7769  20.378  39.518  13.266
39552W        W 7770  34.736  18.353  11.096
39553W        W 7771  44.928  25.687   0.203
39554W        W 7772  33.991   5.805  14.057
39555W        W 7773  35.846  41.682  13.770
39556W        W 7774  42.089  28.416   4.559
39557W        W 7775  38.520  22.190   3.977
39558W        W 7776   4.954  26.546   2.897
39559W        W 7777  40.542  13.707  13.991
39560W        W 7778  39.408  21.707   3.704
39561W        W 7779   6.764   6.793   2.198
39562W        W 7780  32.526  21.703  10.900
39563W        W 7781  17.522  44.681  11.666
39564W        W 7782   5.444   4.346   2.801
39565W        W 7783  21.160  39.800   2.647
39566W        W 7784  11.156  37.875  12.613
39567W        W 7785  18.078  12.682  11.497
39568W        W 7786  12.826  26.622   3.223
39569W        W 7787  26.540  25.422  10.245
39570W        W 7788  18.246  31.445  13.986
39571W        W 7789  22.367   7.007   0.885
39572W        W 7790   7.920  40.823   5.277
39573W        W 7791  11.183  10.027  14.711
39574W        W 7792   9.303  33.922  11.089
39575W        W 7793  19.577  26.265  11.492
39576W        W 7794  40.784  44.537  10.770
39577W        W 7795  22.952  22.215  13.053
39578W        W 7796  23.162  12.602  10.705
39579W        W 7797  15.210   8.321   2.305
39580W        W 7798  23.530  30.465   2.090
39581W        W 7799  14.628  34.873   1.366
39582W        W 7800  24.922  16.134   0.459
39583W        W 7801   2.513  11.377   0.873
39584W        W 7802   2.557  12.661  10.177
39585W        W 7803  32.308  17.635   2.444
39586W        W 7804  20.806  37.916   1.897
39587W        W 7805  20.197  16.852  12.585
39588W        W 7806  24.261  40.093   4.085
39589W        W 7807  16.386  16.677  12.015
39590W        W 7808  13.200  32.362   4.531
39591W        W 7809   1.982  44.366   4.193
39592W        W 7810   3.959  43.699  13.312
39593W        W 7811   7.676  35.073  14.893
39594W        W 7812   5.354  42.052   1.631
39595W        W 7813  17.729  12.594   9.868
39596W        W 7814  35.779  21.554  12.123
39597W        W 7815  19.363   5.458  14.445
39598W        W 7816   3.400  18.811   1.418
39599W        W 7817   5.773   7.342  14.636
39600W        W 7818  22.992   7.872  14.268
39601W        W 7819  24.992   0.053   1.584
39602W        W 7820  29.702  30.510   4.533
39603W        W 7821  28.724  41.309   0.522
39604W        W 7822  39.806   2.533   3.083
39605W        W 7823  37.926  34.415   2.831
39606W        W 7824  21.507  32.964  10.124
39607W        W 7825  30.417   6.333  11.941
39608W        W 7826  26.661  14.611  10.294
39609W        W 7827  26.502  21.057   4.569
39610W        W 7828  23.811  41.126  11.509
39611W        W 7829   3.066  43.347   4.784
39612W        W 7830  17.026   0.684   9.881
39613W        W 7831  22.564  21.691  12.450
39614W        W 7832   0.482   0.848   0.231
39615W        W 7833  27.036  15.744   3.148
39616W        W 7834  15.578  28.601  11.856
39617W        W 7835   3.692  15.133   4.633
39618W        W 7836  43.744   8.161   1.297
39619W        W 7837   6.374  23.155   2.391
39620W        W 7838  17.899  13.033  10.264
39621W        W 7839  34.115   1.209   4.240
39622W        W 7840  42.772  41.827   4.678
39623W        W 7841  22.946  35.340  10.234
39624W        W 7842  29.397  17.159   2.615
39625W        W 7843  11.790  11.749   4.091
39626W        W 7844  11.663  13.120  10.513
39627W        W 7845  19.807  22.041  14.742
39628W        W 7846  17.684   6.855  11.635
39629W        W 7847   4.499  20.066  14.290
39630W        W 7848  24.197   2.891  14.916
39631W        W 7849   6.389  31.682   4.440
39632W        W 7850  25.465  24.898  13.522
39633W        W 7851  36.311   5.333  11.715
39634W        W 7852  21.064  26.062   2.309
39635W        W 7853  20.945  37.113  14.347
39636W        W 7854  24.433  43.999  14.331
39637W        W 7855  30.170  24.920  14.974
39638W        W 7856  40.546  18.526   4.162
39639W        W 7857  24.227  43.727  12.967
39640W        W 7858   1.689  38.232  12.391
39641W        W 7859   4.277  24.152  13.017
39642W        W 7860  33.933   3.010   1.921
39643W        W 7861  16.537  37.969   2.716
39644W        W 7862  27.987  18.700   3.093
39645W        W 7863  11.833   0.313   0.303
39646W        W 7864  12.034  38.959   1.197
39647W        W 7865  32.226  10.341  11.130
39648W        W 7866  43.979  11.499   3.812
39649W        W 7867  26.257   0.816  12.927
39650W        W 7868  34.053  13.882   1.335
39651W        W 7869  22.007   6.630   4.149
39652W        W 7870   3.676  37.984  11.165
39653W        W 7871  44.019  42.503   1.319
39654W        W 7872  34.424  10.098   0.348
39655W        W 7873  21.230  38.829   0.849
39656W        W 7874  44.731  25.098   1.795
39657W        W 7875  30.915  12.777  11.997
39658W        W 7876  17.472   7.321  14.790
39659W        W 7877  21.053  35.457   3.229
39660W        W 7878   3.904  29.485   4.648
39661W        W 7879  28.619   9.832   4.324
39662W        W 7880  18.697  43.861   3.714
39663W        W 7881  42.865  31.887   4.188
39664W        W 7882  42.973  10.227   1.848
39665W        W 7883   8.950   2.136   3.503
39666W        W 7884  18.564  13.329   1.922
39667W        W 7885  44.556  12.049   4.641
39668W        W 7886  22.100  26.027   0.862
39669W        W 7887  44.332  36.943   3.469
39670W        W 7888   8.127   6.479  14.664
39671W        W 7889  14.718  16.095   3.257
39672W        W 7890  18.766  28.488   4.752
39673W        W 7891  13.243   8.706   4.623
39674W        W 7892  12.268  36.983   4.182
39675W        W 7893  24.130  18.604   4.994
39676W        W 7894  41.293  41.064  14.331
39677W        W 7895  14.852  16.251  10.552
39678W        W 7896  43.305  13.955  10.740
39679W        W 7897  28.550  22.216   4.589
39680W        W 7898  12.628  42.793   4.186
39681W        W 7899  34.379  23.280  14.910
39682W        W 7900  36.496  10.817  13.354
39683W        W 7901  25.251  25.277   3.554
39684W        W 7902   9.975  15.458   2.669
39685W        W 7903  40.081  40.589  14.897
39686W        W 7904  30.949   0.254  13.378
39687W        W 7905   6.838   4.204   3.661
39688W        W 7906  39.979  31.377  12.867
39689W        W 7907  37.020  38.973  14.029
39690W        W 7908  42.639  13.207  11.016
39691W        W 7909  21.557  33.825  12.861
39692W        W 7910  36.412   2.283  11.161
39693W        W 7911  41.756  24.030  14.053
39694W        W 7912  27.066  36.317   0.701
39695W        W 7913   2.741  15.592   3.809
39696W        W 7914  40.393  13.916   0.190
39697W        W 7915  41.781  39.498   3.101
39698W        W 7916   3.809  44.678  10.733
39699W        W 7917   5.040  41.250  11.644
39700W        W 7918  27.498  13.750  12.465
39701W        W 7919  35.804  40.794  11.200
39702W        W 7920  23.471  26.302   1.783
39703W        W 7921   8.785  25.902   1.751
39704W        W 7922  22.234   3.609   4.537
39705W        W 7923  26.704  16.191   1.209
39706W        W 7924  26.675  39.236   4.185
39707W        W 7925   4.144  29.001  10.633
39708W        W 7926  13.992  28.234   4.245
39709W        W 7927  14.775  44.042  14.893
39710W        W 7928  22.962   4.261  13.819
39711W        W 7929   4.203  27.182  13.519
39712W        W 7930   2.020   4.251  12.041
39713W        W 7931  42.343  14.299  14.020
39714W        W 7932   1.109  42.850   4.584
39715W        W 7933  27.162  15.738  13.420
39716W        W 7934  37.494  28.653  12.086
39717W        W 7935  43.449  10.611  14.315
39718W        W 7936  13.689   7.373   4.269
39719W        W 7937   5.520  37.620   4.527
39720W        W 7938  24.314  22.017   2.773
39721W        W 7939  12.240  32.370  10.557
39722W        W 7940  42.033  41.467   1.224
39723W        W 7941  15.458  36.053   3.722
39724W        W 7942  31.370  36.363  11.828
39725W        W 7943  14.667   1.520  12.594
39726W        W 7944  22.652  24.611  11.598
39727W        W 7945   9.460  11.545   3.609
39728W        W 7946  29.928  17.879   3.241
39729W        W 7947  20.543  11.149   4.131
39730W        W 7948  24.010  10.495  13.753
39731W        W 7949  18.147  23.285   1.860
39732W        W 7950  15.260   2.174   5.038
39733W        W 7951   7.199  14.850  13.979
39734W        W 7952  30.133  28.195  14.588
39735W        W 7953  17.828  35.339  12.067
39736W        W 7954  23.732  42.043  10.692
39737W        W 7955  12.648  43.520   2.757
39738W        W 7956  15.392   7.976   4.136
39739W        W 7957  30.977  32.070   2.729
39740W        W 7958   5.194  21.419  10.115
39741W        W 7959  36.313   1.785   0.553
39742W        W 7960  21.550  25.516   0.229
39743W        W 7961  39.053  27.203  12.105
39744W        W 7962  34.577  20.138  12.444
39745W        W 7963  19.933   9.161  11.747
39746W        W 7964  27.706  30.228   0.177
39747W        W 7965   3.564   9.161   1.046
39748W        W 7966  13.850  34.421   0.921
39749W        W 7967  40.738  26.997  11.419
39750W        W 7968  18.140  28.340  12.054
39751W        W 7969  22.749  11.155  12.493
39752W        W 7970  35.803  33.134   0.388
39753W        W 7971  44.518  32.030   3.682
39754W        W 7972   3.722  39.486  14.973
39755W        W 7973  25.003  18.313  14.367
39756W        W 7974  30.326  13.390  12.419
39757W        W 7975  17.863  24.528   4.160
39758W        W 7976  21.583  10.152   3.242
39759W        W 7977  34.161  43.797   4.026
39760W        W 7978  24.514   2.225  10.402
39761W        W 7979   3.949  39.403  13.169
39762W        W 7980  40.337  18.026   1.532
39763W        W 7981  19.651  35.042   4.296
39764W        W 7982   2.755   8.892   0.899
39765W        W 7983  39.852  13.101  14.582
39766W        W 7984  18.753  17.094   2.234
39767W        W 7985   0.295   1.350  13.439
39768W        W 7986  26.241  13.271   0.783
39769W        W 7987   7.293   1.738   1.894
39770W        W 7988  40.461  33.562  12.996
39771W        W 7989  15.190  40.415   3.236
39772W        W 7990  42.042  24.065   0.021
39773W        W 7991  12.128   6.069  13.897
39774W        W 7992  37.051   8.889   0.753
39775W        W 7993  14.384   3.244   0.428
39776W        W 7994  34.816  17.815   0.735
39777W        W 7995  10.379  44.371  12.925
39778W        W 7996  39.009  38.522  12.523
39779W        W 7997  29.711   2.228  11.678
39780W        W 7998  37.251  32.433  12.519
39781W        W 7999   4.141  22.141  10.931
39782W        W 8000  40.530  18.747  10.923
39783W        W 8001   2.306  22.256   2.410
39784W        W 8002  19.470  29.909  11.791
39785W        W 8003  34.531  31.420  11.035
39786W        W 8004  33.851  44.453  11.036
39787W        W 8005  22.941   6.120  13.408
39788W        W 8006  19.271  11.921   4.549
39789W        W 8007  10.799   6.566  13.914
39790W        W 8008  36.573  19.762   4.997
39791W        W 8009  21.997  38.937  12.422
39792W        W 8010  31.939   2.928  12.005
39793W        W 8011  19.588  39.833  11.671
39794W        W 8012  24.963  21.458   0.272
39795W        W 8013  42.479  10.254  10.448
39796W        W 8014  34.442  18.939  12.078
39797W        W 8015  16.119  42.985   0.758
39798W        W 8016  17.534  12.216  10.658
39799W        W 8017  29.899  27.017  12.950
39800W        W 8018  28.102  40.340  10.285
39801W        W 8019  42.783   8.008   0.646
39802W        W 8020  13.196   6.574   1.639
39803W        W 8021   3.773  27.744  14.370
39804W        W 8022  39.113  41.371  11.497
39805W        W 8023  37.366  15.829   4.311
39806W        W 8024  19.667  22.185   4.759
39807W        W 8025  29.147  11.204  13.807
39808W        W 8026  44.728  32.157   2.220
39809W        W 8027  29.928  10.417   1.767
39810W        W 8028  15.133  20.178  13.461
39811W        W 8029  28.917  10.732   1.433
39812W        W 8030  39.337  19.088  10.591
39813W        W 8031  38.045  40.536   3.712
39814W        W 8032  11.616  22.475   2.808
39815W        W 8033   5.309  25.059  13.507
39816W        W 8034  27.949  31.162  13.377
39817W        W 8035  44.612  23.949   0.989
39818W        W 8036  19.845  25.520   0.858
39819W        W 8037  44.572  27.827  11.163
39820W        W 8038  15.124  19.707   3.195
39821W        W 8039  22.811  34.159   0.437
39822W        W 8040  16.582  35.659   4.241
39823W        W 8041  25.618  20.202   0.593
39824W        W 8042   6.774  40.460   2.799
39825W        W 8043  33.720  29.424   2.860
39826W        W 8044  32.131  13.285  12.581
39827W        W 8045  17.119   9.800   0.767
39828W        W 8046  22.007  36.859  11.144
39829W        W 8047  29.832  25.708  13.448
39830W        W 8048  44.040   3.812  14.317
39831W        W 8049  15.636  12.127  14.978
39832W        W 8050  34.548  36.102   4.634
39833W        W 8051   7.004  33.105  14.324
39834W        W 8052  18.595  10.611  10.769
39835W        W 8053  20.828  22.271  14.027
39836W        W 8054  43.034  11.329   1.647
39837W        W 8055  17.078  30.539   4.510
39838W        W 8056  28.949  33.402   3.303
39839W        W 8057  15.694  42.038   0.038
39840W        W 8058  30.469  28.615  10.571
39841W        W 8059  13.277  39.325  13.065
39842W        W 8060  41.247   1.954   1.844
39843W        W 8061   7.385  17.057   2.332
39844W        W 8062  35.102  20.642  12.907
39845W        W 8063  41.271  43.913  12.426
39846W        W 8064  14.261  23.310  14.382
39847W        W 8065  23.666  18.780  12.983
39848W        W 8066  36.860  28.035   4.014
39849W        W 8067  32.299  30.854   5.033
39850W        W 8068  41.911  14.845   4.536
39851W        W 8069  27.376   2.987  10.681
39852W        W 8070  37.598   2.040  11.567
39853W        W 8071   3.032  10.777  13.437
39854W        W 8072   0.869  31.639   1.490
39855W        W 8073   3.447   1.002  14.788
39856W        W 8074  43.025   9.139  11.174
39857W        W 8075  28.006  28.211  11.126
39858W        W 8076  42.019  40.231   4.145
39859W        W 8077   3.477  32.875   0.820
39860W        W 8078  28.340  15.201  13.162
39861W        W 8079  22.533  22.466  11.988
39862W        W 8080  33.891  11.123  12.659
39863W        W 8081   0.324  17.720   0.830
39864W        W 8082  32.211  18.068   0.253
39865W        W 8083  14.149  31.654  11.563
39866W        W 8084  41.263  15.620   4.102
39867W        W 8085  34.312  17.599  10.912
39868W        W 8086   1.321  41.513   0.318
39869W        W 8087  31.922  41.486  12.848
39870W        W 8088  12.351  39.831  12.488
39871W        W 8089  26.977  10.686   2.976
39872W        W 8090  29.065  20.342   1.806
39873W        W 8091  38.126  37.581   4.331
39874W        W 8092  33.065  33.461  13.900
39875W        W 8093  26.318  41.542   3.611
39876W        W 8094  13.787  22.165   4.206
39877W        W 8095  43.248  42.994  14.194
39878W        W 8096  23.739  26.395  12.422
39879W        W 8097  24.080  41.776  14.260
39880W        W 8098  15.660  38.814   4.529
39881W        W 8099  41.645   4.725   2.644
39882W        W 8100  13.986  29.908   1.874
39883W        W 8101  34.028   8.867   0.888
39884W        W 8102   1.457   6.421   3.117
39885W        W 8103  33.620  41.229  13.590
39886W        W 8104  40.751  36.444  13.372
39887W        W 8105  20.197  37.589   3.360
39888W        W 8106  16.104  30.665   4.612
39889W        W 8107  34.586  40.424   2.837
39890W        W 8108  11.437  28.770  14.287
39891W        W 8109  34.462  39.947  14.894
39892W        W 8110  14.662   8.771  11.770
39893W        W 8111  10.344  10.961  13.925
39894W        W 8112  33.673  27.138   0.920
39895W        W 8113   3.715  11.991   1.241
39896W        W 8114   6.366  43.749   3.142
39897W        W 8115  32.916  24.518   0.374
39898W        W 8116   9.361  12.162  12.636
39899W        W 8117   5.188   3.822  14.780
39900W        W 8118  35.407  38.612   1.882
39901W        W 8119  12.098   8.843  14.060
39902W        W 8120  23.251  37.508  10.812
39903W        W 8121  19.007  42.512  14.108
39904W        W 8122  31.538  39.632  12.584
39905W        W 8123  15.088  44.071  14.151
39906W        W 8124  21.521  44.910  13.076
39907W        W 8125  40.678   8.540  12.637
39908W        W 8126  23.738  16.599   0.388
39909W        W 8127  20.846   2.013   2.323
39910W        W 8128  11.627   8.743   5.046
39911W        W 8129   8.696  36.023  10.600
39912W        W 8130  27.220  16.692  13.223
39913W        W 8131   9.401  19.151   0.321
39914W        W 8132  10.468   3.361   2.315
39915W        W 8133  12.759  22.727  14.245
39916W        W 8134  10.882   1.376   3.790
39917W        W 8135  41.827  41.988   3.727
39918W        W 8136   9.065   9.779   0.322
39919W        W 8137  32.100  18.402   5.206
39920W        W 8138   5.871  25.700   2.939
39921W        W 8139  14.773  11.376  12.102
39922W        W 8140  30.491   5.479   1.810
39923W        W 8141  39.723  15.572  14.743
39924W        W 8142  24.621  12.118  11.335
39925W        W 8143   7.158  34.592   3.819
39926W        W 8144  26.632   6.672   4.560
39927W        W 8145  30.854  25.215   3.728
39928W        W 8146  37.216   5.352   9.753
39929W        W 8147   1.278  20.574   2.867
39930W        W 8148  20.510   3.951   3.350
39931W        W 8149  19.551  14.783  12.469
39932W        W 8150  20.833  37.548   2.318
39933W        W 8151  17.596   3.672   0.960
39934W        W 8152  20.276  40.871   2.354
39935W        W 8153   1.198   3.199  12.114
39936W        W 8154  21.982   4.383   1.714
39937W        W 8155  21.304  43.151  13.302
39938W        W 8156  15.022  16.705   2.723
39939W        W 8157  21.528  14.900  11.961
39940W        W 8158   7.878   7.193   0.364
39941W        W 8159   3.951  16.068   3.731
39942W        W 8160  15.642  19.059   1.898
39943W        W 8161  22.470  40.315   2.727
39944W        W 8162  40.970   2.876  10.727
39945W        W 8163  38.318  36.914  11.103
39946W        W 8164  30.066  36.282   2.248
39947W        W 8165  13.663  24.482   0.317
39948W        W 8166  16.222  30.109  14.331
39949W        W 8167  31.806   6.382   4.073
39950W        W 8168   9.796  28.599  13.555
39951W        W 8169  40.062  39.760  14.524
39952W        W 8170  35.869  14.186  11.635
39953W        W 8171  17.185   1.029   0.882
39954W        W 8172  14.225  16.071   3.807
39955W        W 8173  21.092   2.861  12.399
39956W        W 8174   9.208  11.186   0.454
39957W        W 8175  15.071  33.172  11.574
39958W        W 8176  20.125  26.109  10.966
39959W        W 8177  12.373   3.467   2.695
39960W        W 8178  36.910  21.789   2.396
39961W        W 8179  12.409  39.417   2.569
39962W        W 8180   8.122  12.924   3.211
39963W        W 8181  40.069  31.155   1.766
39964W        W 8182  43.539  35.649   0.272
39965W        W 8183  12.369  22.422  14.100
39966W        W 8184  34.404  31.888  10.498
39967W        W 8185  20.043   5.239  13.869
39968W        W 8186  33.497  39.290  11.921
39969W        W 8187  13.899  17.858  11.929
39970W        W 8188  36.600  17.896   0.438
39971W        W 8189  16.001  24.603   4.593
39972W        W 8190  28.302   2.166  11.278
39973W        W 8191  24.755   9.357  14.586
39974W        W 8192  36.022  28.378   5.051
39975W        W 8193  34.197  40.088  11.657
39976W        W 8194  28.169  28.264   5.006
39977W        W 8195   6.718  32.650  14.365
39978W        W 8196  14.872  39.308   0.449
39979W        W 8197  36.873  36.963   3.352
39980W        W 8198  12.140  30.143   0.527
39981W        W 8199  39.820  33.038  11.952
39982W        W 8200  14.214   2.190   4.985
39983W        W 8201  10.683  17.654  13.551
39984W        W 8202  41.574  43.953   4.637
39985W        W 8203  30.995  41.716   4.164
39986W        W 8204  44.325   8.313   1.863
39987W        W 8205  20.917  26.420  11.079
39988W        W 8206  10.118  38.489  12.756
39989W        W 8207  16.042  21.497  13.380
39990W        W 8208  36.679  20.562   3.368
39991W        W 8209  15.378  31.377  13.563
39992W        W 8210  40.814  42.062  12.572
39993W        W 8211   5.354  19.116   2.351
39994W        W 8212   1.334  16.075  12.005
39995W        W 8213   4.516  21.093  12.838
39996W        W 8214  40.779  17.136   1.943
39997W        W 8215  35.915  28.945  10.998
39998W        W 8216   4.119   0.948   2.650
39999W        W 8217  19.284  27.583   2.312
40000W        W 8218  15.819  20.820   2.249
40001W        W 8219   1.721  33.872  11.081
40002W        W 8220  16.762  15.662   1.783
40003W        W 8221  33.972   5.626  14.548
40004W        W 8222  23.048  35.524  13.863
40005W        W 8223   9.785  22.749  13.572
40006W        W 8224  32.085  11.789  12.007
40007W        W 8225  17.359  26.413   3.665
40008W        W 8226  38.715   1.830  13.886
40009W        W 8227  42.304  17.810   3.629
40010W        W 8228  29.438   5.905   1.347
40011W        W 8229  39.949  17.652  11.492
40012W        W 8230  41.736  28.037   2.949
40013W        W 8231  17.021  23.357   0.927
40014W        W 8232  22.513  35.817   3.676
40015W        W 8233  38.437  11.237  13.473
40016W        W 8234  31.352   4.147   3.152
40017W        W 8235  35.089  43.225   1.866
40018W        W 8236  23.739  15.345  14.090
40019W        W 8237  41.115  37.541  10.797
40020W        W 8238   2.229  17.848   2.307
40021W        W 8239  21.739  22.616   0.521
40022W        W 8240  30.708  15.776   4.134
40023W        W 8241  18.882  38.326  11.922
40024W        W 8242   8.405   4.410  14.986
40025W        W 8243  17.095  40.773  13.039
40026W        W 8244  20.997  16.131  12.743
40027W        W 8245   4.847   4.911  11.641
40028W        W 8246  43.755  26.498  14.303
40029W        W 8247  28.023  20.156   0.789
40030W        W 8248  20.698  16.438  12.155
40031W        W 8249  16.598  40.172   1.294
40032W        W 8250  19.232  15.810  14.628
40033W        W 8251   9.396  39.547   0.881
40034W        W 8252  44.301  31.256  10.779
40035W        W 8253  18.590   8.746  11.717
40036W        W 8254   2.473  19.163   0.331
40037W        W 8255  28.058  21.090   3.340
40038W        W 8256  18.125  29.271  12.153
40039W        W 8257  31.571  41.594   3.672
40040W        W 8258  37.247   8.924  11.072
40041W        W 8259  13.754  19.236  14.855
40042W        W 8260  21.131  43.537   1.080
40043W        W 8261  11.338   8.770   1.226
40044W        W 8262  42.247  22.877  13.401
40045W        W 8263  41.934  19.253  12.331
40046W        W 8264  43.963   6.466   0.382
40047W        W 8265  20.985  27.545  10.377
40048W        W 8266  41.377  13.292  13.244
40049W        W 8267  29.638  38.617  13.455
40050W        W 8268  31.679  26.610   2.680
40051W        W 8269   3.878  39.105   3.297
40052W        W 8270  27.014   8.675  14.109
40053W        W 8271  12.762  32.515   2.201
40054W        W 8272   2.148  37.399   2.835
40055W        W 8273  20.788  32.065  11.239
40056W        W 8274  25.651   1.958  11.670
40057W        W 8275  18.301   2.637  14.976
40058W        W 8276  24.667  37.707  11.703
40059W        W 8277  12.190   1.328  10.253
40060W        W 8278  26.364  12.726   4.133
40061W        W 8279  22.232   4.303   0.688
40062W        W 8280   2.081  30.788  11.961
40063W        W 8281  31.702  23.958   3.310
40064W        W 8282   1.414  38.877   4.562
40065W        W 8283   3.861  23.241  10.905
40066W        W 8284   7.774  11.565   3.014
40067W        W 8285  37.489  41.739  11.637
40068W        W 8286  41.873  11.324   2.331
40069W        W 8287   1.846  25.142   2.732
40070W        W 8288  30.299  18.486   0.247
40071W        W 8289  12.229  26.407  13.098
40072W        W 8290   2.523   4.215  11.984
40073W        W 8291  44.938  25.638   3.978
40074W        W 8292   1.435  14.776  10.466
40075W        W 8293  44.261  33.073   4.693
40076W        W 8294  44.721  27.051   4.601
40077W        W 8295  10.029  11.338   0.709
40078W        W 8296   6.919  23.007   0.390
40079W        W 8297  43.229  38.714   3.744
40080W        W 8298  20.789  15.070   4.912
40081W        W 8299   6.051  12.878  10.291
40082W        W 8300  24.767  41.720  12.111
40083W        W 8301  20.605  39.401   3.677
40084W        W 8302  21.810  23.218  13.894
40085W        W 8303   9.635   7.684   3.576
40086W        W 8304  43.920  19.355   1.881
40087W        W 8305  41.757   2.362   0.754
40088W        W 8306  22.626  37.061  10.504
40089W        W 8307  39.568  24.739  12.327
40090W        W 8308  42.674  28.577   0.439
40091W        W 8309   8.408   2.917   3.284
40092W        W 8310  42.527  36.523  10.815
40093W        W 8311  43.514   3.906   2.250
40094W        W 8312  34.396  30.873  14.340
40095W        W 8313  41.180  17.288  12.450
40096W        W 8314  22.459  27.840  14.414
40097W        W 8315  37.005   8.257   4.669
40098W        W 8316  20.973  23.646  13.910
40099W        W 8317   8.616  10.852  12.611
40100W        W 8318  29.617  12.703   3.677
40101W        W 8319   5.466  13.755  11.458
40102W        W 8320  26.682   5.019  12.812
40103W        W 8321  37.148  35.783  11.549
40104W        W 8322  16.872  16.095  14.809
40105W        W 8323  42.376  21.265  13.974
40106W        W 8324  13.555  29.980  11.664
40107W        W 8325  29.853   1.775  10.961
40108W        W 8326  28.606   9.105  10.872
40109W        W 8327  19.348  35.075   1.597
40110W        W 8328  27.126   7.834   1.421
40111W        W 8329  25.988  15.611  13.487
40112W        W 8330   0.405  30.655  13.280
40113W        W 8331  38.148   3.597   4.096
40114W        W 8332  22.774  24.007   4.997
40115W        W 8333  40.485   4.505   4.626
40116W        W 8334  34.372  41.333   0.508
40117W        W 8335  14.683  39.992  12.049
40118W        W 8336  17.683  26.143   2.794
40119W        W 8337  10.667  29.528  12.159
40120W        W 8338   2.516  42.825   3.577
40121W        W 8339   6.175  27.151   1.309
40122W        W 8340  33.039   4.348   3.249
40123W        W 8341  25.320  13.644  14.516
40124W        W 8342  23.195  42.460   2.651
40125W        W 8343   5.904  39.809  13.955
40126W        W 8344  32.811  14.901  12.988
40127W        W 8345  17.308  41.018  11.606
40128W        W 8346   7.048  22.219   4.300
40129W        W 8347  23.129  42.264  13.012
40130W        W 8348  28.878  37.822  13.965
40131W        W 8349  35.428  22.225  13.609
40132W        W 8350   5.332  20.190  12.027
40133W        W 8351  29.142  12.424  14.826
40134W        W 8352  36.558   1.862   4.050
40135W        W 8353   0.272   7.730   4.509
40136W        W 8354  32.459  14.666   1.955
40137W        W 8355  16.799  38.335   1.960
40138W        W 8356  41.703  22.113  12.051
40139W        W 8357  40.565   8.884  13.982
40140W        W 8358  19.556  16.795   4.478
40141W        W 8359  36.970  25.148   0.247
40142W        W 8360  20.710   9.260   3.175
40143W        W 8361  42.315  44.006  13.847
40144W        W 8362  34.882  23.642  12.156
40145W        W 8363  16.074  12.761   1.743
40146W        W 8364   9.479  42.451   5.547
40147W        W 8365  10.504  16.728   1.944
40148W        W 8366  15.737  37.615  12.498
40149W        W 8367  15.469  36.369  14.775
40150W        W 8368  17.049   4.453  13.898
40151W        W 8369  39.072  21.324  14.410
40152W        W 8370   8.201  27.492   4.604
40153W        W 8371  39.334  32.589  10.668
40154W        W 8372  15.337  22.031   3.700
40155W        W 8373  21.891  38.954   3.867
40156W        W 8374  38.957   0.790   0.960
40157W        W 8375  28.128  43.945  10.706
40158W        W 8376  24.922  19.834  14.950
40159W        W 8377  17.533  26.952   0.940
40160W        W 8378  25.945  24.449  13.491
40161W        W 8379  31.077   1.186  14.322
40162W        W 8380  21.107  13.790   3.697
40163W        W 8381  17.737  32.460  11.528
40164W        W 8382  24.781  17.859   2.791
40165W        W 8383  23.930  19.673  13.937
40166W        W 8384  20.262  33.622  12.295
40167W        W 8385  38.612  34.506   4.631
40168W        W 8386  30.957  17.731  10.395
40169W        W 8387  28.458   1.908  10.321
40170W        W 8388  26.189  36.061   0.310
40171W        W 8389   1.329  41.820   2.740
40172W        W 8390  25.382  14.411   1.302
40173W        W 8391  26.763  42.298  11.238
40174W        W 8392  39.316  37.368  10.281
40175W        W 8393   5.122  37.435  14.952
40176W        W 8394  20.511  44.996  12.061
40177W        W 8395  24.603  24.975  13.617
40178W        W 8396   9.483   2.461  13.986
40179W        W 8397  25.917  23.501   1.326
40180W        W 8398   3.230  38.140   2.980
40181W        W 8399  44.748  24.050   2.725
40182W        W 8400  28.651  23.940   2.287
40183W        W 8401  12.129  41.084   0.944
40184W        W 8402   2.153  29.534  12.030
40185W        W 8403  13.393  22.987   4.285
40186W        W 8404  10.354   0.449  12.982
40187W        W 8405  21.271  40.949   1.838
40188W        W 8406  10.904  33.945  13.811
40189W        W 8407   1.498  35.411   1.465
40190W        W 8408  42.448  21.215  13.457
40191W        W 8409  37.052  21.043  11.055
40192W        W 8410  10.706  30.497  12.483
40193W        W 8411   2.711   4.848   1.317
40194W        W 8412  22.426  17.087   3.692
40195W        W 8413  43.421  13.086  14.373
40196W        W 8414   7.724  23.212   1.672
40197W        W 8415  22.647   1.708  12.507
40198W        W 8416  20.787  42.994  11.397
40199W        W 8417  40.544  40.002   0.897
40200W        W 8418   7.913  35.016  12.113
40201W        W 8419  31.557  31.052   3.359
40202W        W 8420  38.998  26.610   5.039
40203W        W 8421  23.874  38.809  11.019
40204W        W 8422  26.077  12.566  13.316
40205W        W 8423   2.021  27.597  14.984
40206W        W 8424  16.143  13.206   2.642
40207W        W 8425  17.598  31.563  14.387
40208W        W 8426   4.770   2.694   3.815
40209W        W 8427  21.986  13.268  13.934
40210W        W 8428   1.356  37.555  13.894
40211W        W 8429   6.803   1.034   3.280
40212W        W 8430  16.810  16.278  12.885
40213W        W 8431  43.174  35.868  11.068
40214W        W 8432  33.969  18.371   0.287
40215W        W 8433   7.229  29.106  14.038
40216W        W 8434   4.032  18.226   0.233
40217W        W 8435  23.654  36.815   1.823
40218W        W 8436  29.295  32.148  14.758
40219W        W 8437  16.035  25.132   2.803
40220W        W 8438  24.610  35.950   2.808
40221W        W 8439  17.150  13.673   2.351
40222W        W 8440  37.901  23.990   3.711
40223W        W 8441  40.003  18.758  14.596
40224W        W 8442   1.459  26.407  14.254
40225W        W 8443  34.448  36.475  13.066
40226W        W 8444  41.520  14.590   3.244
40227W        W 8445  35.551  34.390   0.602
40228W        W 8446   6.443  16.015  10.695
40229W        W 8447  31.526  39.825   0.935
40230W        W 8448  39.095   2.270   2.696
40231W        W 8449  25.808  23.819  11.991
40232W        W 8450   3.290  35.487   0.474
40233W        W 8451  39.924   1.281   4.133
40234W        W 8452  12.288  12.275   2.595
40235W        W 8453  33.521  19.658   0.315
40236W        W 8454  13.663  18.640  12.580
40237W        W 8455  39.831  15.057   0.381
40238W        W 8456  42.025  11.228  12.923
40239W        W 8457  15.883  44.163   3.213
40240W        W 8458   6.719   7.606   2.690
40241W        W 8459   6.732  32.931  13.924
40242W        W 8460  44.253  17.263  14.102
40243W        W 8461  28.677  28.083  10.532
40244W        W 8462  43.948  23.696   2.380
40245W        W 8463  43.799  36.551   1.564
40246W        W 8464  38.327  21.774  12.855
40247W        W 8465  13.785  40.037  14.832
40248W        W 8466  11.943   7.503   4.475
40249W        W 8467  11.968  10.992  11.588
40250W        W 8468  42.401   9.387  14.005
40251W        W 8469  13.749  28.137   2.590
40252W        W 8470  14.314  28.670   4.219
40253W        W 8471  30.885  21.589  14.450
40254W        W 8472  24.604  13.216   3.783
40255W        W 8473  36.986  10.912   2.969
40256W        W 8474  22.570   8.295   0.317
40257W        W 8475  23.148  29.300   4.250
40258W        W 8476  14.251  38.865  10.402
40259W        W 8477  36.620   3.750  11.985
40260W        W 8478  35.603  28.564  12.082
40261W        W 8479  20.643   5.975  12.625
40262W        W 8480   6.864  19.307  14.693
40263W        W 8481  38.097  33.307  13.041
40264W        W 8482   0.985  38.892   0.409
40265W        W 8483  30.713   5.110  10.624
40266W        W 8484  31.745  44.061   2.241
40267W        W 8485  16.193  13.494  12.946
40268W        W 8486  36.549  19.593  13.374
40269W        W 8487  14.860  34.018   1.727
40270W        W 8488  28.700  12.944   3.263
40271W        W 8489  28.329  16.809  11.727
40272W        W 8490  21.603  30.863   4.169
40273W        W 8491  18.585  19.711   4.535
40274W        W 8492  40.670  26.138  11.878
40275W        W 8493   4.106  40.956   2.781
40276W        W 8494  31.447  26.160  10.498
40277W        W 8495   4.003  39.042   4.656
40278W        W 8496  23.628  22.623  14.072
40279W        W 8497  29.958  17.597   3.665
40280W        W 8498  23.000  33.626   2.893
40281W        W 8499  28.531  25.528  13.922
40282W        W 8500   6.858  29.353   1.727
40283W        W 8501  36.572  12.085   3.223
40284W        W 8502   4.501   4.899  14.525
40285W        W 8503  20.102  38.308   1.192
40286W        W 8504  11.380  32.917   1.125
40287W        W 8505  26.871   0.269  12.402
40288W        W 8506  36.587  28.656  10.025
40289W        W 8507   2.287  13.267  12.942
40290W        W 8508  33.503  38.435  10.812
40291W        W 8509  24.045  38.066  12.962
40292W        W 8510  32.101  35.781  11.522
40293W        W 8511  18.306  15.214  14.022
40294W        W 8512  23.664  39.411   1.696
40295W        W 8513  24.753  24.017   3.245
40296W        W 8514  43.304  44.842   5.016
40297W        W 8515   0.027   5.945   4.131
40298W        W 8516  36.377  16.315  14.229
40299W        W 8517  30.526  28.515  14.149
40300W        W 8518  34.083  37.128   2.970
40301W        W 8519   7.784  36.147  12.947
40302W        W 8520  37.964  15.191  13.833
40303W        W 8521  22.927  40.424   0.904
40304W        W 8522  18.108   1.290   0.447
40305W        W 8523  32.014  36.151  12.904
40306W        W 8524   5.822  41.872   4.142
40307W        W 8525  33.932  24.661   3.699
40308W        W 8526  37.337  17.034  13.344
40309W        W 8527  33.875  10.462   2.062
40310W        W 8528   9.870  40.761   1.387
40311W        W 8529  33.999  38.021   4.062
40312W        W 8530   7.631  44.240   4.187
40313W        W 8531  28.526  40.673  11.181
40314W        W 8532  25.250  39.324  10.555
40315W        W 8533  39.868  42.247   4.662
40316W        W 8534   6.787  40.267   1.289
40317W        W 8535  24.271   1.755   2.194
40318W        W 8536   6.568  39.453   2.616
40319W        W 8537  17.129  44.513  14.935
40320W        W 8538   5.853  18.237  14.479
40321W        W 8539   8.781  15.321   2.629
40322W        W 8540   4.897   3.917   3.233
40323W        W 8541  40.340  20.475  14.355
40324W        W 8542   0.494   6.923  11.016
40325W        W 8543  39.791  27.759  13.823
40326W        W 8544   1.539  18.118   1.940
40327W        W 8545  34.842  28.527  12.528
40328W        W 8546  14.098  36.384   3.522
40329W        W 8547  37.687  39.589  12.438
40330W        W 8548  12.739   8.093   2.319
40331W        W 8549  40.097  43.359  14.901
40332W        W 8550  13.327  40.275   4.251
40333W        W 8551  28.071   1.275   1.416
40334W        W 8552  40.773  11.000  14.497
40335W        W 8553  30.782  33.799   2.428
40336W        W 8554   7.389   6.388  13.374
40337W        W 8555  24.197  32.163   3.844
40338W        W 8556  10.756  41.777   2.088
40339W        W 8557   9.820  17.841   0.201
40340W        W 8558   4.146  19.015   1.869
40341W        W 8559  34.116  31.513  12.572
40342W        W 8560  30.862  19.589   1.172
40343W        W 8561   5.704  43.439   4.824
40344W        W 8562  10.175  37.613  11.049
40345W        W 8563  21.633  15.284   4.875
40346W        W 8564  24.739  15.340  13.087
40347W        W 8565  28.667  19.222   4.800
40348W        W 8566   8.036  24.574   4.092
40349W        W 8567  41.019   0.942   1.819
40350W        W 8568  34.146   3.020  12.575
40351W        W 8569  38.675  43.977  12.808
40352W        W 8570   5.866  14.772   2.908
40353W        W 8571  21.734  39.585   4.791
40354W        W 8572  44.842  25.679  11.932
40355W        W 8573  40.281  13.925  14.378
40356W        W 8574  44.009  24.749   2.788
40357W        W 8575   3.172  41.891  13.681
40358W        W 8576   7.381   1.901   2.367
40359W        W 8577  43.992   2.408   1.780
40360W        W 8578  30.580  41.881   1.774
40361W        W 8579  21.734  16.975  12.203
40362W        W 8580  24.565  41.983  10.575
40363W        W 8581  16.870  37.563   4.954
40364W        W 8582   8.505  20.251   3.937
40365W        W 8583  11.844  30.064  14.835
40366W        W 8584   0.208  27.949   3.289
40367W        W 8585  35.582  34.491   0.063
40368W        W 8586  42.820  31.512   3.830
40369W        W 8587   5.201   1.113   1.499
40370W        W 8588   8.503   4.949  12.011
40371W        W 8589   4.899   7.563   4.816
40372W        W 8590  31.664  26.174  14.360
40373W        W 8591  19.526  26.758   3.236
40374W        W 8592   1.540  29.601  11.389
40375W        W 8593  30.588   0.688  12.529
40376W        W 8594  33.611  15.089  11.634
40377W        W 8595  28.001  10.884   1.372
40378W        W 8596  12.955  40.408  12.357
40379W        W 8597  15.373  41.457  13.157
40380W        W 8598  29.949  20.350  14.858
40381W        W 8599  10.721  37.137   4.624
40382W        W 8600  39.411  23.137  13.336
40383W        W 8601  33.567  21.640   3.321
40384W        W 8602  24.419  21.582  13.938
40385W        W 8603  21.654  38.733   2.587
40386W        W 8604   4.000  26.565   0.782
40387W        W 8605  12.095  38.499   1.482
40388W        W 8606  14.336  39.972  12.501
40389W        W 8607  29.850   5.894  11.190
40390W        W 8608   3.014  37.330  10.829
40391W        W 8609  12.125  21.056  13.968
40392W        W 8610  28.209  24.225   2.309
40393W        W 8611  37.916  38.116  13.563
40394W        W 8612  33.437  11.704   3.194
40395W        W 8613  19.237   2.186  13.410
40396W        W 8614  32.305  24.157   4.060
40397W        W 8615  34.998   4.791  12.519
40398W        W 8616   3.395  10.772  13.899
40399W        W 8617  22.527  17.264  12.826
40400W        W 8618  38.530  44.409  10.672
40401W        W 8619  27.232   9.304   4.462
40402W        W 8620  30.391  38.910   0.251
40403W        W 8621  17.781  28.199  12.441
40404W        W 8622   1.847   0.562   2.694
40405W        W 8623   0.574  38.585  14.156
40406W        W 8624  15.839   8.975   2.262
40407W        W 8625  42.122  19.662   0.525
40408W        W 8626  39.335  34.091  12.986
40409W        W 8627  34.803   3.437   1.780
40410W        W 8628  36.960  40.999  11.615
40411W        W 8629  24.921  28.987   2.809
40412W        W 8630  42.559   7.889   4.648
40413W        W 8631  31.479  30.879   4.722
40414W        W 8632  34.192  12.197  14.339
40415W        W 8633  44.389  38.677  13.331
40416W        W 8634  44.396  11.735   5.047
40417W        W 8635   2.955  23.618   1.269
40418W        W 8636   3.578  37.420  13.402
40419W        W 8637   9.493  13.330   2.349
40420W        W 8638   9.360  30.425  12.040
40421W        W 8639  36.025  29.972  10.932
40422W        W 8640  38.434   6.704   0.949
40423W        W 8641   2.843  27.385   1.299
40424W        W 8642  22.138  29.168   3.807
40425W        W 8643  21.997  24.533  14.886
40426W        W 8644   4.703  19.381   0.862
40427W        W 8645  27.977  22.512  11.221
40428W        W 8646  30.572  33.498   0.781
40429W        W 8647  36.522  21.985   3.207
40430W        W 8648  24.253  19.093   3.183
40431W        W 8649  14.242  30.702   2.260
40432W        W 8650  36.089   6.185   0.354
40433W        W 8651   6.335  26.106  14.888
40434W        W 8652   8.878  15.663   1.432
40435W        W 8653  32.036   1.511  14.446
40436W        W 8654  18.357  14.920   2.000
40437W        W 8655   3.983  30.281   0.251
40438W        W 8656  28.866  26.152   4.219
40439W        W 8657  41.260  44.394  12.651
40440W        W 8658  25.083  29.052  14.401
40441W        W 8659  15.600  16.861   0.551
40442W        W 8660  23.710   1.790   0.500
40443W        W 8661  33.287  15.548   4.180
40444W        W 8662  28.616  28.791   2.013
40445W        W 8663   7.805  13.594  14.355
40446W        W 8664  42.772   4.785  10.710
40447W        W 8665   8.344   1.165  13.062
40448W        W 8666   8.927  43.945   2.849
40449W        W 8667  16.089  40.922  11.182
40450W        W 8668  26.221  40.544   3.116
40451W        W 8669  17.759  41.938   3.341
40452W        W 8670   7.785  21.288  11.924
40453W        W 8671  36.497  43.225   1.797
40454W        W 8672   6.985   0.452  14.775
40455W        W 8673   2.736  44.273  12.866
40456W        W 8674  22.970  37.792  11.172
40457W        W 8675  39.493   5.733   3.747
40458W        W 8676  35.361  40.811  14.350
40459W        W 8677  34.248   2.415   0.677
40460W        W 8678  29.160  11.683   0.656
40461W        W 8679  33.576  42.514  14.508
40462W        W 8680  28.593  18.553   0.867
40463W        W 8681  24.468  17.224   3.840
40464W        W 8682  25.953  12.739  12.519
40465W        W 8683  42.268   3.568  13.071
40466W        W 8684  31.575   8.808  14.257
40467W        W 8685  42.022  15.210   2.358
40468W        W 8686  11.884  19.515   2.269
40469W        W 8687  42.895  24.217   1.936
40470W        W 8688  13.113  34.340  11.534
40471W        W 8689  39.550  37.224   1.120
40472W        W 8690   9.623  40.582  14.748
40473W        W 8691  37.276  33.965   0.190
40474W        W 8692  30.635  21.124  14.448
40475W        W 8693   3.692  40.566  11.395
40476W        W 8694   9.904   2.756   4.078
40477W        W 8695  16.297  43.991   3.795
40478W        W 8696  31.191  30.756   0.857
40479W        W 8697  25.108  20.566   3.632
40480W        W 8698  10.077  43.284   4.158
40481W        W 8699  40.554  40.886  12.419
40482W        W 8700  13.966  20.814  11.948
40483W        W 8701   1.483  23.702  12.364
40484W        W 8702  20.735   8.434   2.447
40485W        W 8703  43.346  33.862  11.136
40486W        W 8704   3.785   3.604  11.444
40487W        W 8705  18.736   0.809   0.745
40488W        W 8706  25.049  34.154   2.724
40489W        W 8707  32.944  29.221  12.021
40490W        W 8708   3.864  33.114   4.511
40491W        W 8709  18.736  22.747  13.599
40492W        W 8710  31.569  36.544  10.463
40493W        W 8711  32.436  16.071   0.741
40494W        W 8712  28.483  39.162  11.983
40495W        W 8713  39.656  22.802  13.052
40496W        W 8714  23.890  20.973   2.304
40497W        W 8715  26.972  30.402  14.499
40498W        W 8716  38.976  22.048  13.231
40499W        W 8717   3.025  44.919   2.639
40500W        W 8718  15.066  31.858   3.198
40501W        W 8719   8.855  19.870  13.542
40502W        W 8720  43.944  10.217   3.875
40503W        W 8721   4.782  39.936  11.861
40504W        W 8722  18.536  25.105  14.837
40505W        W 8723  37.457  42.143   1.630
40506W        W 8724  41.522  15.539  13.455
40507W        W 8725   0.718   1.474  14.729
40508W        W 8726  35.429  12.343  12.397
40509W        W 8727  31.861  32.058   0.345
40510W        W 8728  38.107  42.969   4.610
40511W        W 8729  39.497   1.381   0.467
40512W        W 8730  41.385   7.191  12.188
40513W        W 8731   7.122  13.889  10.698
40514W        W 8732  12.474  35.644   4.407
40515W        W 8733  27.710   8.695  11.301
40516W        W 8734  34.400  39.672   4.889
40517W        W 8735  17.065  31.478   3.226
40518W        W 8736  33.603   7.792   3.245
40519W        W 8737  15.082   3.900   3.373
40520W        W 8738  30.918  13.351   1.950
40521W        W 8739  22.268  35.990   0.352
40522W        W 8740  26.729   9.685   2.805
40523W        W 8741   0.655  37.609   4.551
40524W        W 8742  12.978  27.466   2.671
40525W        W 8743  10.681  27.420  10.766
40526W        W 8744   7.383  19.149   4.575
40527W        W 8745  38.041  38.039   4.564
40528W        W 8746  35.173  29.652  12.823
40529W        W 8747  34.178  24.338  11.679
40530W        W 8748  28.813  19.793   2.360
40531W        W 8749   2.456  23.178   4.241
40532W        W 8750   9.791  44.554   1.253
40533W        W 8751  22.157   5.766   0.338
40534W        W 8752  29.419  33.848  14.889
40535W        W 8753  10.450  11.904  14.908
40536W        W 8754   2.356  22.127   1.917
40537W        W 8755  13.853  41.517  11.417
40538W        W 8756  15.610  23.228  12.182
40539W        W 8757  30.854  34.497   2.686
40540W        W 8758  41.009  24.254  12.439
40541W        W 8759   6.821  19.791   3.125
40542W        W 8760  16.183  34.997   3.641
40543W        W 8761  12.437  41.042   2.252
40544W        W 8762  36.730  33.377   0.614
40545W        W 8763  44.500  16.328   4.064
40546W        W 8764  25.536  22.389   2.240
40547W        W 8765  43.468   5.785   0.457
40548W        W 8766  42.995  22.030   0.817
40549W        W 8767  15.776  33.994  13.880
40550W        W 8768  18.549  10.351   0.240
40551W        W 8769  38.919  16.057   3.355
40552W        W 8770  42.580  35.182  10.730
40553W        W 8771  20.612  33.251  10.285
40554W        W 8772  20.062  18.646  12.002
40555W        W 8773  14.159  35.601  12.962
40556W        W 8774  43.314  13.054  11.563
40557W        W 8775  36.062   2.541   4.613
40558W        W 8776  15.599  27.387   2.882
40559W        W 8777  39.404  15.515   4.028
40560W        W 8778  27.422  29.466  12.967
40561W        W 8779  11.673  44.266   2.733
40562W        W 8780  26.207  21.701  13.444
40563W        W 8781   6.012   9.796  12.068
40564W        W 8782  28.666  14.908   3.452
40565W        W 8783  22.963  24.657  10.414
40566W        W 8784  14.036  19.484   0.210
40567W        W 8785  32.016   4.852   2.812
40568W        W 8786  24.142  16.173  13.834
40569W        W 8787  19.103  32.560   1.705
40570W        W 8788  37.055  36.337   2.244
40571W        W 8789  12.889   3.643   2.748
40572W        W 8790  12.661  40.206  14.830
40573W        W 8791  31.224  25.122   2.388
40574W        W 8792  41.481  40.203   3.278
40575W        W 8793  18.057  20.201   2.323
40576W        W 8794   2.349  14.271  12.559
40577W        W 8795  16.005  12.717  14.952
40578W        W 8796  33.334  11.822  14.774
40579W        W 8797  25.411  12.369   0.334
40580W        W 8798  15.604  44.112   2.347
40581W        W 8799  40.907  28.191   3.637
40582W        W 8800  30.009  37.631  10.344
40583W        W 8801  24.081   0.350  10.696
40584W        W 8802  37.021   2.538  14.283
40585W        W 8803  43.914   0.893  14.553
40586W        W 8804   6.751  21.513   2.368
40587W        W 8805  17.327   3.414  13.825
40588W        W 8806  24.621  10.201  13.033
40589W        W 8807  33.164  27.277   0.868
40590W        W 8808   8.119   4.385   1.796
40591W        W 8809  25.080  42.843   1.825
40592W        W 8810  26.008  31.666  11.299
40593W        W 8811   9.180  18.068   1.045
40594W        W 8812   1.877  19.860   0.320
40595W        W 8813  39.781  42.111   3.196
40596W        W 8814  41.915  26.490  10.744
40597W        W 8815  41.308  33.343  13.769
40598W        W 8816   0.880  32.513  11.506
40599W        W 8817  42.934  23.443   4.045
40600W        W 8818   9.024  38.355  11.645
40601W        W 8819  29.755  26.933  13.910
40602W        W 8820  23.126  19.490   4.210
40603W        W 8821  33.881  20.457  13.535
40604W        W 8822  21.447   8.343   0.602
40605W        W 8823  24.210  41.906  13.221
40606W        W 8824  14.793  42.851  13.526
40607W        W 8825  21.890   8.798  14.324
40608W        W 8826  37.371   9.968  12.403
40609W        W 8827  21.164  39.670   1.213
40610W        W 8828  36.435   4.478   0.797
40611W        W 8829  38.596   1.636  12.963
40612W        W 8830  24.748  24.079   2.237
40613W        W 8831  28.637  40.252   1.474
40614W        W 8832   8.258  30.017  14.271
40615W        W 8833   0.439  37.868   4.155
40616W        W 8834  41.283  15.822  13.850
40617W        W 8835  25.029   1.497   0.562
40618W        W 8836  13.090  11.277  13.380
40619W        W 8837   2.180  17.783   4.540
40620W        W 8838  42.337   0.331   1.427
40621W        W 8839  18.182  24.116   0.947
40622W        W 8840  44.874   5.429  11.407
40623W        W 8841   0.308  42.214  12.853
40624W        W 8842  26.773  22.586  13.440
40625W        W 8843  31.107  12.391   1.626
40626W        W 8844   7.952  43.638  12.158
40627W        W 8845  43.569   7.347   4.115
40628W        W 8846   4.498  28.499   4.054
40629W        W 8847  27.155  36.007   4.586
40630W        W 8848  12.085  19.334   1.268
40631W        W 8849   8.883   9.476   1.314
40632W        W 8850   7.796  41.126  14.982
40633W        W 8851  36.732  19.398  11.668
40634W        W 8852  13.626  22.988   2.350
40635W        W 8853  37.916   6.414  11.896
40636W        W 8854  35.625  42.419  10.893
40637W        W 8855  28.767   9.072   1.956
40638W        W 8856   7.789  25.963  10.764
40639W        W 8857  20.474  17.663  12.395
40640W        W 8858  17.362  27.592  13.946
40641W        W 8859  13.203  15.743  11.055
40642W        W 8860   9.723  31.376   2.320
40643W        W 8861  40.861  43.491   4.612
40644W        W 8862  23.675  27.184  14.148
40645W        W 8863  32.467  44.106  12.097
40646W        W 8864  35.154  37.029   1.408
40647W        W 8865  20.100  32.575   2.529
40648W        W 8866   0.574  30.851  12.489
40649W        W 8867   7.228  27.600   4.649
40650W        W 8868  33.091  13.413  12.027
40651W        W 8869   1.181  10.115   2.735
40652W        W 8870  42.983  38.799   0.384
40653W        W 8871  11.359  23.404   3.843
40654W        W 8872  41.054  30.060   4.927
40655W        W 8873   1.691  44.825  13.878
40656W        W 8874   8.053   7.855  12.549
40657W        W 8875  36.539  44.433   2.258
40658W        W 8876  43.391   2.905   2.199
40659W        W 8877  18.083  44.673  12.913
40660W        W 8878  10.262  15.670   1.358
40661W        W 8879  38.151  21.943  13.807
40662W        W 8880  25.001  14.031   3.165
40663W        W 8881  26.166  14.132   2.408
40664W        W 8882  24.751  27.076   0.423
40665W        W 8883  36.231  11.064   2.694
40666W        W 8884  10.435   6.904  12.020
40667W        W 8885  31.708   2.122   0.188
40668W        W 8886  12.181  44.147  14.912
40669W        W 8887  30.356  30.590  12.020
40670W        W 8888   8.190  28.534   3.024
40671W        W 8889  41.971  31.736   3.257
40672W        W 8890  37.468  25.967   1.299
40673W        W 8891  28.161  15.498  13.949
40674W        W 8892  26.373   2.477  12.190
40675W        W 8893  30.852  16.278   2.022
40676W        W 8894   8.629  21.637   1.295
40677W        W 8895  32.535  14.681  10.764
40678W        W 8896  14.126  19.382  11.218
40679W        W 8897   1.449   9.186   1.741
40680W        W 8898  23.079  18.534   3.726
40681W        W 8899  42.955  10.034   4.084
40682W        W 8900   2.360  42.358   0.896
40683W        W 8901  40.414   1.291  14.313
40684W        W 8902  34.974   2.814   1.078
40685W        W 8903   3.220   6.397  14.777
40686W        W 8904  11.070  16.301   0.810
40687W        W 8905   1.223  29.233  10.638
40688W        W 8906   3.886  33.722   0.853
40689W        W 8907  36.868  27.279   0.370
40690W        W 8908  22.478  29.502  11.523
40691W        W 8909  42.525  27.112  13.818
40692W        W 8910  19.424   9.738   4.186
40693W        W 8911  38.475  24.228  13.522
40694W        W 8912  29.861  44.979   3.269
40695W        W 8913   6.169  21.184   4.506
40696W        W 8914  29.055   3.337  10.197
40697W        W 8915   2.786  28.108  13.579
40698W        W 8916  39.243  18.054  13.965
40699W        W 8917  22.118  39.850  11.153
40700W        W 8918   1.842  44.426  11.325
40701W        W 8919  10.163  40.909   3.222
40702W        W 8920  20.833  27.214   0.181
40703W        W 8921  13.585   4.160  11.492
40704W        W 8922  25.236  34.450   4.238
40705W        W 8923  11.464   3.249  12.619
40706W        W 8924  35.914  15.421  13.986
40707W        W 8925  35.368  22.868   3.752
40708W        W 8926  24.518  27.535   3.171
40709W        W 8927  31.900   7.176   2.201
40710W        W 8928  27.225  34.510  10.769
40711W        W 8929  27.518  43.301  10.891
40712W        W 8930  18.155  43.011  13.974
40713W        W 8931  10.112  32.581  14.059
40714W        W 8932  27.622  15.122   0.278
40715W        W 8933   7.861  24.640  10.675
40716W        W 8934  20.801   0.189  11.151
40717W        W 8935   8.407  43.991   2.897
40718W        W 8936  17.524  40.366   2.356
40719W        W 8937  29.624   5.687  13.589
40720W        W 8938  41.768  42.970   0.018
40721W        W 8939  25.011   3.816   1.316
40722W        W 8940  23.441  33.063   3.211
40723W        W 8941  26.535  18.237   2.714
40724W        W 8942  43.262  41.382  12.640
40725W        W 8943   0.877  13.753   1.448
40726W        W 8944  15.663  22.825   4.088
40727W        W 8945  30.084  44.497   4.313
40728W        W 8946  39.957  36.464   3.232
40729W        W 8947  21.344  33.946  11.510
40730W        W 8948  30.218   8.288   4.196
40731W        W 8949  39.666  16.560  13.805
40732W        W 8950  33.010  13.580  14.997
40733W        W 8951  28.129  29.942  12.980
40734W        W 8952  26.117  35.384   3.800
40735W        W 8953   9.566  41.015   4.120
40736W        W 8954   6.395  10.294  14.774
40737W        W 8955  13.205   8.633  13.273
40738W        W 8956  40.356  32.056  12.393
40739W        W 8957  42.483  15.477   1.565
40740W        W 8958   2.388  19.613   0.048
40741W        W 8959  15.398  35.401   4.870
40742W        W 8960   3.899  21.238   0.487
40743W        W 8961  22.155  17.321  14.363
40744W        W 8962  26.117  10.651  13.862
40745W        W 8963   4.318  35.978   4.446
40746W        W 8964  33.046  13.719   1.420
40747W        W 8965   0.616   9.773  12.583
40748W        W 8966  41.829  34.639   1.165
40749W        W 8967   4.677   9.109   1.288
40750W        W 8968   9.746  24.717  11.111
40751W        W 8969  10.785  22.599  11.612
40752W        W 8970  30.121  10.140   1.343
40753W        W 8971  15.745  44.773  12.053
40754W        W 8972  33.031   5.673  14.404
40755W        W 8973  34.520   6.591  10.774
40756W        W 8974  10.712   0.332  10.820
40757W        W 8975   3.870  23.100   4.023
40758W        W 8976  14.566  19.923  12.499
40759W        W 8977   6.357   8.963  11.407
40760W        W 8978   3.734   1.999   1.829
40761W        W 8979  26.446  42.440   4.767
40762W        W 8980  25.146   4.068  14.439
40763W        W 8981  40.540  14.691  12.995
40764W        W 8982  39.013  34.843   4.407
40765W        W 8983  12.608   5.896   0.748
40766W        W 8984   3.523  10.152  11.017
40767W        W 8985  38.024   9.801   2.798
40768W        W 8986  31.385  31.444  14.974
40769W        W 8987  22.726   4.224  14.344
40770W        W 8988  16.975  33.679  12.215
40771W        W 8989   7.229  21.072   4.675
40772W        W 8990  32.352   6.913   4.621
40773W        W 8991  31.900  40.834  12.987
40774W        W 8992  10.319  21.184   0.683
40775W        W 8993   6.097  16.507   4.059
40776W        W 8994  26.748   3.319   3.147
40777W        W 8995  44.156  19.477   2.346
40778W        W 8996   0.422  39.278   0.914
40779W        W 8997   3.415  38.742   1.220
40780W        W 8998  15.277  33.978   4.834
40781W        W 8999   7.230  37.541  12.921
40782W        W 9000  15.549  35.388   0.148
40783W        W 9001  19.136  41.725   2.745
40784W        W 9002  16.490   9.405   3.235
40785W        W 9003  42.899  10.793   4.600
40786W        W 9004  12.202  15.542  13.020
40787W        W 9005  32.196  17.589  12.886
40788W        W 9006  27.569  34.885  12.816
40789W        W 9007   5.703   1.862   0.432
40790W        W 9008   9.771  24.139   1.406
40791W        W 9009  17.793  39.890   1.851
40792W        W 9010   0.403  44.588  14.092
40793W        W 9011   9.106  27.594   1.528
40794W        W 9012   9.377  39.982  13.445
40795W        W 9013  43.575   3.330   5.070
40796W        W 9014   4.456  16.743   2.214
40797W        W 9015  24.993  39.352   3.586
40798W        W 9016   4.845   8.233   4.148
40799W        W 9017  30.875  30.769   3.616
40800W        W 9018  44.966  38.888   0.392
40801W        W 9019   9.063  15.166  11.084
40802W        W 9020  44.644  13.832  10.642
40803W        W 9021  18.481  32.780  14.930
40804W        W 9022  44.602  43.391   3.612
40805W        W 9023  28.191  44.934  11.591
40806W        W 9024  14.642  26.452   0.803
40807W        W 9025   5.673   2.910   4.121
40808W        W 9026  23.643  37.351   4.780
40809W        W 9027  37.580  44.438  10.649
40810W        W 9028  37.867  39.683   4.967
40811W        W 9029  36.491  16.927  12.091
40812W        W 9030  36.875  27.503  13.623
40813W        W 9031  41.362  22.045   1.338
40814W        W 9032   4.905  20.723   3.243
40815W        W 9033   6.843  31.592  10.963
40816W        W 9034  14.047   0.684  14.081
40817W        W 9035  39.974  31.100   3.396
40818W        W 9036  14.663  38.446  11.126
40819W        W 9037  39.042  10.186  11.547
40820W        W 9038  17.254  38.920   2.196
40821W        W 9039  26.459  29.495   2.242
40822W        W 9040  33.940  26.928   3.680
40823W        W 9041  29.281  42.923   3.744
40824W        W 9042  13.612  34.821   3.803
40825W        W 9043  43.964  43.574   4.842
40826W        W 9044  26.092   1.633  12.446
40827W        W 9045  37.135   2.355  13.226
40828W        W 9046  23.257  33.090  13.045
40829W        W 9047  29.096  23.639   1.426
40830W        W 9048  20.703   2.512  13.924
40831W        W 9049  29.641  24.739  13.376
40832W        W 9050  37.995  38.874  12.510
40833W        W 9051  17.931  44.756  10.408
40834W        W 9052  27.407  27.439   4.699
40835W        W 9053   5.507  41.255  14.408
40836W        W 9054  28.463   3.860  14.796
40837W        W 9055   2.863  33.364   3.156
40838W        W 9056  20.120  39.964  13.400
40839W        W 9057  16.480   9.294   2.307
40840W        W 9058   9.329  16.193   2.765
40841W        W 9059  30.835  37.589   2.441
40842W        W 9060  19.149  27.033  13.888
40843W        W 9061  33.366   2.230   1.816
40844W        W 9062  17.309   6.011   4.993
40845W        W 9063  38.085  13.286  14.032
40846W        W 9064  33.108   2.318   4.833
40847W        W 9065   6.436   5.540  11.519
40848W        W 9066  24.231  39.158  14.410
40849W        W 9067   1.443  29.205   4.904
40850W        W 9068  13.286   6.925   0.316
40851W        W 9069  28.600  30.890   1.293
40852W        W 9070  30.877   9.644  13.607
40853W        W 9071  24.121   1.322   0.792
40854W        W 9072  17.356   7.165   2.772
40855W        W 9073  29.966  40.742  14.946
40856W        W 9074  41.001   4.960   5.136
40857W        W 9075   4.161  36.563   4.170
40858W        W 9076   1.210   2.688  12.040
40859W        W 9077   7.827  28.192   3.137
40860W        W 9078  33.639  31.393   3.218
40861W        W 9079  17.159   8.849   4.157
40862W        W 9080   8.576  42.078   0.781
40863W        W 9081  27.546  30.419   2.847
40864W        W 9082  35.075  32.172   2.640
40865W        W 9083   7.366  33.641   2.344
40866W        W 9084   3.988  30.012   4.094
40867W        W 9085  37.099  36.183   4.583
40868W        W 9086   4.317  10.721   3.410
40869W        W 9087  25.995  42.611   1.026
40870W        W 9088  15.571   8.884  11.143
40871W        W 9089  17.759  44.411   5.039
40872W        W 9090  17.089   3.338  11.955
40873W        W 9091  33.456  10.945   0.428
40874W        W 9092   9.370  29.126   3.896
40875W        W 9093   4.179   3.004   4.383
40876W        W 9094  44.342   8.290   3.357
40877W        W 9095   0.768  43.555  13.001
40878W        W 9096  28.117   2.945  11.590
40879W        W 9097   0.293  10.162   4.338
40880W        W 9098  14.256  44.610   0.729
40881W        W 9099   8.586  20.631   0.465
40882W        W 9100  18.846  38.501  10.503
40883W        W 9101  26.001  20.861   5.029
40884W        W 9102  29.762  21.650  11.033
40885W        W 9103  11.375  13.433   2.223
40886W        W 9104  42.167  35.504   2.274
40887W        W 9105  40.077   1.843   0.943
40888W        W 9106  23.753  25.651  13.060
40889W        W 9107   1.535  34.646  13.341
40890W        W 9108   0.346   8.569   4.943
40891W        W 9109   3.858  29.339  12.692
40892W        W 9110  18.459  30.145   1.704
40893W        W 9111   6.310  11.580  12.078
40894W        W 9112  37.132  14.156  11.029
40895W        W 9113  19.620   9.673   2.806
40896W        W 9114   3.699  20.061  12.375
40897W        W 9115   8.411   1.450   0.243
40898W        W 9116  24.783   2.036   2.689
40899W        W 9117   5.540  21.696   2.746
40900W        W 9118  41.424   5.290  13.553
40901W        W 9119  16.528   2.482   3.187
40902W        W 9120   8.238  32.273  12.060
40903W        W 9121  19.486   7.251  12.493
40904W        W 9122  27.119  42.870  12.838
40905W        W 9123  33.545  26.615  10.988
40906W        W 9124  22.717  10.223   2.846
40907W        W 9125   8.820  44.720   1.657
40908W        W 9126  31.171  12.166  14.328
40909W        W 9127  20.637  26.706   4.541
40910W        W 9128  35.441  20.248   2.237
40911W        W 9129  24.239  10.681   4.553
40912W        W 9130  40.821  16.323  12.469
40913W        W 9131  36.459  10.229   0.296
40914W        W 9132   5.921  19.638   0.109
40915W        W 9133  24.001   3.370  14.780
40916W        W 9134  21.116  12.256   4.643
40917W        W 9135  30.179  13.251   0.956
40918W        W 9136  44.020   8.852   3.939
40919W        W 9137  25.236  25.678  11.126
40920W        W 9138  16.811  36.169   4.183
40921W        W 9139  20.669  12.172  11.877
40922W        W 9140  34.417  42.279   3.168
40923W        W 9141  14.490  17.198  12.077
40924W        W 9142  40.720  10.484  10.966
40925W        W 9143  14.246   0.440  12.583
40926W        W 9144  30.610  18.974  13.395
40927W        W 9145   1.398  21.067   2.823
40928W        W 9146  14.358  22.280   0.349
40929W        W 9147  22.045  16.546  13.002
40930W        W 9148  40.057  43.410   2.124
40931W        W 9149  22.490   7.843  14.400
40932W        W 9150  17.718  37.880   4.585
40933W        W 9151  38.513   3.281   1.841
40934W        W 9152   9.098  10.668   2.658
40935W        W 9153   6.294  10.082  11.130
40936W        W 9154   9.796  12.374   3.632
40937W        W 9155   2.237  42.957   3.188
40938W        W 9156  39.433  40.328   1.922
40939W        W 9157  35.457  18.273   4.659
40940W        W 9158  13.402  18.171   3.251
40941W        W 9159  30.109  43.198  14.808
40942W        W 9160  33.223   7.215   3.159
40943W        W 9161  33.405   6.218  13.054
40944W        W 9162  28.056  13.532   9.650
40945W        W 9163   5.173  30.229  14.291
40946W        W 9164  12.781  17.541   3.368
40947W        W 9165   6.433  29.690  13.948
40948W        W 9166  41.292  26.114   1.717
40949W        W 9167  22.048  10.385  11.930
40950W        W 9168  13.321  42.718  10.928
40951W        W 9169  11.390  44.410  14.384
40952W        W 9170   6.228   0.884  10.650
40953W        W 9171  36.769   5.782   2.710
40954W        W 9172   2.011  27.088  11.607
40955W        W 9173  42.928  17.327  11.582
40956W        W 9174   6.922  22.714   2.946
40957W        W 9175   1.532  34.083   1.716
40958W        W 9176  33.225  15.828  10.869
40959W        W 9177   2.796  12.596   2.748
40960W        W 9178  23.739  42.353  14.997
40961W        W 9179  26.535  14.995  11.508
40962W        W 9180  35.945  23.536  11.944
40963W        W 9181  26.595  34.607   0.456
40964W        W 9182  40.246  29.883   1.685
40965W        W 9183  22.812   1.850   1.461
40966W        W 9184   9.366  26.917   2.327
40967W        W 9185  41.486   4.525   0.769
40968W        W 9186  24.351  35.011  14.008
40969W        W 9187  16.309   9.335  13.856
40970W        W 9188   8.027  26.266  11.096
40971W        W 9189  12.114  18.170   0.535
40972W        W 9190  17.123  24.667  13.028
40973W        W 9191  20.739  40.052   3.402
40974W        W 9192  29.451  38.528  12.420
40975W        W 9193   7.837  16.287   3.924
40976W        W 9194  41.046  10.244  14.007
40977W        W 9195  24.546  41.452  10.740
40978W        W 9196  17.513  20.571   0.281
40979W        W 9197  31.383   5.355   1.437
40980W        W 9198  22.822  12.561  13.300
40981W        W 9199  24.659  35.898   1.016
40982W        W 9200  31.060  26.245   4.011
40983W        W 9201  37.007  23.658  14.480
40984W        W 9202  23.342  42.031   3.564
40985W        W 9203  15.076  16.191   1.498
40986W        W 9204  15.655   4.770  12.978
40987W        W 9205  17.203  31.834  14.193
40988W        W 9206  14.201  32.021  11.185
40989W        W 9207  24.563  18.026  12.650
40990W        W 9208  15.554  22.456   0.852
40991W        W 9209  25.711  18.103  12.014
40992W        W 9210  24.544  37.723   0.333
40993W        W 9211  14.128   5.168   0.826
40994W        W 9212  27.061  39.023  13.052
40995W        W 9213  32.435   5.424  11.152
40996W        W 9214   6.362  21.732  11.472
40997W        W 9215  14.046  32.525  14.723
40998W        W 9216   4.933  12.096   4.120
40999W        W 9217  42.223   8.332  14.854
41000W        W 9218  24.004   6.243   1.466
41001W        W 9219  26.914   2.358   4.513
41002W        W 9220  16.136  10.043  11.201
41003W        W 9221  40.691   3.478  11.230
41004W        W 9222  18.103  24.449  13.013
41005W        W 9223  26.939  29.203   4.579
41006W        W 9224  13.585  20.167  11.204
41007W        W 9225  25.420  40.809  12.035
41008W        W 9226  37.520  16.632   0.465
41009W        W 9227  28.197  42.705  11.110
41010W        W 9228   3.138   1.128   5.164
41011W        W 9229  25.102  42.127   0.965
41012W        W 9230  22.137  20.958   1.909
41013W        W 9231  37.042  38.354  11.494
41014W        W 9232  26.740  12.290   1.446
41015W        W 9233  41.544  19.538   5.008
41016W        W 9234  17.648   1.068   0.654
41017W        W 9235  33.128  22.059  12.568
41018W        W 9236   0.753   1.553   0.223
41019W        W 9237  28.136  43.259  12.011
41020W        W 9238   4.387  32.262   3.155
41021W        W 9239   5.341  38.924  10.921
41022W        W 9240   1.001  23.243   0.367
41023W        W 9241   8.362  26.945   0.418
41024W        W 9242  44.170  25.078  14.948
41025W        W 9243   8.856  10.175  12.474
41026W        W 9244  43.097  22.422  13.935
41027W        W 9245   7.709   7.942  14.873
41028W        W 9246  35.127  31.757   4.207
41029W        W 9247  17.847  27.902  11.442
41030W        W 9248   1.056  15.219   2.377
41031W        W 9249  22.809  39.887   0.931
41032W        W 9250  23.430  29.839  13.246
41033W        W 9251   5.485  16.296   5.364
41034W        W 9252   2.007   8.227  12.159
41035W        W 9253  33.871  38.485  12.945
41036W        W 9254  19.149  36.790   1.404
41037W        W 9255  18.181  12.888  13.928
41038W        W 9256  41.197   1.559  11.609
41039W        W 9257  23.226   6.505  12.848
41040W        W 9258  20.562   1.701  14.271
41041W        W 9259  34.919  22.426  13.555
41042W        W 9260  27.580  23.663   3.671
41043W        W 9261  24.265  41.563  12.208
41044W        W 9262  32.235  36.119  14.880
41045W        W 9263  10.848  15.848   0.832
41046W        W 9264  41.298  23.103   1.343
41047W        W 9265  28.599   8.275   2.136
41048W        W 9266  40.757  37.268   2.170
41049W        W 9267   7.476   3.216  14.511
41050W        W 9268   5.682  44.234   4.422
41051W        W 9269  42.786   9.179   4.054
41052W        W 9270  24.155  40.921  13.390
41053W        W 9271  15.485  36.457   1.005
41054W        W 9272  26.969  14.551   2.763
41055W        W 9273  17.317  37.458   4.636
41056W        W 9274  40.333  10.674  12.407
41057W        W 9275  31.651  14.207   0.268
41058W        W 9276  31.764  43.792  11.417
41059W        W 9277  25.246  40.665   1.932
41060W        W 9278  26.958  29.038  14.333
41061W        W 9279  18.077   9.093  14.336
41062W        W 9280  25.720   3.309  13.691
41063W        W 9281  23.619   0.151  10.403
41064W        W 9282   2.765  27.405   4.303
41065W        W 9283  33.931  34.309  11.130
41066W        W 9284  43.812  17.925  11.520
41067W        W 9285   5.413  26.478  11.436
41068W        W 9286   9.688  36.386  13.016
41069W        W 9287  13.824  39.861   1.136
41070W        W 9288   9.111  35.454  14.024
41071W        W 9289   2.331   5.756  14.727
41072W        W 9290   5.850   5.340   4.690
41073W        W 9291  19.265  22.532  12.510
41074W        W 9292  36.045  32.568  14.138
41075W        W 9293   7.210  44.829  11.536
41076W        W 9294  36.104  12.315   3.193
41077W        W 9295   6.353  27.679  13.777
41078W        W 9296   9.578  40.762  13.843
41079W        W 9297   9.390   8.637  13.380
41080W        W 9298   3.251   9.669  11.044
41081W        W 9299   1.703   5.693  11.516
41082W        W 9300  31.382  10.718  13.645
41083W        W 9301  21.172   2.873  13.986
41084W        W 9302  26.645   7.501   2.794
41085W        W 9303  24.302   1.114   3.576
41086W        W 9304  21.494  15.896  12.048
41087W        W 9305  30.683   2.187  12.502
41088W        W 9306  35.258   9.666   4.388
41089W        W 9307  35.074  19.556   3.244
41090W        W 9308  43.298  10.061  12.436
41091W        W 9309   3.936  44.384   4.595
41092W        W 9310  44.431  30.749   1.396
41093W        W 9311  37.692  15.759   1.811
41094W        W 9312  24.452  35.284  13.578
41095W        W 9313  39.954  43.621   4.107
41096W        W 9314  30.691  34.800  12.365
41097W        W 9315  28.410  16.903   5.499
41098W        W 9316  27.523  44.687   1.665
41099W        W 9317  22.103  13.322   2.719
41100W        W 9318  44.939  44.727   0.246
41101W        W 9319  38.372  27.020   0.006
41102W        W 9320   0.272  16.655   4.623
41103W        W 9321   6.896  14.000   0.841
41104W        W 9322  37.160  24.014  10.381
41105W        W 9323  17.184  40.541   4.531
41106W        W 9324  19.197  27.143   0.092
41107W        W 9325   2.651  39.035  14.256
41108W        W 9326  17.068  41.380  14.770
41109W        W 9327  24.232  22.824  10.721
41110W        W 9328   1.228  40.850  13.474
41111W        W 9329  16.117   4.683  13.471
41112W        W 9330   4.858   5.365  14.844
41113W        W 9331  17.290  38.322   1.780
41114W        W 9332  36.482  25.184  11.384
41115W        W 9333  31.938  19.334  11.547
41116W        W 9334   4.770  19.468  11.516
41117W        W 9335  38.413  32.503   2.767
41118W        W 9336  38.020   6.607   4.124
41119W        W 9337  24.471   7.107  11.443
41120W        W 9338   4.759  38.932  12.229
41121W        W 9339  32.817  37.518   1.483
41122W        W 9340  38.793   3.344  11.610
41123W        W 9341  25.113  44.206  12.754
41124W        W 9342   1.484   6.878   3.346
41125W        W 9343  27.177  21.921  12.852
41126W        W 9344  40.931  35.931  11.142
41127W        W 9345  17.121  16.150   2.129
41128W        W 9346  30.569   5.836   3.618
41129W        W 9347  28.732  12.320  13.408
41130W        W 9348  24.779  40.873   1.751
41131W        W 9349   3.974  20.622  10.544
41132W        W 9350  35.033   4.225  10.530
41133W        W 9351  12.645   6.329   1.924
41134W        W 9352  17.202  34.215   2.922
41135W        W 9353  30.699   9.605   3.504
41136W        W 9354  24.004  13.843   3.589
41137W        W 9355   8.603  18.150  13.585
41138W        W 9356   2.519  17.771  11.245
41139W        W 9357  36.484  30.943  10.737
41140W        W 9358   9.772  36.379  12.126
41141W        W 9359   4.322   7.775  11.624
41142W        W 9360  19.760  31.635  14.192
41143W        W 9361  44.523  29.686  14.479
41144W        W 9362   6.995  14.582  13.456
41145W        W 9363  24.788  17.643   2.029
41146W        W 9364  25.794   2.264  10.953
41147W        W 9365  27.533  34.056  11.579
41148W        W 9366  31.963  15.535   4.904
41149W        W 9367   6.642  33.009   4.121
41150W        W 9368  12.504  38.399   4.346
41151W        W 9369   9.605  29.170  12.421
41152W        W 9370  43.781  14.004   2.108
41153W        W 9371  14.186  27.134   1.864
41154W        W 9372   0.492  40.506  12.106
41155W        W 9373  43.053   2.321  14.597
41156W        W 9374   6.279  42.908  12.593
41157W        W 9375  41.778   5.515   0.849
41158W        W 9376  32.352  38.716  11.169
41159W        W 9377  33.923  30.051  10.861
41160W        W 9378  18.597  38.864   0.527
41161W        W 9379  42.427   7.965  11.306
41162W        W 9380  29.462   1.181  11.576
41163W        W 9381  11.163   7.070   0.722
41164W        W 9382   4.939  30.971  14.871
41165W        W 9383  11.609  13.904   2.291
41166W        W 9384  21.488  36.073  12.939
41167W        W 9385  29.603  23.479  11.495
41168W        W 9386  18.652  30.613  10.650
41169W        W 9387  21.291  25.562   4.979
41170W        W 9388  10.268  36.080   1.963
41171W        W 9389  40.303  30.846   0.741
41172W        W 9390  25.619  13.585  10.312
41173W        W 9391   3.693  18.188   2.245
41174W        W 9392  10.115   6.250   1.839
41175W        W 9393   7.242   6.991   0.442
41176W        W 9394  23.166  31.532   3.289
41177W        W 9395  37.962  44.485   4.186
41178W        W 9396   1.448  18.991   3.988
41179W        W 9397  11.463  13.748   1.781
41180W        W 9398  32.964  17.077   2.966
41181W        W 9399  30.911   6.898  11.564
41182W        W 9400  16.644  41.623   2.195
41183W        W 9401  39.487  43.467  12.516
41184W        W 9402  28.190  14.383  12.035
41185W        W 9403  16.126   1.683  11.676
41186W        W 9404  11.533  39.397  12.509
41187W        W 9405   8.438  34.916   2.460
41188W        W 9406  10.780   0.953  11.919
41189W        W 9407  20.995   7.482  10.652
41190W        W 9408  24.943  42.499   3.154
41191W        W 9409  30.646  24.489   1.414
41192W        W 9410  32.130  31.688   4.762
41193W        W 9411   6.328  15.762   4.470
41194W        W 9412  26.642  27.091  11.494
41195W        W 9413   0.259  13.710   2.794
41196W        W 9414  19.187  18.052   4.196
41197W        W 9415  13.198   5.677   3.648
41198W        W 9416  28.439   9.807   3.168
41199W        W 9417  43.040  37.916   4.106
41200W        W 9418  37.986  17.586   0.349
41201W        W 9419   9.108  43.749  14.447
41202W        W 9420  11.799  43.014   1.395
41203W        W 9421  24.959  16.631   0.254
41204W        W 9422  35.282  39.755   2.255
41205W        W 9423  17.281  35.745   0.249
41206W        W 9424  15.642  30.521  12.374
41207W        W 9425  29.692   1.900   1.488
41208W        W 9426  35.284  34.924   4.937
41209W        W 9427   5.309  22.302  13.863
41210W        W 9428  36.834  41.937   1.339
41211W        W 9429   4.718  27.878   4.565
41212W        W 9430  10.665  14.726  14.426
41213W        W 9431   2.793  21.046   2.397
41214W        W 9432   3.710   2.921  13.378
41215W        W 9433  31.909   3.207   0.903
41216W        W 9434  22.521  18.348   4.535
41217W        W 9435  39.081  41.641   1.836
41218W        W 9436  20.625  27.669   4.112
41219W        W 9437  19.716  29.447   4.528
41220W        W 9438  18.493  44.890   2.006
41221W        W 9439  39.766   7.862  13.939
41222W        W 9440  33.972  24.576  10.399
41223W        W 9441  43.961  14.892   2.002
41224W        W 9442  42.984  23.348   4.550
41225W        W 9443   5.817  16.665   9.785
41226W        W 9444   1.286   7.192   0.885
41227W        W 9445  12.713  33.596  10.670
41228W        W 9446  44.365  39.478  11.970
41229W        W 9447  12.749  10.317   3.263
41230W        W 9448  19.799  20.674   2.131
41231W        W 9449  25.019   1.880  13.849
41232W        W 9450  23.994  21.289  11.167
41233W        W 9451  32.344  11.375   1.358
41234W        W 9452  26.006  42.556   0.525
41235W        W 9453  42.753   3.804   2.111
41236W        W 9454   4.661  44.048   1.847
41237W        W 9455  20.615  41.979  13.183
41238W        W 9456   9.850  17.984  11.194
41239W        W 9457  41.075  31.564   2.305
41240W        W 9458  12.620   0.316   1.003
41241W        W 9459   8.934   6.254   0.304
41242W        W 9460   5.289   3.023   2.387
41243W        W 9461  32.940  35.499   3.671
41244W        W 9462  40.337  44.475  11.082
41245W        W 9463  41.130  42.365   4.101
41246W        W 9464  29.156   1.762   0.677
41247W        W 9465  15.503  15.500  11.966
41248W        W 9466  44.808  12.585  11.480
41249W        W 9467  15.522  16.282  11.142
41250W        W 9468  35.928   9.643   4.219
41251W        W 9469  41.982  10.105  14.833
41252W        W 9470   0.692   0.710  10.606
41253W        W 9471  12.767  34.673   2.795
41254W        W 9472  39.007  19.813  14.325
41255W        W 9473  29.892  44.359  11.716
41256W        W 9474  29.415  24.089  12.094
41257W        W 9475  37.899   2.850   2.264
41258W        W 9476   4.011  27.105  12.302
41259W        W 9477  12.372   0.493   1.980
41260W        W 9478  44.282  26.689  13.406
41261W        W 9479   4.913  36.425  12.044
41262W        W 9480   3.461  38.590  12.960
41263W        W 9481  40.839   0.330   3.713
41264W        W 9482  41.627  43.941  12.050
41265W        W 9483  16.106  38.387   1.241
41266W        W 9484  33.674  14.322   0.499
41267W        W 9485  21.691  33.919   2.701
41268W        W 9486  30.571  12.476  13.889
41269W        W 9487  19.765   1.323  11.235
41270W        W 9488  32.311  12.339  13.309
41271W        W 9489  11.623  23.594  14.506
41272W        W 9490  17.004  26.388  13.430
41273W        W 9491  42.014   7.938  12.560
41274W        W 9492   0.714   6.945  13.330
41275W        W 9493  29.013  16.683   1.814
41276W        W 9494   4.872  39.838   4.814
41277W        W 9495   9.525  15.175  10.789
41278W        W 9496  35.883   1.934  10.710
41279W        W 9497  40.997   7.384   4.559
41280W        W 9498   6.769  26.155   1.642
41281W        W 9499  18.692  44.477   4.919
41282W        W 9500  26.996  28.672   0.192
41283W        W 9501  18.235   7.182   3.621
41284W        W 9502  21.672  41.075  13.634
41285W        W 9503  39.029  39.022  11.399
41286W        W 9504  22.118   2.470  14.075
41287W        W 9505  16.644  25.262   1.077
41288W        W 9506  17.625  26.449   4.095
41289W        W 9507   7.408  31.313   1.687
41290W        W 9508  25.557  29.649   3.603
41291W        W 9509  27.509  38.411  11.205
41292W        W 9510  10.197   6.190   4.060
41293W        W 9511  13.171  26.480  13.032
41294W        W 9512  14.526  37.497  13.664
41295W        W 9513  36.341  21.504  13.962
41296W        W 9514  36.872  34.170  14.908
41297W        W 9515   6.757  37.130  10.434
41298W        W 9516  31.175  28.412  14.821
41299W        W 9517  42.432  29.439  11.243
41300W        W 9518  16.003  13.809  11.189
41301W        W 9519  41.611  36.596   2.281
41302W        W 9520  14.040   6.973   2.767
41303W        W 9521  14.755  26.301  11.040
41304W        W 9522  36.239  26.675   0.989
41305W        W 9523  31.051  32.676  12.030
41306W        W 9524  29.644  27.077  10.523
41307W        W 9525  20.678   8.888  14.785
41308W        W 9526  41.452  26.135   1.212
41309W        W 9527  32.072   0.940   3.082
41310W        W 9528  21.270  31.948  12.083
41311W        W 9529  10.095  32.960  12.399
41312W        W 9530  12.108  20.165   4.009
41313W        W 9531  28.234  25.313  10.562
41314W        W 9532  19.179  25.063  13.735
41315W        W 9533  22.105  33.846   1.273
41316W        W 9534  43.998   8.685   3.331
41317W        W 9535  15.952  15.395   3.676
41318W        W 9536   9.478   3.358   2.370
41319W        W 9537  35.523  41.500  10.798
41320W        W 9538   2.905  31.657   4.659
41321W        W 9539  12.183   0.785  12.609
41322W        W 9540  19.357   7.794   4.282
41323W        W 9541  12.719  22.456   3.224
41324W        W 9542  32.452   9.188   3.886
41325W        W 9543  24.075  35.483  13.915
41326W        W 9544  35.991  13.363   4.303
41327W        W 9545  24.828  42.183  11.875
41328W        W 9546   2.273  25.514   3.760
41329W        W 9547  27.345   8.192   3.373
41330W        W 9548   8.281  17.765  14.300
41331W        W 9549   2.422  32.839   1.480
41332W        W 9550  27.748   3.969  12.031
41333W        W 9551  32.007  15.190   0.992
41334W        W 9552  29.830  42.811   2.928
41335W        W 9553  38.065  19.864   1.490
41336W        W 9554  10.291  42.832  13.141
41337W        W 9555   6.881  15.343   3.989
41338W        W 9556  25.188   5.537   0.867
41339W        W 9557  24.290   0.801   3.189
41340W        W 9558   1.829  41.358  10.845
41341W        W 9559  18.223  31.718  13.538
41342W        W 9560  33.653   0.177  12.944
41343W        W 9561   9.608  10.787  13.346
41344W        W 9562  25.475  33.685   3.739
41345W        W 9563  18.975  23.911  11.121
41346W        W 9564  36.989  36.465   3.381
41347W        W 9565  20.362  40.404   3.558
41348W        W 9566  19.013  41.360  11.923
41349W        W 9567  10.028  14.320  13.848
41350W        W 9568  42.831  36.277  11.983
41351W        W 9569  32.820  35.750   3.208
41352W        W 9570  37.716  18.245  10.864
41353W        W 9571  28.150   5.956   2.926
41354W        W 9572   4.232  13.232  13.572
41355W        W 9573   8.697  31.413  11.227
41356W        W 9574  28.688  42.034   3.648
41357W        W 9575  27.342  26.494   0.657
41358W        W 9576  41.915  37.483   4.102
41359W        W 9577  27.954  35.538  14.701
41360W        W 9578  38.295   9.658   0.890
41361W        W 9579   6.613  18.089   2.689
41362W        W 9580  14.783   7.692   0.029
41363W        W 9581  40.691  27.608  14.948
41364W        W 9582   4.929  42.692   4.625
41365W        W 9583   4.656  40.016   2.741
41366W        W 9584   8.782  15.375   4.187
41367W        W 9585   6.326  34.745   2.781
41368W        W 9586  32.782  31.982   0.476
41369W        W 9587  21.669  15.869  10.268
41370W        W 9588  21.802  39.111   4.594
41371W        W 9589   1.205  13.714   3.779
41372W        W 9590  15.988  12.621   3.251
41373W        W 9591   6.346  18.286  12.449
41374W        W 9592   2.980  12.560  13.271
41375W        W 9593   9.185   3.804  10.591
41376W        W 9594  34.673  25.553   0.924
41377W        W 9595  19.168  42.058  13.867
41378W        W 9596  40.569  16.182  14.146
41379W        W 9597   3.985  23.652   4.645
41380W        W 9598  40.060   7.009  14.583
41381W        W 9599  29.535  18.088  11.594
41382W        W 9600  18.137   1.143  11.821
41383W        W 9601  34.968   8.729  13.395
41384W        W 9602  33.765  37.499  13.695
41385W        W 9603  30.086  39.130  11.388
41386W        W 9604   2.635  42.713   2.296
41387W        W 9605  27.370   3.386  14.027
41388W        W 9606  23.068  40.816   4.379
41389W        W 9607   1.421  12.012   0.791
41390W        W 9608  26.553  28.980  14.019
41391W        W 9609   0.773  25.701  11.111
41392W        W 9610  13.246  12.352   0.517
41393W        W 9611  27.081  14.680   1.839
41394W        W 9612  31.033   9.101  10.917
41395W        W 9613   6.367   5.333   3.528
41396W        W 9614  29.512  27.715   2.728
41397W        W 9615  40.815  15.783   1.266
41398W        W 9616  32.409  36.148   2.703
41399W        W 9617  28.967   2.777   2.829
41400W        W 9618  29.450  10.738   4.533
41401W        W 9619  35.024  23.195  12.894
41402W        W 9620  37.465  33.545  13.493
41403W        W 9621  14.501  42.269  14.512
41404W        W 9622  18.489  22.493   3.694
41405W        W 9623  41.092  10.004  12.086
41406W        W 9624   3.844   7.574   2.083
41407W        W 9625  43.868  32.910  13.835
41408W        W 9626  36.290  14.831  14.295
41409W        W 9627  28.168  26.419   1.874
41410W        W 9628  38.570   1.353  10.741
41411W        W 9629   3.736   2.490  12.977
41412W        W 9630  14.786  36.235  10.086
41413W        W 9631  18.644  16.591   0.425
41414W        W 9632  26.599  40.082   1.786
41415W        W 9633  28.185  41.454  12.008
41416W        W 9634  32.082  41.209  12.033
41417W        W 9635  22.041  12.448   4.730
41418W        W 9636  16.247  22.530  13.561
41419W        W 9637  41.873  20.173  14.488
41420W        W 9638   1.460  36.890  13.497
41421W        W 9639  21.769  24.086  13.415
41422W        W 9640   0.296  38.936  13.000
41423W        W 9641   7.507  41.295  12.798
41424W        W 9642  13.236  38.438  13.455
41425W        W 9643  20.979  25.859   0.927
41426W        W 9644  21.504  12.798   1.301
41427W        W 9645  40.612  11.447   1.691
41428W        W 9646   5.752  26.141  10.638
41429W        W 9647   7.188  24.837   1.317
41430W        W 9648   7.799  26.429   3.708
41431W        W 9649  22.285  32.622  12.580
41432W        W 9650  38.310   0.382  13.482
41433W        W 9651  44.217  43.372  13.703
41434W        W 9652  18.944   8.477  14.571
41435W        W 9653  38.712  31.565  11.973
41436W        W 9654   7.893  11.248   2.627
41437W        W 9655   5.753   8.944   2.757
41438W        W 9656   4.821   2.982   0.991
41439W        W 9657  36.003  44.825  14.702
41440W        W 9658  42.259   4.247  11.100
41441W        W 9659  18.288  33.060  13.459
41442W        W 9660   9.619  14.040  12.915
41443W        W 9661  28.552  44.492   2.595
41444W        W 9662  38.347  15.828   0.986
41445W        W 9663  34.995   5.740  11.657
41446W        W 9664  23.240  12.619   1.718
41447W        W 9665   9.858  44.868  10.455
41448W        W 9666  29.490  37.133  14.413
41449W        W 9667  29.541   8.628   0.432
41450W        W 9668  25.916  36.619   4.219
41451W        W 9669  39.815   0.376  13.461
41452W        W 9670  17.590  32.909   2.430
41453W        W 9671   6.852  28.530  12.159
41454W        W 9672  42.865  23.195  11.924
41455W        W 9673  27.835  27.440  12.450
41456W        W 9674  21.434  20.762  11.489
41457W        W 9675  32.559  37.902   4.232
41458W        W 9676  22.301  18.210  11.712
41459W        W 9677  20.489  37.125   4.149
41460W        W 9678  33.346  24.651  12.612
41461W        W 9679  37.513   0.036   2.762
41462W        W 9680   7.963  14.775   4.167
41463W        W 9681  22.732  19.009   1.800
41464W        W 9682  28.146  35.009   0.999
41465W        W 9683  27.737   7.587  12.311
41466W        W 9684  39.016   0.188   3.659
41467W        W 9685  18.137   2.345  12.225
41468W        W 9686  34.990  29.759   1.678
41469W        W 9687  40.053  15.160  11.382
41470W        W 9688  44.693   9.828  14.021
41471W        W 9689  27.483  15.556   1.422
41472W        W 9690  22.150  12.099   0.327
41473W        W 9691  28.899  43.980  11.091
41474W        W 9692  44.513  10.174  12.774
41475W        W 9693  20.716  13.583   4.503
41476W        W 9694  37.433  34.653   4.123
41477W        W 9695  18.585   6.303   1.660
41478W        W 9696  33.140   8.801   4.584
41479W        W 9697   9.945  40.015   2.208
41480W        W 9698  43.737  28.488   1.317
41481W        W 9699  31.355  39.613  13.080
41482W        W 9700  17.611  34.554   1.575
41483W        W 9701  16.036  26.102   2.264
41484W        W 9702  17.943  19.002   2.238
41485W        W 9703  41.551  32.054   3.272
41486W        W 9704   8.897  30.035  10.788
41487W        W 9705  14.039  29.623   1.019
41488W        W 9706   7.888   7.261  11.346
41489W        W 9707  17.088  33.338  13.495
41490W        W 9708  38.951  26.151   3.707
41491W        W 9709  44.762  40.984   4.632
41492W        W 9710   7.705   5.640  13.578
41493W        W 9711   8.750  41.058  13.486
41494W        W 9712  15.320   2.978   3.748
41495W        W 9713  13.903  32.581  10.589
41496W        W 9714   1.729  37.026   2.691
41497W        W 9715  39.564  10.197  11.584
41498W        W 9716  28.022   1.891  13.467
41499W        W 9717   4.399   6.751   0.167
41500W        W 9718  12.262  29.559   2.795
41501W        W 9719  37.854  16.400   4.172
41502W        W 9720  38.477  11.515  14.475
41503W        W 9721  16.149  21.192  14.002
41504W        W 9722  31.072  17.404  10.777
41505W        W 9723   5.348   0.453  10.574
41506W        W 9724  33.769  10.121  13.359
41507W        W 9725  44.784   1.831  12.108
41508W        W 9726   9.087   2.486  12.093
41509W        W 9727  43.410  28.648   2.224
41510W        W 9728  18.802  30.146   1.278
41511W        W 9729   6.423   3.272   2.098
41512W        W 9730  19.965  38.518   3.698
41513W        W 9731  30.905  13.472  14.420
41514W        W 9732   4.902  14.900   2.795
41515W        W 9733  26.263  13.846  11.905
41516W        W 9734  44.806   4.480   2.668
41517W        W 9735  14.997  13.862  11.441
41518W        W 9736  41.487  35.093  10.414
41519W        W 9737   2.703  25.603  14.492
41520W        W 9738  36.362  35.945  10.806
41521W        W 9739   8.125  39.800   1.809
41522W        W 9740  36.563  19.743   4.138
41523W        W 9741   8.856  22.035  10.869
41524W        W 9742   4.356   1.447   2.319
41525W        W 9743  27.778  13.709  14.907
41526W        W 9744   0.528  20.620  12.552
41527W        W 9745  26.189  42.064  14.527
41528W        W 9746  37.876  16.692   5.009
41529W        W 9747   9.946  35.025  12.075
41530W        W 9748   6.669  38.110   2.296
41531W        W 9749  22.919   4.020  12.523
41532W        W 9750  24.222   2.361  12.606
41533W        W 9751   3.997   9.210  13.731
41534W        W 9752   0.715  19.072   1.516
41535W        W 9753  34.501  24.588   4.530
41536W        W 9754  39.743  28.202  12.575
41537W        W 9755  36.338  28.416   2.725
41538W        W 9756  27.588  28.227   2.129
41539W        W 9757  13.738  37.740   3.762
41540W        W 9758   7.722  15.229  10.755
41541W        W 9759  33.383  12.664   4.992
41542W        W 9760   9.995  34.014  14.897
41543W        W 9761  37.928  28.029  12.737
41544W        W 9762  11.805   1.738  10.495
41545W        W 9763  44.456   8.358  13.931
41546W        W 9764  23.652  17.575  13.547
41547W        W 9765  35.925  41.936  12.341
41548W        W 9766  20.103  33.833   3.629
41549W        W 9767  11.336   0.963   2.371
41550W        W 9768  39.085  44.929  12.387
41551W        W 9769   6.514  36.505   0.008
41552W        W 9770  29.735  32.219   0.033
41553W        W 9771  24.951   8.834   2.152
41554W        W 9772   3.711  21.653   0.749
41555W        W 9773   3.847   3.242   2.232
41556W        W 9774  30.478  38.379  10.582
41557W        W 9775  35.621  29.135  14.273
41558W        W 9776  33.461  14.794  10.712
41559W        W 9777  16.197  21.296   0.043
41560W        W 9778  15.929  18.593   3.702
41561W        W 9779  35.657  18.764  12.098
41562W        W 9780  42.928  27.367   2.355
41563W        W 9781  41.447  36.762  12.930
41564W        W 9782  44.856  15.806   1.759
41565W        W 9783  26.082  28.249   0.311
41566W        W 9784  32.389   6.267   0.069
41567W        W 9785  33.120  29.598   0.283
41568W        W 9786  43.382   3.333   3.675
41569W        W 9787  34.025  23.201   2.784
41570W        W 9788  26.687  22.020   3.229
41571W        W 9789  27.929  18.370  12.572
41572W        W 9790  27.068  12.278  11.089
41573W        W 9791   0.077  23.146  12.890
41574W        W 9792  44.604  41.211   3.057
41575W        W 9793   4.985  37.958   3.061
41576W        W 9794   2.342  14.741  13.360
41577W        W 9795  14.803   5.244   2.086
41578W        W 9796  10.271  33.579  13.014
41579W        W 9797  29.657   1.337   0.856
41580W        W 9798  21.713  21.963   3.949
41581W        W 9799  42.032  16.322   4.416
41582W        W 9800  28.834  21.950  13.100
41583W        W 9801   8.785   9.617   2.468
41584W        W 9802  15.837  14.803  11.179
41585W        W 9803  21.297  32.034   3.790
41586W        W 9804  28.424  18.235   5.037
41587W        W 9805  28.063  13.312   2.475
41588W        W 9806  33.109  31.392   3.185
41589W        W 9807   9.304  38.046  10.704
41590W        W 9808  12.229   1.240  13.975
41591W        W 9809  18.024  14.515  12.307
41592W        W 9810  16.813  26.649  12.953
41593W        W 9811  35.993  10.099   0.010
41594W        W 9812  40.237  37.829  12.585
41595W        W 9813  41.856  10.638  13.810
41596W        W 9814  21.057  15.620  11.101
41597W        W 9815   3.668  14.158   0.422
41598W        W 9816  12.397   6.105  14.710
41599W        W 9817   0.740  37.331   0.126
41600W        W 9818  25.826  11.406   3.293
41601W        W 9819  35.471   1.521   1.493
41602W        W 9820  24.998  19.024   3.789
41603W        W 9821   3.265  29.346   0.099
41604W        W 9822  28.604  14.430   4.751
41605W        W 9823  42.408   9.306   4.373
41606W        W 9824   6.310  31.889  10.302
41607W        W 9825  36.091  11.666   0.970
41608W        W 9826  37.132  28.618   2.445
41609W        W 9827   8.648  16.225   2.156
41610W        W 9828  19.081  26.904  11.252
41611W        W 9829   2.745  11.384   1.797
41612W        W 9830  16.190   8.569  14.426
41613W        W 9831  21.634  43.541  13.394
41614W        W 9832   5.919  28.044   2.585
41615W        W 9833  35.190  13.340  12.527
41616W        W 9834  15.051  26.724   5.043
41617W        W 9835  24.220  10.668   3.672
41618W        W 9836  40.356  39.293   2.725
41619W        W 9837  20.707  24.551   2.680
41620W        W 9838  40.701  22.195  14.062
41621W        W 9839  38.913  20.669   3.668
41622W        W 9840  20.492  14.612   4.587
41623W        W 9841  41.254  36.614   3.659
41624W        W 9842  39.331  30.170   1.299
41625W        W 9843  21.047  29.954   0.357
41626W        W 9844  11.596   5.673  11.171
41627W        W 9845   1.032  19.724   3.798
41628W        W 9846   0.786   8.480  13.420
41629W        W 9847  31.223   7.839  13.427
41630W        W 9848  25.537  12.039  13.347
41631W        W 9849  10.164  27.957   1.222
41632W        W 9850  12.673  12.402  11.069
41633W        W 9851  24.428  38.409  12.968
41634W        W 9852  24.138  14.821   0.246
41635W        W 9853  18.604  28.148  14.955
41636W        W 9854  22.214  41.243   0.201
41637W        W 9855  30.750  32.259  10.148
41638W        W 9856  43.904   2.964   0.935
41639W        W 9857  15.823  31.223   1.418
41640W        W 9858  19.662  29.970   4.450
41641W        W 9859   9.747   0.871  14.139
41642W        W 9860  37.418  38.335   1.756
41643W        W 9861  15.588   1.402  12.441
41644W        W 9862  38.963  36.302  10.970
41645W        W 9863  21.232  23.028   2.407
41646W        W 9864  19.204  28.416   0.117
41647W        W 9865  13.525  19.998  14.103
41648W        W 9866  25.993  11.883   0.958
41649W        W 9867  29.193   1.462  10.368
41650W        W 9868   1.295  33.190   4.617
41651W        W 9869  23.116  17.429  14.453
41652W        W 9870  22.310   4.265  14.684
41653W        W 9871  38.837   3.478   0.862
41654W        W 9872  19.290  21.873  14.718
41655W        W 9873   4.129  16.079  10.688
41656W        W 9874  11.275  37.096  13.829
41657W        W 9875   5.202  20.764  13.837
41658W        W 9876  18.121   6.935   2.306
41659W        W 9877  14.652  25.125  13.144
41660W        W 9878  17.651  14.425   0.409
41661W        W 9879  17.647   9.365  14.400
41662W        W 9880  28.876   0.359  11.501
41663W        W 9881  17.643  37.612  13.413
41664W        W 9882  41.296   9.369   3.243
41665W        W 9883  31.074  19.212   3.292
41666W        W 9884   1.787  32.464  10.458
41667W        W 9885  42.719  40.352  14.049
41668W        W 9886   0.445  24.520   1.422
41669W        W 9887  29.039  11.310   2.287
41670W        W 9888  36.927   6.706  11.450
41671W        W 9889  32.138   3.222   2.206
41672W        W 9890  30.399  18.080  12.281
41673W        W 9891  18.553  39.201   3.333
41674W        W 9892  29.349  30.381   2.182
41675W        W 9893  20.238  25.235  10.790
41676W        W 9894  13.706  20.231  14.998
41677W        W 9895  13.236  12.337   0.003
41678W        W 9896  27.114   3.845  14.104
41679W        W 9897  44.432  14.268  14.970
41680W        W 9898  13.174   0.376   4.630
41681W        W 9899  37.218  15.559  13.540
41682W        W 9900   7.309  18.517  12.486
41683W        W 9901  26.896  40.014   1.335
41684W        W 9902  13.556  29.444   2.334
41685W        W 9903  39.213   2.841   1.895
41686W        W 9904  18.600  23.500  14.539
41687W        W 9905  23.501  23.365   1.352
41688W        W 9906  13.347  31.809   3.654
41689W        W 9907  21.920   0.968   1.100
41690W        W 9908  34.674  19.662   2.823
41691W        W 9909  27.210  31.594  13.800
41692W        W 9910  21.724  16.601  12.573
41693W        W 9911  17.656  13.932   0.295
41694W        W 9912  35.828  36.236   1.506
41695W        W 9913   2.268  13.786   1.230
41696W        W 9914  38.806   5.166  12.621
41697W        W 9915  34.482  22.101   1.985
41698W        W 9916   2.883  30.422  14.060
41699W        W 9917  23.077  42.006   2.352
41700W        W 9918  13.560  22.649  12.855
41701W        W 9919  40.722   7.176  10.300
41702W        W 9920  38.786  21.028  12.967
41703W        W 9921  36.407  14.563   0.968
41704W        W 9922  26.202  25.689  13.967
41705W        W 9923  14.439  22.550  14.085
41706W        W 9924   4.751  24.575  10.708
41707W        W 9925  15.742  22.216  13.021
41708W        W 9926  11.822  37.361   0.932
41709W        W 9927  30.641   0.330  11.616
41710W        W 9928  30.507  39.841  13.321
41711W        W 9929  11.825  14.586   2.772
41712W        W 9930  11.856  35.933  12.573
41713W        W 9931  23.100  31.712  13.492
41714W        W 9932  43.242  41.830  13.163
41715W        W 9933   6.766   0.392   1.898
41716W        W 9934   3.194  15.684  14.492
41717W        W 9935  17.193  34.447  11.142
41718W        W 9936  16.163  22.036  10.683
41719W        W 9937  42.132   0.925   3.558
41720W        W 9938  34.374   1.691   4.654
41721W        W 9939  13.703   7.396   2.865
41722W        W 9940  13.222  28.389   1.777
41723W        W 9941   3.344   2.928  14.188
41724W        W 9942  10.490  25.427  12.996
41725W        W 9943  44.900  28.476  13.467
41726W        W 9944  22.166  26.580  11.406
41727W        W 9945   8.803  16.208   4.101
41728W        W 9946  30.219  18.745  11.610
41729W        W 9947   4.514  11.087  11.080
41730W        W 9948  29.460  23.393  13.784
41731W        W 9949  17.263   2.360  10.202
41732W        W 9950  27.386  34.976   2.401
41733W        W 9951  44.336   4.327   1.342
41734W        W 9952  23.007  36.422  13.276
41735W        W 9953  11.067  12.341   3.397
41736W        W 9954   1.275  30.028  11.189
41737W        W 9955  34.958  16.846  11.213
41738W        W 9956   3.371  36.631  12.347
41739W        W 9957  30.035  12.403  13.978
41740W        W 9958   2.676  41.580   3.998
41741W        W 9959  41.754   4.456   3.699
41742W        W 9960  24.657  26.181   3.753
41743W        W 9961  16.566  41.903   0.671
41744W        W 9962  44.427   8.231   0.338
41745W        W 9963  43.438   4.722   1.011
41746W        W 9964  18.251  20.115  14.850
41747W        W 9965  24.983   2.813  13.367
41748W        W 9966  10.813  11.697  13.121
41749W        W 9967  41.344  18.811  11.870
41750W        W 9968  24.945  24.799   4.390
41751W        W 9969  37.956  24.323  10.702
41752W        W 9970  27.285  34.372   3.205
41753W        W 9971  14.999   8.093   1.461
41754W        W 9972  10.883  40.614   2.974
41755W        W 9973  38.881  10.751  12.886
41756W        W 9974  22.075  20.617   2.314
41757W        W 9975  30.398   7.825   4.662
41758W        W 9976  28.089   7.169  10.860
41759W        W 9977  12.878  10.637   1.255
41760W        W 9978  42.993  27.444  10.493
41761W        W 9979  10.102   3.830   3.975
41762W        W 9980  16.191  11.539  10.810
41763W        W 9981  31.185  27.610  12.041
41764W        W 9982  30.945  22.075  10.673
41765W        W 9983  36.977  30.186  10.745
41766W        W 9984  27.442  36.313  14.780
41767W        W 9985   2.381  26.362   2.832
41768W        W 9986  13.399  38.686  14.446
41769W        W 9987  24.229  17.655  12.840
41770W        W 9988  36.052  25.588   4.814
41771W        W 9989  22.827  15.330  12.058
41772W        W 9990  38.990  13.838   0.967
41773W        W 9991   5.157  16.309   0.324
41774W        W 9992  28.409   9.818   1.284
41775W        W 9993  44.226   4.956  14.455
41776W        W 9994  44.256  39.793   1.233
41777W        W 9995  26.046  31.615   1.156
41778W        W 9996  44.851   5.123   4.311
41779W        W 9997  31.594  41.516   4.511
41780W        W 9998  39.930  10.872  11.157
41781W        W 9999  23.800  36.433   0.976
41782W        W10000  37.829  33.560  11.201
41783W        W10001  40.686  14.173   1.140
41784W        W10002  40.362  24.253  14.329
41785W        W10003  18.888  16.875  11.233
41786W        W10004  34.865  27.904  13.076
41787W        W10005  12.684  10.387   1.716
41788W        W10006   7.321   0.668   3.939
41789W        W10007  42.013  17.378  13.453
41790W        W10008   2.957  34.917   0.250
41791W        W10009  34.358  30.030   2.381
41792W        W10010  10.155  14.839  10.245
41793W        W10011  16.331  19.147   4.266
41794W        W10012  14.319  16.847   2.261
41795W        W10013  13.264  32.910   0.085
41796W        W10014  23.994  20.229  14.811
41797W        W10015  41.529  38.256  14.488
41798W        W10016  24.899  29.631  12.461
41799W        W10017  37.341  35.959   1.208
41800W        W10018  34.884  23.770   4.694
41801W        W10019  35.550  39.959   4.078
41802W        W10020   5.151  38.795   0.016
41803W        W10021  11.122  43.332  11.139
41804W        W10022   0.198  15.977  12.047
41805W        W10023  33.326   1.069   5.254
41806W        W10024  19.565  41.304  11.389
41807W        W10025   2.758  43.829  11.933
41808W        W10026  41.271  11.654   0.999
41809W        W10027  18.315  31.550  12.086
41810W        W10028   4.119   5.752   4.893
41811W        W10029  31.293   6.157  11.021
41812W        W10030  23.161  36.417   4.895
41813W        W10031  30.125  12.278  10.571
41814W        W10032  41.216  42.946  10.648
41815W        W10033  19.782  44.278   2.323
41816W        W10034   6.604  16.245  14.372
41817W        W10035  31.052  26.635   3.674
41818W        W10036  21.067  31.812   4.183
41819W        W10037  14.813  17.570   3.220
41820W        W10038  18.329  26.293   0.345
41821W        W10039  16.292  36.081   0.360
41822W        W10040  15.233  15.702   9.892
41823W        W10041   3.721  26.973   1.053
41824W        W10042  12.307   1.856  12.592
41825W        W10043   2.746   8.950  12.140
41826W        W10044   3.847  44.419   2.771
41827W        W10045  31.615  24.193   2.855
41828W        W10046  42.441  34.501   4.100
41829W        W10047  16.195  38.671   3.229
41830W        W10048  30.597  42.697   2.337
41831W        W10049  36.435  20.290  10.788
41832W        W10050  42.575  29.539  13.950
41833W        W10051  20.642  10.661   0.401
41834W        W10052  23.923   3.098  11.514
41835W        W10053  23.317   3.743  12.407
41836W        W10054  28.652  12.122   3.667
41837W        W10055   0.836  27.943  10.699
41838W        W10056   2.319  44.422  11.584
41839W        W10057  30.355  25.092  12.180
41840W        W10058  19.501   3.419   2.196
41841W        W10059  35.898  15.109   4.516
41842W        W10060   3.725  19.109   2.376
41843W        W10061  24.239  17.488   4.506
41844W        W10062  37.009   8.842  11.548
41845W        W10063   4.841  12.739   2.310
41846W        W10064   5.461  38.480  12.930
41847W        W10065  29.001  40.868   0.534
41848W        W10066  30.155  10.648   1.330
41849W        W10067  41.876  28.565   1.762
41850W        W10068  34.804  29.689  11.095
41851W        W10069   4.923   1.757  13.311
41852W        W10070  23.034  42.768   3.218
41853W        W10071  27.908  29.461  10.577
41854W        W10072  14.679  30.790  12.202
41855W        W10073  33.133  22.902  11.142
41856W        W10074  26.712  16.141  14.097
41857W        W10075   3.143  20.738   3.267
41858W        W10076  26.535  11.561  12.973
41859W        W10077  12.921  31.432  13.331
41860W        W10078  14.675  40.361   2.370
41861W        W10079   7.273  44.672   0.858
41862W        W10080  33.916  19.186   3.739
41863W        W10081  39.304   9.230  14.949
41864W        W10082  19.992  32.066  11.503
41865W        W10083  10.400  22.343   2.000
41866W        W10084  36.905   8.822   3.830
41867W        W10085  43.267   7.674   3.854
41868W        W10086  24.741  16.120   4.750
41869W        W10087  17.023  14.240  12.275
41870W        W10088  20.833  24.573  11.289
41871W        W10089  13.246  32.576  11.098
41872W        W10090  18.515  24.029  13.896
41873W        W10091  25.620  41.101   0.060
41874W        W10092   2.168  22.265   3.877
41875W        W10093   0.973   5.632  11.104
41876W        W10094  13.205  40.343   2.652
41877W        W10095  44.009   4.463   1.708
41878W        W10096  44.780  28.287   2.597
41879W        W10097   7.940  14.587  12.029
41880W        W10098  10.720   7.576   1.265
41881W        W10099   9.146  40.521  14.113
41882W        W10100  39.561  12.652  13.721
41883W        W10101  14.500   0.748  12.940
41884W        W10102   0.321  31.354  14.681
41885W        W10103   0.137  16.149  14.515
41886W        W10104   3.850  41.182  12.210
41887W        W10105  22.528  11.662  14.232
41888W        W10106  32.033  35.482   3.729
41889W        W10107  34.121  36.317  13.832
41890W        W10108  25.838  12.082  12.889
41891W        W10109  22.698  31.470  12.614
41892W        W10110  41.026  32.851   1.156
41893W        W10111   0.753  39.392   1.308
41894W        W10112  34.248  24.665   4.106
41895W        W10113  14.619   6.576   3.237
41896W        W10114  32.153  13.188  13.099
41897W        W10115  16.714  43.381   2.367
41898W        W10116  26.851  30.802  14.231
41899W        W10117  23.015   0.673   2.341
41900W        W10118  40.872   4.985  12.376
41901W        W10119   0.603  16.464   5.035
41902W        W10120   6.209  25.044   4.921
41903W        W10121  17.182  22.587  13.855
41904W        W10122   8.240  43.118   2.559
41905W        W10123  13.087   1.975   4.575
41906W        W10124  24.485  17.989   1.109
41907W        W10125   2.732   9.815  13.778
41908W        W10126  29.560   6.230   3.663
41909W        W10127  40.370  38.641   4.492
41910W        W10128   8.214  25.943  14.486
41911W        W10129  35.480  40.796  14.864
41912W        W10130  20.431  32.755  10.170
41913W        W10131  30.678  24.629   4.426
41914W        W10132  43.924   7.321   1.504
41915W        W10133  27.463   8.623  14.390
41916W        W10134  24.533   9.807  10.689
41917W        W10135  44.012  19.560  14.511
41918W        W10136  23.092  43.760   0.747
41919W        W10137   6.687   5.283  12.904
41920W        W10138   4.939  23.666   0.946
41921W        W10139  35.616   8.933   4.646
41922W        W10140  36.057  40.400   1.237
41923W        W10141   1.396  30.104  12.599
41924W        W10142  31.356   5.455   4.224
41925W        W10143  18.590  17.532  10.655
41926W        W10144  10.883  13.476  12.156
41927W        W10145  32.461   7.746   4.690
41928W        W10146   4.634  16.483  12.385
41929W        W10147  43.772  33.120   0.682
41930W        W10148   6.167  33.510  12.011
41931W        W10149   0.531   4.832   2.110
41932W        W10150   8.018  33.068  14.325
41933W        W10151  31.042  30.687   4.478
41934W        W10152  16.166  30.000   0.989
41935W        W10153  16.875  36.859  12.965
41936W        W10154  20.611  43.273  14.539
41937W        W10155   2.656  15.498   2.650
41938W        W10156  16.609  29.278   3.270
41939W        W10157  40.263   8.857   3.724
41940W        W10158   8.651  23.549  13.872
41941W        W10159  11.072  28.366   1.851
41942W        W10160  25.447  16.807   4.323
41943W        W10161   2.583  12.777   1.838
41944W        W10162   1.418  36.693   1.905
41945W        W10163   9.798   0.382   4.704
41946W        W10164  33.486  41.311   1.901
41947W        W10165  15.096  25.054   0.857
41948W        W10166  26.308   1.386  11.558
41949W        W10167  24.228  21.412   2.339
41950W        W10168   4.442  10.166   0.098
41951W        W10169  24.425  19.354  11.109
41952W        W10170   3.336  37.301   5.009
41953W        W10171  36.941  19.347  12.643
41954W        W10172  36.363   5.608   2.353
41955W        W10173   3.003  39.528   2.108
41956W        W10174  23.098   0.059   3.206
41957W        W10175  13.355  31.451  13.059
41958W        W10176  24.112  39.291   3.626
41959W        W10177  17.580  13.319   1.441
41960W        W10178  38.081  17.168   2.209
41961W        W10179   6.772  37.510  11.266
41962W        W10180  16.110   0.928   3.504
41963W        W10181  38.765  22.513   4.928
41964W        W10182  21.074  27.721   2.746
41965W        W10183  25.015  11.156  10.817
41966W        W10184  12.158   7.983  12.509
41967W        W10185  34.527  18.487  12.518
41968W        W10186  30.647  18.133   2.763
41969W        W10187  17.628   4.382   4.631
41970W        W10188  17.529   4.808  14.020
41971W        W10189  36.244  40.470   9.963
41972W        W10190  39.745  23.936   3.581
41973W        W10191   4.462  27.582   4.166
41974W        W10192  18.087  41.448  14.951
41975W        W10193   1.408  22.006   0.810
41976W        W10194  24.000  12.637   0.360
41977W        W10195  26.145  11.258   4.756
41978W        W10196   3.253  33.960  13.701
41979W        W10197  27.672  24.292  12.518
41980W        W10198   2.973  18.398   3.359
41981W        W10199   2.995  31.938   0.328
41982W        W10200  36.961  42.034  10.590
41983W        W10201  22.107  21.977   3.580
41984W        W10202  35.155  28.512  10.771
41985W        W10203  29.709   0.889  12.933
41986W        W10204   7.824  27.689   3.103
41987W        W10205  29.883  23.214   1.869
41988W        W10206   4.464  16.826   1.368
41989W        W10207  16.310   8.179   1.796
41990W        W10208  44.036  25.946  11.612
41991W        W10209  19.217  20.321  14.953
41992W        W10210  26.459  38.607   4.776
41993W        W10211  35.515  24.248  11.567
41994W        W10212  23.208   5.304  13.836
41995W        W10213  29.826  44.862   0.888
41996W        W10214  41.455  20.846   3.472
41997W        W10215  43.484  43.869   3.647
41998W        W10216   7.574  34.080   0.984
41999W        W10217  43.279  22.124   3.114
42000W        W10218  30.870  36.786  14.350
42001W        W10219   6.380   5.175  14.909
42002W        W10220  24.962  27.601  13.499
42003W        W10221  30.664   4.703  14.436
42004W        W10222  16.213  42.547  11.649
42005W        W10223  31.359   2.782   2.111
42006W        W10224  42.765  26.877  12.660
42007W        W10225  10.975  37.606   1.900
42008W        W10226  35.836  37.392  13.841
42009W        W10227  33.856   2.960  10.624
42010W        W10228  29.133  39.233  12.377
42011W        W10229  19.208  44.597  14.524
42012W        W10230  12.478  14.240  14.304
42013W        W10231  25.232  17.499   3.923
42014W        W10232  38.262  40.997   0.182
42015W        W10233  22.551  11.717   2.135
42016W        W10234  14.551  21.931  11.456
42017W        W10235  13.340  19.814  13.623
42018W        W10236  27.209  24.276   4.224
42019W        W10237  44.838   9.887   4.623
42020W        W10238  26.679  26.810   2.808
42021W        W10239   7.621   9.628   0.181
42022W        W10240  34.925  35.670   2.810
42023W        W10241   5.606  40.622   1.769
42024W        W10242  17.626  34.332  11.948
42025W        W10243  29.697  32.919   1.366
42026W        W10244   5.421  31.619   1.945
42027W        W10245  24.121  40.846   0.327
42028W        W10246  36.583  10.632   3.655
42029W        W10247   2.923   0.253  12.758
42030W        W10248  26.859  34.826   0.847
42031W        W10249  25.952   7.338  11.469
42032W        W10250  44.498  42.759  12.604
42033W        W10251   5.524  12.543   0.492
42034W        W10252  36.851  14.199   0.316
42035W        W10253  41.458  14.127  11.507
42036W        W10254  24.501  17.442   0.266
42037W        W10255  43.905  10.735   1.293
42038W        W10256   7.708  44.363  14.857
42039W        W10257  29.154  34.616   3.203
42040W        W10258  41.003  44.267   0.355
42041W        W10259  26.525   5.317  10.582
42042W        W10260   6.359  39.470   1.272
42043W        W10261   5.251  42.397  13.011
42044W        W10262   9.471  42.572  12.987
42045W        W10263   4.771  38.456   4.299
42046W        W10264   7.607  21.906   2.176
42047W        W10265  36.694  42.732   0.888
42048W        W10266  38.274  40.002  13.425
42049W        W10267  18.685  39.817  11.668
42050W        W10268  17.314  26.309   1.456
42051W        W10269  42.924  26.377  12.611
42052W        W10270  35.279  43.480   3.662
42053W        W10271  19.433  23.578   2.424
42054W        W10272  43.258   5.204   1.872
42055W        W10273   2.326  23.567  12.875
42056W        W10274  14.639   2.338  13.467
42057W        W10275  40.770  29.410   2.678
42058W        W10276  38.091  38.346   3.248
42059W        W10277  23.557  27.948   4.480
42060W        W10278  14.635  30.876  11.704
42061W        W10279  17.548   2.412  11.544
42062W        W10280  20.853   3.284   0.751
42063W        W10281  20.423   5.811  13.577
42064W        W10282  27.668  20.595  13.167
42065W        W10283  38.447  24.472  10.769
42066W        W10284  19.607  19.415  11.748
42067W        W10285  27.979  31.621   2.689
42068W        W10286  28.410   0.354   1.022
42069W        W10287  40.861   8.910  10.751
42070W        W10288  30.977  11.833  13.087
42071W        W10289   3.914   7.306   3.546
42072W        W10290  28.546   1.825  12.041
42073W        W10291  30.560  32.903  10.857
42074W        W10292  20.518  31.039  13.091
42075W        W10293  26.341  23.517  13.227
42076W        W10294  19.238  36.877   2.742
42077W        W10295   1.367  31.562   4.642
42078W        W10296  19.505  18.527  11.608
42079W        W10297  34.974  42.402   1.179
42080W        W10298  32.162   3.751   2.208
42081W        W10299  26.975  20.166  13.342
42082W        W10300   1.345  43.743  11.725
42083W        W10301  15.023  38.496  11.496
42084W        W10302   7.351  22.059   3.028
42085W        W10303   6.413  26.592   0.070
42086W        W10304  11.628  31.595   3.445
42087W        W10305  18.419  38.964   5.004
42088W        W10306  44.693   9.843  11.795
42089W        W10307  39.477   4.498  13.539
42090W        W10308  15.326  24.238  10.550
42091W        W10309   0.971  21.834   2.710
42092W        W10310  41.734  19.711   2.699
42093W        W10311  22.155  36.431  14.494
42094W        W10312  15.145  42.308   2.662
42095W        W10313  26.540   3.268  13.807
42096W        W10314   0.006   8.309  10.791
42097W        W10315  21.848  29.863   1.353
42098W        W10316  44.078  14.098   1.333
42099W        W10317   1.712  32.169   2.502
42100W        W10318   2.653  34.891   3.283
42101W        W10319  29.588  24.473   1.404
42102W        W10320  18.201  30.956  13.858
42103W        W10321  10.869  44.859   0.984
42104W        W10322   3.722   2.043  10.612
42105W        W10323  32.878  16.075   1.751
42106W        W10324  41.545   7.404  11.242
42107W        W10325  22.696   6.109   3.197
42108W        W10326   4.350  43.409  14.548
42109W        W10327  31.468  27.503  11.634
42110W        W10328   5.502  26.904   0.877
42111W        W10329  31.073  28.607   4.114
42112W        W10330  38.785  12.326   1.864
42113W        W10331  30.237  40.429  11.681
42114W        W10332  36.798   4.275   4.200
42115W        W10333  34.821  19.484  11.538
42116W        W10334  22.720  11.214  14.063
42117W        W10335  36.995  22.196   3.366
42118W        W10336  21.510  16.338   1.372
42119W        W10337  38.203  22.681  13.444
42120W        W10338  25.467   1.492  14.538
42121W        W10339  40.855  40.344   3.881
42122W        W10340  28.087   6.092  10.737
42123W        W10341   2.439  32.144   4.219
42124W        W10342  32.038  40.285   3.211
42125W        W10343   2.042  24.518  14.337
42126W        W10344  16.594   6.405   1.259
42127W        W10345  24.146  27.482  11.082
42128W        W10346  38.222  36.525  13.035
42129W        W10347  34.627  31.411  10.534
42130W        W10348  40.980  23.555   3.328
42131W        W10349  27.999  34.550   0.204
42132W        W10350  30.144  24.954  10.744
42133W        W10351  26.975  19.687   1.630
42134W        W10352   3.274  21.396   4.620
42135W        W10353  21.664  18.304  12.851
42136W        W10354   1.533  27.659  14.783
42137W        W10355   2.086  14.073  12.975
42138W        W10356  44.672  24.572  14.096
42139W        W10357  26.455  39.426   3.240
42140W        W10358  13.253   2.338   3.161
42141W        W10359  16.732  43.835  10.149
42142W        W10360   3.732  40.232   3.695
42143W        W10361  41.786  38.302  11.680
42144W        W10362  40.165   1.089   3.704
42145W        W10363  22.027  40.833  11.977
42146W        W10364  12.006   5.902  14.405
42147W        W10365  30.648   8.224   4.455
42148W        W10366  38.988  19.486  13.861
42149W        W10367  29.622  41.926   2.752
42150W        W10368   0.017   3.355   1.963
42151W        W10369   4.812   2.775   2.425
42152W        W10370  27.013  38.421  13.977
42153W        W10371  25.970  28.967   4.607
42154W        W10372  40.002  41.245   4.161
42155W        W10373  29.043  26.876  13.280
42156W        W10374  36.973  12.856   1.702
42157W        W10375  33.766   8.356  12.538
42158W        W10376  42.862   3.923  10.660
42159W        W10377  23.461  22.374  12.384
42160W        W10378  39.847  37.403   4.583
42161W        W10379  37.091  32.987   3.604
42162W        W10380  12.219  21.212  14.861
42163W        W10381  39.393  20.161  14.179
42164W        W10382  31.908  17.391  11.967
42165W        W10383  15.557  33.778   3.996
42166W        W10384  23.109  10.392   1.482
42167W        W10385  44.452   3.471  12.150
42168W        W10386  25.526  32.650  13.471
42169W        W10387  23.836  41.251  14.389
42170W        W10388  22.694  27.560   4.157
42171W        W10389  22.178  43.863   0.407
42172W        W10390  23.132  10.869  13.853
42173W        W10391  13.095   5.268  12.349
42174W        W10392  31.553   6.524  10.096
42175W        W10393  16.010  11.164  11.627
42176W        W10394   3.201  26.256   1.042
42177W        W10395  32.142  26.071   0.656
42178W        W10396  26.563   6.375   2.078
42179W        W10397   2.509  36.056  10.869
42180W        W10398  43.534   9.879  11.127
42181W        W10399   9.461  44.898  10.831
42182W        W10400  35.103  10.389  10.898
42183W        W10401  23.942  37.870  14.751
42184W        W10402  15.747  18.949  10.704
42185W        W10403  23.735   2.794  13.899
42186W        W10404  29.336  37.580   2.119
42187W        W10405  36.885  22.178  12.089
42188W        W10406   1.331  13.229   3.715
42189W        W10407  14.568  36.088   4.684
42190W        W10408  28.550  34.007  12.628
42191W        W10409  11.193  41.933   4.121
42192W        W10410   0.480   4.284   3.023
42193W        W10411   0.431   3.865   3.314
42194W        W10412   2.034  44.271   3.677
42195W        W10413  40.567  11.777  13.799
42196W        W10414   3.593  28.944   0.745
42197W        W10415  11.333  40.612  14.309
42198W        W10416  29.620  17.503   1.867
42199W        W10417  12.646  42.398   1.851
42200W        W10418  17.255  12.952  11.513
42201W        W10419   8.457  10.211  12.841
42202W        W10420  35.938   3.346   5.090
42203W        W10421  23.428  33.638   2.596
42204W        W10422  30.877  10.735   1.917
42205W        W10423   8.039  11.999   1.760
42206W        W10424  10.128  40.005  12.984
42207W        W10425  25.027  23.203  13.385
42208W        W10426  18.811   3.462   0.752
42209W        W10427  29.016  16.795  11.186
42210W        W10428   3.910   0.749  14.860
42211W        W10429  19.927  25.474  11.504
42212W        W10430  28.457  36.266   2.319
42213W        W10431  37.266  24.772   0.488
42214W        W10432  20.563  44.393  13.488
42215W        W10433  17.853  10.441   1.767
42216W        W10434  12.624  32.190  13.057
42217W        W10435  43.427  39.303   3.712
42218W        W10436  30.956  31.364   1.752
42219W        W10437  23.509  14.806  13.939
42220W        W10438  40.588   0.029   0.470
42221W        W10439   5.131  20.667   2.337
42222W        W10440  27.679  41.993   3.950
42223W        W10441  28.532   7.230  11.573
42224W        W10442  19.247  18.062  13.920
42225W        W10443   7.343   1.840   2.874
42226W        W10444  14.797   9.712  12.323
42227W        W10445  43.976  34.553  12.030
42228W        W10446  37.879  11.758  12.765
42229W        W10447  39.345  13.062  13.929
42230W        W10448   2.704  28.679   1.822
42231W        W10449   3.780   2.462   2.759
42232W        W10450  35.608  24.699  13.603
42233W        W10451   3.370  39.071  13.791
42234W        W10452  21.199   7.186   4.055
42235W        W10453  36.422   1.361   1.217
42236W        W10454  19.211  23.911   1.494
42237W        W10455  36.646  35.948  11.471
42238W        W10456  36.872  20.824  14.441
42239W        W10457  11.065  23.104  14.836
42240W        W10458   7.646  24.097   1.133
42241W        W10459   4.207  39.407   4.118
42242W        W10460  31.689  26.556  13.025
42243W        W10461  17.250  29.845  13.003
42244W        W10462  40.792  13.342   0.878
42245W        W10463  22.055  39.224  10.660
42246W        W10464   6.237  38.245   4.590
42247W        W10465  40.759   0.542   3.263
42248W        W10466  36.799  21.515   4.070
42249W        W10467  28.044   6.356   0.395
42250W        W10468   5.904  20.624   0.334
42251W        W10469  24.206   8.850   2.646
42252W        W10470  31.875  17.202  12.905
42253W        W10471  22.957  44.441   4.601
42254W        W10472  11.573  21.281  11.314
42255W        W10473  36.658  19.926  14.293
42256W        W10474   2.618  18.801  12.029
42257W        W10475   5.844  18.374   4.136
42258W        W10476  14.052  35.949   3.837
42259W        W10477  25.454   9.785  14.776
42260W        W10478  33.401  39.729   4.128
42261W        W10479  19.016  37.835  11.998
42262W        W10480  23.985  27.759   3.344
42263W        W10481  39.087  16.719   9.997
42264W        W10482  15.795  14.162   0.906
42265W        W10483  41.857  11.212  10.267
42266W        W10484   6.877   4.451  12.457
42267W        W10485  22.062  18.426   1.712
42268W        W10486  10.227   9.430   2.728
42269W        W10487  23.297  31.627   0.808
42270W        W10488  11.676  41.854  13.517
42271W        W10489   5.966  42.056  14.438
42272W        W10490   2.348  35.105   3.691
42273W        W10491  39.411  31.050  13.405
42274W        W10492  40.596  22.790  10.806
42275W        W10493   1.260  10.750   3.516
42276W        W10494  28.857  36.360   3.363
42277W        W10495  14.221  37.194   5.134
42278W        W10496  17.152  44.399  10.005
42279W        W10497  41.087  22.484  11.625
42280W        W10498   3.845  38.462   2.683
42281W        W10499  18.635  29.408  12.371
42282W        W10500  11.130  19.093  13.084
42283W        W10501  27.546   2.334  12.925
42284W        W10502  15.666   7.916  13.509
42285W        W10503  13.763  25.334   2.862
42286W        W10504  18.350  34.359  13.549
42287W        W10505  44.444  38.356   1.402
42288W        W10506  21.250  24.260  11.547
42289W        W10507  42.036   5.002   2.389
42290W        W10508   1.725  28.610  10.744
42291W        W10509   4.816   0.184   4.100
42292W        W10510  35.099  30.157   0.215
42293W        W10511  16.480  26.849   5.056
42294W        W10512  20.335  12.772   4.609
42295W        W10513  44.463  23.278   4.062
42296W        W10514   2.811  38.461  11.664
42297W        W10515  33.503  36.408  11.517
42298W        W10516  38.498  12.851  12.788
42299W        W10517  30.462  14.102   4.638
42300W        W10518  19.720  17.639   4.821
42301W        W10519  29.378  38.549   2.276
42302W        W10520  32.642   5.386  10.693
42303W        W10521  30.150  43.308   1.744
42304W        W10522  29.896  30.051  12.580
42305W        W10523   3.363  17.036   1.565
42306W        W10524   2.883   7.975   0.353
42307W        W10525  19.611  40.491  12.460
42308W        W10526  23.815  15.242   3.800
42309W        W10527  28.879  40.313  13.367
42310W        W10528   4.382   0.352   4.945
42311W        W10529   1.429  28.410   4.615
42312W        W10530   3.151  23.167   2.751
42313W        W10531   8.829  31.328   1.212
42314W        W10532   7.907   0.232  11.259
42315W        W10533  24.574  36.840   3.876
42316W        W10534  21.745  23.526  11.235
42317W        W10535   5.719  31.481  14.807
42318W        W10536   2.792  34.161   1.169
42319W        W10537  39.947  26.599   3.621
42320W        W10538  10.110  11.644   2.217
42321W        W10539  30.640  19.348   2.305
42322W        W10540  27.735  34.606   2.319
42323W        W10541  42.289  10.902  13.866
42324W        W10542  21.984  29.910   2.203
42325W        W10543  41.610  43.321   4.535
42326W        W10544   5.912   3.644   0.438
42327W        W10545  35.921  21.010   3.815
42328W        W10546  20.913  27.222  13.863
42329W        W10547   9.101  39.491  11.281
42330W        W10548  21.481  35.699   3.427
42331W        W10549  18.755  15.624  14.487
42332W        W10550  35.847  22.310  12.578
42333W        W10551  44.514   9.272   2.874
42334W        W10552   6.350  23.568  11.997
42335W        W10553  28.946  43.279  13.484
42336W        W10554   6.855   9.175   3.440
42337W        W10555  20.924  32.649   5.429
42338W        W10556  10.273  40.065  12.063
42339W        W10557  42.396  36.308  12.536
42340W        W10558  39.419  27.950   3.567
42341W        W10559  23.309  23.908   0.771
42342W        W10560  19.124  17.929   2.100
42343W        W10561  21.171  18.542  13.692
42344W        W10562   5.905  10.601   1.375
42345W        W10563  17.770  14.245  12.643
42346W        W10564  38.351  19.512   3.736
42347W        W10565  36.818  33.172  11.394
42348W        W10566  41.987  35.495  12.555
42349W        W10567  33.163  26.478   1.453
42350W        W10568  16.721  39.340   3.578
42351W        W10569  14.248  39.227  12.010
42352W        W10570  26.449  18.325   0.355
42353W        W10571  11.273  18.706   4.280
42354W        W10572  40.574   5.240   3.923
42355W        W10573  42.921  24.469   4.113
42356W        W10574  15.626   3.645   1.509
42357W        W10575  15.270  40.106  10.629
42358W        W10576  43.503  40.555   3.186
42359W        W10577  20.765  27.316  12.956
42360W        W10578  42.824   4.973   1.722
42361W        W10579  34.459  26.470   2.294
42362W        W10580  26.874  25.462   1.436
42363W        W10581  35.870  23.947  11.132
42364W        W10582  25.375  40.035   0.318
42365W        W10583   1.833   4.308   1.359
42366W        W10584  20.969   3.960   3.050
42367W        W10585  15.309   0.323  14.275
42368W        W10586   8.931  43.371   2.193
42369W        W10587   9.264  31.301   2.914
42370W        W10588  40.869   7.441   2.321
42371W        W10589  25.121  10.890   2.350
42372W        W10590  42.660  12.482   2.701
42373W        W10591   1.543  37.093   3.898
42374W        W10592  21.740  27.331   4.478
42375W        W10593   4.900   8.808  13.466
42376W        W10594   6.344  10.884   0.517
42377W        W10595  30.857   8.573  12.078
42378W        W10596  10.309  21.722  11.458
42379W        W10597  29.348  33.909  11.108
42380W        W10598  41.819  26.232  11.735
42381W        W10599  42.999  43.122   0.997
42382W        W10600  24.404  21.914  13.543
42383W        W10601  35.528  34.857   0.818
42384W        W10602  32.291  12.781  10.676
42385W        W10603  33.917   9.671   3.675
42386W        W10604  15.500  44.479  11.445
42387W        W10605  10.624  22.742  11.106
42388W        W10606   5.790  34.505   4.585
42389W        W10607  26.956  28.576   2.197
42390W        W10608  28.920  32.885   0.931
42391W        W10609  38.053  16.691  10.864
42392W        W10610  26.512  12.086  13.044
42393W        W10611   9.206  27.048   3.735
42394W        W10612  22.045  36.402   0.027
42395W        W10613  24.543  31.906   0.462
42396W        W10614  22.988  42.427   3.634
42397W        W10615  32.546  13.405   2.338
42398W        W10616  32.457  37.673  13.782
42399W        W10617  23.235  14.747   1.845
42400W        W10618  30.465  43.920  11.180
42401W        W10619  26.082  38.091  14.294
42402W        W10620  18.672  19.632   1.745
42403W        W10621  44.302  22.547  13.476
42404W        W10622  44.557  25.804  14.146
42405W        W10623  35.881  12.814   1.435
42406W        W10624  36.699  39.856  14.447
42407W        W10625  12.182  33.516   4.227
42408W        W10626  33.320   4.480  14.930
42409W        W10627  25.783  43.047   2.388
42410W        W10628  19.479  20.515  11.292
42411W        W10629  16.328   4.296   4.562
42412W        W10630  30.532  27.470   0.397
42413W        W10631  33.594   0.344   1.889
42414W        W10632  21.527   2.230  12.830
42415W        W10633  41.847  29.134  14.053
42416W        W10634  30.640  38.651  14.839
42417W        W10635  12.402   6.264   4.411
42418W        W10636  39.124  40.767  13.457
42419W        W10637  34.785  29.702   0.850
42420W        W10638   0.389   2.341  13.293
42421W        W10639  35.009  41.667   0.029
42422W        W10640   5.761  38.402  11.146
42423W        W10641  35.949  35.816  12.564
42424W        W10642   3.458  28.956  11.113
42425W        W10643  34.113  36.586  14.826
42426W        W10644   5.746  38.583   0.885
42427W        W10645  32.560  15.912   3.281
42428W        W10646  32.157  39.707  11.206
42429W        W10647  11.588  29.500   4.255
42430W        W10648   4.249  41.524  14.940
42431W        W10649  35.526  13.109  13.837
42432W        W10650  29.039  18.198  10.279
42433W        W10651  12.938  38.478   0.831
42434W        W10652  44.671  11.784  13.395
42435W        W10653   0.270  27.917  14.761
42436W        W10654   7.371  44.693   1.731
42437W        W10655   8.453  17.845  12.778
42438W        W10656  26.451  40.431  13.344
42439W        W10657  24.101  17.088   4.218
42440W        W10658  14.716  20.217   2.637
42441W        W10659  12.559   1.958  13.332
42442W        W10660   9.216  37.853  11.612
42443W        W10661  11.185  20.032   3.353
42444W        W10662   8.316   7.530   1.828
42445W        W10663  26.532  35.269   2.080
42446W        W10664  37.098   6.860  12.871
42447W        W10665  21.185  22.211  11.517
42448W        W10666   5.446  20.282   0.672
42449W        W10667  10.108  37.982   1.229
42450W        W10668  21.042  34.455   4.048
42451W        W10669  30.414  18.653   1.163
42452W        W10670  36.465   9.427   4.239
42453W        W10671  23.797  35.950   0.730
42454W        W10672  44.598  44.922   2.297
42455W        W10673   6.698   2.813   1.276
42456W        W10674   4.098  25.945  11.223
42457W        W10675  14.088  17.137  13.509
42458W        W10676  32.176  13.595  11.803
42459W        W10677  13.264   3.292  13.379
42460W        W10678  14.667  27.005  13.786
42461W        W10679  10.915  42.393   3.169
42462W        W10680  22.366  31.533  13.015
42463W        W10681  27.677  22.508   2.758
42464W        W10682  43.957  37.061   1.427
42465W        W10683  27.958  37.449  13.876
42466W        W10684  40.810  31.972  14.896
42467W        W10685  31.046  43.394  14.229
42468W        W10686   6.332  33.449  14.831
42469W        W10687  23.658  39.886   1.503
42470W        W10688  23.818  43.380  11.480
42471W        W10689   4.555  27.601   3.160
42472W        W10690   9.173  38.613   4.081
42473W        W10691  39.238  28.035  12.511
42474W        W10692  14.242   9.735  10.827
42475W        W10693   9.448  43.402  14.303
42476W        W10694   3.367  43.950   4.006
42477W        W10695  23.455  39.519   1.200
42478W        W10696  26.593  44.545  11.108
42479W        W10697  37.531  37.387   0.249
42480W        W10698  38.216  25.918  14.776
42481W        W10699  27.990   7.462   1.163
42482W        W10700  33.082  23.536   0.432
42483W        W10701  40.883  38.380   0.740
42484W        W10702   3.941  24.105  11.142
42485W        W10703  13.536  13.162  11.677
42486W        W10704  33.576  27.582  11.625
42487W        W10705   5.266   9.833  11.458
42488W        W10706   7.998  29.038   4.749
42489W        W10707   2.746   9.439   4.391
42490W        W10708  17.259  34.285   3.738
42491W        W10709  40.489  39.477   0.961
42492W        W10710  25.242  14.339  13.967
42493W        W10711  37.487  29.651   2.228
42494W        W10712  23.949  10.043   1.330
42495W        W10713  43.252   0.406  10.819
42496W        W10714  19.351  20.465   4.477
42497W        W10715  28.664  40.768   1.394
42498W        W10716   0.092  30.210  13.978
42499W        W10717  32.495  18.830  12.086
42500W        W10718  42.989  36.622   4.915
42501W        W10719  19.321  41.479   3.680
42502W        W10720  44.875  33.857  12.820
42503W        W10721  30.694  14.902   1.021
42504W        W10722  23.957   4.837  14.868
42505W        W10723  15.265   4.170  12.426
42506W        W10724  22.968  25.498  12.410
42507W        W10725   5.873  40.679  10.229
42508W        W10726   9.769  13.122   0.361
42509W        W10727  17.551  42.935  12.539
42510W        W10728   4.093  37.849  13.656
42511W        W10729  34.805  35.339   4.163
42512W        W10730  32.245  25.934  11.997
42513W        W10731  35.488  44.822   4.118
42514W        W10732  40.844  44.974  14.973
42515W        W10733  25.538  19.737  12.927
42516W        W10734  34.391  42.575  13.565
42517W        W10735  28.374  17.307   2.648
42518W        W10736  36.922   9.684   3.682
42519W        W10737  38.928  20.460   1.338
42520W        W10738  20.680  35.577  10.957
42521W        W10739  10.374  33.815  12.564
42522W        W10740  27.973  28.954   0.244
42523W        W10741   5.350  13.778  11.981
42524W        W10742  23.593  33.027  11.025
42525W        W10743   0.687  20.784  13.018
42526W        W10744  36.461   4.199   1.250
42527W        W10745  33.825  41.296   3.593
42528W        W10746  23.021   2.850  12.380
42529W        W10747   7.867   1.525   2.164
42530W        W10748  34.472  42.224   1.189
42531W        W10749  22.567  26.344   3.754
42532W        W10750  25.974  15.547  10.256
42533W        W10751  18.668  20.789  11.138
42534W        W10752   0.972  42.916   2.785
42535W        W10753  18.531  28.263   3.761
42536W        W10754  11.973   2.220  11.494
42537W        W10755  41.306  11.727  12.485
42538W        W10756  20.006  33.629   2.231
42539W        W10757   4.160  25.945   1.285
42540W        W10758   0.831  13.651   0.437
42541W        W10759  19.298  32.592   0.481
42542W        W10760  41.240   1.257  12.450
42543W        W10761  32.410   7.285   0.679
42544W        W10762   0.502  42.214   4.074
42545W        W10763  27.750   3.316  10.785
42546W        W10764  29.139  43.229  13.964
42547W        W10765  37.628   0.569  11.629
42548W        W10766  24.207  43.720  11.507
42549W        W10767   0.441  33.104  13.071
42550W        W10768  39.280  19.144  12.461
42551W        W10769   6.817  16.074  13.910
42552W        W10770  38.289  35.891  12.708
42553W        W10771  22.977  30.577   0.885
42554W        W10772  28.521  25.327   3.669
42555W        W10773  13.172  35.690  12.464
42556W        W10774  25.621  33.966   3.350
42557W        W10775  11.833  15.169  14.327
42558W        W10776   5.762  42.875   2.919
42559W        W10777  32.079  13.370   2.623
42560W        W10778  26.465  18.636  11.979
42561W        W10779  14.786   9.391   1.037
42562W        W10780  18.645   9.190  10.977
42563W        W10781  24.003  13.814   0.857
42564W        W10782  10.465   2.460   5.098
42565W        W10783  32.216  29.914  14.428
42566W        W10784  20.424  16.976   4.543
42567W        W10785  20.478  32.145  11.621
42568W        W10786   4.400  39.961   9.771
42569W        W10787   8.457  29.230  10.709
42570W        W10788  41.831  34.909   1.612
42571W        W10789  23.338   1.335   4.527
42572W        W10790  22.630  20.205  11.591
42573W        W10791   1.971  28.107   2.205
42574W        W10792  27.545   7.841   3.021
42575W        W10793  29.531   5.995   2.679
42576W        W10794  34.732  34.799   1.246
42577W        W10795  12.133  20.564   2.783
42578W        W10796  35.291  19.555   4.717
42579W        W10797  27.857  32.035  13.539
42580W        W10798  43.836   7.723  13.129
42581W        W10799   6.358  20.683   3.234
42582W        W10800  13.851   4.986  14.364
42583W        W10801   8.767   2.511  14.926
42584W        W10802   3.169   3.923  13.894
42585W        W10803  28.538  27.647  12.969
42586W        W10804  11.894  29.024  12.134
42587W        W10805   0.039  42.847  14.040
42588W        W10806  18.731  19.677  13.488
42589W        W10807  23.087  12.083   2.677
42590W        W10808  17.304  15.200  12.095
42591W        W10809   0.897  22.657  14.476
42592W        W10810  14.025  27.373  11.791
42593W        W10811  39.849  16.949  12.077
42594W        W10812  42.319   1.925  14.732
42595W        W10813   0.932  39.288  10.715
42596W        W10814  24.168  30.149  12.570
42597W        W10815  15.266  23.674   1.454
42598W        W10816  14.672   8.904   0.928
42599W        W10817   5.640  18.357   3.188
42600W        W10818  12.288  29.531   4.636
42601W        W10819  10.827  29.634   4.693
42602W        W10820  20.237  27.475   1.376
42603W        W10821  21.388  17.002   4.955
42604W        W10822  20.701  34.388  12.090
42605W        W10823  37.423  29.105   3.078
42606W        W10824  26.222  20.267  12.960
42607W        W10825  44.978  26.202   1.616
42608W        W10826  12.686  40.293  11.180
42609W        W10827  21.191  43.124  12.085
42610W        W10828   1.534  29.313  12.875
42611W        W10829  31.527  32.363   0.022
42612W        W10830  39.351  21.556   2.812
42613W        W10831  41.768  16.429  12.098
42614W        W10832  12.185   7.495   3.818
42615W        W10833   3.331  12.429   1.957
42616W        W10834  17.115  29.754   4.630
42617W        W10835  42.978  14.791   0.980
42618W        W10836  41.628  28.368   4.870
42619W        W10837  23.131  16.624  14.752
42620W        W10838  40.384   8.917   2.395
42621W        W10839  17.557  32.883   2.940
42622W        W10840   7.201  39.772  14.964
42623W        W10841  33.249   1.204  13.974
42624W        W10842  28.894  28.649  13.341
42625W        W10843  38.116   5.408   3.680
42626W        W10844  38.405   1.507   2.452
42627W        W10845   2.170  39.229   4.173
42628W        W10846  25.966   7.639  13.624
42629W        W10847  29.896  36.988   1.807
42630W        W10848  24.952   7.216   3.125
42631W        W10849   8.636  36.728  13.093
42632W        W10850  25.052  18.066   0.404
42633W        W10851  11.641  33.871  13.316
42634W        W10852  21.941  19.655   3.117
42635W        W10853   2.043  21.824  14.066
42636W        W10854  25.880  35.336  12.013
42637W        W10855  24.448  23.154  11.220
42638W        W10856  13.159  31.995   2.618
42639W        W10857  12.274  15.370   0.390
42640W        W10858  38.314  41.429   2.772
42641W        W10859  21.314  14.670  12.878
42642W        W10860  10.468  27.926  12.095
42643W        W10861   3.844   9.585   0.901
42644W        W10862  17.114  16.633   2.315
42645W        W10863  42.975  13.300  14.519
42646W        W10864  19.769   9.946  13.322
42647W        W10865  12.629  23.531  11.515
42648W        W10866  22.380  27.248   3.237
42649W        W10867  29.449  26.387   1.238
42650W        W10868  31.478   9.186   1.015
42651W        W10869  20.305  31.863  14.960
42652W        W10870  10.928  42.720  12.533
42653W        W10871  22.991  18.863  12.463
42654W        W10872  43.073  43.324  12.439
42655W        W10873  34.064  11.636  14.428
42656W        W10874   3.667  20.053   2.781
42657W        W10875   5.863  34.013   4.361
42658W        W10876  38.153  23.023  10.987
42659W        W10877   7.412   2.186   0.727
42660W        W10878  11.140   9.823  11.719
42661W        W10879   4.581  24.927  11.477
42662W        W10880  35.746  29.454  12.035
42663W        W10881  11.122  27.757  11.633
42664W        W10882  13.233  12.747  14.687
42665W        W10883  26.022  30.120  13.354
42666W        W10884  32.351  20.303   0.951
42667W        W10885  38.719  34.184  13.282
42668W        W10886  28.628  33.918  13.477
42669W        W10887  41.021  12.810   2.416
42670W        W10888  32.245   8.142   1.831
42671W        W10889  39.514  42.459  14.786
42672W        W10890  24.307  20.867   1.630
42673W        W10891   4.192  30.135  11.630
42674W        W10892  31.008   9.411   3.886
42675W        W10893  21.957  15.180  11.872
42676W        W10894   3.659  30.876  14.468
42677W        W10895  20.801  34.390   3.594
42678W        W10896  10.286  36.029   0.565
42679W        W10897  33.288  22.412   4.452
42680W        W10898   8.373  32.440  12.549
42681W        W10899  30.189   7.667   0.716
42682W        W10900  21.504  10.344   4.808
42683W        W10901  31.193   8.446   0.430
42684W        W10902  27.178  38.047   1.361
42685W        W10903  12.853   7.214   3.344
42686W        W10904   2.236  13.604   2.212
42687W        W10905  21.147  10.785  12.620
42688W        W10906  37.827  22.687  11.394
42689W        W10907  29.442  23.583  11.984
42690W        W10908  41.523  29.863   3.331
42691W        W10909  11.329  32.901   1.637
42692W        W10910  30.441  41.011   3.324
42693W        W10911   2.309  32.499   4.595
42694W        W10912  22.786  32.459  13.535
42695W        W10913  24.940  43.390  13.306
42696W        W10914  36.800  38.024  14.571
42697W        W10915   1.409   5.482  13.884
42698W        W10916  32.685  38.390   4.133
42699W        W10917  28.438  20.106   0.373
42700W        W10918  16.805  18.602   1.701
42701W        W10919  18.114  15.196   3.185
42702W        W10920  44.730  39.078  13.869
42703W        W10921   0.823  19.857  12.836
42704W        W10922  42.338  38.974  10.394
42705W        W10923  26.542  12.864   2.455
42706W        W10924  32.330  16.724   2.233
42707W        W10925   3.251  38.277  13.293
42708W        W10926  30.601  10.379   1.255
42709W        W10927   4.454  14.591   3.707
42710W        W10928  26.127  14.507  10.334
42711W        W10929  41.712  31.060  12.541
42712W        W10930  19.216  23.725   1.977
42713W        W10931  36.539  10.404   0.765
42714W        W10932  37.973  33.851   4.005
42715W        W10933  15.177   8.099  13.649
42716W        W10934   6.343  35.825   4.629
42717W        W10935  11.208  30.392   4.929
42718W        W10936  36.029   5.419  14.769
42719W        W10937  33.432  37.460  10.701
42720W        W10938   1.127  24.767  11.334
42721W        W10939  40.109  44.501  11.593
42722W        W10940  36.966  23.600  14.990
42723W        W10941  29.384  16.801   0.835
42724W        W10942  12.093  27.763  11.433
42725W        W10943  13.361  17.879  11.965
42726W        W10944  27.716  27.973  14.259
42727W        W10945  18.774  39.380  11.905
42728W        W10946  11.858  43.455  14.556
42729W        W10947   2.515  18.064   1.928
42730W        W10948  35.287  43.041   0.379
42731W        W10949  14.349  17.630   1.727
42732W        W10950  13.921  25.007  12.463
42733W        W10951   6.594   8.066  14.039
42734W        W10952  20.979  37.081   4.040
42735W        W10953  24.002  40.349  10.679
42736W        W10954  13.106  36.059   3.687
42737W        W10955  27.600  32.532   4.231
42738W        W10956  10.586   3.631  12.379
42739W        W10957  23.216  22.768   3.533
42740W        W10958  18.496  14.076   9.870
42741W        W10959  20.925   2.847   3.277
42742W        W10960  15.986   0.995  10.536
42743W        W10961  19.696   4.476   3.410
42744W        W10962  15.912  26.409   2.641
42745W        W10963  37.466  17.296  13.974
42746W        W10964  38.600  23.123  12.339
42747W        W10965  20.520  16.503   2.637
42748W        W10966  27.691  19.782   0.993
42749W        W10967  40.756  42.641  10.030
42750W        W10968  27.128  38.728  12.469
42751W        W10969  33.468  36.906   3.664
42752W        W10970   2.047  40.566   1.661
42753W        W10971   7.721   9.307   4.489
42754W        W10972   3.250  16.450  12.600
42755W        W10973  38.325   2.897  10.273
42756W        W10974  10.799  41.934   4.523
42757W        W10975  20.983   8.225  12.973
42758W        W10976  31.113  16.608   0.928
42759W        W10977   6.343  18.769   2.271
42760W        W10978  14.253  17.678  14.243
42761W        W10979   8.651   1.442  14.386
42762W        W10980   0.452   4.977  14.441
42763W        W10981  16.115  42.742   0.236
42764W        W10982   3.501  11.973  11.114
42765W        W10983  32.154   8.793   2.802
42766W        W10984  33.974  40.428  11.322
42767W        W10985  27.135   5.905  14.758
42768W        W10986  36.220  10.788  14.003
42769W        W10987   0.002  14.786  11.542
42770W        W10988  16.317  28.965   1.796
42771W        W10989  17.827  13.245   0.040
42772W        W10990  37.618  17.048   3.190
42773W        W10991  37.601   0.999   4.570
42774W        W10992  23.574  43.733   2.226
42775W        W10993  26.809  27.171  14.179
42776W        W10994  24.968  25.188   0.957
42777W        W10995  43.737  40.522   0.936
42778W        W10996  23.495  26.482   4.071
42779W        W10997  31.996  40.766   0.908
42780W        W10998  20.124  13.651  10.656
42781W        W10999  27.081  23.025  13.487
42782W        W11000   4.796  36.391   0.792
42783W        W11001   2.506  32.583  13.594
42784W        W11002  16.575  28.597   1.501
42785W        W11003   8.383   1.319  10.709
42786W        W11004   8.737  17.067   1.909
42787W        W11005  17.992  22.004  14.137
42788W        W11006   5.975  36.160   2.882
42789W        W11007  44.845   7.577  11.225
42790W        W11008  14.083  17.838  12.508
42791W        W11009  30.826  28.209   9.797
42792W        W11010  23.778  19.761   2.351
42793W        W11011  29.149  41.711   2.755
42794W        W11012  24.542   6.338   3.396
42795W        W11013  37.050  23.213   3.697
42796W        W11014   5.165  13.198  13.090
42797W        W11015   6.129  13.253  11.095
42798W        W11016  37.864  29.737  10.468
42799W        W11017   6.320  10.174  14.234
42800W        W11018  16.349   5.826   4.125
42801W        W11019  19.677  44.739   1.388
42802W        W11020  13.868   6.484  12.556
42803W        W11021  44.576  35.046   1.349
42804W        W11022  41.382  14.325   2.843
42805W        W11023   4.680   0.816   3.689
42806W        W11024  30.432  13.687   0.216
42807W        W11025  41.390  25.578   3.576
42808W        W11026  25.323  11.634   2.806
42809W        W11027  39.785   6.406   2.266
42810W        W11028  39.542   3.254   1.850
42811W        W11029  41.493  18.585  12.862
42812W        W11030  35.356  24.507  14.038
42813W        W11031  17.738  33.815   0.197
42814W        W11032   7.630  43.930  13.357
42815W        W11033  21.751  27.625  12.064
42816W        W11034   8.149  38.040  13.810
42817W        W11035  10.113  28.664   4.816
42818W        W11036  17.637   0.433   5.293
42819W        W11037  39.847  15.635  13.859
42820W        W11038  24.234   3.184  11.098
42821W        W11039  44.257  38.953   3.763
42822W        W11040  11.412  38.672  10.347
42823W        W11041  18.107  18.051   4.655
42824W        W11042   1.272   1.538   0.926
42825W        W11043  33.350   4.977  10.422
42826W        W11044  16.266  13.768  14.878
42827W        W11045   3.802   8.948   0.108
42828W        W11046  36.518   3.404  12.481
42829W        W11047  16.195  34.487   4.900
42830W        W11048  11.239  21.788  10.611
42831W        W11049   3.834   9.504  12.799
42832W        W11050  28.579  34.525  12.496
42833W        W11051  34.736  42.713  11.904
42834W        W11052   6.982  19.356   2.868
42835W        W11053  15.548  30.759  10.110
42836W        W11054  18.684  28.354  10.392
42837W        W11055  24.130  40.229  13.937
42838W        W11056  41.813  41.220  11.515
42839W        W11057   0.934   1.093   0.045
42840W        W11058  15.001  12.081  11.181
42841W        W11059  11.811  13.553   1.429
42842W        W11060   8.401  32.973   4.573
42843W        W11061  40.106  22.518  14.103
42844W        W11062  38.146  19.160  11.475
42845W        W11063   6.879   9.764   1.258
42846W        W11064  13.201   9.426  13.779
42847W        W11065  15.715  26.474  14.913
42848W        W11066  27.821  17.244  11.197
42849W        W11067  34.907  33.509  14.633
42850W        W11068   3.536  43.973   1.321
42851W        W11069  24.640  28.143   2.420
42852W        W11070  14.073  18.832   4.118
42853W        W11071  19.144  16.176   3.112
42854W        W11072   4.704   9.577  12.329
42855W        W11073  30.526  44.534   2.732
42856W        W11074  21.293  40.736  11.520
42857W        W11075  21.622  20.706   4.309
42858W        W11076  24.293   4.255  12.393
42859W        W11077  43.798  41.803   3.644
42860W        W11078  28.116   1.502  12.215
42861W        W11079  12.455  43.209  11.446
42862W        W11080  24.907  33.567   0.015
42863W        W11081   0.692  13.395   2.796
42864W        W11082   5.302  27.711  13.078
42865W        W11083  37.502  17.960   2.231
42866W        W11084   2.731  24.284  13.084
42867W        W11085  36.260   1.811  10.384
42868W        W11086   2.477  11.554  14.575
42869W        W11087  17.817   4.862  11.344
42870W        W11088  18.334  29.044  12.570
42871W        W11089  23.562  12.206   1.681
42872W        W11090  33.561  20.190  12.564
42873W        W11091  13.189  14.036   2.852
42874W        W11092  22.408  25.117  11.783
42875W        W11093  30.457  21.126   1.236
42876W        W11094  24.254  12.294  14.008
42877W        W11095  25.111  32.002   3.789
42878W        W11096  15.100   8.558  12.861
42879W        W11097  23.486  25.203  13.121
42880W        W11098   4.738  27.454   1.260
42881W        W11099   4.711  21.729   0.793
42882W        W11100  43.765  27.953   2.744
42883W        W11101  12.772  33.105   1.712
42884W        W11102   3.338  15.210  13.607
42885W        W11103  38.323   6.143   4.181
42886W        W11104   1.913  14.898  14.892
42887W        W11105  30.714  23.655  13.860
42888W        W11106  31.489  33.262  10.904
42889W        W11107  11.396   6.421  14.987
42890W        W11108  23.734   1.567  13.976
42891W        W11109  41.373  11.233  12.522
42892W        W11110  29.522  18.609   0.496
42893W        W11111  21.043  30.693  13.420
42894W        W11112  11.706  42.259   0.349
42895W        W11113  18.463   6.047   0.719
42896W        W11114  32.221  15.739  10.721
42897W        W11115  36.878  13.766  12.307
42898W        W11116  43.250   6.272   2.287
42899W        W11117  26.539  21.121   5.075
42900W        W11118  11.756  35.572  13.350
42901W        W11119  32.886  24.722  12.341
42902W        W11120  31.558  37.594   0.844
42903W        W11121  38.908  32.646   0.188
42904W        W11122  32.613  19.190  10.887
42905W        W11123   0.255   9.778   1.755
42906W        W11124  18.317  27.545  12.125
42907W        W11125   6.380  14.028   4.516
42908W        W11126   5.699  12.252  11.006
42909W        W11127  10.645   6.414  10.723
42910W        W11128  36.836  21.701  13.034
42911W        W11129  17.685  28.195  13.385
42912W        W11130  22.784  31.428   4.501
42913W        W11131  31.325  10.873   4.274
42914W        W11132  44.209   2.648   1.202
42915W        W11133  19.466  37.117   4.150
42916W        W11134  14.482  17.753   4.568
42917W        W11135   3.378   2.079  13.567
42918W        W11136  15.066  37.413   0.389
42919W        W11137  26.529  12.580   4.609
42920W        W11138  42.152  16.367  13.639
42921W        W11139  24.679   8.902  13.166
42922W        W11140   5.328  10.262  14.372
42923W        W11141  29.639   5.752  14.606
42924W        W11142  19.366  32.168  12.380
42925W        W11143  10.112  28.995   2.628
42926W        W11144  10.765  10.240   2.881
42927W        W11145  41.653  21.052  12.039
42928W        W11146  12.591  15.517   1.198
42929W        W11147  18.136   2.842   3.956
42930W        W11148  13.961   1.198  14.119
42931W        W11149  16.362  23.674  12.338
42932W        W11150  40.223  40.989  12.015
42933W        W11151  15.879   1.038  14.046
42934W        W11152  21.295   2.635  11.046
42935W        W11153  12.111  21.170  12.137
42936W        W11154  22.504  28.654   4.150
42937W        W11155  36.846   7.803  13.046
42938W        W11156  27.447   7.633   0.556
42939W        W11157  32.299  40.112  14.481
42940W        W11158  19.585  29.581  13.855
42941W        W11159   3.185  35.459   2.898
42942W        W11160   8.682  35.023   1.995
42943W        W11161  41.802  25.391  10.127
42944W        W11162  31.966   9.706  13.415
42945W        W11163  19.575  14.621   0.105
42946W        W11164  28.146  40.762   2.778
42947W        W11165  40.303   2.023   2.509
42948W        W11166   6.254   7.693   0.857
42949W        W11167  21.505  15.648  14.872
42950W        W11168  39.006   5.976   2.053
42951W        W11169  18.628  25.048  12.406
42952W        W11170  32.414   1.587  14.802
42953W        W11171   6.566   8.892  12.417
42954W        W11172   0.846  29.509   1.402
42955W        W11173   9.926   9.745   1.890
42956W        W11174   3.108  37.213  10.041
42957W        W11175  24.101   2.096   3.521
42958W        W11176  37.991  38.267  10.591
42959W        W11177   0.409   8.182  14.850
42960W        W11178  44.408   4.468   2.260
42961W        W11179  15.806  14.740  13.493
42962W        W11180  16.688  38.375  13.920
42963W        W11181  23.608  31.046   3.883
42964W        W11182  26.246   5.216   2.083
42965W        W11183  33.949  36.342   4.247
42966W        W11184  13.352   4.732   1.895
42967W        W11185  32.644  25.686  13.452
42968W        W11186  14.188   2.529   1.215
42969W        W11187  40.288  36.457   1.752
42970W        W11188  15.334   0.745   2.347
42971W        W11189  38.520  29.969   4.208
42972W        W11190   0.421  18.237   0.946
42973W        W11191  40.622   1.327  13.842
42974W        W11192  33.503  40.569   5.048
42975W        W11193  26.707   5.621  14.912
42976W        W11194  21.032  20.090   1.443
42977W        W11195  43.603  23.569  13.593
42978W        W11196  12.670  28.193  12.033
42979W        W11197  24.786  39.951  11.579
42980W        W11198  20.951  15.102   0.999
42981W        W11199  14.432  35.389  12.012
42982W        W11200   0.357  27.392  12.053
42983W        W11201   9.602  11.656  11.095
42984W        W11202  34.130  30.453   4.538
42985W        W11203  14.623  36.123  10.572
42986W        W11204  15.859   0.338  14.325
42987W        W11205  24.076   2.923  13.525
42988W        W11206  42.894  10.982   1.288
42989W        W11207  20.696  37.579   3.190
42990W        W11208  32.653  30.652  10.499
42991W        W11209  34.062   4.429  11.078
42992W        W11210   3.273  31.413  11.563
42993W        W11211  22.761   0.444   4.583
42994W        W11212  26.088  40.786   2.155
42995W        W11213  25.163  39.558   1.336
42996W        W11214  37.848  21.119   0.050
42997W        W11215  20.823  32.578   9.823
42998W        W11216  22.218  16.987   1.740
42999W        W11217  17.058  29.583   1.194
43000W        W11218  31.602   9.351  13.030
43001W        W11219  37.434  10.895   1.714
43002W        W11220  37.515  15.405  13.925
43003W        W11221   5.138  11.267   0.363
43004W        W11222  12.747  42.290   4.191
43005W        W11223  13.338  29.384   3.615
43006W        W11224  18.851  16.519  14.495
43007W        W11225  29.090  19.068  13.583
43008W        W11226  33.034   5.707   2.357
43009W        W11227  11.030   6.362  13.479
43010W        W11228   0.739   8.369   4.596
43011W        W11229  40.473  25.766  14.339
43012W        W11230  30.917  26.988  10.372
43013W        W11231  43.359  25.692   1.016
43014W        W11232  25.607   3.221  11.250
43015W        W11233  17.766   9.065  14.786
43016W        W11234  31.178  27.487  10.293
43017W        W11235  34.196  39.592   4.121
43018W        W11236  40.074  41.917   1.428
43019W        W11237  35.005   0.787  12.432
43020W        W11238   4.456  22.012   3.170
43021W        W11239  10.428   8.956   2.629
43022W        W11240  42.720  22.533   4.120
43023W        W11241   9.125  13.823  14.798
43024W        W11242  15.710  25.440   2.542
43025W        W11243   2.459  15.532   0.559
43026W        W11244  29.162  12.801   1.992
43027W        W11245  40.078  29.053  13.583
43028W        W11246  38.122  34.580   4.410
43029W        W11247  14.134  36.954  13.093
43030W        W11248  10.291  21.613  10.950
43031W        W11249  23.143  26.174   4.798
43032W        W11250  23.679  15.081  11.068
43033W        W11251  38.335  43.300  10.894
43034W        W11252  33.391  37.181  11.137
43035W        W11253  25.698  26.122  10.566
43036W        W11254  12.135   5.883  11.990
43037W        W11255  31.977   7.466  11.483
43038W        W11256  36.133  18.683   3.251
43039W        W11257  32.493  30.430   0.761
43040W        W11258   0.800  27.129  12.042
43041W        W11259  27.736   0.886   1.294
43042W        W11260   9.530  10.608  14.425
43043W        W11261  20.997  44.675  11.126
43044W        W11262  32.358  42.146  14.703
43045W        W11263  15.149  20.112   4.574
43046W        W11264   0.410  34.004   2.578
43047W        W11265  21.772  39.320  14.418
43048W        W11266  16.722  13.172  10.064
43049W        W11267  17.784  24.250  10.723
43050W        W11268  39.605  35.632   2.119
43051W        W11269  18.293  14.744   4.184
43052W        W11270  10.797  19.276   0.150
43053W        W11271  21.947  13.871   0.194
43054W        W11272  27.292   9.440  11.925
43055W        W11273  39.958  40.267   0.287
43056W        W11274  33.139  30.667  13.913
43057W        W11275  35.605  17.568   0.414
43058W        W11276   1.815  17.195  11.612
43059W        W11277   8.998   5.436   2.563
43060W        W11278  21.695  34.963   2.172
43061W        W11279   2.830  36.976   4.543
43062W        W11280   5.805  27.618  12.990
43063W        W11281  37.075  32.701  10.725
43064W        W11282   9.325  29.644   3.803
43065W        W11283  32.716  38.294   0.927
43066W        W11284   3.234  27.056   0.894
43067W        W11285  32.348  29.662  10.990
43068W        W11286  43.581  42.933   2.710
43069W        W11287   9.502  33.483   0.430
43070W        W11288  33.696   2.758  12.667
43071W        W11289   4.675   2.995   4.241
43072W        W11290  14.585  42.497   2.441
43073W        W11291  10.331  29.907   2.594
43074W        W11292  18.266   1.872   3.212
43075W        W11293  29.155  13.678  10.457
43076W        W11294  23.945  39.490   3.182
43077W        W11295  22.119   2.927   2.132
43078W        W11296  35.345  20.212   0.726
43079W        W11297  32.833  23.838  12.150
43080W        W11298  34.891  21.195   0.627
43081W        W11299  31.398  32.014   3.035
43082W        W11300  24.143   0.989   4.052
43083W        W11301  24.203  11.216   2.609
43084W        W11302   5.163   5.658   4.121
43085W        W11303  38.237   8.164  11.540
43086W        W11304  23.335  11.369   3.181
43087W        W11305   5.840  12.589   3.918
43088W        W11306  31.536  16.375   0.663
43089W        W11307  36.847  30.472  13.808
43090W        W11308  35.973  29.413  10.084
43091W        W11309  23.490  19.081   2.639
43092W        W11310   9.146  23.144   4.986
43093W        W11311  24.558  40.250   1.367
43094W        W11312   9.420   1.867  12.847
43095W        W11313   2.300  34.466  10.682
43096W        W11314  42.905  25.522   0.773
43097W        W11315  43.467  30.022  13.165
43098W        W11316  38.381   2.452  13.470
43099W        W11317  19.258  32.661  11.510
43100W        W11318   8.678   0.062  10.945
43101W        W11319  28.435  32.899  14.110
43102W        W11320  16.412  28.791   3.195
43103W        W11321  43.025  22.948   4.134
43104W        W11322  22.927  30.108   3.138
43105W        W11323  13.327   4.722   0.947
43106W        W11324  13.703  10.834   4.052
43107W        W11325  29.456  28.420  10.674
43108W        W11326  15.349   9.981  13.369
43109W        W11327  32.789  40.328  14.484
43110W        W11328  39.285  29.027   4.786
43111W        W11329   8.065   0.049   4.244
43112W        W11330   2.818   1.543   0.068
43113W        W11331  33.260   0.247  13.964
43114W        W11332  15.545  43.270  10.294
43115W        W11333  26.943   9.830  14.200
43116W        W11334   1.051  42.968  10.340
43117W        W11335  33.456  44.362  11.905
43118W        W11336  43.350  32.122  12.110
43119W        W11337  23.770  40.819  12.407
43120W        W11338  13.205  22.122   0.370
43121W        W11339  41.346  31.207   3.656
43122W        W11340  24.570  20.526   1.355
43123W        W11341  41.783  41.142  14.418
43124W        W11342   4.213   8.666   1.531
43125W        W11343  34.664   5.569   3.050
43126W        W11344  17.228   8.265  13.755
43127W        W11345  21.663  34.768  14.721
43128W        W11346  35.494  20.809   4.636
43129W        W11347  16.503  12.710  13.612
43130W        W11348   3.915  13.642   3.348
43131W        W11349   9.123  40.556   2.130
43132W        W11350  38.041  43.567   3.325
43133W        W11351   5.420  21.186   2.793
43134W        W11352  14.519  31.114  14.565
43135W        W11353  34.834  25.262  13.688
43136W        W11354  44.741  21.628  14.480
43137W        W11355  20.253  15.834   4.133
43138W        W11356  10.274   2.431   2.314
43139W        W11357  32.514  30.104   2.399
43140W        W11358  28.659  26.204   3.760
43141W        W11359  20.644  44.926  13.599
43142W        W11360   7.982   1.235   2.630
43143W        W11361  16.297  16.849   3.347
43144W        W11362  21.218   3.712   1.936
43145W        W11363   4.316  21.130  13.300
43146W        W11364   6.515  31.053   3.289
43147W        W11365  18.041  33.010  13.015
43148W        W11366  20.164  21.641   3.653
43149W        W11367   2.966   0.776  12.837
43150W        W11368  15.556  40.559  13.508
43151W        W11369  18.359  33.767   2.518
43152W        W11370  40.492   2.257  12.420
43153W        W11371   5.296  15.317  12.726
43154W        W11372  19.057  39.310  14.892
43155W        W11373  22.545  20.168   4.381
43156W        W11374  38.027   2.987  13.819
43157W        W11375  39.849  38.320   3.675
43158W        W11376  30.443   8.771   0.262
43159W        W11377  19.607  17.169   1.606
43160W        W11378   5.928  27.236   3.178
43161W        W11379  14.150  21.291   2.334
43162W        W11380  13.788   2.402   0.284
43163W        W11381  15.625   3.611   2.045
43164W        W11382  22.059   0.390   2.744
43165W        W11383  10.798  25.455  12.566
43166W        W11384   5.945  21.883  13.488
43167W        W11385  35.322  17.134  11.569
43168W        W11386  29.474  40.298   2.749
43169W        W11387  11.876  37.965   2.382
43170W        W11388  31.675  40.879  13.452
43171W        W11389  22.015  34.995   3.318
43172W        W11390  15.553  35.783   2.011
43173W        W11391  28.587  29.959  11.665
43174W        W11392   8.322  38.890  12.825
43175W        W11393   5.935   6.591  13.764
43176W        W11394  17.286  18.938  11.808
43177W        W11395   3.211  20.862   4.623
43178W        W11396  25.440  15.650  10.261
43179W        W11397   9.912   4.520  11.577
43180W        W11398  38.380  13.255  14.859
43181W        W11399  29.972  20.235   0.775
43182W        W11400   1.936  24.424  10.651
43183W        W11401  22.282   5.162  11.101
43184W        W11402  20.279   0.060   3.631
43185W        W11403  23.125  11.376  11.050
43186W        W11404  44.408  17.166   3.988
43187W        W11405   0.733  15.356  11.604
43188W        W11406  11.078  29.643   4.234
43189W        W11407   7.926   6.139   4.157
43190W        W11408  24.672  18.318  13.069
43191W        W11409  33.963  20.790  14.963
43192W        W11410  33.494  36.414  14.421
43193W        W11411   5.990  41.411  13.902
43194W        W11412  12.730  34.419   3.243
43195W        W11413   7.321  25.504   2.687
43196W        W11414  31.900  23.161  10.672
43197W        W11415  34.601  41.317   0.026
43198W        W11416  44.349  39.468   3.227
43199W        W11417  29.816   7.172   4.637
43200W        W11418  41.787   3.318   4.658
43201W        W11419   7.700  16.190  10.965
43202W        W11420  30.384   9.714   0.486
43203W        W11421   5.236  32.617   2.816
43204W        W11422  18.016   1.340  12.291
43205W        W11423   5.217  15.723  13.488
43206W        W11424  18.052  19.334   1.551
43207W        W11425  31.199  17.038  14.502
43208W        W11426   9.317  22.656  13.801
43209W        W11427  32.568  31.591  11.381
43210W        W11428  44.947   8.431   3.817
43211W        W11429   0.723  35.494   0.076
43212W        W11430  10.377  37.515   0.919
43213W        W11431  44.296   9.717  10.665
43214W        W11432   6.312  12.381  12.417
43215W        W11433  30.110   1.542  14.440
43216W        W11434  39.474   5.994   1.752
43217W        W11435  32.416  19.792   0.981
43218W        W11436  19.233  27.631  10.764
43219W        W11437  24.242   2.307   3.089
43220W        W11438   2.212  11.711  13.629
43221W        W11439  43.025  17.304  13.195
43222W        W11440  33.243  42.844  10.155
43223W        W11441   2.284   9.390   2.336
43224W        W11442  25.485  16.573  12.877
43225W        W11443  38.973  29.705  11.946
43226W        W11444  27.071   0.788   3.788
43227W        W11445  43.938  26.945   3.157
43228W        W11446  27.364  22.067   1.240
43229W        W11447  41.055  23.974   2.457
43230W        W11448  31.406  13.666   2.776
43231W        W11449   5.407   5.794   1.027
43232W        W11450  28.974  37.984   4.155
43233W        W11451   4.990   9.619   2.861
43234W        W11452  17.801  12.175  12.573
43235W        W11453  37.266  24.260   0.484
43236W        W11454  21.503  31.348   5.032
43237W        W11455   2.968   2.747  10.768
43238W        W11456  42.017  24.096  14.505
43239W        W11457  16.130  32.510  11.897
43240W        W11458  42.935  44.920   1.660
43241W        W11459   8.271  14.586  10.286
43242W        W11460  43.991  33.654   3.867
43243W        W11461  13.322   3.794  14.427
43244W        W11462  17.063  22.941  10.738
43245W        W11463  29.309   2.879  11.141
43246W        W11464   9.222  13.915  12.068
43247W        W11465  23.582  10.878  14.971
43248W        W11466  27.941  39.789   1.872
43249W        W11467  32.498  44.804  13.436
43250W        W11468  16.191   3.987  14.298
43251W        W11469  22.388  40.569  10.764
43252W        W11470   6.936  29.035  14.971
43253W        W11471  20.780  33.573   0.908
43254W        W11472  36.496  15.071   3.644
43255W        W11473  16.544  32.475   3.648
43256W        W11474  30.472  39.346   0.530
43257W        W11475  29.599  20.776  10.552
43258W        W11476  24.190  28.745   0.971
43259W        W11477  42.883   9.877  12.208
43260W        W11478  14.570   9.622  13.647
43261W        W11479  23.520  26.163   0.947
43262W        W11480  16.677  42.467   2.933
43263W        W11481  39.118  28.947  14.502
43264W        W11482  21.678   7.485   3.432
43265W        W11483   4.899   5.867  10.191
43266W        W11484   5.127  30.529  14.711
43267W        W11485  38.485  33.384  12.157
43268W        W11486  34.619  39.842  12.689
43269W        W11487  30.508   5.322  12.019
43270W        W11488  15.541   5.353  13.689
43271W        W11489  42.357  28.956   3.576
43272W        W11490  23.223  11.341  13.293
43273W        W11491  11.610  41.404  10.396
43274W        W11492  21.744  18.388   3.878
43275W        W11493  35.033  40.498  13.029
43276W        W11494  22.742  25.028   3.770
43277W        W11495   0.822  25.425   4.574
43278W        W11496   6.876   0.188   0.489
43279W        W11497  42.702  24.849  11.117
43280W        W11498  42.279  38.467   4.165
43281W        W11499   5.870  25.466  11.200
43282W        W11500  37.857   0.630  13.524
43283W        W11501  15.844   6.720   3.672
43284W        W11502  31.570  39.168  12.863
43285W        W11503  39.609  34.623  13.429
43286W        W11504   6.904   6.833  12.059
43287W        W11505   0.850  40.486  14.928
43288W        W11506  36.961   6.976   0.009
43289W        W11507   0.769  29.822  11.165
43290W        W11508  18.066  24.736   3.153
43291W        W11509  37.677  12.145  13.046
43292W        W11510  14.083  16.973   3.644
43293W        W11511  20.013  22.660   2.214
43294W        W11512  22.745  42.451  12.499
43295W        W11513  37.544  18.988  14.962
43296W        W11514  17.159  31.684  10.627
43297W        W11515   3.912  24.641  13.999
43298W        W11516  18.794  18.259  11.130
43299W        W11517  25.388  32.373  12.846
43300W        W11518  12.135  29.561   1.717
43301W        W11519  38.330  10.804  12.927
43302W        W11520  24.876  16.632  14.343
43303W        W11521  16.123  26.151  10.716
43304W        W11522  38.756  28.014   1.492
43305W        W11523  15.855  24.478   0.909
43306W        W11524   8.889  36.372   2.726
43307W        W11525  10.250  24.734  12.163
43308W        W11526  41.774  35.998   2.743
43309W        W11527  39.895  43.821  13.901
43310W        W11528  25.108  44.675   2.358
43311W        W11529  31.461   5.846  12.946
43312W        W11530  33.005  20.323   4.699
43313W        W11531  27.198  42.285   4.199
43314W        W11532   2.875  13.362   1.868
43315W        W11533   8.633  12.891   3.248
43316W        W11534  38.671  37.871   0.232
43317W        W11535  22.270  37.652   0.419
43318W        W11536   2.853  33.476  10.736
43319W        W11537  35.925  32.150   4.886
43320W        W11538  37.095   4.875  11.610
43321W        W11539  30.341  37.570   2.322
43322W        W11540  40.822  41.822  14.326
43323W        W11541  20.045  11.228   2.851
43324W        W11542  24.422  35.457   0.789
43325W        W11543  21.921  44.960  14.388
43326W        W11544  34.358  37.564  14.280
43327W        W11545  24.264   4.265  14.365
43328W        W11546  26.988  11.175  11.578
43329W        W11547  42.897  12.200  10.484
43330W        W11548  26.284   4.313   2.278
43331W        W11549  43.273  42.000  14.739
43332W        W11550  21.171  36.843   2.239
43333W        W11551  42.087  42.093  14.478
43334W        W11552   5.748  21.538   2.289
43335W        W11553  20.892  40.469  10.621
43336W        W11554  31.576   0.320   4.776
43337W        W11555  43.957  41.308  10.933
43338W        W11556  18.468  11.358  12.044
43339W        W11557  20.747   3.277   3.744
43340W        W11558  39.928  17.080   0.457
43341W        W11559  13.322  36.384   1.357
43342W        W11560  35.383  35.815   2.637
43343W        W11561  30.934   2.675  11.961
43344W        W11562  25.578  33.838   1.990
43345W        W11563  17.076  39.312  11.551
43346W        W11564  19.201  20.876  13.986
43347W        W11565   3.126   8.183  14.770
43348W        W11566  12.255  39.005   2.246
43349W        W11567  17.772  38.354   2.723
43350W        W11568  23.678  18.332   1.319
43351W        W11569   1.223  14.568  10.908
43352W        W11570  16.376   3.148   1.891
43353W        W11571  39.378  21.467  13.920
43354W        W11572  30.337  28.907   0.472
43355W        W11573  19.526  16.087   0.562
43356W        W11574  44.404  16.711   3.712
43357W        W11575  40.888  10.451   0.376
43358W        W11576   5.613  34.474  13.096
43359W        W11577  24.001  22.172   3.220
43360W        W11578  23.090  13.149   1.716
43361W        W11579  21.982   6.309   2.089
43362W        W11580  37.425   1.994  14.839
43363W        W11581  21.092   7.047  12.418
43364W        W11582  44.286  35.913  11.598
43365W        W11583  23.063  21.874   3.950
43366W        W11584  40.506  16.666   3.792
43367W        W11585  24.544  38.770   1.299
43368W        W11586  32.995  41.324  12.310
43369W        W11587   0.104   1.711  12.497
43370W        W11588  13.317   0.684   1.301
43371W        W11589  41.142  36.274   4.490
43372W        W11590  26.862  34.959   4.457
43373W        W11591  15.775  43.269   3.853
43374W        W11592  34.985   1.029  11.941
43375W        W11593  44.382  16.077   4.495
43376W        W11594   7.190  29.904   2.230
43377W        W11595  17.825  35.213  14.059
43378W        W11596  10.280  38.542   3.584
43379W        W11597  41.333  43.834  10.752
43380W        W11598  13.200  34.197   3.276
43381W        W11599   6.216   8.807  12.869
43382W        W11600  28.428  41.767   1.399
43383W        W11601  16.776   4.263  11.465
43384W        W11602   3.154   9.129  11.144
43385W        W11603  30.358   7.432  11.036
43386W        W11604  22.589   5.197  11.526
43387W        W11605   1.978  37.569  14.542
43388W        W11606  17.336  42.768  11.686
43389W        W11607  28.591  30.596  13.487
43390W        W11608   4.662  40.596   3.673
43391W        W11609  42.497   8.515  13.042
43392W        W11610  17.498  22.165  12.508
43393W        W11611  43.788  22.545  13.331
43394W        W11612   0.490   0.164   4.327
43395W        W11613  33.395  16.169  12.471
43396W        W11614  39.019   6.450   3.318
43397W        W11615  31.369  28.691   3.698
43398W        W11616  35.501  13.543  11.002
43399W        W11617  19.833  10.423   1.838
43400W        W11618   2.490  19.662  13.500
43401W        W11619   4.583   4.046   2.844
43402W        W11620  12.697  28.990  13.353
43403W        W11621  22.044  35.154  14.744
43404W        W11622  12.596  27.164   4.697
43405W        W11623  10.882  35.694  11.479
43406W        W11624  40.593  23.776  12.097
43407W        W11625  23.915  16.121  11.427
43408W        W11626   6.060  26.239  11.481
43409W        W11627  15.473  19.289  13.555
43410W        W11628  20.983  33.081  11.610
43411W        W11629   6.925  44.872  11.013
43412W        W11630  32.370  20.915  13.873
43413W        W11631  30.212  38.349  11.979
43414W        W11632  26.260  44.364   4.278
43415W        W11633  13.163  18.605  10.380
43416W        W11634   7.291  29.423   1.994
43417W        W11635  17.381  10.608   3.934
43418W        W11636   8.143   3.165  10.682
43419W        W11637  27.713  22.908  13.982
43420W        W11638  33.387   9.307   1.180
43421W        W11639  43.049   4.902  11.961
43422W        W11640  38.142  37.635  14.882
43423W        W11641  18.201  18.588   2.507
43424W        W11642   8.911   0.898  13.102
43425W        W11643  33.325  24.997   1.242
43426W        W11644  30.454   6.911  11.127
43427W        W11645  17.776  35.562  10.748
43428W        W11646   2.691  32.660  11.447
43429W        W11647  40.113  27.940  14.467
43430W        W11648  39.356   5.063   4.240
43431W        W11649  17.666  25.208  13.971
43432W        W11650  17.279  26.771  11.411
43433W        W11651   5.290   1.328   4.213
43434W        W11652  21.504  15.388  12.048
43435W        W11653  34.834  13.188   3.766
43436W        W11654  22.084  41.573  14.271
43437W        W11655  28.162   8.295   0.439
43438W        W11656  23.291  35.999   3.381
43439W        W11657  14.114   6.872   1.283
43440W        W11658  18.654  26.873  14.354
43441W        W11659   0.721  27.446   0.337
43442W        W11660  17.864  11.741   1.773
43443W        W11661  13.630  20.109  12.404
43444W        W11662  20.591  43.400   1.855
43445W        W11663   1.718   1.027  13.381
43446W        W11664  14.744  20.983   0.299
43447W        W11665  35.508  37.459   4.988
43448W        W11666  34.089  35.455  14.626
43449W        W11667   5.443  44.242   3.178
43450W        W11668  42.526  27.672  11.629
43451W        W11669  24.105  28.323  11.710
43452W        W11670  25.726  31.356  12.903
43453W        W11671  18.216  37.287  10.147
43454W        W11672  31.088  11.738   3.641
43455W        W11673  25.619  39.306  12.028
43456W        W11674   9.431  28.921  10.763
43457W        W11675  10.852  28.035  14.005
43458W        W11676  29.086  20.567  10.688
43459W        W11677  29.000  32.506  13.929
43460W        W11678  15.532   6.400  13.058
43461W        W11679  29.136   7.758  13.536
43462W        W11680  32.618  18.191  14.874
43463W        W11681  43.310  44.610   1.855
43464W        W11682  26.913  42.933  11.959
43465W        W11683  23.071  41.260   4.644
43466W        W11684  12.770   9.755  11.588
43467W        W11685  22.610  27.464  10.759
43468W        W11686   2.554  22.665   1.196
43469W        W11687  35.012  26.970  13.074
43470W        W11688   7.906  36.230   4.343
43471W        W11689  18.605  33.586  10.233
43472W        W11690  10.196   5.709   0.962
43473W        W11691  40.991  29.486   3.142
43474W        W11692  35.471  44.111   3.138
43475W        W11693  13.684   0.958   2.202
43476W        W11694  13.114  29.362  14.850
43477W        W11695   4.126  27.386  14.393
43478W        W11696  34.598  23.903   0.321
43479W        W11697  42.826  22.394   3.150
43480W        W11698   9.178  18.688   0.465
43481W        W11699  32.072   6.429  11.319
43482W        W11700  22.309   0.726  12.394
43483W        W11701  21.273  28.988   4.618
43484W        W11702  43.756  42.263   0.486
43485W        W11703  43.443  31.287  14.932
43486W        W11704  28.419  26.543  11.491
43487W        W11705   4.643  23.791  13.481
43488W        W11706  29.002  39.373  14.299
43489W        W11707  44.045  41.416   1.015
43490W        W11708  39.959   3.200   0.424
43491W        W11709  43.735  35.000  11.929
43492W        W11710  36.369  30.527   0.852
43493W        W11711  37.490  28.156  11.993
43494W        W11712   6.721  44.092  12.865
43495W        W11713  28.227  38.457  10.611
43496W        W11714  31.126  37.096   3.974
43497W        W11715   1.977  24.831  13.035
43498W        W11716  33.970  26.627   4.122
43499W        W11717  23.648  12.777   1.434
43500W        W11718  25.560   7.648  14.371
43501W        W11719   0.656   5.685  13.163
43502W        W11720  18.533  38.736  13.654
43503W        W11721   3.725  19.364  11.140
43504W        W11722  20.029  10.345   2.380
43505W        W11723   7.212  34.539  13.080
43506W        W11724  40.461   4.157  14.409
43507W        W11725   5.444  14.914  13.595
43508W        W11726  40.248   7.398  12.883
43509W        W11727  44.913  44.122  13.560
43510W        W11728  43.797  34.051  13.318
43511W        W11729   5.014  23.602   4.749
43512W        W11730  24.508  36.436   0.192
43513W        W11731   3.596  40.437   3.230
43514W        W11732  41.826   1.010   0.409
43515W        W11733   4.364  24.484  14.370
43516W        W11734  35.510  30.271   9.886
43517W        W11735   2.442  44.925  11.599
43518W        W11736  38.861   9.949   2.352
43519W        W11737  31.923  29.615   4.875
43520W        W11738  41.251   8.215  11.176
43521W        W11739  15.175  13.897   3.286
43522W        W11740  14.300  33.280  11.333
43523W        W11741  25.933  29.068   2.805
43524W        W11742  30.817  30.055   0.466
43525W        W11743  25.684  37.220  12.755
43526W        W11744  33.115   5.394   4.728
43527W        W11745  41.052  25.047  10.516
43528W        W11746  10.164  39.973   5.101
43529W        W11747  26.554   1.919   2.137
43530W        W11748  25.174  16.467   2.917
43531W        W11749  39.890   7.586   4.263
43532W        W11750  39.951   1.034   2.530
43533W        W11751  20.246  27.815  14.324
43534W        W11752  30.952  27.129  11.172
43535W        W11753  14.887  16.395  14.040
43536W        W11754   7.631  22.920  13.679
43537W        W11755   4.853   6.393  12.162
43538W        W11756  15.809  10.168  14.041
43539W        W11757  40.567  10.136  11.521
43540W        W11758  27.150   0.032   1.477
43541W        W11759  23.416  11.800  13.118
43542W        W11760  29.226   0.930  12.261
43543W        W11761  36.811  41.082  12.866
43544W        W11762   1.442   4.000  10.679
43545W        W11763   1.746  35.078  12.171
43546W        W11764  16.675  32.929  11.621
43547W        W11765   4.478   0.510   1.711
43548W        W11766   0.214  36.012  13.917
43549W        W11767   1.372   8.869   2.251
43550W        W11768  34.624  17.618  11.912
43551W        W11769  25.617  17.160   3.295
43552W        W11770  39.049  33.966  13.802
43553W        W11771  38.458  32.482  10.816
43554W        W11772  44.464  32.271  12.938
43555W        W11773  43.864  43.289   2.414
43556W        W11774  19.068  35.555   2.375
43557W        W11775  31.872   0.694   4.945
43558W        W11776  16.996  16.525   0.510
43559W        W11777   5.100  38.904   1.337
43560W        W11778   6.460   0.366   3.543
43561W        W11779   1.979  41.554  12.161
43562W        W11780  18.799  30.048  14.842
43563W        W11781  18.363  19.636  12.165
43564W        W11782  12.320  32.792   3.970
43565W        W11783   7.512  22.209   0.873
43566W        W11784  31.550  15.273  14.173
43567W        W11785  42.729   6.375  11.199
43568W        W11786  42.504  34.259  10.920
43569W        W11787  41.531  39.759   1.906
43570W        W11788  27.086  38.062   3.173
43571W        W11789  35.087  22.325   1.236
43572W        W11790  22.050  12.279  13.003
43573W        W11791  42.707  40.456   2.885
43574W        W11792  24.991  38.488   1.891
43575W        W11793  28.114  11.140   3.323
43576W        W11794  38.432  38.290  12.949
43577W        W11795  19.092  13.122  11.436
43578W        W11796  41.140   7.279   2.754
43579W        W11797   5.150   0.105  14.487
43580W        W11798  44.417  42.797   1.458
43581W        W11799  21.423  38.263   0.512
43582W        W11800   6.402  19.934   1.360
43583W        W11801  26.699   9.332   3.214
43584W        W11802  24.089  19.119  13.036
43585W        W11803   2.314  41.464  13.355
43586W        W11804  28.051  24.406  14.312
43587W        W11805  24.710   3.368   3.289
43588W        W11806   4.739   6.228  10.911
43589W        W11807  20.250  15.667  14.965
43590W        W11808  21.672   6.942  11.481
43591W        W11809  19.111  43.788  13.379
43592W        W11810   9.283   6.925  12.942
43593W        W11811  27.090  17.066   2.260
43594W        W11812  41.152  26.686  12.189
43595W        W11813  36.637   5.254  10.739
43596W        W11814  33.195  25.448   0.266
43597W        W11815   5.891  30.914  13.485
43598W        W11816   1.284  23.291   2.264
43599W        W11817  13.617  23.226  12.107
43600W        W11818  41.863  43.855   4.206
43601W        W11819  18.536  31.991   4.067
43602W        W11820   9.912  33.191  11.921
43603W        W11821   0.670  44.359   4.622
43604W        W11822  22.677  32.410   2.667
43605W        W11823   9.861  31.574  14.003
43606W        W11824  41.921   6.242   3.205
43607W        W11825  33.040  19.134   3.013
43608W        W11826  30.054   1.965  11.396
43609W        W11827  30.723   1.317  13.444
43610W        W11828  21.697  10.708   2.885
43611W        W11829   4.132  17.197  11.882
43612W        W11830  36.330  43.396   2.312
43613W        W11831  16.251   7.095   3.351
43614W        W11832  22.587   9.386  13.517
43615W        W11833  30.490   0.181  12.561
43616W        W11834  14.839  12.686   2.247
43617W        W11835  34.908  36.354  10.967
43618W        W11836  12.562  26.025   0.078
43619W        W11837  30.964  11.571  14.109
43620W        W11838  43.867   0.546   1.388
43621W        W11839  38.110  27.782   0.264
43622W        W11840  21.238  18.488  11.128
43623W        W11841  15.215  13.136  14.405
43624W        W11842  24.157  26.598   4.590
43625W        W11843  42.608  26.106  12.947
43626W        W11844  20.731  33.477   1.762
43627W        W11845  35.567  40.253   1.032
43628W        W11846   3.035  28.528  14.935
43629W        W11847  24.360  39.604   0.993
43630W        W11848   1.001  42.846  14.037
43631W        W11849  24.159  24.194   0.458
43632W        W11850  32.141  14.239   2.308
43633W        W11851  30.503   0.860   1.620
43634W        W11852  28.695  29.768   3.568
43635W        W11853  34.342  10.768  10.541
43636W        W11854  27.015   3.393  13.641
43637W        W11855  14.173  12.563   4.638
43638W        W11856  33.583   7.769   3.770
43639W        W11857  41.755   0.787   3.174
43640W        W11858  24.753  27.411   4.414
43641W        W11859  10.214   6.399  12.919
43642W        W11860  19.944   0.310   3.303
43643W        W11861   1.436  14.538  13.442
43644W        W11862  33.970   4.200  12.051
43645W        W11863  21.750  33.227  10.598
43646W        W11864  12.535  11.328   4.375
43647W        W11865  18.754  15.798   5.173
43648W        W11866   7.652  41.890   4.300
43649W        W11867  32.444   5.917   4.603
43650W        W11868  19.665  10.036  11.154
43651W        W11869  12.284  31.498   4.067
43652W        W11870   2.932  42.963  12.973
43653W        W11871  10.238  15.558   2.215
43654W        W11872  42.593  12.148  12.909
43655W        W11873  16.756   5.485   4.063
43656W        W11874  23.612  30.344  13.428
43657W        W11875   8.449  38.337   0.842
43658W        W11876  13.113  34.735   0.778
43659W        W11877  44.904  28.688   1.316
43660W        W11878  38.453  15.251   3.265
43661W        W11879  13.697  12.723  14.906
43662W        W11880  42.905  27.850  12.468
43663W        W11881  34.675   7.070   3.190
43664W        W11882   2.913  34.962   2.147
43665W        W11883  25.533  18.828   0.191
43666W        W11884  15.877  39.560   2.642
43667W        W11885  27.051  11.407  10.710
43668W        W11886   0.931  21.696  11.383
43669W        W11887  13.881  34.096  13.997
43670W        W11888  34.387  13.937  11.567
43671W        W11889  20.972  38.502   2.128
43672W        W11890  25.603   8.214  12.422
43673W        W11891  30.858  38.627   0.434
43674W        W11892  11.382  27.620   0.801
43675W        W11893   1.057  13.563   3.263
43676W        W11894   9.327  37.955   2.321
43677W        W11895  20.664  21.275  13.961
43678W        W11896  43.113  24.252   4.552
43679W        W11897  27.701  29.218   1.275
43680W        W11898  24.426  20.368  11.141
43681W        W11899  10.512  13.195  14.561
43682W        W11900   5.217  29.634   4.395
43683W        W11901  28.705  32.046  13.955
43684W        W11902  42.472  32.032   2.726
43685W        W11903  33.860  30.023   4.602
43686W        W11904  36.879  43.903   2.858
43687W        W11905  35.473  42.919  10.710
43688W        W11906  26.131  20.557  14.788
43689W        W11907  32.470  42.303  10.796
43690W        W11908  12.409  31.018  13.898
43691W        W11909  36.293  23.117  12.085
43692W        W11910  36.580  12.601  13.010
43693W        W11911  39.054  13.245   0.172
43694W        W11912  33.528   5.460   0.174
43695W        W11913  42.703  25.488   4.218
43696W        W11914  24.715  12.447  13.807
43697W        W11915  29.998  39.417   0.302
43698W        W11916  15.025  17.341  14.853
43699W        W11917   6.937  29.687   2.693
43700W        W11918  44.453  33.923  12.499
43701W        W11919   9.101  29.151  12.493
43702W        W11920  17.814  36.916   3.071
43703W        W11921  40.518  27.535  12.542
43704W        W11922  30.061   7.917  11.143
43705W        W11923   4.701  44.256  10.583
43706W        W11924  38.137  16.647  13.894
43707W        W11925  42.898  35.012  11.399
43708W        W11926   9.348  10.305   3.373
43709W        W11927   7.806  23.590  10.788
43710W        W11928  38.469   9.455   2.804
43711W        W11929  22.626  23.725  11.620
43712W        W11930   8.878  27.388  10.918
43713W        W11931  22.396  19.168  12.904
43714W        W11932  26.687  21.781   4.928
43715W        W11933  28.954  25.071   0.111
43716W        W11934  34.850  11.361   4.097
43717W        W11935   8.204   4.931   4.932
43718W        W11936  26.055   6.131  11.965
43719W        W11937   7.815  16.541  12.050
43720W        W11938  17.050  12.590  11.205
43721W        W11939  21.670  26.265   4.657
43722W        W11940  34.917  31.363   2.205
43723W        W11941  11.801  44.267   1.794
43724W        W11942  25.610  37.054  14.171
43725W        W11943  40.438   5.415  11.220
43726W        W11944   3.240   0.185   4.612
43727W        W11945   9.640  40.239  13.823
43728W        W11946  34.633  22.264  11.149
43729W        W11947   3.553  15.170  12.581
43730W        W11948  20.494  21.096  10.966
43731W        W11949  41.164  18.213   5.135
43732W        W11950  10.037   0.256  13.362
43733W        W11951  28.975  10.578  14.402
43734W        W11952  25.051  29.017  14.938
43735W        W11953  15.588  14.980  12.077
43736W        W11954  27.814   7.100  12.147
43737W        W11955  26.920  31.978   4.266
43738W        W11956  10.863  20.122   0.252
43739W        W11957  28.136   5.941   1.283
43740W        W11958  32.615   8.970   2.705
43741W        W11959  19.593  44.233   1.362
43742W        W11960  38.306  14.862   2.287
43743W        W11961  43.392  11.553  12.766
43744W        W11962  43.709  21.040   2.699
43745W        W11963  29.491   2.706  14.719
43746W        W11964  20.344  32.312   0.287
43747W        W11965  22.062  35.533   0.155
43748W        W11966   0.373   4.858   3.666
43749W        W11967  28.941  37.004   0.967
43750W        W11968  37.364  36.539   3.737
43751W        W11969  18.258  36.110   4.128
43752W        W11970  33.065   8.723  11.633
43753W        W11971  12.276  33.322   1.788
43754W        W11972  37.563  21.422   1.829
43755W        W11973  40.340  19.512   2.243
43756W        W11974  17.551  38.019   2.267
43757W        W11975  29.147  35.820  12.470
43758W        W11976  44.888   2.772  13.303
43759W        W11977   8.639  20.822  11.527
43760W        W11978  21.822  33.578   0.901
43761W        W11979   1.557  21.685   3.658
43762W        W11980  27.465  36.885  12.960
43763W        W11981   0.827  19.502   3.362
43764W        W11982   1.137  38.462  14.240
43765W        W11983  32.418  44.625  11.106
43766W        W11984  38.628   8.277   0.623
43767W        W11985  11.413  40.099   4.529
43768W        W11986  41.843  18.757  11.965
43769W        W11987  27.578   1.558  13.521
43770W        W11988  42.986   4.698  12.890
43771W        W11989  16.976  33.121  13.941
43772W        W11990  16.963  26.895  13.407
43773W        W11991  43.352  13.439   3.973
43774W        W11992  11.890  20.316   0.366
43775W        W11993  30.987  20.253  14.356
43776W        W11994  39.244  17.789   4.206
43777W        W11995  21.570  38.195   3.402
43778W        W11996  26.767  20.529   3.894
43779W        W11997  26.936  19.780  11.484
43780W        W11998  13.805  18.885   1.455
43781W        W11999  18.510   2.061   0.287
43782W        W12000  20.473   7.288  12.955
43783W        W12001   3.160   8.603  14.394
43784W        W12002  29.429  11.619  12.583
43785W        W12003  41.779   8.354  13.428
43786W        W12004  32.289  27.620  11.221
43787W        W12005  12.677  40.508  10.614
43788W        W12006  22.250  17.058  13.891
43789W        W12007  44.884  36.828   1.213
43790W        W12008  36.378  11.863   1.879
43791W        W12009  13.056  25.008   3.305
43792W        W12010   9.925   0.454   0.743
43793W        W12011  32.537  35.809  14.133
43794W        W12012  16.120  19.056   3.814
43795W        W12013  22.728   5.456   0.092
43796W        W12014  35.981  24.068   4.069
43797W        W12015  29.482  42.320  13.570
43798W        W12016  30.502  18.298   2.047
43799W        W12017  11.334   1.929  10.664
43800W        W12018  10.678   7.889  14.894
43801W        W12019  44.967  31.562   4.122
43802W        W12020  40.564  14.223  12.400
43803W        W12021  24.055  11.758  13.159
43804W        W12022  34.631  18.605  11.548
43805W        W12023  33.457  33.460  12.907
43806W        W12024  13.865  13.316  14.548
43807W        W12025  21.630  19.203   4.567
43808W        W12026   7.821  43.341  11.201
43809W        W12027  25.706  16.735  14.730
43810W        W12028  41.477  38.505   1.938
43811W        W12029  12.322   4.678  11.567
43812W        W12030  34.252  39.952   4.482
43813W        W12031  23.964  43.810  14.455
43814W        W12032  16.569  27.081  13.087
43815W        W12033  15.791  15.767   3.318
43816W        W12034   5.398  11.903  11.503
43817W        W12035  39.905   8.152   4.326
43818W        W12036  31.266  22.493  10.740
43819W        W12037   1.771  32.570  11.017
43820W        W12038  22.362  26.662  13.018
43821W        W12039  13.241  35.247   0.863
43822W        W12040  11.095  27.577  13.270
43823W        W12041  10.803  25.705  12.121
43824W        W12042   3.371  23.380   0.004
43825W        W12043  25.933  24.277  12.163
43826W        W12044  31.506  15.290   0.242
43827W        W12045  10.394  29.069   1.262
43828W        W12046   8.378   2.013   2.872
43829W        W12047  10.289  13.067   0.523
43830W        W12048   8.709   0.842   3.415
43831W        W12049  20.036   5.868   3.629
43832W        W12050  35.973   5.415   2.014
43833W        W12051  42.851  31.578  10.743
43834W        W12052  37.055   5.244  14.315
43835W        W12053  32.018  41.385  11.539
43836W        W12054  35.915  33.421   3.990
43837W        W12055  28.491  36.308  11.921
43838W        W12056  30.156   1.796  13.043
43839W        W12057   8.152  18.185  14.632
43840W        W12058  18.709  17.635   2.242
43841W        W12059  16.260  23.450  12.813
43842W        W12060  13.092  18.493  14.024
43843W        W12061   0.436  36.781   4.793
43844W        W12062   5.717  17.878   2.318
43845W        W12063   1.789  13.695   1.991
43846W        W12064  36.605   0.302  13.767
43847W        W12065  32.235  43.851   4.221
43848W        W12066  25.022  13.648  12.405
43849W        W12067  13.746  25.160   4.600
43850W        W12068  33.215   7.700  10.791
43851W        W12069   9.732  38.165  12.766
43852W        W12070  41.316  12.390   2.295
43853W        W12071  31.400  36.535  14.977
43854W        W12072  39.455  11.987   0.833
43855W        W12073  26.359  17.779  10.511
43856W        W12074  22.059  38.324  14.334
43857W        W12075  16.832  43.337  11.848
43858W        W12076   2.223  33.722  14.482
43859W        W12077  22.704  34.052   2.829
43860W        W12078  21.339  10.491  11.189
43861W        W12079   8.784  19.116   3.088
43862W        W12080   0.885  11.231   4.619
43863W        W12081  14.226  33.657   0.995
43864W        W12082  32.032  40.909   1.776
43865W        W12083   8.945  14.913   2.335
43866W        W12084   8.705  27.741  11.742
43867W        W12085  20.705  24.810   1.773
43868W        W12086   3.406  38.265   2.479
43869W        W12087  32.313  25.301  10.419
43870W        W12088  18.859  31.406   2.741
43871W        W12089  13.932   9.795   2.786
43872W        W12090  33.868   8.698  12.157
43873W        W12091   6.911  11.082  11.573
43874W        W12092   5.385  10.431  12.886
43875W        W12093  25.188  27.922   2.698
43876W        W12094  10.698   0.385   1.169
43877W        W12095   0.725  16.267  11.207
43878W        W12096  25.982  26.676  14.367
43879W        W12097  29.535  31.192  14.952
43880W        W12098  36.980  11.221   4.332
43881W        W12099  22.650  40.465  12.936
43882W        W12100  22.010  40.723  11.147
43883W        W12101  17.532   5.449  11.960
43884W        W12102  25.105   7.676  11.638
43885W        W12103  25.458  26.217  12.475
43886W        W12104  14.106  15.138   4.856
43887W        W12105   5.879   0.029   3.115
43888W        W12106  27.839  10.216   0.859
43889W        W12107  30.107  19.888  12.059
43890W        W12108  39.085  15.600   3.611
43891W        W12109  25.052   9.921  14.466
43892W        W12110  22.051  11.409  11.196
43893W        W12111  17.183  31.207   2.358
43894W        W12112  44.427  35.434  10.726
43895W        W12113   5.376   7.103   1.823
43896W        W12114   6.721  40.584  14.390
43897W        W12115  31.402  21.017   1.274
43898W        W12116  30.132  12.187  14.465
43899W        W12117  34.066  17.534  11.908
43900W        W12118  43.007  42.813   0.589
43901W        W12119   4.495   3.655   1.448
43902W        W12120  14.796   0.448  12.586
43903W        W12121  30.681  21.290   9.939
43904W        W12122  21.907  31.535   3.264
43905W        W12123  43.493  43.957  14.376
43906W        W12124  19.278   6.386  11.155
43907W        W12125   0.919  10.693  14.327
43908W        W12126   7.675  23.032   4.566
43909W        W12127  40.416   2.655  11.052
43910W        W12128  40.377   4.562   1.171
43911W        W12129  12.637   1.227  13.053
43912W        W12130   0.466  19.646   2.661
43913W        W12131   4.372  33.949  11.993
43914W        W12132  28.615  24.641  10.239
43915W        W12133  36.081  14.288  10.745
43916W        W12134  14.852  26.660   1.245
43917W        W12135  35.375   3.825  13.319
43918W        W12136  10.242  10.665   4.394
43919W        W12137   0.526  37.445   3.868
43920W        W12138  31.242   5.883  14.265
43921W        W12139  10.717  41.286  14.273
43922W        W12140  34.362   5.427  12.383
43923W        W12141  37.472  38.435   2.638
43924W        W12142  15.117  41.792   1.409
43925W        W12143   4.269  11.599   0.833
43926W        W12144  20.714   1.012  14.997
43927W        W12145  39.921  29.504   4.513
43928W        W12146  37.315   0.519   2.522
43929W        W12147  21.719   8.763   0.738
43930W        W12148  40.621  23.053   2.763
43931W        W12149  24.688  11.962   4.922
43932W        W12150  24.595  10.706  14.428
43933W        W12151  34.734  18.104  14.929
43934W        W12152  15.175   1.341   5.246
43935W        W12153  10.634  14.393  11.134
43936W        W12154   5.821  18.140   4.605
43937W        W12155   0.934  40.977  14.942
43938W        W12156  31.645  33.859  12.495
43939W        W12157  37.711  30.617  11.694
43940W        W12158  23.147  27.918  13.060
43941W        W12159   4.654  33.450   3.169
43942W        W12160  32.612   5.462   4.833
43943W        W12161  14.373  36.595   2.628
43944W        W12162  31.018  43.810  12.109
43945W        W12163  28.484  28.229   0.261
43946W        W12164  25.442  32.970  10.861
43947W        W12165  31.724  27.635  14.721
43948W        W12166  25.691  11.981   5.221
43949W        W12167  42.913  38.417   4.465
43950W        W12168  18.272  19.098  14.037
43951W        W12169  33.588  38.789  13.447
43952W        W12170   9.719  36.030  14.980
43953W        W12171  25.696  42.817  12.530
43954W        W12172  26.294  32.505  11.167
43955W        W12173  27.944  14.718  13.291
43956W        W12174   3.637  33.538  12.124
43957W        W12175  40.487   0.344   2.294
43958W        W12176  12.707  12.601  13.439
43959W        W12177  15.710  42.034   3.247
43960W        W12178  11.783  32.480  11.649
43961W        W12179  23.673   0.378   1.268
43962W        W12180  35.615   4.370  12.535
43963W        W12181   0.597   7.800   4.109
43964W        W12182  31.687  36.812   4.185
43965W        W12183  19.587  26.243   1.604
43966W        W12184  21.204  29.660  11.110
43967W        W12185  15.249  33.634   4.443
43968W        W12186  12.113  10.130   0.379
43969W        W12187  16.166   4.502   3.565
43970W        W12188  26.988  26.100   9.951
43971W        W12189   9.980  28.453   0.797
43972W        W12190  26.948  15.458  12.169
43973W        W12191   5.917   3.401  13.273
43974W        W12192  18.992   0.714  11.585
43975W        W12193  20.567  37.239   3.602
43976W        W12194  43.400  29.848   0.289
43977W        W12195  33.649   5.833   2.904
43978W        W12196  40.465  30.450  10.950
43979W        W12197  17.564  38.952  14.048
43980W        W12198  14.227  29.215  10.598
43981W        W12199  41.495   3.968  14.392
43982W        W12200  17.232  10.122  14.251
43983W        W12201   2.249   7.912  12.570
43984W        W12202  17.648  44.651   4.201
43985W        W12203  44.741   4.100   3.680
43986W        W12204  42.615   0.470  14.251
43987W        W12205  24.708  23.337   1.760
43988W        W12206  15.990  11.365   2.351
43989W        W12207  28.522  26.216  14.383
43990W        W12208   1.752  28.601   0.158
43991W        W12209   1.887   2.311   1.500
43992W        W12210  35.682   5.548   2.427
43993W        W12211  28.471  35.749   2.293
43994W        W12212  23.956   2.825   3.120
43995W        W12213   5.026  30.152   3.309
43996W        W12214   0.538   6.365   3.718
43997W        W12215  20.709  44.026   3.117
43998W        W12216  15.149  27.901  13.450
43999W        W12217   1.413   8.803  10.748
44000W        W12218  15.688  18.142   2.885
44001W        W12219  20.180  15.015   3.767
44002W        W12220  37.439  12.391   1.338
44003W        W12221  17.855   3.756   1.420
44004W        W12222  27.513  14.841   0.676
44005W        W12223  12.709   0.228  13.099
44006W        W12224   0.229  13.782   4.234
44007W        W12225   3.618   5.256   2.813
44008W        W12226  23.900   1.557  12.974
44009W        W12227  20.444  41.189  12.875
44010W        W12228  26.552  40.264  14.247
44011W        W12229  27.054  12.616  12.427
44012W        W12230   9.795  32.187   3.645
44013W        W12231   7.284  39.154   1.975
44014W        W12232   4.729  18.197   4.476
44015W        W12233   3.532   6.905   0.926
44016W        W12234  12.656  23.523  10.600
44017W        W12235  15.300   3.762  11.366
44018W        W12236  25.215  20.450   2.225
44019W        W12237   5.936  31.163   3.283
44020W        W12238  38.847  29.066   0.970
44021W        W12239  13.477  30.982   3.256
44022W        W12240  10.838   5.659   1.695
44023W        W12241  33.061  42.053  11.926
44024W        W12242  12.794  42.738   1.438
44025W        W12243  43.141  28.984   2.558
44026W        W12244  17.594  43.343   3.889
44027W        W12245  23.688  23.503  13.388
44028W        W12246  35.354   9.035  11.497
44029W        W12247  36.357   6.615   4.686
44030W        W12248  26.160  32.995   0.620
44031W        W12249  15.339  41.085  12.245
44032W        W12250  19.341  19.956   4.503
44033W        W12251  27.539  44.997   3.982
44034W        W12252   9.734   2.561   3.536
44035W        W12253  38.503  21.483  11.388
44036W        W12254  31.927   1.417  12.514
44037W        W12255   9.620  39.566  12.683
44038W        W12256  34.565  40.036   1.825
44039W        W12257  30.928   0.682   1.371
44040W        W12258  29.512  37.020  12.071
44041W        W12259  19.356  32.781   4.214
44042W        W12260  28.136   5.293   4.089
44043W        W12261  24.436   5.798  14.805
44044W        W12262  32.098  43.574   0.578
44045W        W12263   2.705   8.344  14.457
44046W        W12264  41.286   7.591   4.170
44047W        W12265  16.182   2.487   3.597
44048W        W12266  28.624   8.876   0.941
44049W        W12267   1.160  41.936  13.971
44050W        W12268  26.132  43.811  11.391
44051W        W12269  22.703  43.938  11.211
44052W        W12270  33.661  26.044  12.107
44053W        W12271  15.318   3.633  14.414
44054W        W12272  13.284  16.804   1.443
44055W        W12273   2.454  35.944   1.404
44056W        W12274  14.588   0.583   5.375
44057W        W12275   0.856  22.273   3.064
44058W        W12276  36.082  44.637  11.228
44059W        W12277  19.268   7.416  14.331
44060W        W12278  33.594  18.190  10.711
44061W        W12279   3.885  38.867   1.428
44062W        W12280  31.251  37.394   4.785
44063W        W12281  40.732   6.366   0.030
44064W        W12282  15.043   1.685  13.040
44065W        W12283  18.069  30.401  12.735
44066W        W12284  11.854  21.129   1.011
44067W        W12285  26.264   2.761  11.550
44068W        W12286  27.813   4.298   4.904
44069W        W12287  41.037  20.480   0.002
44070W        W12288  27.018   0.242   4.235
44071W        W12289  36.683   5.406   0.682
44072W        W12290   2.823  28.069   0.153
44073W        W12291  26.938  19.546  11.943
44074W        W12292  44.935   7.594   0.958
44075W        W12293   6.611  36.897  11.686
44076W        W12294  42.495  40.264   0.657
44077W        W12295  24.607  16.266   3.609
44078W        W12296  28.341  28.485   3.755
44079W        W12297  15.632  13.082  14.050
44080W        W12298  43.899  43.929  13.059
44081W        W12299  44.109  22.724   0.381
44082W        W12300  34.977  17.625   4.284
44083W        W12301  14.267  28.269  12.639
44084W        W12302   9.294  43.280  12.460
44085W        W12303   6.839  34.032  13.385
44086W        W12304  15.639   2.810   5.074
44087W        W12305  26.402   3.090  10.325
44088W        W12306  19.150  25.180  12.469
44089W        W12307   4.628  43.582  11.485
44090W        W12308  23.036   2.269  10.745
44091W        W12309   6.214  10.030   1.648
44092W        W12310  10.808  25.571  11.192
44093W        W12311  21.505  43.288   4.057
44094W        W12312  17.110  20.439   3.276
44095W        W12313  30.769   1.503  13.936
44096W        W12314  18.278   0.428  10.791
44097W        W12315  13.696  33.147  11.741
44098W        W12316   3.274  14.750   3.190
44099W        W12317  43.286  41.696  10.469
44100W        W12318  15.148  28.752  12.131
44101W        W12319  23.579  43.086   1.769
44102W        W12320  23.806   2.648  12.724
44103W        W12321  10.246   8.347   2.380
44104W        W12322   5.227  38.177  11.608
44105W        W12323  41.591  15.775   2.804
44106W        W12324   0.724  17.982   4.219
44107W        W12325  12.247  17.276   0.425
44108W        W12326   9.767  38.838  11.661
44109W        W12327  11.808   1.413   3.700
44110W        W12328  19.769  11.326  13.600
44111W        W12329  43.200  17.057   2.377
44112W        W12330  11.807  13.209  12.558
44113W        W12331  37.139   3.803   1.392
44114W        W12332  26.505  35.088   4.056
44115W        W12333  41.623   6.695   4.263
44116W        W12334  31.374   2.159  13.727
44117W        W12335  28.585  43.369   3.305
44118W        W12336  34.559   4.452  13.485
44119W        W12337  28.522  37.567   4.254
44120W        W12338  30.386   5.845  11.213
44121W        W12339  17.127  15.658  12.300
44122W        W12340  17.502   5.809   2.740
44123W        W12341  35.099  36.864  10.667
44124W        W12342  25.701   8.842  12.977
44125W        W12343  16.952   0.820   3.111
44126W        W12344   4.847  27.244  12.809
44127W        W12345  20.789  15.509   2.726
44128W        W12346  32.715  23.234   4.635
44129W        W12347  39.026  14.653  13.045
44130W        W12348  15.408  30.941   1.902
44131W        W12349  22.185  16.872  12.526
44132W        W12350  33.591  39.609  12.344
44133W        W12351  40.475   0.765  10.381
44134W        W12352  14.070  34.102   4.206
44135W        W12353  39.924   8.636   2.414
44136W        W12354   4.615  30.627  14.622
44137W        W12355   4.693  27.360   4.591
44138W        W12356  17.032  22.219  11.187
44139W        W12357  36.322   8.583  11.028
44140W        W12358  28.507  26.152   3.240
44141W        W12359  39.594  21.520  13.407
44142W        W12360  27.044   4.839   2.249
44143W        W12361   9.935   9.402   3.177
44144W        W12362  11.503  16.045   0.713
44145W        W12363  27.501  33.359   3.189
44146W        W12364  10.885  16.138   3.726
44147W        W12365   7.831  11.839   3.885
44148W        W12366  42.985  11.615   2.437
44149W        W12367  40.481  17.040  11.133
44150W        W12368  43.039   4.338  12.441
44151W        W12369   3.992  16.676  13.135
44152W        W12370   8.411  35.521   4.144
44153W        W12371   8.615   4.305  14.471
44154W        W12372  35.103  17.389   0.593
44155W        W12373  30.618  42.959  14.825
44156W        W12374  33.584  22.478   1.745
44157W        W12375  43.353  19.590   1.725
44158W        W12376  40.463  32.015  11.897
44159W        W12377  39.574   3.539   2.291
44160W        W12378  41.020  34.171  10.588
44161W        W12379  34.976   9.303   4.144
44162W        W12380  43.624  26.696   1.790
44163W        W12381  24.350  14.756   1.668
44164W        W12382   8.330  21.147  10.662
44165W        W12383  23.733   9.743   0.924
44166W        W12384  22.550  41.067  13.764
44167W        W12385  15.267  17.833  14.931
44168W        W12386   0.384   0.404  11.393
44169W        W12387  14.562  32.548   1.708
44170W        W12388  31.133  14.357   2.289
44171W        W12389  26.301  22.537  10.671
44172W        W12390  21.321  30.590   3.807
44173W        W12391  12.193  29.631  11.463
44174W        W12392   5.814   9.532  10.692
44175W        W12393  40.740  10.955   3.294
44176W        W12394  34.826  44.820   0.430
44177W        W12395  14.135  18.066   1.966
44178W        W12396   5.668  26.007  14.270
44179W        W12397  25.041  19.102  11.829
44180W        W12398  17.911   5.678  11.126
44181W        W12399  30.078  37.537   0.785
44182W        W12400  38.325  37.218   1.385
44183W        W12401   8.105   9.571  11.113
44184W        W12402  27.418  41.973  13.788
44185W        W12403   8.380  18.566  13.345
44186W        W12404  14.741   4.442  10.316
44187W        W12405   2.402  40.213   3.884
44188W        W12406  25.686  28.110  12.913
44189W        W12407  26.760  13.744  11.073
44190W        W12408  24.089  21.899  10.339
44191W        W12409  39.868  12.290  11.211
44192W        W12410  38.020  41.497  10.785
44193W        W12411  31.402  13.661  11.137
44194W        W12412  20.791  39.504  13.561
44195W        W12413  24.917  22.149   4.766
44196W        W12414  34.371   7.227  12.760
44197W        W12415  27.204  24.682  13.501
44198W        W12416  32.702  23.638  13.880
44199W        W12417   4.466  29.024  13.403
44200W        W12418  19.649  29.932   2.392
44201W        W12419  28.382   8.296  13.018
44202W        W12420  10.417  13.296   0.077
44203W        W12421  13.176  13.224  12.062
44204W        W12422   9.229  13.105   0.390
44205W        W12423  22.319  34.643   3.551
44206W        W12424  42.502  30.637   3.693
44207W        W12425   3.734  25.299  12.045
44208W        W12426  22.245   8.632   4.175
44209W        W12427  10.127   6.170  13.422
44210W        W12428   4.998  34.578  14.376
44211W        W12429  34.836  25.290   1.904
44212W        W12430  16.168  38.447  12.691
44213W        W12431  38.999   9.798   1.863
44214W        W12432  20.266  41.588   1.940
44215W        W12433  34.672  35.760   5.004
44216W        W12434  21.123   5.360   2.902
44217W        W12435   3.902   6.466   3.324
44218W        W12436   0.248   5.145  11.594
44219W        W12437  29.275  39.674   3.689
44220W        W12438  41.185  10.760   1.294
44221W        W12439  43.011  44.155   0.256
44222W        W12440  41.502  15.059   2.368
44223W        W12441  30.896  41.920   3.294
44224W        W12442  15.199   4.481  13.008
44225W        W12443  19.180   2.195  14.763
44226W        W12444   0.261   3.412   3.539
44227W        W12445  38.430  29.624   1.167
44228W        W12446  24.677   1.831  14.230
44229W        W12447  44.559   7.887   1.171
44230W        W12448   2.834  34.502   4.218
44231W        W12449  19.019  40.364   2.485
44232W        W12450  31.553  10.954   1.607
44233W        W12451  14.303  28.780   0.765
44234W        W12452  17.204  18.069   0.064
44235W        W12453  34.867   7.136   2.717
44236W        W12454  38.778   9.484   0.753
44237W        W12455  24.022  26.141   0.760
44238W        W12456  22.207  18.565  12.076
44239W        W12457  34.238  19.910  14.871
44240W        W12458  30.936  13.646   0.201
44241W        W12459   9.870  43.313  10.600
44242W        W12460   6.774  19.655   0.816
44243W        W12461   5.242  27.480   2.549
44244W        W12462  10.863   8.336   3.613
44245W        W12463  17.648   7.124   4.391
44246W        W12464  16.272  31.564   3.614
44247W        W12465  31.847   2.873   0.443
44248W        W12466   5.731  40.066   4.635
44249W        W12467   9.109  20.774   0.477
44250W        W12468  27.968  23.917  13.058
44251W        W12469  21.872   8.295   0.918
44252W        W12470  43.063  40.952   4.148
44253W        W12471   1.998   1.417   0.362
44254W        W12472  10.335  18.342  12.427
44255W        W12473  38.076   5.912  11.181
44256W        W12474   0.947  11.141  13.568
44257W        W12475  14.767  26.748   1.787
44258W        W12476  20.683  21.607  10.800
44259W        W12477  30.713  37.549  10.813
44260W        W12478  15.082  33.062  14.058
44261W        W12479  18.228  32.072   2.360
44262W        W12480   5.365  35.104   3.721
44263W        W12481  10.728  38.399  11.369
44264W        W12482  32.662  27.106   0.812
44265W        W12483  29.440  14.941  11.943
44266W        W12484  16.862   3.032   0.996
44267W        W12485  15.167   6.814  13.000
44268W        W12486  12.524  20.538   0.292
44269W        W12487  11.575  34.985   1.890
44270W        W12488  31.512  13.810  13.817
44271W        W12489   4.305  29.133  12.894
44272W        W12490  29.971  40.775   1.618
44273W        W12491   5.261  26.605   0.515
44274W        W12492  32.255  24.647  13.984
44275W        W12493   7.707  11.770   0.330
44276W        W12494  31.880  23.762   3.770
44277W        W12495  36.954   5.493  14.764
44278W        W12496  23.667  39.813  11.849
44279W        W12497   7.652  10.233   0.478
44280W        W12498  17.651  36.066   3.787
44281W        W12499  37.377  18.052  10.494
44282W        W12500  24.173   4.923  10.849
44283W        W12501   2.230  39.548  10.641
44284W        W12502  29.621  16.181  11.456
44285W        W12503  40.216  39.009   3.175
44286W        W12504  25.636   9.326  14.022
44287W        W12505  12.648  20.128   3.207
44288W        W12506  42.504  35.293  11.729
44289W        W12507  42.376  12.560   1.872
44290W        W12508  16.376  22.080  14.487
44291W        W12509   1.476  17.655  13.739
44292W        W12510  38.586  16.545  10.861
44293W        W12511  16.576  27.457  10.716
44294W        W12512   2.501  24.160  11.136
44295W        W12513   5.433  38.593   3.701
44296W        W12514  26.473  39.934  12.924
44297W        W12515  21.078  38.645   1.311
44298W        W12516  22.077   4.743   0.405
44299W        W12517  15.187  33.535   3.696
44300W        W12518  27.165  28.624   2.974
44301W        W12519  22.219   3.144   4.715
44302W        W12520   3.262  15.127   1.263
44303W        W12521  23.056   5.614  13.362
44304W        W12522  12.846   4.072  14.498
44305W        W12523  41.765   1.186   2.198
44306W        W12524  12.806  25.593  14.876
44307W        W12525   8.766   7.178   3.275
44308W        W12526   6.230  31.891  14.086
44309W        W12527   2.816  33.861   3.351
44310W        W12528  33.922  26.653  14.853
44311W        W12529  32.142  37.181  11.552
44312W        W12530  30.263  37.238  14.953
44313W        W12531  42.861  30.939   2.606
44314W        W12532  26.118   7.648   0.854
44315W        W12533   1.776   7.920  14.570
44316W        W12534  30.860   1.447   4.237
44317W        W12535   3.482  15.258  14.515
44318W        W12536  14.418  42.163  13.261
44319W        W12537  10.954  31.156   2.016
44320W        W12538  12.729  33.050   0.769
44321W        W12539   8.117  42.550   3.153
44322W        W12540  23.332  12.265  11.943
44323W        W12541  37.943   2.947   0.736
44324W        W12542  38.121  13.473   2.907
44325W        W12543  17.605  28.401   4.522
44326W        W12544  35.598  33.541  14.782
44327W        W12545  16.148  16.411   4.521
44328W        W12546  27.568  34.454   1.304
44329W        W12547   8.975  25.947  10.957
44330W        W12548  21.300   5.253   3.391
44331W        W12549  12.219  19.330  14.799
44332W        W12550  24.463  14.776  14.834
44333W        W12551   7.187  15.736  10.305
44334W        W12552  13.377  28.907   3.169
44335W        W12553  17.662  21.563   1.346
44336W        W12554  33.292  26.182  11.170
44337W        W12555  25.197  34.536  12.348
44338W        W12556  43.122  13.540  12.899
44339W        W12557   7.769  19.008  10.076
44340W        W12558  14.091  33.573  14.624
44341W        W12559  32.426   7.325   2.656
44342W        W12560   4.569   6.675  10.730
44343W        W12561  15.906   3.436  12.919
44344W        W12562  20.592  38.480   1.190
44345W        W12563  41.426  23.842   4.793
44346W        W12564   9.118  25.103   0.020
44347W        W12565  15.201  44.398  13.734
44348W        W12566  22.256  11.003   0.286
44349W        W12567   9.212   8.978  13.031
44350W        W12568  29.654   2.212  10.668
44351W        W12569  20.555   5.195  13.024
44352W        W12570  31.763   9.804  13.904
44353W        W12571  24.535  33.566   4.676
44354W        W12572   7.985  23.662   5.054
44355W        W12573  16.121  33.974  11.526
44356W        W12574  31.529  23.708   4.149
44357W        W12575  33.138  44.591   1.659
44358W        W12576  35.786  36.425  11.180
44359W        W12577  40.213   8.565   4.151
44360W        W12578  30.494   4.839   0.764
44361W        W12579  20.832  40.032  12.416
44362W        W12580  27.406  41.820   2.971
44363W        W12581  16.697   7.819   2.355
44364W        W12582  25.526  26.410  14.399
44365W        W12583  14.913   3.239   0.517
44366W        W12584  40.806  39.893  12.162
44367W        W12585  13.587  28.708   1.603
44368W        W12586  39.152  32.517   1.471
44369W        W12587  34.556  27.205  12.970
44370W        W12588  39.552  39.012  11.385
44371W        W12589  36.860   8.420   2.042
44372W        W12590  16.864  12.698  10.727
44373W        W12591  38.786   7.849  11.153
44374W        W12592  11.789  15.507  12.713
44375W        W12593  30.092  31.036   2.899
44376W        W12594   2.427  35.631  12.998
44377W        W12595   5.228  17.756  14.313
44378W        W12596  13.680  32.075  13.796
44379W        W12597  14.871  21.241  13.496
44380W        W12598  33.107  31.023  12.596
44381W        W12599  29.068  31.530  13.817
44382W        W12600  10.808  10.312  11.635
44383W        W12601  30.591  19.547   3.346
44384W        W12602  21.644  39.981   1.820
44385W        W12603   1.984  40.545   2.598
44386W        W12604  42.895  13.164   1.207
44387W        W12605   5.820  41.919   0.895
44388W        W12606  33.712  20.166   2.297
44389W        W12607  29.685  43.751  14.416
44390W        W12608  11.862  42.561  12.870
44391W        W12609  21.671  24.024   1.389
44392W        W12610  40.085   9.835  11.192
44393W        W12611  18.575  24.605   1.624
44394W        W12612  21.629   8.381   2.461
44395W        W12613  28.428  30.974   4.794
44396W        W12614  40.475  11.295   0.802
44397W        W12615  42.316  31.177   0.785
44398W        W12616  14.785  12.100   3.950
44399W        W12617  40.678   9.270   2.117
44400W        W12618   1.923  20.076   3.194
44401W        W12619  10.453   6.846  11.112
44402W        W12620  37.838  33.037  11.984
44403W        W12621   4.217   5.805   0.550
44404W        W12622  41.214   7.762  14.860
44405W        W12623   8.241  43.231   4.760
44406W        W12624  18.340  39.432  10.675
44407W        W12625  13.207  38.123   1.813
44408W        W12626  34.298   2.574  11.104
44409W        W12627  39.021  40.610   1.840
44410W        W12628  31.585  36.947   3.689
44411W        W12629   3.497  29.952  13.458
44412W        W12630  39.399  35.625  10.671
44413W        W12631   8.806  41.607   0.759
44414W        W12632  44.389  37.871   3.180
44415W        W12633  43.633   4.426  10.656
44416W        W12634   2.663  10.583   2.927
44417W        W12635   8.131  43.805  13.157
44418W        W12636  19.428  24.104   2.539
44419W        W12637  43.854  44.307  11.684
44420W        W12638  42.432  13.629  13.437
44421W        W12639  13.689  14.242  12.560
44422W        W12640  40.443   4.419  12.087
44423W        W12641  38.591  41.855   0.344
44424W        W12642   3.817  36.176   1.292
44425W        W12643  14.191   1.389   3.287
44426W        W12644  14.659  12.855   2.718
44427W        W12645   2.267   1.073   3.744
44428W        W12646  11.651  35.738   4.531
44429W        W12647  33.972  33.519  12.972
44430W        W12648  29.953   1.000  11.563
44431W        W12649  21.061  10.508   5.108
44432W        W12650  18.486  31.952  10.700
44433W        W12651   0.183  27.057   4.868
44434W        W12652  33.637  42.009  14.342
44435W        W12653   7.699  28.165  11.057
44436W        W12654  34.487  23.939   3.683
44437W        W12655  30.419  29.097   1.790
44438W        W12656   6.852  42.549   0.348
44439W        W12657  37.107   7.306  13.597
44440W        W12658  28.873  17.555  11.520
44441W        W12659   9.273  15.829   3.672
44442W        W12660   8.558  36.095  14.348
44443W        W12661  20.571  30.149  12.483
44444W        W12662  40.037  25.222  14.105
44445W        W12663  35.983   8.771   2.661
44446W        W12664  19.562  37.777  14.141
44447W        W12665  21.213  14.200   1.356
44448W        W12666  43.216   2.716  11.285
44449W        W12667  42.751  42.011  13.272
44450W        W12668  30.896  43.255  13.395
44451W        W12669  43.268  31.416   3.567
44452W        W12670   8.749  26.026   3.730
44453W        W12671   7.385   3.439  11.200
44454W        W12672   6.403  34.373  14.704
44455W        W12673  20.655  24.260   4.200
44456W        W12674  13.353  30.895   4.491
44457W        W12675  24.787  30.941   0.968
44458W        W12676  32.810  13.325  13.885
44459W        W12677  43.171  17.981  12.984
44460W        W12678   6.966  36.608  10.790
44461W        W12679  20.803  38.401   1.665
44462W        W12680  42.799  36.652   3.727
44463W        W12681  24.483  30.662   2.225
44464W        W12682  12.453  21.255   3.696
44465W        W12683  41.040   6.909  12.451
44466W        W12684  36.302  11.477  12.291
44467W        W12685  18.239  21.564   0.204
44468W        W12686   5.479  18.615  13.285
44469W        W12687  37.426  31.918  13.976
44470W        W12688  19.782  10.317  11.568
44471W        W12689  22.767  29.652   4.294
44472W        W12690  38.953  35.910   0.291
44473W        W12691   4.023  41.119  13.072
44474W        W12692   9.863  19.246   0.084
44475W        W12693  24.619  16.119  11.968
44476W        W12694  17.580  15.813  13.626
44477W        W12695   9.873  31.947  12.401
44478W        W12696  33.523   1.159  12.957
44479W        W12697  34.611  42.831  13.982
44480W        W12698  20.583   3.488  13.132
44481W        W12699   3.395  28.729   1.378
44482W        W12700  14.396  39.733   3.796
44483W        W12701  18.857  44.959   2.383
44484W        W12702  37.429  11.063   2.214
44485W        W12703   9.410  27.637   0.549
44486W        W12704  34.604   0.949  13.957
44487W        W12705  38.221  41.481   4.517
44488W        W12706  11.573  24.255  12.417
44489W        W12707  38.146   2.009  14.411
44490W        W12708  11.574  17.609  14.898
44491W        W12709  26.322  42.423   1.770
44492W        W12710  17.130   0.767   0.255
44493W        W12711  23.991  24.798  10.571
44494W        W12712  17.573   2.855   0.492
44495W        W12713  35.659  39.613  10.939
44496W        W12714  23.545  25.958  11.479
44497W        W12715  11.619  11.778   2.791
44498W        W12716  25.035   0.032   4.573
44499W        W12717  34.623  19.614   1.012
44500W        W12718  36.750  35.196  12.463
44501W        W12719   7.146   7.848   0.765
44502W        W12720  43.226  14.649   3.850
44503W        W12721  36.798  13.656  13.819
44504W        W12722  35.154   6.170  12.380
44505W        W12723   9.387  18.757  12.898
44506W        W12724  32.382  30.965   0.328
44507W        W12725  33.174  24.533   1.475
44508W        W12726   2.711  35.212  11.275
44509W        W12727  25.864  39.964   4.087
44510W        W12728   6.162  39.864   1.829
44511W        W12729  32.489  37.101  10.399
44512W        W12730  41.021   7.897   4.710
44513W        W12731  37.771  22.513   4.589
44514W        W12732   3.995  15.715  14.745
44515W        W12733  21.101  20.256  12.797
44516W        W12734  23.820  13.903   1.914
44517W        W12735  38.924  42.118  14.448
44518W        W12736  41.531  14.129  14.323
44519W        W12737   7.872  21.496  11.465
44520W        W12738   5.872  41.286   1.399
44521W        W12739  28.939  16.263  12.069
44522W        W12740  38.459   4.015   2.278
44523W        W12741  18.943  42.378  10.804
44524W        W12742  29.413   6.219  10.716
44525W        W12743  39.348  33.079   1.333
44526W        W12744   5.953   2.010   4.352
44527W        W12745  41.890  16.745  13.865
44528W        W12746  27.798  32.905  12.439
44529W        W12747  26.232  33.996  10.536
44530W        W12748  42.018   7.193  11.114
44531W        W12749  12.647   0.921  13.900
44532W        W12750  17.226  36.436   1.289
44533W        W12751  33.537  18.037   0.426
44534W        W12752  35.153  29.663  10.667
44535W        W12753   4.271  42.311   2.837
44536W        W12754  31.149  24.490  12.283
44537W        W12755   0.832  32.233   1.926
44538W        W12756   7.191  40.317   4.950
44539W        W12757  41.041  42.880   4.097
44540W        W12758  13.827  33.946   2.745
44541W        W12759  21.437  10.812   4.068
44542W        W12760  36.890  23.088  10.587
44543W        W12761   4.192  34.854   3.338
44544W        W12762  19.071   0.458   3.887
44545W        W12763   2.727  24.262  11.765
44546W        W12764  23.487  11.237   1.848
44547W        W12765  26.060  25.790  13.039
44548W        W12766  10.019  42.293  14.810
44549W        W12767  13.394   7.857   2.815
44550W        W12768  33.988   5.799   4.624
44551W        W12769  34.000  34.956  13.819
44552W        W12770  11.982  42.014   3.652
44553W        W12771  17.764   0.209   4.294
44554W        W12772  25.274  19.106  12.277
44555W        W12773   5.853   0.810  14.062
44556W        W12774  20.527   2.714  13.468
44557W        W12775  36.163   5.159  14.338
44558W        W12776  23.620  25.930   0.500
44559W        W12777   4.294   9.822   3.564
44560W        W12778  14.827  16.378   4.254
44561W        W12779  44.262  31.844  10.242
44562W        W12780  14.053  32.974   3.752
44563W        W12781  12.804  23.758   0.862
44564W        W12782  17.821  34.014   0.717
44565W        W12783  11.168  30.920  11.059
44566W        W12784  23.001  32.552   3.631
44567W        W12785  31.657  40.122  11.894
44568W        W12786  43.854  34.075   0.270
44569W        W12787  24.518  27.321   2.648
44570W        W12788  41.133  31.924   0.906
44571W        W12789  13.780  38.174  11.445
44572W        W12790  13.864  16.939  14.347
44573W        W12791  27.573  11.825  12.425
44574W        W12792   2.417  18.359  10.734
44575W        W12793  36.997  18.229   0.251
44576W        W12794  10.321  42.057   4.789
44577W        W12795   4.737   5.475  13.870
44578W        W12796   6.740  37.973   1.311
44579W        W12797  14.280  37.486  12.629
44580W        W12798   1.323   5.502   1.255
44581W        W12799  39.263   0.030  11.502
44582W        W12800   9.676  41.113   1.764
44583W        W12801  29.121   5.607  14.506
44584W        W12802  20.891  36.098   4.938
44585W        W12803  44.342  32.400   2.460
44586W        W12804  25.242  35.097   2.789
44587W        W12805  11.592  40.552  13.848
44588W        W12806  15.138  10.683  12.411
44589W        W12807   3.772  23.362   1.103
44590W        W12808  38.996  38.508   1.538
44591W        W12809  24.848  31.578  12.716
44592W        W12810  11.238  17.897  11.736
44593W        W12811  19.317  19.117  14.044
44594W        W12812  33.364   9.671   9.783
44595W        W12813  38.393  32.442   0.373
44596W        W12814  36.155  42.458   1.005
44597W        W12815   9.592  30.172  14.418
44598W        W12816  41.303  26.255   4.140
44599W        W12817  31.623  32.592  12.393
44600W        W12818   0.338  44.771   4.649
44601W        W12819  20.303   4.695   0.974
44602W        W12820   9.231  35.385   0.517
44603W        W12821  20.480  44.783  11.125
44604W        W12822   0.553  33.971  11.586
44605W        W12823  44.671  19.357   2.388
44606W        W12824  29.644  23.497  12.921
44607W        W12825  36.509   3.469  13.015
44608W        W12826  15.553  38.446  14.444
44609W        W12827  38.560  14.275   4.037
44610W        W12828  25.007  38.041  12.543
44611W        W12829  26.162   7.351   1.296
44612W        W12830  39.792   2.364   0.676
44613W        W12831  40.558  25.457   4.240
44614W        W12832  14.689  43.325   3.762
44615W        W12833  27.289  11.594   0.451
44616W        W12834  26.589  36.000  14.011
44617W        W12835  21.216  11.714   0.868
44618W        W12836  32.927  39.036  12.295
44619W        W12837  17.394   8.208   1.642
44620W        W12838  26.526   6.300  13.127
44621W        W12839  24.687   1.741   4.197
44622W        W12840   1.809  41.086   3.265
44623W        W12841  15.579  16.127   3.669
44624W        W12842  25.019  30.527   3.781
44625W        W12843  25.463  32.501   1.190
44626W        W12844   5.883  15.264  14.828
44627W        W12845  11.946  40.394   9.855
44628W        W12846   0.187   3.410   4.047
44629W        W12847  31.707  28.210   0.395
44630W        W12848  32.867   3.739   0.634
44631W        W12849   4.831  42.407   0.485
44632W        W12850  41.412   8.590   0.247
44633W        W12851  20.848  36.076   4.136
44634W        W12852  42.742  18.173  10.698
44635W        W12853  16.081  24.574  12.172
44636W        W12854  22.461   2.949   3.327
44637W        W12855  29.839  11.759  14.401
44638W        W12856   2.892  34.985  12.693
44639W        W12857  32.658  12.303  12.380
44640W        W12858  10.963  44.410  14.093
44641W        W12859  35.279  25.755   2.809
44642W        W12860  20.153  41.552   3.674
44643W        W12861  22.948  17.303  12.462
44644W        W12862   6.125  34.097  12.483
44645W        W12863  40.799  40.747  12.862
44646W        W12864   3.310  29.450  12.547
44647W        W12865  38.670  12.843   4.085
44648W        W12866  31.056   0.221   4.024
44649W        W12867  37.486   7.947   2.489
44650W        W12868  25.957  40.844  11.960
44651W        W12869  25.116  23.032   1.482
44652W        W12870   8.943  38.134  12.929
44653W        W12871  24.973   9.286   3.800
44654W        W12872  43.575  12.726   1.650
44655W        W12873  31.067  21.672   1.476
44656W        W12874  34.345  40.727   2.418
44657W        W12875  19.158   3.182  14.889
44658W        W12876  37.940  14.278   3.178
44659W        W12877  32.433  23.078  11.669
44660W        W12878   4.672  20.977   2.249
44661W        W12879  40.098  32.714   2.376
44662W        W12880  42.407   4.205   0.669
44663W        W12881  33.316  12.200   3.248
44664W        W12882  33.903  23.502  14.993
44665W        W12883  37.062  13.721   1.932
44666W        W12884   5.379  26.081   3.118
44667W        W12885  14.356  42.444   0.601
44668W        W12886   0.265  33.428  14.287
44669W        W12887  14.657  10.872  11.561
44670W        W12888  16.668  43.476   3.373
44671W        W12889  26.135   1.280  14.692
44672W        W12890  14.254  16.823  11.066
44673W        W12891  28.942  36.150   0.368
44674W        W12892  40.986  32.341   3.312
44675W        W12893  40.930  26.176  12.322
44676W        W12894  32.203  38.312   1.033
44677W        W12895  44.840   3.721  14.778
44678W        W12896  42.898  10.053   4.598
44679W        W12897  36.581  41.779  13.248
44680W        W12898  18.510  25.086  11.911
44681W        W12899  18.005  25.024   3.969
44682W        W12900   0.194  44.592   1.045
44683W        W12901  19.263   0.872   3.646
44684W        W12902  17.063  35.687   4.079
44685W        W12903   2.675  19.358   1.692
44686W        W12904   2.747   7.441  11.526
44687W        W12905  36.763  21.985   0.765
44688W        W12906  13.385   9.223   0.795
44689W        W12907   0.883  34.445  13.149
44690W        W12908  25.892  39.508  14.016
44691W        W12909  14.082   2.433  13.374
44692W        W12910  27.916  17.334   3.968
44693W        W12911  11.813  12.433  13.310
44694W        W12912   6.465  35.093   1.358
44695W        W12913  23.969  17.043   0.333
44696W        W12914  18.043  11.950  13.836
44697W        W12915  16.175  40.598  10.788
44698W        W12916  40.939  38.293  12.460
44699W        W12917  28.660  40.068   4.076
44700W        W12918  10.784  16.207  12.202
44701W        W12919   3.169   0.785  11.511
44702W        W12920   7.900   1.231  12.832
44703W        W12921  35.107   8.221  13.422
44704W        W12922   5.686  24.806   1.257
44705W        W12923  39.305  41.026   3.634
44706W        W12924  19.287  22.003   3.672
44707W        W12925   0.969  30.138   1.008
44708W        W12926  17.858  38.573  14.329
44709W        W12927  23.515  18.720  12.463
44710W        W12928   5.458  43.867   0.059
44711W        W12929  17.215  26.505   0.947
44712W        W12930  19.801  24.923  10.725
44713W        W12931  21.255   1.198  11.928
44714W        W12932   9.150   3.246   0.708
44715W        W12933   8.509   4.712   1.823
44716W        W12934   4.322   9.971  14.354
44717W        W12935  34.007  19.813   0.322
44718W        W12936  33.033  35.666   1.855
44719W        W12937  16.421  30.569   2.258
44720W        W12938  43.938  21.103  11.036
44721W        W12939   4.736  11.782   1.001
44722W        W12940   8.191  14.769   0.075
44723W        W12941   9.692  17.830  14.547
44724W        W12942  30.568  31.050  12.903
44725W        W12943  24.126  31.326   4.330
44726W        W12944  10.077  36.505   3.211
44727W        W12945  11.074  40.566  13.853
44728W        W12946  23.755   1.850   3.862
44729W        W12947  38.988  44.908   2.381
44730W        W12948  42.750  33.995  11.320
44731W        W12949  17.763  24.023   4.114
44732W        W12950  35.102   5.200   4.059
44733W        W12951  24.268  16.838  12.487
44734W        W12952   4.253  27.272  11.903
44735W        W12953   2.441   7.368   3.409
44736W        W12954   4.883   2.256   9.995
44737W        W12955   6.696  26.250   3.208
44738W        W12956  39.375  44.125  11.490
44739W        W12957  20.221  28.015   3.648
44740W        W12958  27.130  17.268   1.432
44741W        W12959  27.876  39.920  13.187
44742W        W12960  32.220  37.403  10.731
44743W        W12961  28.446   8.382   0.853
44744W        W12962  22.013  23.013   4.519
44745W        W12963   9.341  13.524  14.424
44746W        W12964  24.569   2.204   4.341
44747W        W12965  31.657  16.725   1.646
44748W        W12966   1.509   2.414  12.427
44749W        W12967  43.554   6.316   2.771
44750W        W12968  14.861  12.361  12.386
44751W        W12969  24.559  36.395   4.651
44752W        W12970  43.732  44.853   0.863
44753W        W12971  16.622  15.095   1.443
44754W        W12972  36.606  33.084   3.685
44755W        W12973  21.805  31.966  11.132
44756W        W12974   2.679  37.943   3.946
44757W        W12975   9.706  12.883   1.762
44758W        W12976  12.256   1.461   2.441
44759W        W12977  34.868  19.009  11.765
44760W        W12978  13.140  23.650   4.562
44761W        W12979   9.691   5.279  12.066
44762W        W12980  22.116  41.044  10.728
44763W        W12981   0.361  16.584  14.375
44764W        W12982  11.887  43.838  12.107
44765W        W12983  16.509  38.473  11.399
44766W        W12984  36.451   1.753  13.937
44767W        W12985  26.639  31.163   3.272
44768W        W12986  19.671   3.671  11.574
44769W        W12987  35.579  17.133  12.025
44770W        W12988  10.597   2.718   3.094
44771W        W12989  19.100  28.384  11.031
44772W        W12990   7.443  19.665  12.137
44773W        W12991  32.657  44.788   3.390
44774W        W12992  11.692  18.005   0.814
44775W        W12993  16.986  22.600  14.757
44776W        W12994  39.522  35.741  11.473
44777W        W12995   4.130  28.481   2.170
44778W        W12996   6.820  13.481   1.612
44779W        W12997  22.630   0.761  12.812
44780W        W12998   2.461  15.203  11.085
44781W        W12999   1.658   3.742  11.163
44782W        W13000   4.155  14.837  12.482
44783W        W13001  13.399   5.304  11.953
44784W        W13002  23.774  11.309  14.756
44785W        W13003  14.757  32.805   1.258
44786W        W13004  26.951  30.994   4.251
44787W        W13005  25.951  31.640   2.042
44788W        W13006  25.760   4.896   1.862
44789W        W13007  28.176  31.161   2.485
44790W        W13008   8.270   7.819  13.042
44791W        W13009  40.295  18.531   2.277
44792W        W13010   5.787  33.484   0.906
44793W        W13011   1.821   0.844  10.356
44794W        W13012  12.177   5.668  14.858
44795W        W13013   0.719  36.402   1.377
44796W        W13014   6.246   0.475   5.017
44797W        W13015  34.543  31.735  13.405
44798W        W13016   6.451   0.899   0.162
44799W        W13017   8.860  12.330   2.765
44800W        W13018  35.579   6.945   1.331
44801W        W13019   4.499  21.603  10.460
44802W        W13020  41.090  34.764   0.640
44803W        W13021  17.825   5.355  11.535
44804W        W13022  27.627  22.966   2.547
44805W        W13023   5.793  21.623  11.354
44806W        W13024  35.367  20.586   1.828
44807W        W13025  41.471  39.616   1.398
44808W        W13026   4.199  21.095  10.016
44809W        W13027   5.115   9.825   1.725
44810W        W13028  13.716  14.854   5.020
44811W        W13029  10.648  18.735  14.971
44812W        W13030  25.431  10.419  12.642
44813W        W13031  32.831  36.857   3.103
44814W        W13032  38.635   2.454  10.312
44815W        W13033   2.675  35.450  12.507
44816W        W13034  24.824  26.319   1.835
44817W        W13035  20.193   0.245   2.446
44818W        W13036  20.518  10.875  13.447
44819W        W13037  42.498  15.299   1.046
44820W        W13038  33.922  14.372  13.356
44821W        W13039   7.960  20.017   3.308
44822W        W13040  22.142  30.007  14.797
44823W        W13041  33.498   6.334   0.810
44824W        W13042   0.450  28.527  14.294
44825W        W13043  14.297  15.198   2.735
44826W        W13044  22.486  39.972  12.232
44827W        W13045  24.692  41.397   1.781
44828W        W13046  12.341  14.182  12.456
44829W        W13047  35.744   5.514  13.911
44830W        W13048  28.863  26.675   2.964
44831W        W13049  21.587  36.355   1.503
44832W        W13050   3.768   2.651  14.112
44833W        W13051  11.197  14.860  12.874
44834W        W13052  16.576   5.474  11.113
44835W        W13053  33.969  44.404   0.410
44836W        W13054   7.127  24.221  12.666
44837W        W13055  20.481  30.456  14.966
44838W        W13056  35.953  13.524  12.202
44839W        W13057  11.887  21.602  14.725
44840W        W13058  21.330   9.486  10.368
44841W        W13059  38.509  24.322   0.716
44842W        W13060   7.851  18.647  12.846
44843W        W13061  44.461  15.805   5.021
44844W        W13062  40.497  30.897   1.592
44845W        W13063  31.196  28.734   5.046
44846W        W13064  12.565   2.695   0.924
44847W        W13065   1.320  24.616   0.487
44848W        W13066  13.341  22.686  13.557
44849W        W13067  44.357  29.146  10.771
44850W        W13068  18.812  32.087   1.187
44851W        W13069  20.732   1.764   3.920
44852W        W13070  31.959  25.189   2.916
44853W        W13071   0.005  32.949  12.838
44854W        W13072  32.653   4.464  12.921
44855W        W13073  14.123  43.305  14.055
44856W        W13074  33.879  30.945   3.189
44857W        W13075  43.451   1.554  13.047
44858W        W13076   5.180  13.349   2.133
44859W        W13077  10.343  13.401  14.111
44860W        W13078  29.644  42.620  13.948
44861W        W13079  23.442   8.203   0.903
44862W        W13080  40.460  39.572  11.453
44863W        W13081  24.119  33.396   1.018
44864W        W13082  41.540  30.998  10.744
44865W        W13083  10.923  26.714  12.405
44866W        W13084  29.337  18.622  13.500
44867W        W13085   4.659  44.913  11.857
44868W        W13086  38.482  34.597  13.076
44869W        W13087  24.256  12.307   3.396
44870W        W13088  37.646  17.143   5.014
44871W        W13089  26.207  42.422   4.285
44872W        W13090  28.960  28.510  10.583
44873W        W13091  28.466   1.168  14.747
44874W        W13092   3.675  16.274  11.446
44875W        W13093   6.844  33.951   4.316
44876W        W13094  36.000  30.621  14.135
44877W        W13095  25.916  44.604   0.678
44878W        W13096  13.244  37.029   2.741
44879W        W13097  10.731  24.695  14.325
44880W        W13098  13.599  15.306  12.204
44881W        W13099  33.426   2.563  11.640
44882W        W13100  37.651  19.712  12.085
44883W        W13101  31.359  36.408  13.531
44884W        W13102  22.526  10.734  12.299
44885W        W13103  21.706   2.328  13.796
44886W        W13104  17.499  22.741  12.862
44887W        W13105  40.793  16.785   0.294
44888W        W13106  29.029   3.424  13.034
44889W        W13107  35.538  40.079   1.943
44890W        W13108  34.220  40.102   3.196
44891W        W13109  42.026   1.924   2.860
44892W        W13110  38.703  34.861   0.142
44893W        W13111  21.526  36.315  10.250
44894W        W13112  11.214  29.853   2.569
44895W        W13113   5.603  14.994  10.701
44896W        W13114  28.560   3.313   3.986
44897W        W13115  15.372   1.828   2.406
44898W        W13116  17.322  43.726  11.165
44899W        W13117  33.917  25.892  11.661
44900W        W13118  18.786  10.706   1.682
44901W        W13119  15.739  44.934  11.570
44902W        W13120  14.554  37.072  10.722
44903W        W13121  34.683  13.911  11.110
44904W        W13122  44.733  37.452  13.794
44905W        W13123  27.893  44.865  12.975
44906W        W13124  31.083  20.681   0.303
44907W        W13125  16.578  34.627  12.805
44908W        W13126  11.775  36.961  13.077
44909W        W13127  44.227   5.413  12.152
44910W        W13128  17.157  32.992   4.302
44911W        W13129  42.836  19.961   1.023
44912W        W13130  22.128  42.948   0.494
44913W        W13131  21.766  13.355  11.068
44914W        W13132  38.013  44.102   0.344
44915W        W13133  25.410  12.336  11.073
44916W        W13134  30.645   7.685  12.337
44917W        W13135  11.708  16.198   1.222
44918W        W13136  21.341  32.592   0.686
44919W        W13137   1.222  12.698   2.082
44920W        W13138  44.558  35.436   0.270
44921W        W13139  31.080   3.380  14.913
44922W        W13140  35.845  10.000  14.070
44923W        W13141  18.907  14.560   3.200
44924W        W13142  27.680  10.110   2.797
44925W        W13143  30.010  24.560  13.983
44926W        W13144  11.158   6.397   1.927
44927W        W13145  37.913   6.718   1.681
44928W        W13146  24.399  29.660  12.488
44929W        W13147  23.770  19.610  12.062
44930W        W13148   8.808  26.006  10.482
44931W        W13149  10.407  42.429  13.426
44932W        W13150  21.344  19.273   1.632
44933W        W13151   0.015   4.379   0.311
44934W        W13152  42.788  43.291   0.545
44935W        W13153  37.827   6.092   4.958
44936W        W13154  20.516   6.648   2.399
44937W        W13155  42.244  16.307   1.278
44938W        W13156  20.207  15.542  11.073
44939W        W13157   9.827  33.779  13.340
44940W        W13158  21.061   4.696   0.285
44941W        W13159  14.824  18.798  14.301
44942W        W13160  19.340  11.733  14.516
44943W        W13161  15.398  20.127  14.399
44944W        W13162  16.664  10.116  13.009
44945W        W13163  17.270  28.957   2.834
44946W        W13164  24.071  17.087  11.617
44947W        W13165  44.495  28.530  13.984
44948W        W13166  44.573  18.482   1.263
44949W        W13167   9.175  33.450  12.312
44950W        W13168   5.989  15.189   3.269
44951W        W13169  34.082  43.400   1.241
44952W        W13170   3.811  19.021   0.877
44953W        W13171  13.069  37.351  10.377
44954W        W13172  43.711  36.520  13.902
44955W        W13173  21.548  39.560   2.912
44956W        W13174  37.834  30.387   0.965
44957W        W13175   1.888  16.739   1.786
44958W        W13176  22.193   5.659  11.189
44959W        W13177  30.566  35.949   0.805
44960W        W13178  23.435   3.027   1.338
44961W        W13179  33.623  26.226   0.395
44962W        W13180   2.386  35.862  10.406
44963W        W13181  42.211   3.350  14.389
44964W        W13182  36.651  25.240   3.613
44965W        W13183   8.426   7.129  13.093
44966W        W13184  42.867  14.735   3.449
44967W        W13185  13.805  29.885  12.617
44968W        W13186  26.988   8.373  14.942
44969W        W13187   8.702   3.414   0.998
44970W        W13188  24.220  36.143   0.981
44971W        W13189  13.641  11.331  12.901
44972W        W13190  35.827  16.819   0.834
44973W        W13191  23.766  10.957   0.445
44974W        W13192  25.053  16.270  12.911
44975W        W13193  27.074  33.982   4.889
44976W        W13194  33.651   1.187   2.814
44977W        W13195  38.765  43.092  11.064
44978W        W13196  37.628  24.646   0.935
44979W        W13197  40.494  18.120  10.339
44980W        W13198   4.274  18.014   3.181
44981W        W13199  16.327  35.448  13.877
44982W        W13200   4.794   3.437  13.876
44983W        W13201   8.348   6.699   2.344
44984W        W13202  11.593  18.567  13.848
44985W        W13203  15.253  17.986   1.377
44986W        W13204  29.197  39.521   0.721
44987W        W13205  13.325  42.570   1.282
44988W        W13206  38.276  27.902  14.741
44989W        W13207  12.123  17.657  10.665
44990W        W13208  31.381   5.780  10.280
44991W        W13209  15.659  16.038  12.156
44992W        W13210  14.550  40.954   4.075
44993W        W13211  18.552   3.729   2.103
44994W        W13212  29.139  20.744   0.475
44995W        W13213  33.825   4.843   4.653
44996W        W13214  18.571   7.289  10.488
44997W        W13215   4.389  34.994   2.857
44998W        W13216  32.058  40.550   4.529
44999W        W13217  30.187   0.263   4.550
45000W        W13218  39.307  32.549   3.183
45001W        W13219  16.400  20.765   1.814
45002W        W13220  28.605  30.833  11.582
45003W        W13221  30.852  14.386   1.855
45004W        W13222  31.647  41.021  11.465
45005W        W13223   8.426  17.955  11.085
45006W        W13224  24.267  43.106   5.115
45007W        W13225   3.410  33.907   0.819
45008W        W13226  38.463  10.847   1.291
45009W        W13227  35.561   9.657   2.900
45010W        W13228  18.630   4.335  13.550
45011W        W13229  28.055  29.566  12.583
45012W        W13230  40.596  36.979  13.076
45013W        W13231  40.929   9.006   3.306
45014W        W13232  44.974   1.177   1.940
45015W        W13233  40.329  19.560  13.649
45016W        W13234  31.868  38.488   0.567
45017W        W13235   1.648  41.339   4.303
45018W        W13236  23.985   9.389  12.924
45019W        W13237   2.321   1.364  14.922
45020W        W13238  34.043  15.272   1.470
45021W        W13239  28.392  25.594   1.281
45022W        W13240  32.012  29.462  14.260
45023W        W13241  15.065  24.191   0.228
45024W        W13242   2.749  13.074   1.453
45025W        W13243  25.978  37.345   0.859
45026W        W13244   1.295   1.313   2.658
45027W        W13245  44.470  31.437  14.353
45028W        W13246  27.179  34.814   1.274
45029W        W13247  37.948  42.479   4.613
45030W        W13248   5.887  40.756   1.358
45031W        W13249  21.425  40.959   4.153
45032W        W13250  16.679  42.705  13.819
45033W        W13251  38.025  23.224  14.871
45034W        W13252  33.976  15.199   0.012
45035W        W13253   8.393  11.658  12.926
45036W        W13254   2.782  33.342   4.784
45037W        W13255   0.197   8.795  12.592
45038W        W13256  28.569  16.697   1.542
45039W        W13257  37.898  40.317   3.282
45040W        W13258  12.367  34.100   3.103
45041W        W13259  25.712  41.609  14.954
45042W        W13260  15.563  23.475   0.779
45043W        W13261  20.421  44.019  11.659
45044W        W13262  13.693  17.821  13.683
45045W        W13263  14.181  10.104  11.727
45046W        W13264  43.547   3.213   1.761
45047W        W13265  16.712   0.492   0.426
45048W        W13266   0.171  43.357   1.519
45049W        W13267  12.032   3.449   1.745
45050W        W13268  14.668  13.532   0.207
45051W        W13269  38.924   2.309   3.529
45052W        W13270   4.836  39.789   3.192
45053W        W13271  22.823  17.075  14.740
45054W        W13272  25.479   1.160  11.733
45055W        W13273  15.495  14.157   1.370
45056W        W13274  44.374  22.827  12.039
45057W        W13275  42.572   2.732   1.944
45058W        W13276  37.163  40.400  13.456
45059W        W13277  33.171  18.047  13.055
45060W        W13278   3.440  11.928   0.270
45061W        W13279  40.912  16.198   0.176
45062W        W13280  23.555  10.628   4.485
45063W        W13281  13.598  30.457   3.270
45064W        W13282   9.384  41.282  12.572
45065W        W13283  31.325   8.666   4.301
45066W        W13284  32.152  32.201  14.944
45067W        W13285   1.078   2.477   3.154
45068W        W13286  10.992  32.505  11.760
45069W        W13287  14.759  24.007  10.533
45070W        W13288  18.119   3.010   4.443
45071W        W13289   0.976   7.344   4.620
45072W        W13290  35.396  22.964  11.578
45073W        W13291  29.668  27.938  10.781
45074W        W13292  15.789   2.380  12.945
45075W        W13293  15.112  19.877   2.712
45076W        W13294  37.532  27.680  11.080
45077W        W13295   0.784  28.986   4.572
45078W        W13296  13.784  43.751   3.640
45079W        W13297  24.695  22.457   4.407
45080W        W13298  40.054   2.992  14.881
45081W        W13299  44.476  40.599   3.162
45082W        W13300  32.361  17.409   3.747
45083W        W13301  20.519  42.275  14.950
45084W        W13302  12.364  30.841   4.633
45085W        W13303   0.221  25.022  11.508
45086W        W13304   5.389  34.136   4.076
45087W        W13305  28.125  37.591   0.331
45088W        W13306  33.437  15.066   2.284
45089W        W13307  38.928  16.518   0.728
45090W        W13308  24.487  27.116  10.526
45091W        W13309  36.080  11.283   4.658
45092W        W13310  12.293  27.843  11.893
45093W        W13311  15.571   0.373   3.122
45094W        W13312  34.041   6.929   4.274
45095W        W13313  23.569  43.937  13.907
45096W        W13314  13.153  18.570  14.925
45097W        W13315   2.467  25.000   1.638
45098W        W13316  22.938  37.128  12.569
45099W        W13317  22.613  25.763   1.704
45100W        W13318   7.328  18.535   2.715
45101W        W13319   8.260  20.430   1.705
45102W        W13320  40.868  36.315  14.907
45103W        W13321  41.011  44.227  11.089
45104W        W13322   8.733  15.195   1.647
45105W        W13323   5.847   9.281   3.325
45106W        W13324  22.180  11.921  14.849
45107W        W13325  23.277  11.512   0.992
45108W        W13326   0.753  41.579  11.564
45109W        W13327  23.637  40.488   2.686
45110W        W13328  29.617   4.960  12.508
45111W        W13329   3.694  15.312  11.549
45112W        W13330  18.816  13.705  14.850
45113W        W13331  42.209  13.231  11.910
45114W        W13332  29.698   8.665   1.363
45115W        W13333  22.761  39.752   4.440
45116W        W13334  12.215  25.996   4.065
45117W        W13335  17.840  13.744  12.714
45118W        W13336   6.906   5.957   0.730
45119W        W13337  20.478  24.246  11.148
45120W        W13338  22.226  36.510  12.582
45121W        W13339  25.722  31.567   2.891
45122W        W13340  28.660  13.356   0.292
45123W        W13341  19.610  30.197  12.173
45124W        W13342  21.724  33.515  13.251
45125W        W13343  22.246  41.756  12.862
45126W        W13344  25.744  43.054  10.755
45127W        W13345   2.741   9.216   2.159
45128W        W13346  17.758   7.890   1.410
45129W        W13347   5.520  34.632  14.321
45130W        W13348   0.678  44.403  14.511
45131W        W13349  13.549  28.854  13.593
45132W        W13350  19.673   4.479   4.422
45133W        W13351  11.650  31.457  13.537
45134W        W13352  17.096   2.556  13.817
45135W        W13353   8.852  32.231  11.044
45136W        W13354  28.169  33.110   0.375
45137W        W13355  26.055  33.766   2.372
45138W        W13356  43.375  42.190   1.878
45139W        W13357  18.115  40.549   4.395
45140W        W13358  41.892   7.278  13.236
45141W        W13359  36.393  16.345  10.357
45142W        W13360  30.401   2.267   1.368
45143W        W13361   8.412  22.027  13.504
45144W        W13362   1.091  37.360   4.676
45145W        W13363  30.138  24.591  13.457
45146W        W13364   0.844   5.927  10.653
45147W        W13365  39.316  20.212   2.738
45148W        W13366  41.281  38.838  12.960
45149W        W13367  42.283  37.403   3.102
45150W        W13368  20.517   1.430  13.822
45151W        W13369   9.662  33.170  11.465
45152W        W13370  25.295   2.750  12.939
45153W        W13371  13.665   7.655   4.736
45154W        W13372  10.809  30.411   2.415
45155W        W13373  17.700  42.008  12.933
45156W        W13374  27.872  42.788  12.084
45157W        W13375  21.211  18.062  13.520
45158W        W13376  35.004  39.528  12.529
45159W        W13377   2.422  38.331   3.640
45160W        W13378  19.701  13.658   0.921
45161W        W13379  26.509  23.844  10.300
45162W        W13380  32.792   8.609  13.318
45163W        W13381  10.334  11.167   4.542
45164W        W13382  30.061   0.996  14.446
45165W        W13383  32.058  25.654   2.692
45166W        W13384  15.028  15.284   2.279
45167W        W13385  24.229  23.099  14.044
45168W        W13386  30.702  37.884   1.249
45169W        W13387  28.086  31.473  12.418
45170W        W13388  26.539   6.477   2.954
45171W        W13389  16.162   8.947   5.011
45172W        W13390  17.145  35.545  11.217
45173W        W13391  21.732  32.861   2.613
45174W        W13392  12.626  38.413   2.496
45175W        W13393  38.006  42.739   0.400
45176W        W13394  43.968  26.126  12.971
45177W        W13395  22.427  38.560  14.032
45178W        W13396  20.019  26.603   3.256
45179W        W13397  31.176  14.543   4.585
45180W        W13398  17.336   5.931  11.159
45181W        W13399  25.688  19.073   0.933
45182W        W13400  44.623   2.726   4.257
45183W        W13401  44.355  26.227   2.232
45184W        W13402  35.325  44.601   3.092
45185W        W13403   6.172   0.298   4.512
45186W        W13404  44.848   6.923  12.678
45187W        W13405   6.436  28.553  10.760
45188W        W13406  42.584  33.858   3.867
45189W        W13407  38.430  41.287  13.943
45190W        W13408  39.516  17.228   3.380
45191W        W13409  39.076  11.469   1.640
45192W        W13410  44.565  20.044   0.289
45193W        W13411  23.192   4.240  10.907
45194W        W13412  25.237  10.143   4.036
45195W        W13413  16.125   8.141   2.284
45196W        W13414   1.293  32.971  13.873
45197W        W13415  39.133  11.202   2.712
45198W        W13416  10.178  13.585  11.941
45199W        W13417  14.269  32.109   1.918
45200W        W13418  18.314  20.369   1.868
45201W        W13419  31.549   7.199  13.322
45202W        W13420  34.337  10.628   2.221
45203W        W13421  25.194  28.671  12.634
45204W        W13422  15.843  34.446  10.315
45205W        W13423  23.209  11.576   2.707
45206W        W13424  16.305   5.226  11.497
45207W        W13425  29.178  42.771  12.921
45208W        W13426  23.271  21.000  14.759
45209W        W13427  25.402  44.934  12.598
45210W        W13428   6.671  27.367   2.551
45211W        W13429   1.153  23.602   3.041
45212W        W13430   6.148  21.680  13.927
45213W        W13431  17.300  33.944  10.857
45214W        W13432  36.046  28.727   1.786
45215W        W13433  34.915  34.948  12.613
45216W        W13434  22.449  24.943   5.033
45217W        W13435   9.623   4.934  12.475
45218W        W13436  35.413  21.244  14.966
45219W        W13437   7.443  40.967   0.821
45220W        W13438  10.895  15.660  13.394
45221W        W13439   5.337  17.995  12.441
45222W        W13440   6.792  16.536   3.687
45223W        W13441  18.587  15.141   4.655
45224W        W13442   4.260  29.932   3.661
45225W        W13443  24.406  14.634   0.754
45226W        W13444  30.968   8.142   2.078
45227W        W13445  41.211   8.849   4.131
45228W        W13446  43.417  11.345   2.440
45229W        W13447  14.170  12.694   2.868
45230W        W13448  37.594  25.059   3.333
45231W        W13449  16.670  33.840  11.763
45232W        W13450  26.634  15.760  11.884
45233W        W13451  16.782   5.843  12.600
45234W        W13452  16.566  23.619  10.700
45235W        W13453  39.878  25.999  10.622
45236W        W13454  16.222  11.282  13.145
45237W        W13455  32.047  33.427  14.024
45238W        W13456  32.564  28.222   1.739
45239W        W13457  40.970  22.001   0.977
45240W        W13458  12.567  24.031  11.634
45241W        W13459  32.583   7.747   2.027
45242W        W13460  18.135  17.050   3.702
45243W        W13461  26.552  20.736  14.528
45244W        W13462   5.168   1.958  14.981
45245W        W13463  17.380   3.993  14.782
45246W        W13464  14.389  43.595   0.547
45247W        W13465  15.766  38.430   2.607
45248W        W13466  32.436  42.011   4.716
45249W        W13467  13.668  21.161  13.503
45250W        W13468   2.300  38.381  14.261
45251W        W13469   1.828   0.412   4.641
45252W        W13470  35.310  18.613   2.871
45253W        W13471  44.780   7.907   4.525
45254W        W13472   3.986  19.511   0.796
45255W        W13473  28.509  10.717  13.731
45256W        W13474  22.381  37.173   0.553
45257W        W13475  42.421   8.128   2.888
45258W        W13476   4.752  21.102   0.018
45259W        W13477  13.327  32.871   4.530
45260W        W13478  26.602  28.974  12.996
45261W        W13479   9.082  40.316   9.828
45262W        W13480  11.542   9.170   4.731
45263W        W13481  30.566  43.397  11.136
45264W        W13482  33.417  14.241   5.248
45265W        W13483  28.192  22.811   4.964
45266W        W13484  17.744  43.461   0.444
45267W        W13485  39.423  14.534  11.717
45268W        W13486   8.410   1.898  11.564
45269W        W13487   5.347  42.549   3.619
45270W        W13488  21.942  19.245  14.420
45271W        W13489   6.967  17.948   3.616
45272W        W13490  34.135  32.510  12.148
45273W        W13491  10.251  44.468   3.805
45274W        W13492  14.618  36.647   3.812
45275W        W13493  14.289  34.603  14.115
45276W        W13494  24.431  28.152  12.986
45277W        W13495   0.462  30.786  11.292
45278W        W13496  15.196  36.135   0.720
45279W        W13497  19.304  18.589   4.961
45280W        W13498  13.765  11.225   3.685
45281W        W13499  27.721   1.313  14.565
45282W        W13500   6.499  30.028   4.256
45283W        W13501  27.466  34.138   3.642
45284W        W13502   3.655  34.541   2.292
45285W        W13503  18.529   3.924   0.738
45286W        W13504  17.315   3.450  11.512
45287W        W13505   3.742  11.247   1.852
45288W        W13506  10.385   4.385   0.411
45289W        W13507  31.068  19.724   4.599
45290W        W13508   2.410  42.897   1.871
45291W        W13509  30.662  26.681  10.690
45292W        W13510  15.605  26.672   1.732
45293W        W13511  12.332  10.184  11.586
45294W        W13512  11.133  21.123   3.232
45295W        W13513  27.175   7.934  13.375
45296W        W13514  12.749  44.458   1.770
45297W        W13515  40.524  23.442  13.988
45298W        W13516  29.134  31.716  10.728
45299W        W13517  24.846   0.936   1.827
45300W        W13518  42.198  19.285  11.151
45301W        W13519   1.430   7.464  13.863
45302W        W13520   3.680  14.726  12.143
45303W        W13521  25.708  34.659   2.258
45304W        W13522  36.796  38.636  11.068
45305W        W13523  44.514   6.244  12.806
45306W        W13524  42.594  18.385  11.131
45307W        W13525  23.760  24.514  13.274
45308W        W13526  17.566  39.436   4.181
45309W        W13527  39.278  20.607  12.608
45310W        W13528   2.545  16.424   3.765
45311W        W13529  19.108  29.582  11.612
45312W        W13530  14.894   7.263   4.329
45313W        W13531  21.852  12.719   1.666
45314W        W13532  36.153   5.451   0.656
45315W        W13533  41.286  15.613   1.410
45316W        W13534   0.881  41.307   3.296
45317W        W13535   0.719  16.475   3.430
45318W        W13536   9.792  40.469   2.028
45319W        W13537  24.799  36.800   0.436
45320W        W13538   3.722  34.000  13.421
45321W        W13539  42.325  28.897  14.455
45322W        W13540  20.637  34.747  12.637
45323W        W13541  24.321  27.499   3.643
45324W        W13542  29.709  22.581  11.427
45325W        W13543  40.779  18.308   2.333
45326W        W13544   8.316  38.130  11.314
45327W        W13545  27.765  39.730   3.622
45328W        W13546  22.036   0.522  14.911
45329W        W13547   0.554  20.457   4.272
45330W        W13548   4.671   3.287  11.744
45331W        W13549  34.702  16.604  13.922
45332W        W13550  25.259  31.870  10.748
45333W        W13551  21.685  39.006  11.125
45334W        W13552  29.246  18.017  10.713
45335W        W13553  14.133  43.549   3.116
45336W        W13554   2.282  12.628  13.871
45337W        W13555  21.903  21.573   1.895
45338W        W13556  19.590   4.492  10.991
45339W        W13557  34.621  30.538  10.484
45340W        W13558  27.447  30.905   4.344
45341W        W13559   6.795  31.293  12.257
45342W        W13560  20.536  37.510   1.320
45343W        W13561  28.461  32.644   0.862
45344W        W13562  36.363  17.776  14.965
45345W        W13563  33.451  16.564   0.569
45346W        W13564  22.057   0.244  11.737
45347W        W13565   7.887  19.364   4.992
45348W        W13566  23.088   3.389   1.282
45349W        W13567   4.194  34.236  14.110
45350W        W13568   3.890  23.659   2.830
45351W        W13569  19.463  29.862  11.284
45352W        W13570  14.644  11.526  14.918
45353W        W13571  33.711  15.307   1.895
45354W        W13572  10.407  18.623   4.077
45355W        W13573  37.000   9.738  12.087
45356W        W13574  25.190   6.123  12.172
45357W        W13575  38.876  37.613  10.416
45358W        W13576  42.835  39.620  12.554
45359W        W13577   4.969  15.767   5.016
45360W        W13578   5.841  14.703  13.023
45361W        W13579  44.292  32.421  12.474
45362W        W13580  24.202  29.232   1.228
45363W        W13581  11.243  22.302  14.275
45364W        W13582  22.516  31.538   3.591
45365W        W13583  25.126  42.928  13.218
45366W        W13584   6.147  17.598   1.609
45367W        W13585   4.368  32.793   3.123
45368W        W13586  32.746  38.631  11.471
45369W        W13587  34.086  20.699   0.461
45370W        W13588   7.307   3.223  14.015
45371W        W13589  33.105  26.914  12.958
45372W        W13590  20.786  39.236  14.531
45373W        W13591  21.153  26.875  11.886
45374W        W13592  36.041   1.243  12.886
45375W        W13593  35.883  38.774  10.761
45376W        W13594  12.780  44.445  14.118
45377W        W13595  18.234  28.729   0.867
45378W        W13596  34.885  25.082   1.027
45379W        W13597  33.596  35.065  10.137
45380W        W13598  32.806  21.796  14.786
45381W        W13599   9.689  44.326   3.897
45382W        W13600  28.329   7.336   2.050
45383W        W13601   2.191  19.082  13.788
45384W        W13602  13.655  21.919  11.758
45385W        W13603  25.182  44.692  12.094
45386W        W13604   9.876  26.424  11.199
45387W        W13605  38.735  21.254   0.253
45388W        W13606  40.813  41.227   1.396
45389W        W13607  19.015   1.438   0.999
45390W        W13608  13.647  17.371  14.505
45391W        W13609  13.617  36.003  13.923
45392W        W13610   1.419  12.760  13.720
45393W        W13611  24.260   4.253   2.212
45394W        W13612  43.217  13.173  12.036
45395W        W13613  22.006  22.752   1.916
45396W        W13614  15.108  37.274   1.265
45397W        W13615   0.715  40.706  13.380
45398W        W13616  28.260  20.138   4.129
45399W        W13617  34.634  28.187   0.001
45400W        W13618  43.493  35.253  13.970
45401W        W13619  13.729  13.783  13.386
45402W        W13620  39.523  30.216   2.700
45403W        W13621  12.639  43.818   9.894
45404W        W13622  18.606  14.098  11.632
45405W        W13623  18.030  10.681  12.500
45406W        W13624   2.255  29.381  14.708
45407W        W13625  25.202  30.049  12.567
45408W        W13626  22.153   1.536   1.906
45409W        W13627  22.388  10.024  12.125
45410W        W13628  24.671  28.204  11.088
45411W        W13629  22.136  41.387   3.226
45412W        W13630   8.231   4.754   0.845
45413W        W13631  27.908  39.052  12.494
45414W        W13632  15.773  18.282  12.366
45415W        W13633  17.957  33.289   4.338
45416W        W13634  37.559   6.851   4.090
45417W        W13635  35.463  37.123  12.835
45418W        W13636  37.840  13.968  12.454
45419W        W13637  11.107   4.423  11.704
45420W        W13638  23.248  18.766  12.008
45421W        W13639  26.836  21.988   1.338
45422W        W13640  29.618   2.302  12.938
45423W        W13641   7.122  43.683   4.290
45424W        W13642  27.548  21.612   3.385
45425W        W13643  20.103  26.961   2.124
45426W        W13644  27.700  11.195   1.783
45427W        W13645  13.703  36.625  10.697
45428W        W13646  16.364  22.551  10.669
45429W        W13647  42.383  39.314  12.173
45430W        W13648  26.233   8.326  13.975
45431W        W13649  35.330  37.914  10.740
45432W        W13650  15.691  29.984  10.832
45433W        W13651  38.076  15.702  11.901
45434W        W13652  39.783   2.540  14.810
45435W        W13653  20.484  17.220  14.316
45436W        W13654  44.324  14.814  13.708
45437W        W13655  35.690  37.296   0.273
45438W        W13656  14.247  26.497  12.098
45439W        W13657   0.981  20.210  14.280
45440W        W13658  28.439  37.116   0.919
45441W        W13659  25.765  42.230  13.071
45442W        W13660  11.353  14.269   4.142
45443W        W13661  28.372  32.917  11.484
45444W        W13662  39.612  28.784  13.622
45445W        W13663  24.104  22.606  14.297
45446W        W13664  20.661  30.288   0.464
45447W        W13665  16.542  30.092  11.192
45448W        W13666  31.655   3.755   1.011
45449W        W13667  13.204  11.706  10.622
45450W        W13668   6.706   6.750   3.596
45451W        W13669   2.999  19.771  13.533
45452W        W13670   4.006  17.409   1.051
45453W        W13671  13.857  22.969   0.340
45454W        W13672  30.921  33.705  12.093
45455W        W13673   3.110  38.608   0.816
45456W        W13674  31.615  11.163   2.819
45457W        W13675  40.024  16.823   3.809
45458W        W13676  34.002  24.145   0.775
45459W        W13677  25.490  15.594   2.308
45460W        W13678   7.399  14.996  13.485
45461W        W13679  21.626   6.816  13.303
45462W        W13680  11.272   0.782  11.995
45463W        W13681  18.243   3.119   0.973
45464W        W13682  17.205   8.768  11.641
45465W        W13683   9.486  16.696   2.610
45466W        W13684  38.793   0.322   0.299
45467W        W13685  12.088  15.576  14.136
45468W        W13686  28.551  36.981  12.673
45469W        W13687   2.361   5.617  11.107
45470W        W13688   5.481  21.306   0.709
45471W        W13689  20.421  27.084  13.684
45472W        W13690  35.630  34.955  13.065
45473W        W13691  43.870  27.769  11.625
45474W        W13692  17.597   1.246   1.160
45475W        W13693   8.764  20.056   2.620
45476W        W13694  22.508  17.782  11.515
45477W        W13695  29.742  11.468   2.749
45478W        W13696  27.633  33.817  11.134
45479W        W13697  21.248  17.409   0.726
45480W        W13698   7.266  40.536  10.703
45481W        W13699  10.176   0.321   0.299
45482W        W13700  30.023  22.782  13.414
45483W        W13701  40.471   1.715  11.252
45484W        W13702  20.492  42.016   0.842
45485W        W13703   3.827   4.913  11.565
45486W        W13704  19.170  10.771   0.800
45487W        W13705  35.857  24.452  11.227
45488W        W13706   7.309  26.987   1.919
45489W        W13707  40.502  40.517   2.395
45490W        W13708  22.653  40.009   1.736
45491W        W13709  44.422  17.227   3.462
45492W        W13710  41.499  30.589  12.515
45493W        W13711  18.357  37.979  12.702
45494W        W13712  17.043  26.980   0.780
45495W        W13713   2.985   9.874  14.552
45496W        W13714  28.509  34.475   2.658
45497W        W13715   0.277  28.448  14.777
45498W        W13716  44.926  39.539  14.048
45499W        W13717  29.243   6.003  10.283
45500W        W13718   8.683  25.286   4.042
45501W        W13719  13.401  38.985  14.885
45502W        W13720  26.160  18.570   0.716
45503W        W13721  25.256   3.312  10.465
45504W        W13722  19.591  30.378   0.786
45505W        W13723  38.791   6.403  14.390
45506W        W13724  24.739   1.295  13.496
45507W        W13725  35.417  34.276  13.667
45508W        W13726  18.714  16.133  10.631
45509W        W13727  27.981   0.992   2.922
45510W        W13728  31.633  13.203   2.859
45511W        W13729   6.045  27.526  10.708
45512W        W13730  35.005  20.173   3.545
45513W        W13731  32.876   7.732   3.421
45514W        W13732  22.078  33.532   2.420
45515W        W13733  35.007  44.731  11.499
45516W        W13734  13.602  37.246   3.678
45517W        W13735  30.378  11.682  14.332
45518W        W13736   7.329   2.219   1.705
45519W        W13737   0.428  13.654   4.925
45520W        W13738   7.184  13.254  12.724
45521W        W13739  15.765   5.793  12.959
45522W        W13740  19.953   0.739   1.287
45523W        W13741  31.711   5.191   4.521
45524W        W13742  29.827  19.679   1.260
45525W        W13743  29.709  18.524   1.801
45526W        W13744   8.805  38.003   1.451
45527W        W13745   2.309   8.848  13.416
45528W        W13746  38.328   4.475   4.644
45529W        W13747  44.383  17.650   4.296
45530W        W13748   9.407  23.024  11.437
45531W        W13749  32.449  15.816  11.964
45532W        W13750  32.642  15.187   1.849
45533W        W13751  12.642  16.828   0.834
45534W        W13752   8.270  30.784  13.059
45535W        W13753   2.471  12.597  11.988
45536W        W13754  36.148  24.630   1.423
45537W        W13755   8.737  41.393   1.858
45538W        W13756   0.893   0.878   4.617
45539W        W13757  29.095  42.988   1.144
45540W        W13758  14.310  28.048   1.784
45541W        W13759  31.390  31.079   0.353
45542W        W13760  32.486  15.756   4.553
45543W        W13761  43.971   2.901   2.513
45544W        W13762  38.520   5.682   0.721
45545W        W13763  17.207  21.318   2.276
45546W        W13764  40.729  12.610  10.308
45547W        W13765  27.992  15.486   0.333
45548W        W13766  35.620   2.716   0.494
45549W        W13767  13.017  25.702  13.922
45550W        W13768  20.753  37.608  11.482
45551W        W13769  17.798  43.530  13.569
45552W        W13770  18.717  25.096   1.388
45553W        W13771  12.568  30.998  12.783
45554W        W13772  31.498   7.133   1.457
45555W        W13773  40.897  13.652   0.329
45556W        W13774  26.497  11.254  11.663
45557W        W13775   2.675   3.829   2.501
45558W        W13776  18.182  35.073  12.938
45559W        W13777  26.465  43.800  12.350
45560W        W13778  32.812  14.865   2.749
45561W        W13779  13.353  44.863   1.430
45562W        W13780   0.758  36.146  10.594
45563W        W13781  21.372  14.654   1.743
45564W        W13782  41.286   1.737   0.063
45565W        W13783  42.408   0.504   2.283
45566W        W13784  41.734  24.582   2.280
45567W        W13785  16.895  11.532   3.810
45568W        W13786  36.527  18.776  13.216
45569W        W13787  44.521  12.203  14.016
45570W        W13788  37.433   3.385  11.758
45571W        W13789  30.214   0.315  12.994
45572W        W13790   2.773  12.537  10.636
45573W        W13791  33.435  28.856   4.864
45574W        W13792  10.731  33.873  12.945
45575W        W13793  38.282  39.395  11.013
45576W        W13794   0.518  34.492   1.196
45577W        W13795   6.428  38.407  14.353
45578W        W13796   7.931   8.756  14.706
45579W        W13797  36.116  28.135  10.581
45580W        W13798  14.938  29.438  12.532
45581W        W13799   2.684  20.226   2.718
45582W        W13800  15.179  41.735   4.138
45583W        W13801   6.872  15.209  11.882
45584W        W13802  41.848   6.190  12.565
45585W        W13803  38.632  23.461   0.366
45586W        W13804   8.265   0.921   0.706
45587W        W13805  30.494  20.251  11.132
45588W        W13806  35.646  11.188   1.602
45589W        W13807  28.610  37.838   3.807
45590W        W13808   4.023   6.597   1.926
45591W        W13809  27.361  34.859  11.813
45592W        W13810   4.791  40.662  10.869
45593W        W13811   2.847  38.825  10.724
45594W        W13812  29.039  23.447  11.672
45595W        W13813   1.914  14.531  13.136
45596W        W13814  41.526  42.986  11.101
45597W        W13815  38.876   4.008   2.910
45598W        W13816  39.535  34.152  10.760
45599W        W13817  31.993  20.104   3.333
45600W        W13818   1.501  38.312  11.199
45601W        W13819  18.324   2.621   0.920
45602W        W13820  14.758  11.615  10.263
45603W        W13821  35.959  10.178   4.103
45604W        W13822  34.360  34.116  14.427
45605W        W13823  44.873  30.548   5.000
45606W        W13824  42.710  25.543   3.252
45607W        W13825  32.979   7.857   1.328
45608W        W13826  17.236  37.144  13.857
45609W        W13827   7.299  34.894   1.990
45610W        W13828  10.399  27.413  12.167
45611W        W13829   4.147   7.742   3.825
45612W        W13830   3.035  14.320  13.190
45613W        W13831   9.685  36.929  10.649
45614W        W13832  21.351  14.362  14.027
45615W        W13833   8.717  19.077   2.470
45616W        W13834  23.033   5.457  11.458
45617W        W13835  14.656  27.730   1.495
45618W        W13836  25.441  18.665   3.768
45619W        W13837  19.969   7.278  14.976
45620W        W13838  27.383   8.751   1.763
45621W        W13839   5.451  16.202  10.639
45622W        W13840   1.448  19.525   0.354
45623W        W13841  14.260  16.503   3.537
45624W        W13842  14.332   9.086  12.997
45625W        W13843   8.879  37.908  14.425
45626W        W13844  33.423  17.196  14.937
45627W        W13845   4.731  39.817   1.463
45628W        W13846  26.573  38.586  12.049
45629W        W13847  27.979  32.622  10.416
45630W        W13848  44.439  34.048  13.941
45631W        W13849  23.509  43.896   3.541
45632W        W13850  26.748  23.568   9.844
45633W        W13851  19.051  12.627  11.601
45634W        W13852   8.911  18.268   3.197
45635W        W13853  43.395  43.549  11.088
45636W        W13854  25.485  14.721  11.070
45637W        W13855  19.125  40.355   4.985
45638W        W13856  40.791   8.225   3.490
45639W        W13857  23.271   9.802  12.923
45640W        W13858  25.039   8.388  11.542
45641W        W13859  25.596  37.357  13.759
45642W        W13860  37.969  15.093  12.036
45643W        W13861  18.213  23.149  14.927
45644W        W13862  22.625  31.121   1.168
45645W        W13863  36.162  38.928  14.087
45646W        W13864  17.051  35.109   1.923
45647W        W13865  28.271  34.106   3.294
45648W        W13866  21.955   5.740   2.772
45649W        W13867  39.566  22.248  11.617
45650W        W13868  34.496  18.253   3.373
45651W        W13869  38.783  39.457   3.864
45652W        W13870  44.984  13.407  14.804
45653W        W13871  27.439   8.779   4.536
45654W        W13872  43.449  14.605   0.867
45655W        W13873   3.986  24.492  11.564
45656W        W13874   3.759  12.119  12.111
45657W        W13875   4.819  14.119  13.000
45658W        W13876  14.490  21.129  13.146
45659W        W13877  30.123  11.267  10.728
45660W        W13878  12.220  14.574   3.116
45661W        W13879  24.443   4.871  11.728
45662W        W13880  42.308  42.508   3.659
45663W        W13881  16.641   7.813  13.818
45664W        W13882   8.237  23.593   4.159
45665W        W13883  11.713  39.629  10.669
45666W        W13884  34.886  14.889   3.662
45667W        W13885  24.435  15.892  10.197
45668W        W13886  37.404  27.527   1.374
45669W        W13887  11.945   3.180   4.188
45670W        W13888   7.386  38.543  14.399
45671W        W13889  27.463  29.221   1.816
45672W        W13890  28.911  31.885   0.691
45673W        W13891   8.165  21.435   3.338
45674W        W13892  44.343  15.737   2.383
45675W        W13893  35.434  11.545   2.549
45676W        W13894  33.111  14.324   4.811
45677W        W13895  30.212  12.132   4.464
45678W        W13896  33.357  37.450   3.635
45679W        W13897  11.333   3.050  11.235
45680W        W13898  41.283  35.234   0.558
45681W        W13899  25.166  21.282   0.725
45682W        W13900  26.177  19.555   2.824
45683W        W13901  26.835   2.323  12.411
45684W        W13902  24.180  29.764   3.272
45685W        W13903   7.176  14.027   4.979
45686W        W13904  28.209  43.053   1.316
45687W        W13905  23.672  25.009   4.083
45688W        W13906  35.960  25.737  12.849
45689W        W13907  39.396  27.016   0.835
45690W        W13908  40.757  30.534   4.160
45691W        W13909  28.744   8.502   1.251
45692W        W13910  40.338   4.998   0.351
45693W        W13911  40.860  44.016  10.639
45694W        W13912  18.574   0.492   4.545
45695W        W13913   1.858  11.282   2.959
45696W        W13914  23.714  19.060   4.056
45697W        W13915  28.289  36.120   3.251
45698W        W13916  10.097  25.155  11.151
45699W        W13917  38.953  13.369  13.853
45700W        W13918  19.811  25.926   1.219
45701W        W13919   2.344  12.415  12.883
45702W        W13920   3.518  31.911  12.064
45703W        W13921  41.274  40.412   4.170
45704W        W13922   1.729  12.961   3.310
45705W        W13923  36.503  10.567   4.660
45706W        W13924  38.552   8.628   2.301
45707W        W13925  38.006  19.175   0.189
45708W        W13926   6.769  14.649   0.196
45709W        W13927   6.728  38.948   2.644
45710W        W13928  41.988  22.727  14.559
45711W        W13929  31.215   4.068  12.490
45712W        W13930   0.518  30.024  13.334
45713W        W13931  32.520  27.534  14.357
45714W        W13932  42.905   3.684  14.751
45715W        W13933  12.010  11.542  11.677
45716W        W13934   7.734  29.583   0.924
45717W        W13935  41.913  12.150  14.004
45718W        W13936  19.670  16.848  12.856
45719W        W13937  40.984  29.187  14.003
45720W        W13938  20.817  17.211  13.918
45721W        W13939  38.033  35.765  13.891
45722W        W13940  17.633  32.114   3.707
45723W        W13941  33.384  35.873  12.397
45724W        W13942  11.066   6.263  11.522
45725W        W13943  12.246   6.398   0.126
45726W        W13944  35.934  33.329   0.921
45727W        W13945  29.209  39.418   4.515
45728W        W13946   0.954  16.620  12.140
45729W        W13947  42.510  31.999   4.574
45730W        W13948   2.869  17.246   0.711
45731W        W13949  28.741   4.632  12.124
45732W        W13950  35.647  32.491   1.846
45733W        W13951  39.974  27.230  12.957
45734W        W13952  35.856   5.667   3.784
45735W        W13953  42.175   4.585  13.457
45736W        W13954   0.291  25.877   1.931
45737W        W13955  36.940  39.251   1.677
45738W        W13956  29.157  29.034  12.474
45739W        W13957  16.324  38.066   4.403
45740W        W13958  16.078  32.468  13.722
45741W        W13959   2.999  11.189   0.829
45742W        W13960  13.824  28.152   0.791
45743W        W13961  33.627  40.466   0.878
45744W        W13962  13.321  22.632  14.479
45745W        W13963  24.646  29.953   1.274
45746W        W13964  32.994  43.310  11.210
45747W        W13965  17.127  30.707   0.474
45748W        W13966  19.313  27.492   4.233
45749W        W13967  19.185  42.508  13.066
45750W        W13968  29.093   7.486  14.842
45751W        W13969  22.648   7.411  11.235
45752W        W13970  33.001   2.364  12.587
45753W        W13971  35.410  25.947  11.704
45754W        W13972  38.074   9.225  12.528
45755W        W13973  18.188  43.466   2.192
45756W        W13974  39.725  42.910  14.946
45757W        W13975  34.019  10.743   3.395
45758W        W13976  16.245  24.746   4.160
45759W        W13977   5.299  26.602   4.744
45760W        W13978  19.207  36.594  12.919
45761W        W13979   3.205  16.268   0.352
45762W        W13980  12.619  38.913  11.952
45763W        W13981  30.125   5.202  12.472
45764W        W13982  33.997  32.137  11.834
45765W        W13983   8.697  16.372  12.999
45766W        W13984  26.989  26.379  12.963
45767W        W13985   3.963  27.558   2.291
45768W        W13986  11.442  32.389  12.028
45769W        W13987   1.658  15.155   0.365
45770W        W13988  31.926   4.176  14.424
45771W        W13989   7.320  15.106   4.099
45772W        W13990   4.980   6.217  11.370
45773W        W13991  27.126  27.695   2.787
45774W        W13992  28.564  39.275   1.135
45775W        W13993  28.039  33.925  13.445
45776W        W13994  12.004  23.826   2.409
45777W        W13995  21.325  22.824  10.115
45778W        W13996   2.387  24.173  14.064
45779W        W13997  25.931  15.477   5.269
45780W        W13998  16.703  21.262   3.449
45781W        W13999  35.470   5.890  11.442
45782W        W14000  17.511  44.767   1.675
45783W        W14001  29.405  22.121   4.309
45784W        W14002   2.758  31.188   4.500
45785W        W14003  19.931  38.114  11.841
45786W        W14004  18.304  13.714  10.946
45787W        W14005  21.543  33.327   3.575
45788W        W14006   8.002  11.448  10.296
45789W        W14007   6.705   9.775   1.751
45790W        W14008  44.326   4.113  11.161
45791W        W14009  26.060  29.674  13.035
45792W        W14010  35.057  38.338  10.830
45793W        W14011  42.389  20.325   3.805
45794W        W14012  43.314  20.700   2.724
45795W        W14013  10.491  39.297  12.470
45796W        W14014  44.504  24.268   3.187
45797W        W14015  33.077  12.329   2.821
45798W        W14016  37.828  34.834   3.799
45799W        W14017  18.054  40.543   2.454
45800W        W14018   6.606  44.280  14.772
45801W        W14019  35.173  30.442   3.242
45802W        W14020  11.652  17.108   1.852
45803W        W14021  35.096  29.711   2.629
45804W        W14022  31.438   1.007   3.748
45805W        W14023  17.783   4.944   1.415
45806W        W14024  35.230  44.252  11.066
45807W        W14025  31.134  44.214  11.012
45808W        W14026  21.926  41.492   5.300
45809W        W14027  15.280  32.360  14.249
45810W        W14028   8.656  31.824   0.897
45811W        W14029  35.222  36.112  13.922
45812W        W14030  20.303  36.868  13.438
45813W        W14031  31.869  30.908   0.342
45814W        W14032   7.677  41.939   0.111
45815W        W14033  13.801  15.926   0.841
45816W        W14034  37.663  13.237   4.980
45817W        W14035   7.241   9.485  12.593
45818W        W14036   5.631  36.084   3.848
45819W        W14037  23.753  39.317   0.267
45820W        W14038  35.105  32.465  10.646
45821W        W14039  41.858  33.867   4.201
45822W        W14040  19.677  32.567  12.523
45823W        W14041  44.250  26.716  14.333
45824W        W14042  17.812  34.013  13.696
45825W        W14043  40.118   5.291  11.991
45826W        W14044  35.087  37.074  13.537
45827W        W14045   8.890  30.605   2.468
45828W        W14046  14.503  27.492  11.936
45829W        W14047  37.307  13.274   1.723
45830W        W14048  39.610  30.441  14.552
45831W        W14049  32.532  35.532   1.798
45832W        W14050  26.701  24.778  13.381
45833W        W14051   5.747  14.195  13.115
45834W        W14052  19.505  12.187   3.981
45835W        W14053  27.664  36.270   1.944
45836W        W14054  37.698   2.971   1.786
45837W        W14055   4.467  31.811  12.137
45838W        W14056  12.214  33.786   3.497
45839W        W14057  36.105  25.396  13.807
45840W        W14058   2.197  16.538   0.509
45841W        W14059  12.121   4.429  13.398
45842W        W14060  44.509  41.351   1.223
45843W        W14061  35.488   0.251   3.829
45844W        W14062   5.458  15.019  11.218
45845W        W14063  42.913  13.813  14.462
45846W        W14064  42.822  42.850  11.158
45847W        W14065  39.509  32.551  11.560
45848W        W14066   1.716  10.618   3.778
45849W        W14067  15.217  18.728  13.967
45850W        W14068   4.307  11.158   4.634
45851W        W14069  11.170  27.106  10.890
45852W        W14070   5.254   2.653   1.447
45853W        W14071   1.268  39.354   1.224
45854W        W14072  39.372   0.375  11.112
45855W        W14073  34.391  12.627   0.394
45856W        W14074  44.854  16.582  14.584
45857W        W14075  15.387  34.542  11.661
45858W        W14076  17.563  19.598   0.374
45859W        W14077  32.246  10.142   3.350
45860W        W14078   5.358  30.526   1.975
45861W        W14079  17.103  22.058  13.961
45862W        W14080  13.239  29.025   2.322
45863W        W14081   9.641  27.369   3.733
45864W        W14082  36.360  36.496  13.446
45865W        W14083  18.235  17.819  11.917
45866W        W14084  27.136   3.515   4.200
45867W        W14085  42.462  33.514   4.235
45868W        W14086  20.677  14.627  10.280
45869W        W14087  21.707  30.433  11.165
45870W        W14088  13.268  41.816  10.799
45871W        W14089   8.693   9.358  13.252
45872W        W14090   0.717  32.167  14.838
45873W        W14091  41.203  35.538  13.399
45874W        W14092  41.719   3.272   2.789
45875W        W14093  29.085  39.491   1.227
45876W        W14094  10.278  44.745   2.245
45877W        W14095  31.595  22.505   1.386
45878W        W14096  40.597  22.582  11.537
45879W        W14097  24.833  23.037  11.611
45880W        W14098  23.611  10.395   2.932
45881W        W14099   6.129  10.415  11.486
45882W        W14100  26.512  14.249   2.002
45883W        W14101  36.442  20.136   4.439
45884W        W14102  10.125  38.495   2.312
45885W        W14103  14.367  42.430   3.358
45886W        W14104  14.169  31.149  11.492
45887W        W14105   1.271  39.552   2.149
45888W        W14106  15.601   9.907   2.183
45889W        W14107  29.911  28.998   0.178
45890W        W14108   0.750  17.177   0.368
45891W        W14109  12.343  13.706   2.319
45892W        W14110   8.691  29.975  13.949
45893W        W14111  42.081   4.464   3.286
45894W        W14112  20.515  18.802  12.924
45895W        W14113  42.217  39.561  11.189
45896W        W14114  37.596  27.944  11.535
45897W        W14115  38.079  25.456   0.029
45898W        W14116  40.782  26.328   4.215
45899W        W14117  44.681  11.719   0.513
45900W        W14118  33.609  28.448  13.926
45901W        W14119  39.774   2.796  12.571
45902W        W14120   3.420  42.336   0.016
45903W        W14121  14.018  34.512  13.667
45904W        W14122  38.611   8.175   4.135
45905W        W14123  37.802  22.169   0.358
45906W        W14124  21.000  23.451   4.171
45907W        W14125  21.448   4.799  12.393
45908W        W14126  42.445  35.632   0.697
45909W        W14127  23.473   5.031  14.979
45910W        W14128  27.605  25.695   0.990
45911W        W14129   1.284  33.891   0.310
45912W        W14130  12.533  23.579   2.244
45913W        W14131  43.090  25.964   1.443
45914W        W14132  20.811  26.165   1.347
45915W        W14133  41.792  22.845   2.580
45916W        W14134  33.648  10.697  14.367
45917W        W14135  15.367   6.687  13.465
45918W        W14136  12.158  27.998   1.232
45919W        W14137   6.630  42.947   3.024
45920W        W14138  29.261  28.847   1.407
45921W        W14139  21.243  17.294   4.537
45922W        W14140  22.474  26.332  13.556
45923W        W14141   0.213   9.375  11.013
45924W        W14142  14.729  31.681  13.300
45925W        W14143  13.744  29.958   2.374
45926W        W14144  44.376  27.470  12.817
45927W        W14145  28.845  26.624  14.472
45928W        W14146  18.736   6.344  11.117
45929W        W14147  30.603  25.175  10.793
45930W        W14148  24.240  30.691  12.536
45931W        W14149  19.784   5.758  11.613
45932W        W14150   9.471  18.323  14.540
45933W        W14151  14.975  31.349  14.475
45934W        W14152  40.396  30.007   0.666
45935W        W14153  13.234  25.373   2.919
45936W        W14154   0.770  33.548  14.187
45937W        W14155  10.367  19.122   2.093
45938W        W14156   0.855  44.444  13.219
45939W        W14157  31.101  24.963   4.132
45940W        W14158  14.776   6.175   2.634
45941W        W14159  23.162  22.525   4.741
45942W        W14160   3.239  24.583   1.662
45943W        W14161  11.737  15.220   1.712
45944W        W14162  41.550   4.070  10.714
45945W        W14163  13.558   9.884   2.419
45946W        W14164   4.680   8.801   2.861
45947W        W14165   0.765  33.145   2.306
45948W        W14166  17.581  30.476  12.519
45949W        W14167  37.473  25.680   4.569
45950W        W14168  27.823  14.719  13.802
45951W        W14169   5.171  21.676   0.513
45952W        W14170   8.799   5.036  10.044
45953W        W14171  17.027   5.626   2.332
45954W        W14172  35.007  31.197   2.773
45955W        W14173  34.884  38.830   3.275
45956W        W14174  23.682  15.679  11.615
45957W        W14175   4.746  38.967   2.866
45958W        W14176  28.272  29.557  11.590
45959W        W14177  34.041  37.124   0.912
45960W        W14178  27.803  13.882   5.051
45961W        W14179  33.395  18.497  12.945
45962W        W14180  29.837   5.210   3.649
45963W        W14181  30.489  38.276   0.488
45964W        W14182  41.364  34.178  10.969
45965W        W14183  17.778  39.052   2.277
45966W        W14184  10.133  13.815  13.888
45967W        W14185  12.548   1.651  14.446
45968W        W14186  15.840  40.489  11.182
45969W        W14187  11.088  25.787   2.200
45970W        W14188   0.940  31.160   2.771
45971W        W14189  18.089  37.354  13.429
45972W        W14190  36.544  38.546  11.505
45973W        W14191   3.570   9.723  13.232
45974W        W14192  21.249   6.791  12.001
45975W        W14193   2.835  19.644  14.447
45976W        W14194  18.743  35.828  13.868
45977W        W14195  28.496  21.984  11.854
45978W        W14196  37.025  36.914   2.322
45979W        W14197  16.460   0.712   3.193
45980W        W14198   2.881  29.753  12.493
45981W        W14199  43.412  26.193   1.825
45982W        W14200  34.471  34.814  10.616
45983W        W14201  24.409   6.921  13.384
45984W        W14202   0.069  35.843   4.220
45985W        W14203  19.285   0.669  13.364
45986W        W14204  17.343  22.706   1.665
45987W        W14205   9.701  27.493  11.621
45988W        W14206  27.299  28.200   4.289
45989W        W14207   4.788  21.629   3.220
45990W        W14208  12.727  22.326   1.072
45991W        W14209  27.035   3.065   3.969
45992W        W14210  22.846   2.008   3.296
45993W        W14211  33.711  26.268   3.098
45994W        W14212  17.478  30.926  11.016
45995W        W14213  16.209  29.589   0.665
45996W        W14214  11.425   9.588   4.227
45997W        W14215   6.410  38.370  12.440
45998W        W14216  44.513  18.722  11.658
45999W        W14217  20.106  21.216   3.268
46000W        W14218  10.755  33.287   4.218
46001W        W14219  35.168  42.024   3.201
46002W        W14220  32.930  40.411   3.408
46003W        W14221   1.354  43.877   1.338
46004W        W14222  33.148  43.028  12.944
46005W        W14223  12.281  28.344   4.153
46006W        W14224  43.913   7.344   3.385
46007W        W14225  36.933   7.606  14.064
46008W        W14226  33.419  26.962   3.578
46009W        W14227   8.512   5.583  13.113
46010W        W14228   9.312  24.542  12.553
46011W        W14229   0.908  32.368  13.592
46012W        W14230  10.827  23.527  12.440
46013W        W14231  26.961  40.773  12.079
46014W        W14232   7.447   6.821   3.818
46015W        W14233  42.910  39.320  11.085
46016W        W14234  16.556   4.264  10.716
46017W        W14235   5.647  12.208   1.776
46018W        W14236  12.009  33.014  12.541
46019W        W14237   0.615   8.738   2.489
46020W        W14238  16.708  37.018  14.762
46021W        W14239  13.744   6.326  11.097
46022W        W14240  25.226   1.065   1.496
46023W        W14241  31.171  41.230  11.601
46024W        W14242  15.802  20.665  12.158
46025W        W14243   8.913   0.804  12.271
46026W        W14244  35.189   2.343   3.071
46027W        W14245  20.825  21.263  12.325
46028W        W14246  12.702  29.166  11.064
46029W        W14247  40.505  31.091  10.650
46030W        W14248  18.234  18.409  11.540
46031W        W14249  16.850  18.451  12.990
46032W        W14250  40.781  44.403  10.279
46033W        W14251  26.439  19.571  13.987
46034W        W14252  10.262   7.719   4.101
46035W        W14253  44.418  25.439  11.627
46036W        W14254  21.203  27.582   0.207
46037W        W14255   6.728  21.210   1.735
46038W        W14256   1.939  20.696   0.954
46039W        W14257   3.053  22.448  14.850
46040W        W14258   8.006  17.267   0.703
46041W        W14259  31.635  13.427   2.399
46042W        W14260  26.668   3.418  12.045
46043W        W14261   6.367  17.312  10.272
46044W        W14262  19.651   2.976   4.088
46045W        W14263  32.887  31.408  11.735
46046W        W14264  42.201  28.131  13.958
46047W        W14265   9.375  18.964   1.938
46048W        W14266  18.260  42.577   4.834
46049W        W14267  33.119   1.336   0.936
46050W        W14268   9.852  23.898  11.630
46051W        W14269   2.214  26.377  11.079
46052W        W14270  42.211   9.286   0.914
46053W        W14271  31.097  23.539  13.099
46054W        W14272  37.830  13.123  11.968
46055W        W14273  13.657  23.128   0.814
46056W        W14274  25.994  11.562   1.831
46057W        W14275   3.297   5.688   3.137
46058W        W14276  30.450  18.569  10.688
46059W        W14277   1.017  44.367  12.722
46060W        W14278  43.956  15.834  11.565
46061W        W14279  44.774  13.057   0.749
46062W        W14280  25.487  33.591  12.050
46063W        W14281   2.884  30.098   1.970
46064W        W14282  20.208  44.371  11.020
46065W        W14283  32.792   1.414   3.633
46066W        W14284  15.559   2.978  10.775
46067W        W14285  35.917   2.166  10.229
46068W        W14286  12.228   5.122  12.881
46069W        W14287  34.030  28.165   3.218
46070W        W14288  43.864  20.563  14.908
46071W        W14289  32.525  11.800   0.424
46072W        W14290  33.813  30.100   0.666
46073W        W14291   0.477   8.616  13.001
46074W        W14292  31.620  18.336   0.818
46075W        W14293  42.762  36.556   0.809
46076W        W14294   9.702  23.568  10.489
46077W        W14295  28.803  11.382  13.270
46078W        W14296   2.644  18.308  11.964
46079W        W14297  17.855   8.684  12.566
46080W        W14298  29.428  33.381   2.354
46081W        W14299  25.170  37.433   4.128
46082W        W14300   3.403  21.796   4.255
46083W        W14301  25.466  24.676   2.388
46084W        W14302  13.233   3.293  14.274
46085W        W14303  26.236  11.747   3.210
46086W        W14304  14.651   5.739   2.377
46087W        W14305  36.546  41.405  14.950
46088W        W14306   1.360   9.932  12.228
46089W        W14307   2.545  14.535   4.481
46090W        W14308  10.790  34.154  12.459
46091W        W14309   1.417  16.106   0.715
46092W        W14310  38.486   3.506  11.186
46093W        W14311  12.161  35.857   2.698
46094W        W14312  36.003   4.476   1.395
46095W        W14313  38.393   6.691   1.485
46096W        W14314  40.344   6.871  11.214
46097W        W14315  12.214   2.757   3.269
46098W        W14316  20.173  42.769   4.476
46099W        W14317  23.057  20.499  13.129
46100W        W14318  12.348  38.857   4.592
46101W        W14319  32.930  15.689  14.312
46102W        W14320  44.784  34.960  13.489
46103W        W14321  32.496  16.770  13.466
46104W        W14322  35.979  31.363   2.699
46105W        W14323  35.523   7.777   0.975
46106W        W14324  37.587  38.117  14.019
46107W        W14325  43.076   1.967  13.468
46108W        W14326  19.027  25.528   4.693
46109W        W14327   2.364  33.218  14.524
46110W        W14328  33.090   5.404   1.703
46111W        W14329  28.775   0.594   1.320
46112W        W14330   6.859  16.864   3.275
46113W        W14331  20.877  35.348   4.539
46114W        W14332  41.048  23.532   4.604
46115W        W14333   9.311  33.942  12.166
46116W        W14334  42.722  18.646  14.980
46117W        W14335  15.252  44.939  13.883
46118W        W14336   0.302  43.413   2.372
46119W        W14337   5.187  34.975  10.502
46120W        W14338  15.857  15.592   0.428
46121W        W14339  21.101  26.359   0.914
46122W        W14340  29.173  28.124   3.582
46123W        W14341  43.818  22.546   1.788
46124W        W14342  21.054  36.137  13.444
46125W        W14343  30.491  12.232   4.040
46126W        W14344  23.267   1.962  11.935
46127W        W14345  15.767  28.128  11.934
46128W        W14346  43.955  31.410  13.534
46129W        W14347  36.386  41.667   4.915
46130W        W14348  10.061  32.694  11.967
46131W        W14349  38.933   6.223   5.002
46132W        W14350  25.529  18.801  13.287
46133W        W14351  28.285  35.075  13.846
46134W        W14352   8.315  10.362  10.710
46135W        W14353  11.679  33.453  12.986
46136W        W14354  38.112  13.283   0.361
46137W        W14355  31.164   9.434  12.769
46138W        W14356   1.797  22.336   0.804
46139W        W14357  27.056   5.284  12.409
46140W        W14358  28.184  15.567   4.075
46141W        W14359   8.924   1.921   3.989
46142W        W14360   0.706  19.512  11.266
46143W        W14361  42.828  42.944  13.330
46144W        W14362   8.349  14.516   1.018
46145W        W14363  42.798  24.958   5.036
46146W        W14364   5.905  19.527  12.073
46147W        W14365  40.450  15.271   9.986
46148W        W14366  23.014  39.408  11.968
46149W        W14367  14.368  19.127   0.004
46150W        W14368   0.419  20.580   2.415
46151W        W14369   5.181  38.380   3.291
46152W        W14370  13.374   5.184  14.694
46153W        W14371  40.066  13.820   0.936
46154W        W14372  31.622  13.377   3.757
46155W        W14373  24.774  34.993   2.616
46156W        W14374  34.549  26.314   2.803
46157W        W14375  31.622  21.042  11.953
46158W        W14376  32.426  37.799   2.239
46159W        W14377  39.859  38.998  10.538
46160W        W14378  31.166  12.998  12.406
46161W        W14379  26.526   7.907   3.146
46162W        W14380  30.173  22.214  14.924
46163W        W14381   0.846  38.372   2.172
46164W        W14382  15.187  34.431   0.238
46165W        W14383  29.667  42.084   1.787
46166W        W14384  23.202  36.358  12.807
46167W        W14385  43.338  36.969  11.129
46168W        W14386  27.377   8.640  11.677
46169W        W14387  16.185   2.970  14.769
46170W        W14388  43.605  14.113   1.621
46171W        W14389  41.682  28.197   1.470
46172W        W14390  32.899  44.166   1.119
46173W        W14391  28.700  14.780   2.850
46174W        W14392  35.576  32.965   4.578
46175W        W14393   6.917  26.739  13.740
46176W        W14394  39.326  12.332  12.416
46177W        W14395  13.071   9.363  12.245
46178W        W14396  11.380  24.195   3.189
46179W        W14397   5.508  21.682   4.092
46180W        W14398  23.508  16.683   4.716
46181W        W14399  38.119  37.258   2.792
46182W        W14400  18.217  34.944   3.320
46183W        W14401  42.868  35.909   2.754
46184W        W14402  33.312  21.926  14.781
46185W        W14403  36.004  22.622   1.139
46186W        W14404   1.186  25.144  13.427
46187W        W14405  29.875  24.031   1.457
46188W        W14406  16.525  14.597   3.808
46189W        W14407  18.819  33.164  14.846
46190W        W14408   6.932   9.855   2.849
46191W        W14409  24.175  34.129  11.486
46192W        W14410  29.461   6.764   4.632
46193W        W14411  41.918  24.608  13.747
46194W        W14412  27.239  13.672  11.997
46195W        W14413  41.459  39.250  13.261
46196W        W14414   1.756  34.746   3.242
46197W        W14415  12.744  33.692   0.055
46198W        W14416  14.160   8.309  14.923
46199W        W14417   2.087  25.922   4.726
46200W        W14418  18.719  17.066  10.797
46201W        W14419   2.779  43.250  11.866
46202W        W14420   8.297   5.300   2.597
46203W        W14421  30.411  39.372   4.552
46204W        W14422  12.769  12.433  14.360
46205W        W14423  32.103  23.211  14.370
46206W        W14424  39.424  36.577  12.887
46207W        W14425  38.391  14.083   4.519
46208W        W14426  43.436   1.725   1.792
46209W        W14427   7.563  19.071   4.089
46210W        W14428  24.989   0.529   2.734
46211W        W14429  32.688  38.555   2.025
46212W        W14430  18.804  28.151  12.460
46213W        W14431  15.592  40.586  12.360
46214W        W14432  41.299  23.550   3.759
46215W        W14433  23.318   3.183   0.861
46216W        W14434  41.413  38.055   2.189
46217W        W14435  33.095  40.082  10.954
46218W        W14436  25.519  11.300  14.315
46219W        W14437  12.321  33.445  11.860
46220W        W14438   5.225  25.076   3.140
46221W        W14439   4.219  37.572  11.500
46222W        W14440  42.042   6.373  10.541
46223W        W14441   0.010  30.609   0.333
46224W        W14442  10.234   2.023   3.638
46225W        W14443   8.810  19.746   1.896
46226W        W14444  33.676   8.114  13.341
46227W        W14445  28.512  24.175  14.694
46228W        W14446  31.912   0.573   1.262
46229W        W14447  38.375  35.403   3.694
46230W        W14448  32.370  20.610   0.173
46231W        W14449  43.005  37.514  11.729
46232W        W14450  35.683  22.962  11.128
46233W        W14451  27.954  41.846   4.348
46234W        W14452  13.808  42.335   1.749
46235W        W14453  34.918  27.034   3.286
46236W        W14454  38.302  25.002  14.892
46237W        W14455  40.563  10.006  10.952
46238W        W14456  43.989  15.269  10.742
46239W        W14457  24.313   3.427   4.559
46240W        W14458   4.819  32.599  11.013
46241W        W14459  20.834  13.092  10.720
46242W        W14460  28.121  32.100   4.021
46243W        W14461  42.577  15.850  10.616
46244W        W14462  26.732   8.687   0.504
46245W        W14463   9.680  24.604   2.478
46246W        W14464   0.190  28.698   2.255
46247W        W14465  36.111   5.598  13.005
46248W        W14466   2.670   8.030  13.993
46249W        W14467  11.234   1.201  11.153
46250W        W14468  13.775  15.322   2.680
46251W        W14469  19.829  11.190  12.158
46252W        W14470   6.346  34.604  12.523
46253W        W14471  13.780  34.434   1.858
46254W        W14472   3.067  35.157   5.095
46255W        W14473   1.495   8.784   3.038
46256W        W14474  35.012  33.453  14.109
46257W        W14475  29.533  28.739   1.934
46258W        W14476  44.333  41.854   1.156
46259W        W14477  40.673  35.046   0.539
46260W        W14478  34.066  38.761  12.549
46261W        W14479   2.864   3.438   2.184
46262W        W14480  21.018   9.151   4.562
46263W        W14481   7.680  16.057  13.488
46264W        W14482  39.026   6.214   1.590
46265W        W14483  13.156  27.809  14.423
46266W        W14484  28.047   5.416   0.090
46267W        W14485   1.477  14.593  14.882
46268W        W14486  11.682  36.027   2.854
46269W        W14487   9.876   2.628   1.380
46270W        W14488  24.121   3.805   4.236
46271W        W14489  42.791  28.574  14.476
46272W        W14490  16.985  31.078  11.112
46273W        W14491  40.380   6.441   4.744
46274W        W14492  41.486  19.630  10.644
46275W        W14493  12.342  19.613  11.454
46276W        W14494   8.244  17.620   4.445
46277W        W14495  30.482   3.582  12.592
46278W        W14496  41.801  27.974   4.549
46279W        W14497  13.541   2.003   4.823
46280W        W14498  30.895  22.938  10.433
46281W        W14499  36.639   1.955  11.965
46282W        W14500  11.410  41.058  12.082
46283W        W14501  44.975  22.569   4.942
46284W        W14502   6.669   7.631   3.529
46285W        W14503   7.711  12.696  14.268
46286W        W14504  39.504  41.418  14.047
46287W        W14505   5.126  33.082  13.422
46288W        W14506   3.783  40.220   1.854
46289W        W14507  10.248  29.759  13.908
46290W        W14508   8.110  18.732   1.374
46291W        W14509  31.346   7.630  10.407
46292W        W14510  20.124  42.369  13.966
46293W        W14511  33.867  30.587  10.089
46294W        W14512  38.516  23.640   3.585
46295W        W14513  28.511  36.278   1.376
46296W        W14514  38.011  23.084   3.252
46297W        W14515  34.100  36.173   0.120
46298W        W14516  18.685  13.791   1.712
46299W        W14517  13.262  38.092   2.709
46300W        W14518  14.106  21.270   3.533
46301W        W14519   2.507  16.355  14.337
46302W        W14520  19.218  20.242   1.720
46303W        W14521  24.001  13.748  10.698
46304W        W14522  43.989   3.702   2.073
46305W        W14523  21.987  43.484  12.221
46306W        W14524   4.775  41.263  13.621
46307W        W14525   5.950   5.343  11.530
46308W        W14526  29.447  36.931   4.966
46309W        W14527   0.499   4.267  12.558
46310W        W14528  10.585   9.625   0.484
46311W        W14529  37.860  41.467   1.755
46312W        W14530  20.732  29.124   3.743
46313W        W14531  21.073  37.982   3.247
46314W        W14532  28.427  32.432  14.399
46315W        W14533   3.512  32.821  14.965
46316W        W14534  38.133   4.733   0.260
46317W        W14535  11.126  30.293   0.882
46318W        W14536  34.651  30.457   4.638
46319W        W14537  26.458  25.187   0.629
46320W        W14538  28.161  24.576  12.455
46321W        W14539   4.153   5.311   4.170
46322W        W14540  14.622  31.426  10.997
46323W        W14541  36.412  42.891  11.154
46324W        W14542   8.886   5.298  13.762
46325W        W14543  38.405   3.792   2.733
46326W        W14544  36.869  44.069   2.364
46327W        W14545  28.540   8.331   2.650
46328W        W14546  13.288   1.671  10.998
46329W        W14547  14.742  43.392   2.287
46330W        W14548   7.710  31.744   0.261
46331W        W14549  13.185  42.650   4.182
46332W        W14550  43.297  36.738   1.674
46333W        W14551  39.488   6.331   3.140
46334W        W14552  26.984  41.390   1.751
46335W        W14553  19.556  33.854   2.166
46336W        W14554  43.676  36.923  12.667
46337W        W14555  36.042  35.687  10.497
46338W        W14556  35.186  24.557  10.558
46339W        W14557  21.777  31.926   2.405
46340W        W14558  21.148  33.570  13.529
46341W        W14559   6.871  32.932   1.691
46342W        W14560   7.609   6.208   0.377
46343W        W14561  35.582  24.234   4.352
46344W        W14562   3.300  24.455  10.627
46345W        W14563  15.347  37.474  10.666
46346W        W14564  18.938  26.492  14.594
46347W        W14565  37.981  11.289   3.980
46348W        W14566  11.197  44.436  10.557
46349W        W14567  36.168  34.018  12.661
46350W        W14568  42.976  16.317  13.376
46351W        W14569  27.336  10.254   0.780
46352W        W14570   8.000  41.522   0.238
46353W        W14571  23.662  35.420  13.009
46354W        W14572   3.088  10.865  12.015
46355W        W14573   0.324  41.044   4.515
46356W        W14574  16.764  29.851  10.776
46357W        W14575  41.350  19.149  10.495
46358W        W14576  17.451  40.543   9.906
46359W        W14577   2.283  35.251   4.354
46360W        W14578  19.195   3.205  13.414
46361W        W14579   6.763  22.519   0.452
46362W        W14580  10.264  26.114  12.537
46363W        W14581  26.481  12.188   3.312
46364W        W14582  19.970  28.172   2.269
46365W        W14583  11.870  15.365  11.820
46366W        W14584  36.691  24.033  13.910
46367W        W14585  26.947  18.213   0.423
46368W        W14586  41.396  13.262   1.764
46369W        W14587   2.357   7.232  12.104
46370W        W14588  21.716  31.045   3.241
46371W        W14589   3.325  27.477  13.118
46372W        W14590  32.064  23.777  13.883
46373W        W14591  14.103  18.587  10.735
46374W        W14592  36.112  26.569  11.466
46375W        W14593  19.737  29.095  11.907
46376W        W14594  13.365   2.459   4.533
46377W        W14595  14.278  43.489   9.982
46378W        W14596  39.943  40.024  13.460
46379W        W14597  37.328   7.720  12.857
46380W        W14598  33.641  24.413   3.365
46381W        W14599   8.226  34.533   0.527
46382W        W14600  22.069   3.308  10.591
46383W        W14601   4.668  28.939  14.505
46384W        W14602  22.384  21.098   4.119
46385W        W14603  15.984  26.850   3.970
46386W        W14604   7.717   2.367  11.984
46387W        W14605  27.868  31.681  14.349
46388W        W14606  15.259  39.108   2.106
46389W        W14607  25.640  29.516  12.756
46390W        W14608  43.708  27.580  11.029
46391W        W14609  32.870  24.471  12.806
46392W        W14610  12.270  44.691  14.881
46393W        W14611  29.373  40.290  14.928
46394W        W14612  12.989  25.192   2.155
46395W        W14613  26.473  25.347  11.552
46396W        W14614  32.234   9.740   4.320
46397W        W14615  12.851  28.427  11.484
46398W        W14616  15.199  18.508   1.463
46399W        W14617   5.222  23.051  12.679
46400W        W14618   9.256  10.571  13.968
46401W        W14619  38.420  13.415   2.088
46402W        W14620  34.328  32.723   0.884
46403W        W14621  30.543  18.599   4.434
46404W        W14622  40.284  15.380  13.922
46405W        W14623  11.347   4.737   4.078
46406W        W14624  31.344  15.601  13.539
46407W        W14625  44.025  40.356   0.268
46408W        W14626   4.186   3.773  11.755
46409W        W14627   2.711  17.428   3.648
46410W        W14628  40.524  32.016  14.007
46411W        W14629  44.337  36.346  10.210
46412W        W14630  14.690  19.639   3.473
46413W        W14631  15.744  34.872  13.899
46414W        W14632  35.313  26.473  11.643
46415W        W14633   0.015  31.212   2.650
46416W        W14634  20.487  14.649  14.600
46417W        W14635   8.332  40.628   4.224
46418W        W14636  36.126  21.698   1.911
46419W        W14637  17.267  38.382   2.842
46420W        W14638  41.479   1.687   5.039
46421W        W14639  12.269  22.925  11.152
46422W        W14640   1.965  25.203   0.956
46423W        W14641  26.546  25.589  14.925
46424W        W14642  44.955   0.383  13.630
46425W        W14643  14.715  40.818  14.069
46426W        W14644  16.387  15.019   1.002
46427W        W14645  37.375  17.643  11.525
46428W        W14646  27.586  17.677  14.053
46429W        W14647   6.475  40.137   3.089
46430W        W14648  44.930  16.761   1.712
46431W        W14649   9.659  27.614   4.222
46432W        W14650   0.073  35.664  12.780
46433W        W14651  27.192  23.989   2.306
46434W        W14652  43.832  37.054   3.402
46435W        W14653  29.715  37.502   1.157
46436W        W14654   7.392  10.906  14.002
46437W        W14655  44.479  16.963   2.600
46438W        W14656  37.044  31.455   3.943
46439W        W14657   7.005  24.875  13.446
46440W        W14658  22.383   4.681  12.123
46441W        W14659  44.901  36.943   2.135
46442W        W14660   7.086   5.227   0.715
46443W        W14661  32.952  15.146   1.390
46444W        W14662  20.624  38.716  11.097
46445W        W14663  13.787   4.470  14.435
46446W        W14664   4.271  11.838  10.364
46447W        W14665  40.625  15.612  13.364
46448W        W14666  16.581   7.353   3.695
46449W        W14667   0.192   2.896   1.614
46450W        W14668  35.436  44.413  10.639
46451W        W14669  22.188  15.764   3.831
46452W        W14670  29.195  44.943  10.725
46453W        W14671  16.490   9.854   0.720
46454W        W14672  38.528  25.443  11.906
46455W        W14673  10.775  11.347   4.335
46456W        W14674  42.963   3.498  12.102
46457W        W14675  23.493  30.934  11.125
46458W        W14676  27.081   9.716   3.209
46459W        W14677  42.572  27.621   1.371
46460W        W14678   4.982  39.041  11.268
46461W        W14679  29.454  15.383  14.708
46462W        W14680  27.009  44.457  14.942
46463W        W14681  15.712  27.020   0.277
46464W        W14682  19.582   9.671  12.396
46465W        W14683  25.460   2.520   3.261
46466W        W14684  31.937  29.205   0.988
46467W        W14685  37.511  42.795  11.594
46468W        W14686  27.613  10.593  13.011
46469W        W14687   3.016  16.603  13.087
46470W        W14688   2.780  43.981  14.899
46471W        W14689  24.701  20.662   2.849
46472W        W14690  14.630  21.198  13.978
46473W        W14691  19.749  36.113   2.818
46474W        W14692  38.289  13.903   3.776
46475W        W14693  12.614  39.047   0.198
46476W        W14694  19.000  35.866   4.575
46477W        W14695  30.158  15.347  12.624
46478W        W14696  11.257  43.228  13.844
46479W        W14697   4.709  27.396   0.392
46480W        W14698  24.783  31.975   2.819
46481W        W14699   3.446   0.770   1.173
46482W        W14700  32.019  24.708   4.433
46483W        W14701  24.524  22.853  14.460
46484W        W14702  27.456   5.470   1.864
46485W        W14703  17.980  42.965   2.192
46486W        W14704  22.203  21.008   0.736
46487W        W14705  28.927  21.491   2.930
46488W        W14706  37.560  25.765   0.539
46489W        W14707  27.209   7.664  11.636
46490W        W14708   1.225   5.383  14.368
46491W        W14709   0.913  17.702  12.434
46492W        W14710  32.552  43.734  13.412
46493W        W14711  14.667   8.679  12.264
46494W        W14712   6.147  40.797  11.984
46495W        W14713  28.688  34.987   4.178
46496W        W14714   5.261  16.692  10.639
46497W        W14715  43.795   5.284  13.322
46498W        W14716   5.921  29.882  13.513
46499W        W14717  44.000  20.007  12.563
46500W        W14718  29.539   7.738  10.811
46501W        W14719  13.167  20.324  13.790
46502W        W14720  35.158  27.408  11.557
46503W        W14721  18.232  22.987   4.780
46504W        W14722  38.026  18.713   4.231
46505W        W14723  13.732  36.848   1.907
46506W        W14724  34.827  25.972  11.112
46507W        W14725  34.514  23.012  14.460
46508W        W14726  17.089   6.161  10.226
46509W        W14727  23.169  21.046   3.566
46510W        W14728   9.537  23.022   4.203
46511W        W14729  25.828   6.880   3.329
46512W        W14730  22.109  23.290   0.360
46513W        W14731   9.639  35.901  11.109
46514W        W14732  37.303  41.775  12.525
46515W        W14733   5.910  12.653  10.738
46516W        W14734  13.900  40.123  11.576
46517W        W14735  16.599   5.916   2.182
46518W        W14736   5.239  37.007  13.811
46519W        W14737  25.176  21.555  10.692
46520W        W14738  42.440  43.015   4.007
46521W        W14739  12.252  22.095   4.447
46522W        W14740  43.860  29.114   4.536
46523W        W14741  29.442  21.679  10.624
46524W        W14742  36.273  13.250   1.690
46525W        W14743  16.398  21.258  12.474
46526W        W14744  28.194  34.757   4.953
46527W        W14745  31.979  27.080  11.163
46528W        W14746  43.110  20.461   4.094
46529W        W14747  30.500  31.327  13.870
46530W        W14748   7.846  11.227  13.992
46531W        W14749   6.020  25.501   4.666
46532W        W14750  15.839  10.683  13.932
46533W        W14751  30.024   9.987  13.512
46534W        W14752  26.616  38.796   2.225
46535W        W14753  23.013  17.098  11.607
46536W        W14754  21.562  23.098   2.796
46537W        W14755  37.023   8.239  14.461
46538W        W14756  44.765  18.367  11.351
46539W        W14757  38.487   7.663  14.397
46540W        W14758  27.121  44.027   3.306
46541W        W14759   2.430  20.961   0.852
46542W        W14760  38.862  11.181   1.291
46543W        W14761   8.265  38.652  10.514
46544W        W14762  39.630  26.324  11.521
46545W        W14763  40.902  26.573   3.752
46546W        W14764  30.466  26.629   1.884
46547W        W14765  11.326  28.978  13.796
46548W        W14766   5.455  25.776   0.408
46549W        W14767  17.252  33.946  11.358
46550W        W14768  19.434   5.472   3.327
46551W        W14769  43.288  35.880  11.570
46552W        W14770  26.624  41.928   0.930
46553W        W14771  30.969  28.800   0.557
46554W        W14772  31.085  10.243   0.322
46555W        W14773  18.000  23.658   0.742
46556W        W14774   1.815  35.737  13.954
46557W        W14775  28.216  34.894  10.724
46558W        W14776   2.288  34.238  14.508
46559W        W14777  39.695  28.050   4.534
46560W        W14778  19.823  14.021  13.232
46561W        W14779  34.169  15.520  10.947
46562W        W14780   7.583   8.245  14.019
46563W        W14781  19.336   6.613  10.708
46564W        W14782  28.900  32.188   2.810
46565W        W14783  42.002  37.313  14.405
46566W        W14784  36.488  41.331  12.459
46567W        W14785  24.542  29.339   2.608
46568W        W14786   7.655  25.153  10.618
46569W        W14787   7.322  26.565  11.485
46570W        W14788   4.207  30.995   1.829
46571W        W14789   6.362  14.696   2.710
46572W        W14790  24.050  23.688   2.344
46573W        W14791  34.198  16.081  12.834
46574W        W14792   7.057  17.119   2.826
46575W        W14793  12.807  36.657  13.769
46576W        W14794   3.721  21.831  11.060
46577W        W14795  33.058  37.407   4.903
46578W        W14796  42.965  32.060   2.832
46579W        W14797  40.830  31.860  13.383
46580W        W14798  35.011  41.711  12.208
46581W        W14799  12.245  11.769  13.054
46582W        W14800  35.981  10.801   1.475
46583W        W14801  20.200   9.901  12.991
46584W        W14802  22.529   0.414   0.928
46585W        W14803   3.493  42.788  12.820
46586W        W14804  41.143  11.181  12.073
46587W        W14805  14.443  32.479  11.384
46588W        W14806   7.294  19.111  14.922
46589W        W14807  27.920  29.685   1.279
46590W        W14808  31.503  34.408   0.315
46591W        W14809  41.954   1.233   4.522
46592W        W14810  14.127  21.281  14.515
46593W        W14811  37.810   4.778   1.910
46594W        W14812  11.682  38.569   4.784
46595W        W14813  19.471   9.237   0.311
46596W        W14814  34.783  40.019  13.412
46597W        W14815  41.203  36.769   0.402
46598W        W14816  36.628  11.176  12.929
46599W        W14817  17.251  30.108   3.275
46600W        W14818   5.768  27.235   3.693
46601W        W14819  28.150  24.048  12.559
46602W        W14820  37.663  26.005   1.833
46603W        W14821  13.868   8.410  12.011
46604W        W14822  25.744  41.859   3.300
46605W        W14823  20.344  36.793  11.639
46606W        W14824  19.084  24.105  12.381
46607W        W14825  18.505   2.315   3.211
46608W        W14826   4.699  38.695   2.437
46609W        W14827   5.234   0.761   0.771
46610W        W14828  13.218  16.282   3.324
46611W        W14829   4.371  18.731  10.677
46612W        W14830  14.408   1.697   2.287
46613W        W14831  24.567  22.117  10.318
46614W        W14832  41.484  11.985   0.237
46615W        W14833   4.672  22.531  13.185
46616W        W14834  44.290  25.931   0.903
46617W        W14835   9.703  21.493  13.904
46618W        W14836  29.679  35.264  12.409
46619W        W14837   4.848   1.867   1.201
46620W        W14838  13.771  18.722   1.945
46621W        W14839  40.963   0.253  12.019
46622W        W14840  12.248  20.789  12.463
46623W        W14841  18.089  15.371  11.618
46624W        W14842   5.739  25.056   4.570
46625W        W14843  12.751  44.093  14.508
46626W        W14844   3.257   7.674   5.151
46627W        W14845  40.337  31.188   4.539
46628W        W14846  38.034   7.460  14.526
46629W        W14847  30.782  36.794  12.764
46630W        W14848  35.993   9.479  12.101
46631W        W14849  40.869  38.001  13.280
46632W        W14850  14.312  19.325  14.048
46633W        W14851  32.558  20.663  10.912
46634W        W14852   1.967  18.249   2.764
46635W        W14853  10.256   6.952   3.565
46636W        W14854  24.066  38.811  14.059
46637W        W14855   1.742  43.948   3.943
46638W        W14856  30.221  28.933   3.749
46639W        W14857  41.912  33.220   2.224
46640W        W14858  15.010  41.020  13.070
46641W        W14859   9.749  22.143   3.639
46642W        W14860   4.303  14.988  14.977
46643W        W14861   1.292  20.111   3.145
46644W        W14862  18.737   7.653   1.840
46645W        W14863  31.977  17.045   3.580
46646W        W14864  33.417  43.800   1.340
46647W        W14865  20.294  12.142  10.629
46648W        W14866   6.739   7.642  11.590
46649W        W14867  28.588  34.390   4.855
46650W        W14868   8.691  13.203  11.219
46651W        W14869   4.564  11.633  13.363
46652W        W14870  20.636   6.758   4.556
46653W        W14871   3.410  34.386   4.098
46654W        W14872   4.358  10.435   0.907
46655W        W14873   5.453  37.631  11.947
46656W        W14874  20.918  17.837   1.618
46657W        W14875  35.065  18.299  10.033
46658W        W14876   4.349  15.109   1.431
46659W        W14877  39.466  14.790   4.609
46660W        W14878  37.760  24.217   4.151
46661W        W14879  25.132   7.180  14.930
46662W        W14880  31.901  39.355   0.892
46663W        W14881  44.750   2.360   0.538
46664W        W14882  42.775  33.030   1.799
46665W        W14883  19.727  24.618   0.333
46666W        W14884  18.755  20.764  10.626
46667W        W14885  44.893  33.178   0.397
46668W        W14886  29.482   6.259   4.644
46669W        W14887   1.433  19.604  13.430
46670W        W14888  23.043  18.962   1.382
46671W        W14889  26.004   8.809   4.309
46672W        W14890   3.480  32.364   0.860
46673W        W14891  27.267  12.121  13.731
46674W        W14892   3.337  29.715  12.976
46675W        W14893  21.953  17.473  12.111
46676W        W14894  40.902  19.322  14.317
46677W        W14895  27.744  17.334  13.029
46678W        W14896  24.038  20.590   1.234
46679W        W14897  39.979  10.623  11.606
46680W        W14898  15.257   0.449   0.893
46681W        W14899   6.643  15.258   2.662
46682W        W14900  40.604  33.552   2.824
46683W        W14901  28.408  18.071   3.765
46684W        W14902  20.306  29.050  14.850
46685W        W14903   8.596  36.549   1.438
46686W        W14904  43.295  23.467  13.220
46687W        W14905   8.292  10.792  13.891
46688W        W14906  26.025  21.253   4.520
46689W        W14907  11.360   1.925  13.866
46690W        W14908  13.790  34.982   2.375
46691W        W14909  25.974   4.324   3.511
46692W        W14910  18.540  26.056  12.838
46693W        W14911  34.340   2.857  10.677
46694W        W14912  34.795  14.418  10.366
46695W        W14913  24.025  38.895   0.023
46696W        W14914  22.067  34.428   3.152
46697W        W14915  12.849  24.522   4.166
46698W        W14916   5.292  11.908  12.975
46699W        W14917  44.692  11.371  13.681
46700W        W14918  37.874  17.305  11.984
46701W        W14919  23.586   8.411  11.849
46702W        W14920   7.264  33.219  12.502
46703W        W14921  22.613  39.068  12.877
46704W        W14922  25.462  43.960   4.572
46705W        W14923  10.784  41.891  14.943
46706W        W14924  41.533   9.561  12.022
46707W        W14925   4.866  17.318  12.046
46708W        W14926  44.865  12.631   1.984
46709W        W14927  38.389  39.544   4.604
46710W        W14928  11.107   4.597  12.964
46711W        W14929  35.405   3.783   3.013
46712W        W14930  44.930   7.519  12.010
46713W        W14931   3.815  10.667   3.603
46714W        W14932  36.234  44.161  11.375
46715W        W14933  36.542   4.689  14.904
46716W        W14934  18.095  25.160   1.252
46717W        W14935  13.234  35.955  12.915
46718W        W14936  18.264  33.861  13.507
46719W        W14937  22.343  41.703   3.597
46720W        W14938  19.204  13.017  11.922
46721W        W14939  25.229  27.237  14.428
46722W        W14940  37.828   1.390  11.375
46723W        W14941  27.609   3.320   2.778
46724W        W14942  42.706  17.649   5.252
46725W        W14943  15.372  25.124   3.540
46726W        W14944  27.279  28.289   0.381
46727W        W14945  34.650  16.866   4.545
46728W        W14946  15.507  23.010  14.894
46729W        W14947  18.401   6.721   1.910
46730W        W14948  24.982   3.362   1.813
46731W        W14949  21.215  36.512   1.841
46732W        W14950  36.902  19.032  14.432
46733W        W14951  12.685  41.950  13.433
46734W        W14952  35.518  23.097   0.926
46735W        W14953   0.886  27.030  13.882
46736W        W14954  34.868  24.041  14.872
46737W        W14955  11.665  26.245  14.940
46738W        W14956  35.662  10.169  14.527
46739W        W14957  23.517   3.041   2.210
46740W        W14958   7.461  30.039  14.923
46741W        W14959  19.307  19.623   3.397
46742W        W14960  13.238  36.488   4.849
46743W        W14961  17.871  11.696   9.992
46744W        W14962  36.106  37.647   1.698
46745W        W14963   1.046   8.088   0.309
46746W        W14964   0.629  22.966  12.543
46747W        W14965  36.609  43.764  13.760
46748W        W14966  31.536  26.319  14.867
46749W        W14967  42.086  26.067  13.052
46750W        W14968   9.775   3.067   3.699
46751W        W14969   0.451  31.975   1.500
46752W        W14970  17.739  43.807   3.724
46753W        W14971  39.540  34.572  14.306
46754W        W14972  11.089  17.203   2.822
46755W        W14973  33.620  21.200  12.537
46756W        W14974  38.692  41.965  13.930
46757W        W14975   4.273  42.850   1.676
46758W        W14976   6.981   1.164  13.844
46759W        W14977  30.101  29.536   1.261
46760W        W14978  18.098  34.114   2.817
46761W        W14979   6.048  13.853   3.683
46762W        W14980  36.809  24.625   1.578
46763W        W14981  17.230  20.988   1.850
46764W        W14982  27.996  16.849   3.753
46765W        W14983  32.539  32.586   1.851
46766W        W14984  37.954  27.924  10.282
46767W        W14985  41.426   1.448   3.141
46768W        W14986  24.517  28.494   4.582
46769W        W14987  38.567  13.673   0.726
46770W        W14988  10.823  27.093  12.061
46771W        W14989  26.780  31.922  10.057
46772W        W14990  33.580   8.657  13.541
46773W        W14991  32.487  43.497  14.366
46774W        W14992  14.736  42.933   5.122
46775W        W14993  15.605   4.708   2.160
46776W        W14994  22.785  28.138  11.633
46777W        W14995  17.280   1.047  14.848
46778W        W14996  14.805   0.157   1.212
46779W        W14997   1.885   2.650   2.768
46780W        W14998  26.752  26.794   4.331
46781W        W14999  40.888  40.859   3.616
46782W        W15000  22.518  37.881   3.586
46783W        W15001  12.115  34.388   4.949
46784W        W15002   3.011  28.422  12.597
46785W        W15003  10.810  39.064   4.592
46786W        W15004  29.134  18.501   4.670
46787W        W15005  13.032  12.932   4.072
46788W        W15006  13.684  34.364   2.417
46789W        W15007  38.964  15.368  10.948
46790W        W15008  31.859  37.081   1.813
46791W        W15009  19.016  36.872   0.500
46792W        W15010  17.165  22.028   0.898
46793W        W15011   5.961   4.831  13.122
46794W        W15012   3.596  22.087   1.018
46795W        W15013  16.581  29.697  12.097
46796W        W15014  20.993  39.454  14.949
46797W        W15015  38.350   6.186  14.878
46798W        W15016  21.623  41.147   2.427
46799W        W15017  12.335  34.734  11.957
46800W        W15018  37.442  33.641   4.273
46801W        W15019   9.739   8.374   0.391
46802W        W15020  25.122  26.112  11.355
46803W        W15021  22.408   6.482  11.174
46804W        W15022  44.993  37.605   3.961
46805W        W15023  15.124   3.328   4.614
46806W        W15024   2.498  32.251   2.420
46807W        W15025  40.066  36.883  14.760
46808W        W15026  44.770  11.180  11.579
46809W        W15027   0.239  13.734  10.913
46810W        W15028  35.415  35.727   0.664
46811W        W15029   5.748   9.618  13.142
46812W        W15030  44.035  42.285   2.355
46813W        W15031   2.330  36.689   4.451
46814W        W15032   2.360  22.050  14.416
46815W        W15033  26.135  34.284   4.747
46816W        W15034  16.613  18.028  13.133
46817W        W15035  16.341  34.989  11.359
46818W        W15036  17.745  11.580   0.446
46819W        W15037  30.725   1.772   1.145
46820W        W15038  15.205   4.250  11.187
46821W        W15039  37.941   5.234  12.513
46822W        W15040  20.068  27.114   4.098
46823W        W15041  29.441  44.677   3.219
46824W        W15042  15.621  26.822   2.690
46825W        W15043   6.274  30.451   0.380
46826W        W15044  16.296  41.105   0.430
46827W        W15045  44.574  11.223  12.091
46828W        W15046  18.249  14.103  12.574
46829W        W15047  17.332   9.767   4.822
46830W        W15048   0.735  18.308  11.294
46831W        W15049   4.255  38.382   4.107
46832W        W15050  21.636  42.304   4.376
46833W        W15051  11.372  43.851   2.650
46834W        W15052   0.921  21.263   0.877
46835W        W15053   6.414  26.006   2.815
46836W        W15054  22.920  10.881  11.930
46837W        W15055   2.580  39.271  14.723
46838W        W15056  39.294  14.630  11.238
46839W        W15057  23.286  43.825  12.049
46840W        W15058   5.874  23.756  12.180
46841W        W15059  17.479  42.245   4.265
46842W        W15060  44.122  44.708   9.860
46843W        W15061  44.310   8.344  11.095
46844W        W15062  24.361  32.378  10.806
46845W        W15063  32.021  26.192  14.753
46846W        W15064  19.666   7.594  13.911
46847W        W15065  44.998  42.272   2.270
46848W        W15066  15.296  44.668  12.384
46849W        W15067  11.277  29.364   1.684
46850W        W15068  23.596  28.441  14.046
46851W        W15069  25.956  14.915   4.739
46852W        W15070  35.479  20.129   4.074
46853W        W15071  22.431   5.957   3.624
46854W        W15072  39.430   1.483   4.106
46855W        W15073  17.204   3.705  12.509
46856W        W15074  33.945  20.112   3.900
46857W        W15075   7.593   3.999  12.898
46858W        W15076  37.366  34.815  14.428
46859W        W15077   6.616  28.618  14.209
46860W        W15078  14.556  20.756   4.159
46861W        W15079  11.243  34.311   0.347
46862W        W15080  32.350  14.103   1.869
46863W        W15081  33.313  43.195   2.472
46864W        W15082  32.376  11.648   1.789
46865W        W15083   9.599   1.206  10.702
46866W        W15084   4.453  30.633   0.509
46867W        W15085  36.992  28.130   2.593
46868W        W15086  39.081  16.036  13.955
46869W        W15087  35.551   8.329  12.331
46870W        W15088   9.158  23.417   2.367
46871W        W15089  21.586  18.207   4.873
46872W        W15090  43.546  31.037   3.322
46873W        W15091  19.726   2.788  14.512
46874W        W15092  31.407  20.663   2.881
46875W        W15093  24.474  31.096   0.580
46876W        W15094  31.646  13.012  14.629
46877W        W15095  19.662  18.265  14.381
46878W        W15096   9.462  35.529  10.758
46879W        W15097  25.558  33.376   0.285
46880W        W15098  39.999  43.577  11.576
46881W        W15099   8.881   0.034   2.611
46882W        W15100  24.082  21.143   2.761
46883W        W15101  33.887  16.348   0.765
46884W        W15102  12.825  31.125   2.575
46885W        W15103  30.203  38.450  12.610
46886W        W15104  26.089  28.575   0.751
46887W        W15105  14.712  18.745   1.381
46888W        W15106  37.280  21.009   1.695
46889W        W15107   9.040  12.287   1.867
46890W        W15108  39.920  38.312   0.742
46891W        W15109  33.028   9.525  13.533
46892W        W15110  30.424   4.961  11.063
46893W        W15111  34.748   9.428  10.994
46894W        W15112  43.728  11.161  11.667
46895W        W15113  18.207   7.508  11.981
46896W        W15114  39.998   2.337  11.600
46897W        W15115   8.379  19.304  12.508
46898W        W15116  38.516  24.657   3.755
46899W        W15117   0.737  42.011  11.837
46900W        W15118  25.667  39.049   4.814
46901W        W15119  43.344  30.177  14.878
46902W        W15120  37.009  22.690  12.023
46903W        W15121   5.240   7.352  11.575
46904W        W15122  30.013   2.032  12.504
46905W        W15123  31.091  14.312  11.701
46906W        W15124  24.057   0.324   2.594
46907W        W15125  23.186   6.918  14.469
46908W        W15126  24.852  37.879   4.116
46909W        W15127  14.395  43.405  14.520
46910W        W15128  33.606  26.739   0.285
46911W        W15129   4.826  32.460  12.416
46912W        W15130   2.857  27.872  10.869
46913W        W15131  35.355  41.794  14.605
46914W        W15132  16.234  27.022  12.690
46915W        W15133  41.907  26.062  12.196
46916W        W15134   2.877  21.685   1.314
46917W        W15135  32.151  22.535   4.259
46918W        W15136   3.461  25.472  14.851
46919W        W15137  11.080  28.042  13.514
46920W        W15138  12.660  12.297  12.315
46921W        W15139  41.390  20.200  12.167
46922W        W15140  40.635   4.746   2.361
46923W        W15141  24.743  33.073   1.857
46924W        W15142  25.669  44.075  10.531
46925W        W15143  17.970  37.122   2.458
46926W        W15144  34.062  13.042  13.067
46927W        W15145  38.751  32.353   0.744
46928W        W15146   8.794  22.769  10.647
46929W        W15147  35.451  14.940  14.335
46930W        W15148  13.588  17.143   3.291
46931W        W15149   2.539  37.444   3.267
46932W        W15150  26.360  14.270  13.899
46933W        W15151  34.000  25.879  10.816
46934W        W15152   5.858  42.309   1.340
46935W        W15153  25.970  28.790  10.780
46936W        W15154  38.491  44.553   4.232
46937W        W15155  12.226  32.341  11.447
46938W        W15156  29.109  26.406   0.328
46939W        W15157  35.965  13.301  13.128
46940W        W15158  17.528  24.120   1.459
46941W        W15159  40.795  15.550   2.800
46942W        W15160  12.755  24.137  13.964
46943W        W15161  35.087  43.024   1.317
46944W        W15162   5.372  43.350  12.017
46945W        W15163  19.279  40.762  11.542
46946W        W15164  14.627  18.786  13.409
46947W        W15165  30.213  44.010  10.619
46948W        W15166  21.002   0.693  14.231
46949W        W15167  14.460  10.685   1.443
46950W        W15168  36.296  32.172  12.142
46951W        W15169  20.358  32.115   2.390
46952W        W15170  17.948  26.000   2.302
46953W        W15171  16.668  41.353   3.312
46954W        W15172  32.952  41.463  14.711
46955W        W15173  34.852  37.957   1.926
46956W        W15174  14.518  38.299   0.512
46957W        W15175  22.705  10.684   1.287
46958W        W15176  31.105  25.375  10.722
46959W        W15177  14.397  43.896  11.936
46960W        W15178   7.619   9.658   1.659
46961W        W15179  34.394   6.254  11.715
46962W        W15180  41.245  43.371   1.750
46963W        W15181  21.297  36.831  11.735
46964W        W15182   2.128   6.634  14.347
46965W        W15183  11.735  40.778  12.516
46966W        W15184  31.939  15.580  11.979
46967W        W15185   0.557   3.829   4.732
46968W        W15186  35.302  11.024   0.241
46969W        W15187   4.949  21.271   0.774
46970W        W15188  23.711  44.794   0.429
46971W        W15189  10.597  23.864  14.307
46972W        W15190  15.240  24.716   2.164
46973W        W15191  42.105  10.441   3.596
46974W        W15192  35.949   8.900  13.382
46975W        W15193  37.661  39.791   0.899
46976W        W15194  40.271   7.279   0.929
46977W        W15195  17.562   7.433   2.376
46978W        W15196   4.273  22.885  14.269
46979W        W15197   5.408   1.097  14.814
46980W        W15198  41.528  38.786  11.211
46981W        W15199  40.276  44.861   2.274
46982W        W15200  25.338  13.297  11.935
46983W        W15201   7.887   3.327   1.283
46984W        W15202  24.177  25.119   2.348
46985W        W15203  38.366  34.520  12.586
46986W        W15204  15.098   9.064  11.103
46987W        W15205  43.765  10.914   0.381
46988W        W15206  38.331  36.433   4.526
46989W        W15207  44.925  17.564  11.107
46990W        W15208  24.178  42.299   3.848
46991W        W15209  18.063  35.889   1.882
46992W        W15210  15.579   6.335   0.348
46993W        W15211  21.173  40.084   1.627
46994W        W15212  17.313  15.086   3.460
46995W        W15213  25.425   3.957   3.444
46996W        W15214  44.007  28.495  14.241
46997W        W15215  41.102  36.984   3.369
46998W        W15216  18.987  19.136   0.851
46999W        W15217   8.284  41.389  12.435
47000W        W15218   6.819  44.389  13.321
47001W        W15219  10.604  31.573   3.055
47002W        W15220  14.171  34.633  11.086
47003W        W15221  13.152  22.827   2.208
47004W        W15222   5.290  38.383   4.148
47005W        W15223   7.358  36.301  14.085
47006W        W15224   8.755   0.866  14.085
47007W        W15225  27.680  31.030   2.381
47008W        W15226  39.758  21.709   1.751
47009W        W15227  23.035  35.494   0.182
47010W        W15228   3.481  16.115  14.386
47011W        W15229  11.351  39.698  14.755
47012W        W15230  33.673   9.631  12.040
47013W        W15231  12.697  43.768  10.778
47014W        W15232  36.102  22.614  12.044
47015W        W15233  10.457  39.899   2.269
47016W        W15234   8.767  39.484  12.350
47017W        W15235  11.173   8.637   3.256
47018W        W15236  21.040  41.070  11.181
47019W        W15237  21.164  34.429   3.153
47020W        W15238  14.748   8.315  13.859
47021W        W15239  40.106  32.349  11.706
47022W        W15240  19.843  18.772  13.448
47023W        W15241   1.999   2.893   2.289
47024W        W15242  23.719  26.965   0.466
47025W        W15243  36.731  20.122  11.157
47026W        W15244   7.970   6.850   3.745
47027W        W15245  23.303  13.180  11.988
47028W        W15246  32.119  18.597  13.495
47029W        W15247  32.552   7.481  12.113
47030W        W15248  26.718  25.519  11.136
47031W        W15249  31.143   2.967  11.146
47032W        W15250  25.996  37.339  12.076
47033W        W15251  10.121   7.650  12.482
47034W        W15252   7.396  23.294  12.418
47035W        W15253   5.168   5.856  11.663
47036W        W15254  17.632  36.937  14.087
47037W        W15255  21.485  12.224  13.942
47038W        W15256  21.051  13.128   0.823
47039W        W15257  42.118  43.807  12.014
47040W        W15258  29.600   5.472   2.660
47041W        W15259  32.997  28.416  11.193
47042W        W15260  14.628  37.294  12.163
47043W        W15261  27.834   5.176   0.931
47044W        W15262  21.091  34.071  13.408
47045W        W15263  14.769  13.462   1.042
47046W        W15264  27.928  19.823  10.768
47047W        W15265  28.911  26.255  14.862
47048W        W15266  25.019  29.393   0.904
47049W        W15267  35.857  16.082   1.289
47050W        W15268  42.152  42.681   1.825
47051W        W15269  10.364  44.383  11.527
47052W        W15270  28.927   9.764   1.297
47053W        W15271  33.155   7.157  10.820
47054W        W15272   5.653  24.782  14.549
47055W        W15273   2.475   2.961  12.473
47056W        W15274  34.054   5.040  12.280
47057W        W15275  11.111   5.656   4.175
47058W        W15276  42.354  25.674  10.665
47059W        W15277   2.865  32.154  14.883
47060W        W15278  40.387   4.477   0.269
47061W        W15279  44.203  37.395   4.992
47062W        W15280  26.187  26.706   2.896
47063W        W15281  26.861  37.995  13.696
47064W        W15282  36.031  33.090  13.383
47065W        W15283  36.620  27.995  10.607
47066W        W15284  31.441  24.247  14.996
47067W        W15285  34.234  12.022  13.289
47068W        W15286  34.979   1.290   2.396
47069W        W15287  11.331  22.635  11.526
47070W        W15288  17.306   9.269   3.644
47071W        W15289  11.339  39.786   2.190
47072W        W15290  15.177  37.372  13.594
47073W        W15291   4.797   5.261  14.331
47074W        W15292  22.909  34.118  11.246
47075W        W15293   5.691  15.846  11.121
47076W        W15294  17.544  31.669  11.648
47077W        W15295  32.590  12.543   3.693
47078W        W15296  29.150  44.893   1.865
47079W        W15297  31.228  17.366   3.366
47080W        W15298  10.296  17.019   3.190
47081W        W15299  43.642  18.629  14.052
47082W        W15300  12.305  34.772  13.195
47083W        W15301  32.543  20.020  10.458
47084W        W15302  20.081  33.919  11.537
47085W        W15303  16.537   6.708  14.439
47086W        W15304  10.175  34.936  11.613
47087W        W15305  32.057  42.236  12.001
47088W        W15306  36.331  13.019  13.893
47089W        W15307  28.024  29.118   2.718
47090W        W15308  27.673  11.895   2.806
47091W        W15309  36.287  43.671  11.518
47092W        W15310  26.223  10.828   0.393
47093W        W15311  19.791  27.008  10.564
47094W        W15312  30.924  24.156  13.844
47095W        W15313  40.882  29.676  10.375
47096W        W15314  13.423  41.811   2.589
47097W        W15315  42.454   7.624  12.471
47098W        W15316  26.290  11.842   0.436
47099W        W15317  42.062  12.633  14.741
47100W        W15318  19.094  35.843  14.288
47101W        W15319  37.654  11.714  14.880
47102W        W15320   7.796  22.274   3.226
47103W        W15321  12.079  35.389   0.386
47104W        W15322   1.939  43.047  10.940
47105W        W15323  36.859  36.551  14.072
47106W        W15324  27.162  30.679  11.208
47107W        W15325  13.224  11.421  12.491
47108W        W15326  37.897  20.155  11.543
47109W        W15327  36.489   8.166   2.318
47110W        W15328  32.763  18.666   2.865
47111W        W15329   1.921  31.335  11.981
47112W        W15330  22.436  12.125  11.640
47113W        W15331  19.720  38.554  14.912
47114W        W15332  29.618  13.960  13.327
47115W        W15333  34.149  34.472  12.069
47116W        W15334   6.368  30.242  10.929
47117W        W15335  15.960  29.480   4.080
47118W        W15336  34.792   7.635   2.741
47119W        W15337  40.048  42.253  11.245
47120W        W15338  36.994  34.849   2.588
47121W        W15339  20.634   8.364  11.171
47122W        W15340  38.953  42.434   3.077
47123W        W15341  35.588  32.011  11.472
47124W        W15342  14.120   3.020  14.540
47125W        W15343  34.145  16.160  11.945
47126W        W15344   1.797  43.879  11.509
47127W        W15345  43.238  31.813   5.036
47128W        W15346  26.437  14.915  13.320
47129W        W15347  15.905  41.247   1.641
47130W        W15348   8.683  39.830  10.640
47131W        W15349  19.054  11.363   3.087
47132W        W15350  44.505   8.125  10.667
47133W        W15351  42.642   5.150   0.460
47134W        W15352  32.626  39.290   4.355
47135W        W15353  16.757  11.131   4.554
47136W        W15354  10.324  21.280  11.818
47137W        W15355   9.875  14.239  14.373
47138W        W15356   4.946  13.481   1.677
47139W        W15357  27.145  20.634  10.203
47140W        W15358  40.382  18.190  13.609
47141W        W15359  30.918  33.397   4.710
47142W        W15360  16.683   7.120   4.580
47143W        W15361  30.370  27.579   2.791
47144W        W15362  24.570   2.695   4.343
47145W        W15363   0.150  39.824  12.426
47146W        W15364  28.055  39.042   0.475
47147W        W15365  40.493  41.541  14.971
47148W        W15366  40.556   2.357  11.921
47149W        W15367  12.354  12.369  14.993
47150W        W15368  29.585   2.658   1.673
47151W        W15369  30.267  18.686  13.719
47152W        W15370  37.090   9.178   1.618
47153W        W15371   0.866  38.961   1.888
47154W        W15372   2.338   5.643   4.487
47155W        W15373  19.921  31.045  13.431
47156W        W15374  20.485  22.748   1.888
47157W        W15375  18.120   2.895   1.410
47158W        W15376  11.420  15.647  13.463
47159W        W15377  19.813  19.359   0.465
47160W        W15378  36.488  11.297  10.717
47161W        W15379  16.100   5.902  13.343
47162W        W15380  34.409  27.066  11.459
47163W        W15381   3.247  12.729   4.249
47164W        W15382  23.294   2.045   1.411
47165W        W15383  17.174  18.932   5.009
47166W        W15384  36.088  44.242   2.409
47167W        W15385   6.197  18.254   4.925
47168W        W15386  26.965  13.256  14.797
47169W        W15387  27.973  14.634  14.335
47170W        W15388  14.140  11.861  14.800
47171W        W15389   6.804  37.069  10.957
47172W        W15390  38.889  16.534   2.423
47173W        W15391   5.327  34.512   4.955
47174W        W15392  10.443  13.186  12.083
47175W        W15393  42.867  10.391  11.579
47176W        W15394  20.565  18.681   1.517
47177W        W15395  42.445  18.043   2.931
47178W        W15396  14.046  38.515   4.105
47179W        W15397   4.376  44.493   3.658
47180W        W15398  28.264  25.958   2.820
47181W        W15399  24.648  33.084   3.792
47182W        W15400  13.081  28.863  14.976
47183W        W15401  25.588   2.703   3.753
47184W        W15402  25.122   1.198  12.122
47185W        W15403  21.256   6.314   0.737
47186W        W15404   7.948  42.498   2.261
47187W        W15405  36.035  21.659   4.676
47188W        W15406  36.893  37.834   2.120
47189W        W15407   3.734  11.740  14.872
47190W        W15408  16.184  24.272   2.966
47191W        W15409  19.622  22.703  11.942
47192W        W15410  25.372  22.174   1.777
47193W        W15411  18.307  24.225  13.461
47194W        W15412   0.369   4.799  13.751
47195W        W15413  34.204  12.028   0.898
47196W        W15414  22.620  10.070  14.489
47197W        W15415  14.526  28.848   1.232
47198W        W15416  15.271  31.673   4.550
47199W        W15417  39.428  20.812  11.408
47200W        W15418  13.694  14.379  10.787
47201W        W15419   6.493  42.469   2.933
47202W        W15420  36.230  37.438   3.846
47203W        W15421  30.074   8.464   0.481
47204W        W15422  32.611  35.899   0.923
47205W        W15423  29.436  39.234   1.502
47206W        W15424  32.497  19.947  13.783
47207W        W15425  30.015  24.176   4.241
47208W        W15426  44.323  10.133  14.279
47209W        W15427   0.801  40.772   0.418
47210W        W15428  15.797  29.151  12.525
47211W        W15429  23.329  34.185   5.034
47212W        W15430  43.849  39.953  14.969
47213W        W15431  40.860   0.224   2.870
47214W        W15432  37.113  33.462   0.281
47215W        W15433  31.420  22.777  14.964
47216W        W15434  33.147  25.150  12.469
47217W        W15435  34.453  14.128  10.715
47218W        W15436  17.278  15.743   0.298
47219W        W15437  20.158  28.727  12.060
47220W        W15438  34.152  22.000   4.562
47221W        W15439  12.133   1.713  11.270
47222W        W15440   2.145   8.695   1.315
47223W        W15441   6.395  37.977   4.168
47224W        W15442  44.909  40.583  11.971
47225W        W15443  20.696  31.371   2.050
47226W        W15444   3.220   8.878   1.797
47227W        W15445   8.275  39.665   5.418
47228W        W15446  32.433   2.826  12.153
47229W        W15447  32.663  32.524   0.834
47230W        W15448  11.758  12.933  13.522
47231W        W15449  22.467   6.779  10.747
47232W        W15450  43.653  18.789  10.225
47233W        W15451  39.227  41.892  14.804
47234W        W15452  27.408  44.007  12.050
47235W        W15453   6.462  33.053  13.515
47236W        W15454  16.777  36.519   1.774
47237W        W15455   0.648  38.566   3.322
47238W        W15456  36.902  19.676  10.874
47239W        W15457  38.964  42.595  14.682
47240W        W15458   0.442  25.559  10.732
47241W        W15459  15.192  26.710  13.930
47242W        W15460  41.291   8.829  14.803
47243W        W15461  21.713  39.055   0.971
47244W        W15462  31.147  13.666  13.404
47245W        W15463  30.088  17.707  10.257
47246W        W15464  38.462  39.302   1.838
47247W        W15465  16.548  41.505   1.347
47248W        W15466   0.388  17.083  14.421
47249W        W15467  24.724  12.581  10.610
47250W        W15468  23.829  40.426   2.216
47251W        W15469  14.218  25.937   2.638
47252W        W15470  20.639   6.156   1.871
47253W        W15471  15.384  42.839  10.033
47254W        W15472  21.115  33.139   0.890
47255W        W15473   9.095  44.704  12.564
47256W        W15474  22.689  42.779  13.283
47257W        W15475  18.459  27.380   0.842
47258W        W15476  11.104  26.694  11.865
47259W        W15477  33.402  28.049   4.454
47260W        W15478  41.020   6.787   0.290
47261W        W15479  12.588   0.895   1.770
47262W        W15480  37.329  19.129   3.245
47263W        W15481  24.735  13.572   3.186
47264W        W15482   3.230   1.201   4.084
47265W        W15483  43.878  30.556  11.921
47266W        W15484  22.141  31.680  13.467
47267W        W15485  28.767  35.587  14.428
47268W        W15486  26.206  36.044  12.839
47269W        W15487  38.275  10.572   0.317
47270W        W15488   2.876   2.904  12.036
47271W        W15489  42.760  21.952  11.147
47272W        W15490  16.303  34.386  14.913
47273W        W15491  10.393  40.543   3.864
47274W        W15492  39.329  44.460   3.197
47275W        W15493  15.807  11.665  13.816
47276W        W15494  21.056  33.415   0.075
47277W        W15495  30.456  28.378   5.363
47278W        W15496  11.682  30.058  13.955
47279W        W15497  44.108   0.102   0.444
47280W        W15498  11.271  42.408   0.760
47281W        W15499   9.716  32.346   4.527
47282W        W15500  12.082  18.998  11.329
47283W        W15501  14.338  40.199  10.371
47284W        W15502  34.463   8.547   4.025
47285W        W15503  43.528   3.006  14.467
47286W        W15504  44.574  35.041   4.699
47287W        W15505  27.589  16.629   1.432
47288W        W15506  22.688  34.018  13.860
47289W        W15507  34.504  39.250   0.622
47290W        W15508  15.280  17.940  13.011
47291W        W15509   7.298  25.210  11.122
47292W        W15510  44.741  21.293  14.891
47293W        W15511  21.452  13.160  11.422
47294W        W15512  30.097  41.730   2.673
47295W        W15513   0.635  23.592   3.928
47296W        W15514   0.969  12.606  13.514
47297W        W15515  25.533   7.616   4.452
47298W        W15516  39.297  15.290   0.919
47299W        W15517  19.758  17.720   0.800
47300W        W15518   7.728  38.822   1.130
47301W        W15519   4.255  31.950  10.892
47302W        W15520  23.330  38.504   0.764
47303W        W15521   8.714   8.717   0.546
47304W        W15522  29.675  24.757  10.775
47305W        W15523  11.743  18.149  11.187
47306W        W15524  39.140   6.171   3.725
47307W        W15525  32.929   8.343   4.662
47308W        W15526  14.368  34.175  13.873
47309W        W15527  28.845  22.602   9.734
47310W        W15528  16.954   6.875  13.530
47311W        W15529  28.748  16.104   0.726
47312W        W15530  26.359  18.520  12.844
47313W        W15531  16.200  17.822   3.283
47314W        W15532  43.601  18.560   2.189
47315W        W15533  33.023  11.189  13.753
47316W        W15534   0.476   0.704  12.998
47317W        W15535  18.273  14.578   0.021
47318W        W15536  17.265  16.400  14.655
47319W        W15537  26.108   4.826   1.299
47320W        W15538  21.689  24.746   1.717
47321W        W15539  33.699  23.507  11.714
47322W        W15540  36.406  31.817   4.517
47323W        W15541  41.997   9.697   4.898
47324W        W15542  41.076  18.485   1.936
47325W        W15543   8.245  26.180   3.562
47326W        W15544  35.716  40.038  14.372
47327W        W15545  19.641  21.487  10.711
47328W        W15546  38.414  40.952   1.233
47329W        W15547  44.200  30.442  13.129
47330W        W15548  41.272  32.541  14.354
47331W        W15549  23.052  31.380   1.316
47332W        W15550  20.531  38.941   4.229
47333W        W15551   1.836  34.488   1.799
47334W        W15552   0.831  19.236  14.068
47335W        W15553   0.875  31.682   2.823
47336W        W15554  28.582  31.603  12.414
47337W        W15555  36.144  20.629  11.961
47338W        W15556  39.342  34.005   3.264
47339W        W15557  37.131  21.105   4.039
47340W        W15558  12.184   5.443   1.805
47341W        W15559  36.949  17.585   2.758
47342W        W15560  37.380  15.281   1.744
47343W        W15561  34.875  29.140   3.246
47344W        W15562  17.339  37.125  12.988
47345W        W15563   5.464   8.449  11.785
47346W        W15564   0.438   9.836  14.439
47347W        W15565   8.947   5.730  14.024
47348W        W15566  13.167  17.037   1.955
47349W        W15567  34.613  13.793  12.892
47350W        W15568  36.637  20.449  14.773
47351W        W15569   6.605  34.966   3.266
47352W        W15570  25.221  14.423  10.175
47353W        W15571  34.060   5.832   1.339
47354W        W15572  10.297   4.285   4.737
47355W        W15573  25.735  17.455  13.122
47356W        W15574   1.757  44.768   0.336
47357W        W15575  37.565   8.140  10.770
47358W        W15576   9.184  40.457  13.601
47359W        W15577   1.747   2.320   1.979
47360W        W15578   8.703  17.778   3.122
47361W        W15579   6.756   7.536  14.758
47362W        W15580  39.725   8.697   2.884
47363W        W15581  26.718  19.102  14.901
47364W        W15582  35.565  11.274  14.371
47365W        W15583   1.434  25.298  10.746
47366W        W15584  18.266  35.355  10.689
47367W        W15585  42.785  18.690   1.827
47368W        W15586  39.952  17.484  12.007
47369W        W15587  10.506  21.064   9.997
47370W        W15588  22.111  21.484  14.065
47371W        W15589  33.016  37.699  11.702
47372W        W15590  11.122  20.513  13.510
47373W        W15591  18.078   8.796  11.658
47374W        W15592  36.018  22.700   3.085
47375W        W15593  18.731  29.862  12.566
47376W        W15594  37.526  43.685   1.131
47377W        W15595  21.579   2.963   3.775
47378W        W15596  19.495   9.155   4.392
47379W        W15597  42.678  35.775  11.119
47380W        W15598  42.243  23.000   2.348
47381W        W15599   9.909  15.122  12.986
47382W        W15600  24.006   9.900  11.165
47383W        W15601  18.078  32.971   2.303
47384W        W15602   5.204   1.801   0.495
47385W        W15603  26.767  13.217  12.776
47386W        W15604  11.643   1.649  13.295
47387W        W15605  29.811  27.465   3.706
47388W        W15606  35.361  12.152   1.733
47389W        W15607  44.699  43.970  14.919
47390W        W15608   2.586  31.980   2.882
47391W        W15609  30.042  30.563   3.126
47392W        W15610   3.503  13.558  11.075
47393W        W15611  36.543   7.380  13.267
47394W        W15612  40.784   6.902   3.686
47395W        W15613  41.637   7.460   2.793
47396W        W15614  36.296  22.229  14.365
47397W        W15615  37.043  11.883   3.286
47398W        W15616  20.527   3.403   2.220
47399W        W15617   0.227  20.642   0.496
47400W        W15618  19.003   8.390   2.893
47401W        W15619  16.338  11.178  14.999
47402W        W15620  23.532  33.977   9.883
47403W        W15621  15.858  12.465  11.486
47404W        W15622   9.885   9.816  11.348
47405W        W15623   8.574  30.655   1.505
47406W        W15624  44.015  22.999   2.697
47407W        W15625   8.060   8.807   2.252
47408W        W15626  32.852   2.003  10.633
47409W        W15627   9.158  44.558  11.116
47410W        W15628  44.847  20.607   4.584
47411W        W15629  26.544   8.746  13.887
47412W        W15630  36.062   1.901   1.939
47413W        W15631  20.783  12.381  14.908
47414W        W15632  15.087  18.199  11.582
47415W        W15633  38.404  33.906   2.700
47416W        W15634  30.919   9.853  13.122
47417W        W15635  22.087  41.110  13.978
47418W        W15636   2.225  12.603  11.553
47419W        W15637  18.529  24.525   3.310
47420W        W15638  22.630  33.330   4.499
47421W        W15639   8.671  27.013   3.682
47422W        W15640  24.550  24.911  11.253
47423W        W15641  20.471  41.758  14.920
47424W        W15642  27.044  37.036   2.254
47425W        W15643  43.264  39.798   4.103
47426W        W15644  40.644  17.726  13.720
47427W        W15645  38.508  27.044   0.809
47428W        W15646  27.467   3.538   4.599
47429W        W15647  23.260   4.484   2.189
47430W        W15648  27.195   5.691   1.427
47431W        W15649  41.370   6.331  12.641
47432W        W15650  33.435  21.486  12.959
47433W        W15651   5.731  34.457  11.054
47434W        W15652  44.528  35.061   2.757
47435W        W15653  14.262   6.151   2.859
47436W        W15654  14.419  43.470  12.550
47437W        W15655  43.910  28.036   1.125
47438W        W15656  33.707  12.017  14.431
47439W        W15657   0.433  35.976   1.477
47440W        W15658  18.502   5.856  13.350
47441W        W15659  28.031  37.367  14.367
47442W        W15660  40.850  17.312   0.398
47443W        W15661   8.964   3.332   4.169
47444W        W15662  40.039  38.521   3.128
47445W        W15663  42.209  13.222   0.636
47446W        W15664  16.942  39.993  14.067
47447W        W15665  15.643  33.487   2.016
47448W        W15666   6.175  43.044   1.294
47449W        W15667  30.942  42.817  10.906
47450W        W15668  28.516  38.115  14.276
47451W        W15669  39.207  26.270  14.927
47452W        W15670  14.044  23.892  12.561
47453W        W15671  22.640  25.685  14.145
47454W        W15672   4.219  23.102  14.757
47455W        W15673  41.871  35.525   3.667
47456W        W15674  16.983  33.434   3.609
47457W        W15675  40.055  29.500  13.300
47458W        W15676   8.330  25.436  14.400
47459W        W15677  28.167  42.051   3.672
47460W        W15678  35.288   7.320  13.546
47461W        W15679  42.353  19.464  11.923
47462W        W15680  22.744  38.410  10.508
47463W        W15681  21.927  25.207   1.705
47464W        W15682  14.378  21.793   2.199
47465W        W15683  38.906   5.836  10.179
47466W        W15684  35.342  17.313  12.470
47467W        W15685  22.493   1.807   0.533
47468W        W15686  12.083  44.675  10.969
47469W        W15687  39.914  26.587   0.341
47470W        W15688  24.650  26.713   1.479
47471W        W15689  28.780  19.630   1.069
47472W        W15690  35.830  31.681  12.250
47473W        W15691  44.596  23.994  13.345
47474W        W15692  41.281   5.047   0.269
47475W        W15693  22.934  37.906  12.014
47476W        W15694   4.752  23.438  13.144
47477W        W15695  24.527  38.472  14.212
47478W        W15696   7.475   1.275  10.642
47479W        W15697   4.772  44.497   0.958
47480W        W15698   2.767  17.646   2.694
47481W        W15699  18.525  24.542  13.823
47482W        W15700  44.468  43.921   3.265
47483W        W15701   4.379  44.395   0.250
47484W        W15702  40.552  29.553   0.901
47485W        W15703  15.717  44.301   3.691
47486W        W15704  12.634  28.380   2.465
47487W        W15705  23.676  24.955  13.545
47488W        W15706   2.431   6.602   0.869
47489W        W15707  10.777  23.912   1.236
47490W        W15708  27.583   0.746   0.393
47491W        W15709   9.860  23.366   0.427
47492W        W15710   2.631  35.901   3.083
47493W        W15711  35.385  44.432  14.901
47494W        W15712  25.078  41.869   4.539
47495W        W15713   4.179   5.669  14.110
47496W        W15714   1.248  18.739   3.229
47497W        W15715  29.624   1.973   2.989
47498W        W15716  32.109  39.432  13.434
47499W        W15717  20.503  16.407   3.781
47500W        W15718   1.817  21.649   0.866
47501W        W15719  25.217  33.505   2.768
47502W        W15720  30.685  30.821  13.903
47503W        W15721  22.269   3.229  14.766
47504W        W15722  30.010   8.234   2.321
47505W        W15723   9.699  42.372  10.593
47506W        W15724   1.137  21.120   3.839
47507W        W15725  23.588  42.739  12.387
47508W        W15726  28.935  29.412   2.323
47509W        W15727  44.244  16.649  14.760
47510W        W15728  25.485  35.238  12.601
47511W        W15729  21.075   6.845   4.898
47512W        W15730  21.804  38.052  12.889
47513W        W15731  10.369  10.886  13.120
47514W        W15732  23.614  27.184  10.606
47515W        W15733   2.637  42.550   0.515
47516W        W15734  33.360  13.140   2.145
47517W        W15735  38.913  20.769   2.227
47518W        W15736   5.890   6.820   1.905
47519W        W15737  28.207  31.430   1.757
47520W        W15738  30.142  19.266   4.896
47521W        W15739  14.577  40.244   4.567
47522W        W15740   9.433  36.762   4.539
47523W        W15741  10.665   6.806   3.306
47524W        W15742  22.204  31.479   0.352
47525W        W15743  27.015  33.401   0.727
47526W        W15744  39.830   6.981  12.037
47527W        W15745  29.790  43.123   4.243
47528W        W15746   4.698  38.410   0.051
47529W        W15747  22.743   7.582  10.357
47530W        W15748  32.932  37.869   2.974
47531W        W15749  43.979  22.289   2.245
47532W        W15750   0.466  25.111   2.701
47533W        W15751  37.019   1.202  11.266
47534W        W15752  14.195  38.107   0.851
47535W        W15753  25.631  28.396   0.496
47536W        W15754   9.385  20.106   3.341
47537W        W15755  20.176  42.262  12.383
47538W        W15756  20.822  21.154   4.207
47539W        W15757  19.272  15.258  11.105
47540W        W15758  21.221  20.523   0.896
47541W        W15759  22.132   8.403   3.237
47542W        W15760  26.006   2.670   4.504
47543W        W15761  18.578   6.861   3.869
47544W        W15762   4.102  16.426  12.183
47545W        W15763  21.113  24.134   0.289
47546W        W15764  36.817  22.026  13.447
47547W        W15765   0.448   3.247  12.997
47548W        W15766   1.325  42.425  13.841
47549W        W15767  42.891  10.720   2.752
47550W        W15768  16.844  42.024   0.253
47551W        W15769  11.741  30.683   3.113
47552W        W15770  16.754  27.612   1.172
47553W        W15771   3.784  22.205   4.331
47554W        W15772  26.042  32.611  11.592
47555W        W15773   1.354  10.377   1.001
47556W        W15774  23.517   9.774  10.494
47557W        W15775  36.484  22.506  12.746
47558W        W15776  10.271  42.874   9.952
47559W        W15777   8.187  13.233  11.151
47560W        W15778   3.146   2.968  11.217
47561W        W15779  20.452   5.998   1.117
47562W        W15780  37.755  12.555   4.433
47563W        W15781  26.428  24.277   0.488
47564W        W15782   4.324   7.039  13.428
47565W        W15783   1.152  10.757   4.666
47566W        W15784  41.048  35.845   0.041
47567W        W15785  21.202  39.924   2.126
47568W        W15786  30.583  28.892  14.544
47569W        W15787  31.576   5.478  12.518
47570W        W15788  42.015  12.737   2.220
47571W        W15789  14.080  17.694   2.705
47572W        W15790  29.280   8.627   3.330
47573W        W15791  41.539  31.212  13.396
47574W        W15792  43.887  10.133   0.897
47575W        W15793  39.848   6.003  12.382
47576W        W15794  32.601  14.616  14.967
47577W        W15795  31.573  32.457   3.268
47578W        W15796  13.621  14.815   2.683
47579W        W15797   0.477  21.626   3.619
47580W        W15798  23.928  40.885   1.809
47581W        W15799  27.964  10.957   2.864
47582W        W15800  17.043  24.196  11.961
47583W        W15801  21.195  24.662   2.501
47584W        W15802  38.455  41.146   2.334
47585W        W15803  44.263  34.627   4.704
47586W        W15804  15.707  26.671   3.587
47587W        W15805  36.445  14.106   1.303
47588W        W15806  34.013  11.431  14.897
47589W        W15807   9.213   1.775   0.730
47590W        W15808  21.116  36.699   2.717
47591W        W15809  41.065  13.554  11.207
47592W        W15810  26.748  24.090  11.154
47593W        W15811  24.295   4.704   1.945
47594W        W15812  32.178  36.385  13.998
47595W        W15813  11.221  36.453   3.395
47596W        W15814  24.553  37.820   4.536
47597W        W15815  43.068  36.158   0.934
47598W        W15816  10.508  30.059   1.236
47599W        W15817  29.434   0.551  13.398
47600W        W15818  25.941  28.880   3.682
47601W        W15819  14.642  14.693   1.863
47602W        W15820  39.803  24.510   1.896
47603W        W15821  10.612  35.620   0.346
47604W        W15822  35.059  44.420  14.477
47605W        W15823  35.127   1.481   2.846
47606W        W15824   5.267  16.883  14.033
47607W        W15825   7.383  18.136  14.975
47608W        W15826  10.400  16.814   4.217
47609W        W15827   0.085  38.132  12.935
47610W        W15828  33.478   9.928  12.861
47611W        W15829   0.804   2.294   2.740
47612W        W15830  14.190  13.241   0.452
47613W        W15831  37.769  13.416  13.270
47614W        W15832  31.650  34.291  11.095
47615W        W15833  30.624  12.773   3.389
47616W        W15834  23.000   9.270   0.393
47617W        W15835  24.452  42.498  13.131
47618W        W15836  10.824  32.929   2.253
47619W        W15837   0.945   8.629   2.094
47620W        W15838  39.877  10.288   3.382
47621W        W15839   5.788   2.997   4.704
47622W        W15840  24.705  12.582   3.333
47623W        W15841  35.653  32.978  11.977
47624W        W15842  34.949   1.254  13.368
47625W        W15843  41.614  42.477  12.604
47626W        W15844   0.772  36.666  12.222
47627W        W15845  26.649  28.896   0.567
47628W        W15846  33.474   9.743  10.360
47629W        W15847  41.812   8.373   5.054
47630W        W15848  10.813  22.014  14.239
47631W        W15849  40.691   3.636   5.189
47632W        W15850  22.456  18.714   3.230
47633W        W15851  25.960  25.520  11.531
47634W        W15852   1.457   4.918   4.644
47635W        W15853  14.670  30.394   3.277
47636W        W15854  27.572  35.338  13.053
47637W        W15855  22.198  20.298   0.009
47638W        W15856  31.847   4.216  13.111
47639W        W15857   2.755  10.772  10.572
47640W        W15858  29.418  22.775   0.210
47641W        W15859  38.953  19.621  13.297
47642W        W15860   1.809  11.803  12.854
47643W        W15861   5.274  33.721   4.328
47644W        W15862  16.847  43.402  12.366
47645W        W15863  14.794  36.601  10.591
47646W        W15864  21.386   3.218   0.780
47647W        W15865  28.389  42.006  13.508
47648W        W15866  25.448  42.347  12.490
47649W        W15867  12.818  17.741  12.970
47650W        W15868   8.399   4.950   3.114
47651W        W15869   4.783  43.560  12.570
47652W        W15870  41.968  23.227   1.697
47653W        W15871  42.158  31.531  13.338
47654W        W15872  10.858  42.902   0.371
47655W        W15873  10.323  14.035   2.829
47656W        W15874  27.514  13.297  12.772
47657W        W15875  24.455  13.572   0.829
47658W        W15876  12.184  10.165   4.600
47659W        W15877  24.501  10.839   4.082
47660W        W15878  27.120   7.234   2.393
47661W        W15879   4.340  28.343   0.469
47662W        W15880  29.901   9.945  11.996
47663W        W15881  29.492  34.200   2.824
47664W        W15882  13.776  40.766   0.306
47665W        W15883  23.712   3.321   0.520
47666W        W15884  44.411  28.937   2.931
47667W        W15885  15.124  38.543   4.890
47668W        W15886  32.365  15.869   0.261
47669W        W15887  16.234  16.787  12.496
47670W        W15888   8.419   0.626  12.140
47671W        W15889   4.242  37.467   4.382
47672W        W15890   6.440  13.894   0.404
47673W        W15891   5.530   6.774   1.009
47674W        W15892  24.914  25.643  11.513
47675W        W15893  27.851  44.197  11.150
47676W        W15894  40.833  19.615  13.866
47677W        W15895  28.438  41.822   4.158
47678W        W15896  32.561  17.794   3.451
47679W        W15897   6.320  25.494  11.641
47680W        W15898  22.757  35.944  11.570
47681W        W15899  43.888  12.297   0.587
47682W        W15900   1.772   8.831  12.562
47683W        W15901  41.720  15.029  11.902
47684W        W15902  14.390  27.597   1.988
47685W        W15903  22.196  11.291   4.268
47686W        W15904   1.978  15.536   2.299
47687W        W15905  20.052  16.550  11.098
47688W        W15906  12.565  13.647  11.675
47689W        W15907  29.497  16.342  11.932
47690W        W15908  34.901  22.016  14.683
47691W        W15909  12.567   1.285   2.836
47692W        W15910  43.479  32.865  10.717
47693W        W15911  25.714  34.535  14.001
47694W        W15912  26.201  27.235   0.281
47695W        W15913  10.231  21.077  14.740
47696W        W15914  37.368   0.710  11.168
47697W        W15915  36.509   1.247  13.969
47698W        W15916  41.329  19.640  11.139
47699W        W15917  27.036  43.368  10.594
47700W        W15918   7.468   8.357   0.916
47701W        W15919  38.939   6.019   0.835
47702W        W15920  24.797   9.836   2.788
47703W        W15921  39.550   0.502  11.589
47704W        W15922   2.738  20.783   1.878
47705W        W15923  12.497  23.152   2.775
47706W        W15924  43.351  38.123  10.516
47707W        W15925  17.007  34.430  12.594
47708W        W15926   5.771  34.539  13.881
47709W        W15927  44.312  11.160   3.602
47710W        W15928   2.875  20.488   3.665
47711W        W15929  25.239  43.010   3.736
47712W        W15930  34.912  23.408   4.246
47713W        W15931  33.212  14.020   0.392
47714W        W15932  10.410  34.048  14.060
47715W        W15933  29.106  43.401   1.730
47716W        W15934  36.451  40.781  11.612
47717W        W15935  18.241  27.455   2.045
47718W        W15936  32.673   0.493  12.866
47719W        W15937   0.481  29.407  11.950
47720W        W15938   2.472  15.548  12.352
47721W        W15939  25.124  29.959   1.800
47722W        W15940  10.556   3.045   0.617
47723W        W15941   6.514   1.505   3.098
47724W        W15942  19.809  44.796   2.306
47725W        W15943  33.434  33.970  11.102
47726W        W15944  28.441   0.281  11.894
47727W        W15945  16.083  21.999  11.216
47728W        W15946  18.789  42.477   1.809
47729W        W15947  29.181  35.250   2.893
47730W        W15948  26.972  24.477   0.198
47731W        W15949  42.051   6.651  14.231
47732W        W15950  32.005  37.877  12.517
47733W        W15951  15.825   1.890   4.643
47734W        W15952  33.506  30.804   1.864
47735W        W15953  17.635   8.144  14.484
47736W        W15954   6.790  13.593   3.264
47737W        W15955  16.185  42.548   2.746
47738W        W15956  12.764  35.908   0.392
47739W        W15957  30.934  38.941   4.853
47740W        W15958  41.766  17.104  14.340
47741W        W15959  28.987  10.178  12.163
47742W        W15960   5.952   1.409   2.591
47743W        W15961  24.958  10.183  12.610
47744W        W15962  42.252  38.042  11.176
47745W        W15963   3.540  17.298   2.336
47746W        W15964  29.424  20.352   0.710
47747W        W15965  42.535   4.331  11.542
47748W        W15966  38.760  18.729   4.636
47749W        W15967  24.155  22.298  14.828
47750W        W15968  44.346   7.826   1.662
47751W        W15969   5.396  14.657   2.647
47752W        W15970  36.416  17.249  13.841
47753W        W15971  12.886  42.391  13.247
47754W        W15972  35.837  35.778   0.351
47755W        W15973  14.788  24.062   0.853
47756W        W15974  30.036  44.497  14.036
47757W        W15975  27.314  18.716  14.841
47758W        W15976  37.258  29.602  12.148
47759W        W15977  22.166  39.335  11.144
47760W        W15978  13.781  24.933  13.287
47761W        W15979  33.867  17.624  14.861
47762W        W15980   6.415  10.405   0.681
47763W        W15981  23.499   7.680  11.594
47764W        W15982   6.770  32.151   0.183
47765W        W15983  22.002  13.860   1.508
47766W        W15984  22.246   8.796   4.670
47767W        W15985  43.105  29.974  11.583
47768W        W15986   0.331  37.562   0.375
47769W        W15987  20.759  26.715   1.680
47770W        W15988  20.019  34.119   3.191
47771W        W15989  18.287  23.434  13.968
47772W        W15990  26.577   9.877   5.079
47773W        W15991  35.387   2.906   1.466
47774W        W15992  27.669  28.441   2.917
47775W        W15993  10.966  34.942  12.059
47776W        W15994   0.736   4.635   4.208
47777W        W15995   9.152  15.408  13.962
47778W        W15996  23.093  30.147  12.589
47779W        W15997  29.806  31.549   0.935
47780W        W15998   1.542  12.152   4.569
47781W        W15999  10.225  19.644  10.380
47782W        W16000  16.730   3.973  12.538
47783W        W16001  33.251  20.609   3.744
47784W        W16002  42.339  20.809   3.588
47785W        W16003   0.762  33.066   0.124
47786W        W16004  19.728   2.162  11.449
47787W        W16005  16.146   1.027   4.037
47788W        W16006  19.303  30.915   3.289
47789W        W16007  21.656   8.303  11.541
47790W        W16008  14.495  14.187  13.510
47791W        W16009  41.633  39.188   3.688
47792W        W16010  43.098  18.820  12.212
47793W        W16011   6.830  13.989   1.380
47794W        W16012   8.850  35.822   4.302
47795W        W16013   0.087  31.250   2.100
47796W        W16014  44.251  23.061   4.470
47797W        W16015   9.538   9.724  10.544
47798W        W16016  44.087   2.622   4.225
47799W        W16017   5.893  39.361  13.616
47800W        W16018   7.283  31.437  12.125
47801W        W16019   8.273  40.256   4.608
47802W        W16020   6.856  23.784   1.765
47803W        W16021   1.368  42.438  14.851
47804W        W16022  25.135   7.747  14.983
47805W        W16023  42.494   9.117   2.785
47806W        W16024  23.686  23.967   3.264
47807W        W16025  23.543   0.757  12.863
47808W        W16026  39.516   1.791  11.193
47809W        W16027  19.979  24.194   4.560
47810W        W16028  22.032  12.190   0.819
47811W        W16029  24.073  19.908   0.378
47812W        W16030  28.604  29.963   4.059
47813W        W16031   9.395  25.898  14.862
47814W        W16032  15.229  39.348  12.480
47815W        W16033  11.132  42.835   4.019
47816W        W16034  11.418  18.275  10.809
47817W        W16035  25.098  36.134   2.835
47818W        W16036  17.767  19.636  13.351
47819W        W16037  19.853  19.302  12.193
47820W        W16038  35.553  39.322   2.369
47821W        W16039  16.139  10.183   4.900
47822W        W16040  36.499  22.499   3.252
47823W        W16041   3.306   8.286   0.274
47824W        W16042  26.930  32.790   2.538
47825W        W16043  23.307  12.751  13.133
47826W        W16044   2.833  40.729  13.653
47827W        W16045  16.285  24.387   3.805
47828W        W16046  21.650  39.419   3.788
47829W        W16047  41.890  37.891   2.074
47830W        W16048  29.422   7.763  13.965
47831W        W16049  21.556  29.426  13.743
47832W        W16050  40.531   2.955  10.487
47833W        W16051  41.217  31.652  10.875
47834W        W16052  44.325  38.282  13.688
47835W        W16053   3.929  20.690  14.723
47836W        W16054  17.827   2.832  13.514
47837W        W16055  34.607  37.840  11.228
47838W        W16056  32.842  33.034  14.873
47839W        W16057  33.490  38.377   0.394
47840W        W16058  39.027  36.498   3.206
47841W        W16059  40.799  14.107  13.780
47842W        W16060  11.785  26.210   2.414
47843W        W16061   5.466  24.927  11.584
47844W        W16062  42.249  25.841   2.556
47845W        W16063   2.816   7.394   3.049
47846W        W16064  16.249   6.759  12.942
47847W        W16065  23.565  41.091  12.795
47848W        W16066  38.357  25.664   4.267
47849W        W16067  34.705   9.618  12.421
47850W        W16068   4.859  35.074   4.600
47851W        W16069  10.677  34.024   3.728
47852W        W16070   6.060  36.878   2.795
47853W        W16071  38.575  44.913   2.105
47854W        W16072  44.857  10.619  14.449
47855W        W16073  16.649  33.353  11.324
47856W        W16074  12.264  27.716   0.802
47857W        W16075  27.398  10.078   4.496
47858W        W16076  15.522  26.607  13.510
47859W        W16077  23.738  30.099   0.855
47860W        W16078  11.060  31.524   1.164
47861W        W16079   4.734  13.240   2.359
47862W        W16080  24.847  41.445  14.315
47863W        W16081  28.207   7.929   1.011
47864W        W16082  18.233  43.939   4.457
47865W        W16083  30.017  34.693  12.850
47866W        W16084  14.228  30.025  14.462
47867W        W16085  23.299  38.874  12.032
47868W        W16086  38.910  29.396   1.358
47869W        W16087  26.794  20.763  12.459
47870W        W16088  22.573  30.753  11.507
47871W        W16089   9.420  28.987   4.381
47872W        W16090  38.130  37.460   0.959
47873W        W16091   2.377   6.392  10.787
47874W        W16092  16.745  10.333   1.368
47875W        W16093  43.941  38.015   3.410
47876W        W16094  40.599  10.157   4.170
47877W        W16095  15.556  19.387  10.896
47878W        W16096  14.530   7.321   4.734
47879W        W16097  32.424  33.555  12.060
47880W        W16098  10.323  12.801  12.406
47881W        W16099  22.529  10.523  11.053
47882W        W16100  29.332  38.111   0.851
47883W        W16101  22.845   9.296  12.549
47884W        W16102  16.812  38.860   3.900
47885W        W16103  33.353  12.966   2.706
47886W        W16104  10.192  24.703   2.444
47887W        W16105  39.552  20.602  13.051
47888W        W16106  18.100   8.923  13.009
47889W        W16107  12.092  26.763  14.341
47890W        W16108  41.391  13.541   0.445
47891W        W16109   1.847  12.618   0.490
47892W        W16110  23.571  22.548   0.531
47893W        W16111  42.245  36.146  11.971
47894W        W16112  36.802  13.208  13.547
47895W        W16113  34.412   1.988   0.401
47896W        W16114  24.030  37.295  10.977
47897W        W16115  10.336   8.882  14.812
47898W        W16116  17.839  34.570   2.938
47899W        W16117  44.870  15.833  10.748
47900W        W16118  31.127  21.409  12.479
47901W        W16119  44.170  36.764  13.918
47902W        W16120  24.573   8.606  14.912
47903W        W16121   5.409  18.231  12.900
47904W        W16122  25.860  14.546   2.454
47905W        W16123   8.152  34.917   2.921
47906W        W16124  36.786  24.237  12.898
47907W        W16125  34.422   5.709  12.832
47908W        W16126   8.703  13.612  12.068
47909W        W16127  30.020  26.149  11.166
47910W        W16128  41.500   2.502   0.271
47911W        W16129  11.391  37.330  11.021
47912W        W16130   2.025  19.696  12.538
47913W        W16131  20.608  33.554   3.528
47914W        W16132  31.516  13.357   0.629
47915W        W16133  44.954  14.348   4.782
47916W        W16134  20.616  28.553   2.960
47917W        W16135  39.109  12.925   4.332
47918W        W16136   8.867  12.358  10.995
47919W        W16137  32.644  26.066  14.202
47920W        W16138  20.154  19.679   3.104
47921W        W16139   3.900   4.320  10.880
47922W        W16140   1.010  44.430  10.153
47923W        W16141  24.640  16.574  12.716
47924W        W16142   5.262  44.059  13.804
47925W        W16143  37.140  17.812  11.932
47926W        W16144  33.030  22.308   0.960
47927W        W16145  16.379  15.212   1.878
47928W        W16146  13.173  33.729  12.400
47929W        W16147  41.047  15.873   3.103
47930W        W16148  39.887   7.889  12.611
47931W        W16149  26.097  10.407  14.401
47932W        W16150  11.869  23.489   2.781
47933W        W16151  25.898  40.482   1.382
47934W        W16152   0.383   8.905   1.009
47935W        W16153  29.463  14.159  12.386
47936W        W16154  22.492  38.324   1.138
47937W        W16155  23.054  19.106  12.948
47938W        W16156  40.348  26.976  14.009
47939W        W16157   5.930  44.472   4.039
47940W        W16158  12.267   2.760  13.804
47941W        W16159  31.975  31.001   2.554
47942W        W16160  35.822  30.770   2.432
47943W        W16161  29.653  22.539   1.646
47944W        W16162   9.445  13.028  14.293
47945W        W16163  44.278  35.313  12.475
47946W        W16164  25.674  37.504   4.096
47947W        W16165  12.692   1.856  10.408
47948W        W16166  28.749  27.013  14.108
47949W        W16167  13.507  16.333  12.311
47950W        W16168  11.424  23.682  12.140
47951W        W16169  35.801  44.812  14.230
47952W        W16170  41.906  15.211  10.569
47953W        W16171  25.480  39.828  10.517
47954W        W16172  33.068  36.700  11.608
47955W        W16173  42.036  19.182  13.384
47956W        W16174  10.859  31.925   0.429
47957W        W16175  19.096  39.504   1.542
47958W        W16176  40.402   9.836   2.825
47959W        W16177  33.078  41.830   1.178
47960W        W16178  34.249  10.993  11.305
47961W        W16179  41.762  24.192  13.440
47962W        W16180  37.040  26.535  12.781
47963W        W16181   3.977  12.767  12.014
47964W        W16182   6.331  24.600  12.009
47965W        W16183  17.316  35.315  12.049
47966W        W16184  33.728  10.168  11.041
47967W        W16185  21.312  34.519   4.474
47968W        W16186  42.532   4.324  10.630
47969W        W16187   0.437  13.702  13.828
47970W        W16188  12.563  25.156   3.305
47971W        W16189  23.779  24.144   4.126
47972W        W16190  25.057  33.169  13.077
47973W        W16191  22.935  43.220  12.031
47974W        W16192  20.812  28.980   2.658
47975W        W16193  35.020  22.491   3.821
47976W        W16194  30.543  21.150   3.609
47977W        W16195  34.873  20.050   4.047
47978W        W16196  37.947  14.854   0.088
47979W        W16197  28.145  18.363   4.096
47980W        W16198  11.927  15.650  13.610
47981W        W16199  27.420  29.096  14.557
47982W        W16200   2.502   6.820  14.865
47983W        W16201   9.780  41.112   3.655
47984W        W16202  43.509  27.571   0.661
47985W        W16203  11.236  35.528  12.034
47986W        W16204  28.752  16.233  11.043
47987W        W16205  15.715   4.457  11.144
47988W        W16206   0.430  25.931   4.263
47989W        W16207  18.587  26.440   2.355
47990W        W16208  41.931  42.677  11.135
47991W        W16209  34.612   8.118  10.764
47992W        W16210   5.736  41.273   2.344
47993W        W16211  14.098   3.674   0.444
47994W        W16212  31.671   5.122   0.350
47995W        W16213  31.475  35.915   3.686
47996W        W16214  13.727  18.085   2.826
47997W        W16215   9.078   1.273   0.909
47998W        W16216  28.555  43.549   0.792
47999W        W16217  20.713  10.299   4.231
48000W        W16218   7.760  33.768   0.581
48001W        W16219  25.772  13.733  11.135
48002W        W16220  41.022  38.844   3.204
48003W        W16221  29.673  35.738   4.228
48004W        W16222   4.007   9.332  13.240
48005W        W16223  41.247  15.758  14.773
48006W        W16224  41.415  17.674  12.729
48007W        W16225  29.857  12.634  12.390
48008W        W16226   7.800  33.392   3.009
48009W        W16227  38.902   1.394   4.093
48010W        W16228   2.512   1.945   4.144
48011W        W16229  23.739  25.214  10.707
48012W        W16230  17.094  28.567   2.558
48013W        W16231  38.642   7.656   4.295
48014W        W16232  43.467   3.896   3.225
48015W        W16233   5.813  16.208   1.837
48016W        W16234  26.334  17.154   0.467
48017W        W16235   4.395  40.991   0.207
48018W        W16236  26.676  36.548  11.959
48019W        W16237  18.181   0.945  10.677
48020W        W16238  12.273  27.250   1.778
48021W        W16239  37.476  28.573   4.803
48022W        W16240  13.827  26.675   0.769
48023W        W16241  19.913  44.783  12.508
48024W        W16242  21.140  21.056  13.896
48025W        W16243   6.279   1.657   3.557
48026W        W16244  38.917  19.108  12.073
48027W        W16245  44.851  30.581  14.224
48028W        W16246   7.016   9.419   3.860
48029W        W16247  24.022   3.813   0.064
48030W        W16248  11.476  38.592  13.923
48031W        W16249  42.200  35.903   0.270
48032W        W16250  14.299  19.324   2.311
48033W        W16251  31.573  25.528   2.481
48034W        W16252  32.685  26.622   0.392
48035W        W16253  43.543  11.874  12.393
48036W        W16254  27.080  30.082  12.437
48037W        W16255  25.798  16.024  10.335
48038W        W16256  21.792  20.591   2.774
48039W        W16257  39.469   0.297  12.048
48040W        W16258  30.041  41.225  10.694
48041W        W16259  27.772  18.170  12.106
48042W        W16260  36.574   6.957  12.943
48043W        W16261  32.543   8.729  11.653
48044W        W16262  41.939  13.463  11.176
48045W        W16263  40.828  15.119  12.982
48046W        W16264  17.033  34.186   0.289
48047W        W16265  30.427  10.672   4.454
48048W        W16266  38.132  43.847  12.912
48049W        W16267  35.966   9.837   4.759
48050W        W16268  15.277   3.121   0.181
48051W        W16269  39.380  16.318   0.884
48052W        W16270  11.818   8.848   1.408
48053W        W16271  35.812   6.672   3.549
48054W        W16272  15.759   1.291   3.566
48055W        W16273  20.116  21.320   1.434
48056W        W16274  24.211  20.256  10.686
48057W        W16275  44.334  42.288  11.654
48058W        W16276  20.908   9.792  12.487
48059W        W16277  17.802   9.953   2.792
48060W        W16278  36.401  24.471  13.945
48061W        W16279  31.389   6.237  11.920
48062W        W16280   6.889   9.796  12.361
48063W        W16281  28.650  39.036   3.217
48064W        W16282  28.089  38.436   2.909
48065W        W16283   3.884   7.213   0.571
48066W        W16284  20.171  33.037  10.520
48067W        W16285  44.459   6.817   3.305
48068W        W16286   7.878  41.435  11.631
48069W        W16287  33.611   8.512   0.998
48070W        W16288  14.756   1.075   5.435
48071W        W16289  25.173  20.680   4.758
48072W        W16290  14.504  40.886  13.094
48073W        W16291  13.917  16.287  13.803
48074W        W16292  37.589  11.287  11.111
48075W        W16293  41.933  37.117   2.842
48076W        W16294  32.584  13.943   2.325
48077W        W16295   0.772  20.436  13.384
48078W        W16296  13.846   1.972  10.659
48079W        W16297  27.968  11.878  12.804
48080W        W16298  28.973  28.544  13.877
48081W        W16299  37.895  35.368   2.914
48082W        W16300  42.115  28.104   4.981
48083W        W16301  25.728   3.353   0.353
48084W        W16302  44.952  13.523   1.952
48085W        W16303  14.815  43.403   4.244
48086W        W16304   2.406  37.698  11.531
48087W        W16305   2.266  37.104   0.269
48088W        W16306  32.572  34.917  10.708
48089W        W16307   1.641  16.314   3.980
48090W        W16308   1.492  43.275   2.754
48091W        W16309   6.190   9.059  14.759
48092W        W16310  21.301  39.478  13.579
48093W        W16311  26.091   8.164   2.983
48094W        W16312  39.129  42.331  11.038
48095W        W16313  36.440   5.947  12.845
48096W        W16314  40.816  10.219  14.901
48097W        W16315  43.250  34.021  13.493
48098W        W16316  24.104  12.132  11.231
48099W        W16317  35.463   6.167  10.547
48100W        W16318   3.203   3.763   2.828
48101W        W16319  35.338  25.969  14.263
48102W        W16320  38.810  14.272  14.111
48103W        W16321   9.491   6.553   0.469
48104W        W16322   9.590  39.642   2.240
48105W        W16323  29.582  18.195  13.375
48106W        W16324  43.029  37.738   1.399
48107W        W16325  33.319  22.969   3.182
48108W        W16326  34.545  17.367  13.066
48109W        W16327  28.790   8.776  14.353
48110W        W16328  41.722   4.253   4.607
48111W        W16329  13.062   2.970  12.089
48112W        W16330  19.576  13.151  10.720
48113W        W16331  15.113  43.248   1.239
48114W        W16332  24.182   9.151  14.134
48115W        W16333   7.228  43.309  13.889
48116W        W16334   8.608  27.640   4.302
48117W        W16335  34.452   4.699  13.023
48118W        W16336  27.404  30.557   2.374
48119W        W16337  37.972  33.143   2.376
48120W        W16338  16.657  38.852   3.408
48121W        W16339  10.413  42.035  12.126
48122W        W16340  11.787  15.015  11.461
48123W        W16341  27.956  12.773   4.182
48124W        W16342  17.770  44.221  11.588
48125W        W16343  28.025   3.151   4.852
48126W        W16344   0.881   9.920   3.910
48127W        W16345   3.228   4.576  13.018
48128W        W16346  22.971  18.789  13.846
48129W        W16347  35.862   7.715  14.720
48130W        W16348  33.844  27.891   3.658
48131W        W16349   1.628  26.320   2.197
48132W        W16350  36.335  35.380  11.572
48133W        W16351  21.392  42.234   1.716
48134W        W16352  23.138   2.000  13.315
48135W        W16353  22.554  24.596   0.551
48136W        W16354  32.283  33.677  12.583
48137W        W16355  38.959  44.464   1.898
48138W        W16356  33.050  41.431   4.302
48139W        W16357  40.972  26.566  11.236
48140W        W16358   2.489  43.983   4.507
48141W        W16359  19.819  25.720  14.914
48142W        W16360  40.327  26.590  14.439
48143W        W16361  13.764  34.900  12.892
48144W        W16362  32.525  40.791   1.646
48145W        W16363   4.221  33.433  12.059
48146W        W16364  39.775   7.380   0.806
48147W        W16365  22.470  40.846  14.259
48148W        W16366   3.635  36.187  13.866
48149W        W16367   1.205   5.379  12.324
48150W        W16368  11.585  18.353  14.439
48151W        W16369   3.144  23.744  14.356
48152W        W16370  25.498   4.475  11.772
48153W        W16371  42.794  44.137   1.127
48154W        W16372  24.567  38.253   1.160
48155W        W16373  11.527  14.886  11.003
48156W        W16374  37.549   3.963  14.413
48157W        W16375   7.381  22.132   3.561
48158W        W16376  37.090  13.351  12.550
48159W        W16377  27.764   0.865  12.971
48160W        W16378  21.725  13.431  14.347
48161W        W16379  44.997  12.038   0.882
48162W        W16380   8.833  38.248  10.761
48163W        W16381   5.577   3.546   2.278
48164W        W16382  23.164   6.122  10.776
48165W        W16383  39.168   9.720  12.971
48166W        W16384  14.905  29.551   2.651
48167W        W16385  33.838   9.694  14.222
48168W        W16386   5.530  41.963  12.764
48169W        W16387  34.003   6.922  14.788
48170W        W16388  36.783  43.683   3.330
48171W        W16389  32.697   3.294   0.329
48172W        W16390  40.141  39.126   3.716
48173W        W16391  40.586  15.139  13.599
48174W        W16392   0.351  28.833   1.751
48175W        W16393  39.634  29.130  11.612
48176W        W16394  42.444  36.010  10.718
48177W        W16395  43.226  14.092  11.661
48178W        W16396  17.645   4.604   1.795
48179W        W16397   9.671  22.224   4.835
48180W        W16398  28.169  20.699   2.271
48181W        W16399  16.323  33.611   4.326
48182W        W16400  16.527  38.966   1.750
48183W        W16401   9.288  20.063  10.593
48184W        W16402   7.837  36.211   2.612
48185W        W16403  36.853  26.437  10.117
48186W        W16404  43.724  19.692   4.918
48187W        W16405   4.708  35.580   0.206
48188W        W16406  22.441   6.755  12.606
48189W        W16407  18.549   9.897   1.734
48190W        W16408  41.986  37.546   5.067
48191W        W16409   1.234   3.417   0.919
48192W        W16410  22.503  44.430  11.232
48193W        W16411  20.366  14.539   1.814
48194W        W16412   5.790  44.041  10.590
48195W        W16413   1.887  40.537  12.133
48196W        W16414  37.712  38.256   3.588
48197W        W16415  35.738   7.194  11.290
48198W        W16416  36.369  30.707  11.178
48199W        W16417  26.487  20.935   4.068
48200W        W16418  21.564  30.180  10.706
48201W        W16419  32.424  36.834  12.797
48202W        W16420   3.248  11.578   0.610
48203W        W16421  40.040  44.166   2.603
48204W        W16422   2.977   6.925   3.166
48205W        W16423   9.211   0.992  14.316
48206W        W16424  43.336  41.196  14.098
48207W        W16425   9.767  15.577  11.690
48208W        W16426  28.183   4.089   0.779
48209W        W16427  20.569   2.202  12.505
48210W        W16428  35.954  43.736   2.354
48211W        W16429  20.285   0.873   3.661
48212W        W16430  11.017  29.098   3.055
48213W        W16431  41.082  42.559  12.561
48214W        W16432   1.913   8.705  10.647
48215W        W16433   2.964  36.100   1.304
48216W        W16434  13.304  32.278  13.452
48217W        W16435  24.430  42.879   3.344
48218W        W16436  17.613  25.198   4.681
48219W        W16437  36.497  28.989   1.259
48220W        W16438  24.528  13.377  14.949
48221W        W16439  21.681   9.144  11.966
48222W        W16440  24.620  34.886  11.394
48223W        W16441  13.117  32.712   1.844
48224W        W16442  37.510  21.167  13.493
48225W        W16443   9.623  32.181   1.834
48226W        W16444   4.313  27.952  13.908
48227W        W16445  30.194  14.233   3.795
48228W        W16446  28.868  15.978   4.302
48229W        W16447  14.014  44.111   3.237
48230W        W16448  27.536  15.139  11.081
48231W        W16449   0.820  35.676  10.788
48232W        W16450  22.102  29.452  14.888
48233W        W16451   8.626  13.259  13.447
48234W        W16452  15.264  41.651  13.887
48235W        W16453  16.591  23.867   3.257
48236W        W16454   7.419  19.507   1.468
48237W        W16455  36.509  10.828   3.172
48238W        W16456  15.756   2.961  11.238
48239W        W16457  40.948  33.919  14.924
48240W        W16458  34.592  18.025  10.717
48241W        W16459  29.349   0.682   0.150
48242W        W16460   8.245  27.757   3.633
48243W        W16461  30.880  10.894  10.634
48244W        W16462  20.666  31.541  13.833
48245W        W16463  31.824  19.057  14.375
48246W        W16464  36.483  12.363   1.042
48247W        W16465   3.741  33.103   0.351
48248W        W16466   1.195  28.078   0.882
48249W        W16467  43.523  24.537   3.706
48250W        W16468  29.466  44.441   5.139
48251W        W16469  23.462   8.807  10.605
48252W        W16470  16.726  33.555  14.119
48253W        W16471  35.810   3.382   4.063
48254W        W16472  23.076   0.316   3.641
48255W        W16473  27.542  17.035  11.975
48256W        W16474  35.509   8.676  10.546
48257W        W16475   6.499  35.388   1.811
48258W        W16476  26.641  33.115   4.895
48259W        W16477   5.953  10.721   4.576
48260W        W16478  40.383  31.022  13.762
48261W        W16479  38.447  12.208  14.982
48262W        W16480   8.185  36.038  10.750
48263W        W16481  14.581  34.603  10.761
48264W        W16482   2.548  29.105  14.342
48265W        W16483  30.397  14.882  11.493
48266W        W16484   8.349   5.932   2.800
48267W        W16485  16.985  28.161  10.178
48268W        W16486  10.410  24.462  13.953
48269W        W16487  19.186  28.490  14.474
48270W        W16488  10.389  12.238   4.507
48271W        W16489  34.068   1.531   0.917
48272W        W16490  38.498   2.414   1.415
48273W        W16491  39.992  31.818   5.204
48274W        W16492   4.406  38.560  12.953
48275W        W16493  11.142  30.739   0.617
48276W        W16494  37.387  35.812  13.765
48277W        W16495  22.831  35.050  14.010
48278W        W16496  29.806  33.957   3.151
48279W        W16497   4.951  23.144   0.995
48280W        W16498  41.397  21.100  14.166
48281W        W16499  17.236  23.826   4.505
48282W        W16500   2.921  40.284   2.107
48283W        W16501  23.184  31.890   1.299
48284W        W16502  15.471  17.081  11.053
48285W        W16503  15.545  14.122   0.287
48286W        W16504  14.205  41.277  11.142
48287W        W16505  12.640  43.502  10.323
48288W        W16506  15.770  22.241   0.357
48289W        W16507   7.408  38.128  11.534
48290W        W16508  44.971  36.470  12.980
48291W        W16509   2.177  26.525  11.945
48292W        W16510  20.621  24.888  12.789
48293W        W16511  24.692  21.631  13.051
48294W        W16512  23.733  23.746  11.568
48295W        W16513  16.584  16.805   0.335
48296W        W16514  43.314  33.298  13.983
48297W        W16515  10.397  44.881  10.635
48298W        W16516  15.474  15.609   3.690
48299W        W16517  24.165  24.214  13.446
48300W        W16518   6.014   1.303   4.888
48301W        W16519  39.541   8.408   0.489
48302W        W16520  33.244  29.488   4.197
48303W        W16521   3.326  24.712   4.272
48304W        W16522  20.189  44.984  10.747
48305W        W16523  20.993   8.307   4.624
48306W        W16524  36.414  26.164   0.381
48307W        W16525   6.241   4.413  14.331
48308W        W16526   4.425   7.578  11.148
48309W        W16527  20.087  26.116   1.710
48310W        W16528  43.744  16.087  11.987
48311W        W16529  44.896   5.362  11.900
48312W        W16530   8.222  43.985  10.560
48313W        W16531  16.725  12.361   4.293
48314W        W16532  36.582  25.138  13.882
48315W        W16533  41.002  10.434  11.395
48316W        W16534  12.795  28.612   3.367
48317W        W16535  28.996  30.122   1.859
48318W        W16536  24.596  33.678  12.542
48319W        W16537   5.773   4.381   0.972
48320W        W16538   1.996  27.702   3.783
48321W        W16539   0.060  43.739  10.996
48322W        W16540  15.881   4.300   4.335
48323W        W16541  24.204  13.613   0.346
48324W        W16542  40.572  20.804  12.990
48325W        W16543  28.250  30.120   3.251
48326W        W16544  10.293  23.061   0.251
48327W        W16545  24.843  12.167   1.223
48328W        W16546  10.796  25.192   1.323
48329W        W16547  10.201   7.729  10.635
48330W        W16548  24.240  26.952  12.778
48331W        W16549   1.996  40.036   2.691
48332W        W16550  42.421  15.665  14.340
48333W        W16551   5.573   0.796   3.569
48334W        W16552   8.375  17.635   5.364
48335W        W16553  22.087  19.130   4.240
48336W        W16554  18.300  43.220  14.430
48337W        W16555   9.054  11.840  14.100
48338W        W16556   0.456   2.953   4.699
48339W        W16557  13.411  43.494   0.316
48340W        W16558  31.094  10.790   1.453
48341W        W16559  30.908  34.110  13.022
48342W        W16560   8.263  27.966   2.903
48343W        W16561  42.319  30.826  12.926
48344W        W16562  40.292   6.987  13.762
48345W        W16563  22.274  15.762  11.516
48346W        W16564   5.300  16.911   1.723
48347W        W16565  15.039  26.113   2.572
48348W        W16566  20.358  23.776  11.994
48349W        W16567  41.911  31.532   0.819
48350W        W16568  15.362  18.759   5.017
48351W        W16569  40.313  42.106  12.722
48352W        W16570  35.585  31.713   3.305
48353W        W16571   6.446  42.644  11.647
48354W        W16572   2.645  20.130  10.921
48355W        W16573  26.482  30.244  14.097
48356W        W16574  27.420  30.736   1.886
48357W        W16575   3.532  17.245  12.712
48358W        W16576  16.220  39.284   0.961
48359W        W16577   5.281  24.527  14.210
48360W        W16578  43.891  44.539  13.061
48361W        W16579   0.317  37.134   1.876
48362W        W16580  34.103   3.204   4.222
48363W        W16581  29.386  17.105  14.616
48364W        W16582   1.299  12.255  11.901
48365W        W16583  32.626  22.377  10.015
48366W        W16584  37.339  44.126   5.115
48367W        W16585   6.749   4.643  14.500
48368W        W16586   3.176  18.913  12.737
48369W        W16587   1.420  41.812  13.043
48370W        W16588  10.401  15.117  14.235
48371W        W16589  38.287   9.763   0.379
48372W        W16590   6.786   9.824  14.720
48373W        W16591  24.225   4.341   3.179
48374W        W16592   6.938  36.194   0.091
48375W        W16593  32.993   2.313  14.965
48376W        W16594   7.421  17.593  14.898
48377W        W16595  18.019  23.284   2.855
48378W        W16596  13.138  28.473   3.707
48379W        W16597  15.970  26.651  14.498
48380W        W16598  39.998   5.829   0.050
48381W        W16599  12.592  36.550   2.363
48382W        W16600  32.024  18.204   3.865
48383W        W16601  39.711  37.018  12.919
48384W        W16602  38.198   5.676   4.975
48385W        W16603  22.599  22.486   4.184
48386W        W16604  34.271  39.264   1.735
48387W        W16605  21.172  29.248   1.901
48388W        W16606  15.516  12.817   1.701
48389W        W16607   9.650  14.574  12.859
48390W        W16608  18.505  19.122  14.543
48391W        W16609  12.814   6.789  13.538
48392W        W16610  25.941  17.418   5.094
48393W        W16611   7.114  43.261  12.511
48394W        W16612  22.701  22.752   0.897
48395W        W16613   2.635   6.734  10.432
48396W        W16614  16.661  39.242   2.191
48397W        W16615  38.940  17.723   4.724
48398W        W16616  36.315  19.303   3.393
48399W        W16617  32.614   0.944  13.126
48400W        W16618  11.448   8.730  12.071
48401W        W16619  20.786  40.852   2.289
48402W        W16620  23.633  31.445   4.203
48403W        W16621  14.023  11.436   1.850
48404W        W16622   4.793  36.888   0.935
48405W        W16623   8.319  24.789  11.085
48406W        W16624  43.391  23.095  12.040
48407W        W16625  38.354  28.922   1.909
48408W        W16626  17.695  41.321   4.200
48409W        W16627  22.741  36.919   0.273
48410W        W16628  34.114  15.356   3.813
48411W        W16629  42.756   9.303  13.369
48412W        W16630   5.421  29.109   0.029
48413W        W16631  11.268  31.549   4.349
48414W        W16632  15.052  41.912   3.003
48415W        W16633  26.855  33.290   2.636
48416W        W16634   3.453   7.676  11.502
48417W        W16635   4.989  27.566  14.422
48418W        W16636  21.278   9.543   4.353
48419W        W16637  21.335  41.457  10.354
48420W        W16638  19.496  36.373  14.685
48421W        W16639  37.912  33.158   1.834
48422W        W16640  31.886  40.076   4.083
48423W        W16641  27.991  15.077   0.677
48424W        W16642   0.309  38.372   4.221
48425W        W16643  36.491  13.579  13.062
48426W        W16644  33.472  23.338  13.597
48427W        W16645  14.145  28.590  13.026
48428W        W16646  43.436  29.474  10.748
48429W        W16647  17.537  35.945   1.865
48430W        W16648   7.340  31.566   4.053
48431W        W16649  35.562  16.189  11.910
48432W        W16650  11.763   3.896   1.737
48433W        W16651  38.231  15.626  13.827
48434W        W16652  33.614  17.256   3.187
48435W        W16653  41.976  20.951  11.357
48436W        W16654  14.174  35.558   1.040
48437W        W16655  37.062  25.628   5.017
48438W        W16656  20.624  26.465  14.054
48439W        W16657  38.889   3.212  13.733
48440W        W16658  43.484  28.894   4.848
48441W        W16659  39.900  11.167  14.547
48442W        W16660  28.387  30.902   2.861
48443W        W16661  16.549  37.614  14.312
48444W        W16662  26.356  12.727  14.441
48445W        W16663  40.439   6.697  14.726
48446W        W16664   8.320  14.927   5.401
48447W        W16665  32.726  31.310  12.412
48448W        W16666  29.241   2.993   2.404
48449W        W16667  28.603  12.101   1.319
48450W        W16668   1.779  22.659  11.007
48451W        W16669  38.337   6.638   1.990
48452W        W16670   9.398  39.918  10.027
48453W        W16671  37.640  21.039   3.588
48454W        W16672  22.262  37.207  11.946
48455W        W16673  22.256  15.203   0.002
48456W        W16674  41.871  44.809   3.300
48457W        W16675  10.719  34.648   4.499
48458W        W16676  32.595  32.366   1.337
48459W        W16677  35.600  14.315  13.515
48460W        W16678   1.270   8.380  13.279
48461W        W16679  20.300  37.120   3.120
48462W        W16680  38.325   4.495   1.390
48463W        W16681  17.721  34.834  13.103
48464W        W16682  37.244  20.025  11.069
48465W        W16683  43.930   7.826  10.720
48466W        W16684   7.059  40.209   5.440
48467W        W16685  39.101  32.617  12.402
48468W        W16686  26.686  25.570   4.603
48469W        W16687  31.207  34.816  12.523
48470W        W16688  19.633  20.231  13.397
48471W        W16689  29.425  41.870  14.406
48472W        W16690   9.263   8.203   2.156
48473W        W16691  36.422  23.164  11.568
48474W        W16692  31.126  36.985   1.337
48475W        W16693  13.401  41.958  14.873
48476W        W16694  38.853  16.801  14.439
48477W        W16695   9.294  10.604   1.852
48478W        W16696  12.681  21.067   3.233
48479W        W16697  12.245  21.586  11.384
48480W        W16698  11.305  40.458  13.382
48481W        W16699  11.304  14.818  13.788
48482W        W16700  35.845   1.160  13.559
48483W        W16701  24.155  43.903  10.665
48484W        W16702  36.429  43.171  13.858
48485W        W16703  18.619  27.900   9.998
48486W        W16704  27.084  25.605  10.235
48487W        W16705  18.511  34.472   0.276
48488W        W16706  42.745  31.265  12.543
48489W        W16707  28.605  14.322  14.990
48490W        W16708   8.605  21.701   3.196
48491W        W16709  25.691  20.306  10.682
48492W        W16710  29.142  11.268  12.855
48493W        W16711  38.153   0.467  11.667
48494W        W16712  13.584  19.606  14.528
48495W        W16713   5.201  41.339   2.164
48496W        W16714  25.202  40.219   4.762
48497W        W16715  18.033  30.660   2.252
48498W        W16716   4.403  31.219   2.275
48499W        W16717  26.716  26.208  13.362
48500W        W16718  29.651  34.560   0.960
48501W        W16719  28.452  23.925  12.113
48502W        W16720  39.483  37.480   0.260
48503W        W16721  20.623   5.976   3.189
48504W        W16722   0.097  29.550  14.727
48505W        W16723  38.474  36.980  10.615
48506W        W16724   5.990   2.949  13.567
48507W        W16725  19.108  26.391  11.233
48508W        W16726  22.021  33.326   1.341
48509W        W16727  44.741  39.033   0.833
48510W        W16728   2.046  15.733  13.382
48511W        W16729  32.651  19.358   3.968
48512W        W16730  30.210  29.039  10.773
48513W        W16731   5.815   2.332  12.982
48514W        W16732  14.902  32.218  11.661
48515W        W16733  26.728  16.389   4.157
48516W        W16734  35.964  28.479  13.073
48517W        W16735  20.037  26.212   0.841
48518W        W16736  20.319  12.722   2.295
48519W        W16737  10.213  15.614  10.633
48520W        W16738  23.090  38.377   3.294
48521W        W16739  38.528   9.107   3.211
48522W        W16740   5.740  22.705  12.130
48523W        W16741  14.798   8.156   1.964
48524W        W16742  44.368  43.493  12.365
48525W        W16743  24.955  31.872   3.303
48526W        W16744  19.159  23.734  10.660
48527W        W16745  41.283  24.185  11.142
48528W        W16746  28.499   4.422   2.776
48529W        W16747  27.321  36.127  11.459
48530W        W16748  42.265  13.888  12.586
48531W        W16749  11.043  39.280   1.323
48532W        W16750  43.365  28.461   1.688
48533W        W16751  15.122  20.286  13.977
48534W        W16752  17.481  26.449  11.044
48535W        W16753  39.255  40.536  12.979
48536W        W16754  14.800  23.627   1.228
48537W        W16755  28.592   4.268  14.488
48538W        W16756   3.913  32.044   0.862
48539W        W16757   1.885  31.559   4.542
48540W        W16758  26.998   1.293  12.676
48541W        W16759  28.004  36.331   0.752
48542W        W16760  30.329  22.487  12.282
48543W        W16761   0.281  31.599   2.445
48544W        W16762  37.070   3.815  14.293
48545W        W16763  33.608  36.075  13.087
48546W        W16764  18.228  41.975  12.959
48547W        W16765  41.047  42.095   1.520
48548W        W16766  24.431  44.384  11.159
48549W        W16767  25.976  20.980  12.078
48550W        W16768   7.066  26.464  10.556
48551W        W16769   7.364   2.367   2.699
48552W        W16770  18.423  39.014   2.747
48553W        W16771  31.672  12.267  14.368
48554W        W16772  33.468  42.241  12.927
48555W        W16773  22.648  21.643   0.835
48556W        W16774  37.066  25.038   3.289
48557W        W16775  40.924  37.300  12.430
48558W        W16776  43.287  43.309   3.283
48559W        W16777  39.806  36.456  11.169
48560W        W16778  42.457  11.833  11.834
48561W        W16779  21.622  33.654   1.440
48562W        W16780  19.600  43.863  11.423
48563W        W16781  28.018  16.523   4.559
48564W        W16782   6.735  23.167   2.769
48565W        W16783  36.792  38.330   4.582
48566W        W16784   6.280  17.906   4.542
48567W        W16785  24.467   8.151   3.732
48568W        W16786  23.092  25.557   1.723
48569W        W16787  34.392  37.609   4.492
48570W        W16788  35.465   1.306   0.534
48571W        W16789   3.585   5.764   2.683
48572W        W16790  35.742   9.333  11.680
48573W        W16791   1.804  44.920   3.383
48574W        W16792  39.093  14.917  11.874
48575W        W16793  14.288  32.627  13.366
48576W        W16794  27.958   4.708  10.118
48577W        W16795  15.017  11.103   0.956
48578W        W16796   0.901  25.929   4.491
48579W        W16797  13.341  26.495  14.804
48580W        W16798  24.225  16.182   4.808
48581W        W16799  28.790   1.876   1.876
48582W        W16800  15.090  41.232   0.105
48583W        W16801  26.913  24.203   1.885
48584W        W16802  40.453  33.088   2.272
48585W        W16803  18.298  12.832  12.996
48586W        W16804   8.126  24.438   0.267
48587W        W16805  40.522  14.288  13.363
48588W        W16806  31.679   4.255  11.310
48589W        W16807  37.522   8.660   0.752
48590W        W16808   8.097  10.494   0.554
48591W        W16809  28.142  41.449   3.229
48592W        W16810  43.321  37.629   1.849
48593W        W16811  23.462   3.764  11.422
48594W        W16812   3.840  13.237  12.654
48595W        W16813   0.973   3.563   0.157
48596W        W16814  41.703  22.476   4.364
48597W        W16815  44.439  23.658  12.524
48598W        W16816  24.254  33.944   0.083
48599W        W16817  11.151   4.423   1.738
48600W        W16818  25.681   4.301  10.771
48601W        W16819  43.466   3.276   0.848
48602W        W16820  32.949  43.737  14.057
48603W        W16821  18.705  36.109  10.584
48604W        W16822  38.050   9.229   4.000
48605W        W16823   3.900  34.908   4.925
48606W        W16824   1.522  31.034  12.650
48607W        W16825  31.573  34.167  14.271
48608W        W16826  36.265   9.145  11.128
48609W        W16827  29.118  36.968   1.451
48610W        W16828   6.808  18.840   0.008
48611W        W16829  37.067   2.396   3.116
48612W        W16830  16.008  24.102   0.367
48613W        W16831  28.941  39.200  11.392
48614W        W16832  12.601  14.758  13.301
48615W        W16833  40.959  31.031   1.361
48616W        W16834  42.008  12.675  11.613
48617W        W16835   1.266  20.228   1.286
48618W        W16836  36.542  32.160   1.630
48619W        W16837  29.839   5.428   1.377
48620W        W16838  17.861  26.039  11.081
48621W        W16839  25.273   2.181   3.636
48622W        W16840  14.750   7.377   1.285
48623W        W16841  29.822   9.759   0.118
48624W        W16842  24.957  25.831   1.819
48625W        W16843  31.496  12.510   3.390
48626W        W16844  20.615  41.365  12.406
48627W        W16845  13.806  24.455  13.999
48628W        W16846   7.727  20.348   0.963
48629W        W16847   0.428  12.210  13.778
48630W        W16848  35.956  11.746  12.546
48631W        W16849  12.521  14.819  12.799
48632W        W16850  41.880  40.384   1.287
48633W        W16851  27.685   2.653  12.456
48634W        W16852   0.394  12.887   0.162
48635W        W16853  42.639  41.571   3.415
48636W        W16854  16.360   9.372  11.637
48637W        W16855  29.204  42.493  12.017
48638W        W16856   5.356  40.353  14.900
48639W        W16857  18.136  24.920  12.233
48640W        W16858  22.952   5.120   3.974
48641W        W16859   0.831   3.127  10.394
48642W        W16860  21.870  27.328   1.319
48643W        W16861  20.509  11.669  10.499
48644W        W16862  42.842  37.822  12.088
48645W        W16863  29.557  34.452  10.753
48646W        W16864  12.074  31.928   3.848
48647W        W16865  19.624   7.682  14.973
48648W        W16866  41.841  39.276   1.294
48649W        W16867  17.047  39.021   0.894
48650W        W16868  15.023  30.057   0.701
48651W        W16869  32.549  34.925  14.056
48652W        W16870  36.600  16.812  10.319
48653W        W16871  25.955   8.591   2.691
48654W        W16872  20.849  10.309  10.586
48655W        W16873   5.742  35.950   3.302
48656W        W16874  15.776  11.252   0.386
48657W        W16875  31.865  20.217   4.296
48658W        W16876  37.080  10.105  13.091
48659W        W16877  37.234  40.994   3.948
48660W        W16878   9.988  16.591  14.706
48661W        W16879   2.029  18.257   2.053
48662W        W16880  21.804  23.595  13.546
48663W        W16881  42.721   2.836  12.684
48664W        W16882   1.871  26.528  10.206
48665W        W16883  42.720  26.257   0.082
48666W        W16884  43.232  25.054   2.724
48667W        W16885  34.254  24.965   3.452
48668W        W16886  17.761  17.702   2.104
48669W        W16887  10.142  34.369   1.332
48670W        W16888   4.939   0.781   1.199
48671W        W16889  13.799  27.996   3.612
48672W        W16890   0.967  18.576  13.899
48673W        W16891  35.004  28.414   1.349
48674W        W16892   8.177   9.439  12.469
48675W        W16893  41.567  29.046  13.261
48676W        W16894  36.344  43.478   0.912
48677W        W16895  44.326  43.543   2.351
48678W        W16896   6.936  21.889  10.653
48679W        W16897  18.024  20.034   3.778
48680W        W16898  11.766  36.567   2.641
48681W        W16899   7.244   6.170  13.860
48682W        W16900  17.546  39.464  11.121
48683W        W16901   9.189  15.371   3.880
48684W        W16902  18.775  22.113   0.840
48685W        W16903  42.773  29.066  11.421
48686W        W16904  32.925   5.553   3.872
48687W        W16905  16.878  42.225  13.757
48688W        W16906   7.244  37.045  10.596
48689W        W16907  23.543   2.314  11.660
48690W        W16908   5.016  18.407   1.815
48691W        W16909  34.546  40.428   4.411
48692W        W16910  23.070  25.071   2.929
48693W        W16911  36.433  35.420  10.700
48694W        W16912  31.066  15.222   4.884
48695W        W16913  25.570  32.861   4.632
48696W        W16914  33.582  16.790  10.888
48697W        W16915   3.701  29.488  12.219
48698W        W16916   9.215  19.758   2.627
48699W        W16917   6.797   3.282  13.341
48700W        W16918  32.443  30.510   4.211
48701W        W16919  16.238  29.971  10.754
48702W        W16920   5.998   9.189  14.080
48703W        W16921  42.834  44.755   4.254
48704W        W16922  36.556   0.808   5.497
48705W        W16923  26.953   2.664  10.715
48706W        W16924  15.106  13.976   4.164
48707W        W16925  11.340  34.603  14.907
48708W        W16926  37.482   5.331   1.321
48709W        W16927  26.791   1.169   1.550
48710W        W16928  32.750  25.999   2.418
48711W        W16929   1.000   0.934  11.537
48712W        W16930  26.652  35.576  14.532
48713W        W16931  14.772  42.368   1.400
48714W        W16932  36.899  35.119  13.434
48715W        W16933  16.760   6.909   3.928
48716W        W16934  32.097  19.184   1.290
48717W        W16935  43.791  19.832  13.006
48718W        W16936  35.513  29.141   4.603
48719W        W16937   1.868  33.718   3.269
48720W        W16938  42.374  33.449   1.279
48721W        W16939  42.548  22.603   2.226
48722W        W16940  14.114  35.709  11.113
48723W        W16941  24.047   6.468   3.232
48724W        W16942  36.109  20.598  14.956
48725W        W16943  44.080  26.457   3.264
48726W        W16944  24.725  12.122  11.838
48727W        W16945  40.915  27.164  12.419
48728W        W16946  11.930  40.013   4.556
48729W        W16947   9.702   6.326  13.135
48730W        W16948   9.354  27.154  13.935
48731W        W16949  42.940  32.242   0.387
48732W        W16950  44.559  10.507  12.393
48733W        W16951   2.845   7.555   1.732
48734W        W16952  41.703  12.431  11.965
48735W        W16953  19.016   0.259   3.413
48736W        W16954  36.032  28.091   4.596
48737W        W16955   5.796  15.279   2.020
48738W        W16956   9.145  19.937  11.912
48739W        W16957   5.848  32.942   2.632
48740W        W16958  44.826  39.139  12.978
48741W        W16959  12.988  36.264  11.175
48742W        W16960  29.547  27.893   3.829
48743W        W16961  42.007  35.674   4.564
48744W        W16962   8.853   8.494  13.506
48745W        W16963   5.060  21.019  10.443
48746W        W16964  28.118  27.536   9.929
48747W        W16965   2.208   1.863  10.798
48748W        W16966   0.887  10.010  10.747
48749W        W16967   2.412  28.904   2.685
48750W        W16968   7.132  24.351  13.566
48751W        W16969   9.724   9.667   2.773
48752W        W16970  31.418  41.307  13.291
48753W        W16971  30.745  18.444  12.346
48754W        W16972   3.488  44.830  13.276
48755W        W16973   1.539  38.458   3.572
48756W        W16974  34.955  17.562  12.798
48757W        W16975  25.464   8.939   1.231
48758W        W16976  36.375  33.552   3.783
48759W        W16977  20.100  27.139   3.072
48760W        W16978  18.115   8.952   4.089
48761W        W16979   5.339  44.287   0.387
48762W        W16980  18.749  21.965  11.496
48763W        W16981   0.640  26.669  14.460
48764W        W16982  23.709  24.014   0.281
48765W        W16983   4.893  29.240  14.168
48766W        W16984   4.421  38.390  10.167
48767W        W16985   4.949   7.019  14.856
48768W        W16986  29.813  12.932   1.223
48769W        W16987  18.275  17.236  14.910
48770W        W16988  36.934  36.279   3.869
48771W        W16989   7.907  43.276   0.480
48772W        W16990  20.657  24.990  13.287
48773W        W16991  23.558  18.602   3.863
48774W        W16992   8.830  21.720  12.681
48775W        W16993   2.349  14.736  12.823
48776W        W16994  27.226   9.697  13.252
48777W        W16995  21.219  20.535  11.036
48778W        W16996  39.523  17.170   2.299
48779W        W16997  27.198  43.103   1.286
48780W        W16998  18.529  12.492  10.179
48781W        W16999  16.261  12.133  14.335
48782W        W17000  19.533  39.587   1.218
48783W        W17001   2.237  32.825   2.806
48784W        W17002   3.932  42.298   3.732
48785W        W17003  32.637  28.558   2.146
48786W        W17004   9.139   8.822  10.754
48787W        W17005  16.729  24.618   2.846
48788W        W17006  18.546  11.656  12.500
48789W        W17007   7.697  12.395   1.808
48790W        W17008  13.991  24.040   1.342
48791W        W17009   0.397  32.237   3.844
48792W        W17010   0.214  41.405  13.051
48793W        W17011  28.861  42.274   0.450
48794W        W17012  44.510   4.530  14.517
48795W        W17013  28.575   6.294  14.536
48796W        W17014  38.413   5.452  12.425
48797W        W17015  19.569  32.313  10.669
48798W        W17016  19.157  12.386   1.337
48799W        W17017   3.685   4.758   4.931
48800W        W17018  38.916  11.193  11.203
48801W        W17019   3.398  40.221  11.627
48802W        W17020  39.525  40.984  14.321
48803W        W17021   7.310   0.230   1.868
48804W        W17022  40.061  26.745  14.873
48805W        W17023   1.018  16.171   5.130
48806W        W17024   9.423  37.379  10.757
48807W        W17025   2.363  26.185  12.895
48808W        W17026  21.844   3.672   4.198
48809W        W17027  36.406   0.819  10.355
48810W        W17028  29.003  44.961   4.522
48811W        W17029  35.856  16.955  11.543
48812W        W17030  32.184   1.853   1.417
48813W        W17031  32.528   8.564   1.886
48814W        W17032  43.274  24.638   1.264
48815W        W17033   3.990  37.503  14.066
48816W        W17034  17.773  42.219  13.927
48817W        W17035  42.791  27.483  10.007
48818W        W17036  36.415   1.156   3.266
48819W        W17037  16.145  18.987   1.294
48820W        W17038   6.387   1.394   0.411
48821W        W17039  29.266  25.059  10.656
48822W        W17040  22.173   6.873   4.588
48823W        W17041  28.431  24.422  12.023
48824W        W17042  34.839  12.962  12.633
48825W        W17043  40.435  44.381  12.498
48826W        W17044  35.023  23.229   1.009
48827W        W17045  31.615   9.447   3.144
48828W        W17046   7.014   5.788  12.938
48829W        W17047  14.265   9.858   1.635
48830W        W17048  30.092  32.358   3.199
48831W        W17049  17.175  36.851  13.401
48832W        W17050   8.136  31.812   1.638
48833W        W17051  29.413  25.011  11.166
48834W        W17052  14.812  22.107   2.233
48835W        W17053   6.916  20.504  13.812
48836W        W17054  25.273   5.411  14.794
48837W        W17055  13.031  21.614   4.140
48838W        W17056  15.357   3.175   1.894
48839W        W17057  37.022   4.498  10.620
48840W        W17058  23.671  10.666  10.754
48841W        W17059  26.817  34.771  10.570
48842W        W17060  36.241   8.066  14.895
48843W        W17061  35.830  14.808  12.640
48844W        W17062  18.608  22.045  13.414
48845W        W17063  36.134  33.984  14.362
48846W        W17064  25.707  29.962  12.498
48847W        W17065   4.489   9.140  11.480
48848W        W17066   5.303  17.608  13.412
48849W        W17067  22.904  31.099  11.915
48850W        W17068  30.364  16.121   1.877
48851W        W17069  19.288  28.887   1.880
48852W        W17070  13.302   0.678  14.919
48853W        W17071  39.273  38.513  11.177
48854W        W17072   5.353   5.015  10.826
48855W        W17073  22.444  29.041  12.127
48856W        W17074  19.373  29.889  12.923
48857W        W17075  13.417  40.215   5.184
48858W        W17076  11.755  15.379   3.041
48859W        W17077   8.564  37.319  10.684
48860W        W17078   7.662  32.483   1.499
48861W        W17079   1.009  37.394  14.274
48862W        W17080  18.763  17.280   0.032
48863W        W17081  34.389   4.041   4.268
48864W        W17082  13.068  33.212  12.431
48865W        W17083  30.980  28.363   3.651
48866W        W17084   2.263   2.893   3.636
48867W        W17085  35.834  26.965   1.199
48868W        W17086  15.094  10.165   0.793
48869W        W17087  31.479  35.109  12.179
48870W        W17088  24.012  30.024   4.133
48871W        W17089  25.374  23.720  11.136
48872W        W17090   7.259  25.136   0.872
48873W        W17091   9.322  30.160  14.859
48874W        W17092  12.750  10.863  13.004
48875W        W17093  37.865  44.387   0.819
48876W        W17094   6.265   4.128  13.863
48877W        W17095  20.243   6.802  13.673
48878W        W17096  20.887   8.074   1.416
48879W        W17097  24.747  34.982  10.784
48880W        W17098  10.252  31.197   0.293
48881W        W17099  26.797   2.849  14.416
48882W        W17100  26.810  16.869   1.358
48883W        W17101  36.849   1.126  10.375
48884W        W17102   6.372  28.573   0.254
48885W        W17103  26.283  37.888   4.543
48886W        W17104  19.635  17.131   2.129
48887W        W17105  36.753  44.690  12.562
48888W        W17106  23.095  39.936  10.588
48889W        W17107  26.804  22.620  12.033
48890W        W17108   0.264  23.966   3.821
48891W        W17109  24.134  42.074  14.770
48892W        W17110   2.810  29.569  11.263
48893W        W17111  24.190  41.319   2.013
48894W        W17112   0.282   0.471  10.384
48895W        W17113  24.827  20.064  11.280
48896W        W17114  19.527  29.428   0.804
48897W        W17115  14.895  15.324  14.182
48898W        W17116  12.052  26.982   0.703
48899W        W17117  39.426  39.388   3.156
48900W        W17118  31.594  23.922   4.771
48901W        W17119  23.918   9.910   4.092
48902W        W17120  40.080   7.593  11.595
48903W        W17121  14.348   0.918   5.039
48904W        W17122  42.830  44.363  12.488
48905W        W17123  12.778   7.123  13.922
48906W        W17124  34.633  43.921   2.307
48907W        W17125  15.189  19.530   4.652
48908W        W17126  27.383  43.303  12.687
48909W        W17127  13.531  26.884  10.791
48910W        W17128  21.081   8.812   3.253
48911W        W17129  27.674  34.229   0.852
48912W        W17130  17.192  25.150  13.812
48913W        W17131  21.649   4.689  14.948
48914W        W17132  27.578  42.431  11.833
48915W        W17133  43.475  18.762  10.716
48916W        W17134  37.545   8.202   4.737
48917W        W17135  35.470  34.892   2.667
48918W        W17136  32.592  14.428   4.925
48919W        W17137   9.247  32.658   3.229
48920W        W17138  31.467  15.278   2.615
48921W        W17139  18.680  19.164  11.061
48922W        W17140  27.646  38.540   4.859
48923W        W17141  22.470   7.822  12.951
48924W        W17142  20.074  39.767  10.613
48925W        W17143  30.654  44.485   4.432
48926W        W17144  16.728  34.652  14.781
48927W        W17145  31.592  23.543   1.657
48928W        W17146   7.154  10.974  12.016
48929W        W17147  33.267  38.885  10.678
48930W        W17148   5.853  24.127   3.605
48931W        W17149  42.221  36.904   0.224
48932W        W17150  38.894  30.838  14.722
48933W        W17151  21.034  34.403   4.891
48934W        W17152  20.509  25.073  12.054
48935W        W17153   6.404   0.394  13.994
48936W        W17154  34.091  13.597   4.194
48937W        W17155  28.337   7.110  12.127
48938W        W17156  37.908   4.326   2.663
48939W        W17157   5.652  43.448  14.758
48940W        W17158  21.306  42.591   1.281
48941W        W17159  25.148  19.145  13.773
48942W        W17160  19.930  40.460  11.184
48943W        W17161  32.860  27.682   0.948
48944W        W17162   9.578  28.625   3.171
48945W        W17163  17.668  36.810   0.766
48946W        W17164  32.864  11.743  14.522
48947W        W17165  19.331  35.815  11.599
48948W        W17166  39.070  12.182   2.831
48949W        W17167  28.108  34.178  13.921
48950W        W17168   9.164   4.261   3.990
48951W        W17169  27.875  44.459  14.903
48952W        W17170  27.200   9.435  11.241
48953W        W17171  36.794  28.908  11.128
48954W        W17172  35.304   7.422  11.150
48955W        W17173   8.904  33.907   2.720
48956W        W17174  31.410   2.893   1.570
48957W        W17175   9.467   6.846  11.211
48958W        W17176   3.693  28.701  13.338
48959W        W17177  11.336  26.485   1.212
48960W        W17178   2.995  36.344   0.238
48961W        W17179  37.388  44.987   4.650
48962W        W17180  28.415  44.361   2.101
48963W        W17181  31.003   8.212  14.531
48964W        W17182  28.381  44.634   1.665
48965W        W17183   0.336  43.750   4.210
48966W        W17184  42.903  19.010  12.652
48967W        W17185  31.367  10.787  10.748
48968W        W17186  22.576  21.772  13.888
48969W        W17187  30.421  35.530  12.828
48970W        W17188   7.527   9.832   4.530
48971W        W17189  22.917  37.637  12.510
48972W        W17190  28.456   0.861  11.135
48973W        W17191  31.571  33.906   0.181
48974W        W17192  26.959  11.857  14.882
48975W        W17193  34.127  18.198   2.835
48976W        W17194  32.990  23.448  11.093
48977W        W17195  35.243  43.902  10.679
48978W        W17196  12.806  17.706  11.393
48979W        W17197  30.463   9.890  12.863
48980W        W17198  36.378   5.473   2.859
48981W        W17199  23.521  44.756  12.645
48982W        W17200   4.288  43.999   5.475
48983W        W17201  10.016   0.776   3.850
48984W        W17202  36.077   0.984  14.026
48985W        W17203  17.984  38.467   4.558
48986W        W17204  39.619  10.174  13.769
48987W        W17205  29.730  44.714   0.385
48988W        W17206   7.850  27.209   0.470
48989W        W17207  41.010  10.780  10.649
48990W        W17208   9.801  38.367   2.883
48991W        W17209  40.505  22.538  12.805
48992W        W17210  13.830  24.744   0.719
48993W        W17211   0.306  25.502  11.818
48994W        W17212  40.733  36.553   0.405
48995W        W17213  34.879   9.777  12.880
48996W        W17214  41.701  27.100   3.302
48997W        W17215  39.898  20.290   1.300
48998W        W17216  31.610  21.582  13.884
48999W        W17217  43.337   8.764   4.610
49000W        W17218  15.377  41.436   2.300
49001W        W17219  44.731   2.552  13.747
49002W        W17220   4.441  14.858   1.894
49003W        W17221  12.398  32.909   0.395
49004W        W17222  42.459  40.351  10.627
49005W        W17223  34.129  41.983  12.241
49006W        W17224  27.190  26.194  11.454
49007W        W17225  23.370   6.270   1.699
49008W        W17226   9.446  30.122   3.090
49009W        W17227  43.602  34.873   2.375
49010W        W17228  42.659  19.408   2.810
49011W        W17229  22.542  38.378   2.698
49012W        W17230  19.291  33.194  13.987
49013W        W17231  28.706  27.978  13.879
49014W        W17232   4.712  13.867   3.932
49015W        W17233  26.505  12.584  10.125
49016W        W17234   5.939  37.909   1.701
49017W        W17235  11.627  34.472  12.627
49018W        W17236  17.205   5.645  10.215
49019W        W17237   9.276  11.276   3.210
49020W        W17238   9.598  21.151   0.346
49021W        W17239  26.424  18.433   3.828
49022W        W17240  31.595  38.864   0.852
49023W        W17241   6.684  17.872   3.198
49024W        W17242  38.635  33.359   3.374
49025W        W17243  32.260  15.697   4.096
49026W        W17244  34.290  31.430   0.883
49027W        W17245  44.626  18.222  10.374
49028W        W17246  35.576   4.713  14.777
49029W        W17247   4.688  22.788  12.620
49030W        W17248   7.821   9.914   3.669
49031W        W17249  13.234   7.656   0.835
49032W        W17250  34.648   9.124   1.623
49033W        W17251  32.099  17.722  11.606
49034W        W17252   5.453   2.425  14.904
49035W        W17253  33.843   9.297  13.407
49036W        W17254   9.100  21.027   4.818
49037W        W17255  15.224  27.930  10.533
49038W        W17256  15.049   4.466   3.405
49039W        W17257   2.296   3.018   1.886
49040W        W17258  31.179  17.735  14.052
49041W        W17259  12.970   6.591  10.709
49042W        W17260  15.892   7.980  10.179
49043W        W17261  11.578  40.572  12.078
49044W        W17262  36.551  13.008   3.585
49045W        W17263  26.997  40.315  11.798
49046W        W17264   4.458  23.481  10.635
49047W        W17265  23.769  25.186  13.998
49048W        W17266  12.158   9.644  10.362
49049W        W17267  20.324  32.115  10.602
49050W        W17268  32.013  30.541  14.098
49051W        W17269  31.689  23.040   2.256
49052W        W17270  32.108  34.510   0.666
49053W        W17271  24.578   5.350   1.619
49054W        W17272  15.762  35.054  14.788
49055W        W17273  11.161  17.114  11.324
49056W        W17274  29.045   6.305  13.810
49057W        W17275   4.065  16.479   1.355
49058W        W17276  24.624  18.753   0.475
49059W        W17277  13.220  12.599   4.898
49060W        W17278  44.354  40.744  13.421
49061W        W17279  26.526   2.331   0.524
49062W        W17280   7.370   9.092  10.603
49063W        W17281   9.189  18.673  11.065
49064W        W17282  24.256   8.589  12.542
49065W        W17283  35.507  43.633   1.035
49066W        W17284  20.186  14.537  10.997
49067W        W17285  33.182  11.056  11.090
49068W        W17286  31.144   4.384  11.144
49069W        W17287   9.318  42.367   1.488
49070W        W17288   3.880  34.809   2.681
49071W        W17289   9.796  41.475   0.322
49072W        W17290  40.987  26.069  14.605
49073W        W17291  41.995   5.884   0.439
49074W        W17292  33.609  29.316   5.012
49075W        W17293  32.683  38.576  13.464
49076W        W17294  12.741   7.085   2.837
49077W        W17295  13.363  18.104  14.903
49078W        W17296  35.699  32.587  12.674
49079W        W17297  29.376   8.190  12.148
49080W        W17298  35.097  34.497  14.895
49081W        W17299   1.476   9.591   0.677
49082W        W17300  33.579   9.039   2.546
49083W        W17301  44.600  24.271   2.268
49084W        W17302   0.030   3.262  10.465
49085W        W17303  44.351  30.626  12.689
49086W        W17304  41.954  12.237  12.937
49087W        W17305   0.198  16.581  13.318
49088W        W17306  43.067  22.698   2.269
49089W        W17307  35.588  32.849  13.480
49090W        W17308  41.290  18.965  14.772
49091W        W17309  41.855  14.586  12.160
49092W        W17310  17.341   6.854   1.265
49093W        W17311  30.221  34.111  14.429
49094W        W17312  20.946  22.909  11.079
49095W        W17313  36.037  12.164   0.872
49096W        W17314  24.082  43.341   0.406
49097W        W17315   2.706  29.483   0.783
49098W        W17316  42.039  30.665  12.494
49099W        W17317  43.679  44.990  10.942
49100W        W17318  33.932  34.884  11.020
49101W        W17319  10.616   4.525  11.786
49102W        W17320  20.284  11.302  13.613
49103W        W17321  36.597  42.201   1.731
49104W        W17322  15.170  33.134   4.528
49105W        W17323  11.415  31.675  12.413
49106W        W17324   4.473  27.489  12.345
49107W        W17325   2.500  34.682   0.269
49108W        W17326  41.151  30.842  13.369
49109W        W17327   4.391   5.938  12.317
49110W        W17328  42.534  21.066  10.302
49111W        W17329  34.066   7.615   3.644
49112W        W17330   6.973   0.758  11.110
49113W        W17331  40.459  41.422  13.359
49114W        W17332   1.570   5.695   4.243
49115W        W17333  35.316  13.391   3.653
49116W        W17334  20.321  26.154  13.279
49117W        W17335  30.624  31.962  13.269
49118W        W17336  25.508  19.476  10.227
49119W        W17337   3.552  18.365  11.983
49120W        W17338  38.854  28.705  12.070
49121W        W17339  29.114  23.120   4.924
49122W        W17340   2.364  31.162  13.560
49123W        W17341  12.218  26.795  11.176
49124W        W17342  31.642  29.101  11.641
49125W        W17343  29.507  16.645  13.921
49126W        W17344   6.408   2.630  14.836
49127W        W17345  31.046   7.385  12.539
49128W        W17346  43.029  42.356   1.521
49129W        W17347  37.461  29.144   4.138
49130W        W17348  13.165   5.082  11.529
49131W        W17349  34.579  12.603   2.208
49132W        W17350   2.292  27.518   3.319
49133W        W17351  26.552  30.101   1.727
49134W        W17352  42.013  40.146  14.412
49135W        W17353  31.607  26.080   0.729
49136W        W17354  13.785  30.892  13.552
49137W        W17355  18.500   4.826  14.422
49138W        W17356   8.825  44.327   4.649
49139W        W17357  12.304  18.172   4.058
49140W        W17358  41.734  10.072   3.633
49141W        W17359  31.831  17.757   2.282
49142W        W17360  16.878  29.748   3.322
49143W        W17361   6.883  38.951   0.344
49144W        W17362  21.955  15.585   3.174
49145W        W17363  10.591  19.953  14.369
49146W        W17364  26.457  37.749  14.527
49147W        W17365  16.477  17.475  14.782
49148W        W17366   1.969  35.721   1.383
49149W        W17367  41.476  12.514  11.529
49150W        W17368  10.554  21.706  13.034
49151W        W17369   1.785  12.974   3.842
49152W        W17370  17.800  35.883   4.241
49153W        W17371  23.406   6.847  13.180
49154W        W17372   8.105  31.842   3.363
49155W        W17373  27.117  27.739   1.232
49156W        W17374   9.949  24.948  12.509
49157W        W17375  24.972   5.410  13.449
49158W        W17376   3.630  22.321  11.056
49159W        W17377  12.794  14.671   2.391
49160W        W17378  30.038  23.221  14.411
49161W        W17379  21.154  35.544  11.149
49162W        W17380  31.173   0.734  11.967
49163W        W17381  25.145   7.489   2.181
49164W        W17382  24.747  21.504   2.315
49165W        W17383  33.618  26.678   1.696
49166W        W17384  38.834  34.587  14.688
49167W        W17385  39.779  30.693  11.926
49168W        W17386  32.387   5.106  12.353
49169W        W17387  10.175   7.834   4.605
49170W        W17388  38.086  42.622   2.604
49171W        W17389   1.487  30.523  14.789
49172W        W17390  42.485  25.430   0.500
49173W        W17391  15.014  17.571  13.487
49174W        W17392  31.197  20.891   0.778
49175W        W17393  12.318  20.677  11.495
49176W        W17394  10.770  32.976   3.188
49177W        W17395  24.966  14.271  12.163
49178W        W17396   7.291   7.918  13.442
49179W        W17397   8.915  11.771   0.089
49180W        W17398  30.272  18.249   1.458
49181W        W17399   8.878   6.469   2.750
49182W        W17400  26.843  30.923   2.657
49183W        W17401   7.270  10.602   3.149
49184W        W17402   8.785  29.560  11.161
49185W        W17403  34.477   8.519  11.279
49186W        W17404  22.735  38.675  14.462
49187W        W17405  34.197   4.426  10.038
49188W        W17406  23.677  39.575   2.707
49189W        W17407  34.072  43.823  11.158
49190W        W17408  12.008  41.565   1.823
49191W        W17409  14.330   9.991   3.520
49192W        W17410  16.169  44.545   0.918
49193W        W17411  20.134  42.094  11.037
49194W        W17412  10.271   4.930  12.048
49195W        W17413  42.671   9.766  13.577
49196W        W17414  43.754  34.131  11.341
49197W        W17415  31.263  18.440   2.340
49198W        W17416  22.644  16.537  12.052
49199W        W17417  18.892  18.130  14.890
49200W        W17418  28.158  22.049  14.947
49201W        W17419   4.839  20.767  14.579
49202W        W17420  12.294  17.089  14.495
49203W        W17421  42.607  11.344  14.389
49204W        W17422  31.513  29.905  14.407
49205W        W17423  40.331  18.181  11.671
49206W        W17424  19.645  20.697   4.875
49207W        W17425  17.022  15.885   3.745
49208W        W17426   4.328  21.010   4.443
49209W        W17427  37.478  38.275  10.678
49210W        W17428  27.624  38.957   2.249
49211W        W17429  19.651  37.715  10.562
49212W        W17430  15.517  14.762  13.035
49213W        W17431   0.337  15.688  13.876
49214W        W17432  32.104  26.450  14.295
49215W        W17433  13.057  36.962  10.701
49216W        W17434   9.332  32.021  10.755
49217W        W17435   6.357   5.035  11.496
49218W        W17436  27.658  23.108  13.509
49219W        W17437  17.133   9.903   0.270
49220W        W17438  32.078  44.119   1.829
49221W        W17439   1.364  12.512   0.732
49222W        W17440  14.753  19.742   4.456
49223W        W17441   8.162   9.617   3.233
49224W        W17442   2.937  33.782   2.320
49225W        W17443  17.030  42.556   2.285
49226W        W17444  36.648  22.787   5.014
49227W        W17445  28.814  41.319  12.494
49228W        W17446  11.179   2.266   0.924
49229W        W17447  16.052  35.306   2.009
49230W        W17448  29.734   9.711   3.676
49231W        W17449  24.289   2.885  12.770
49232W        W17450  34.819  10.709  11.972
49233W        W17451  13.756  43.925   2.219
49234W        W17452  26.037  35.438  13.852
49235W        W17453  39.424   8.285  10.689
49236W        W17454  39.333  34.799  11.738
49237W        W17455  15.820  37.198   4.280
49238W        W17456   7.634  19.175   0.951
49239W        W17457   7.406  24.645  12.461
49240W        W17458   7.817  25.028   2.154
49241W        W17459  40.121  39.912   3.302
49242W        W17460  26.560   8.240   1.674
49243W        W17461  41.766  26.898  12.428
49244W        W17462  37.440  14.761  11.384
49245W        W17463   6.484  39.623  11.681
49246W        W17464  23.160  35.395  12.859
49247W        W17465  40.357  27.373   2.871
49248W        W17466  24.749   4.381  14.279
49249W        W17467  38.607  14.394   9.985
49250W        W17468   3.035  37.975  11.696
49251W        W17469  33.096  24.852  10.664
49252W        W17470  43.960   3.572  12.055
49253W        W17471  27.398  24.152   3.734
49254W        W17472  23.647  25.912  12.580
49255W        W17473   5.939  40.844   3.121
49256W        W17474   5.792  24.399  13.341
49257W        W17475  31.945  32.599   0.262
49258W        W17476   5.716  30.037   1.154
49259W        W17477  27.706  23.787  12.636
49260W        W17478  38.973  11.576  14.305
49261W        W17479   5.267  43.009   1.166
49262W        W17480   0.808  13.912  14.794
49263W        W17481  33.119  31.172   1.845
49264W        W17482  16.990  26.263   5.039
49265W        W17483  11.234  10.137   3.057
49266W        W17484  27.476  11.416  14.448
49267W        W17485  36.993  32.647   1.692
49268W        W17486  40.841  41.002  14.767
49269W        W17487  41.621   4.190   0.056
49270W        W17488  31.908  11.047   2.341
49271W        W17489  24.116  31.021   2.195
49272W        W17490  39.624   5.177  14.464
49273W        W17491   1.343  32.522   1.330
49274W        W17492  18.921   0.880   1.236
49275W        W17493  41.547  20.704   1.659
49276W        W17494   4.719  41.662  11.139
49277W        W17495  35.114  15.694  13.742
49278W        W17496   8.859  24.747  14.716
49279W        W17497   1.701  40.953  10.571
49280W        W17498  34.033   8.744   0.062
49281W        W17499  21.726  23.579   2.725
49282W        W17500  19.803  31.094   3.293
49283W        W17501  37.598  40.302  10.784
49284W        W17502  19.150   9.886  12.610
49285W        W17503  32.587  32.995   3.323
49286W        W17504   9.876  39.396   1.838
49287W        W17505  32.331   5.449  11.944
49288W        W17506  23.282   1.184   3.625
49289W        W17507  30.329  20.730  14.864
49290W        W17508  35.953  30.728   3.386
49291W        W17509  13.694  23.503   2.438
49292W        W17510  37.534   2.033   1.434
49293W        W17511  32.495   7.632   4.198
49294W        W17512  32.442  36.942   0.362
49295W        W17513  12.675  32.127  11.680
49296W        W17514  29.900  22.105  13.978
49297W        W17515  41.837  23.435   2.171
49298W        W17516  31.487  23.706   2.710
49299W        W17517  13.066  26.702   2.644
49300W        W17518   5.238  44.498   3.616
49301W        W17519   4.527  31.004  11.177
49302W        W17520  41.822  23.543   3.076
49303W        W17521  32.630   5.840  14.793
49304W        W17522   3.985  41.525   1.324
49305W        W17523   2.995   9.953  13.294
49306W        W17524  41.559  42.535  13.440
49307W        W17525  43.859  17.533  13.772
49308W        W17526  25.963  40.900   5.028
49309W        W17527   2.494   2.693   2.304
49310W        W17528  43.398   8.686  13.075
49311W        W17529   2.954  18.607  14.214
49312W        W17530  14.813  36.475   1.478
49313W        W17531  43.246  41.276   0.834
49314W        W17532  19.466  42.268   0.625
49315W        W17533  17.511  38.785   1.783
49316W        W17534  20.282  18.632   0.550
49317W        W17535   3.398  21.405   1.720
49318W        W17536  44.959  29.729  13.858
49319W        W17537  12.155   2.735  10.638
49320W        W17538   6.753  24.216   3.220
49321W        W17539  39.605   2.693  13.968
49322W        W17540   8.166   3.349  13.230
49323W        W17541  39.904  12.019   1.244
49324W        W17542  30.753  41.019  12.522
49325W        W17543  33.127  17.876  14.215
49326W        W17544  32.628  34.181   1.739
49327W        W17545   5.017  34.015  13.848
49328W        W17546   6.222  18.602  14.395
49329W        W17547  22.680  26.434   0.240
49330W        W17548   5.413   4.366  12.584
49331W        W17549  38.253  24.724  11.582
49332W        W17550  24.421  26.442   4.160
49333W        W17551  27.035  26.937   0.851
49334W        W17552  23.453  15.548  12.857
49335W        W17553  37.340  43.546  11.166
49336W        W17554  29.921  39.482   2.357
49337W        W17555   4.789  23.002  14.949
49338W        W17556  12.118   1.108   4.003
49339W        W17557  31.145  39.392  11.130
49340W        W17558  35.535  38.421   4.284
49341W        W17559  37.169  40.873   4.466
49342W        W17560  25.593  33.517  13.888
49343W        W17561  29.522  31.674  11.514
49344W        W17562  10.165   5.486  14.407
49345W        W17563  21.035  35.664  14.222
49346W        W17564  44.240   9.094  14.364
49347W        W17565  35.934  42.911  10.459
49348W        W17566  10.707  10.125   0.381
49349W        W17567  10.048   1.472  14.760
49350W        W17568   4.900  25.927  12.966
49351W        W17569  37.044  24.512   3.306
49352W        W17570  10.380   9.647   4.324
49353W        W17571  35.639  30.510   3.004
49354W        W17572  28.614   2.671   3.231
49355W        W17573  22.012  11.209   0.734
49356W        W17574  13.854  28.554  10.674
49357W        W17575   5.744   1.832  12.139
49358W        W17576  19.034  11.833  13.629
49359W        W17577  20.749  24.620   4.617
49360W        W17578   6.636  36.527   2.269
49361W        W17579  42.530   5.477  12.882
49362W        W17580  32.560  18.062   2.602
49363W        W17581  33.837  43.797   2.697
49364W        W17582  27.966  12.025   0.078
49365W        W17583  10.921   0.461  11.749
49366W        W17584  38.918  23.031  14.617
49367W        W17585  10.384  33.774   0.538
49368W        W17586  27.563  11.144   1.287
49369W        W17587  15.177  43.488   4.600
49370W        W17588  33.052  36.553  12.934
49371W        W17589  29.757  36.641  11.832
49372W        W17590   1.327  27.354   3.682
49373W        W17591  33.393  20.714  12.619
49374W        W17592  14.649  31.765  14.317
49375W        W17593  44.429  31.298  13.377
49376W        W17594  21.256  32.860  12.011
49377W        W17595  15.683  27.985   1.353
49378W        W17596  19.081   5.030  14.588
49379W        W17597  23.648   1.462   2.234
49380W        W17598  30.602  11.176  14.265
49381W        W17599  19.264  36.345   4.491
49382W        W17600  12.520  39.859  14.153
49383W        W17601  35.965  41.006  11.659
49384W        W17602  26.433   6.437   3.453
49385W        W17603  36.876  21.296  14.817
49386W        W17604  26.383   7.048  10.183
49387W        W17605  32.490  16.913   3.683
49388W        W17606  11.658  17.569  12.523
49389W        W17607   9.879  19.349   4.171
49390W        W17608  23.993  37.314  13.964
49391W        W17609   7.938  22.219   0.523
49392W        W17610  19.780   9.241   3.682
49393W        W17611  18.995  20.778   3.160
49394W        W17612  43.021  25.141   3.328
49395W        W17613  43.476  43.246   3.755
49396W        W17614  39.339   9.222  13.028
49397W        W17615  27.682  28.157  12.816
49398W        W17616  33.847  42.094   0.552
49399W        W17617  33.942  35.112   0.985
49400W        W17618  41.344   0.461   4.592
49401W        W17619   0.157  17.607   1.350
49402W        W17620   5.609  20.738   3.920
49403W        W17621  36.443  11.683   0.327
49404W        W17622   1.550   1.355   1.674
49405W        W17623   1.856  13.882  13.810
49406W        W17624   5.359  13.873   3.225
49407W        W17625  19.722  12.178  13.898
49408W        W17626  35.949  32.135   2.832
49409W        W17627   0.173  41.330   4.093
49410W        W17628  15.680  18.773   2.328
49411W        W17629  15.120   4.940   3.197
49412W        W17630  30.074   4.689  12.443
49413W        W17631  32.532   1.960  11.596
49414W        W17632   1.846   6.728  10.755
49415W        W17633  23.926  18.298   3.687
49416W        W17634  22.210  21.509   0.529
49417W        W17635  26.676  29.183  11.515
49418W        W17636  25.831  43.323  13.865
49419W        W17637  33.095  16.308  11.094
49420W        W17638   0.834  11.105   2.219
49421W        W17639   1.439  32.991  12.503
49422W        W17640  44.771  41.462  14.512
49423W        W17641  29.206   1.999  12.865
49424W        W17642  39.794   2.333   2.191
49425W        W17643  28.940  13.164   1.637
49426W        W17644  14.732   9.709  14.150
49427W        W17645  21.514  23.276   3.650
49428W        W17646  16.997  16.294  11.092
49429W        W17647   4.812  37.650   2.145
49430W        W17648  11.657  42.746  13.309
49431W        W17649  14.220  13.333  11.105
49432W        W17650  21.414   7.955   4.560
49433W        W17651  29.602  43.384  10.689
49434W        W17652  20.452   4.675   0.278
49435W        W17653  35.629   6.585   4.084
49436W        W17654  12.735  21.742   0.431
49437W        W17655  25.544  16.770   1.423
49438W        W17656  34.804  35.814  13.624
49439W        W17657  25.462  26.300   4.096
49440W        W17658  27.042  24.963   3.978
49441W        W17659  39.225   6.268  10.693
49442W        W17660  26.502   5.208  13.418
49443W        W17661  18.857  23.363  11.080
49444W        W17662  29.083  26.134  13.614
49445W        W17663  26.254  43.964   0.460
49446W        W17664  26.716   9.671  13.347
49447W        W17665  10.669   2.344   0.785
49448W        W17666  16.351  13.095   0.166
49449W        W17667  25.499  11.685  12.943
49450W        W17668  29.215  21.522  12.445
49451W        W17669   1.218  40.262  11.134
49452W        W17670  29.640  39.888  10.389
49453W        W17671  39.943  41.275  14.390
49454W        W17672  18.628  17.093   0.470
49455W        W17673  11.698  31.885  13.270
49456W        W17674  28.249  22.484  12.120
49457W        W17675  18.253   4.039   2.418
49458W        W17676  26.436  27.952   1.919
49459W        W17677  19.514  19.254  13.586
49460W        W17678  32.534  33.185   0.742
49461W        W17679  26.775  26.841  10.643
49462W        W17680   2.915  21.487   3.651
49463W        W17681   2.955  20.621  11.079
49464W        W17682  37.830  33.279  13.944
49465W        W17683  25.634  19.124  14.077
49466W        W17684  37.331   7.683  10.828
49467W        W17685  29.117  33.093   1.441
49468W        W17686  40.578  17.835  12.026
49469W        W17687  42.228  18.291  14.133
49470W        W17688  15.699  15.359  14.948
49471W        W17689  21.345   3.258   1.645
49472W        W17690   1.524  20.433  13.818
49473W        W17691  34.676  12.866  10.186
49474W        W17692   7.543   8.761   2.157
49475W        W17693  39.280  35.379   2.781
49476W        W17694  10.310   4.430   3.297
49477W        W17695  38.556  19.289   0.253
49478W        W17696  23.318   9.574   2.692
49479W        W17697  25.886  19.550   4.123
49480W        W17698  22.733  43.733  10.727
49481W        W17699  10.633  44.212  13.357
49482W        W17700  40.412  35.418   4.706
49483W        W17701  31.915   8.204  13.344
49484W        W17702  35.355  24.543  11.057
49485W        W17703  22.052  16.039  12.992
49486W        W17704  36.122  44.925  13.834
49487W        W17705   0.240  22.136   1.821
49488W        W17706   2.760  14.765  12.090
49489W        W17707  14.052  32.581   1.714
49490W        W17708  17.683  16.267   9.762
49491W        W17709  23.136   6.263  14.771
49492W        W17710   1.000  13.415  12.474
49493W        W17711  40.863  18.259  13.415
49494W        W17712  31.987  33.185   4.669
49495W        W17713  17.643  31.615   1.856
49496W        W17714  23.753  26.599  12.907
49497W        W17715   9.488  39.061   1.647
49498W        W17716  44.672  37.208   3.776
49499W        W17717   6.030  25.643  14.502
49500W        W17718  11.346  14.296  13.786
49501W        W17719  32.094  11.435   4.541
49502W        W17720  20.120  30.372  10.688
49503W        W17721  29.642  20.802  13.364
49504W        W17722  29.670  43.899   2.438
49505W        W17723   7.994  14.223   3.080
49506W        W17724  42.360  35.277   3.685
49507W        W17725  25.147  32.862   2.654
49508W        W17726  11.619  41.085  14.655
49509W        W17727  32.040  21.410   2.091
49510W        W17728  36.412   2.911  12.352
49511W        W17729  22.495   6.045   1.848
49512W        W17730  13.170  28.043  11.317
49513W        W17731  10.368  27.074   3.651
49514W        W17732  31.600  31.524   3.136
49515W        W17733  32.076   8.834   3.796
49516W        W17734  20.112  37.983   1.787
49517W        W17735   1.274  18.969  14.027
49518W        W17736  11.105  28.618   3.718
49519W        W17737  38.812  42.305   1.358
49520W        W17738   3.290  16.128  11.147
49521W        W17739  10.270  31.607   4.073
49522W        W17740  34.061   4.376   4.530
49523W        W17741  27.081  38.525  12.948
49524W        W17742  38.816  36.903   0.451
49525W        W17743  28.513   9.585  11.686
49526W        W17744   2.301  40.970   3.333
49527W        W17745  12.444  15.324  10.753
49528W        W17746  27.558  41.956   0.650
49529W        W17747  25.850  33.591   2.825
49530W        W17748   8.379  29.326  12.078
49531W        W17749  23.749   9.607   4.477
49532W        W17750  22.259  23.636  11.257
49533W        W17751   4.378  22.182  14.738
49534W        W17752   6.609  43.279  13.839
49535W        W17753  14.155  41.784   5.434
49536W        W17754  18.235  28.970   1.367
49537W        W17755   9.284  21.205  14.257
49538W        W17756  34.679  20.323  10.614
49539W        W17757   5.848  39.309  14.127
49540W        W17758   2.852   9.302   0.200
49541W        W17759  20.726  21.192   0.781
49542W        W17760  15.604  25.204  11.601
49543W        W17761  32.445  10.342   2.360
49544W        W17762  31.350  37.569   2.399
49545W        W17763   2.810  36.005   1.830
49546W        W17764   3.237  43.999   1.792
49547W        W17765   4.898  19.417   3.087
49548W        W17766  32.955   1.002  12.715
49549W        W17767  18.723  24.017  10.691
49550W        W17768  23.196   6.164  10.239
49551W        W17769  21.581  17.547   4.138
49552W        W17770   5.443  27.685  14.211
49553W        W17771   9.886   0.165   2.805
49554W        W17772  31.140   0.434  11.514
49555W        W17773  14.868  31.291   1.239
49556W        W17774  29.121  14.267  12.858
49557W        W17775  20.706  12.628  12.479
49558W        W17776  42.843  25.971   0.995
49559W        W17777   8.938  18.287  13.957
49560W        W17778  10.206  40.925  13.097
49561W        W17779  41.073  40.336  14.795
49562W        W17780  33.904  34.896   3.278
49563W        W17781  44.844  34.339   3.666
49564W        W17782  16.568  12.683   0.860
49565W        W17783   5.213   8.327   3.228
49566W        W17784  36.117  34.914   1.846
49567W        W17785  10.561  40.510  14.748
49568W        W17786  17.576  16.279   3.309
49569W        W17787  18.118  15.616  13.730
49570W        W17788  32.051   3.899  11.908
49571W        W17789  33.043   5.211   0.239
49572W        W17790  20.332  40.784   1.279
49573W        W17791  40.580  27.757  11.653
49574W        W17792  24.233  17.947  11.179
49575W        W17793  18.651  29.571   4.809
49576W        W17794  33.956   7.907   1.372
49577W        W17795  28.429  17.806   3.273
49578W        W17796   9.134  34.405  11.103
49579W        W17797  31.542  34.559  12.839
49580W        W17798  25.668  39.077   5.352
49581W        W17799  26.997  29.716   3.332
49582W        W17800  27.671  39.591  12.435
49583W        W17801   8.677  39.357   3.869
49584W        W17802  17.289  20.128  10.066
49585W        W17803  29.089  11.184  12.022
49586W        W17804   6.961  25.736  13.759
49587W        W17805  21.980   4.749   1.328
49588W        W17806  34.160  10.633   0.927
49589W        W17807  26.921   4.864   4.698
49590W        W17808  41.390  30.909  13.806
49591W        W17809  13.662  13.055  12.186
49592W        W17810  15.896   4.679   0.805
49593W        W17811  27.132  10.379  12.893
49594W        W17812  24.122  10.152  11.591
49595W        W17813  30.909  41.555  10.246
49596W        W17814   0.215   8.900  11.201
49597W        W17815   0.589  42.695  12.781
49598W        W17816  26.236  24.414  12.586
49599W        W17817  15.126  43.957  11.389
49600W        W17818   0.855  11.953   2.772
49601W        W17819  10.156  28.101   5.015
49602W        W17820  25.761   9.406  14.556
49603W        W17821  42.002  39.025  12.047
49604W        W17822  15.328  33.171  14.544
49605W        W17823  14.145  24.956  11.192
49606W        W17824  44.194  13.587  11.528
49607W        W17825  28.817  30.585   4.707
49608W        W17826  12.653   7.928   0.915
49609W        W17827  41.014  39.050   4.771
49610W        W17828   2.153   7.656   3.108
49611W        W17829  42.940   5.812  14.943
49612W        W17830  39.387  39.392   1.543
49613W        W17831  25.400  10.360   2.251
49614W        W17832  41.796  33.335  11.227
49615W        W17833  23.033  22.199  12.155
49616W        W17834   1.280  15.722   4.488
49617W        W17835   1.094   6.722   2.900
49618W        W17836  12.227  42.365   0.443
49619W        W17837  37.313  30.735   3.224
49620W        W17838   3.974  10.556   4.916
49621W        W17839  25.961  15.928  14.504
49622W        W17840   5.746   4.447   1.947
49623W        W17841  35.544  36.839   4.155
49624W        W17842  18.074  16.184   5.410
49625W        W17843  29.167  20.547   4.862
49626W        W17844  14.532  33.358  14.825
49627W        W17845  33.962  23.091  14.670
49628W        W17846  42.331   5.727  13.316
49629W        W17847  23.564  14.661  12.932
49630W        W17848  41.327  30.064   2.024
49631W        W17849  37.765  16.211   0.255
49632W        W17850  20.573  14.313  12.989
49633W        W17851  10.664  30.923   2.394
49634W        W17852   8.791   1.489  14.901
49635W        W17853  22.624  40.061   4.060
49636W        W17854  19.138   9.469   2.704
49637W        W17855   3.800  35.285   4.580
49638W        W17856   4.323  27.226  13.020
49639W        W17857  18.685  36.624  10.613
49640W        W17858  13.798  26.030   2.920
49641W        W17859  23.618   5.298   1.892
49642W        W17860  39.373  19.198  13.360
49643W        W17861   4.978  29.196   2.324
49644W        W17862   8.471   2.200   3.631
49645W        W17863  22.195  31.812  12.599
49646W        W17864  24.800   0.521  12.997
49647W        W17865  18.070  36.945   3.680
49648W        W17866   0.384   2.883  13.400
49649W        W17867  38.648   6.299   1.221
49650W        W17868  26.981  18.189   4.775
49651W        W17869  24.078  33.354   9.823
49652W        W17870  25.989   6.389   1.341
49653W        W17871  15.022   6.376  13.191
49654W        W17872  39.433  34.993  13.114
49655W        W17873  13.634  24.794  12.825
49656W        W17874  33.976  16.832  13.490
49657W        W17875  22.546  28.747   2.012
49658W        W17876  16.106  16.700  11.512
49659W        W17877  15.701  31.048  14.072
49660W        W17878   9.885  35.954  11.595
49661W        W17879  11.727   8.237  11.002
49662W        W17880  40.238   4.396  10.294
49663W        W17881  14.831  24.824   1.852
49664W        W17882  14.103  31.611   1.146
49665W        W17883  19.179  14.370  13.776
49666W        W17884  33.113  24.788  13.671
49667W        W17885  31.053  19.614   2.087
49668W        W17886   5.188  31.423  12.294
49669W        W17887  25.177   7.186  13.319
49670W        W17888  35.919  37.522   0.701
49671W        W17889   6.879  12.128  11.610
49672W        W17890  39.900  25.306   2.157
49673W        W17891   3.433  40.438  10.442
49674W        W17892  18.810  26.108   4.258
49675W        W17893  20.202  22.713  13.105
49676W        W17894  41.058  44.500  11.517
49677W        W17895  17.554  25.154   2.534
49678W        W17896  41.408  39.903  10.909
49679W        W17897  18.535   1.016   0.316
49680W        W17898  38.072  21.243   4.377
49681W        W17899   0.029  13.678   3.273
49682W        W17900  18.587   9.811   0.176
49683W        W17901   2.402  30.175   1.814
49684W        W17902  30.997   8.764  10.546
49685W        W17903  33.013  23.539   1.183
49686W        W17904  15.696  13.268   1.891
49687W        W17905  15.774   6.325  13.490
49688W        W17906  32.536   4.838   2.646
49689W        W17907  28.086   9.300   4.763
49690W        W17908  23.167  36.316  14.291
49691W        W17909   9.211   9.205  12.410
49692W        W17910  25.449  39.511   2.322
49693W        W17911  21.259  10.266  14.853
49694W        W17912  28.937  38.481  12.875
49695W        W17913  39.194  22.852   2.913
49696W        W17914  26.671  43.729  10.538
49697W        W17915  39.788   5.596   0.459
49698W        W17916   4.468   2.385  12.237
49699W        W17917  27.742  18.148   5.500
49700W        W17918  40.823  39.423  14.666
49701W        W17919   4.901   3.805   0.379
49702W        W17920  17.570  26.178  12.336
49703W        W17921  21.234  10.978  11.067
49704W        W17922  24.094   2.813  12.303
49705W        W17923  38.977  11.914  12.423
49706W        W17924  42.898  19.853  12.919
49707W        W17925  17.657   1.729  10.655
49708W        W17926   7.176   8.800  13.864
49709W        W17927  32.661  26.427   2.831
49710W        W17928  32.955  28.065   3.580
49711W        W17929   0.988  11.900  12.046
49712W        W17930  33.664  34.466   1.727
49713W        W17931   1.246  44.860   2.721
49714W        W17932  35.652  13.794  11.883
49715W        W17933  31.278   2.054   4.096
49716W        W17934  23.446  37.118  11.120
49717W        W17935  10.424  36.536   1.732
49718W        W17936   4.884  29.209  11.236
49719W        W17937  38.116  30.148  13.461
49720W        W17938  19.581  41.067   3.178
49721W        W17939   9.510  15.031   4.149
49722W        W17940  12.606  31.974   0.827
49723W        W17941  39.362  38.803  14.217
49724W        W17942  38.795   3.732   1.915
49725W        W17943  20.466   1.241  10.478
49726W        W17944  24.131  15.603   1.182
49727W        W17945   6.516  30.409  10.213
49728W        W17946  17.457  19.726   2.689
49729W        W17947  20.614  30.505   1.424
49730W        W17948   3.416  21.197   0.748
49731W        W17949  15.086  15.111  11.993
49732W        W17950   5.849   8.145  12.514
49733W        W17951  11.757   1.935  10.986
49734W        W17952  15.166  35.310   0.496
49735W        W17953  15.801  31.806  10.465
49736W        W17954  27.731  37.338  11.090
49737W        W17955  36.805  18.674   3.642
49738W        W17956  29.082  22.055  13.536
49739W        W17957  43.340  30.598   5.047
49740W        W17958  23.101  19.141   0.048
49741W        W17959  32.571  29.902  14.867
49742W        W17960  15.904  29.145   1.455
49743W        W17961  22.025  26.233   2.052
49744W        W17962  21.295  20.484  11.925
49745W        W17963  28.028   0.980   4.688
49746W        W17964  33.679  15.218   2.888
49747W        W17965  16.582  41.265  14.597
49748W        W17966  13.052  26.064  14.907
49749W        W17967  13.756  16.972  10.974
49750W        W17968  30.985  16.175  11.811
49751W        W17969  41.987  32.027  13.495
49752W        W17970  30.203  28.194   3.260
49753W        W17971  26.075   7.538  12.253
49754W        W17972  35.821  17.629   4.982
49755W        W17973   1.906   2.525  13.378
49756W        W17974   6.390   0.726   3.200
49757W        W17975  23.589  16.582  14.469
49758W        W17976  39.087  17.043  13.119
49759W        W17977   2.663  11.713  13.406
49760W        W17978  37.003  14.293   3.605
49761W        W17979  44.840   6.422  13.461
49762W        W17980   0.661  40.818   1.802
49763W        W17981   1.492   5.698  11.031
49764W        W17982  15.974  20.533   0.891
49765W        W17983  31.617  25.684  11.407
49766W        W17984  26.925  27.543   3.724
49767W        W17985   5.155  32.027   4.254
49768W        W17986   9.357  10.343   2.334
49769W        W17987  31.915  40.050  10.916
49770W        W17988  13.206  22.886  14.958
49771W        W17989  30.647   5.283   0.955
49772W        W17990  25.027  32.383  14.384
49773W        W17991  15.761   5.711  14.027
49774W        W17992  29.644  13.402  11.055
49775W        W17993  24.650  40.520  10.736
49776W        W17994  11.330  28.658  12.885
49777W        W17995  23.435  25.076  11.141
49778W        W17996  28.163  28.172   1.673
49779W        W17997  36.146   3.495   0.414
49780W        W17998  17.669   3.698   0.438
49781W        W17999  33.864  36.945  12.089
49782W        W18000  18.011   2.485  10.748
49783W        W18001   1.251   4.712  11.124
49784W        W18002  30.830   2.712  14.389
49785W        W18003   1.161  31.055  13.015
49786W        W18004  31.833  18.974  13.289
49787W        W18005  32.548  44.277  13.473
49788W        W18006  44.840  29.680   1.320
49789W        W18007  26.207  31.564  12.220
49790W        W18008  35.902  23.255  10.741
49791W        W18009  40.019  38.098  12.064
49792W        W18010  37.388  22.790   3.323
49793W        W18011   2.956  29.611   5.136
49794W        W18012   3.333  43.821  14.971
49795W        W18013  20.191  36.937  10.732
49796W        W18014  15.075   4.488  10.702
49797W        W18015   6.325   1.627  13.976
49798W        W18016  20.651  38.299   3.739
49799W        W18017  29.957  29.136  10.335
49800W        W18018  15.481  31.849   2.405
49801W        W18019  33.098   1.844   0.193
49802W        W18020   7.209  44.126  12.608
49803W        W18021  30.667  15.309  11.426
49804W        W18022  22.985  33.073   4.210
49805W        W18023  43.441  22.723  14.842
49806W        W18024  13.136  30.181   0.733
49807W        W18025  14.752  43.953   2.556
49808W        W18026   9.698  32.577  10.740
49809W        W18027  30.888  42.441   1.217
49810W        W18028  29.010  25.150   1.084
49811W        W18029  27.396   9.524  13.969
49812W        W18030   0.389  33.576  10.809
49813W        W18031   9.671  43.081   3.153
49814W        W18032  29.179  41.402   2.337
49815W        W18033  20.728  40.015   1.906
49816W        W18034  26.884  27.320   4.207
49817W        W18035  30.360  17.147   5.202
49818W        W18036  18.770   0.233  10.831
49819W        W18037  36.931  31.286  11.630
49820W        W18038  24.259  17.456  11.078
49821W        W18039  30.018  31.973   4.144
49822W        W18040  28.717  34.871   4.730
49823W        W18041   0.077  18.553   1.194
49824W        W18042  24.075  22.681  13.786
49825W        W18043   7.231  19.733  13.078
49826W        W18044  33.088   3.324  11.195
49827W        W18045  28.006  16.592  11.415
49828W        W18046  29.600  10.263   0.233
49829W        W18047  33.878   5.901  10.679
49830W        W18048  17.250  18.175  12.794
49831W        W18049  25.286  20.537   0.365
49832W        W18050  26.948  31.217   0.524
49833W        W18051  23.430  19.414   2.228
49834W        W18052  24.387  38.875  11.069
49835W        W18053  19.962  17.696  11.081
49836W        W18054  10.271  14.757   5.020
49837W        W18055  39.835  11.022   1.537
49838W        W18056  35.544  31.404  14.439
49839W        W18057  29.453   4.692  14.553
49840W        W18058   6.387  42.918  13.533
49841W        W18059   3.696   2.922   0.616
49842W        W18060  11.593  30.106  12.992
49843W        W18061  19.301  44.208  13.039
49844W        W18062  24.621  35.823  11.887
49845W        W18063  34.052  26.465   2.782
49846W        W18064  17.992  44.756  10.934
49847W        W18065  25.216  22.499   4.483
49848W        W18066  11.314  18.805  14.296
49849W        W18067  31.156  17.733  13.200
49850W        W18068   1.426   3.504   4.575
49851W        W18069  39.942  17.254  11.114
49852W        W18070  16.134  31.039   2.414
49853W        W18071  10.105   6.227  11.485
49854W        W18072  17.527  26.714   0.002
49855W        W18073  16.635   6.394  12.647
49856W        W18074  15.880   8.228   3.661
49857W        W18075  16.576  35.312   1.947
49858W        W18076  36.257  27.411  14.779
49859W        W18077  38.243  24.139  12.577
49860W        W18078  26.548  36.096  14.521
49861W        W18079  36.878  39.455   3.683
49862W        W18080  29.170  40.973  11.068
49863W        W18081  44.060  29.891   2.275
49864W        W18082  29.470  10.606  11.642
49865W        W18083  16.324  17.046  10.572
49866W        W18084   8.237   3.457   0.537
49867W        W18085   4.299  12.064   3.653
49868W        W18086   4.306   6.754   2.385
49869W        W18087  24.969  32.863  10.673
49870W        W18088  12.707  17.520   0.310
49871W        W18089  27.255  29.435   0.052
49872W        W18090  22.749   8.306  14.471
49873W        W18091  33.690  21.555  11.606
49874W        W18092  29.924   2.188   4.292
49875W        W18093  22.224  20.998  12.774
49876W        W18094  35.394  35.376   2.910
49877W        W18095  44.899  19.093   3.770
49878W        W18096   8.759  35.706  13.084
49879W        W18097   5.312  13.845  14.955
49880W        W18098  38.363   0.307   4.534
49881W        W18099   1.236  36.940   2.947
49882W        W18100   1.472  16.368   2.451
49883W        W18101   5.440  23.724   3.478
49884W        W18102  30.679   1.997   2.913
49885W        W18103  12.847   9.820  13.784
49886W        W18104  14.729   8.127   0.330
49887W        W18105   9.724  16.993  14.056
49888W        W18106  31.825   4.399  11.784
49889W        W18107  40.980  11.618   2.087
49890W        W18108  36.372  16.461   3.335
49891W        W18109  22.021  12.844   2.983
49892W        W18110  25.925  31.932  13.538
49893W        W18111  25.232  28.667   0.298
49894W        W18112  18.137  10.381   3.113
49895W        W18113  27.740  23.433  13.950
49896W        W18114  14.718  29.540   0.154
49897W        W18115  32.908  29.806   2.638
49898W        W18116  39.756  29.537  11.315
49899W        W18117  28.517  17.156   1.229
49900W        W18118  17.195  40.072  14.505
49901W        W18119   7.267  32.604   1.196
49902W        W18120  25.205  24.247   3.196
49903W        W18121  38.013  44.853   2.838
49904W        W18122   1.244   5.941  11.420
49905W        W18123  14.762  41.271  14.322
49906W        W18124   8.258  19.557   0.702
49907W        W18125  26.896  43.320  12.550
49908W        W18126  30.821  17.671   3.256
49909W        W18127  35.445   5.990   2.315
49910W        W18128   1.377  11.294   3.332
49911W        W18129  16.157  13.977   3.182
49912W        W18130  41.717  30.556   4.131
49913W        W18131   0.823  43.654   4.906
49914W        W18132   1.805   0.774  14.374
49915W        W18133  11.377  40.679   1.417
49916W        W18134  34.971  20.778   2.900
49917W        W18135   5.737   7.197  11.631
49918W        W18136  14.688  28.059   3.235
49919W        W18137  39.409  35.667   3.231
49920W        W18138  10.236  22.300  12.641
49921W        W18139   6.666  33.549  13.446
49922W        W18140  10.889   3.944   0.786
49923W        W18141  29.547   2.689  12.556
49924W        W18142   4.235   2.367  10.730
49925W        W18143  26.902  40.621   2.873
49926W        W18144  43.945  27.680   3.480
49927W        W18145  13.490  23.631  13.803
49928W        W18146  39.853   5.094   0.611
49929W        W18147  18.260  29.683  13.569
49930W        W18148  10.099  20.294   2.752
49931W        W18149  20.635  14.300   1.438
49932W        W18150  39.921   2.552  13.010
49933W        W18151   3.516  27.048  12.384
49934W        W18152   9.254  19.205   3.361
49935W        W18153  43.383  24.176   4.105
49936W        W18154  22.512  34.559  11.654
49937W        W18155  40.005  24.104  12.491
49938W        W18156  19.655  28.680  12.191
49939W        W18157  39.659  31.950   3.105
49940W        W18158   9.524  30.667  11.158
49941W        W18159   3.247  30.091  11.412
49942W        W18160  25.371  27.634  11.576
49943W        W18161  36.278  27.919  14.704
49944W        W18162  32.863  11.685  13.406
49945W        W18163  25.474  37.897  10.812
49946W        W18164  11.269   9.298  10.919
49947W        W18165  27.975   7.434  11.291
49948W        W18166  28.555  15.586  12.640
49949W        W18167  12.192  33.832  14.311
49950W        W18168  15.536  36.799   1.860
49951W        W18169  35.134  10.237  12.816
49952W        W18170   4.748  36.668  13.421
49953W        W18171   7.412  11.246   0.931
49954W        W18172  22.601  10.084   0.392
49955W        W18173  23.895  29.974   2.894
49956W        W18174  17.288  20.003   1.827
49957W        W18175  32.863  20.011  14.573
49958W        W18176  21.243   7.816   3.260
49959W        W18177  32.525  12.323   0.297
49960W        W18178  24.738  15.542  12.459
49961W        W18179  33.219  29.158  14.523
49962W        W18180  43.365  20.355  14.769
49963W        W18181  42.988  12.876   2.871
49964W        W18182  32.651  25.659   0.249
49965W        W18183   6.297  30.651  13.636
49966W        W18184   0.950  29.213   2.282
49967W        W18185  20.766  12.647   0.791
49968W        W18186  33.399  43.335   0.569
49969W        W18187  23.790  30.634   0.712
49970W        W18188  13.759  29.868   3.293
49971W        W18189   5.094  28.911   3.720
49972W        W18190  12.772   0.960  14.894
49973W        W18191   9.330  34.821   0.821
49974W        W18192  28.907   6.854  14.009
49975W        W18193   7.160  31.092  13.011
49976W        W18194  19.869   5.197  14.371
49977W        W18195  19.079   0.291   0.078
49978W        W18196  37.522   8.871  11.511
49979W        W18197  30.163  24.400  14.921
49980W        W18198  20.832  40.883  11.633
49981W        W18199  25.468  26.879  14.142
49982W        W18200  27.914  21.281   4.740
49983W        W18201  15.833   3.894   0.095
49984W        W18202  32.355   7.403  14.709
49985W        W18203  13.694   1.639  12.131
49986W        W18204  21.495  24.657  14.079
49987W        W18205  23.114   3.179   3.648
49988W        W18206  10.914  44.321  14.590
49989W        W18207  27.425  25.714  10.630
49990W        W18208  40.341  18.661   4.628
49991W        W18209  14.210  42.050   4.170
49992W        W18210  38.423   4.247  12.002
49993W        W18211  36.026  11.761   4.433
49994W        W18212  25.278  34.016   0.897
49995W        W18213  44.452  41.549   0.744
49996W        W18214  41.430  11.642   4.948
49997W        W18215   2.769  24.692   3.790
49998W        W18216   7.193  24.312   1.273
49999W        W18217  14.289   6.780  11.702
50000W        W18218   6.633  17.552   3.651
50001W        W18219  20.739  35.846   0.405
50002W        W18220   5.449  43.677  13.396
50003W        W18221   3.416  13.323   1.966
50004W        W18222  42.786   0.736   0.522
50005W        W18223   9.816  30.009  13.990
50006W        W18224  44.927  38.516   2.616
50007W        W18225  42.256   3.253   2.722
50008W        W18226  37.284  13.399  13.476
50009W        W18227   7.997  15.651   2.736
50010W        W18228  24.986   5.839  14.896
50011W        W18229  28.043   8.185  10.660
50012W        W18230  24.646  15.374   4.127
50013W        W18231  29.603   7.143  11.601
50014W        W18232  13.134  12.219   1.000
50015W        W18233   1.576  13.141  14.474
50016W        W18234  20.722  31.103  12.540
50017W        W18235   3.004   8.708   3.363
50018W        W18236  39.548  41.497  13.102
50019W        W18237  19.309  13.595  11.188
50020W        W18238   3.189  35.947  12.950
50021W        W18239  23.559   1.052   3.213
50022W        W18240  15.288   7.558  14.900
50023W        W18241  16.235  10.348  13.145
50024W        W18242   8.453  38.811   1.723
50025W        W18243  24.498  23.087  13.018
50026W        W18244  44.300  19.359   1.497
50027W        W18245   6.554  27.051   3.962
50028W        W18246  12.875  25.191   0.400
50029W        W18247  19.870  33.269  10.852
50030W        W18248  15.103  17.849  14.446
50031W        W18249   7.148   8.469  12.215
50032W        W18250  37.127  37.913   4.591
50033W        W18251  30.882   4.322   2.363
50034W        W18252  32.929  19.657  13.785
50035W        W18253  23.545  36.688  10.787
50036W        W18254  44.077   5.793  11.262
50037W        W18255  20.532  32.479  12.901
50038W        W18256  21.665   3.456   2.865
50039W        W18257  23.384  34.548  11.179
50040W        W18258  36.680   5.634   3.253
50041W        W18259  14.528   9.794   0.284
50042W        W18260  24.538  20.182   4.147
50043W        W18261  35.270  44.508   2.212
50044W        W18262  11.344  44.232  14.882
50045W        W18263  40.296   7.872  13.940
50046W        W18264  34.541  14.992   4.838
50047W        W18265  11.409   4.405  14.094
50048W        W18266  25.162  26.044   2.244
50049W        W18267   5.234  16.080   3.908
50050W        W18268  27.700  40.086  13.825
50051W        W18269  36.423   9.952  10.900
50052W        W18270   0.064  36.166  11.167
50053W        W18271  37.912  32.573  11.677
50054W        W18272  42.407   6.214   3.803
50055W        W18273  19.064  10.977   4.641
50056W        W18274  11.260  10.600  12.554
50057W        W18275   7.279  18.745   0.290
50058W        W18276  30.764  11.208  12.904
50059W        W18277  34.466  38.810   0.913
50060W        W18278  40.794  43.308   3.887
50061W        W18279   1.795   4.210  12.500
50062W        W18280  42.317   3.562   2.214
50063W        W18281  25.136  33.960   4.087
50064W        W18282  14.560  25.097  14.610
50065W        W18283   5.185  26.162   0.182
50066W        W18284  26.725  44.842   1.257
50067W        W18285   4.840  18.171  14.408
50068W        W18286  24.404  26.935   4.280
50069W        W18287   8.905  40.950  14.386
50070W        W18288  32.882   7.477  11.136
50071W        W18289  41.194   6.354  10.669
50072W        W18290  31.145   7.894  11.669
50073W        W18291  33.679   2.210   1.370
50074W        W18292  24.653  12.850  13.483
50075W        W18293  11.556   4.245  14.552
50076W        W18294  23.093   5.422   4.503
50077W        W18295  14.557  22.243   1.785
50078W        W18296  38.034  37.089   4.536
50079W        W18297   4.807   3.235   3.776
50080W        W18298  10.328  44.282   1.959
50081W        W18299  39.878   6.801   4.832
50082W        W18300  40.390  38.147   3.695
50083W        W18301  20.289  38.398  10.341
50084W        W18302  41.019  41.658   1.189
50085W        W18303   5.626  39.980   3.651
50086W        W18304  28.655  15.232  11.297
50087W        W18305  22.788   7.412  14.370
50088W        W18306  11.143  27.826  12.476
50089W        W18307   5.410  36.869   3.092
50090W        W18308  32.755  17.227   1.475
50091W        W18309   0.305  36.813   0.927
50092W        W18310  12.337  39.341  14.823
50093W        W18311  11.929   7.522  13.927
50094W        W18312  10.548   2.702  14.792
50095W        W18313  42.495   0.774  13.321
50096W        W18314  40.161  10.495   4.236
50097W        W18315  29.608  15.092   3.710
50098W        W18316  35.359  19.122  11.146
50099W        W18317  24.645   3.667  12.506
50100W        W18318  22.705  26.187   2.215
50101W        W18319  38.474  27.893  12.084
50102W        W18320   1.290   4.454  11.563
50103W        W18321   8.269  22.347  13.071
50104W        W18322  22.375  29.905  11.836
50105W        W18323  18.745   2.451   4.556
50106W        W18324  29.836  13.577   3.658
50107W        W18325  44.132  18.030   4.564
50108W        W18326  23.667  22.994   3.246
50109W        W18327  15.817  12.696   1.279
50110W        W18328  30.041  10.243  14.977
50111W        W18329  38.861  18.039  14.832
50112W        W18330  25.611  42.132  11.697
50113W        W18331  28.073  38.413  14.266
50114W        W18332  17.225  16.579  10.739
50115W        W18333  32.387   3.499   1.812
50116W        W18334  34.108  23.207  14.190
50117W        W18335  42.533  29.633   3.787
50118W        W18336  13.710  14.746   4.118
50119W        W18337  17.965   2.809  14.017
50120W        W18338   1.109   9.926   0.861
50121W        W18339  11.139   5.827   0.744
50122W        W18340  43.721   6.300   3.268
50123W        W18341  26.221  32.022   2.244
50124W        W18342  41.267   9.896   1.455
50125W        W18343  24.073  19.706  14.884
50126W        W18344  12.192  17.091   0.919
50127W        W18345   0.923  10.677  13.818
50128W        W18346  10.105  23.820   2.336
50129W        W18347  21.078  35.343  12.148
50130W        W18348  39.920  38.743   3.978
50131W        W18349  18.293  30.143   4.293
50132W        W18350  19.817  38.634  14.245
50133W        W18351  22.719  44.010  14.789
50134W        W18352  18.452  17.361   4.978
50135W        W18353  30.697  31.546   1.173
50136W        W18354  12.572  16.110  12.043
50137W        W18355   3.934  16.108   0.959
50138W        W18356  39.765   6.306  13.100
50139W        W18357  14.673  37.769  12.837
50140W        W18358  29.955   3.465   0.968
50141W        W18359   0.955  44.925   3.517
50142W        W18360  40.086  24.262   3.791
50143W        W18361  22.115   9.628  12.367
50144W        W18362  26.509  42.031   5.053
50145W        W18363  10.454  26.064  12.052
50146W        W18364  35.478   6.977   4.449
50147W        W18365  40.213  34.116   2.607
50148W        W18366  24.250  35.037  10.426
50149W        W18367   5.130  13.651   3.725
50150W        W18368  31.468  29.461   4.569
50151W        W18369   5.241   9.006  13.024
50152W        W18370  29.477   9.938  12.993
50153W        W18371  35.570   8.185  11.840
50154W        W18372  31.925  31.698  12.124
50155W        W18373  41.680  11.191  11.580
50156W        W18374  44.116  10.285  11.948
50157W        W18375  44.234   8.146  11.973
50158W        W18376  23.722  24.660   0.756
50159W        W18377   3.231   8.157   0.795
50160W        W18378   5.558  23.667   4.747
50161W        W18379  22.570   0.038   3.294
50162W        W18380  29.415  13.242   1.890
50163W        W18381   6.326   8.634  13.372
50164W        W18382  44.468  24.985   2.725
50165W        W18383  20.061  29.050   1.475
50166W        W18384   4.416  37.958   1.630
50167W        W18385   7.730  17.848  13.559
50168W        W18386  30.482  34.655   4.182
50169W        W18387  42.300  29.556   5.060
50170W        W18388  38.896  40.049  14.711
50171W        W18389  41.494  28.567  11.057
50172W        W18390  31.645  39.063   1.360
50173W        W18391  13.877  11.257  10.828
50174W        W18392  38.497  25.219   3.933
50175W        W18393  40.086   7.613  10.739
50176W        W18394   5.423  30.115  14.848
50177W        W18395   9.793  24.912   3.687
50178W        W18396  20.666  16.628  12.621
50179W        W18397  11.851  34.926  12.504
50180W        W18398   1.740  10.675   2.200
50181W        W18399  31.021  22.117   1.767
50182W        W18400  12.747   9.132   0.005
50183W        W18401  23.121  43.486  11.206
50184W        W18402   0.927  25.713  13.114
50185W        W18403   4.751  23.357  12.640
50186W        W18404  22.325  26.388  14.808
50187W        W18405  15.687   1.959  14.853
50188W        W18406  13.134  36.467   3.312
50189W        W18407  43.984  25.959   0.452
50190W        W18408  12.609  22.215   3.674
50191W        W18409  24.686   9.383   3.310
50192W        W18410  16.622  22.606  12.819
50193W        W18411  35.493  12.507   0.188
50194W        W18412  22.523  13.631   4.750
50195W        W18413  23.322  11.180  10.605
50196W        W18414   1.533  17.642   0.328
50197W        W18415  25.605  32.651   2.717
50198W        W18416  14.118  44.777   2.420
50199W        W18417  44.101  17.581  11.879
50200W        W18418  36.725  39.780  11.638
50201W        W18419   9.213  30.256   2.662
50202W        W18420  19.029  42.980   1.297
50203W        W18421  26.255  10.210  10.714
50204W        W18422   2.430  34.848   2.195
50205W        W18423  16.362   0.923   2.287
50206W        W18424  21.072  28.942  10.824
50207W        W18425  38.501   4.005  14.314
50208W        W18426  10.900  26.661   2.168
50209W        W18427   9.105  28.424   3.053
50210W        W18428  14.803  41.053  12.546
50211W        W18429   3.331  18.295  12.460
50212W        W18430   2.473  16.864  14.311
50213W        W18431  20.611  13.928   3.348
50214W        W18432  42.443  17.269  13.137
50215W        W18433  14.219  43.882  10.960
50216W        W18434  38.483   6.014  13.390
50217W        W18435  30.466  31.638  11.423
50218W        W18436  42.320  44.214  14.754
50219W        W18437   8.594  43.881  11.504
50220W        W18438  11.113   8.234   2.433
50221W        W18439  33.528  11.109  14.654
50222W        W18440  31.954  24.521  14.744
50223W        W18441  44.710  33.437  12.549
50224W        W18442  36.589  16.374  13.762
50225W        W18443  18.260   5.074   3.340
50226W        W18444  44.278  32.006  12.145
50227W        W18445   4.766   1.917  10.629
50228W        W18446  11.269  23.630  11.658
50229W        W18447  36.593  37.974  12.154
50230W        W18448  13.920  30.027   4.507
50231W        W18449   0.902  29.233   0.939
50232W        W18450  26.327  41.759   0.497
50233W        W18451  22.621  29.173   4.172
50234W        W18452  25.142  32.813   1.435
50235W        W18453  37.855   2.849   2.775
50236W        W18454  39.622  37.916  11.475
50237W        W18455   7.696  19.393  14.705
50238W        W18456  43.854  35.786  13.430
50239W        W18457  38.114  17.257   0.737
50240W        W18458  26.424   2.008  12.402
50241W        W18459  41.747  34.552  13.095
50242W        W18460  27.607  22.021  10.967
50243W        W18461  20.203  23.413   4.332
50244W        W18462  16.136  28.745   0.382
50245W        W18463  28.392  30.967  13.081
50246W        W18464  16.846  34.371  14.361
50247W        W18465  24.502   0.915  11.548
50248W        W18466  23.630  28.886  14.270
50249W        W18467  23.731  23.481   3.132
50250W        W18468  26.159  11.538  13.548
50251W        W18469   4.960  44.523   1.917
50252W        W18470   1.818  39.475   3.361
50253W        W18471   6.594  24.215   4.233
50254W        W18472  31.345  38.071   0.785
50255W        W18473  31.594  14.950   0.774
50256W        W18474  32.982  20.087  11.258
50257W        W18475  29.337  18.768  14.061
50258W        W18476  13.653   7.362   0.752
50259W        W18477  17.660  30.388  10.631
50260W        W18478   8.208  41.765   1.458
50261W        W18479   8.720  41.593  13.339
50262W        W18480  16.716  34.277   1.615
50263W        W18481  17.330  31.015   3.236
50264W        W18482  20.722  20.268  13.981
50265W        W18483  14.443   6.034   1.716
50266W        W18484  29.110   2.250   0.460
50267W        W18485  17.287  29.486  11.704
50268W        W18486  24.537  36.901   4.414
50269W        W18487   0.712  35.416  11.221
50270W        W18488  11.188  41.943   3.190
50271W        W18489  44.985  39.375  13.527
50272W        W18490  37.456   1.732   2.363
50273W        W18491  38.665  20.791  13.897
50274W        W18492  40.018   7.423  13.841
50275W        W18493  40.446  34.907   4.633
50276W        W18494   2.226  39.505  12.031
50277W        W18495  15.741  29.431   2.693
50278W        W18496  37.705  15.990   2.310
50279W        W18497  20.565  22.020  11.134
50280W        W18498  25.135  35.099   1.909
50281W        W18499  28.122  23.051   0.828
50282W        W18500  27.045  35.958   2.354
50283W        W18501   2.296  18.769  14.827
50284W        W18502  17.392   4.587   4.179
50285W        W18503  31.113  18.171   1.373
50286W        W18504  23.999  44.741   4.582
50287W        W18505  33.181   0.045   4.216
50288W        W18506  11.789  36.821   0.884
50289W        W18507  30.533  21.067   2.370
50290W        W18508   8.790   5.072   4.564
50291W        W18509  35.017  11.425   1.426
50292W        W18510  29.425  36.477  11.479
50293W        W18511  28.767  26.648  10.619
50294W        W18512  18.718   4.638  10.649
50295W        W18513  19.824   6.945  12.252
50296W        W18514  28.011  27.961   4.629
50297W        W18515  33.709  37.446   2.786
50298W        W18516  21.520  44.740   1.737
50299W        W18517   0.620  12.120   0.420
50300W        W18518  40.801  20.655   4.643
50301W        W18519  40.208  21.120  11.044
50302W        W18520   6.927  17.688  12.923
50303W        W18521  41.758  39.374   0.037
50304W        W18522  18.677   4.464  12.414
50305W        W18523  14.898  44.706  12.010
50306W        W18524  10.794   8.212  12.818
50307W        W18525  38.961  21.035  11.469
50308W        W18526  44.058  30.159  11.617
50309W        W18527  30.507  31.918  10.638
50310W        W18528  10.133  28.692   0.346
50311W        W18529   7.299  36.985  12.909
50312W        W18530  31.801  39.887   3.628
50313W        W18531  44.979  12.380  14.743
50314W        W18532   6.185  35.018   4.120
50315W        W18533   7.236  39.731   2.807
50316W        W18534  12.812  36.323   4.063
50317W        W18535  23.180  31.551   0.287
50318W        W18536  37.614   9.456   2.792
50319W        W18537  15.348   6.769   3.687
50320W        W18538  19.007  13.617   3.054
50321W        W18539  17.826  26.164   3.710
50322W        W18540  16.240  24.685   2.638
50323W        W18541   0.806   7.232  12.912
50324W        W18542   0.668  19.564   1.368
50325W        W18543  17.090   7.243   3.661
50326W        W18544   2.961   4.455  14.878
50327W        W18545  27.047  12.801  11.087
50328W        W18546  33.407   5.334   2.093
50329W        W18547   6.702  34.137  12.894
50330W        W18548  28.622  25.230  11.504
50331W        W18549  34.999  21.215   2.375
50332W        W18550  21.351  43.481   0.342
50333W        W18551  34.814  15.373  12.364
50334W        W18552  27.733  41.285  11.134
50335W        W18553  33.022  39.936   1.924
50336W        W18554  11.253   4.428   2.757
50337W        W18555  20.558  26.237   0.876
50338W        W18556  15.620  12.791  11.125
50339W        W18557  22.954   0.971   4.910
50340W        W18558  17.078   3.936  11.070
50341W        W18559  43.550   3.181  13.974
50342W        W18560  29.400  23.756   5.117
50343W        W18561  33.000  19.993  10.745
50344W        W18562   5.002  21.482   2.769
50345W        W18563  13.134   0.336  13.380
50346W        W18564  37.577   2.730   3.299
50347W        W18565  14.208   2.658   3.718
50348W        W18566  25.965  16.023   3.536
50349W        W18567  13.667  11.787  10.851
50350W        W18568   5.187  28.057  14.453
50351W        W18569  14.963  42.520  12.228
50352W        W18570   4.721  43.243   0.000
50353W        W18571  28.379  27.660  10.604
50354W        W18572   5.516   2.852   1.863
50355W        W18573  20.432   3.857   0.367
50356W        W18574  30.360  12.471   3.070
50357W        W18575  30.724   1.815   3.385
50358W        W18576  44.710  30.899  12.960
50359W        W18577   0.037   0.328   4.112
50360W        W18578  39.713  38.962   3.236
50361W        W18579   4.013  41.845   1.722
50362W        W18580   6.111  44.906   0.009
50363W        W18581  20.967  19.508  11.031
50364W        W18582  14.186  12.388  13.822
50365W        W18583  19.358   9.633   2.269
50366W        W18584  14.784  15.855  14.891
50367W        W18585  30.899  30.639  12.911
50368W        W18586  11.673   6.923  12.896
50369W        W18587  28.568   1.427  11.052
50370W        W18588  42.868  16.002  11.093
50371W        W18589  29.431  39.102  14.309
50372W        W18590   9.109   2.896  11.661
50373W        W18591  24.235  33.992  14.115
50374W        W18592   0.418  27.630   2.912
50375W        W18593   2.899  24.446   3.330
50376W        W18594  10.732  44.967   1.463
50377W        W18595  38.600  15.247  11.272
50378W        W18596  10.690  17.594   0.977
50379W        W18597  36.834  24.523   0.295
50380W        W18598  28.029  12.659   0.958
50381W        W18599  19.836   4.501   0.801
50382W        W18600  14.811   4.645  11.203
50383W        W18601  43.873  37.625   4.642
50384W        W18602   8.867   8.219  12.597
50385W        W18603  40.058  19.147   3.619
50386W        W18604   3.781  14.740   4.112
50387W        W18605   8.938  17.080   1.290
50388W        W18606  32.637  11.393   4.845
50389W        W18607  26.012   9.216  12.758
50390W        W18608   4.850  31.063  11.595
50391W        W18609  10.894   7.328   4.504
50392W        W18610   4.773  30.572   3.143
50393W        W18611  18.797  40.161   2.072
50394W        W18612   7.395  28.132  14.939
50395W        W18613  29.132  23.188  12.147
50396W        W18614  14.723  37.957   4.227
50397W        W18615   7.945  36.586  11.554
50398W        W18616   4.030   9.833  14.823
50399W        W18617  21.762  36.583   9.861
50400W        W18618  19.125  29.394  14.084
50401W        W18619  42.981  32.798  12.424
50402W        W18620  20.444   6.832  13.179
50403W        W18621  19.652  10.570  14.986
50404W        W18622  40.223   5.633  11.622
50405W        W18623  36.843  19.903   2.347
50406W        W18624  13.258  29.693  13.516
50407W        W18625  25.626  35.923   1.745
50408W        W18626  22.491  24.690  12.876
50409W        W18627  36.067  21.225   2.639
50410W        W18628  15.866  32.399   2.310
50411W        W18629   0.239  13.256   3.062
50412W        W18630  43.399  22.607  14.324
50413W        W18631  12.837  22.432   2.368
50414W        W18632  23.611   3.700   4.120
50415W        W18633   5.132  32.296   0.332
50416W        W18634  20.837  11.405   2.300
50417W        W18635  11.526  31.471  11.924
50418W        W18636  28.002  28.466   3.346
50419W        W18637  43.919   7.688  11.240
50420W        W18638  15.359  24.323  13.886
50421W        W18639  26.967  22.726  12.542
50422W        W18640  24.840  18.897   0.905
50423W        W18641  10.718   6.746   0.356
50424W        W18642  19.993   2.455   4.092
50425W        W18643  10.119  25.738   2.312
50426W        W18644  26.348   2.882   4.139
50427W        W18645   3.648  37.449  12.726
50428W        W18646  17.714  23.519   3.273
50429W        W18647   8.649  42.861  12.828
50430W        W18648  19.671  14.406   1.125
50431W        W18649   9.319  27.455   2.399
50432W        W18650   8.364  12.774   1.037
50433W        W18651  16.223   6.715   2.148
50434W        W18652  11.523  19.052  14.757
50435W        W18653  44.717  15.201  14.372
50436W        W18654   6.124  41.845   3.740
50437W        W18655   0.849   0.246  11.237
50438W        W18656   7.474  15.592   1.184
50439W        W18657  43.886  35.849   2.818
50440W        W18658   5.007  25.420  11.233
50441W        W18659  23.667  11.275  10.968
50442W        W18660   8.912  21.231  12.446
50443W        W18661   5.459  21.568  12.505
50444W        W18662  41.507  40.032  14.253
50445W        W18663  15.059  35.930   2.708
50446W        W18664  21.080   9.929  12.026
50447W        W18665  14.424  23.699  14.938
50448W        W18666  27.019  29.724   3.865
50449W        W18667  35.406  29.380  13.246
50450W        W18668  38.151  20.061  11.119
50451W        W18669   4.767  14.907  11.474
50452W        W18670  16.945  42.506  13.330
50453W        W18671  32.502   1.671  14.278
50454W        W18672  34.497  22.667  13.265
50455W        W18673  37.387  34.637   0.374
50456W        W18674  38.802   7.306   5.199
50457W        W18675  41.510  35.958  13.356
50458W        W18676  18.890   9.887  11.427
50459W        W18677  24.507  25.119   0.300
50460W        W18678  10.727  10.004   1.474
50461W        W18679   7.656  34.870   2.670
50462W        W18680  42.517  24.004  11.206
50463W        W18681  11.263  27.938  11.158
50464W        W18682   9.796  13.917  11.468
50465W        W18683  13.601   6.759  12.907
50466W        W18684  17.394  22.406   4.539
50467W        W18685  25.470  19.552  11.094
50468W        W18686  17.824  23.053   0.817
50469W        W18687  43.420  24.091  14.444
50470W        W18688  33.861  20.586  12.475
50471W        W18689  18.894  25.306  13.253
50472W        W18690  12.909  30.991  13.764
50473W        W18691  25.264  44.237   3.404
50474W        W18692  28.209   3.451  10.125
50475W        W18693  10.743  18.146  13.309
50476W        W18694  42.750  41.970   5.177
50477W        W18695  26.665   3.323   1.636
50478W        W18696  29.585  18.362   0.982
50479W        W18697  25.552  14.578  12.822
50480W        W18698   5.960  37.350  13.300
50481W        W18699  23.331  16.289   1.798
50482W        W18700  34.514  18.223   0.872
50483W        W18701   5.255  34.407   0.265
50484W        W18702  26.458  11.681  13.967
50485W        W18703   4.495  37.969  12.400
50486W        W18704   0.849  13.065  12.825
50487W        W18705  35.986  25.138  11.543
50488W        W18706  42.207   7.383   1.712
50489W        W18707  22.493   3.390  10.310
50490W        W18708  41.276   0.896   4.039
50491W        W18709  10.234  36.633  10.947
50492W        W18710  13.094  16.434   2.719
50493W        W18711   5.821  18.173  12.492
50494W        W18712  43.625  38.961  12.012
50495W        W18713  21.833  14.612  12.731
50496W        W18714  21.243   9.165   5.037
50497W        W18715  13.412  39.612  11.252
50498W        W18716   6.786   0.371  12.276
50499W        W18717  33.788  27.368  10.905
50500W        W18718  10.634  43.929  12.927
50501W        W18719  12.346  22.247   2.293
50502W        W18720  10.218  44.523  13.386
50503W        W18721  10.751   1.049  11.097
50504W        W18722  24.560  20.575   0.855
50505W        W18723  17.126  12.881   1.769
50506W        W18724  18.348   7.939  12.186
50507W        W18725   4.920   5.875  12.179
50508W        W18726  40.866  19.000   4.137
50509W        W18727  32.894  20.514   3.377
50510W        W18728  24.298  35.827  13.544
50511W        W18729  37.500  31.303   4.688
50512W        W18730   7.924  43.437   1.275
50513W        W18731   8.608  17.033  14.343
50514W        W18732  12.513   9.871  13.381
50515W        W18733  13.342  11.918  12.500
50516W        W18734  19.597  25.013   0.977
50517W        W18735  13.860  19.664   2.164
50518W        W18736   9.693   3.996   4.291
50519W        W18737  19.639  16.185  14.605
50520W        W18738  37.277  40.792   0.452
50521W        W18739  38.920  35.636  13.965
50522W        W18740  10.276   1.303   0.199
50523W        W18741  43.217  35.211   0.288
50524W        W18742  38.976  31.037  11.200
50525W        W18743  28.319   4.177   5.057
50526W        W18744  42.223  20.103   3.359
50527W        W18745  16.573  21.162  10.633
50528W        W18746  28.644  42.237  14.962
50529W        W18747  32.908  15.645  13.079
50530W        W18748  33.331  15.652  13.365
50531W        W18749  13.030  27.741  13.516
50532W        W18750  37.012   0.338   4.576
50533W        W18751  28.939  23.110   0.391
50534W        W18752  21.053  25.552  13.804
50535W        W18753  33.429  23.568   3.585
50536W        W18754  43.908   9.398  10.767
50537W        W18755  22.923  34.835   9.971
50538W        W18756  35.886  41.640   3.670
50539W        W18757  19.235  38.886   1.332
50540W        W18758  30.442   0.203  14.272
50541W        W18759   4.767  35.971  14.880
50542W        W18760  16.350   6.710   3.699
50543W        W18761  37.966  22.770   1.781
50544W        W18762  32.788  15.603  10.651
50545W        W18763  36.080   3.041   3.259
50546W        W18764   6.845  42.293  12.083
50547W        W18765  20.437  43.406  13.298
50548W        W18766  34.162  16.295  14.315
50549W        W18767  26.098   1.851  10.937
50550W        W18768  17.131  37.054   3.839
50551W        W18769  10.192  20.687   4.558
50552W        W18770  31.682  13.292   1.172
50553W        W18771  41.927  16.216  11.456
50554W        W18772  14.318  35.949   4.270
50555W        W18773   1.461  12.263   2.236
50556W        W18774  18.940   8.297   0.972
50557W        W18775   4.767  39.855  13.480
50558W        W18776  31.196   7.622   2.216
50559W        W18777  42.469  42.087  13.764
50560W        W18778   6.805  37.573  12.617
50561W        W18779   3.134  33.134   3.532
50562W        W18780  44.817  26.630  12.066
50563W        W18781  28.967  12.132   3.233
50564W        W18782  27.517   0.966  14.906
50565W        W18783  26.997  23.960  12.920
50566W        W18784  26.479   3.135   1.195
50567W        W18785  10.805  36.136  14.354
50568W        W18786  30.707   6.932   2.752
50569W        W18787   0.232  26.394   2.243
50570W        W18788  41.063  38.976  11.190
50571W        W18789  27.710  14.785  14.798
50572W        W18790  13.631  19.184   0.354
50573W        W18791  16.260   0.342  11.546
50574W        W18792  11.193  18.632  12.887
50575W        W18793   9.452  39.519  14.863
50576W        W18794  44.940   2.430   1.674
50577W        W18795  24.081  38.907  12.756
50578W        W18796  16.813  27.148   1.385
50579W        W18797  32.011  36.874  10.600
50580W        W18798   7.940  16.669   0.373
50581W        W18799  31.919   5.517  13.860
50582W        W18800  25.420  20.195  13.316
50583W        W18801  40.862  29.200  10.727
50584W        W18802  28.609  20.945  10.237
50585W        W18803  11.897  25.571   0.698
50586W        W18804   1.897  25.528   2.356
50587W        W18805  41.796  44.981  14.035
50588W        W18806   9.877  23.163  13.883
50589W        W18807   8.232  12.330  13.867
50590W        W18808  26.914  24.952   0.938
50591W        W18809   5.785  30.072  13.974
50592W        W18810  21.233  23.646  10.998
50593W        W18811  24.751   5.377  14.763
50594W        W18812  16.070  35.792   1.803
50595W        W18813  17.845  12.297  11.195
50596W        W18814   9.928  43.727  11.121
50597W        W18815   0.531  16.577  11.843
50598W        W18816  32.651   5.945  11.985
50599W        W18817   4.798  13.761   0.756
50600W        W18818  28.247  41.301   1.875
50601W        W18819   0.210  19.633   4.567
50602W        W18820  25.209   1.812   0.952
50603W        W18821   6.791  35.854   3.459
50604W        W18822   1.223  19.567  11.226
50605W        W18823  18.305  26.635  10.759
50606W        W18824  25.132  20.640   3.110
50607W        W18825   0.478  25.965  13.019
50608W        W18826   4.460   7.721   1.377
50609W        W18827  43.987  32.988   3.235
50610W        W18828  25.736  41.673  13.146
50611W        W18829  37.501   2.076   1.949
50612W        W18830  16.098   2.912   2.253
50613W        W18831  44.575  13.861   3.389
50614W        W18832  24.461  32.946  14.931
50615W        W18833  22.504  11.203  12.964
50616W        W18834  37.629  18.539  14.340
50617W        W18835   3.783  42.066  11.507
50618W        W18836   0.406  11.885  14.525
50619W        W18837  27.309   5.866  11.743
50620W        W18838  34.580  43.981   0.948
50621W        W18839  25.548   5.871  14.915
50622W        W18840   7.363  26.481   0.489
50623W        W18841  32.877   5.228  10.273
50624W        W18842  19.961  20.276  12.967
50625W        W18843  34.487  15.078  14.944
50626W        W18844  17.808  40.438   1.940
50627W        W18845  15.232   5.171   4.716
50628W        W18846  12.161  11.094   4.648
50629W        W18847  32.197  36.460   3.725
50630W        W18848  34.689  32.542  14.951
50631W        W18849  20.022  24.067  14.006
50632W        W18850  22.031  17.117  11.530
50633W        W18851  19.965   1.940   4.066
50634W        W18852  29.621  13.217  14.984
50635W        W18853  10.612  29.879  14.249
50636W        W18854  11.579  32.301   4.139
50637W        W18855  25.356  33.506   4.193
50638W        W18856  21.088   5.311   2.386
50639W        W18857  21.802  27.984  10.824
50640W        W18858  14.557  29.463  13.829
50641W        W18859  36.925  27.928  13.949
50642W        W18860   5.212  27.522   3.726
50643W        W18861  32.687  26.237   4.164
50644W        W18862  24.965  15.138   4.443
50645W        W18863  43.468  26.122  12.070
50646W        W18864   6.903  32.015   1.161
50647W        W18865  12.855  22.572  13.758
50648W        W18866  40.301  27.567   0.864
50649W        W18867  11.111  21.025   3.758
50650W        W18868   7.900   8.755   1.197
50651W        W18869  28.910  11.827   1.643
50652W        W18870  10.162  37.348   4.559
50653W        W18871  10.591  40.497   3.397
50654W        W18872  43.314   0.952   1.319
50655W        W18873  11.636   1.115  13.309
50656W        W18874  26.071   9.084  11.747
50657W        W18875   8.029  25.216  12.575
50658W        W18876  26.240   8.302   3.511
50659W        W18877  26.919   2.236  11.528
50660W        W18878  43.394   1.977   2.279
50661W        W18879  21.683  39.460  11.801
50662W        W18880  34.292  33.114   0.257
50663W        W18881  42.009  30.380  10.075
50664W        W18882   2.973  11.789  12.410
50665W        W18883  35.483  11.903   4.337
50666W        W18884  19.134   8.115   1.520
50667W        W18885  43.534  20.349  13.460
50668W        W18886  22.910  44.582   1.030
50669W        W18887  32.141   5.748   1.236
50670W        W18888   3.262  23.906  13.077
50671W        W18889  19.086   6.599   3.184
50672W        W18890  28.705  23.019   3.061
50673W        W18891  30.334  32.395   4.167
50674W        W18892  43.987  10.124  12.975
50675W        W18893  39.641  44.912   1.729
50676W        W18894  21.754  37.807   0.452
50677W        W18895  11.346  12.999   1.888
50678W        W18896  23.589  26.254   3.603
50679W        W18897  17.020  32.285   0.993
50680W        W18898  16.587  19.035   1.902
50681W        W18899  29.064  37.071   0.450
50682W        W18900  26.591  34.045   4.661
50683W        W18901  32.362  41.974   5.231
50684W        W18902  27.050   2.926   0.903
50685W        W18903  40.300  35.924   4.801
50686W        W18904   6.093  25.341  13.460
50687W        W18905   5.245  10.637  14.747
50688W        W18906   8.093  39.065   2.641
50689W        W18907  28.913   4.009   2.912
50690W        W18908  17.159  23.488   2.699
50691W        W18909  35.307   0.079   1.321
50692W        W18910  19.902  29.031   4.290
50693W        W18911  13.401  37.322   1.440
50694W        W18912  12.534  44.507  11.199
50695W        W18913   6.730  17.122  11.610
50696W        W18914  42.253  42.862  10.467
50697W        W18915  12.120  16.593  14.577
50698W        W18916  29.591  38.854  13.901
50699W        W18917  11.367   0.891  14.684
50700W        W18918  25.766   9.723   4.603
50701W        W18919  41.366  41.725   2.313
50702W        W18920  19.716  22.437  11.504
50703W        W18921   3.462  27.792   0.748
50704W        W18922  22.016   5.321   1.903
50705W        W18923  12.369  13.829  11.236
50706W        W18924  22.141  38.002   0.083
50707W        W18925  13.375  35.540   1.703
50708W        W18926  34.317  44.793   0.409
50709W        W18927   5.977  42.648   3.661
50710W        W18928   2.471  13.620  11.610
50711W        W18929  31.908  23.168  13.036
50712W        W18930  18.107  19.837   0.715
50713W        W18931  15.635   0.356   3.623
50714W        W18932  37.996   2.482   3.140
50715W        W18933  27.522  36.215  12.363
50716W        W18934  43.754  11.139   4.148
50717W        W18935  38.432  41.284  10.504
50718W        W18936  38.961  35.378  12.532
50719W        W18937  31.117   8.649   2.860
50720W        W18938  37.894  39.494   4.459
50721W        W18939  13.357  34.018   3.712
50722W        W18940   4.937  12.238   2.301
50723W        W18941  15.628  42.314   4.665
50724W        W18942  15.147  30.628  10.503
50725W        W18943  31.085   8.433   3.782
50726W        W18944  22.513  28.491   0.124
50727W        W18945   0.016  24.240  11.149
50728W        W18946  42.993  26.533  14.751
50729W        W18947  25.246  37.819  13.873
50730W        W18948  15.947   5.156  14.984
50731W        W18949  36.000  21.105  14.851
50732W        W18950  24.040  44.555  13.472
50733W        W18951  18.711  12.431  14.286
50734W        W18952  44.586   5.407  10.442
50735W        W18953  37.971   6.750   1.173
50736W        W18954  40.818  33.971   4.140
50737W        W18955  31.161  41.819  13.813
50738W        W18956  38.790  24.580   2.835
50739W        W18957   9.743  35.513   4.247
50740W        W18958  27.692   0.936  11.674
50741W        W18959   2.545  43.430  14.546
50742W        W18960  31.130  24.052   2.813
50743W        W18961   5.859  22.029   4.284
50744W        W18962  33.107  26.937  11.612
50745W        W18963  21.458  43.919  12.926
50746W        W18964  19.750  17.530  14.844
50747W        W18965  12.282  44.965   2.699
50748W        W18966  17.144  38.862  11.819
50749W        W18967  36.480  15.316  14.355
50750W        W18968   8.786  40.987   3.606
50751W        W18969  33.572   4.100   4.223
50752W        W18970  11.601   9.860   2.802
50753W        W18971  31.356  25.544  14.050
50754W        W18972  21.301  44.867  11.556
50755W        W18973  16.231   1.635  12.361
50756W        W18974  35.140  16.048  11.016
50757W        W18975  32.626  21.231   4.683
50758W        W18976  33.058  40.031   1.169
50759W        W18977   8.103  27.500   2.706
50760W        W18978  22.638  18.314   1.003
50761W        W18979  35.376  44.070   1.357
50762W        W18980   1.730  18.701   3.437
50763W        W18981  24.727  34.957  12.953
50764W        W18982  20.042  14.608   1.425
50765W        W18983  30.924  31.587   4.214
50766W        W18984   0.292  40.779   0.570
50767W        W18985  22.197  21.675  13.562
50768W        W18986  39.863  34.294  13.794
50769W        W18987  17.768  17.049   4.901
50770W        W18988  24.676  43.993  12.942
50771W        W18989  30.634   6.221   4.761
50772W        W18990   5.687  42.822   4.037
50773W        W18991  14.443  20.851   2.357
50774W        W18992  16.709  10.155   3.692
50775W        W18993  19.436  27.949   4.846
50776W        W18994  39.241  37.915   2.781
50777W        W18995  32.152  10.160  13.111
50778W        W18996  26.888  39.652   2.368
50779W        W18997  11.889  24.545  14.859
50780W        W18998  42.122  29.066   2.922
50781W        W18999   3.900  14.131  12.614
50782W        W19000  21.974  42.972   4.076
50783W        W19001   7.204  10.359  14.026
50784W        W19002  11.276  35.529  10.686
50785W        W19003   4.203  35.563  10.859
50786W        W19004  26.939  28.079  11.157
50787W        W19005  17.679  39.089  13.084
50788W        W19006  18.567  35.346  11.114
50789W        W19007   8.407  40.951  14.526
50790W        W19008  41.000   2.495  11.557
50791W        W19009  12.218  43.301   1.349
50792W        W19010  41.251  11.159   0.422
50793W        W19011   7.747  18.503  10.821
50794W        W19012  14.323  20.275   1.394
50795W        W19013  18.515   6.812  11.031
50796W        W19014  26.452  29.221  11.957
50797W        W19015  39.951  28.718   4.410
50798W        W19016  28.576  36.319   0.012
50799W        W19017   1.449  37.863   2.552
50800W        W19018  31.404  17.231   4.431
50801W        W19019  30.687  13.435   4.097
50802W        W19020   2.834  38.379  14.034
50803W        W19021  10.699   3.092  13.584
50804W        W19022  22.605   1.776   1.915
50805W        W19023  28.371  12.802  14.610
50806W        W19024  30.966   7.742  14.969
50807W        W19025  12.117   6.960  12.509
50808W        W19026   3.167  19.753   4.617
50809W        W19027  14.762  38.327  10.636
50810W        W19028  33.403  35.940   2.674
50811W        W19029  37.101  33.875   2.540
50812W        W19030  29.925  24.974  11.206
50813W        W19031   8.453   0.648  13.063
50814W        W19032   2.013  37.128   1.237
50815W        W19033  32.149  22.789   2.084
50816W        W19034   9.938  36.337   1.698
50817W        W19035  42.745  28.131   2.833
50818W        W19036   1.526  23.961   3.064
50819W        W19037  30.855  27.728   4.979
50820W        W19038  41.092  41.003   3.164
50821W        W19039  38.002  27.659   4.188
50822W        W19040   1.327   5.255   1.730
50823W        W19041  28.464  15.537   2.338
50824W        W19042  19.936  43.247   4.527
50825W        W19043  32.468  41.651  14.530
50826W        W19044  19.762  12.102   2.742
50827W        W19045  39.986   3.266   1.376
50828W        W19046   8.580  25.243  11.764
50829W        W19047  10.701  19.735  12.504
50830W        W19048  32.815  10.155   4.149
50831W        W19049   1.362   9.824  10.691
50832W        W19050   6.782   8.150   2.748
50833W        W19051  44.386  36.317  12.448
50834W        W19052  31.784   8.875   4.297
50835W        W19053  36.983  38.929  13.070
50836W        W19054  14.401  32.602  12.409
50837W        W19055  40.442  15.700   4.518
50838W        W19056  11.808  17.856  14.460
50839W        W19057  36.084   9.293  12.988
50840W        W19058   5.410  25.639  12.934
50841W        W19059  27.183  43.512   0.304
50842W        W19060  22.535  33.097  12.524
50843W        W19061  15.658  16.182  14.465
50844W        W19062  44.959  44.235  11.081
50845W        W19063  20.929   5.911   0.934
50846W        W19064  34.578   0.781   4.552
50847W        W19065  25.721  36.610  13.922
50848W        W19066  42.365  39.969   2.073
50849W        W19067   8.017  36.687   4.612
50850W        W19068  16.609   7.459   2.711
50851W        W19069  40.733   0.460  13.321
50852W        W19070  19.554  20.874  11.667
50853W        W19071   9.075   6.744   0.203
50854W        W19072  33.730  16.068   2.829
50855W        W19073  40.477  42.389  10.671
50856W        W19074   1.947  36.613   1.279
50857W        W19075  37.805  35.539  11.525
50858W        W19076  17.062  21.712  12.076
50859W        W19077   5.242  15.704  12.391
50860W        W19078  30.014   3.217   0.487
50861W        W19079  16.621  21.503   2.972
50862W        W19080   6.878  41.332  11.108
50863W        W19081  29.911  17.146   3.926
50864W        W19082  32.925  10.960  11.642
50865W        W19083  35.055  34.212   2.655
50866W        W19084   5.925  25.897   3.857
50867W        W19085  19.008  29.152  11.337
50868W        W19086  26.200  30.013  14.495
50869W        W19087  31.246  32.973   4.733
50870W        W19088  26.720  31.029   3.781
50871W        W19089   3.525  38.072   2.001
50872W        W19090  18.159   3.170  12.953
50873W        W19091  38.376  34.414  14.888
50874W        W19092  39.007  32.211   3.644
50875W        W19093  31.039   8.184  11.235
50876W        W19094  25.637  26.376  10.104
50877W        W19095  31.571  28.998   4.775
50878W        W19096  36.161  26.148   9.832
50879W        W19097  29.393  14.582   2.259
50880W        W19098   9.156   8.326  11.995
50881W        W19099  37.347  19.093  13.517
50882W        W19100  43.820  33.591   0.473
50883W        W19101  23.439  13.242  12.846
50884W        W19102  34.336  30.978  10.665
50885W        W19103  42.788  42.759  14.749
50886W        W19104  37.548  25.511   0.018
50887W        W19105  19.176  29.958   3.655
50888W        W19106  35.433  25.265   0.369
50889W        W19107  33.077  12.634  12.481
50890W        W19108  33.027  11.821   2.747
50891W        W19109  35.827  10.703  12.898
50892W        W19110  17.697   6.492   1.198
50893W        W19111   5.312  43.012  14.857
50894W        W19112  28.904  39.209  10.874
50895W        W19113  44.056  15.341  13.588
50896W        W19114  14.950  27.558  14.999
50897W        W19115  32.611   1.844  12.452
50898W        W19116  42.431  41.757   2.972
50899W        W19117  21.566  12.232  10.911
50900W        W19118  30.211  28.937   2.241
50901W        W19119  27.654  37.800   0.265
50902W        W19120  44.521  14.225   4.543
50903W        W19121  18.812  32.610   1.262
50904W        W19122  24.209  29.407   0.304
50905W        W19123  24.149  25.247  13.530
50906W        W19124  32.558  12.775   4.565
50907W        W19125  17.044  16.012  13.302
50908W        W19126  21.163   9.000  10.402
50909W        W19127  35.804  40.847  12.507
50910W        W19128  17.575  30.942  13.409
50911W        W19129  18.307  23.924  11.519
50912W        W19130  21.641  27.121  14.539
50913W        W19131   5.955  15.284   1.511
50914W        W19132  42.805  30.877   0.115
50915W        W19133  37.907  39.005   3.591
50916W        W19134  44.048  38.628  14.229
50917W        W19135  27.188  29.075   3.218
50918W        W19136  40.792  22.105  12.894
50919W        W19137  37.630  19.360  10.623
50920W        W19138  40.371  14.946  14.191
50921W        W19139  19.025   0.913  12.991
50922W        W19140  26.497  17.326  11.617
50923W        W19141  37.616  15.453  11.926
50924W        W19142  43.289  26.524  10.781
50925W        W19143  41.368  25.661   1.442
50926W        W19144  17.789   6.962   1.476
50927W        W19145   6.802  13.621   0.135
50928W        W19146   3.898   0.218  14.915
50929W        W19147  39.717  17.566  13.348
50930W        W19148  32.977  10.086  11.444
50931W        W19149  28.585   6.690  12.311
50932W        W19150  12.013   6.571  13.829
50933W        W19151  19.587  40.924   1.057
50934W        W19152  26.508  31.594   2.270
50935W        W19153  39.428  39.811  10.979
50936W        W19154   3.720  30.330  12.529
50937W        W19155  21.651  32.148   0.228
50938W        W19156   1.288  32.662   3.631
50939W        W19157  15.018   6.897  14.339
50940W        W19158  16.670  28.914   4.606
50941W        W19159  34.546  20.132   2.630
50942W        W19160  20.560  25.746   1.614
50943W        W19161  17.847  12.524  13.795
50944W        W19162  13.936  13.615   2.838
50945W        W19163  37.697  11.757  10.866
50946W        W19164  24.547  17.489   1.039
50947W        W19165  18.166  23.108  13.298
50948W        W19166   4.660  29.596   0.144
50949W        W19167  33.378  14.344   3.106
50950W        W19168   6.293   2.781  12.819
50951W        W19169  32.964  16.543  14.598
50952W        W19170  20.328   9.379  13.027
50953W        W19171  33.444  31.902  11.161
50954W        W19172  13.712  31.997   1.822
50955W        W19173  22.073   1.446  12.861
50956W        W19174   2.502  22.138  10.791
50957W        W19175  44.229  42.455   0.350
50958W        W19176  34.227  20.350  12.847
50959W        W19177  39.458  36.217   0.946
50960W        W19178  25.239   0.194  13.067
50961W        W19179   4.647  22.265   3.694
50962W        W19180  25.503  10.188   3.616
50963W        W19181  15.621   0.954  12.669
50964W        W19182  10.408  12.686  14.440
50965W        W19183  44.899   5.950  12.600
50966W        W19184  18.933  44.849  11.158
50967W        W19185  39.044  31.088  14.298
50968W        W19186  13.436   9.912   3.791
50969W        W19187   7.430  41.082   2.288
50970W        W19188  24.189  34.193   2.380
50971W        W19189  25.616  22.477  11.255
50972W        W19190  31.702  22.108  12.429
50973W        W19191   3.903  36.169   0.694
50974W        W19192   1.801  41.800   4.475
50975W        W19193  26.927  15.748   2.249
50976W        W19194  22.604  21.272   1.213
50977W        W19195  15.545  26.114   2.417
50978W        W19196   3.703  35.011   3.200
50979W        W19197  12.777  41.923  10.510
50980W        W19198  43.792  11.647   0.785
50981W        W19199   7.297  22.779  12.439
50982W        W19200  43.200  44.316  10.747
50983W        W19201  37.261  15.349   4.129
50984W        W19202  27.045  35.924  14.452
50985W        W19203   1.735  43.950  13.920
50986W        W19204  34.674  29.111  10.486
50987W        W19205  12.773  31.343  14.170
50988W        W19206  37.404  43.049  12.031
50989W        W19207   0.377  31.862  14.602
50990W        W19208  27.487  28.580  13.276
50991W        W19209  44.557   7.134  13.065
50992W        W19210  25.117  15.585  13.555
50993W        W19211  33.588  31.100  11.838
50994W        W19212  39.672  43.843  11.182
50995W        W19213  25.676  44.611  10.577
50996W        W19214  40.853  15.350  10.694
50997W        W19215  15.318  14.238   0.730
50998W        W19216  44.996  12.967   3.784
50999W        W19217   7.866  12.276   0.465
51000W        W19218   3.272  30.080  12.597
51001W        W19219  18.537  39.473   1.738
51002W        W19220   3.827   6.320   1.013
51003W        W19221  23.722  42.916  10.722
51004W        W19222  28.242  33.519   4.074
51005W        W19223   6.426  24.662   4.622
51006W        W19224   7.118  29.514  10.974
51007W        W19225  38.249  35.459  13.464
51008W        W19226  17.641  44.372  10.165
51009W        W19227  34.044  13.641   1.832
51010W        W19228  40.955  27.770   0.379
51011W        W19229  12.356  31.083  11.137
51012W        W19230  32.293  25.681  13.095
51013W        W19231  10.301  25.653  11.288
51014W        W19232   5.158  43.306   0.272
51015W        W19233   8.645  38.563   1.277
51016W        W19234  19.991  19.057  11.707
51017W        W19235  11.333  15.359  12.925
51018W        W19236  41.312  33.438  12.882
51019W        W19237   0.728  29.579   4.118
51020W        W19238  41.395  43.003   0.830
51021W        W19239   1.759  37.966   3.264
51022W        W19240  30.250   9.286   1.900
51023W        W19241  32.086   5.203   2.268
51024W        W19242  33.321  39.211  11.073
51025W        W19243  24.253  23.862  11.577
51026W        W19244  42.064  28.940  11.913
51027W        W19245  41.000  22.983   0.075
51028W        W19246  25.598  44.416   2.451
51029W        W19247   5.472  10.648  11.083
51030W        W19248  18.311  17.084   0.864
51031W        W19249  15.298  35.860  14.831
51032W        W19250  31.302  16.055   3.304
51033W        W19251   0.290  35.948  11.581
51034W        W19252  44.312  34.118  13.421
51035W        W19253  22.723  19.216   4.046
51036W        W19254   3.045  10.857   3.156
51037W        W19255  15.691  36.465  14.297
51038W        W19256  24.257  11.548   1.582
51039W        W19257   4.853   6.581  11.696
51040W        W19258  24.618  32.817   1.424
51041W        W19259  11.161  31.945   0.871
51042W        W19260   9.170  16.155  12.111
51043W        W19261   7.773  16.848   3.323
51044W        W19262   6.641   3.691   3.639
51045W        W19263  32.071  15.679   0.728
51046W        W19264   9.408  41.482   1.433
51047W        W19265   1.486   2.407   1.166
51048W        W19266  40.251   1.973   5.120
51049W        W19267  27.858  12.668  11.584
51050W        W19268  25.813  31.681  10.804
51051W        W19269  22.984  14.637  14.967
51052W        W19270  38.053  15.275   3.572
51053W        W19271  43.005  23.017   1.775
51054W        W19272  18.540  43.010   3.123
51055W        W19273  21.768  37.423   3.840
51056W        W19274  22.428   4.274   3.662
51057W        W19275  42.272   8.747   0.239
51058W        W19276  17.925  39.033   0.257
51059W        W19277  42.701  42.027  12.337
51060W        W19278  22.582   7.275   4.523
51061W        W19279   0.496  20.520   0.977
51062W        W19280  41.373   7.339  14.058
51063W        W19281  35.503  15.191   3.315
51064W        W19282  40.314  31.193  12.348
51065W        W19283   3.906  40.045   2.768
51066W        W19284  26.718  10.833  10.408
51067W        W19285   5.763  12.126  13.739
51068W        W19286  20.933  16.137   0.386
51069W        W19287  26.509  21.018  12.100
51070W        W19288  43.021  23.279   0.837
51071W        W19289  41.523   9.351   4.130
51072W        W19290   3.020  22.585  12.429
51073W        W19291   6.360  38.789   3.739
51074W        W19292   0.405  33.674  13.834
51075W        W19293  35.247  34.894   1.263
51076W        W19294  23.682  10.837  13.952
51077W        W19295  24.120  33.876   2.786
51078W        W19296   2.181  25.015  14.392
51079W        W19297  29.957  37.616   0.232
51080W        W19298  30.872  30.880  11.579
51081W        W19299  27.368  11.600   1.822
51082W        W19300  14.229  28.186   3.401
51083W        W19301  29.385  33.101   0.982
51084W        W19302  15.851  42.828  11.992
51085W        W19303  18.379  28.172   0.427
51086W        W19304   0.693  41.880  13.769
51087W        W19305  24.673   2.284  14.479
51088W        W19306  22.427  13.843  10.865
51089W        W19307  33.626  33.657  11.456
51090W        W19308  12.709  37.798  13.189
51091W        W19309  11.083  37.518   4.734
51092W        W19310  29.414  37.531  11.958
51093W        W19311  26.250  18.605   4.273
51094W        W19312   7.932   2.636   4.867
51095W        W19313  41.051  29.525   0.821
51096W        W19314   8.928  25.741   4.123
51097W        W19315  27.984   5.086   3.036
51098W        W19316  29.617  36.117  14.758
51099W        W19317  39.964  17.292   4.033
51100W        W19318  25.454  14.179  11.605
51101W        W19319  30.853  30.986  12.455
51102W        W19320  33.695  40.919  14.967
51103W        W19321  19.204  39.611   0.293
51104W        W19322   3.758  11.107  10.548
51105W        W19323   1.044  39.829   1.213
51106W        W19324  43.564  14.721  12.579
51107W        W19325  34.533  36.962  12.879
51108W        W19326  20.969  28.399  12.449
51109W        W19327  18.530  40.695  10.797
51110W        W19328   1.235  37.072   3.466
51111W        W19329  27.168  18.884   2.267
51112W        W19330  17.469  29.105   2.379
51113W        W19331  31.409  27.594  14.295
51114W        W19332  41.566  19.703  11.595
51115W        W19333  31.771   0.284  13.016
51116W        W19334  13.409   2.999   4.308
51117W        W19335   4.066   4.282  13.417
51118W        W19336   9.783   2.459   0.803
51119W        W19337  15.270  18.004  10.694
51120W        W19338   3.843   6.964   4.836
51121W        W19339  20.350  36.580  12.146
51122W        W19340  24.185  34.647  11.474
51123W        W19341  30.929  34.925   0.858
51124W        W19342  29.301   1.047  13.260
51125W        W19343  28.431  19.528   1.847
51126W        W19344   1.048  38.053  11.396
51127W        W19345  12.955  37.546   0.708
51128W        W19346  44.783   4.891  11.619
51129W        W19347  35.573  16.473  12.804
51130W        W19348  17.708   4.564   0.429
51131W        W19349   8.719  34.850   1.277
51132W        W19350  13.989   9.295  12.625
51133W        W19351  39.410   3.171  14.050
51134W        W19352  29.627  28.705   0.968
51135W        W19353  41.544  22.757   3.041
51136W        W19354  25.891   1.184   4.714
51137W        W19355  27.595  26.525   3.673
51138W        W19356  16.293   7.647   0.975
51139W        W19357  16.861  26.537   1.698
51140W        W19358  15.154  30.535   0.461
51141W        W19359   6.422  37.768   3.685
51142W        W19360  35.393  35.038  14.976
51143W        W19361  30.841  15.716   0.548
51144W        W19362  42.043  25.463  11.030
51145W        W19363  41.019   1.249   4.379
51146W        W19364  10.784   9.404   1.867
51147W        W19365  14.199  43.936   3.862
51148W        W19366  15.196  12.344   3.705
51149W        W19367  28.067  24.236   5.172
51150W        W19368   7.110  38.073  12.927
51151W        W19369  33.715  36.012   4.969
51152W        W19370  24.941  20.736  13.028
51153W        W19371  25.550   3.293  12.299
51154W        W19372  24.268   1.001  13.401
51155W        W19373  30.098  34.816  11.520
51156W        W19374   5.387  21.425   1.943
51157W        W19375  39.504  12.270   4.142
51158W        W19376  24.715  21.764  10.958
51159W        W19377   8.894  27.990  13.063
51160W        W19378   0.802  16.164   4.648
51161W        W19379   1.161  18.966  10.044
51162W        W19380  32.999  29.491   2.237
51163W        W19381  35.115  22.444   0.384
51164W        W19382   6.664   4.092  11.484
51165W        W19383  43.855  19.112  14.756
51166W        W19384  17.567  24.163  11.943
51167W        W19385  28.996  15.688   1.802
51168W        W19386  12.822  21.054  13.435
51169W        W19387  33.214  23.720   4.052
51170W        W19388   6.096  15.175   1.030
51171W        W19389  23.745  24.203  12.842
51172W        W19390  24.531  14.861  13.971
51173W        W19391   6.359  42.791  10.658
51174W        W19392  41.770   2.464   4.142
51175W        W19393   6.343  39.450   5.086
51176W        W19394   2.738  29.886  12.955
51177W        W19395  15.796   5.847   0.418
51178W        W19396  36.578   2.524   1.870
51179W        W19397  43.241   7.145   3.770
51180W        W19398  41.839  24.922   0.071
51181W        W19399  34.996  43.369  14.097
51182W        W19400  18.483  13.493   0.183
51183W        W19401  29.061  44.244   0.333
51184W        W19402  11.282  18.776  12.397
51185W        W19403  25.927  40.429  11.029
51186W        W19404  43.797  26.187  11.216
51187W        W19405   7.356  44.111   4.594
51188W        W19406  29.548  36.996   4.399
51189W        W19407  15.134  28.947  14.265
51190W        W19408  11.375  31.801   4.997
51191W        W19409  15.652   1.612  10.656
51192W        W19410  17.800  15.675   4.790
51193W        W19411  11.166   9.156  11.871
51194W        W19412  18.653  37.487  11.951
51195W        W19413  21.147  15.679   0.270
51196W        W19414  27.291  22.051  14.797
51197W        W19415  42.289   8.827  14.724
51198W        W19416   9.362  25.551  14.261
51199W        W19417  13.675   7.240   3.690
51200W        W19418  43.047  31.388   2.438
51201W        W19419   0.168  30.456  11.048
51202W        W19420  36.053   2.294   5.066
51203W        W19421  12.855   9.644   3.193
51204W        W19422   1.832  28.960   4.140
51205W        W19423  28.865  39.882  11.610
51206W        W19424  27.999   9.828  14.875
51207W        W19425  44.312  16.565  12.867
51208W        W19426  21.500  39.358  14.913
51209W        W19427   9.437  40.410  10.752
51210W        W19428   1.552  16.378  10.854
51211W        W19429  17.849  18.000  14.431
51212W        W19430  16.824  15.602  11.469
51213W        W19431  23.485   4.271   2.819
51214W        W19432  35.047   5.273  13.386
51215W        W19433  39.844  28.488  14.329
51216W        W19434  30.007   3.374  12.454
51217W        W19435  23.538  13.073  11.524
51218W        W19436  41.175  11.265  10.526
51219W        W19437  21.494  34.420  14.362
51220W        W19438   2.490  41.305   2.682
51221W        W19439   6.909  40.037   3.641
51222W        W19440  23.291  34.399  14.249
51223W        W19441  13.198  25.603  13.435
51224W        W19442  28.114  33.075  13.087
51225W        W19443  32.805   9.265   0.450
51226W        W19444  11.564  20.175   1.243
51227W        W19445  22.677   1.025  10.552
51228W        W19446  18.192   6.434  11.151
51229W        W19447  19.599  17.226   2.647
51230W        W19448   4.974  11.098  13.565
51231W        W19449  32.402  43.838   3.730
51232W        W19450  34.118  38.856   2.504
51233W        W19451   2.721  34.182  12.895
51234W        W19452  15.124   4.671   4.671
51235W        W19453  35.641  19.089   0.368
51236W        W19454   3.984  31.979   3.437
51237W        W19455  43.862   4.123  12.790
51238W        W19456  17.342  34.490   1.143
51239W        W19457   5.368  27.385   0.764
51240W        W19458  32.067   3.390  13.940
51241W        W19459  41.950  14.330  10.870
51242W        W19460  16.271  31.205  11.517
51243W        W19461  34.538  39.394   2.637
51244W        W19462  17.988  35.441   2.728
51245W        W19463  27.299  10.733   3.955
51246W        W19464  40.358  15.278   2.835
51247W        W19465  16.776  38.093  12.331
51248W        W19466   6.382  22.170  13.360
51249W        W19467  28.516  10.327  11.010
51250W        W19468  26.173  38.586  12.603
51251W        W19469   5.380   6.480  12.117
51252W        W19470  29.242  18.274   1.423
51253W        W19471  42.344   2.253  13.405
51254W        W19472   1.736  29.468   4.129
51255W        W19473  36.534  19.650  11.245
51256W        W19474   1.756  13.510   2.533
51257W        W19475  33.519  28.463  12.062
51258W        W19476   3.518  22.952  11.619
51259W        W19477  24.209  30.237   2.287
51260W        W19478  21.407  31.463   3.148
51261W        W19479  26.459  12.590   0.363
51262W        W19480  29.059  40.583  13.791
51263W        W19481  27.548  44.996   1.150
51264W        W19482   0.834  38.474   1.662
51265W        W19483   9.469  44.758   0.821
51266W        W19484  11.875  24.679  10.717
51267W        W19485  32.368  40.956   4.674
51268W        W19486  18.578   5.392   1.470
51269W        W19487  40.568  37.447  12.819
51270W        W19488  11.686   3.515  14.915
51271W        W19489   8.762   6.177   1.680
51272W        W19490  34.372  26.766  12.301
51273W        W19491   9.039  19.312   2.068
51274W        W19492  25.077  30.441   0.855
51275W        W19493   5.456  37.447  13.418
51276W        W19494   0.719  17.319   1.245
51277W        W19495  36.119  13.392  12.661
51278W        W19496  13.848  12.071   3.637
51279W        W19497   7.773  14.306   4.008
51280W        W19498  30.101  18.645  12.842
51281W        W19499  18.432  19.182   1.186
51282W        W19500   4.189  24.208  13.952
51283W        W19501   4.377  36.379  11.966
51284W        W19502  35.439  26.907   0.759
51285W        W19503  26.940   8.293   0.771
51286W        W19504  28.077  34.597  14.691
51287W        W19505  36.934   7.649   1.383
51288W        W19506   0.449  36.274   0.879
51289W        W19507  39.486  28.626   1.679
51290W        W19508   5.564  33.098   2.029
51291W        W19509  42.899  33.689   2.139
51292W        W19510  18.518  27.128  10.644
51293W        W19511   8.199   2.476  13.587
51294W        W19512  35.831  33.766   5.081
51295W        W19513  37.890  33.393   4.224
51296W        W19514  21.544   7.980   3.824
51297W        W19515   9.264  38.077   2.817
51298W        W19516  30.970  23.230  11.341
51299W        W19517   2.384  40.297  14.627
51300W        W19518   1.255   4.459  10.691
51301W        W19519  17.551  17.688   3.676
51302W        W19520  37.869  16.773   1.925
51303W        W19521  11.141  33.233  14.469
51304W        W19522   0.233  37.909  10.784
51305W        W19523   2.549  41.678   0.384
51306W        W19524  24.117  39.905  10.401
51307W        W19525  28.668   8.168   0.397
51308W        W19526   0.336  18.253  13.946
51309W        W19527   8.731  22.939   3.553
51310W        W19528  34.284   1.317  10.792
51311W        W19529  41.322   2.774  11.070
51312W        W19530  32.738  10.193   2.765
51313W        W19531  25.312   3.078   5.029
51314W        W19532  31.229  39.357  14.381
51315W        W19533  13.407   9.342  14.743
51316W        W19534  25.992  18.957   0.413
51317W        W19535  24.877  12.302   0.309
51318W        W19536  34.322   0.922  14.398
51319W        W19537   7.560   3.956   4.348
51320W        W19538  30.168  27.033  12.452
51321W        W19539   7.730  22.991  11.572
51322W        W19540  10.358  35.956   4.387
51323W        W19541  19.630  15.921  12.767
51324W        W19542  14.787  10.016   1.818
51325W        W19543   5.487  32.776  13.634
51326W        W19544  14.682   1.285  12.104
51327W        W19545   3.019  22.779   1.443
51328W        W19546  21.801   0.384   0.358
51329W        W19547   5.305  27.002   3.604
51330W        W19548  18.182   8.408  10.864
51331W        W19549  22.257  25.126   3.623
51332W        W19550  38.369  39.094   1.337
51333W        W19551  31.095  25.003  11.546
51334W        W19552  11.334  11.857  11.805
51335W        W19553  44.644  20.379  12.436
51336W        W19554  25.137  11.310   1.994
51337W        W19555  33.438  23.775  14.397
51338W        W19556   7.504  19.195  10.995
51339W        W19557  18.106  14.692   3.353
51340W        W19558  44.432  42.084   2.946
51341W        W19559  41.259  34.414  12.184
51342W        W19560   2.912  38.233  14.922
51343W        W19561  12.686  42.496   2.886
51344W        W19562  36.827  13.756  11.055
51345W        W19563   9.586   5.813  12.166
51346W        W19564  38.855  32.787   2.766
51347W        W19565   9.774   9.136   2.751
51348W        W19566  42.065  44.975  11.326
51349W        W19567  18.745  31.175   4.360
51350W        W19568  21.035   3.213  12.008
51351W        W19569   2.189  39.687  11.548
51352W        W19570  31.662  22.685  12.984
51353W        W19571  26.540   8.831   3.358
51354W        W19572  42.329   3.856  10.534
51355W        W19573  35.466   8.418  12.870
51356W        W19574  31.567  43.365   2.834
51357W        W19575  25.436  32.366   0.268
51358W        W19576  26.024  18.273   2.621
51359W        W19577  25.146  11.845   4.733
51360W        W19578  31.529   8.235   4.585
51361W        W19579  11.646  20.610  12.040
51362W        W19580  35.837  25.969  14.974
51363W        W19581   3.533   4.431   3.063
51364W        W19582  13.565  21.456   3.167
51365W        W19583   7.605  20.711   0.195
51366W        W19584  39.965  17.086  14.936
51367W        W19585  40.995   9.815   2.274
51368W        W19586  25.753  28.282   4.055
51369W        W19587   0.347   7.358   1.230
51370W        W19588  39.249  39.855  13.315
51371W        W19589   5.214   2.955   4.753
51372W        W19590  12.256  13.800   4.315
51373W        W19591  27.407  26.634  11.665
51374W        W19592  33.450   2.903   2.061
51375W        W19593   8.396  28.429  13.845
51376W        W19594  32.457   9.374   0.826
51377W        W19595  36.698  34.254  13.279
51378W        W19596  34.956  43.507   2.336
51379W        W19597  32.042  14.441  14.987
51380W        W19598  42.296   3.613  12.537
51381W        W19599   4.814  43.735  10.637
51382W        W19600  42.364  29.249   2.218
51383W        W19601  27.487  22.665  12.646
51384W        W19602  35.852  11.984   3.968
51385W        W19603  16.184  24.059  14.303
51386W        W19604   0.888  12.629   3.285
51387W        W19605   1.820   6.766   1.157
51388W        W19606  12.302   7.669  12.948
51389W        W19607  11.662  30.133   4.932
51390W        W19608  41.126  20.117  11.183
51391W        W19609  33.603  43.831   3.149
51392W        W19610   2.463  16.122  13.000
51393W        W19611  41.831  39.790  14.735
51394W        W19612   4.546  23.037  13.438
51395W        W19613   3.506  39.682   2.726
51396W        W19614  17.763  18.552  11.507
51397W        W19615  40.808  11.283  14.025
51398W        W19616  27.990  39.019  14.974
51399W        W19617  24.763  25.866  13.561
51400W        W19618  22.480  34.406  11.160
51401W        W19619   1.810  28.982   0.538
51402W        W19620  37.428  20.367   0.344
51403W        W19621  29.711  10.758   2.782
51404W        W19622  29.769  29.689  12.072
51405W        W19623   0.434  28.677   3.732
51406W        W19624  32.033  25.437   2.245
51407W        W19625   3.213  34.174  12.656
51408W        W19626  12.297  21.816   2.591
51409W        W19627   7.732   0.705   0.339
51410W        W19628  39.828  37.377   1.692
51411W        W19629  37.132  17.202   4.791
51412W        W19630   4.755  36.820  11.507
51413W        W19631  28.526  40.931  11.617
51414W        W19632  30.155  10.692  14.725
51415W        W19633  21.653  43.054  13.660
51416W        W19634  33.075   8.744  12.502
51417W        W19635  38.202  29.727  11.743
51418W        W19636  39.621  16.271  13.080
51419W        W19637  42.005  32.610  10.467
51420W        W19638  20.659  25.050  13.825
51421W        W19639  27.281  20.186   4.372
51422W        W19640   4.691  27.027  12.122
51423W        W19641   7.317  34.213  10.967
51424W        W19642  37.876  31.891  10.294
51425W        W19643  24.108   4.801   0.975
51426W        W19644   7.376   3.854  13.496
51427W        W19645   8.174  41.661   2.361
51428W        W19646   6.763  14.119   3.326
51429W        W19647  17.804  26.598  10.656
51430W        W19648  14.604  32.058   3.356
51431W        W19649   9.433  30.124   1.251
51432W        W19650  35.568  43.695  12.941
51433W        W19651  16.642   0.963   0.251
51434W        W19652  33.214  17.302   1.273
51435W        W19653  13.136  22.095   4.373
51436W        W19654  43.781  29.620  11.944
51437W        W19655   3.676  43.599  11.547
51438W        W19656  31.462  30.336   5.315
51439W        W19657  42.984  11.311  10.338
51440W        W19658   8.657  44.560  10.940
51441W        W19659  18.082  28.221   3.506
51442W        W19660  43.808  43.606   3.950
51443W        W19661  17.012  24.209   3.204
51444W        W19662  18.904  12.205  13.277
51445W        W19663  22.387  28.131  11.950
51446W        W19664  28.004  42.061   1.430
51447W        W19665  29.973  24.342   4.962
51448W        W19666  42.213   2.696  10.659
51449W        W19667  33.898  22.026   1.383
51450W        W19668  36.328  39.477  11.448
51451W        W19669  40.105  36.499   2.252
51452W        W19670  14.912  41.315   4.087
51453W        W19671  11.711   1.912   4.001
51454W        W19672  31.348  32.994   2.025
51455W        W19673  16.075  32.081   4.065
51456W        W19674  22.010  35.301   0.648
51457W        W19675  17.142   2.864   4.900
51458W        W19676  44.285   9.594   1.711
51459W        W19677  19.105   8.252   4.241
51460W        W19678   4.530  26.296  13.195
51461W        W19679  40.255  25.478  11.501
51462W        W19680   3.272  17.380   4.200
51463W        W19681  39.527   4.480  11.146
51464W        W19682  22.003  24.558  12.819
51465W        W19683   4.962  31.814   0.218
51466W        W19684  30.408  37.013   4.542
51467W        W19685   9.890   5.816   3.797
51468W        W19686  28.535  32.173   3.185
51469W        W19687  30.689  38.623  12.611
51470W        W19688  23.244   9.256   3.257
51471W        W19689  23.250  15.831  13.377
51472W        W19690   9.444  41.680  11.424
51473W        W19691  35.671  30.664  13.206
51474W        W19692  31.873  14.351  14.505
51475W        W19693  32.337  17.749  14.866
51476W        W19694  36.385   6.131   2.439
51477W        W19695  11.924  37.393   4.148
51478W        W19696  31.591  19.238   3.177
51479W        W19697  28.517  22.899  11.928
51480W        W19698  41.835  32.109   4.629
51481W        W19699  26.621  41.269   4.287
51482W        W19700  17.784  10.318  14.775
51483W        W19701  26.313   3.643   1.869
51484W        W19702  12.043  25.003  12.018
51485W        W19703  35.521  13.709   1.684
51486W        W19704  38.818  16.191  12.127
51487W        W19705  12.931  24.624  10.638
51488W        W19706  33.197  20.080  12.227
51489W        W19707  16.692   5.279   2.658
51490W        W19708  20.787  35.868   2.660
51491W        W19709  41.321  22.866   0.868
51492W        W19710  13.847  12.801   2.489
51493W        W19711  34.318  42.861   2.025
51494W        W19712   1.845  41.755  10.531
51495W        W19713  17.551  17.511   4.999
51496W        W19714  41.363  12.691   0.798
51497W        W19715  36.990  30.961  14.699
51498W        W19716  40.149   3.767  10.346
51499W        W19717  19.935  23.023  13.519
51500W        W19718   9.155   1.799   4.490
51501W        W19719  36.530  35.220  13.036
51502W        W19720  33.874   6.399  11.586
51503W        W19721   5.910   4.891  14.124
51504W        W19722   6.255  39.520   3.069
51505W        W19723  29.797  35.852  13.908
51506W        W19724  35.368   3.377   3.796
51507W        W19725  33.339  42.429  14.978
51508W        W19726  11.311  28.002   3.725
51509W        W19727  34.123   1.446   2.728
51510W        W19728  42.229   4.728  10.717
51511W        W19729  10.187   4.752  12.554
51512W        W19730   3.649  31.363  13.318
51513W        W19731  44.913  11.314   4.407
51514W        W19732   0.709  25.447   1.816
51515W        W19733  26.211  11.061   4.270
51516W        W19734  15.001  12.701   1.756
51517W        W19735  35.456  25.465  10.531
51518W        W19736  24.490  22.112  13.083
51519W        W19737  43.026  24.668  10.638
51520W        W19738  27.191  13.126  12.372
51521W        W19739  26.616  22.410   1.013
51522W        W19740   3.761  28.157  13.408
51523W        W19741  39.559  30.595   2.336
51524W        W19742   9.184  25.273   4.261
51525W        W19743  23.668  16.556  10.595
51526W        W19744   5.709  25.705  13.810
51527W        W19745  24.539  20.057  14.131
51528W        W19746   7.160  30.985   2.001
51529W        W19747  43.072  34.062   4.765
51530W        W19748  36.899  35.780   3.792
51531W        W19749  19.177  37.343  11.858
51532W        W19750   0.707  20.903   4.056
51533W        W19751   7.515  44.883   2.189
51534W        W19752  26.058  34.597   2.724
51535W        W19753  44.849  18.102  13.763
51536W        W19754  37.226   8.697   1.790
51537W        W19755  38.969   9.650   2.770
51538W        W19756  41.322   8.392   0.948
51539W        W19757  17.321   0.431  10.654
51540W        W19758  34.998  24.153   3.079
51541W        W19759  24.433  15.664  11.122
51542W        W19760  34.218   1.187  12.148
51543W        W19761   4.976  10.858   1.727
51544W        W19762  20.310  11.350  11.245
51545W        W19763   3.962   4.767   0.819
51546W        W19764  30.000  20.685  12.420
51547W        W19765   4.326  25.438  13.378
51548W        W19766  37.420  38.843  13.330
51549W        W19767   6.140  12.185  10.741
51550W        W19768   2.586  23.184  10.687
51551W        W19769  14.280  24.824  13.358
51552W        W19770  42.785  14.811  10.556
51553W        W19771  32.823  27.275  11.967
51554W        W19772  43.090   4.022   1.789
51555W        W19773  35.044  37.081   2.893
51556W        W19774  19.285   8.116  14.920
51557W        W19775  40.800  38.577   3.690
51558W        W19776  44.747  26.875  14.352
51559W        W19777  18.822  25.472   3.097
51560W        W19778  40.517   4.238   3.158
51561W        W19779  25.242  24.889  12.464
51562W        W19780  38.242  11.677  13.648
51563W        W19781  19.007  29.391   4.351
51564W        W19782  23.568  35.339   2.427
51565W        W19783   6.217   1.885   0.473
51566W        W19784  10.300   8.129  12.581
51567W        W19785  39.416  28.156   0.395
51568W        W19786   3.200  37.409  12.973
51569W        W19787  20.363  21.642   3.183
51570W        W19788   6.014  35.329   1.530
51571W        W19789  37.777  12.842   0.482
51572W        W19790  30.553  34.032  11.489
51573W        W19791  33.400  25.597  13.914
51574W        W19792  43.444  13.250   4.470
51575W        W19793   8.579   4.900  10.645
51576W        W19794   8.711  35.222   5.217
51577W        W19795  31.063  28.710  10.676
51578W        W19796  28.623   9.483   1.633
51579W        W19797  13.889  37.865  12.512
51580W        W19798  29.570  41.477  10.790
51581W        W19799   3.863  25.964   2.527
51582W        W19800  36.131  42.399  11.185
51583W        W19801  22.496  14.772   0.747
51584W        W19802  38.050   4.817   0.940
51585W        W19803  25.102  31.346  11.603
51586W        W19804  12.331  36.497   0.051
51587W        W19805   6.745  35.532  14.456
51588W        W19806  10.751  37.074  11.552
51589W        W19807  25.779  38.863   3.888
51590W        W19808  35.860  38.312  11.093
51591W        W19809  16.310   8.967  12.516
51592W        W19810   4.273  39.695   2.648
51593W        W19811  28.959  22.649   1.018
51594W        W19812  13.295  15.551   5.046
51595W        W19813   2.352  33.628  12.663
51596W        W19814   1.485  13.340   4.188
51597W        W19815  25.816  38.960   1.016
51598W        W19816  37.755  43.942   3.564
51599W        W19817  25.800  13.004  13.423
51600W        W19818  25.217  34.967   4.891
51601W        W19819   3.932  14.455   3.712
51602W        W19820  25.917  24.015   2.859
51603W        W19821  23.932  43.672   3.706
51604W        W19822  41.500  16.278   0.862
51605W        W19823  30.046  27.511  12.768
51606W        W19824  26.263  38.424  10.582
51607W        W19825   4.560  26.158  11.218
51608W        W19826  30.538  40.010  11.715
51609W        W19827  16.727  39.179   1.301
51610W        W19828   8.057   2.758   2.934
51611W        W19829  16.080  25.978  12.497
51612W        W19830  21.108  19.790  11.457
51613W        W19831  11.730   5.409   2.452
51614W        W19832  13.121  38.357   2.278
51615W        W19833  12.343   1.049  12.172
51616W        W19834  40.260   0.757   3.305
51617W        W19835   4.787   4.282   4.657
51618W        W19836  22.118   1.273  10.573
51619W        W19837   6.954   8.907  12.004
51620W        W19838  38.652  26.233   4.951
51621W        W19839  17.484  12.118   4.876
51622W        W19840  38.296  15.158  14.303
51623W        W19841  26.714   4.774  14.022
51624W        W19842  43.981  21.049  13.748
51625W        W19843  14.067  43.993  13.373
51626W        W19844  29.441  18.754   1.415
51627W        W19845   5.866  17.284  14.932
51628W        W19846  39.461  33.194   2.274
51629W        W19847  44.413  33.759  13.023
51630W        W19848   4.690  34.020   0.764
51631W        W19849  36.534   1.018   4.589
51632W        W19850  39.423   7.470   0.033
51633W        W19851   4.864  33.792  12.854
51634W        W19852  35.344  25.427   1.918
51635W        W19853   5.493   7.257  11.148
51636W        W19854  37.545  14.643  14.156
51637W        W19855  34.128  16.554  13.078
51638W        W19856  33.957  18.010  11.530
51639W        W19857   4.234  40.840  12.086
51640W        W19858   9.808  37.825   0.367
51641W        W19859  22.953  23.114  10.716
51642W        W19860  22.490  16.711   4.560
51643W        W19861   3.367  35.864   3.683
51644W        W19862   7.256  40.910   3.894
51645W        W19863  27.948  37.307  10.561
51646W        W19864  33.529  12.501   4.537
51647W        W19865  38.427  25.109  11.127
51648W        W19866  23.585  28.115  12.847
51649W        W19867   5.092  18.714   1.003
51650W        W19868  16.722   3.767  10.699
51651W        W19869  22.764  34.527   2.467
51652W        W19870  31.045   3.129  10.675
51653W        W19871   2.258  21.613   4.256
51654W        W19872  15.171  38.006   4.815
51655W        W19873  40.519   9.884   3.735
51656W        W19874  26.636  38.086  12.022
51657W        W19875  28.453   7.406   2.590
51658W        W19876  34.018  14.853   1.163
51659W        W19877  32.515  30.046   1.867
51660W        W19878  42.377  13.695   0.859
51661W        W19879  35.042  36.291   0.371
51662W        W19880  16.268   0.104  14.051
51663W        W19881  26.024  13.261  10.377
51664W        W19882  12.550  27.055   3.342
51665W        W19883  29.348  22.695   9.615
51666W        W19884   1.445   1.030  14.885
51667W        W19885  23.674   0.411  11.373
51668W        W19886  39.036  25.600  14.871
51669W        W19887  38.485   5.767  11.978
51670W        W19888   4.180  15.206  11.586
51671W        W19889   6.956  35.293   2.039
51672W        W19890  19.479  37.333   4.621
51673W        W19891  14.633  40.353  13.787
51674W        W19892   7.715  17.228   1.806
51675W        W19893  33.992  26.640  12.626
51676W        W19894  44.619  22.093  10.758
51677W        W19895   2.151   3.642  11.187
51678W        W19896  11.563  41.259   1.807
51679W        W19897  10.641  35.547   4.536
51680W        W19898  28.678  24.263   4.463
51681W        W19899  26.787  22.344   4.990
51682W        W19900   0.121   8.912  13.514
51683W        W19901   9.223  20.966   1.403
51684W        W19902  10.562  13.811   3.887
51685W        W19903  31.706   8.946   3.394
51686W        W19904  18.059  36.966  11.601
51687W        W19905  11.042  44.403  13.585
51688W        W19906  24.065  12.362   2.297
51689W        W19907  10.069  40.429   3.441
51690W        W19908  13.263   4.848   4.580
51691W        W19909  20.500  16.124  12.536
51692W        W19910  11.602  11.511   1.298
51693W        W19911  29.485   5.077   5.073
51694W        W19912  43.036   8.413  10.659
51695W        W19913  38.607   2.721  12.111
51696W        W19914   5.762   8.481   4.901
51697W        W19915  40.201  42.305   0.473
51698W        W19916   9.297   5.033   0.405
51699W        W19917  12.630  27.022  10.945
51700W        W19918   1.525  20.555  12.484
51701W        W19919  18.093  43.279  13.195
51702W        W19920   6.320  26.505   2.959
51703W        W19921   5.262  15.908  11.374
51704W        W19922  23.415  22.699  13.584
51705W        W19923  18.016  38.164  13.994
51706W        W19924  14.057   7.322   2.040
51707W        W19925  34.012   0.888  10.412
51708W        W19926  36.852  38.860  14.916
51709W        W19927  39.998  23.767   1.389
51710W        W19928  22.082  28.526  14.814
51711W        W19929  26.889  43.552   1.208
51712W        W19930   1.837  19.788   2.749
51713W        W19931  15.150  28.716   2.609
51714W        W19932  30.029  21.116   3.538
51715W        W19933  38.119  10.622  14.745
51716W        W19934   2.376  13.100  11.624
51717W        W19935  13.572  33.429  12.553
51718W        W19936  39.095  32.854   2.307
51719W        W19937  28.479  18.296   0.436
51720W        W19938  25.730  29.011  13.493
51721W        W19939  15.977  38.505   2.123
51722W        W19940  14.147  15.074   3.561
51723W        W19941   3.823   4.625   1.701
51724W        W19942  38.454   5.732  11.456
51725W        W19943  33.578  26.106  13.866
51726W        W19944   0.013  32.066   3.231
51727W        W19945  12.696  29.903   0.637
51728W        W19946  19.088  38.983  10.451
51729W        W19947  24.886  38.771  11.005
51730W        W19948   0.364  32.389  14.459
51731W        W19949   2.209  25.656   0.838
51732W        W19950  21.988  17.222   4.016
51733W        W19951  37.824  11.459   3.053
51734W        W19952  18.846  35.909  11.600
51735W        W19953  42.385  14.254   2.878
51736W        W19954  13.535  38.938   1.754
51737W        W19955  11.397  29.985   1.211
51738W        W19956  15.815  30.926  11.590
51739W        W19957   5.311  26.057   4.585
51740W        W19958  24.065  14.032   4.068
51741W        W19959  31.024  11.874   9.935
51742W        W19960  29.156  28.093  14.119
51743W        W19961  19.108  30.561  13.484
51744W        W19962   7.212  23.289   1.286
51745W        W19963  38.291  35.626   2.711
51746W        W19964   1.545   4.827  14.513
51747W        W19965  11.589   3.190   1.758
51748W        W19966   9.811  34.529  14.777
51749W        W19967  18.562  37.630  10.377
51750W        W19968  24.136  16.742  12.004
51751W        W19969  30.089  17.247  13.256
51752W        W19970   9.185  38.659  10.967
51753W        W19971  13.587  13.749  12.452
51754W        W19972  33.395   1.383  11.536
51755W        W19973  12.731  35.682   3.712
51756W        W19974  18.801  30.714   3.414
51757W        W19975   1.242  18.032  14.067
51758W        W19976   6.870  34.529   2.055
51759W        W19977  21.603  17.271  11.791
51760W        W19978  44.944  32.638  14.903
51761W        W19979  43.414   0.286   4.786
51762W        W19980  43.116  12.562   3.700
51763W        W19981  15.647  12.689   3.649
51764W        W19982  12.516   5.918  14.198
51765W        W19983  18.037  33.368  10.639
51766W        W19984  15.472  18.926  12.824
51767W        W19985  42.517  29.947  12.803
51768W        W19986  17.069   4.975  13.946
51769W        W19987  19.029  10.621   2.180
51770W        W19988  38.012  28.721  13.503
51771W        W19989   3.882   3.426   4.216
51772W        W19990  10.728  34.977   2.489
51773W        W19991  25.242  21.508   3.162
51774W        W19992  35.139  25.066   3.725
51775W        W19993   4.686  30.235   3.675
51776W        W19994  32.833  21.519   4.262
51777W        W19995   3.811   2.876   4.070
51778W        W19996   3.267  12.863   4.759
51779W        W19997  27.341  30.401  13.068
51780W        W19998   7.152  41.499  14.549
51781W        W19999  17.641  30.724   1.255
51782W        W20000  40.014  31.404  14.441
51783W        W20001  18.027  18.286  11.988
51784W        W20002  35.597   3.326  12.398
51785W        W20003  26.492  16.314  12.521
51786W        W20004  44.899  26.675  14.835
51787W        W20005  15.682  31.866  14.392
51788W        W20006  26.144  27.184  11.496
51789W        W20007  22.042  10.650   0.863
51790W        W20008  31.619  44.235  11.205
51791W        W20009  22.045  31.997   1.065
51792W        W20010  30.223  22.957  14.814
51793W        W20011  14.974   0.984   2.651
51794W        W20012  19.479  37.815   0.503
51795W        W20013  16.766  18.100  12.598
51796W        W20014  21.855  43.937   1.442
51797W        W20015  41.455   8.086   0.205
51798W        W20016  41.682  12.398  14.438
51799W        W20017  43.117  43.875  12.069
51800W        W20018  44.700   5.529  12.881
51801W        W20019  14.085   7.324  13.423
51802W        W20020   7.294  10.359  14.529
51803W        W20021  25.261   4.315   2.269
51804W        W20022  22.946  38.291  12.806
51805W        W20023  33.202  36.078   3.119
51806W        W20024  17.706  38.697  13.481
51807W        W20025   4.726  19.065  12.842
51808W        W20026   2.460   1.849  11.266
51809W        W20027  14.047   8.923   3.540
51810W        W20028  37.329  22.570   4.875
51811W        W20029  24.134  42.634  12.449
51812W        W20030  14.242  11.593   0.248
51813W        W20031  39.590  32.634   3.617
51814W        W20032  20.755   5.773   2.273
51815W        W20033  13.753  34.346  11.048
51816W        W20034  19.157   3.735  13.459
51817W        W20035   3.752  43.520  12.872
51818W        W20036  31.135  36.096  13.046
51819W        W20037  29.679  39.758  10.886
51820W        W20038   0.014  26.677   1.335
51821W        W20039  19.589  18.869   4.125
51822W        W20040  37.941  36.583  11.220
51823W        W20041  26.645  17.582   4.080
51824W        W20042  29.180   2.779   0.903
51825W        W20043  17.305  40.138   3.622
51826W        W20044   9.323   0.173   3.663
51827W        W20045  33.423  25.106   5.051
51828W        W20046  15.319  25.957   1.563
51829W        W20047   3.775  36.488  12.615
51830W        W20048  26.421  21.678   9.533
51831W        W20049  14.438  36.308   1.167
51832W        W20050  26.384  28.180   1.389
51833W        W20051  40.743  35.074   4.225
51834W        W20052  36.501   7.356   1.276
51835W        W20053  24.476  44.393   0.921
51836W        W20054   8.854   2.745  11.069
51837W        W20055  24.962  15.799   2.208
51838W        W20056  22.963  13.052  12.891
51839W        W20057  44.985  40.371   0.380
51840W        W20058  11.826  23.980  12.014
51841W        W20059  34.042  38.439  14.742
51842W        W20060  32.530  34.907   4.546
51843W        W20061  33.253  42.131  12.435
51844W        W20062   6.141  36.010   3.673
51845W        W20063  31.402  27.923   2.682
51846W        W20064   6.837  30.386   4.512
51847W        W20065  25.360  23.568   2.391
51848W        W20066  19.880   4.298  13.909
51849W        W20067  41.474  34.668   4.577
51850W        W20068   5.097   9.981   2.375
51851W        W20069   7.381  19.469  12.652
51852W        W20070   3.415  35.859   1.183
51853W        W20071   7.867  28.485   0.911
51854W        W20072   3.510  33.962   4.485
51855W        W20073  39.554  13.583   1.318
51856W        W20074   5.902  33.087   3.225
51857W        W20075  10.288  27.265   2.233
51858W        W20076  19.775   6.651   2.767
51859W        W20077  29.665  16.796   1.299
51860W        W20078  27.989  10.348   0.235
51861W        W20079  33.144  18.940   1.618
51862W        W20080  36.621  12.232  11.604
51863W        W20081  37.361  28.534  14.674
51864W        W20082  29.509  11.577   2.265
51865W        W20083  28.050  26.286   2.480
51866W        W20084  13.929   7.691  11.454
51867W        W20085  19.048   9.741  14.000
51868W        W20086   1.502   0.062   0.697
51869W        W20087  13.740  14.615  14.812
51870W        W20088  35.240  27.863   0.849
51871W        W20089  10.862  11.867   4.409
51872W        W20090  15.689  26.538  11.489
51873W        W20091   0.747  35.947  14.815
51874W        W20092   3.810  15.129   1.362
51875W        W20093  34.401   6.868   2.794
51876W        W20094   0.756   5.468   4.356
51877W        W20095  38.274  18.959  12.648
51878W        W20096  19.058   7.895  10.938
51879W        W20097  44.535  40.518  13.874
51880W        W20098  35.052  14.463   0.484
51881W        W20099   7.433  39.449   0.781
51882W        W20100  10.157  26.631   3.775
51883W        W20101   8.764  32.475   3.837
51884W        W20102  43.885  41.156   2.361
51885W        W20103  26.680  33.943  11.173
51886W        W20104  12.872   0.953  10.755
51887W        W20105  36.034  25.905   3.940
51888W        W20106   6.807  25.086  11.336
51889W        W20107   5.851   3.266  14.760
51890W        W20108  17.198  29.977   1.498
51891W        W20109  37.551  29.460   3.711
51892W        W20110  15.535   5.806   2.825
51893W        W20111   3.058  44.721   4.417
51894W        W20112  36.020  19.604  13.103
51895W        W20113   9.976  15.562   4.484
51896W        W20114  17.256  28.713   0.776
51897W        W20115  39.383  17.465  10.828
51898W        W20116  41.003  21.501   3.755
51899W        W20117   0.638  36.886  13.801
51900W        W20118  12.749   4.879   3.724
51901W        W20119  13.148  17.080   4.035
51902W        W20120  31.020  22.093  14.313
51903W        W20121  32.880   4.407   1.862
51904W        W20122  34.840  29.216   4.060
51905W        W20123   4.627  24.194   5.011
51906W        W20124  37.973  20.605   4.128
51907W        W20125  15.578  17.612  14.400
51908W        W20126  19.530  24.233  13.180
51909W        W20127  26.666  21.281  12.528
51910W        W20128   7.804  21.118   1.661
51911W        W20129   3.397   6.033   4.492
51912W        W20130  22.269  35.434  12.785
51913W        W20131   2.350  41.453  10.778
51914W        W20132  10.667  35.167  14.592
51915W        W20133  29.622  12.186   3.694
51916W        W20134  37.152  30.520   2.045
51917W        W20135  12.999   2.273   4.192
51918W        W20136   7.416  14.620  11.202
51919W        W20137  30.080  21.633   2.361
51920W        W20138  20.516   9.744  13.828
51921W        W20139  17.753  25.546   1.102
51922W        W20140   0.843   1.366   3.861
51923W        W20141  42.990  22.489  10.778
51924W        W20142  38.047   3.321   2.493
51925W        W20143  29.354   1.835  10.778
51926W        W20144  13.644  34.347   3.986
51927W        W20145  18.117  11.159   9.990
51928W        W20146  22.467   1.737  13.083
51929W        W20147  20.678   8.739   2.931
51930W        W20148  26.552  25.079   1.604
51931W        W20149  13.781  14.744  10.421
51932W        W20150   3.421  18.663   2.354
51933W        W20151   6.457  16.663   4.376
51934W        W20152  19.127  33.837   4.600
51935W        W20153  22.224   2.011  12.027
51936W        W20154  26.507  10.259   1.243
51937W        W20155  43.969  33.852  13.759
51938W        W20156  14.333  42.906  14.946
51939W        W20157   1.516  44.996   4.682
51940W        W20158  28.945  14.741   0.386
51941W        W20159  32.812  11.718  12.619
51942W        W20160  27.955  27.690  11.041
51943W        W20161   7.816   4.670  14.578
51944W        W20162  42.518  29.028  10.948
51945W        W20163  43.834  22.519  11.867
51946W        W20164   9.582   8.957  12.674
51947W        W20165   8.146  18.849  12.396
51948W        W20166  43.482  32.982  14.379
51949W        W20167  22.559  34.576   1.195
51950W        W20168  41.324  44.796   2.284
51951W        W20169  43.925  19.189   4.193
51952W        W20170  22.577  19.805   0.620
51953W        W20171  19.538   7.196   1.843
51954W        W20172  13.419  22.664   0.370
51955W        W20173   3.644  19.925  11.015
51956W        W20174   4.073  30.908   3.250
51957W        W20175   2.718  29.361  12.124
51958W        W20176  33.926  18.252   2.377
51959W        W20177  36.579  34.089   3.844
51960W        W20178  33.863  14.551   4.406
51961W        W20179  14.226  10.578  11.556
51962W        W20180  36.571  25.173   4.497
51963W        W20181  23.537  18.316  11.510
51964W        W20182  14.559  39.472   4.229
51965W        W20183   5.146  11.377  10.624
51966W        W20184  38.095  16.862  12.104
51967W        W20185  39.686  16.603   1.812
51968W        W20186  28.713  32.120  11.185
51969W        W20187   7.389  19.599   4.897
51970W        W20188  29.343  43.750  13.947
51971W        W20189  27.403  39.157  12.346
51972W        W20190  39.922  35.866   0.707
51973W        W20191  25.859  12.304   2.402
51974W        W20192  19.369  13.008   1.831
51975W        W20193  23.616  14.129  11.745
51976W        W20194  34.874   6.629   2.756
51977W        W20195  41.415  37.085  10.735
51978W        W20196   6.133  21.759   0.266
51979W        W20197  11.775  43.329   3.221
51980W        W20198   7.046  11.497  14.936
51981W        W20199  24.047  20.751  11.036
51982W        W20200  31.536   8.672  10.514
51983W        W20201  11.649  30.116  11.002
51984W        W20202   4.127  31.983   9.932
51985W        W20203  41.747   4.343  11.993
51986W        W20204  11.464  13.622   0.614
51987W        W20205  34.951  35.225   0.339
51988W        W20206   8.658   6.681  12.349
51989W        W20207  24.714  27.236  14.469
51990W        W20208  30.749  27.314  13.810
51991W        W20209   9.467   5.968   3.533
51992W        W20210   1.742  10.234  13.544
51993W        W20211  33.240  39.433   1.863
51994W        W20212  41.929  41.882   1.548
51995W        W20213  35.329  29.392  14.620
51996W        W20214  14.808   7.843  13.390
51997W        W20215  35.913  39.439   2.733
51998W        W20216   8.787  27.371   3.300
51999W        W20217  23.954  37.734  11.222
52000W        W20218  42.829  10.769  12.986
52001W        W20219   3.728   8.062   3.753
52002W        W20220  31.954  35.150  13.105
52003W        W20221  11.717  16.157  12.077
52004W        W20222  40.743   8.257  11.212
52005W        W20223  23.000   4.385  10.445
52006W        W20224  34.680   6.635  11.925
52007W        W20225  38.881   8.598   2.722
52008W        W20226   2.858  43.511   2.780
52009W        W20227  10.789  26.206  12.415
52010W        W20228  32.169  20.345  13.863
52011W        W20229  16.557  26.215  11.641
52012W        W20230   0.199  14.804   2.562
52013W        W20231  33.495  37.564  12.830
52014W        W20232  29.863  31.460   4.108
52015W        W20233  27.062  43.851  13.042
52016W        W20234  19.461   0.224   3.129
52017W        W20235  31.708   5.421   4.995
52018W        W20236  22.610  15.572  12.457
52019W        W20237  43.932  43.527   1.151
52020W        W20238   6.655  34.459  12.079
52021W        W20239  10.345  19.121   4.177
52022W        W20240  18.156  12.324   1.193
52023W        W20241   5.228  27.992   1.789
52024W        W20242  30.871  10.677   4.112
52025W        W20243  13.334  17.486  14.037
52026W        W20244   5.462  22.698   3.592
52027W        W20245  18.727  36.968  14.679
52028W        W20246  13.119  33.360   3.672
52029W        W20247  37.899  16.669   2.959
52030W        W20248  30.664  37.535   1.919
52031W        W20249  31.377   0.697  13.470
52032W        W20250  43.962   9.759   1.291
52033W        W20251  19.162  36.811   3.615
52034W        W20252  35.677  27.082  14.801
52035W        W20253  28.490  33.565   4.544
52036W        W20254  15.617  28.519   1.231
52037W        W20255  29.372   9.288  11.476
52038W        W20256  35.503  17.876  14.977
52039W        W20257  36.936   0.284  11.497
52040W        W20258  44.818  20.220  14.876
52041W        W20259  27.671  27.666  12.960
52042W        W20260   7.732   7.658  13.427
52043W        W20261  20.578   3.352   0.321
52044W        W20262   7.178  34.969  12.585
52045W        W20263  35.475  20.689   0.810
52046W        W20264   3.313  33.518   0.269
52047W        W20265  29.899  23.106   3.806
52048W        W20266  21.140  33.043   9.761
52049W        W20267  27.244   1.459   2.743
52050W        W20268  39.868   4.973  10.649
52051W        W20269  28.690  23.047   0.861
52052W        W20270  25.250  25.233   4.479
52053W        W20271  43.013  30.017  12.930
52054W        W20272  21.209  12.728  11.557
52055W        W20273  12.572   6.786   3.251
52056W        W20274   4.136  41.550   2.255
52057W        W20275  17.360  17.446   1.808
52058W        W20276  29.427  37.813   4.352
52059W        W20277  22.180  42.277  13.546
52060W        W20278  18.597  36.882  13.783
52061W        W20279   7.300  34.062  10.478
52062W        W20280  25.787  37.964  12.084
52063W        W20281   6.407  37.454   4.636
52064W        W20282  17.599  30.512   3.206
52065W        W20283   2.946   8.525   4.765
52066W        W20284  33.491  11.323  12.376
52067W        W20285  12.265  12.316  11.362
52068W        W20286  40.336  23.922  13.935
52069W        W20287  22.738  20.109  12.911
52070W        W20288   1.854  37.516   3.812
52071W        W20289  34.579  42.808  12.366
52072W        W20290  13.015   8.155  13.449
52073W        W20291  11.958  20.364  12.427
52074W        W20292   1.048  24.502  14.666
52075W        W20293  17.107  19.007   1.847
52076W        W20294   3.329  37.718   4.692
52077W        W20295   6.664  31.179  13.039
52078W        W20296   6.357  30.515  14.473
52079W        W20297  42.825  33.400   4.572
52080W        W20298   3.506  23.193   4.355
52081W        W20299   5.153  23.210  10.547
52082W        W20300  42.312  34.313  11.383
52083W        W20301   6.253   5.266  11.034
52084W        W20302  24.562  28.143  10.580
52085W        W20303  11.971   3.343  12.599
52086W        W20304   7.344  33.130   1.215
52087W        W20305  18.600  41.071   4.160
52088W        W20306  43.044  13.382   0.318
52089W        W20307  36.445  29.584   4.639
52090W        W20308  36.839  25.463   1.957
52091W        W20309  10.336  17.116  11.923
52092W        W20310  19.238   8.285   1.986
52093W        W20311  17.483  36.984  14.562
52094W        W20312  39.820  20.250  10.605
52095W        W20313  10.735  42.276  11.466
52096W        W20314  43.828   5.777  13.133
52097W        W20315  39.640  32.663   1.459
52098W        W20316  35.617  22.456   0.306
52099W        W20317   6.347  36.931   3.243
52100W        W20318  29.735  40.437   2.332
52101W        W20319   1.318   6.015  13.957
52102W        W20320   2.373   4.321   3.113
52103W        W20321  40.050  31.862  11.597
52104W        W20322  34.792  29.983   2.106
52105W        W20323   0.722  20.662  14.289
52106W        W20324  38.554  22.476   1.205
52107W        W20325   0.941  33.337  13.758
52108W        W20326  17.780  20.206   0.952
52109W        W20327  33.923   4.969   0.384
52110W        W20328  15.867  30.600   3.237
52111W        W20329  12.195  22.741  13.126
52112W        W20330  35.751   6.004   3.182
52113W        W20331  16.811  36.086   2.701
52114W        W20332  31.364  38.062  14.872
52115W        W20333  14.290  28.228  14.950
52116W        W20334  12.092  15.994   4.537
52117W        W20335  32.452  15.151   4.081
52118W        W20336   1.047  25.620  14.887
52119W        W20337  43.673  40.644  11.097
52120W        W20338   9.114  19.028  10.447
52121W        W20339  21.603  38.433  14.553
52122W        W20340  32.614   3.694   1.371
52123W        W20341  43.826  31.320  11.530
52124W        W20342   9.806  44.655   2.971
52125W        W20343   8.649  18.844  14.775
52126W        W20344  37.300  44.199  12.994
52127W        W20345  14.622  39.826   4.890
52128W        W20346   2.990   7.872   2.784
52129W        W20347  28.224   0.480  10.870
52130W        W20348   4.366  10.378  12.035
52131W        W20349  33.785  28.039  14.540
52132W        W20350  26.613  44.899   2.248
52133W        W20351  38.839   0.489   4.606
52134W        W20352  16.028  39.733   1.841
52135W        W20353   0.919  30.928  13.468
52136W        W20354  12.904  11.407   3.314
52137W        W20355   8.485  15.642   2.876
52138W        W20356   2.500   5.949  12.491
52139W        W20357   0.047  29.245   0.150
52140W        W20358  39.426  31.632   1.335
52141W        W20359  10.650  37.380   2.388
52142W        W20360  23.182  14.580   2.351
52143W        W20361  18.032  27.561   1.061
52144W        W20362  13.876   2.862   0.915
52145W        W20363  13.405   1.564   0.882
52146W        W20364   0.648  19.932  13.306
52147W        W20365  28.579  22.725   4.633
52148W        W20366  29.304   5.520  10.505
52149W        W20367  17.513  16.586   0.518
52150W        W20368  18.683   9.728  11.871
52151W        W20369  11.107   2.753   4.654
52152W        W20370  33.586  33.221   2.509
52153W        W20371   7.863   8.095   4.124
52154W        W20372  39.079  43.559   0.775
52155W        W20373  37.642  34.069  12.829
52156W        W20374   7.947   1.426   4.897
52157W        W20375  26.043  16.017  12.529
52158W        W20376   8.738  15.144  10.235
52159W        W20377  18.010  21.681  12.873
52160W        W20378  27.697  36.009  13.056
52161W        W20379  10.203   5.190   4.256
52162W        W20380  33.545  22.731  12.106
52163W        W20381  29.036  22.209  11.092
52164W        W20382  28.916   9.694  12.000
52165W        W20383  18.249  16.231  10.455
52166W        W20384   2.378  23.740  11.401
52167W        W20385  43.262  30.751  14.880
52168W        W20386  28.556  16.057  12.407
52169W        W20387   9.055  36.568   3.185
52170W        W20388  44.491  23.614   1.377
52171W        W20389  10.332   8.482   1.290
52172W        W20390  31.219  30.214  12.935
52173W        W20391  12.202  42.873   3.791
52174W        W20392   1.753  26.794   2.037
52175W        W20393  19.278  38.362   1.986
52176W        W20394  16.347  23.020   0.623
52177W        W20395  23.116  11.113  11.491
52178W        W20396   8.648   6.673   3.177
52179W        W20397  12.106  32.888   3.495
52180W        W20398  18.494  23.802   2.225
52181W        W20399  33.187  25.029   2.343
52182W        W20400  15.646  30.558  13.787
52183W        W20401   0.500  16.222   2.658
52184W        W20402   6.323  20.153  12.627
52185W        W20403  18.530  43.267  10.624
52186W        W20404   9.628   2.333  12.902
52187W        W20405   6.854  18.741   1.031
52188W        W20406  11.550   6.939   4.038
52189W        W20407   7.195  29.934  14.475
52190W        W20408  37.829  23.042  11.947
52191W        W20409  39.785  36.452   1.827
52192W        W20410   0.880  28.086   0.428
52193W        W20411   5.891  20.096  11.411
52194W        W20412  32.136  25.915  14.319
52195W        W20413   6.790  20.110   0.533
52196W        W20414  43.779  32.637   1.805
52197W        W20415  30.408   9.686   3.064
52198W        W20416   1.173  31.157  13.865
52199W        W20417  30.601  23.861  12.451
52200W        W20418  23.595  33.633  13.852
52201W        W20419  29.205  22.056   2.829
52202W        W20420  30.205  40.598   2.421
52203W        W20421  20.772   7.773  12.791
52204W        W20422   2.411  36.876  14.807
52205W        W20423  15.901  27.511   1.398
52206W        W20424  22.336  22.966  11.974
52207W        W20425  10.567  38.925  10.130
52208W        W20426  34.614   1.491   2.892
52209W        W20427  21.658   2.921  11.243
52210W        W20428  37.975  28.508   4.614
52211W        W20429  22.295  13.628   1.885
52212W        W20430  28.971   4.715  14.831
52213W        W20431  34.145  30.500   0.486
52214W        W20432   2.412  14.726  11.729
52215W        W20433  37.091  10.933   1.163
52216W        W20434   7.410  16.133   3.666
52217W        W20435  30.322  28.541   4.341
52218W        W20436  33.561   7.661  12.094
52219W        W20437   5.313   7.751  11.255
52220W        W20438  24.009   5.523  13.525
52221W        W20439  40.733  19.716   0.614
52222W        W20440  41.636  25.115   4.241
52223W        W20441  39.893  24.014   0.944
52224W        W20442  37.049  36.469  10.634
52225W        W20443  23.224   1.057  12.120
52226W        W20444  17.106   7.289   1.772
52227W        W20445   2.862  36.870  14.034
52228W        W20446  12.412   6.014  12.394
52229W        W20447   7.748  32.021  13.841
52230W        W20448  14.570   4.294  12.873
52231W        W20449  38.590  18.020  14.372
52232W        W20450  14.840  18.873   5.044
52233W        W20451  28.910  38.278   0.325
52234W        W20452   2.496  30.423   1.311
52235W        W20453  20.202  24.721   2.786
52236W        W20454   2.762  30.077  11.207
52237W        W20455  42.256  26.515   2.201
52238W        W20456  30.540   9.230   0.507
52239W        W20457   5.507  37.050  14.273
52240W        W20458   2.517  39.892  11.187
52241W        W20459  17.628  36.628  12.473
52242W        W20460   9.958  16.105   4.655
52243W        W20461  27.032  29.764   4.725
52244W        W20462  23.584   1.233  12.542
52245W        W20463   6.752  33.322  12.606
52246W        W20464  24.073  26.581  11.122
52247W        W20465  30.049  22.185  11.909
52248W        W20466  11.665   2.163  13.234
52249W        W20467   0.259  36.652  12.065
52250W        W20468  13.628  29.651  13.969
52251W        W20469   1.306   3.157  11.606
52252W        W20470  12.788  32.867  13.825
52253W        W20471  22.545  32.514  10.699
52254W        W20472   1.207   0.356   2.847
52255W        W20473   8.247  19.251  10.539
52256W        W20474  28.282   6.277  12.364
52257W        W20475   0.486  39.109   4.535
52258W        W20476   0.095  43.005   4.515
52259W        W20477   4.792  41.896   0.447
52260W        W20478  18.118  33.755  10.278
52261W        W20479  34.316  26.648  11.781
52262W        W20480  34.846  30.704   1.899
52263W        W20481  19.562   2.155   1.312
52264W        W20482  20.336   4.100  14.907
52265W        W20483  37.341  26.050  11.563
52266W        W20484  11.296  17.369  10.388
52267W        W20485   1.002  18.252   3.882
52268W        W20486  28.124  23.681  14.864
52269W        W20487  24.127   9.438   0.784
52270W        W20488  27.393   1.462   2.244
52271W        W20489  38.000  43.048  11.559
52272W        W20490  28.162  25.142   4.725
52273W        W20491  15.778   5.340   2.724
52274W        W20492  20.306   7.259  13.475
52275W        W20493  21.652   7.415   1.180
52276W        W20494  17.303  44.975  13.856
52277W        W20495  29.412  29.905  11.116
52278W        W20496   5.862  18.462  12.970
52279W        W20497  38.997  13.390  13.350
52280W        W20498  26.273  23.871   4.116
52281W        W20499  38.142  40.319  12.541
52282W        W20500  24.096  29.524   3.750
52283W        W20501  39.007  40.280   4.769
52284W        W20502  10.400   0.810   5.102
52285W        W20503  14.686   6.477   4.121
52286W        W20504  29.885  10.898  10.417
52287W        W20505  39.424  41.260   3.169
52288W        W20506  27.906   2.861  13.647
52289W        W20507  20.650  29.477   2.370
52290W        W20508   2.335  44.253  14.848
52291W        W20509   4.340  31.097   0.323
52292W        W20510  17.151  40.941   1.682
52293W        W20511   3.766  40.914   2.375
52294W        W20512  32.629  13.800  14.502
52295W        W20513  25.493  37.453   0.687
52296W        W20514  28.134  10.313  11.556
52297W        W20515   2.173  23.066  13.118
52298W        W20516   6.817  31.809  10.504
52299W        W20517  42.822   1.102  12.099
52300W        W20518  40.751   5.926   3.207
52301W        W20519  19.301  44.720  12.411
52302W        W20520  24.026  11.441  12.741
52303W        W20521  34.397  43.007  13.252
52304W        W20522  20.628  26.307   4.188
52305W        W20523  13.484  18.668   3.724
52306W        W20524   6.183  11.896  13.497
52307W        W20525  18.109  44.347  13.619
52308W        W20526  33.892   5.993   0.853
52309W        W20527  19.025  44.778  14.982
52310W        W20528  43.234  18.134   1.351
52311W        W20529  21.534  11.935  14.554
52312W        W20530   6.053  41.482   0.386
52313W        W20531   3.598  11.699   3.158
52314W        W20532  37.868  13.491  12.738
52315W        W20533  39.249   5.775   5.053
52316W        W20534  12.446  18.602  14.296
52317W        W20535  39.955  21.228   1.761
52318W        W20536  44.289   8.667  12.010
52319W        W20537   7.275   5.346   4.119
52320W        W20538  24.991  40.574   1.314
52321W        W20539   6.498  30.366  11.903
52322W        W20540  18.518  11.206   1.929
52323W        W20541  22.762  21.190  14.840
52324W        W20542  10.635  21.751   4.300
52325W        W20543  25.918  27.891  13.878
52326W        W20544  41.391  33.383  14.795
52327W        W20545  28.800  33.913   3.304
52328W        W20546  10.995  25.320  10.785
52329W        W20547  33.085  15.245  12.095
52330W        W20548  31.027  42.068   0.857
52331W        W20549  23.789   2.450  11.223
52332W        W20550   8.896  23.742  13.443
52333W        W20551  24.785  36.891  14.287
52334W        W20552  10.208  11.341  12.010
52335W        W20553  23.511  14.101   3.257
52336W        W20554  44.837  13.525   3.741
52337W        W20555   8.416  27.412  12.570
52338W        W20556  10.797  15.660   1.344
52339W        W20557   8.237  26.711   3.712
52340W        W20558  25.166  36.092  14.747
52341W        W20559  18.663  40.034  12.143
52342W        W20560  41.846  36.073   1.169
52343W        W20561   4.703   5.147  11.182
52344W        W20562  13.116   4.247   0.794
52345W        W20563   1.931  31.196   2.819
52346W        W20564  27.693  24.379   5.530
52347W        W20565  30.414  44.463  11.783
52348W        W20566  42.283  14.061   3.391
52349W        W20567  21.464  37.096  14.379
52350W        W20568  37.963   2.540   0.218
52351W        W20569  33.436  38.082   2.975
52352W        W20570  13.870  31.678   2.905
52353W        W20571   9.115  38.314  13.842
52354W        W20572   7.785  44.163  14.379
52355W        W20573  16.893   5.728   1.817
52356W        W20574  16.917  29.005  12.732
52357W        W20575  20.538  31.723   3.335
52358W        W20576  12.814  26.298   2.815
52359W        W20577  19.268  39.922  12.417
52360W        W20578   8.544  39.651  11.914
52361W        W20579  22.491  25.357  10.908
52362W        W20580  36.260  35.357  12.595
52363W        W20581  37.126  25.099  13.816
52364W        W20582  40.986  29.540  14.938
52365W        W20583  23.023  26.515   1.635
52366W        W20584  28.144  40.492   2.313
52367W        W20585  29.344  26.303   4.200
52368W        W20586  32.371  18.737  10.761
52369W        W20587  34.859  18.072  14.069
52370W        W20588  43.363  33.187  14.912
52371W        W20589  35.811  35.397   1.868
52372W        W20590  34.810  32.186   1.886
52373W        W20591  10.680  43.970   3.799
52374W        W20592   1.259  24.725  12.433
52375W        W20593   7.859  43.515   2.170
52376W        W20594   2.661  24.047   2.727
52377W        W20595  40.471  10.369   2.775
52378W        W20596  42.781   8.410   3.935
52379W        W20597  17.358  11.504  11.931
52380W        W20598  21.411  29.222   0.833
52381W        W20599  27.233  38.582   1.369
52382W        W20600  11.727   0.978   3.124
52383W        W20601  15.563   4.058   1.793
52384W        W20602   8.677  39.416  13.419
52385W        W20603  19.395  31.539  11.959
52386W        W20604  36.008   3.418  14.137
52387W        W20605   0.804  18.993  11.698
52388W        W20606  12.383  11.474  11.010
52389W        W20607   7.862  37.443   3.709
52390W        W20608  26.235  11.618   1.367
52391W        W20609  10.660  37.778  13.394
52392W        W20610  32.874   0.108   0.155
52393W        W20611   6.464  43.204   0.891
52394W        W20612  34.214  19.092  12.534
52395W        W20613  17.253  29.572  10.679
52396W        W20614  14.296  44.198  13.810
52397W        W20615  37.994  14.812   1.507
52398W        W20616  25.956  43.531   2.387
52399W        W20617  14.672  27.678   0.972
52400W        W20618  14.788  10.738   4.866
52401W        W20619  17.550  40.014   1.340
52402W        W20620  11.997  34.047  11.939
52403W        W20621   8.177  14.752  12.459
52404W        W20622  40.741  42.383  14.428
52405W        W20623  31.677   5.907  11.645
52406W        W20624  36.530   6.808  13.856
52407W        W20625   6.913  29.088   4.185
52408W        W20626  11.639  39.365   2.173
52409W        W20627  26.475  34.819  14.989
52410W        W20628  27.552  39.302   2.796
52411W        W20629  25.974  13.641   2.358
52412W        W20630  31.912  35.695   4.830
52413W        W20631  40.983  24.038   1.968
52414W        W20632  24.593  28.168   1.916
52415W        W20633  43.897  25.463  11.500
52416W        W20634  10.457  28.881   5.131
52417W        W20635  14.833  27.370  11.506
52418W        W20636  44.453  27.555   2.846
52419W        W20637  21.617   0.435   1.898
52420W        W20638  44.126  34.518   0.254
52421W        W20639  34.200  40.817   0.086
52422W        W20640  38.533  26.807  14.352
52423W        W20641  36.672   4.953   3.692
52424W        W20642  41.385   6.308   1.027
52425W        W20643  39.305  12.648  10.649
52426W        W20644  32.910  11.415  11.911
52427W        W20645  42.408  38.407  11.972
52428W        W20646  37.273  43.840   3.362
52429W        W20647  40.903  32.036   0.436
52430W        W20648  15.089  41.163  13.940
52431W        W20649  37.566  23.630   2.346
52432W        W20650  24.467  22.080   0.869
52433W        W20651   3.760  43.108  11.461
52434W        W20652  38.345  31.538  13.865
52435W        W20653  41.281   4.859  14.369
52436W        W20654   5.193   0.120  10.136
52437W        W20655  14.119  40.901   3.138
52438W        W20656   9.017   4.223   3.177
52439W        W20657  29.264  14.838   0.892
52440W        W20658  12.655   4.781  11.172
52441W        W20659   0.116  32.129  10.778
52442W        W20660  39.047  13.597   1.448
52443W        W20661   6.928  15.087   4.893
52444W        W20662   5.540  37.879   5.024
52445W        W20663  16.311  44.775   0.345
52446W        W20664   1.362  21.934  12.036
52447W        W20665  25.013  24.685  11.171
52448W        W20666  25.153  17.145  12.550
52449W        W20667   4.668   3.703   1.966
52450W        W20668  21.812  14.139  11.511
52451W        W20669  19.747  30.881   5.024
52452W        W20670  13.063   4.384  14.856
52453W        W20671  29.299  17.586   0.413
52454W        W20672  13.182  10.555   3.388
52455W        W20673   8.766  40.846  10.758
52456W        W20674   6.666  31.385  14.790
52457W        W20675   2.082  30.380  12.404
52458W        W20676  14.741  35.629  11.598
52459W        W20677  36.064  19.586  13.606
52460W        W20678  41.875  11.380  12.438
52461W        W20679   9.572   9.874   4.031
52462W        W20680  44.239  34.392  12.449
52463W        W20681   2.013   1.233  14.008
52464W        W20682  41.488   8.104   4.758
52465W        W20683  28.684  28.939  10.650
52466W        W20684  32.512   1.378   2.196
52467W        W20685  31.673  25.254  12.221
52468W        W20686  14.377   7.650  11.701
52469W        W20687  33.411   8.227  10.802
52470W        W20688  28.357  20.211  14.365
52471W        W20689   4.082  25.564  11.634
52472W        W20690  35.023  37.377  14.367
52473W        W20691   8.377   1.947  14.302
52474W        W20692  11.602  37.294  13.470
52475W        W20693   9.371  42.527   3.708
52476W        W20694  21.741  26.513  10.630
52477W        W20695  11.151  14.770   4.853
52478W        W20696  18.117  44.747   3.469
52479W        W20697  34.080  17.106  13.034
52480W        W20698  40.486  25.251  14.409
52481W        W20699   3.674   4.461  12.738
52482W        W20700   1.112  39.045   4.135
52483W        W20701   5.743  28.665  14.520
52484W        W20702  22.842  37.337  14.313
52485W        W20703  13.105   6.775  12.689
52486W        W20704   1.288  12.785  14.222
52487W        W20705  20.558  14.059  10.634
52488W        W20706   5.817   8.345   1.837
52489W        W20707  25.947  10.423   0.566
52490W        W20708  39.871  21.503   0.739
52491W        W20709  33.809  11.705  13.998
52492W        W20710   9.780   6.901   2.282
52493W        W20711  29.732  24.964   2.311
52494W        W20712  37.974   0.830   0.820
52495W        W20713  20.738  12.088  11.360
52496W        W20714  31.010  18.210  13.995
52497W        W20715   9.625  19.227  12.972
52498W        W20716   8.157  12.609  14.546
52499W        W20717  41.991  29.430   3.830
52500W        W20718   1.809  24.987   2.248
52501W        W20719  15.343  12.202  12.441
52502W        W20720  25.552  35.979   3.095
52503W        W20721  11.745  40.041  13.960
52504W        W20722  39.053   0.527   1.654
52505W        W20723  38.351   1.012  12.084
52506W        W20724   7.450  28.153  10.574
52507W        W20725  16.068  25.738   1.172
52508W        W20726  34.898  38.511  14.373
52509W        W20727  40.302  44.322   3.011
52510W        W20728   7.241  30.316   0.414
52511W        W20729  15.315  12.637  13.247
52512W        W20730  15.688   4.694   3.529
52513W        W20731  14.862  36.899  11.960
52514W        W20732  28.854  34.659   3.603
52515W        W20733  28.515  23.069  11.004
52516W        W20734   8.420  42.893   1.623
52517W        W20735   3.079  13.134  14.420
52518W        W20736  35.830  42.749  13.117
52519W        W20737  40.352  15.103  10.725
52520W        W20738  43.947  44.030   1.168
52521W        W20739  10.139  26.812   9.831
52522W        W20740  18.470   1.062  12.186
52523W        W20741   4.661   6.008   0.306
52524W        W20742  18.944  27.538   1.002
52525W        W20743  31.970  44.882  11.138
52526W        W20744  24.071   8.136   4.374
52527W        W20745   4.181   0.037  11.599
52528W        W20746  10.114  26.981  12.415
52529W        W20747  16.850  25.466  12.437
52530W        W20748  29.209   4.387  12.905
52531W        W20749   4.202  39.885   5.017
52532W        W20750  13.096  29.653  13.991
52533W        W20751  39.375  28.501  12.317
52534W        W20752  38.045  37.374   0.379
52535W        W20753  35.351  26.271   2.082
52536W        W20754  32.505  41.538  14.037
52537W        W20755  17.154  36.392  12.482
52538W        W20756   5.387   9.297   4.681
52539W        W20757  28.764   6.835   3.877
52540W        W20758   5.844  26.932  13.399
52541W        W20759  21.354  34.970  12.972
52542W        W20760  17.115  44.851   2.068
52543W        W20761  42.280  21.128   0.321
52544W        W20762  10.339  25.609  11.840
52545W        W20763   9.175  33.567  13.972
52546W        W20764   7.351  22.534   3.206
52547W        W20765   1.679  29.934   1.286
52548W        W20766  14.900  26.151   1.353
52549W        W20767  37.100   5.661   4.202
52550W        W20768  23.146   3.325   4.173
52551W        W20769  41.947   5.284   4.093
52552W        W20770  16.472   3.333  10.820
52553W        W20771  13.438   1.979   2.196
52554W        W20772   4.820   8.620  10.613
52555W        W20773  42.074  22.457   0.487
52556W        W20774  12.248  37.046  13.773
52557W        W20775  42.807   2.314  13.159
52558W        W20776  18.072  29.556  12.585
52559W        W20777   4.872   2.089   0.745
52560W        W20778  27.487  27.480  11.384
52561W        W20779  31.563  26.167  13.404
52562W        W20780  43.811  17.330  12.854
52563W        W20781  22.566  21.943   3.327
52564W        W20782  19.949  42.763  14.383
52565W        W20783  15.759   5.938  11.204
52566W        W20784  36.124   2.517   2.696
52567W        W20785  43.361  41.909  13.618
52568W        W20786  43.367  31.058   4.379
52569W        W20787  14.214   8.808  12.046
52570W        W20788  11.427  43.512  11.530
52571W        W20789  30.689  43.903  12.533
52572W        W20790  33.547  36.497   1.590
52573W        W20791  16.484  14.769   2.726
52574W        W20792   8.204  19.371  10.043
52575W        W20793  14.908  43.337  12.546
52576W        W20794  17.512  19.424   2.272
52577W        W20795   9.085   9.792   4.122
52578W        W20796  32.141  11.327   3.620
52579W        W20797   3.737  34.449  11.706
52580W        W20798  26.971  11.689  13.826
52581W        W20799  25.819  18.705   2.835
52582W        W20800   0.902  27.480   2.854
52583W        W20801  25.451  35.430   4.932
52584W        W20802  19.232  39.418   2.338
52585W        W20803   8.900   0.542   2.465
52586W        W20804   5.194  22.605   2.229
52587W        W20805  20.847  38.897   2.872
52588W        W20806  20.037  14.818  11.491
52589W        W20807  33.924  25.047   1.276
52590W        W20808  16.144  40.713   4.473
52591W        W20809  44.528  26.384   3.035
52592W        W20810  23.044   1.734  14.819
52593W        W20811  33.853  42.309  14.890
52594W        W20812  27.981  39.938  14.243
52595W        W20813   1.703   9.649  14.858
52596W        W20814  44.788   4.322   4.823
52597W        W20815   3.197   0.752   1.777
52598W        W20816  10.374  23.117   3.055
52599W        W20817  24.160  16.271  11.838
52600W        W20818  14.813  38.012  11.461
52601W        W20819  29.670  39.358   3.635
52602W        W20820   3.439  25.375  12.900
52603W        W20821  28.475  12.264   4.422
52604W        W20822  26.493  17.518   0.097
52605W        W20823   3.444   4.737  14.809
52606W        W20824  27.223  21.997   3.172
52607W        W20825  23.438  14.590   0.757
52608W        W20826   5.741  13.029  12.137
52609W        W20827  28.479  35.657   4.065
52610W        W20828  20.127  40.472   4.053
52611W        W20829  26.273  11.183  13.915
52612W        W20830   3.504  25.145   0.740
52613W        W20831  42.548   0.015  14.497
52614W        W20832  11.698  42.823  10.560
52615W        W20833  22.431  39.594  10.788
52616W        W20834  21.719  24.666   4.635
52617W        W20835   7.451  18.117   4.190
52618W        W20836   1.407   2.901   1.030
52619W        W20837  10.197  13.035   3.958
52620W        W20838   2.224  44.314  13.483
52621W        W20839   5.645  38.805  14.865
52622W        W20840   8.445  16.612   1.881
52623W        W20841  24.067  43.599   2.320
52624W        W20842   7.357   3.229   0.914
52625W        W20843  25.536  32.982   2.290
52626W        W20844  10.873  29.118   4.896
52627W        W20845  28.612  20.188   4.526
52628W        W20846   2.826  20.024   2.242
52629W        W20847  25.002  31.353   2.247
52630W        W20848   3.454  27.636   2.200
52631W        W20849   1.505  39.842  11.082
52632W        W20850  22.687  32.534   4.040
52633W        W20851  40.840  32.407   1.358
52634W        W20852   0.334  21.827   3.142
52635W        W20853   7.197  32.346   1.707
52636W        W20854   1.551  41.263   3.803
52637W        W20855  44.967  30.229   2.233
52638W        W20856  43.276  21.205   2.480
52639W        W20857  33.711  27.566   1.514
52640W        W20858  29.696   5.996   1.841
52641W        W20859  25.078   6.481  11.218
52642W        W20860  36.416  25.163  14.392
52643W        W20861  33.550  41.439   0.003
52644W        W20862  10.375   1.935   4.174
52645W        W20863  21.570  33.108   3.095
52646W        W20864  26.544   8.479  14.390
52647W        W20865  37.244  34.448  11.037
52648W        W20866   9.209   8.794   4.952
52649W        W20867  33.619  21.861  12.015
52650W        W20868  39.972  21.613  12.949
52651W        W20869  30.990  33.869   1.434
52652W        W20870   6.282   8.505   1.653
52653W        W20871  16.600   7.190  10.411
52654W        W20872  36.329  29.663  12.022
52655W        W20873   3.307  39.180   2.630
52656W        W20874  35.342  24.026   4.765
52657W        W20875   8.402  10.088   3.403
52658W        W20876  37.067  12.056   1.541
52659W        W20877   7.352   4.808  13.339
52660W        W20878   9.110  26.127  12.444
52661W        W20879   4.724  16.029  14.018
52662W        W20880  33.907   2.377  13.838
52663W        W20881  11.843  44.919  13.976
52664W        W20882  28.605  17.494   0.776
52665W        W20883   5.907  38.771   4.042
52666W        W20884  40.281   9.338  14.880
52667W        W20885  10.809   7.222  11.139
52668W        W20886  44.536   1.480  11.072
52669W        W20887   2.955   8.454   1.115
52670W        W20888  25.552  21.689  11.454
52671W        W20889   4.413  28.523  14.370
52672W        W20890  29.993   4.479   1.968
52673W        W20891  17.420   1.832  10.217
52674W        W20892  26.751  35.111   1.254
52675W        W20893  25.917  44.211  11.588
52676W        W20894  25.794   4.460  13.050
52677W        W20895   1.865   0.820  10.881
52678W        W20896  16.118  43.006  13.832
52679W        W20897  19.790  25.146   0.492
52680W        W20898  28.223   3.251  10.596
52681W        W20899  39.446  35.895  13.107
52682W        W20900  31.851   6.221   3.157
52683W        W20901   2.758  31.214  10.913
52684W        W20902   9.382  23.124  10.584
52685W        W20903  15.360   2.294  11.496
52686W        W20904  14.733  19.580   1.813
52687W        W20905  14.817  42.885   2.161
52688W        W20906  19.547  27.103  11.447
52689W        W20907   4.319  38.600  13.506
52690W        W20908  33.613  21.325  13.423
52691W        W20909  28.374  19.845  11.050
52692W        W20910  39.759   0.814   4.240
52693W        W20911  37.882  43.272  11.997
52694W        W20912  14.737  39.047  14.520
52695W        W20913  31.065  40.473   4.820
52696W        W20914  20.228  23.916   0.531
52697W        W20915  30.334   2.089   4.588
52698W        W20916  18.475  43.887  12.855
52699W        W20917  17.645  10.171  13.762
52700W        W20918  34.600  29.553   4.845
52701W        W20919  40.932  44.545   4.646
52702W        W20920  42.300  11.404  13.915
52703W        W20921   6.093   2.466  11.048
52704W        W20922  30.988  17.329   3.829
52705W        W20923  11.962   6.668   0.486
52706W        W20924  10.797  33.596  13.387
52707W        W20925   1.994  30.896  12.460
52708W        W20926  27.432  22.476  11.219
52709W        W20927  12.158  13.303  11.234
52710W        W20928   7.978  21.752  13.482
52711W        W20929  25.180  28.134  14.300
52712W        W20930  10.121  30.117  13.541
52713W        W20931  29.627   0.790   4.093
52714W        W20932  24.544  43.519   3.060
52715W        W20933   8.756   5.316   3.768
52716W        W20934  41.980   9.096   4.177
52717W        W20935  43.290  12.552  10.423
52718W        W20936   9.594   0.716  11.588
52719W        W20937  32.425   0.051   1.413
52720W        W20938  40.788  17.978  12.970
52721W        W20939  22.685  12.758  13.763
52722W        W20940  40.849  25.186   0.758
52723W        W20941   4.331   6.193   3.261
52724W        W20942  37.174   2.360   3.609
52725W        W20943   2.322  24.469   3.750
52726W        W20944  39.982  22.094  11.381
52727W        W20945  12.842  27.004  12.332
52728W        W20946  11.067  12.589   1.971
52729W        W20947  15.109  38.500  13.853
52730W        W20948  44.407  36.745  10.589
52731W        W20949  16.825  37.311  11.269
52732W        W20950  34.833  21.403  10.431
52733W        W20951  11.406  41.203   0.489
52734W        W20952  22.991  41.075   3.007
52735W        W20953  40.017  20.474   0.822
52736W        W20954  27.979  14.140  14.498
52737W        W20955  12.838  35.949   2.309
52738W        W20956  30.946  43.761  11.142
52739W        W20957  15.907  40.416  12.013
52740W        W20958  25.198  18.587   5.016
52741W        W20959  30.389  43.055   0.272
52742W        W20960  18.577  25.209  11.439
52743W        W20961  35.530   5.414  11.289
52744W        W20962  36.967  23.436  11.653
52745W        W20963   4.820  16.529   3.709
52746W        W20964  14.278   3.118   2.721
52747W        W20965  39.318   0.716   4.545
52748W        W20966  40.387  10.140  13.369
52749W        W20967   6.147   8.124  11.160
52750W        W20968   7.907   1.240  11.396
52751W        W20969  10.866  22.996  12.404
52752W        W20970  22.574   5.950   0.046
52753W        W20971  12.385  31.901   0.357
52754W        W20972  22.082  30.630  14.031
52755W        W20973  15.677  42.878   2.880
52756W        W20974  18.344  30.377  10.972
52757W        W20975  29.859  44.384   2.124
52758W        W20976  35.946  21.463  13.574
52759W        W20977   8.673  40.520  13.477
52760W        W20978  18.662  28.694   1.363
52761W        W20979  21.711   6.429   0.259
52762W        W20980   5.364  38.402  10.763
52763W        W20981   3.317  21.902  10.741
52764W        W20982  38.640  18.528  14.429
52765W        W20983  20.995  21.109  13.408
52766W        W20984  22.523   0.433   1.472
52767W        W20985  43.351   4.271   3.638
52768W        W20986  34.641  19.193   1.307
52769W        W20987  43.219  38.111   1.701
52770W        W20988  31.480   0.191  13.424
52771W        W20989  44.432   2.253   3.635
52772W        W20990  37.409   1.734  14.006
52773W        W20991   6.895  33.123   3.268
52774W        W20992  31.569  37.762  14.475
52775W        W20993  18.687  10.872  12.037
52776W        W20994  34.211  27.109   4.084
52777W        W20995  40.996  16.214  14.646
52778W        W20996   5.153   2.772   4.180
52779W        W20997  15.188  24.116  12.472
52780W        W20998  14.929  20.789  11.067
52781W        W20999  33.546   2.868  13.720
52782W        W21000  17.182  20.796   2.379
52783W        W21001  12.389   9.786   3.806
52784W        W21002  26.105   1.335  13.770
52785W        W21003  20.074  30.003   2.115
52786W        W21004   6.686   2.465  11.539
52787W        W21005  38.960  21.733  14.066
52788W        W21006  11.049   3.944  10.540
52789W        W21007  24.583  34.317  13.195
52790W        W21008  11.499  35.989  10.674
52791W        W21009  43.717  33.427  14.603
52792W        W21010   7.312  43.995  10.671
52793W        W21011  26.313  40.737   1.188
52794W        W21012  37.474  21.989   0.727
52795W        W21013  24.095  44.413   0.303
52796W        W21014  33.558  16.781   3.753
52797W        W21015  10.792  30.073   2.801
52798W        W21016  19.582  38.253   4.291
52799W        W21017  32.998  44.333  11.508
52800W        W21018  30.593   2.887  10.591
52801W        W21019  11.131   3.806   3.110
52802W        W21020  38.990  32.954  12.777
52803W        W21021   1.597  27.477  12.458
52804W        W21022  36.322  12.405   1.864
52805W        W21023  39.175  41.079  13.031
52806W        W21024  33.023  20.072  11.758
52807W        W21025  19.203   2.695  13.410
52808W        W21026  26.079  42.346  11.738
52809W        W21027   3.909   6.780   4.344
52810W        W21028  32.423  33.880   3.768
52811W        W21029  28.623  19.743  14.419
52812W        W21030  21.684  23.088   0.780
52813W        W21031   6.428   0.246   0.957
52814W        W21032  10.202  18.374  11.185
52815W        W21033  19.842  33.219   2.001
52816W        W21034   3.678   1.665   1.021
52817W        W21035  19.529  20.345  10.791
52818W        W21036   8.278   1.851   2.031
52819W        W21037  25.633  17.750   1.036
52820W        W21038  35.681   3.395   3.348
52821W        W21039  44.703  39.869   0.365
52822W        W21040  39.964   4.566  12.821
52823W        W21041  20.669  30.987   3.513
52824W        W21042  31.882  18.843   2.746
52825W        W21043  42.432  33.249   3.238
52826W        W21044  35.002  44.058   0.240
52827W        W21045  29.561  19.239  11.062
52828W        W21046  27.543  20.498   1.969
52829W        W21047   6.610  15.436  13.101
52830W        W21048  10.552  36.062   0.995
52831W        W21049   8.459   0.792   4.511
52832W        W21050  30.621  30.200   3.675
52833W        W21051  28.119  43.027  12.461
52834W        W21052  35.714  43.435  14.559
52835W        W21053  13.082  31.000   4.058
52836W        W21054  23.869  34.929   2.808
52837W        W21055  33.131   6.164  12.647
52838W        W21056   4.336  43.323  12.619
52839W        W21057  22.551   0.697   1.952
52840W        W21058  44.937   1.363   3.807
52841W        W21059  26.749  30.470   0.925
52842W        W21060  19.030  28.614  12.527
52843W        W21061  42.387  10.357   0.041
52844W        W21062   7.764  31.701  14.346
52845W        W21063  10.780  23.167   0.748
52846W        W21064  28.029  41.386  13.832
52847W        W21065  29.666  29.748  11.542
52848W        W21066  34.079   6.370  13.076
52849W        W21067  41.105  20.234   4.541
52850W        W21068  31.489   8.774  13.755
52851W        W21069  42.371  38.798  12.338
52852W        W21070  20.046  19.562  11.519
52853W        W21071  19.110  16.849   0.462
52854W        W21072  41.482   8.635  12.917
52855W        W21073  10.575  25.219  12.096
52856W        W21074  16.111  44.557   3.466
52857W        W21075  35.884  27.162  10.578
52858W        W21076  15.442  25.484  13.485
52859W        W21077  17.207  17.957   1.891
52860W        W21078  13.095  20.109  11.601
52861W        W21079   5.910  39.574   4.569
52862W        W21080  17.588  14.420  14.408
52863W        W21081  10.462  37.573   2.859
52864W        W21082  19.115  23.222  10.643
52865W        W21083  37.219   5.786  13.348
52866W        W21084  18.685  32.179   4.527
52867W        W21085   6.913  28.164  11.414
52868W        W21086   8.761  14.268  12.863
52869W        W21087  37.141  14.593   3.168
52870W        W21088  20.009  28.930  13.399
52871W        W21089   3.360  42.790  14.732
52872W        W21090  24.411  37.156  14.545
52873W        W21091  43.980   8.371   0.886
52874W        W21092  10.894   5.410   2.204
52875W        W21093   7.247  29.088   2.818
52876W        W21094   9.446  27.295   0.150
52877W        W21095  14.335  43.047   2.224
52878W        W21096  41.846  35.658  10.237
52879W        W21097   9.979   8.838   0.477
52880W        W21098  38.862   5.696  12.495
52881W        W21099  16.755  37.327  12.121
52882W        W21100  16.949   4.971  13.443
52883W        W21101   5.603  38.136   4.525
52884W        W21102  12.470  18.375  12.087
52885W        W21103  21.799  17.008   2.073
52886W        W21104   6.415  41.027  14.280
52887W        W21105  24.580  12.171   3.031
52888W        W21106   4.407   8.335   4.629
52889W        W21107   1.702   1.368   1.162
52890W        W21108  23.623  13.614  14.007
52891W        W21109  31.193  22.131   4.614
52892W        W21110  11.089  12.719   0.240
52893W        W21111  11.133  39.297  14.447
52894W        W21112  25.565  11.881  11.222
52895W        W21113  10.415  34.708   2.815
52896W        W21114  14.144  16.008  14.333
52897W        W21115  43.425  31.853   2.882
52898W        W21116  16.722  36.622  13.392
52899W        W21117  41.868  26.027  13.563
52900W        W21118  44.075   3.962  13.636
52901W        W21119  10.672  12.730  10.584
52902W        W21120  29.156  20.060   3.776
52903W        W21121  43.858  13.103  14.730
52904W        W21122  15.708  44.382   2.769
52905W        W21123  41.686   3.691   0.894
52906W        W21124  24.052   6.598  14.339
52907W        W21125  36.876   2.774   1.524
52908W        W21126  32.426  43.596  11.966
52909W        W21127  40.252  20.840  13.473
52910W        W21128   0.957  30.821  11.292
52911W        W21129  22.025  28.932   1.255
52912W        W21130   1.782   8.307  13.149
52913W        W21131   8.683  10.893  14.582
52914W        W21132  35.109  21.524   1.739
52915W        W21133  34.455  39.268  13.282
52916W        W21134  14.150  23.242   0.710
52917W        W21135   5.898  43.993   3.101
52918W        W21136  22.006  20.971  11.070
52919W        W21137  30.506  23.110  11.706
52920W        W21138  25.855  25.745  14.333
52921W        W21139  17.887  23.748   1.991
52922W        W21140  25.084  14.738  13.019
52923W        W21141   7.598  39.533   2.139
52924W        W21142  19.861  29.318  14.951
52925W        W21143   4.268  28.170  12.045
52926W        W21144  42.667  26.438  13.361
52927W        W21145  17.581  22.259  13.949
52928W        W21146  28.419   6.528  14.973
52929W        W21147  43.507  21.649   2.254
52930W        W21148  25.173   2.917   0.886
52931W        W21149  32.522  43.462  13.861
52932W        W21150  44.234   5.999   4.977
52933W        W21151  34.798   9.230  14.899
52934W        W21152  41.973   2.245  12.581
52935W        W21153  38.915  27.514   3.263
52936W        W21154   9.360  37.948   4.702
52937W        W21155  18.625  30.924   2.718
52938W        W21156  20.947   4.867   3.376
52939W        W21157  34.081  31.377   2.608
52940W        W21158   4.843  15.555  12.674
52941W        W21159  21.133  15.918  10.247
52942W        W21160  34.919  39.734   2.744
52943W        W21161   9.950   8.903   1.381
52944W        W21162  30.216  14.378   4.295
52945W        W21163  25.137  35.333   3.225
52946W        W21164  43.414  25.044  12.332
52947W        W21165  15.320  29.074   3.564
52948W        W21166  14.706  29.936   2.368
52949W        W21167  11.198  10.753  12.037
52950W        W21168  43.636  14.141  12.001
52951W        W21169  24.067  21.279   1.881
52952W        W21170   1.421  42.793   1.392
52953W        W21171  43.569  41.045   0.444
52954W        W21172   9.117  39.921  14.824
52955W        W21173  26.039  31.530  14.770
52956W        W21174  41.296   2.275   1.238
52957W        W21175  39.971  20.916   3.169
52958W        W21176  16.449  37.146   1.255
52959W        W21177   1.451  38.309  12.858
52960W        W21178  21.128  44.396   3.807
52961W        W21179   0.562   7.198   1.666
52962W        W21180  12.721   1.510  12.429
52963W        W21181  15.231  22.665   0.221
52964W        W21182  33.367  43.299   1.983
52965W        W21183  42.896  40.908  11.750
52966W        W21184  14.485  12.542   1.894
52967W        W21185  30.680  38.912   2.443
52968W        W21186   9.588  44.230   4.388
52969W        W21187   2.075   3.227  11.925
52970W        W21188  31.373  39.515   1.380
52971W        W21189  18.482  26.656  13.526
52972W        W21190  42.342  22.094  14.386
52973W        W21191   9.841  21.215  12.027
52974W        W21192  14.653  12.775   4.514
52975W        W21193  35.618   7.247  14.834
52976W        W21194  19.547  33.082  12.482
52977W        W21195  37.327   0.268   3.184
52978W        W21196  17.566  11.894   1.397
52979W        W21197  41.579  24.104   2.386
52980W        W21198  13.379   5.026  14.153
52981W        W21199  11.276   7.845   1.853
52982W        W21200  40.750  34.830   1.034
52983W        W21201   7.231   0.527   4.438
52984W        W21202   1.394   0.848   1.786
52985W        W21203   6.827   1.814  14.255
52986W        W21204  36.374  34.619   3.623
52987W        W21205  31.724   0.837  13.092
52988W        W21206  28.532  11.724  12.524
52989W        W21207  11.824   5.558   1.295
52990W        W21208  15.297  44.136  12.318
52991W        W21209   3.670  11.347  11.403
52992W        W21210  29.391  28.937   0.490
52993W        W21211  16.519  21.169  14.407
52994W        W21212   5.146   3.823   2.221
52995W        W21213  42.044  10.462  14.254
52996W        W21214  21.182  26.774   4.977
52997W        W21215  33.065  22.010   2.185
52998W        W21216  44.658  10.867  14.849
52999W        W21217   6.398  37.443  11.895
53000W        W21218  27.369   4.294  14.070
53001W        W21219  26.172  27.129   0.811
53002W        W21220  30.729  14.407   1.148
53003W        W21221  34.894  20.322   0.988
53004W        W21222  23.933  17.164  10.778
53005W        W21223  24.258  32.240   0.728
53006W        W21224  31.930  35.992  12.437
53007W        W21225  42.774  11.368  13.449
53008W        W21226   8.964  27.400   0.481
53009W        W21227  44.748   0.884   0.070
53010W        W21228  21.216  38.129  10.053
53011W        W21229  25.186   5.888   4.092
53012W        W21230  34.187  42.982   0.954
53013W        W21231  15.777  17.377   1.053
53014W        W21232  16.775   5.668   0.271
53015W        W21233   5.745   3.676   3.650
53016W        W21234   2.448  43.975  14.414
53017W        W21235  41.344   6.798  12.889
53018W        W21236  15.981   4.218   3.161
53019W        W21237  10.765  28.981  13.912
53020W        W21238   1.839   4.738  14.026
53021W        W21239   4.218  37.899   0.561
53022W        W21240  42.016   6.769  13.326
53023W        W21241  20.448  28.046   1.216
53024W        W21242  34.458  18.241   0.361
53025W        W21243  35.557  25.074   4.607
53026W        W21244  29.591  19.197  14.403
53027W        W21245  37.444  30.642  12.114
53028W        W21246  29.999  25.201  12.572
53029W        W21247   9.286   8.753  11.737
53030W        W21248   6.666  43.206  10.645
53031W        W21249  22.678  11.616  13.739
53032W        W21250  14.797   2.065   4.647
53033W        W21251   5.338   0.375  11.926
53034W        W21252  17.176   5.406   2.774
53035W        W21253  41.407  34.653  11.731
53036W        W21254  43.073   3.855   4.075
53037W        W21255   1.782   1.985  13.430
53038W        W21256  21.865  12.725  12.804
53039W        W21257  20.061  44.547   1.905
53040W        W21258  11.299   4.896  10.970
53041W        W21259  38.792  26.449   0.269
53042W        W21260  20.384  44.458   0.865
53043W        W21261   4.254  42.905  11.495
53044W        W21262  22.703  21.511   0.287
53045W        W21263  22.539   5.829  13.532
53046W        W21264   1.463   0.266   1.514
53047W        W21265  35.618  10.380  10.739
53048W        W21266  41.807  27.699   1.805
53049W        W21267   4.249  11.881  12.075
53050W        W21268  38.705  36.796   1.385
53051W        W21269   8.384  10.265   3.889
53052W        W21270  36.348  32.307   0.407
53053W        W21271   8.790  43.076  13.580
53054W        W21272  34.388  29.622   0.050
53055W        W21273  33.902  10.856   1.317
53056W        W21274  29.400  18.124   2.305
53057W        W21275   3.443  20.224   4.090
53058W        W21276  34.775   8.779   3.647
53059W        W21277  43.935  37.573   1.706
53060W        W21278   6.439  26.001  11.718
53061W        W21279  33.110  39.508  12.179
53062W        W21280  19.627  12.650  13.343
53063W        W21281  33.348  23.570   2.582
53064W        W21282  37.259  31.718   2.935
53065W        W21283  16.597  34.822  10.937
53066W        W21284  41.529  40.760   1.269
53067W        W21285  44.445  31.532  14.861
53068W        W21286  28.386  22.262  11.449
53069W        W21287   4.316  10.785  13.658
53070W        W21288  32.619   7.848  13.021
53071W        W21289  42.339   7.819   1.435
53072W        W21290   2.503  37.533   0.440
53073W        W21291   3.653  25.270  14.386
53074W        W21292  16.334  29.169   4.286
53075W        W21293  31.844  34.202   4.528
53076W        W21294   1.808  28.459  12.044
53077W        W21295  29.153   6.250   3.283
53078W        W21296  14.723  21.117  12.466
53079W        W21297   5.636  19.145   1.908
53080W        W21298   6.707  13.408  12.852
53081W        W21299  43.756  40.909  10.668
53082W        W21300  44.176  15.496   2.900
53083W        W21301  41.340   7.455   3.235
53084W        W21302  13.694  21.233  10.646
53085W        W21303  17.305  18.730  12.954
53086W        W21304   9.636   2.066  11.583
53087W        W21305   5.914  10.064  14.941
53088W        W21306   8.124  31.428   0.287
53089W        W21307  16.833  38.746  14.527
53090W        W21308  15.462  18.307   2.274
53091W        W21309  13.796   0.469   2.068
53092W        W21310  40.412  41.994   4.483
53093W        W21311  40.608  39.027   3.518
53094W        W21312  33.979  44.186  13.388
53095W        W21313  36.694  25.615   0.030
53096W        W21314  44.881  41.983  14.002
53097W        W21315  19.073  28.058  14.772
53098W        W21316  28.041  37.094  12.485
53099W        W21317  43.884  25.001   4.353
53100W        W21318   0.473  21.549   0.889
53101W        W21319   5.756   0.390   4.848
53102W        W21320  14.875   2.425  10.675
53103W        W21321   5.748  27.101  12.372
53104W        W21322  17.495  16.831   2.596
53105W        W21323  11.363  35.949   2.412
53106W        W21324  17.289   7.908  12.103
53107W        W21325  36.066  39.901   1.876
53108W        W21326   8.300   4.814  11.534
53109W        W21327  29.565  36.628  14.569
53110W        W21328  36.958  43.202  14.527
53111W        W21329   6.279  43.814  13.616
53112W        W21330   3.953  11.643   4.566
53113W        W21331  36.281  28.113   3.322
53114W        W21332  32.548   9.380  12.977
53115W        W21333  38.862  38.999   1.660
53116W        W21334   3.798   6.844  11.644
53117W        W21335  29.373  24.649   4.613
53118W        W21336  23.770  26.605   0.866
53119W        W21337   5.323  17.025  12.130
53120W        W21338  15.172   8.060  14.986
53121W        W21339  17.473  25.708  11.194
53122W        W21340   4.339   1.205  12.882
53123W        W21341  36.586  26.683  13.112
53124W        W21342  25.640  10.894  13.950
53125W        W21343  23.789  40.774  11.098
53126W        W21344   2.849  30.140   4.430
53127W        W21345  16.779   7.264  13.811
53128W        W21346  18.652  23.354   4.055
53129W        W21347  33.155  43.732   0.899
53130W        W21348  33.981  19.536   3.090
53131W        W21349  42.905  20.835  12.935
53132W        W21350  27.177  32.384   4.488
53133W        W21351   2.741   4.497  12.810
53134W        W21352  40.486  11.782   3.423
53135W        W21353   5.371  12.992  11.586
53136W        W21354  30.616  21.078  13.593
53137W        W21355   2.710  14.359   3.240
53138W        W21356   2.438   7.514  14.103
53139W        W21357  17.109   2.719   2.323
53140W        W21358   6.389  20.218  11.470
53141W        W21359  34.957  26.004   4.567
53142W        W21360  15.222  13.421   2.249
53143W        W21361  31.230  41.910   4.577
53144W        W21362   2.324  15.646  13.823
53145W        W21363  25.883  13.660   4.171
53146W        W21364  36.166   5.781   3.360
53147W        W21365   5.640  23.166   3.763
53148W        W21366   2.917  18.609  12.426
53149W        W21367  19.014   6.097  12.427
53150W        W21368  23.446  22.269  11.053
53151W        W21369  11.225  30.105  11.963
53152W        W21370  42.821   4.269   0.993
53153W        W21371   4.332  28.584   4.540
53154W        W21372  33.433  15.836   3.762
53155W        W21373  24.571   6.373  12.569
53156W        W21374   8.668  29.254  14.009
53157W        W21375  43.784  44.295   3.036
53158W        W21376   9.298   2.719   0.664
53159W        W21377   0.999  30.591   1.293
53160W        W21378  20.180  32.615  12.389
53161W        W21379  30.638  37.374   1.375
53162W        W21380  13.725  34.087  13.510
53163W        W21381  34.600  14.154   4.636
53164W        W21382   2.962  34.626   2.927
53165W        W21383  43.504   8.843   0.955
53166W        W21384   0.363  32.609  10.704
53167W        W21385  21.970  16.678   4.533
53168W        W21386  21.113   6.704   4.372
53169W        W21387  20.027  27.402  13.501
53170W        W21388  31.336  13.492  12.522
53171W        W21389  16.938   3.797   4.626
53172W        W21390   5.510   8.918  11.600
53173W        W21391   8.509   5.168  13.425
53174W        W21392   7.066  27.331  10.808
53175W        W21393  16.197  25.553   3.694
53176W        W21394  23.543  18.836   1.321
53177W        W21395  10.727  37.878   0.710
53178W        W21396  31.061  30.030   9.961
53179W        W21397  13.913  35.893   0.375
53180W        W21398  32.122  11.660  13.855
53181W        W21399  43.412  43.437  12.069
53182W        W21400  34.420   6.249   3.649
53183W        W21401  36.377  24.952   2.790
53184W        W21402  13.845   5.205   1.256
53185W        W21403  35.644  24.969  12.104
53186W        W21404  19.180   8.342  11.150
53187W        W21405   6.717  10.299   4.754
53188W        W21406  19.062  43.182   0.791
53189W        W21407  14.211  21.577  13.061
53190W        W21408   4.847   8.179  12.705
53191W        W21409  42.783  20.821  11.988
53192W        W21410   7.877  34.586  11.714
53193W        W21411  10.447   4.778   2.631
53194W        W21412  11.493  39.105  10.718
53195W        W21413  20.121   3.726  11.979
53196W        W21414  43.465  40.706  13.141
53197W        W21415  20.599  13.047   3.702
53198W        W21416  35.508   9.635   0.786
53199W        W21417  16.046  22.553   1.799
53200W        W21418   8.237  15.398   3.258
53201W        W21419  27.563   4.840  10.441
53202W        W21420   0.743  26.105  13.928
53203W        W21421  12.238  19.534   4.640
53204W        W21422  27.466  28.100  11.087
53205W        W21423  29.704  22.205   0.828
53206W        W21424   5.458  38.647   1.800
53207W        W21425   4.453  16.058   0.885
53208W        W21426  13.232  17.950   2.826
53209W        W21427  40.664  26.832   4.122
53210W        W21428  16.653   0.862   0.770
53211W        W21429  36.520  38.105   2.861
53212W        W21430  39.309  16.521  11.400
53213W        W21431  38.554  22.027  14.129
53214W        W21432  14.718  29.457   4.720
53215W        W21433  30.908  25.625   3.373
53216W        W21434  32.715   0.335   1.732
53217W        W21435  10.592  13.975   1.945
53218W        W21436  17.137  23.189   1.426
53219W        W21437   8.387   0.703   1.562
53220W        W21438  43.119  27.431   3.249
53221W        W21439  40.376  28.113  11.328
53222W        W21440  26.004  33.151  14.306
53223W        W21441  10.697  37.361   0.538
53224W        W21442   0.447   9.572   3.184
53225W        W21443  20.954  40.448   3.600
53226W        W21444  11.038  12.428  13.068
53227W        W21445  32.967   3.969   1.083
53228W        W21446  17.883  40.775  10.500
53229W        W21447  13.388  19.607   3.223
53230W        W21448  32.345  23.439   2.806
53231W        W21449  22.310  27.046  13.911
53232W        W21450  28.899  24.475   0.767
53233W        W21451  19.474  44.867  12.875
53234W        W21452  30.831  37.612   3.282
53235W        W21453  29.130  12.366   3.729
53236W        W21454   8.620  43.960  13.505
53237W        W21455  24.646  31.300  11.836
53238W        W21456  42.527  27.170  10.464
53239W        W21457   3.782  39.626   0.484
53240W        W21458  37.633   3.269  14.729
53241W        W21459  21.145  38.585   2.593
53242W        W21460  37.632  11.312  12.025
53243W        W21461   2.438  11.315   4.824
53244W        W21462  13.476  36.244   0.895
53245W        W21463  23.327  25.472   2.227
53246W        W21464  41.054  28.009  14.915
53247W        W21465   0.340  37.380   2.900
53248W        W21466  37.072  16.022  12.922
53249W        W21467  28.367   7.815   1.866
53250W        W21468  21.945  14.931   1.973
53251W        W21469   5.939  22.392  13.580
53252W        W21470  28.562  23.582  14.611
53253W        W21471   9.169  18.831   2.410
53254W        W21472  17.191  24.973  11.640
53255W        W21473  17.303  12.216   5.351
53256W        W21474  26.172  29.030   2.341
53257W        W21475  43.340  44.992   3.022
53258W        W21476  17.505  15.579  12.947
53259W        W21477  15.386  25.810   2.843
53260W        W21478  32.342  35.391  13.888
53261W        W21479   9.541  13.770   0.766
53262W        W21480   6.261  37.348   2.765
53263W        W21481  16.693  11.863  14.368
53264W        W21482   3.280  25.147  11.596
53265W        W21483   6.634  43.457   9.771
53266W        W21484  21.596   8.585   3.115
53267W        W21485  20.275   1.333   1.382
53268W        W21486   9.659  10.032  10.936
53269W        W21487  41.807   6.271   0.034
53270W        W21488   5.215  33.925   2.516
53271W        W21489  28.509  14.671  12.370
53272W        W21490   8.434  23.741   3.718
53273W        W21491  25.401  19.246  11.490
53274W        W21492  36.036  27.661  11.423
53275W        W21493  10.776  25.805  10.726
53276W        W21494  24.122   1.130  14.844
53277W        W21495  15.837  14.391  14.356
53278W        W21496  25.673  41.016   1.830
53279W        W21497   9.342   3.818   0.736
53280W        W21498  19.295  31.218   1.937
53281W        W21499  40.969  23.488   0.179
53282W        W21500   4.131   6.258   0.275
53283W        W21501  13.325   5.692  14.762
53284W        W21502  22.703  19.494   2.744
53285W        W21503  22.016  44.376   2.747
53286W        W21504   4.767  29.610   1.180
53287W        W21505  21.480   2.983  14.431
53288W        W21506  33.334  10.311  14.501
53289W        W21507  36.616   6.155   3.345
53290W        W21508  30.512   4.389  13.173
53291W        W21509  42.791  30.116   2.525
53292W        W21510  27.256  29.996  14.422
53293W        W21511   4.953  19.664   0.438
53294W        W21512   2.758   8.417   0.059
53295W        W21513   8.297  35.453   3.132
53296W        W21514  18.661   9.391  11.457
53297W        W21515  23.715  11.738   0.816
53298W        W21516   1.776  25.979  13.256
53299W        W21517   9.444  20.188   2.406
53300W        W21518   6.317  14.830   0.395
53301W        W21519  15.886  15.091   0.882
53302W        W21520   0.733  11.798   1.424
53303W        W21521  22.224  42.552  12.471
53304W        W21522  22.117  12.359   2.744
53305W        W21523   1.284  18.641   2.681
53306W        W21524  24.987   2.349  11.595
53307W        W21525  28.985  32.401   4.074
53308W        W21526  12.197  41.321  11.677
53309W        W21527  44.036  25.253   2.877
53310W        W21528  24.995   1.089   0.239
53311W        W21529  17.536  40.388   4.906
53312W        W21530  35.950   8.252   4.502
53313W        W21531  40.164  20.520  14.846
53314W        W21532  39.244  30.449  14.911
53315W        W21533  37.891   3.060  12.526
53316W        W21534  11.887   9.987   3.208
53317W        W21535  31.630   0.930  12.073
53318W        W21536  37.307  13.903   2.890
53319W        W21537  14.905   4.539  12.556
53320W        W21538  40.823  26.273   0.062
53321W        W21539  27.888  28.921  10.011
53322W        W21540   4.989  40.731   1.373
53323W        W21541   9.510  11.590   2.821
53324W        W21542  24.900  21.354  13.894
53325W        W21543  29.101   5.316  13.054
53326W        W21544  25.991  18.751  13.540
53327W        W21545  33.988   9.924   4.113
53328W        W21546  36.268   7.127  12.535
53329W        W21547   8.274  15.596   3.714
53330W        W21548  36.563  44.714   3.191
53331W        W21549  23.706  33.938  11.518
53332W        W21550  32.036  20.757  11.674
53333W        W21551  25.510   4.209   1.822
53334W        W21552  11.346  29.300  11.503
53335W        W21553  11.214  15.349   4.859
53336W        W21554  26.256   3.257   3.296
53337W        W21555  40.376   4.343   2.127
53338W        W21556  34.500   4.202  13.016
53339W        W21557  18.505   0.706   1.478
53340W        W21558  25.740  18.990   3.454
53341W        W21559  24.109  22.723   3.256
53342W        W21560  10.671  10.733   2.207
53343W        W21561  26.040  16.583  11.108
53344W        W21562  10.182  12.674  11.468
53345W        W21563   8.873  13.260  14.036
53346W        W21564  12.560  10.621   3.665
53347W        W21565  42.194   0.980   0.828
53348W        W21566  32.997  36.627   1.374
53349W        W21567  38.109  29.888   3.916
53350W        W21568  21.681  11.387  11.599
53351W        W21569  32.004   5.565  10.884
53352W        W21570  44.468  32.991   2.832
53353W        W21571   2.211  42.302  14.609
53354W        W21572   7.456  31.574  13.930
53355W        W21573  32.494  37.406   1.087
53356W        W21574  22.980   9.163   2.821
53357W        W21575  37.046  22.995   4.753
53358W        W21576   0.728  15.178   0.210
53359W        W21577  36.805  12.607   0.328
53360W        W21578  44.771  24.943   4.497
53361W        W21579   9.178  18.554  11.554
53362W        W21580  29.648  27.739   3.260
53363W        W21581  44.945  21.175  12.584
53364W        W21582  18.988  35.423   1.729
53365W        W21583  36.194  34.143   1.584
53366W        W21584  43.521  28.869   0.546
53367W        W21585  10.213   1.015  11.173
53368W        W21586  33.041  40.460   4.835
53369W        W21587   6.842  23.266   1.794
53370W        W21588  34.254  42.986   1.534
53371W        W21589  29.724  16.100   0.735
53372W        W21590  12.622  13.523   4.566
53373W        W21591  44.806  15.282   1.753
53374W        W21592  39.807  41.468   1.416
53375W        W21593   2.558   0.853   1.599
53376W        W21594  18.166  29.538   0.093
53377W        W21595  10.187  17.122  12.901
53378W        W21596  16.804   0.316   3.246
53379W        W21597  16.190  11.639   1.302
53380W        W21598  35.626  15.073   2.840
53381W        W21599  21.232  37.093  12.158
53382W        W21600  22.025  25.823   2.373
53383W        W21601   6.018  17.527   2.090
53384W        W21602  36.564  38.650   4.914
53385W        W21603  37.931  19.194   0.882
53386W        W21604  38.511  39.808  10.809
53387W        W21605  16.158  11.093   3.874
53388W        W21606   7.950  31.023  14.733
53389W        W21607  34.129  13.162  13.950
53390W        W21608  44.205  15.272   0.402
53391W        W21609   0.387   9.256   1.417
53392W        W21610  10.748  43.400   0.371
53393W        W21611  31.407  42.574  11.613
53394W        W21612  41.334  14.619   0.465
53395W        W21613   5.148   3.450   2.648
53396W        W21614  20.173  20.381   4.856
53397W        W21615   3.310  25.684   0.309
53398W        W21616  28.988  25.976   3.272
53399W        W21617  19.362   1.072  11.495
53400W        W21618  27.971  13.317  13.165
53401W        W21619  12.771  11.406  12.082
53402W        W21620  21.122  24.567  14.977
53403W        W21621  24.051   9.338  12.035
53404W        W21622   0.336  37.840   2.643
53405W        W21623  16.149   0.412   1.315
53406W        W21624  30.402  27.456   5.100
53407W        W21625  20.247   9.173  14.865
53408W        W21626  24.624  33.524  13.711
53409W        W21627  17.604  15.209  11.694
53410W        W21628  27.047  31.975   0.770
53411W        W21629  19.202  43.262   2.641
53412W        W21630   1.251  12.576   4.501
53413W        W21631  13.287  38.857  13.773
53414W        W21632  42.921  24.718  13.250
53415W        W21633   8.045  34.150  12.050
53416W        W21634  33.208   7.976  11.227
53417W        W21635  30.420  23.002  13.650
53418W        W21636  10.827  13.443   3.089
53419W        W21637  43.997  24.040   3.259
53420W        W21638  12.006   0.324   2.288
53421W        W21639  17.977  42.343   4.132
53422W        W21640   4.462   9.388   4.513
53423W        W21641  38.781  15.570  10.507
53424W        W21642  30.164  32.879   3.231
53425W        W21643  26.551  18.835   0.517
53426W        W21644  12.171  12.427   3.818
53427W        W21645  13.646   7.269  14.362
53428W        W21646  26.995  37.312   3.325
53429W        W21647  16.982  18.746   3.083
53430W        W21648  30.888  31.075   1.310
53431W        W21649  34.825  33.531  10.992
53432W        W21650  36.624  34.937   1.733
53433W        W21651  32.403  41.136  14.346
53434W        W21652   6.487  27.764  13.258
53435W        W21653  36.275  12.090   2.752
53436W        W21654  25.602  28.582   1.003
53437W        W21655  23.282  30.869  14.566
53438W        W21656  39.878  28.529  10.649
53439W        W21657  13.588  35.816   3.635
53440W        W21658  12.143  18.703  12.316
53441W        W21659  28.467  35.574  13.732
53442W        W21660  24.703  40.258  11.179
53443W        W21661   9.350  23.208   2.808
53444W        W21662   2.583  11.327  13.076
53445W        W21663  33.824   6.930  11.620
53446W        W21664   5.146  43.211  12.474
53447W        W21665  18.199   6.687   3.574
53448W        W21666  21.384  16.100   0.115
53449W        W21667  41.007   6.677  14.252
53450W        W21668  36.918  21.065   4.524
53451W        W21669  25.236   4.874  14.385
53452W        W21670   0.067  39.891   2.849
53453W        W21671  21.977   2.301   2.265
53454W        W21672  21.723   1.410   4.441
53455W        W21673  36.168   6.849  12.115
53456W        W21674  12.436  10.916   4.081
53457W        W21675  22.297  11.108  13.810
53458W        W21676  22.908  20.057  11.184
53459W        W21677  40.950  29.529  13.345
53460W        W21678  12.612   1.263   1.402
53461W        W21679   9.648   2.462  11.202
53462W        W21680  11.563   0.450  10.572
53463W        W21681  44.513  39.903   1.699
53464W        W21682  35.361  32.889  12.400
53465W        W21683  35.702   7.450  13.229
53466W        W21684  25.681  31.215  10.629
53467W        W21685  35.357  28.353  14.516
53468W        W21686  42.243  11.337  13.405
53469W        W21687  27.981   2.184   3.688
53470W        W21688  24.686  41.010  10.443
53471W        W21689  30.454  16.864  12.477
53472W        W21690   1.370   7.585  14.960
53473W        W21691  30.612  31.616  14.294
53474W        W21692  19.309  24.169   1.062
53475W        W21693  10.865  33.539   0.510
53476W        W21694  19.044   1.225   4.920
53477W        W21695  41.801   9.394  11.083
53478W        W21696  26.979   2.346  14.691
53479W        W21697  15.152  30.187  12.626
53480W        W21698  38.981  27.957   0.193
53481W        W21699  27.665   6.347  10.539
53482W        W21700  38.001  42.345   1.809
53483W        W21701  23.491  25.234   2.670
53484W        W21702  10.810  28.560   0.941
53485W        W21703  38.990  14.112   0.519
53486W        W21704  22.544  39.979  13.114
53487W        W21705  36.380  11.918   4.067
53488W        W21706  10.604  44.663  14.858
53489W        W21707  14.490   9.156  13.482
53490W        W21708   3.496   8.810   3.324
53491W        W21709  16.786  23.615   3.675
53492W        W21710  35.013  18.133   1.091
53493W        W21711  29.693  41.355   2.233
53494W        W21712  18.835  26.348   0.470
53495W        W21713   6.340  39.450   2.151
53496W        W21714  10.670   4.651   4.841
53497W        W21715  32.340  18.815  14.832
53498W        W21716  36.476  21.724   3.689
53499W        W21717  20.829  26.961  13.342
53500W        W21718   7.715  23.756   4.291
53501W        W21719  38.386  21.142  12.208
53502W        W21720  32.963  22.722  13.836
53503W        W21721   2.807   5.884   2.348
53504W        W21722  39.982  44.374  12.714
53505W        W21723  14.226  22.513  12.625
53506W        W21724   6.791   8.659  11.572
53507W        W21725  33.321  42.311  10.816
53508W        W21726  18.240   3.278   2.856
53509W        W21727  26.125  39.370   0.488
53510W        W21728  43.388  37.389   3.632
53511W        W21729  32.471  26.658  13.468
53512W        W21730  31.398  40.141   2.651
53513W        W21731  40.395  21.218  14.801
53514W        W21732  30.244   6.009   1.804
53515W        W21733  14.301   6.026   0.002
53516W        W21734  35.027  25.634   3.255
53517W        W21735   6.733   9.962   3.740
53518W        W21736   5.772  19.229   2.784
53519W        W21737  20.947  32.168   2.716
53520W        W21738  33.385  33.525   1.401
53521W        W21739  38.972  20.639   0.801
53522W        W21740   0.192   0.869  12.067
53523W        W21741  35.076   3.749  11.566
53524W        W21742   1.252   6.255  12.790
53525W        W21743  12.860   4.215   0.325
53526W        W21744  11.894  34.543  12.171
53527W        W21745  17.327  32.611   3.382
53528W        W21746  31.685  20.000   0.362
53529W        W21747  32.893   4.791   1.092
53530W        W21748  14.767  27.227  12.291
53531W        W21749  30.138   3.630   2.269
53532W        W21750   5.009  11.786  14.189
53533W        W21751  35.704   9.405  14.582
53534W        W21752  16.158  20.620   3.251
53535W        W21753  15.748  40.384  14.814
53536W        W21754  24.035  16.323  14.332
53537W        W21755  13.347   4.222   4.739
53538W        W21756  12.359  24.586   1.719
53539W        W21757  29.384   6.652  13.939
53540W        W21758  29.366  16.631  11.535
53541W        W21759  16.673  24.121   2.803
53542W        W21760   1.374  25.493  13.817
53543W        W21761  27.093  30.908   0.919
53544W        W21762  20.254  43.292  11.676
53545W        W21763  22.009  31.234  12.054
53546W        W21764  16.673  11.126  12.938
53547W        W21765  15.035  30.589   1.851
53548W        W21766   1.739  23.583   4.094
53549W        W21767   0.470   4.518  10.472
53550W        W21768  33.898  32.907  12.353
53551W        W21769  19.784  24.909  13.532
53552W        W21770  13.659  14.611  14.269
53553W        W21771   8.252  26.623   9.797
53554W        W21772   5.601  30.603  14.858
53555W        W21773   1.054  34.441   1.123
53556W        W21774  24.656  36.326   0.677
53557W        W21775  21.302   0.279   0.379
53558W        W21776  23.596  24.477   3.288
53559W        W21777  29.767  11.032  14.881
53560W        W21778  29.126  11.612  11.150
53561W        W21779  36.913  36.781   3.845
53562W        W21780  25.577  41.483   1.983
53563W        W21781   1.876  30.884   2.387
53564W        W21782  10.863  20.733   1.478
53565W        W21783  39.074   9.681   4.455
53566W        W21784  28.549  22.745  10.574
53567W        W21785   6.205   2.913   0.480
53568W        W21786  36.711   1.732  12.579
53569W        W21787   6.419  21.087   4.955
53570W        W21788  42.052  29.215   0.425
53571W        W21789   2.877  28.086   1.683
53572W        W21790   1.808  35.466  14.534
53573W        W21791  27.182  33.593  14.839
53574W        W21792  12.625   6.885   1.198
53575W        W21793  32.332  14.082  11.930
53576W        W21794  26.523   1.716   1.202
53577W        W21795   8.106   0.997   3.642
53578W        W21796   3.277   9.394   4.617
53579W        W21797  16.347   1.700  13.373
53580W        W21798  15.731  40.515  12.854
53581W        W21799   8.715  21.465  11.685
53582W        W21800  14.606  20.373  11.165
53583W        W21801   7.606  39.461  12.935
53584W        W21802  33.571  15.759  11.644
53585W        W21803  24.619   9.611   0.853
53586W        W21804  18.558  14.599  11.562
53587W        W21805  29.278  33.351  14.231
53588W        W21806  18.780  15.347  14.917
53589W        W21807  21.127  22.173   1.573
53590W        W21808  15.284   6.331  12.245
53591W        W21809   7.270  31.177   4.852
53592W        W21810   2.489   4.349   4.031
53593W        W21811  11.786  40.551  10.767
53594W        W21812  36.011  42.848  12.071
53595W        W21813  19.770  44.306   3.814
53596W        W21814  13.665  13.303  14.071
53597W        W21815  31.198  14.292   3.773
53598W        W21816   4.467  16.909   4.993
53599W        W21817  31.148  39.793   2.331
53600W        W21818  31.994  12.383   1.170
53601W        W21819  39.761  10.379  11.147
53602W        W21820   3.993  16.711   4.166
53603W        W21821  11.567  43.950   5.015
53604W        W21822  37.774   0.836   5.446
53605W        W21823  33.651  29.414  14.410
53606W        W21824   5.139  10.590   4.266
53607W        W21825  13.884  21.659   2.116
53608W        W21826   3.819  13.508  11.471
53609W        W21827  22.099  39.525   2.721
53610W        W21828  29.735  12.480   2.757
53611W        W21829  38.296  44.089   4.108
53612W        W21830  39.733  31.389  10.631
53613W        W21831  37.304   6.173  10.281
53614W        W21832   3.890  42.486   1.385
53615W        W21833  17.630  25.850  13.238
53616W        W21834  34.084  30.329   1.360
53617W        W21835  38.357  32.932  11.944
53618W        W21836  32.016  19.004   4.551
53619W        W21837  16.227  20.483   2.224
53620W        W21838  29.847  10.848  14.365
53621W        W21839   2.331  10.260  12.209
53622W        W21840  33.334  13.870   3.346
53623W        W21841  13.209  38.271   0.403
53624W        W21842  19.039  21.155   2.369
53625W        W21843  12.542  23.531   4.118
53626W        W21844  10.636  10.263  13.862
53627W        W21845  15.593  22.797   1.717
53628W        W21846  30.418  21.364  14.030
53629W        W21847   2.120   6.219  12.045
53630W        W21848   2.855  40.070   4.659
53631W        W21849  28.247  31.140  14.387
53632W        W21850  30.436  17.818   2.364
53633W        W21851   1.240  37.347  11.033
53634W        W21852  21.688  20.989  12.667
53635W        W21853  37.422  43.162   0.301
53636W        W21854  13.852  15.220   3.970
53637W        W21855  12.789  12.232   0.279
53638W        W21856  25.174   7.387   3.633
53639W        W21857   7.709   9.281  10.936
53640W        W21858  29.873  12.846  13.519
53641W        W21859  14.084  31.072  12.413
53642W        W21860   7.271  36.067  11.640
53643W        W21861  17.619  36.409   3.097
53644W        W21862  30.210  43.784  14.395
53645W        W21863  34.051  37.478   2.144
53646W        W21864  28.041  17.404   1.344
53647W        W21865  43.352  12.735   4.550
53648W        W21866  39.318  11.795   2.504
53649W        W21867  33.981   4.946  12.797
53650W        W21868  28.391  44.114  11.105
53651W        W21869  42.901  34.979   3.282
53652W        W21870  40.454   1.309  12.067
53653W        W21871  16.955  20.271   0.594
53654W        W21872  31.432  26.056  12.914
53655W        W21873  10.790  13.100   0.415
53656W        W21874  16.702  30.070   0.093
53657W        W21875  10.186  10.538  10.668
53658W        W21876   5.120   5.273   2.824
53659W        W21877  43.360  44.116  11.641
53660W        W21878  28.227  33.063  12.155
53661W        W21879  26.121  23.205   3.387
53662W        W21880   4.194  23.024   4.527
53663W        W21881  36.293  43.472   3.701
53664W        W21882   2.141  12.227   0.286
53665W        W21883  37.793  13.788   3.785
53666W        W21884   6.493   6.626  12.855
53667W        W21885  17.462  15.430  14.452
53668W        W21886  37.574  31.919  10.714
53669W        W21887  20.986  26.964   3.275
53670W        W21888  18.122  28.333  11.118
53671W        W21889  34.511  13.049   4.544
53672W        W21890  36.603  38.642  14.003
53673W        W21891  12.562  32.077  10.853
53674W        W21892  22.518  23.522   2.207
53675W        W21893  22.712   8.910   0.908
53676W        W21894  30.421  39.412   2.383
53677W        W21895  24.669  24.174  11.518
53678W        W21896  11.799  24.193  13.870
53679W        W21897  14.827  22.440   0.448
53680W        W21898  15.645  29.970  11.890
53681W        W21899  44.792  37.914   4.868
53682W        W21900  27.770  29.581  11.478
53683W        W21901  41.903   1.573   4.135
53684W        W21902  10.263  37.525   0.217
53685W        W21903  14.416  38.955   3.501
53686W        W21904   8.611   9.564  11.030
53687W        W21905  13.325  42.345   2.560
53688W        W21906  20.021   8.876  12.158
53689W        W21907  17.968  42.486  11.109
53690W        W21908  23.073  14.469  12.141
53691W        W21909  36.055  27.804   4.148
53692W        W21910  12.203  40.899  14.934
53693W        W21911  44.278   6.577  10.821
53694W        W21912  25.317  24.113   4.110
53695W        W21913  11.229  43.115   4.913
53696W        W21914  31.912  40.938  14.370
53697W        W21915   3.932  11.142   4.266
53698W        W21916  35.085  11.104   4.505
53699W        W21917   2.725  41.389  12.949
53700W        W21918   0.442  23.733  14.042
53701W        W21919  41.724   4.764   0.240
53702W        W21920  19.349  26.816  14.725
53703W        W21921  14.800   1.437  11.626
53704W        W21922  19.421  11.922   1.302
53705W        W21923  32.052  41.318   3.594
53706W        W21924  26.482  10.039   0.761
53707W        W21925   1.961   7.909  11.596
53708W        W21926  15.494  13.302   4.707
53709W        W21927   3.411  21.591   3.547
53710W        W21928  21.449  17.063  12.618
53711W        W21929   5.344   3.865  14.275
53712W        W21930  35.606  16.307  11.020
53713W        W21931  28.337  43.453   2.286
53714W        W21932  30.394  14.364  10.175
53715W        W21933  41.363  18.587   1.113
53716W        W21934  40.257  16.202   3.835
53717W        W21935  20.804  28.939  14.748
53718W        W21936  23.421  15.348   0.031
53719W        W21937  35.912  26.881   1.732
53720W        W21938  40.404  16.045   0.041
53721W        W21939  24.487  33.400  14.714
53722W        W21940  35.883  16.344   4.596
53723W        W21941  44.626  31.357  11.165
53724W        W21942  31.523  44.280   1.252
53725W        W21943  42.866  34.951   5.205
53726W        W21944  10.685  42.790  11.662
53727W        W21945  13.225   9.285   2.358
53728W        W21946  24.893  12.705  14.503
53729W        W21947  24.007  29.967   4.643
53730W        W21948  43.914  16.407   0.896
53731W        W21949   0.670  42.076  11.338
53732W        W21950  23.163   7.434  10.646
53733W        W21951  15.197   5.384   3.902
53734W        W21952  38.601  21.980  11.586
53735W        W21953   4.188   0.948   1.775
53736W        W21954  15.202   9.631   4.284
53737W        W21955  11.306  38.918   1.614
53738W        W21956  20.822  32.222  13.274
53739W        W21957  34.829  32.109   3.580
53740W        W21958  29.180  44.961   0.001
53741W        W21959  28.951  30.264   2.687
53742W        W21960  24.583  28.661  12.943
53743W        W21961  18.109  22.452  13.908
53744W        W21962  31.697   1.087  13.569
53745W        W21963   3.202  39.390   4.384
53746W        W21964  26.403  21.047  14.074
53747W        W21965  11.826  25.196  11.585
53748W        W21966  41.527  41.804  12.964
53749W        W21967   0.301  40.364   0.954
53750W        W21968   6.320  24.016  12.229
53751W        W21969  24.286  44.001   1.216
53752W        W21970  29.629  32.636  14.766
53753W        W21971  19.511  43.324  12.113
53754W        W21972  39.639  11.287  12.920
53755W        W21973  39.882  23.045  10.591
53756W        W21974   9.622   2.911   1.023
53757W        W21975  13.920  43.537   0.305
53758W        W21976   3.496  16.695  14.958
53759W        W21977  40.213  20.170   0.199
53760W        W21978   1.940  44.858   0.892
53761W        W21979  29.686  44.352  13.127
53762W        W21980  44.822  34.056  13.293
53763W        W21981  31.373  16.350   1.905
53764W        W21982  26.175   7.691   2.764
53765W        W21983   8.171  13.669   2.194
53766W        W21984  24.137   0.125  14.841
53767W        W21985   2.737  24.004   4.529
53768W        W21986   2.601  16.936   3.736
53769W        W21987   6.813  17.049  14.041
53770W        W21988  42.102  11.393  14.408
53771W        W21989  31.030  37.554   3.744
53772W        W21990   2.263  39.968   0.064
53773W        W21991  38.436  35.411  14.863
53774W        W21992  30.593  33.833   4.602
53775W        W21993   6.241  17.472   0.249
53776W        W21994  19.494  18.143   4.755
53777W        W21995  30.014  11.643   4.547
53778W        W21996  20.035  31.455   0.161
53779W        W21997   3.770  26.197  10.688
53780W        W21998  23.248  19.350  14.582
53781W        W21999  31.582  29.031  12.922
53782W        W22000   5.519  17.368  14.534
53783W        W22001  42.927   3.542   1.668
53784W        W22002   2.541  28.520  12.764
53785W        W22003  33.183  21.408  14.781
53786W        W22004  28.606   6.336   0.415
53787W        W22005   8.633  26.450  10.686
53788W        W22006  27.950   2.456   2.672
53789W        W22007  16.853  27.453   0.699
53790W        W22008  11.754  37.258   1.812
53791W        W22009  19.593  32.962  14.340
53792W        W22010  42.195   2.782  14.015
53793W        W22011  23.367  28.526  12.636
53794W        W22012  19.038  43.345  11.171
53795W        W22013   4.739  28.164  13.018
53796W        W22014  23.155  32.570  13.881
53797W        W22015  42.418  43.332   0.911
53798W        W22016  11.682  27.714   3.250
53799W        W22017   0.277  36.650  11.156
53800W        W22018  24.754   7.628  12.036
53801W        W22019  36.968   7.743   1.879
53802W        W22020  38.846  33.745   2.485
53803W        W22021  14.326  14.588   2.277
53804W        W22022  21.360  31.446  12.981
53805W        W22023  12.667  40.767  12.622
53806W        W22024  39.035  26.298   4.599
53807W        W22025  37.032  12.201  10.752
53808W        W22026  34.634  36.982  13.753
53809W        W22027   4.519   9.135   0.794
53810W        W22028   1.928  21.110   0.644
53811W        W22029   3.771  39.952  13.954
53812W        W22030  16.463  13.603  11.651
53813W        W22031  24.082  37.012  13.078
53814W        W22032  30.299  32.931  11.297
53815W        W22033  39.420  12.580   4.540
53816W        W22034  41.764  36.532   3.640
53817W        W22035  18.743   9.462   3.704
53818W        W22036   8.248  20.947   3.156
53819W        W22037  26.820  24.836  14.392
53820W        W22038  29.015  33.365   0.694
53821W        W22039  32.187   3.323   1.343
53822W        W22040  26.184  41.962  12.406
53823W        W22041  36.824  38.965   1.237
53824W        W22042  33.088  22.850   4.215
53825W        W22043  13.072   7.877   1.265
53826W        W22044   1.645  14.004   2.478
53827W        W22045  17.149  36.574  11.017
53828W        W22046  26.170   8.393  10.244
53829W        W22047  25.154  10.754   1.191
53830W        W22048  41.947  17.180   4.609
53831W        W22049  42.925   6.337  11.659
53832W        W22050  16.696  22.136   3.809
53833W        W22051  13.345  41.593   4.156
53834W        W22052   1.002  35.070  14.980
53835W        W22053   6.172   5.183   0.830
53836W        W22054  31.723  27.653  13.834
53837W        W22055   2.761  18.593  12.910
53838W        W22056  22.467  24.121   3.614
53839W        W22057  36.437  21.513   1.029
53840W        W22058  42.332  18.557  13.365
53841W        W22059  16.323  19.831  10.768
53842W        W22060  32.875   1.757  13.312
53843W        W22061  20.758  42.259   0.444
53844W        W22062  27.551  10.218   2.280
53845W        W22063   6.760  43.111   4.921
53846W        W22064   0.821   7.590   3.319
53847W        W22065  37.284  28.195  13.507
53848W        W22066  18.172  37.703   4.905
53849W        W22067  30.954  26.976   4.592
53850W        W22068  20.961  12.848  11.149
53851W        W22069  16.181  28.473  13.997
53852W        W22070  39.017  31.299   3.944
53853W        W22071  16.412  35.587   0.442
53854W        W22072  32.448   2.404   0.833
53855W        W22073  34.157  42.503  12.431
53856W        W22074  25.269  21.202   4.795
53857W        W22075  37.057  35.803   2.189
53858W        W22076  29.688  30.987   4.267
53859W        W22077  26.140  10.115  13.963
53860W        W22078  18.779   1.864   3.232
53861W        W22079  34.549   0.286   4.254
53862W        W22080   6.368  40.436   2.102
53863W        W22081  21.529  40.913  12.872
53864W        W22082  16.810  28.005   3.222
53865W        W22083  13.693  38.100   2.383
53866W        W22084  17.808  20.864  12.892
53867W        W22085  32.876  14.247  14.355
53868W        W22086  33.171   0.948   0.122
53869W        W22087   9.529  24.170   1.875
53870W        W22088  33.035  24.511   4.516
53871W        W22089  19.222  30.201   0.470
53872W        W22090  26.811  39.508  12.982
53873W        W22091  34.444  19.449   0.006
53874W        W22092  37.012  17.232   3.740
53875W        W22093  31.241  28.489  11.099
53876W        W22094  21.591  38.862   0.484
53877W        W22095  30.347  40.368  13.408
53878W        W22096  30.917  11.149  13.803
53879W        W22097  27.129  23.239   0.998
53880W        W22098  18.629   5.447   1.983
53881W        W22099  37.434  18.317  13.067
53882W        W22100  16.231   4.911  13.957
53883W        W22101  16.353  33.917   3.688
53884W        W22102  35.514   8.780   1.327
53885W        W22103  32.047   4.353   1.372
53886W        W22104   6.439  39.892  13.851
53887W        W22105  16.652  25.006   3.354
53888W        W22106  20.287  21.457   0.951
53889W        W22107  18.517  32.981  14.447
53890W        W22108  42.216  23.252  10.060
53891W        W22109  10.894  38.097  12.993
53892W        W22110  12.335   7.266   3.377
53893W        W22111   7.365  28.849  13.527
53894W        W22112  37.050  44.557   2.341
53895W        W22113  25.545  18.519   3.275
53896W        W22114  16.526   5.651   4.569
53897W        W22115   1.527  26.175   2.720
53898W        W22116  23.971  23.268   0.023
53899W        W22117   3.109  34.169   3.071
53900W        W22118  10.767  21.746  13.804
53901W        W22119  12.133  36.355   2.923
53902W        W22120  43.241  31.933  11.656
53903W        W22121   8.028   3.903   4.126
53904W        W22122  38.535  39.650   0.502
53905W        W22123  28.099  21.898  12.165
53906W        W22124  11.009   1.834   1.220
53907W        W22125  36.965  30.138  13.379
53908W        W22126  24.231   7.583   1.315
53909W        W22127  22.919   4.984   5.121
53910W        W22128  12.404  10.753  13.908
53911W        W22129  18.591   5.622  12.890
53912W        W22130  23.081  39.057   1.208
53913W        W22131   0.357   8.332  14.335
53914W        W22132   3.227  40.934   0.352
53915W        W22133  18.534  18.689   1.111
53916W        W22134   1.687   3.336   2.346
53917W        W22135  17.284   8.226  10.384
53918W        W22136   4.951  42.066  10.903
53919W        W22137  30.020  25.617   4.564
53920W        W22138  37.684   5.637   3.475
53921W        W22139   1.905  27.087  14.974
53922W        W22140  15.316   2.698  11.142
53923W        W22141  32.138  36.829  12.340
53924W        W22142  30.801  39.353  11.530
53925W        W22143   6.177  37.903   2.190
53926W        W22144  12.441  20.186  13.562
53927W        W22145  22.528  27.651  13.525
53928W        W22146  21.110  22.018   3.297
53929W        W22147  30.181   4.687  12.936
53930W        W22148  28.665  27.517   4.167
53931W        W22149  25.017  35.079  14.543
53932W        W22150  34.095  12.350   2.665
53933W        W22151  10.508  40.495   1.554
53934W        W22152  27.722   0.421  14.192
53935W        W22153  21.361  33.458  11.317
53936W        W22154  39.601  44.923  12.410
53937W        W22155  39.013  36.142  13.940
53938W        W22156  18.509  13.092   1.470
53939W        W22157  29.970  17.476  14.270
53940W        W22158  29.885  36.848  14.957
53941W        W22159  20.822  17.573   3.297
53942W        W22160  12.332  37.478  12.017
53943W        W22161  11.308  31.974   2.675
53944W        W22162   2.587  33.084  10.964
53945W        W22163  17.529  23.479  11.656
53946W        W22164  28.629  32.604  14.920
53947W        W22165  26.713  42.556   4.172
53948W        W22166  34.021  29.440   3.669
53949W        W22167   4.493   6.863  12.597
53950W        W22168  11.864  22.263   4.174
53951W        W22169  26.997  29.194  13.842
53952W        W22170  20.252  33.573  13.878
53953W        W22171  26.517  14.574   0.313
53954W        W22172  44.820  17.939   2.299
53955W        W22173  12.917  43.129  11.644
53956W        W22174  12.471  20.595   4.062
53957W        W22175  21.097   9.646  11.593
53958W        W22176  36.537  24.509  11.137
53959W        W22177  44.395   2.787   3.802
53960W        W22178  42.567  32.393  13.052
53961W        W22179   5.328  18.958   5.535
53962W        W22180  15.234  42.459   3.632
53963W        W22181   3.199  21.568  12.997
53964W        W22182  39.044  25.694  12.050
53965W        W22183   7.260  30.064  12.232
53966W        W22184  36.103  21.627   0.262
53967W        W22185  39.950  25.952  11.130
53968W        W22186   4.196   1.840  11.453
53969W        W22187  24.995  11.364  13.427
53970W        W22188  31.604   3.171   2.337
53971W        W22189  12.234  29.467  12.086
53972W        W22190   5.607  24.245   2.683
53973W        W22191  13.469  13.168   1.304
53974W        W22192  10.426  13.191   1.324
53975W        W22193  20.993  12.183   0.849
53976W        W22194  13.056   3.787   3.227
53977W        W22195  44.279  30.969  11.218
53978W        W22196  25.159   8.186  13.984
53979W        W22197  32.389  18.805   4.196
53980W        W22198   4.625   3.208   2.701
53981W        W22199   7.936  15.768   4.081
53982W        W22200  15.187  14.357  13.081
53983W        W22201  18.780  16.800   5.201
53984W        W22202  18.340  21.586   4.180
53985W        W22203   5.414  13.585  12.901
53986W        W22204  23.203  10.849   1.189
53987W        W22205  37.308  39.035   1.400
53988W        W22206  32.358  18.581   3.207
53989W        W22207  38.430  43.771  14.235
53990W        W22208  30.123  11.119   2.798
53991W        W22209  23.111  39.083  13.817
53992W        W22210  12.277  28.454   4.686
53993W        W22211  32.265   9.874  13.814
53994W        W22212  26.213  25.274  13.018
53995W        W22213  38.429  32.827  14.387
53996W        W22214  15.252  37.473  12.308
53997W        W22215  22.056  44.352  11.755
53998W        W22216  36.589  16.717   1.338
53999W        W22217  25.890  27.772  10.781
54000W        W22218  31.498  26.421   5.098
54001W        W22219  11.289  12.144   0.769
54002W        W22220  39.012   9.621  13.458
54003W        W22221   4.455   6.272  14.878
54004W        W22222  42.432   8.825   4.146
54005W        W22223  15.528  40.011   1.981
54006W        W22224  38.014  11.867   0.225
54007W        W22225  16.126   4.801   2.248
54008W        W22226   3.243  16.130   1.748
54009W        W22227  32.002  19.563  12.591
54010W        W22228  16.194  44.664  11.797
54011W        W22229  28.406  27.911  12.267
54012W        W22230  14.379  14.563   3.615
54013W        W22231  21.334  34.334   3.631
54014W        W22232   5.841  33.909   3.842
54015W        W22233   5.414   5.702   2.635
54016W        W22234  23.758  26.043   1.411
54017W        W22235  32.543  34.131  11.196
54018W        W22236  12.800   0.191   0.524
54019W        W22237  25.708  29.882  14.274
54020W        W22238   5.921   4.092  12.575
54021W        W22239  19.374  16.094  12.240
54022W        W22240  12.317  34.888   1.543
54023W        W22241  18.075   7.456   2.331
54024W        W22242   8.130  26.575   2.706
54025W        W22243  38.305  42.013  14.888
54026W        W22244   9.281  15.315   1.413
54027W        W22245  26.453  23.952   1.828
54028W        W22246  26.182   0.004  11.555
54029W        W22247  40.411  40.895   4.104
54030W        W22248   1.486  43.887   2.767
54031W        W22249  31.581  36.356  11.360
54032W        W22250  21.605  35.507   0.909
54033W        W22251   6.498  16.933  11.180
54034W        W22252  32.200   0.005   4.240
54035W        W22253  43.522  37.798  12.838
54036W        W22254   8.192  21.968   3.342
54037W        W22255  40.410   0.702  12.739
54038W        W22256   0.845  12.889  14.916
54039W        W22257   7.640  37.012   1.782
54040W        W22258  15.771   3.945  11.153
54041W        W22259  19.492  40.272   3.716
54042W        W22260  38.593  40.035  12.518
54043W        W22261  39.621  29.588  12.984
54044W        W22262  11.345   2.367   1.401
54045W        W22263   5.964   2.679   3.728
54046W        W22264  43.892  30.957   4.347
54047W        W22265  33.020  13.197  11.512
54048W        W22266   9.683  29.181  12.923
54049W        W22267   4.364  29.268   1.179
54050W        W22268  40.885  25.488  13.571
54051W        W22269   8.886  38.879  14.449
54052W        W22270  24.512  39.695  13.231
54053W        W22271  30.228  20.281   2.962
54054W        W22272   5.283   8.293   4.866
54055W        W22273  24.539  40.826  14.996
54056W        W22274  12.852   1.712   0.757
54057W        W22275  24.599  35.439   1.288
54058W        W22276   2.249  34.524   4.978
54059W        W22277   0.483  42.959  11.195
54060W        W22278  29.359   3.859  11.013
54061W        W22279  35.893  11.551  13.469
54062W        W22280  19.613   7.519   4.656
54063W        W22281  38.606  10.236  13.927
54064W        W22282  42.760   7.992   1.159
54065W        W22283  42.968  20.309   4.758
54066W        W22284  24.816  28.519  13.383
54067W        W22285   4.695  43.939  11.951
54068W        W22286  34.125  19.563  13.169
54069W        W22287  22.777  16.479   0.942
54070W        W22288  11.939  37.979  13.005
54071W        W22289   5.936  29.834  11.454
54072W        W22290  18.693   8.415  13.475
54073W        W22291  41.985   1.630   1.218
54074W        W22292   0.511  32.412  13.913
54075W        W22293  11.344   6.440  12.807
54076W        W22294  10.860  13.910  12.435
54077W        W22295  32.637   5.451   0.442
54078W        W22296  34.782  34.527  12.887
54079W        W22297  41.014   2.660  12.052
54080W        W22298   8.182  32.718   2.874
54081W        W22299  20.680  12.057   2.643
54082W        W22300  12.578  44.303   1.280
54083W        W22301  28.664  10.359  13.046
54084W        W22302  38.017   5.303   9.995
54085W        W22303  16.539  41.458   4.672
54086W        W22304  16.124  42.800   1.311
54087W        W22305   7.377  34.991   1.484
54088W        W22306   6.180  31.684  11.206
54089W        W22307  31.477  25.968   1.248
54090W        W22308   9.347  17.538   1.837
54091W        W22309   4.968  17.184  13.065
54092W        W22310  26.526   1.387  10.520
54093W        W22311  21.364   3.653   3.263
54094W        W22312  42.314  21.262   3.367
54095W        W22313  10.307  35.050  14.244
54096W        W22314   6.284   0.321   9.941
54097W        W22315   8.150   2.014  13.833
54098W        W22316  18.789   7.813  12.667
54099W        W22317  24.525  41.870  14.480
54100W        W22318  17.141  36.081  11.199
54101W        W22319  16.935  13.796  11.593
54102W        W22320  12.123  34.624   3.244
54103W        W22321  32.334  27.262   2.704
54104W        W22322  42.980  21.753   1.267
54105W        W22323  28.924  28.048  12.223
54106W        W22324  20.074  32.735  12.873
54107W        W22325  23.430   8.988   0.491
54108W        W22326  43.827  19.657   1.465
54109W        W22327  40.761  37.337  13.464
54110W        W22328   7.266  32.467  12.025
54111W        W22329   2.203  40.414   4.807
54112W        W22330  13.301   9.271  14.253
54113W        W22331  23.823   6.712   1.148
54114W        W22332  24.585  37.415   1.710
54115W        W22333  16.240  14.492   3.081
54116W        W22334  37.157   9.778  13.497
54117W        W22335  24.563  24.529   3.377
54118W        W22336   4.386  25.059   0.929
54119W        W22337  39.798  33.130   0.008
54120W        W22338  40.308  29.516   2.955
54121W        W22339  33.444  34.238   0.633
54122W        W22340   6.539  27.529   1.994
54123W        W22341  24.958  15.270   1.217
54124W        W22342  15.364  15.397   3.220
54125W        W22343  34.476   6.100   2.219
54126W        W22344  44.271  41.234   4.048
54127W        W22345  19.480  31.505  11.254
54128W        W22346  16.645  31.903   0.904
54129W        W22347   1.838  37.554  13.118
54130W        W22348  39.413  27.330   1.367
54131W        W22349  42.469   7.575  14.510
54132W        W22350  36.589   3.686   1.259
54133W        W22351  25.111  20.307   1.353
54134W        W22352   1.256  40.921  11.643
54135W        W22353  24.510  22.945   3.513
54136W        W22354  43.748  14.786  13.081
54137W        W22355  22.604  43.442  11.128
54138W        W22356  27.661  29.955  11.156
54139W        W22357  26.992  21.253   0.393
54140W        W22358  26.601  44.202  10.716
54141W        W22359  42.544  25.192  10.733
54142W        W22360  43.307  15.815  11.978
54143W        W22361  36.969  39.701  12.078
54144W        W22362  43.301   1.709  12.095
54145W        W22363  17.493  29.551   0.906
54146W        W22364  21.735  24.395  12.413
54147W        W22365  28.113  36.669   4.091
54148W        W22366   1.355   6.114  14.774
54149W        W22367  28.597   2.792  14.523
54150W        W22368  11.283   9.227   3.066
54151W        W22369   2.668  34.158  14.847
54152W        W22370  23.941  42.941   9.837
54153W        W22371  24.463  40.231   3.517
54154W        W22372   6.145  26.169  12.604
54155W        W22373   6.126  40.050   4.322
54156W        W22374  27.574  43.944   4.036
54157W        W22375  19.102  22.897  14.774
54158W        W22376  25.622  24.698  12.163
54159W        W22377  14.278  19.263   3.876
54160W        W22378   4.481  12.575   1.327
54161W        W22379  19.559  25.451   1.304
54162W        W22380  40.590  15.156   1.036
54163W        W22381   5.896  44.518   3.140
54164W        W22382  44.505  21.196  10.698
54165W        W22383   9.170  11.697  12.443
54166W        W22384  42.369  19.306  14.826
54167W        W22385  14.051  36.012   4.793
54168W        W22386  31.251  21.427  11.245
54169W        W22387   9.208  31.692   1.987
54170W        W22388  15.025  25.630   1.268
54171W        W22389  31.514  35.011   2.245
54172W        W22390  42.355  19.014   0.853
54173W        W22391  36.024  33.603   4.457
54174W        W22392  33.515  12.762   0.856
54175W        W22393  23.532  43.130   0.275
54176W        W22394  21.205  30.231  13.286
54177W        W22395  20.156   8.896  12.941
54178W        W22396  29.623  34.392   1.458
54179W        W22397  33.607  19.264   3.316
54180W        W22398  15.186   4.213  14.389
54181W        W22399  34.483  34.914   2.524
54182W        W22400  37.957   4.233   1.657
54183W        W22401  40.033   4.962  14.691
54184W        W22402  36.054  31.674   4.138
54185W        W22403  21.643  15.758   2.760
54186W        W22404   9.835  31.172  13.159
54187W        W22405  15.240  17.421  12.993
54188W        W22406   8.636   4.898  13.982
54189W        W22407  33.849  22.704   2.732
54190W        W22408  22.835  30.600  14.520
54191W        W22409  42.401   9.908  13.998
54192W        W22410  32.176  20.450  11.185
54193W        W22411  42.392  26.678  10.563
54194W        W22412  27.609  39.422   4.543
54195W        W22413  39.051  32.522   4.459
54196W        W22414  15.668  40.452   2.225
54197W        W22415  43.018  19.687  13.412
54198W        W22416  15.577   1.364   1.244
54199W        W22417  27.655  25.864  11.061
54200W        W22418  37.127  14.630   4.523
54201W        W22419  36.640   9.254   3.745
54202W        W22420   9.148  37.440   2.338
54203W        W22421  23.765  14.285   3.703
54204W        W22422   1.545  12.042   3.829
54205W        W22423  30.620  19.528   4.843
54206W        W22424   8.649  24.471   0.355
54207W        W22425  20.787   2.939   2.316
54208W        W22426  36.245  17.215  13.349
54209W        W22427  20.610   0.453   0.875
54210W        W22428  18.215  13.645  14.224
54211W        W22429  39.593   7.481  13.547
54212W        W22430  26.144  34.626  11.325
54213W        W22431  43.333  18.144  12.078
54214W        W22432  39.748  36.063   4.847
54215W        W22433  24.926  24.768  10.317
54216W        W22434  34.362  30.162  10.237
54217W        W22435  39.129   3.385  13.299
54218W        W22436  14.232  27.936   3.873
54219W        W22437  39.385  25.190  14.961
54220W        W22438  20.201  44.043   3.639
54221W        W22439  18.167  29.351  11.174
54222W        W22440   0.155  12.380  11.834
54223W        W22441   8.733  28.164   4.696
54224W        W22442  10.390   8.490   2.862
54225W        W22443  31.861  36.476  13.577
54226W        W22444  17.142  30.585  11.931
54227W        W22445  26.951  27.023   1.916
54228W        W22446  35.533   0.550   3.397
54229W        W22447  31.094  30.943   3.181
54230W        W22448   7.093  28.939   1.946
54231W        W22449  13.304  27.346   3.163
54232W        W22450  41.430  12.125  11.193
54233W        W22451  19.466  34.466   2.691
54234W        W22452  11.027  22.369   3.686
54235W        W22453  32.074  39.052   2.660
54236W        W22454  38.400  12.357  11.047
54237W        W22455  27.009   2.270   2.289
54238W        W22456  16.899   8.136  10.740
54239W        W22457  38.992  31.830   4.014
54240W        W22458  23.193  20.282  12.163
54241W        W22459   4.487   3.320  14.377
54242W        W22460  35.388  32.881  10.807
54243W        W22461   2.938  39.002   4.580
54244W        W22462  44.747  41.344   0.026
54245W        W22463  38.306   9.489  10.674
54246W        W22464  36.455   0.527   1.387
54247W        W22465  39.975  20.983   0.752
54248W        W22466   6.253  19.624  10.783
54249W        W22467   8.954  29.089   2.108
54250W        W22468  15.503  24.159   1.301
54251W        W22469  37.345  25.638  12.934
54252W        W22470   0.298   2.938   2.121
54253W        W22471  41.104   0.385   4.142
54254W        W22472  14.449   9.192   4.627
54255W        W22473  35.413  41.354   3.856
54256W        W22474   0.225  11.782   2.150
54257W        W22475  28.058  42.646  14.251
54258W        W22476  23.581  36.664  12.090
54259W        W22477   8.732  43.411  11.639
54260W        W22478  18.867   2.298  11.102
54261W        W22479  35.498  30.895   0.341
54262W        W22480   7.943  42.826   1.810
54263W        W22481  15.785  29.547   0.308
54264W        W22482   2.306  34.222  13.588
54265W        W22483   0.531  19.597   2.149
54266W        W22484  34.261  41.387   4.138
54267W        W22485   6.850  23.180   3.270
54268W        W22486   1.191  29.666   0.902
54269W        W22487  34.987  21.414  13.855
54270W        W22488  27.375  34.194   1.724
54271W        W22489  22.545  18.085   0.546
54272W        W22490  30.492  18.020   4.540
54273W        W22491   9.710   2.074  12.454
54274W        W22492  41.204  37.369   2.425
54275W        W22493  25.542  15.005  13.117
54276W        W22494  27.768  33.328  11.156
54277W        W22495  27.022  43.257   0.805
54278W        W22496   2.396  19.154   4.192
54279W        W22497  34.068  27.455   1.136
54280W        W22498  40.953   2.991  14.470
54281W        W22499  14.900  27.560  13.123
54282W        W22500  33.067  18.129  10.674
54283W        W22501  25.494  39.807  13.023
54284W        W22502   9.241  36.893   1.691
54285W        W22503  16.668  41.824  11.839
54286W        W22504  29.154  30.349  11.091
54287W        W22505  12.173  40.559  10.416
54288W        W22506  25.959  38.506  13.893
54289W        W22507  36.084  29.415   1.268
54290W        W22508  25.041  27.497   0.275
54291W        W22509  14.500   8.574   5.303
54292W        W22510  24.948  32.998   0.936
54293W        W22511   0.203  38.291   3.414
54294W        W22512  30.219   3.381   2.707
54295W        W22513   5.359   4.137  11.773
54296W        W22514  27.696   6.271  11.491
54297W        W22515  26.240  26.460  12.518
54298W        W22516   4.529   3.676  12.115
54299W        W22517  35.106  31.571  10.435
54300W        W22518  23.691   7.170   0.890
54301W        W22519  16.146  17.011   1.148
54302W        W22520  10.260   8.637  10.205
54303W        W22521  44.962  41.493   4.537
54304W        W22522  25.782  12.607  12.050
54305W        W22523  24.503  10.512  13.897
54306W        W22524  40.839   7.953  11.689
54307W        W22525  44.532  22.101  11.580
54308W        W22526  13.217  22.898   1.692
54309W        W22527  12.130  16.807  13.575
54310W        W22528  13.893  16.614  13.041
54311W        W22529   7.242  37.792   5.055
54312W        W22530  22.021  24.687   4.228
54313W        W22531  16.548  35.176   2.806
54314W        W22532  17.728   8.130   3.001
54315W        W22533  16.219  28.231   4.050
54316W        W22534  22.957  31.069   0.328
54317W        W22535   8.212  12.907  14.992
54318W        W22536  18.013  36.870   1.753
54319W        W22537  31.193   4.491   2.780
54320W        W22538  16.773   3.826   0.481
54321W        W22539  40.979   9.105   2.805
54322W        W22540  33.512  34.692   4.551
54323W        W22541   2.426  22.782   3.176
54324W        W22542  44.113   4.486  10.859
54325W        W22543  30.897   1.446  14.928
54326W        W22544   6.429  24.602  14.954
54327W        W22545  38.307   9.617  11.597
54328W        W22546  26.702  41.832   1.829
54329W        W22547  36.575  12.607   3.230
54330W        W22548  17.144  16.083   3.122
54331W        W22549  30.733  10.236  12.445
54332W        W22550  10.386  19.991  10.746
54333W        W22551  27.043  23.509  12.185
54334W        W22552  12.809  15.794  12.397
54335W        W22553  34.164  32.561  14.851
54336W        W22554   0.829   5.741  11.627
54337W        W22555  27.132  19.212  10.649
54338W        W22556  40.949  12.175  13.921
54339W        W22557  23.031  43.426   4.252
54340W        W22558   0.911  30.073   1.911
54341W        W22559  34.552  16.716  10.787
54342W        W22560  35.538  21.176   2.432
54343W        W22561  33.379   0.727  12.125
54344W        W22562  10.469   1.977  12.803
54345W        W22563  18.149  27.740   0.607
54346W        W22564  21.497   0.061   2.718
54347W        W22565  20.978  28.021  11.194
54348W        W22566  23.455  30.464   1.074
54349W        W22567  26.571   0.635   3.746
54350W        W22568  33.601  10.453   2.819
54351W        W22569  42.935   0.351   3.750
54352W        W22570  44.915  33.010  12.333
54353W        W22571  14.241  37.314   1.257
54354W        W22572  29.218  17.850   5.196
54355W        W22573  15.651   8.629  14.393
54356W        W22574  26.518   4.773  12.363
54357W        W22575  44.122  24.151   1.007
54358W        W22576  23.594  30.919   2.862
54359W        W22577  41.697  24.290  12.929
54360W        W22578  30.257   8.651   3.132
54361W        W22579  26.899  23.528   2.243
54362W        W22580   2.256   6.416  12.529
54363W        W22581   2.740  41.727   2.135
54364W        W22582  41.307  28.651  12.003
54365W        W22583  38.310  33.835  11.399
54366W        W22584  41.219   6.361  13.144
54367W        W22585  12.488  34.830   2.371
54368W        W22586  42.325  12.983   3.355
54369W        W22587  42.866  37.043   3.019
54370W        W22588  31.058   1.727  13.564
54371W        W22589  31.405  27.022  10.232
54372W        W22590   7.407  42.931  13.482
54373W        W22591   6.234  15.626  11.894
54374W        W22592   2.743  37.908  13.531
54375W        W22593  15.894  23.362  14.962
54376W        W22594   6.391  24.903   1.454
54377W        W22595  43.922   8.865   2.336
54378W        W22596  17.470  10.158  11.456
54379W        W22597  33.510   4.168   3.313
54380W        W22598   9.075  17.067  11.164
54381W        W22599   3.568  39.235  14.489
54382W        W22600  39.633  20.494  14.921
54383W        W22601  40.835  41.263  11.241
54384W        W22602   9.925  17.821   2.632
54385W        W22603  11.706  32.025  10.542
54386W        W22604   8.594  23.993  12.139
54387W        W22605  25.449  13.165   4.951
54388W        W22606   9.623   4.921   3.822
54389W        W22607   9.425   4.638  13.618
54390W        W22608  17.300  39.596  14.882
54391W        W22609  40.617  18.899   1.706
54392W        W22610  16.295  23.477   3.517
54393W        W22611  39.726  25.543   4.814
54394W        W22612  29.883  25.148   2.766
54395W        W22613  23.934   6.405  13.441
54396W        W22614   1.430  24.362   3.395
54397W        W22615  26.577  41.710  12.621
54398W        W22616  32.991  30.482   3.988
54399W        W22617  33.917  17.051  11.875
54400W        W22618  34.687  22.121   4.717
54401W        W22619  24.001  37.354   2.497
54402W        W22620  41.032  44.414  13.251
54403W        W22621   6.718  43.888  13.362
54404W        W22622  10.290  31.847   3.598
54405W        W22623  25.006  41.934  14.333
54406W        W22624  20.190   9.722   1.155
54407W        W22625   2.539  44.311   3.235
54408W        W22626  23.592  21.127   1.872
54409W        W22627  30.617  36.952  11.926
54410W        W22628  12.973  14.617   0.741
54411W        W22629   3.305  23.916  10.555
54412W        W22630  11.057  18.266   4.695
54413W        W22631  25.724  11.784   2.502
54414W        W22632  38.867  11.717   3.703
54415W        W22633  18.113  33.051   0.160
54416W        W22634   3.833  44.033   4.232
54417W        W22635   3.069  11.215  10.743
54418W        W22636  10.753  31.143  13.970
54419W        W22637  24.753  18.307  13.884
54420W        W22638   6.442  21.472   2.806
54421W        W22639  20.757  15.111  12.552
54422W        W22640  43.785  35.938  11.522
54423W        W22641  11.151  20.465  11.227
54424W        W22642  27.970  19.318   4.527
54425W        W22643  32.781   4.987   4.649
54426W        W22644  33.138  21.088  12.385
54427W        W22645   7.474  16.369  13.912
54428W        W22646  44.897  43.836  14.368
54429W        W22647  41.277   6.964  11.170
54430W        W22648  29.338   1.698  12.454
54431W        W22649   1.283  22.555   1.807
54432W        W22650  21.646  29.918  14.991
54433W        W22651  28.955  43.346  11.471
54434W        W22652  24.804   2.829  12.822
54435W        W22653  42.380   6.992   1.020
54436W        W22654  34.534  19.356  12.839
54437W        W22655  22.245  15.847   0.975
54438W        W22656  39.386  38.846  11.844
54439W        W22657   0.291  15.611  11.630
54440W        W22658  12.186  41.502  12.152
54441W        W22659  17.808  41.814   2.438
54442W        W22660  29.218  39.362  12.911
54443W        W22661  30.460  28.106  11.949
54444W        W22662  33.074  17.608   1.678
54445W        W22663  37.643   1.661   0.647
54446W        W22664  36.607  42.273  13.415
54447W        W22665  44.502  35.845   3.437
54448W        W22666  33.630  22.768  11.146
54449W        W22667  11.822  10.640   1.534
54450W        W22668  18.192  29.603   4.568
54451W        W22669  24.720  30.075  11.110
54452W        W22670  22.581   9.169   2.236
54453W        W22671  27.976  43.453  10.680
54454W        W22672  29.654  15.237  13.873
54455W        W22673  23.048  14.246   1.955
54456W        W22674  40.821  13.311  12.529
54457W        W22675  29.129  30.749  14.277
54458W        W22676   5.269  16.803   0.359
54459W        W22677  23.164  28.455   1.453
54460W        W22678  27.627  36.584  12.000
54461W        W22679   8.875  23.234  14.460
54462W        W22680  39.348  19.165   2.882
54463W        W22681   1.008  28.970   2.960
54464W        W22682  29.095  30.634  10.669
54465W        W22683  33.438  42.533   3.454
54466W        W22684  27.159  21.974   4.946
54467W        W22685  11.375  23.976  11.117
54468W        W22686  23.693  28.184   4.045
54469W        W22687  39.298   8.854  11.926
54470W        W22688  11.653   6.435  14.223
54471W        W22689   6.785  26.887  14.889
54472W        W22690  11.596  24.577   4.748
54473W        W22691  10.689  40.977   0.974
54474W        W22692  10.261  30.029  11.561
54475W        W22693  34.119  18.201   3.765
54476W        W22694  26.888   1.075  12.036
54477W        W22695   2.430  33.096   3.193
54478W        W22696   0.567  10.194  12.077
54479W        W22697  22.165  22.509  14.179
54480W        W22698  24.987   6.845   2.720
54481W        W22699  25.104  38.886  12.980
54482W        W22700  30.000  10.054   0.498
54483W        W22701  20.337  33.959   2.812
54484W        W22702  39.561  10.977  13.346
54485W        W22703  11.902  35.386  11.399
54486W        W22704  37.346  39.983   1.269
54487W        W22705  24.195  34.351   4.243
54488W        W22706   3.960  34.938  11.794
54489W        W22707  28.884  23.974  11.645
54490W        W22708   2.285  43.017  13.384
54491W        W22709  42.745  11.228   4.312
54492W        W22710  22.068  38.797  13.776
54493W        W22711  44.529   4.557   0.911
54494W        W22712  36.918   3.545   4.109
54495W        W22713   7.152   0.520   2.749
54496W        W22714   5.397  41.556   2.623
54497W        W22715   7.794  30.122   4.607
54498W        W22716   8.974  44.864   0.784
54499W        W22717  11.396   2.318  12.469
54500W        W22718  33.594   6.756   0.511
54501W        W22719  32.142  35.542  12.376
54502W        W22720  40.085  41.063   1.232
54503W        W22721   7.001  10.756   4.581
54504W        W22722  44.311  29.749   1.313
54505W        W22723  15.315  36.595  12.656
54506W        W22724   7.032  41.798  11.340
54507W        W22725   3.616  33.827  14.914
54508W        W22726  20.229  31.122  11.450
54509W        W22727   4.715  12.861   3.699
54510W        W22728  17.269  39.040   4.056
54511W        W22729  19.703  37.733  13.278
54512W        W22730  35.916  18.699  10.612
54513W        W22731  42.793   1.360   2.748
54514W        W22732  32.651  32.922  11.421
54515W        W22733  26.058  15.025  10.258
54516W        W22734  42.130   2.005   1.556
54517W        W22735  19.074  40.456   4.003
54518W        W22736  10.463  27.675   4.613
54519W        W22737  13.790   3.841  13.085
54520W        W22738  19.106  27.958  14.259
54521W        W22739  19.763  43.802  10.924
54522W        W22740   1.306  39.201   1.710
54523W        W22741  15.255  16.575   0.262
54524W        W22742   3.862  20.310  11.963
54525W        W22743  37.803  44.233  12.922
54526W        W22744   2.395  31.645   4.378
54527W        W22745  37.257   1.578  14.473
54528W        W22746  28.759   6.491   1.657
54529W        W22747  43.315  18.123  11.564
54530W        W22748  44.363   1.895  14.030
54531W        W22749  19.917   1.254   0.436
54532W        W22750  25.642  21.313  12.295
54533W        W22751  25.023  11.728  14.601
54534W        W22752  34.100  28.532  13.821
54535W        W22753  31.454  28.939  14.853
54536W        W22754  40.315  19.059  13.801
54537W        W22755  30.326  43.841   1.767
54538W        W22756  41.990  26.644   1.776
54539W        W22757  27.117  31.812   2.759
54540W        W22758  28.957  16.630  12.478
54541W        W22759  16.133  43.297  12.074
54542W        W22760   5.615   6.434   3.167
54543W        W22761   2.436  19.859  10.502
54544W        W22762  21.281  22.045   0.709
54545W        W22763  13.220  20.559  12.493
54546W        W22764   4.388  43.520  13.525
54547W        W22765  26.603  25.230  12.562
54548W        W22766  41.976  10.087   0.789
54549W        W22767  34.685  33.386   0.072
54550W        W22768  28.456  14.579   3.797
54551W        W22769   5.024  26.252  10.149
54552W        W22770   0.220  20.133   2.853
54553W        W22771  11.817  11.323  14.015
54554W        W22772  38.800  10.832   1.939
54555W        W22773  34.957  43.817  11.130
54556W        W22774  44.366  37.619   3.688
54557W        W22775  24.010  39.677  13.071
54558W        W22776  29.077  33.189  10.606
54559W        W22777  12.535   7.233  13.444
54560W        W22778   3.409   8.376  13.984
54561W        W22779  44.844   8.908  13.063
54562W        W22780  15.645  11.145   3.636
54563W        W22781  26.139  29.354   4.916
54564W        W22782  35.881   0.846  14.485
54565W        W22783  31.479  44.488   1.765
54566W        W22784   4.804  37.216  11.190
54567W        W22785   5.293  21.009  12.508
54568W        W22786  22.128  42.036  11.697
54569W        W22787  27.993  31.969  11.454
54570W        W22788  19.710  30.171   3.488
54571W        W22789   9.185  14.722  14.702
54572W        W22790   9.265  44.528   1.847
54573W        W22791  16.286  23.729   4.421
54574W        W22792  11.711  41.300   4.510
54575W        W22793  25.902  39.936   0.028
54576W        W22794  37.333   5.012   1.726
54577W        W22795  38.909   4.252   3.821
54578W        W22796  18.562  18.245  13.485
54579W        W22797   9.112  23.297   3.334
54580W        W22798  23.824  44.568  11.866
54581W        W22799  15.709  31.004  13.527
54582W        W22800  16.953  37.958   3.053
54583W        W22801  27.720  42.562   1.787
54584W        W22802   7.874  17.965   0.011
54585W        W22803  38.868  26.235  13.015
54586W        W22804  13.362  28.894   0.945
54587W        W22805  44.437  13.565  13.602
54588W        W22806   0.551  30.494  14.856
54589W        W22807  39.342  26.558   1.063
54590W        W22808  12.472  17.736   4.260
54591W        W22809  30.655  17.803  14.091
54592W        W22810  35.624  20.706  11.824
54593W        W22811  37.988  27.011   2.781
54594W        W22812  14.615  25.591  11.925
54595W        W22813   2.533  26.188   2.362
54596W        W22814  14.062  16.001  10.949
54597W        W22815  33.127  30.295   5.366
54598W        W22816  11.605   2.950   3.378
54599W        W22817  20.234  39.985  14.367
54600W        W22818  29.066   5.152   4.188
54601W        W22819   7.243  36.283   1.366
54602W        W22820  44.295  27.259   0.445
54603W        W22821  16.122  30.721  12.374
54604W        W22822   7.041   0.265   2.303
54605W        W22823  28.676  43.307  11.897
54606W        W22824  20.929  28.040  12.027
54607W        W22825  20.295  31.915  13.359
54608W        W22826  28.018  27.606   2.876
54609W        W22827  13.129  35.929  13.786
54610W        W22828  43.225   9.393   2.383
54611W        W22829  13.032  38.890  13.295
54612W        W22830  43.546  20.089   1.698
54613W        W22831  17.379  13.169  14.768
54614W        W22832  18.230  25.690  12.671
54615W        W22833  38.991  38.555  11.608
54616W        W22834  22.221   4.834  10.711
54617W        W22835  38.804  40.413  13.921
54618W        W22836  27.456  40.971   4.271
54619W        W22837  17.225  29.038  13.560
54620W        W22838   4.656  36.373   3.710
54621W        W22839  24.490  43.478   2.043
54622W        W22840  43.829  34.990   3.309
54623W        W22841  41.581  14.823   0.882
54624W        W22842   0.728  37.048   3.611
54625W        W22843  38.159  40.295  10.792
54626W        W22844   5.111  34.511  10.271
54627W        W22845  29.649  19.815  12.663
54628W        W22846  23.562  24.692  12.830
54629W        W22847   5.501   2.808   2.803
54630W        W22848  14.597   7.364  13.398
54631W        W22849   7.733  34.421   4.611
54632W        W22850   5.385  12.369   4.062
54633W        W22851  30.490  29.746   3.877
54634W        W22852   9.723  39.445  14.411
54635W        W22853  11.225  29.127   4.044
54636W        W22854  27.964   1.063  10.330
54637W        W22855  34.561  41.107   0.967
54638W        W22856  33.375   1.918   2.592
54639W        W22857  17.789   0.660   1.806
54640W        W22858  10.936  18.164   1.198
54641W        W22859   9.403  41.521  10.794
54642W        W22860  42.402   4.679   1.604
54643W        W22861  31.921  23.099  11.647
54644W        W22862  35.715  27.172  12.529
54645W        W22863  39.110   1.259  12.134
54646W        W22864  41.867  23.939   0.499
54647W        W22865  10.841  22.752  13.630
54648W        W22866  18.279  31.316  11.225
54649W        W22867  28.962   5.883  10.702
54650W        W22868  17.014   3.835   3.602
54651W        W22869   7.750  17.447   2.329
54652W        W22870  20.637  15.879  12.087
54653W        W22871  17.721  34.019   3.601
54654W        W22872  42.494  32.065  13.442
54655W        W22873  34.660  37.774  11.986
54656W        W22874  32.393   2.767   1.245
54657W        W22875  37.802  40.808   0.384
54658W        W22876  43.785   6.398   2.296
54659W        W22877  39.055   6.836  14.292
54660W        W22878  17.636  44.753   0.785
54661W        W22879  32.369  10.360   9.987
54662W        W22880  17.558  25.006   3.057
54663W        W22881  21.557  25.065  13.125
54664W        W22882  15.301  20.879   2.836
54665W        W22883  39.841  21.080  11.541
54666W        W22884   6.204  36.483  12.968
54667W        W22885  17.270   1.773   5.005
54668W        W22886  22.176  27.272   0.526
54669W        W22887  25.136  41.922  12.454
54670W        W22888   2.217  26.660  12.781
54671W        W22889  12.475   8.252   1.302
54672W        W22890  13.147  28.779   4.122
54673W        W22891   6.710  22.102  14.596
54674W        W22892  22.660  39.844  14.354
54675W        W22893  27.305  31.964  13.423
54676W        W22894  28.675  11.564  11.979
54677W        W22895  18.038  19.331   0.891
54678W        W22896   6.174   0.709  13.673
54679W        W22897  30.167   0.290  13.842
54680W        W22898  30.517  27.890  14.782
54681W        W22899  42.458  30.554  13.772
54682W        W22900  11.107  10.843   1.847
54683W        W22901  17.639  38.027  10.564
54684W        W22902  10.186   9.807   1.422
54685W        W22903   8.223  30.219  11.838
54686W        W22904  38.314  44.798   3.774
54687W        W22905   6.904   6.358   4.152
54688W        W22906  21.329  16.624  10.066
54689W        W22907  35.945  16.643   4.146
54690W        W22908   4.268  39.108   1.178
54691W        W22909  10.129  17.047  11.247
54692W        W22910  25.356   6.098  14.018
54693W        W22911   3.324   9.904   3.795
54694W        W22912   1.204   0.652   2.412
54695W        W22913  34.288  23.143  11.125
54696W        W22914   9.672  19.080   1.001
54697W        W22915  39.451  13.148  10.803
54698W        W22916  37.412  31.463   2.080
54699W        W22917  35.466   1.210  12.138
54700W        W22918  40.383  30.299  13.603
54701W        W22919  30.155   8.134  11.608
54702W        W22920  26.522  34.715  10.981
54703W        W22921  18.054  24.148   1.464
54704W        W22922  27.149  10.642   0.307
54705W        W22923  13.578  40.255   0.256
54706W        W22924  14.030  35.010  13.914
54707W        W22925  24.623  32.550  14.084
54708W        W22926  31.386  33.415  14.556
54709W        W22927  33.356  30.036   0.415
54710W        W22928  35.401  25.648   0.018
54711W        W22929  43.535  42.415   2.331
54712W        W22930  21.825  15.821  11.260
54713W        W22931  10.214  17.821   0.907
54714W        W22932  41.966  21.199   2.631
54715W        W22933  29.112  12.119  13.775
54716W        W22934   3.473  39.158  11.857
54717W        W22935  36.087  10.373  11.640
54718W        W22936  26.082  14.997  11.224
54719W        W22937   6.371   5.720  10.534
54720W        W22938  20.968  15.320   3.174
54721W        W22939  38.863   3.025   2.949
54722W        W22940   1.119   2.855  11.184
54723W        W22941  19.971  24.567  13.912
54724W        W22942  13.353  37.594  14.804
54725W        W22943  36.358  40.426   3.846
54726W        W22944  22.061  36.940   3.615
54727W        W22945  21.689   7.911  11.170
54728W        W22946  32.890  15.262  14.928
54729W        W22947  39.382  30.974   2.024
54730W        W22948  10.769  42.092   0.929
54731W        W22949  26.967  28.180   2.796
54732W        W22950  22.061   1.464   0.925
54733W        W22951   7.925  29.435  12.475
54734W        W22952  30.054  30.526  14.944
54735W        W22953  19.759  15.683  14.749
54736W        W22954   7.457   0.566  11.165
54737W        W22955  21.359  15.708  10.674
54738W        W22956  11.398  29.079  11.964
54739W        W22957   8.229   5.771  13.557
54740W        W22958  26.507   9.345  14.014
54741W        W22959  11.804  27.753   5.230
54742W        W22960  13.692  37.817   2.833
54743W        W22961  32.625  39.887   4.545
54744W        W22962  33.747  25.042  11.725
54745W        W22963  12.265  15.632  11.135
54746W        W22964  10.864  23.217   4.566
54747W        W22965  26.305  25.198  13.954
54748W        W22966  12.401  13.556  13.609
54749W        W22967  30.082  13.777  11.153
54750W        W22968   5.185  39.845   1.742
54751W        W22969   3.286  34.158   2.220
54752W        W22970  13.080  11.693   2.876
54753W        W22971  31.486   1.780   0.535
54754W        W22972   7.219  19.671  11.692
54755W        W22973  37.624  25.183  13.038
54756W        W22974   6.762   4.685   0.399
54757W        W22975  35.929  16.163   0.511
54758W        W22976   4.669  24.084   0.802
54759W        W22977   5.906  27.956  11.416
54760W        W22978  43.319  10.354  14.755
54761W        W22979  17.042  44.993  10.596
54762W        W22980  31.514  37.552  14.938
54763W        W22981  28.931  39.588  10.536
54764W        W22982   1.342  40.076   2.037
54765W        W22983  15.682  28.126  11.047
54766W        W22984  16.536   9.305   4.871
54767W        W22985   2.716  26.584  12.850
54768W        W22986  37.418  12.120   4.606
54769W        W22987  27.173   9.445   2.628
54770W        W22988  44.490  38.317  14.189
54771W        W22989  30.962  11.167  12.417
54772W        W22990  39.958  41.078   1.748
54773W        W22991  17.409  41.854  13.902
54774W        W22992  39.792  41.477   2.337
54775W        W22993  40.439  30.167  13.108
54776W        W22994   4.871  25.429  12.083
54777W        W22995   7.846  30.594   3.236
54778W        W22996  34.412  28.621   0.129
54779W        W22997  27.751  25.946   2.746
54780W        W22998   9.092  25.142  12.076
54781W        W22999  44.550  28.011  12.075
54782W        W23000  34.855  32.887   3.133
54783W        W23001  22.098  39.564   0.793
54784W        W23002  23.328  42.070   1.860
54785W        W23003  24.109  34.192   0.529
54786W        W23004  14.875  41.305   2.292
54787W        W23005   0.908  20.516  11.164
54788W        W23006  32.355  40.207   3.624
54789W        W23007  35.515  22.042   4.985
54790W        W23008  38.023  24.921  13.289
54791W        W23009  15.767  22.010  11.638
54792W        W23010  18.213  19.065  10.918
54793W        W23011   8.032  18.557   9.838
54794W        W23012  10.650  31.627  11.695
54795W        W23013   2.321   7.108   0.967
54796W        W23014   9.756   0.676   4.277
54797W        W23015  37.313   7.914   3.899
54798W        W23016  30.117  10.200   2.229
54799W        W23017  19.452   7.384   2.341
54800W        W23018  41.269  42.754  13.836
54801W        W23019  39.144  15.771  12.210
54802W        W23020   7.233  29.418   4.449
54803W        W23021  30.490  44.317   0.826
54804W        W23022  16.622  14.221   3.309
54805W        W23023  37.946  43.025   2.892
54806W        W23024   4.434  41.608  14.436
54807W        W23025  38.000  20.026   2.894
54808W        W23026   6.395  39.933  10.210
54809W        W23027  16.434  29.069   1.287
54810W        W23028  27.470  36.876  11.149
54811W        W23029   3.488   6.477  12.575
54812W        W23030  22.271  44.319  14.908
54813W        W23031  13.296   5.893  14.124
54814W        W23032  17.302  31.713   0.553
54815W        W23033  21.253  12.022   0.424
54816W        W23034  20.626  10.774   0.918
54817W        W23035  10.931  21.506   0.156
54818W        W23036  23.328  43.811  12.949
54819W        W23037  37.917   2.481  14.332
54820W        W23038  28.545  36.133  12.441
54821W        W23039   8.302  44.792   0.328
54822W        W23040   4.319  18.820  12.575
54823W        W23041  29.071  24.633   1.237
54824W        W23042  29.289  33.009  11.043
54825W        W23043  35.608  37.862  13.872
54826W        W23044  25.452  31.908  12.052
54827W        W23045  13.605  15.076   3.515
54828W        W23046  32.189   7.211  11.858
54829W        W23047  11.486  40.298   5.114
54830W        W23048  23.461   6.227  13.810
54831W        W23049  42.421  38.390   3.148
54832W        W23050  22.585  13.135   2.722
54833W        W23051  37.017   1.491  10.792
54834W        W23052  29.717  36.097   2.811
54835W        W23053  10.915  24.516  13.819
54836W        W23054  28.490  23.291   1.659
54837W        W23055  22.668  40.037  10.943
54838W        W23056  30.888  36.505   3.304
54839W        W23057  14.512  25.131   5.059
54840W        W23058   0.088  35.116  13.895
54841W        W23059   0.977  25.552  10.670
54842W        W23060  15.912  42.400  13.319
54843W        W23061  25.425  26.836   4.176
54844W        W23062  44.985  25.100   0.471
54845W        W23063  27.458   1.047  13.411
54846W        W23064   4.873   3.513   4.217
54847W        W23065  22.595   9.925   0.921
54848W        W23066   5.893   4.696  14.588
54849W        W23067  21.831  32.001   3.779
54850W        W23068  26.492  36.236   2.489
54851W        W23069  29.698  13.111   4.559
54852W        W23070  35.079   5.949  10.151
54853W        W23071   0.535  44.918   2.245
54854W        W23072  17.719  23.467  14.868
54855W        W23073  20.090  11.700  10.894
54856W        W23074  32.169  29.193  10.752
54857W        W23075  14.034  44.360   1.116
54858W        W23076  17.600  30.912   2.314
54859W        W23077  21.471   2.588   4.086
54860W        W23078  28.463  21.812  12.554
54861W        W23079  32.972   7.697   4.432
54862W        W23080   4.231  33.613  10.694
54863W        W23081  30.627  10.348  12.969
54864W        W23082   5.393  30.674   1.412
54865W        W23083   9.865  41.608  14.819
54866W        W23084  36.104   7.358  13.523
54867W        W23085   0.438   7.440   2.712
54868W        W23086   0.494   9.355   1.934
54869W        W23087  32.218  22.144  10.238
54870W        W23088  39.771  25.471   1.639
54871W        W23089   2.380  15.142  14.881
54872W        W23090  44.532  14.558  12.930
54873W        W23091   5.726  25.329  14.776
54874W        W23092  26.985  14.055   2.105
54875W        W23093  41.469   7.659  10.497
54876W        W23094  30.296  22.055  12.947
54877W        W23095  22.779  34.864   0.813
54878W        W23096  12.257  37.106  12.872
54879W        W23097  37.994  27.913  11.209
54880W        W23098  32.244  25.619   4.693
54881W        W23099   2.667  24.097   3.684
54882W        W23100  41.925  43.080  13.301
54883W        W23101  15.250  19.190  11.548
54884W        W23102  10.386  23.003  13.764
54885W        W23103  32.108  19.328  14.016
54886W        W23104  35.327  40.036   4.566
54887W        W23105  17.704  18.177   1.875
54888W        W23106  31.865   7.604  10.590
54889W        W23107  43.246   8.327   1.785
54890W        W23108  37.533  18.658  12.593
54891W        W23109  28.150  34.983   0.492
54892W        W23110  21.018  24.195   3.841
54893W        W23111  13.834  38.246   3.739
54894W        W23112  10.126  22.910  12.779
54895W        W23113  28.612  36.404  14.046
54896W        W23114   6.941  24.600  10.501
54897W        W23115  12.127  42.477   1.840
54898W        W23116  36.499  40.702   1.114
54899W        W23117  42.807  35.468   0.059
54900W        W23118  21.059  20.086  14.341
54901W        W23119   8.770   1.700  13.557
54902W        W23120   6.108  44.862  13.461
54903W        W23121  17.824  14.360  11.281
54904W        W23122  28.423  44.085   4.420
54905W        W23123  20.034   9.237  14.399
54906W        W23124  30.511  10.158  11.610
54907W        W23125   4.948  24.398   3.492
54908W        W23126  27.488  13.577   3.362
54909W        W23127  20.031  13.297  11.466
54910W        W23128  18.643   3.600  10.753
54911W        W23129  31.619  19.261   1.057
54912W        W23130   9.142  10.782   1.390
54913W        W23131  14.783  22.696  13.336
54914W        W23132  21.157  16.147  11.733
54915W        W23133  34.973  40.441  12.058
54916W        W23134   5.551  16.652   4.999
54917W        W23135   2.235   3.649   2.245
54918W        W23136  33.909  30.719  14.391
54919W        W23137  17.692  13.238   3.918
54920W        W23138  23.667  12.288  11.034
54921W        W23139  43.578  38.274  12.989
54922W        W23140  13.062  38.749   0.274
54923W        W23141   1.758  32.888  13.640
54924W        W23142  34.084  10.623  14.682
54925W        W23143   5.745  13.606  14.260
54926W        W23144  43.176  37.716  12.466
54927W        W23145  43.850  15.057   3.314
54928W        W23146  16.679  28.344  13.398
54929W        W23147  38.120   2.362  11.054
54930W        W23148  26.997  24.345  14.332
54931W        W23149  34.286  36.631  12.132
54932W        W23150  15.510  20.288  12.356
54933W        W23151  22.499   9.299   1.715
54934W        W23152  11.689  44.885   4.414
54935W        W23153   0.156  11.899   0.393
54936W        W23154  44.870   5.602   4.486
54937W        W23155  25.412  39.363  14.057
54938W        W23156  23.957  10.187   3.657
54939W        W23157  43.360  36.307  11.886
54940W        W23158   9.348  41.023   2.151
54941W        W23159  40.057  21.877   2.194
54942W        W23160  22.342  43.985  10.480
54943W        W23161  28.608   8.733  10.038
54944W        W23162  27.284  16.620   3.186
54945W        W23163  16.352  29.174  11.363
54946W        W23164  32.955   8.245   3.678
54947W        W23165  39.888  24.551  11.958
54948W        W23166  33.540   5.722   2.421
54949W        W23167  12.350  38.308  12.402
54950W        W23168  16.664   2.501  11.042
54951W        W23169  44.967  19.775   2.565
54952W        W23170  28.987  35.476  13.764
54953W        W23171  19.193  35.450   1.245
54954W        W23172  20.050  39.409   2.693
54955W        W23173   6.802  18.759   0.520
54956W        W23174  34.633  15.495   2.105
54957W        W23175  41.356  32.325   4.581
54958W        W23176   2.475  29.456  13.050
54959W        W23177  10.884  14.310  14.606
54960W        W23178  29.585   0.867   1.691
54961W        W23179  22.606  38.846   1.015
54962W        W23180   5.887  13.348   4.202
54963W        W23181  29.537  36.376  13.799
54964W        W23182  25.016  44.849   0.659
54965W        W23183  31.989  10.730   0.888
54966W        W23184  27.328  35.049   0.817
54967W        W23185  25.086  30.017  13.066
54968W        W23186  16.640  22.231  14.939
54969W        W23187   5.663  16.214   4.684
54970W        W23188  21.916  38.438  12.563
54971W        W23189  36.552  29.909  11.600
54972W        W23190  43.034  30.282  11.188
54973W        W23191  17.581  19.219  13.648
54974W        W23192   5.458  38.670  12.109
54975W        W23193  17.049  12.758  14.971
54976W        W23194   2.757  30.878  14.284
54977W        W23195  24.638   0.898   4.290
54978W        W23196  24.780   1.014   2.816
54979W        W23197  34.531  12.879   0.828
54980W        W23198  40.340   5.470  13.842
54981W        W23199  30.570   2.517  10.185
54982W        W23200  25.537  41.414   3.832
54983W        W23201  35.552  35.037  11.167
54984W        W23202  10.228  27.864  14.778
54985W        W23203  11.379  39.117  14.015
54986W        W23204  43.229  36.292  13.874
54987W        W23205  12.270  24.750   3.311
54988W        W23206  19.798   4.966   1.775
54989W        W23207  30.924   4.332  11.974
54990W        W23208  34.948  34.111   1.823
54991W        W23209  12.789  30.049  13.303
54992W        W23210  32.632   4.867   0.642
54993W        W23211  42.084  21.083   4.089
54994W        W23212   7.677  31.639   1.394
54995W        W23213  43.408  21.793  11.588
54996W        W23214  27.370  43.328   1.804
54997W        W23215  41.241   2.244  14.902
54998W        W23216   5.049   1.066  11.178
54999W        W23217  12.646  19.647  14.637
55000W        W23218   2.725  17.628   2.175
55001W        W23219   2.467  19.555   3.853
55002W        W23220  15.995  22.878  14.769
55003W        W23221  25.618  36.330  14.822
55004W        W23222  36.263   4.470  11.253
55005W        W23223  26.567  26.859   0.104
55006W        W23224  34.649  40.341   0.583
55007W        W23225  43.568  19.082  12.159
55008W        W23226  31.941  31.525  13.710
55009W        W23227  35.119  40.753  10.681
55010W        W23228  11.431  23.432  14.964
55011W        W23229  30.070  35.869  12.119
55012W        W23230  42.978  38.429  10.815
55013W        W23231  21.117  36.138  14.413
55014W        W23232  30.672  17.052  11.898
55015W        W23233  16.793   9.408   1.886
55016W        W23234  38.419  34.187   4.177
55017W        W23235  18.306  24.079   0.433
55018W        W23236  42.297  27.554   1.793
55019W        W23237   7.146  36.094  10.715
55020W        W23238  25.482  11.673  14.866
55021W        W23239  29.157  23.360   5.379
55022W        W23240  29.839  40.728  14.071
55023W        W23241  20.129  11.445   4.160
55024W        W23242  16.185  17.785  12.856
55025W        W23243   4.923  19.111   4.020
55026W        W23244   9.272  17.009  13.278
55027W        W23245   2.040   5.769  14.297
55028W        W23246  17.850   4.100  12.961
55029W        W23247  30.527  38.878  13.508
55030W        W23248  22.233  15.633   0.510
55031W        W23249  37.443  18.806   2.816
55032W        W23250  37.299  30.616   1.534
55033W        W23251  31.155  18.757   1.632
55034W        W23252  13.795  27.710  14.385
55035W        W23253  14.767  26.951  14.850
55036W        W23254  39.910   5.200   4.513
55037W        W23255  26.509  37.415  13.790
55038W        W23256   3.825  18.124   2.877
55039W        W23257  10.806  11.676   3.927
55040W        W23258   6.782   8.136   3.460
55041W        W23259   0.395  18.760   3.186
55042W        W23260  24.373  43.989   2.172
55043W        W23261  26.404  31.349  11.331
55044W        W23262  25.448   2.851  12.038
55045W        W23263  13.844  41.336  12.765
55046W        W23264   7.429  13.542  12.377
55047W        W23265  21.107  23.324   2.815
55048W        W23266  38.078   8.731  13.241
55049W        W23267  19.212  36.154   4.956
55050W        W23268  41.497   5.674   4.634
55051W        W23269  29.152   4.388   3.586
55052W        W23270   3.499  31.540  10.597
55053W        W23271  29.418  39.803  13.895
55054W        W23272   9.410  30.013  11.515
55055W        W23273   3.765  13.398   2.888
55056W        W23274  20.083  43.344   1.742
55057W        W23275  43.005   9.435   1.392
55058W        W23276  27.792  44.920  14.331
55059W        W23277  29.512   5.401  12.773
55060W        W23278  27.450  32.997   4.057
55061W        W23279  37.918  34.123   3.566
55062W        W23280  22.216   9.200  14.449
55063W        W23281  14.309   2.419   0.216
55064W        W23282  39.394  34.455   0.953
55065W        W23283  31.089  16.878   4.653
55066W        W23284   1.257  44.820  10.585
55067W        W23285  28.073  27.358  12.931
55068W        W23286  29.564  27.982   0.845
55069W        W23287   9.258  10.993  13.688
55070W        W23288   9.626  34.239  13.496
55071W        W23289  24.866  27.471   3.560
55072W        W23290  22.646  22.983   2.765
55073W        W23291  31.061   4.899   3.659
55074W        W23292  38.336  19.735   0.466
55075W        W23293  28.842  26.821  11.101
55076W        W23294   4.962   1.215   3.465
55077W        W23295  31.494   1.214   1.821
55078W        W23296  43.899  15.414   0.811
55079W        W23297   5.161   6.802  13.410
55080W        W23298  17.115  28.617  11.110
55081W        W23299  36.523  39.057   3.888
55082W        W23300   0.539  12.059  13.281
55083W        W23301  30.817  16.235  14.778
55084W        W23302  15.578  28.112  12.407
55085W        W23303  29.137   0.420   3.676
55086W        W23304  16.242  18.209   4.181
55087W        W23305  22.597   8.654   5.073
55088W        W23306  16.783   2.438   4.612
55089W        W23307  35.072  21.373   1.087
55090W        W23308  16.227  43.776  10.291
55091W        W23309  20.607  15.677  13.920
55092W        W23310  30.467  21.229  11.298
55093W        W23311  42.638  42.838   1.900
55094W        W23312  33.626  28.715   2.348
55095W        W23313   6.175  32.658   0.820
55096W        W23314  25.173  24.287   0.012
55097W        W23315   9.721   2.457  14.450
55098W        W23316   8.597  20.243  14.469
55099W        W23317  19.192  44.944   3.771
55100W        W23318  27.885   8.191  12.920
55101W        W23319  31.231  37.621  13.109
55102W        W23320  30.553   6.100  10.765
55103W        W23321   0.377  40.482   3.651
55104W        W23322  30.940   1.305   1.393
55105W        W23323  21.486  15.154   1.923
55106W        W23324  30.056  29.531  10.788
55107W        W23325  23.457   2.969   3.142
55108W        W23326  16.757  21.697  14.391
55109W        W23327   8.444  36.115   2.847
55110W        W23328   1.676  12.742   0.015
55111W        W23329  40.077  29.694  12.264
55112W        W23330  28.049  18.586   2.207
55113W        W23331  43.474  29.661   3.598
55114W        W23332   1.706  23.725  14.088
55115W        W23333  10.414  39.232   0.738
55116W        W23334   7.505  14.382  10.744
55117W        W23335  11.663  33.677   0.941
55118W        W23336  33.635  20.847   4.024
55119W        W23337   8.634  35.987  13.501
55120W        W23338  23.571  17.798  14.006
55121W        W23339  23.810  37.271  11.451
55122W        W23340  20.259  12.730   0.910
55123W        W23341  28.761  38.050  13.520
55124W        W23342  14.059  11.214   4.113
55125W        W23343  36.160  28.615   4.622
55126W        W23344  27.219  11.597  10.261
55127W        W23345  21.356  38.934   2.930
55128W        W23346   5.370   1.130  10.753
55129W        W23347  41.832  15.449  12.152
55130W        W23348  40.479  32.636   1.045
55131W        W23349  15.163   0.072   3.735
55132W        W23350  28.470  17.735   2.356
55133W        W23351  42.420  15.626  11.044
55134W        W23352   5.218  42.902  11.482
55135W        W23353  21.418   5.236  14.845
55136W        W23354  10.705  15.079   0.387
55137W        W23355   3.663   5.172  11.118
55138W        W23356  28.328  44.704   0.019
55139W        W23357  26.612  31.287   4.566
55140W        W23358  19.972  37.106  12.480
55141W        W23359  38.084  40.042   2.907
55142W        W23360  11.659  40.557   4.677
55143W        W23361   7.655  28.571   3.452
55144W        W23362  17.447  32.057  13.801
55145W        W23363   4.163  12.817  12.499
55146W        W23364  13.211  19.830   2.769
55147W        W23365  18.793  25.569   2.115
55148W        W23366   9.868  39.222  14.972
55149W        W23367  25.709   8.242   3.326
55150W        W23368  13.670  33.794  14.412
55151W        W23369  18.091  40.693   4.906
55152W        W23370   8.684  16.003   4.570
55153W        W23371   3.116  26.903   2.369
55154W        W23372  19.316  23.935  13.541
55155W        W23373  11.146  40.321   2.652
55156W        W23374  28.608   4.770  11.536
55157W        W23375  21.727  41.004  11.590
55158W        W23376   3.691   1.253   1.324
55159W        W23377  42.774  39.109  12.437
55160W        W23378   7.338  37.359   2.423
55161W        W23379  22.377   8.787   0.230
55162W        W23380  40.843  37.343  14.905
55163W        W23381  34.168  16.972   1.425
55164W        W23382  26.610  44.070  11.411
55165W        W23383  13.928  41.991   4.610
55166W        W23384   8.295  14.803  10.757
55167W        W23385  41.620  11.096   2.752
55168W        W23386   3.343   8.703  12.829
55169W        W23387  12.623  29.097   4.017
55170W        W23388   2.262  13.618   0.213
55171W        W23389  29.513  36.590   4.054
55172W        W23390  44.075   2.232  11.043
55173W        W23391  43.852  42.805   2.209
55174W        W23392  27.847   0.019   3.153
55175W        W23393  27.291  36.443  12.762
55176W        W23394  22.166  17.830   0.264
55177W        W23395  23.684   2.950  14.805
55178W        W23396  28.593  11.224   4.631
55179W        W23397  24.695  15.792  13.356
55180W        W23398   0.638  36.000   2.786
55181W        W23399  18.048   1.994   4.519
55182W        W23400  10.242  41.714   0.205
55183W        W23401  10.392   5.895   3.676
55184W        W23402  23.521  19.506   3.337
55185W        W23403   3.723  40.696  12.359
55186W        W23404  34.905  24.498  13.773
55187W        W23405  19.558  19.120  10.954
55188W        W23406  36.238  33.566   2.292
55189W        W23407  12.090  43.654  14.985
55190W        W23408  35.579  38.881  13.363
55191W        W23409  22.977   1.517  12.113
55192W        W23410   9.585  22.020   2.203
55193W        W23411  20.755  26.048   0.461
55194W        W23412  27.473  17.381  11.585
55195W        W23413  28.853  27.661  10.794
55196W        W23414  22.121   9.835   4.583
55197W        W23415  25.734  15.661   0.391
55198W        W23416  18.680  37.429   1.889
55199W        W23417  33.991  15.076  12.012
55200W        W23418  35.552  35.669  14.030
55201W        W23419  20.420  13.327  14.821
55202W        W23420  34.587   5.919  11.392
55203W        W23421  11.757  25.963  14.492
55204W        W23422  14.114  32.947   0.436
55205W        W23423  23.790  35.908  12.055
55206W        W23424   7.930   6.654  12.015
55207W        W23425  38.623  11.236  12.973
55208W        W23426  15.732  34.449   4.622
55209W        W23427  19.538  43.340  14.981
55210W        W23428  27.227  20.176   3.869
55211W        W23429  38.442  15.056   2.791
55212W        W23430  29.280   8.310  11.656
55213W        W23431  31.655  13.557  13.354
55214W        W23432  22.197   3.490  13.426
55215W        W23433  28.155  19.297  14.789
55216W        W23434  40.602  13.825  11.630
55217W        W23435   5.690  32.665  14.413
55218W        W23436  28.397  20.579  11.670
55219W        W23437  35.387  37.955  11.651
55220W        W23438   3.999  16.977   4.621
55221W        W23439  40.344  28.319   1.221
55222W        W23440   1.775  39.838  14.965
55223W        W23441   5.734  13.694  13.285
55224W        W23442  19.392  34.680   1.932
55225W        W23443  10.354  15.422  11.967
55226W        W23444  18.933  31.063  13.365
55227W        W23445  14.828  36.484   0.883
55228W        W23446  24.752  34.582  13.924
55229W        W23447  42.697  15.624  13.844
55230W        W23448  39.345  36.091   9.969
55231W        W23449   7.807  40.788  11.200
55232W        W23450  39.575   9.243  13.910
55233W        W23451  21.949  18.711  11.642
55234W        W23452  36.015   4.335   3.561
55235W        W23453   8.171  29.483  11.644
55236W        W23454  37.804  42.252   0.477
55237W        W23455  18.895  33.327  13.045
55238W        W23456  36.943  34.127  11.693
55239W        W23457  18.785   6.906   4.775
55240W        W23458   9.755   3.429  13.669
55241W        W23459   4.676  22.580   2.248
55242W        W23460  12.931   5.179   1.922
55243W        W23461  17.606  20.557  12.379
55244W        W23462  22.730   9.251  11.588
55245W        W23463  32.007  25.743  11.086
55246W        W23464  23.488  35.048   1.488
55247W        W23465  36.119  13.798   3.441
55248W        W23466  20.812  41.372  14.742
55249W        W23467   3.740  21.798   4.648
55250W        W23468  31.993  37.116  13.030
55251W        W23469  21.117  37.329   4.977
55252W        W23470   9.922   7.955   2.268
55253W        W23471  13.258   9.577  11.510
55254W        W23472  14.687  29.958   2.902
55255W        W23473  23.141   3.745  14.997
55256W        W23474   0.950  24.573   1.335
55257W        W23475  24.490  30.967   3.404
55258W        W23476  13.111  30.678  10.552
55259W        W23477  29.652  36.108   3.848
55260W        W23478   9.232  24.139  13.473
55261W        W23479  34.165  22.279  13.136
55262W        W23480  29.206  43.324  11.024
55263W        W23481   5.236  10.071   3.692
55264W        W23482  43.405   4.646   2.750
55265W        W23483  14.208  19.278   4.401
55266W        W23484  35.508   5.532   3.289
55267W        W23485  29.554  38.392   4.932
55268W        W23486  12.924  39.996   3.631
55269W        W23487   8.350  21.933   4.221
55270W        W23488  10.004  28.421   1.901
55271W        W23489   3.017  43.337  14.302
55272W        W23490  35.979   1.765   3.419
55273W        W23491   3.224  34.504   4.577
55274W        W23492   3.961   0.854   0.380
55275W        W23493  28.432  40.910   3.188
55276W        W23494  15.952  15.737  11.826
55277W        W23495  26.540  33.574   0.500
55278W        W23496  17.288  16.800   0.942
55279W        W23497  32.371   0.313  13.514
55280W        W23498  17.550  32.346  13.388
55281W        W23499  44.042  31.931   3.275
55282W        W23500  29.058  23.686  13.909
55283W        W23501  16.474  31.621  11.765
55284W        W23502  20.233  41.031   3.731
55285W        W23503   4.638  23.057   2.804
55286W        W23504  34.857  31.983  13.035
55287W        W23505  20.093  27.113   3.579
55288W        W23506  16.678  44.772  13.985
55289W        W23507  42.909  10.658   0.034
55290W        W23508  39.469   4.531   2.242
55291W        W23509  26.208  36.823  12.090
55292W        W23510  34.121  29.597   3.187
55293W        W23511  13.253  39.544   0.762
55294W        W23512   4.793   9.412   1.689
55295W        W23513  17.604  15.792  12.440
55296W        W23514  10.799   1.757   3.036
55297W        W23515  16.279  37.973   4.911
55298W        W23516   7.494  29.078   4.799
55299W        W23517  10.344  34.704   1.809
55300W        W23518  12.173  12.634  14.060
55301W        W23519  31.096  40.850   2.161
55302W        W23520   9.286  32.738  13.036
55303W        W23521  16.862  16.772   3.283
55304W        W23522  35.463  17.585   4.070
55305W        W23523   0.531   7.191  11.455
55306W        W23524   5.017  24.371  13.784
55307W        W23525  43.479  35.475  11.302
55308W        W23526  15.398  27.702   4.162
55309W        W23527  15.704  17.417   2.381
55310W        W23528  28.015  36.411  10.695
55311W        W23529   8.679   1.987   0.085
55312W        W23530  19.502  34.299  12.046
55313W        W23531   6.659  14.785   4.550
55314W        W23532  39.991  41.527  14.837
55315W        W23533  26.406  33.347   0.067
55316W        W23534  13.456  33.856   2.383
55317W        W23535  30.875  26.120   2.136
55318W        W23536   8.647  26.767   2.164
55319W        W23537  37.019   2.393   2.596
55320W        W23538  42.858  10.229  13.308
55321W        W23539  17.494   0.916  12.888
55322W        W23540  23.206  44.292  13.933
55323W        W23541   6.812  29.189  13.006
55324W        W23542  32.545  17.221   4.291
55325W        W23543  29.165  41.548   1.350
55326W        W23544  25.791  44.683  11.512
55327W        W23545   2.913  16.289   0.826
55328W        W23546   2.957  36.106   2.729
55329W        W23547   9.628  24.159   0.876
55330W        W23548  15.226  15.875  12.438
55331W        W23549  38.961  36.112   4.034
55332W        W23550  11.658  10.709  14.388
55333W        W23551   7.375  27.988   1.727
55334W        W23552  10.679  23.372  14.331
55335W        W23553  11.267   5.763  13.857
55336W        W23554   4.534  18.099   1.739
55337W        W23555  24.169  12.392  14.892
55338W        W23556  41.059   6.851   4.115
55339W        W23557  33.087  43.106   2.916
55340W        W23558   7.329  44.401   1.301
55341W        W23559  21.936  20.567  12.814
55342W        W23560  31.034   7.454  10.775
55343W        W23561  14.293   6.158   3.366
55344W        W23562  38.564   0.043   2.625
55345W        W23563  10.340   0.701   4.265
55346W        W23564   5.238   2.468   3.732
55347W        W23565  12.555  43.952   5.043
55348W        W23566   5.918  31.501  12.804
55349W        W23567  30.080  36.668   0.589
55350W        W23568  39.329   2.963   3.200
55351W        W23569  43.447   8.614  14.535
55352W        W23570  17.155  35.630   4.945
55353W        W23571   0.922  39.997   1.714
55354W        W23572  25.933   8.742  14.016
55355W        W23573   4.491  25.188  12.396
55356W        W23574  15.661  21.504  14.140
55357W        W23575  24.888  26.045  11.814
55358W        W23576   8.098   6.369   0.454
55359W        W23577  14.748  18.083  12.380
55360W        W23578  26.020  21.760   4.442
55361W        W23579  23.962  15.604   5.026
55362W        W23580  21.767  35.968   0.184
55363W        W23581   1.876  15.288  12.004
55364W        W23582  17.030  44.885  12.424
55365W        W23583   4.865   7.756   1.025
55366W        W23584  35.715  38.615  14.365
55367W        W23585  32.130  39.324  12.015
55368W        W23586  20.754  42.707   2.562
55369W        W23587  12.052  20.647  12.916
55370W        W23588   9.186   7.436  12.074
55371W        W23589   5.418   9.363  11.338
55372W        W23590  35.315  24.566   4.679
55373W        W23591   8.110  20.665  12.510
55374W        W23592   8.709  38.916  10.207
55375W        W23593  27.834   3.901   0.432
55376W        W23594  12.159   3.781   0.415
55377W        W23595  25.309  38.593  13.335
55378W        W23596  41.981  14.889   3.191
55379W        W23597  41.917   8.755   4.732
55380W        W23598  30.147  30.562  13.386
55381W        W23599   2.474  37.450  14.531
55382W        W23600   5.812   5.802  11.200
55383W        W23601   9.077  37.517  12.939
55384W        W23602  28.122  32.251   3.515
55385W        W23603   9.129  22.209   2.774
55386W        W23604  10.322  41.913  13.917
55387W        W23605  41.979  30.875   2.739
55388W        W23606  34.348  41.374  12.166
55389W        W23607  15.530  38.777   3.651
55390W        W23608  11.747  33.172  14.835
55391W        W23609   6.169  16.571  14.164
55392W        W23610  16.771   0.217   1.950
55393W        W23611  20.984   3.681   1.458
55394W        W23612   8.696  25.104  10.801
55395W        W23613  22.577  28.201   1.822
55396W        W23614  18.888  21.601  13.455
55397W        W23615  34.895  30.686  14.393
55398W        W23616  44.928  41.517  13.506
55399W        W23617  34.427  20.117   0.313
55400W        W23618  10.093  30.455   3.641
55401W        W23619  39.355  10.374  14.522
55402W        W23620  22.280  15.536  10.486
55403W        W23621  28.672  12.633   1.339
55404W        W23622  19.995  10.548  14.229
55405W        W23623  41.000   1.856  10.756
55406W        W23624  38.401  10.005  10.549
55407W        W23625  18.542  42.946   4.451
55408W        W23626  12.829  20.240   4.518
55409W        W23627   0.830  30.333  11.214
55410W        W23628  14.219   9.769   1.131
55411W        W23629   0.996  42.260   2.141
55412W        W23630  27.942   0.358  11.686
55413W        W23631  12.477   9.856   1.746
55414W        W23632  42.619  43.311   1.370
55415W        W23633  10.538  11.375   1.566
55416W        W23634  42.482  12.951   2.822
55417W        W23635   3.730  36.872  10.513
55418W        W23636   0.465   2.188  12.815
55419W        W23637  42.799  26.194   3.635
55420W        W23638  33.802   3.384  11.757
55421W        W23639  30.807   2.693  12.463
55422W        W23640  26.427  41.082   4.747
55423W        W23641  28.408   9.484  14.880
55424W        W23642  40.744   1.760   5.121
55425W        W23643  35.476  15.703  11.659
55426W        W23644  37.194  13.858  11.451
55427W        W23645  17.309  39.855   3.183
55428W        W23646  17.696  27.108  11.657
55429W        W23647  43.334  12.265   0.936
55430W        W23648  17.251  17.753  10.974
55431W        W23649  12.681  41.960   3.066
55432W        W23650  38.041  41.309   3.273
55433W        W23651  12.239   8.855   3.780
55434W        W23652  29.663  31.350   0.446
55435W        W23653  29.817  33.023  11.058
55436W        W23654   2.384  43.504  13.471
55437W        W23655  21.245  29.078  11.281
55438W        W23656  33.501  26.735   1.182
55439W        W23657  32.811  16.119  11.659
55440W        W23658  25.007  30.660   4.293
55441W        W23659  25.507   6.163   4.415
55442W        W23660  29.169   2.886  12.252
55443W        W23661  24.434  14.273  12.059
55444W        W23662  37.010   5.746   4.758
55445W        W23663   2.830  13.581  12.041
55446W        W23664   4.696  15.784  14.481
55447W        W23665  26.506  40.888   2.427
55448W        W23666   3.013  19.062  12.214
55449W        W23667  42.506  43.261  11.229
55450W        W23668  34.948  29.671  14.356
55451W        W23669  14.822   8.669   2.226
55452W        W23670  10.350   1.927  14.869
55453W        W23671  18.691   5.429   3.987
55454W        W23672  25.488   6.913   2.654
55455W        W23673  25.099  16.838  12.033
55456W        W23674  37.980   9.165  11.496
55457W        W23675  42.487  30.984   1.263
55458W        W23676  19.774  30.712  13.862
55459W        W23677  41.999   9.632   3.758
55460W        W23678   1.351  33.694   4.655
55461W        W23679  26.080  44.993   1.400
55462W        W23680  29.436  20.474  11.659
55463W        W23681  23.548  43.304   1.261
55464W        W23682  17.059  41.982   0.847
55465W        W23683   6.389  23.233   4.208
55466W        W23684  20.383  12.632  14.469
55467W        W23685  17.293  18.302   4.144
55468W        W23686  29.674   9.370   0.977
55469W        W23687  13.904  30.125  13.977
55470W        W23688  11.589  17.115   2.761
55471W        W23689  28.946  10.107   0.882
55472W        W23690   5.730  22.555  11.619
55473W        W23691  15.309   8.090  12.717
55474W        W23692  41.829  11.616  14.017
55475W        W23693  20.675   3.734   1.850
55476W        W23694  25.201  38.331  10.826
55477W        W23695   3.024  35.773  12.066
55478W        W23696  23.591  26.656  10.417
55479W        W23697   4.184  44.097  10.321
55480W        W23698  36.652   1.308   0.747
55481W        W23699  20.000  40.068  13.890
55482W        W23700  25.916  26.739  11.578
55483W        W23701  20.425  25.528  13.877
55484W        W23702  21.909  19.677  13.538
55485W        W23703  24.533  44.903  11.251
55486W        W23704   2.845   6.628  10.888
55487W        W23705  31.661  41.460  12.386
55488W        W23706   7.304   3.505  12.123
55489W        W23707  15.810  34.474   3.233
55490W        W23708  37.249   6.806   0.443
55491W        W23709  33.683  37.483   1.729
55492W        W23710  14.246   6.083  10.622
55493W        W23711   5.396  29.188   3.286
55494W        W23712  41.298   5.905  10.905
55495W        W23713  32.123  13.689  13.178
55496W        W23714  30.503  39.764   1.393
55497W        W23715  22.657  37.314  11.584
55498W        W23716  19.289  14.798   2.865
55499W        W23717  29.716  17.804  10.612
55500W        W23718  37.871   6.316  11.391
55501W        W23719  15.796  18.112  11.020
55502W        W23720  42.860  16.319   4.472
55503W        W23721  40.127  21.830   3.119
55504W        W23722  43.357  15.784  11.128
55505W        W23723  34.473  31.407  11.976
55506W        W23724  33.066  34.665   0.624
55507W        W23725   7.324  25.729  13.405
55508W        W23726  42.721   3.904  12.400
55509W        W23727  14.617   9.513   4.274
55510W        W23728   0.930  15.605   1.320
55511W        W23729  38.882  14.357  11.058
55512W        W23730  20.588  27.232   3.713
55513W        W23731  12.809   1.335   0.371
55514W        W23732  33.884  26.396  10.330
55515W        W23733  25.596  39.295   1.345
55516W        W23734  38.728  36.189   3.584
55517W        W23735  11.757  30.975   3.557
55518W        W23736   8.473  18.043   0.581
55519W        W23737  24.991   4.832   2.435
55520W        W23738   1.406  25.256  14.784
55521W        W23739   1.449  26.098   3.618
55522W        W23740   8.303  33.918  12.528
55523W        W23741   6.089   6.192   3.882
55524W        W23742  26.943   0.858   1.966
55525W        W23743  42.943   7.757  14.569
55526W        W23744  28.359  35.438  11.058
55527W        W23745  17.987   5.873   0.783
55528W        W23746  30.502  38.808  11.880
55529W        W23747  20.047  27.141   4.613
55530W        W23748  13.108  32.376  12.974
55531W        W23749   8.043  34.756  13.818
55532W        W23750   6.279  11.885  14.760
55533W        W23751   6.487   2.652   3.704
55534W        W23752  11.525  13.467   4.531
55535W        W23753  39.043   1.789  12.137
55536W        W23754   1.617  33.699  13.251
55537W        W23755  13.759  11.244  11.857
55538W        W23756   5.448  22.635   2.678
55539W        W23757  36.822   7.748   4.684
55540W        W23758  34.318  43.564  11.706
55541W        W23759  40.318  32.430  12.999
55542W        W23760  31.615  26.797   2.215
55543W        W23761   6.870  28.122  14.927
55544W        W23762  30.530  40.172   0.110
55545W        W23763  20.614  37.894  14.461
55546W        W23764   1.540  31.591   1.321
55547W        W23765  30.936  43.919   0.381
55548W        W23766  21.578  29.431  13.239
55549W        W23767  25.480  20.678   1.375
55550W        W23768   5.815   3.888  14.044
55551W        W23769  41.852   8.869  12.562
55552W        W23770   3.874  36.135  14.353
55553W        W23771  13.252  33.569   0.231
55554W        W23772  22.693   1.385  11.218
55555W        W23773  43.000  41.953   4.242
55556W        W23774  11.365  38.085  11.668
55557W        W23775  16.032  10.801  10.779
55558W        W23776  29.634   4.550  12.169
55559W        W23777  12.774  15.536   3.448
55560W        W23778  41.325   1.346  13.343
55561W        W23779  13.505   8.815  10.804
55562W        W23780  14.236  18.877  11.248
55563W        W23781  32.973  17.798   4.753
55564W        W23782  36.842   1.330   4.314
55565W        W23783  15.049  21.154   0.711
55566W        W23784  32.097  36.654   1.522
55567W        W23785  36.375   4.993   0.771
55568W        W23786  20.093  44.936   0.187
55569W        W23787  41.264  35.352   2.674
55570W        W23788  14.842  26.108   0.463
55571W        W23789  35.814   4.320  10.344
55572W        W23790  42.619  31.047   2.105
55573W        W23791  40.055  10.147   0.961
55574W        W23792   7.163  42.042   0.146
55575W        W23793  22.976  26.085  14.022
55576W        W23794  35.536   7.915   4.545
55577W        W23795  44.920  43.912   1.282
55578W        W23796   0.027   7.250   3.685
55579W        W23797  14.706  20.010   3.107
55580W        W23798   8.162  26.028  13.554
55581W        W23799   1.680  18.146  14.357
55582W        W23800  37.612  36.036   0.747
55583W        W23801  31.811  18.275   2.230
55584W        W23802  12.172  31.851   1.742
55585W        W23803  39.080  15.687  13.508
55586W        W23804  12.256   5.626  12.836
55587W        W23805  13.146   2.073   2.650
55588W        W23806  27.429  14.345  10.691
55589W        W23807  42.121  24.015   3.686
55590W        W23808   6.956  31.014   3.551
55591W        W23809  13.036  29.500   2.389
55592W        W23810  36.097   3.528  12.211
55593W        W23811  43.244  31.642  14.588
55594W        W23812  15.692  26.540   4.544
55595W        W23813  20.303  25.799  14.783
55596W        W23814  19.673  11.176   4.248
55597W        W23815  36.512  20.299  12.605
55598W        W23816  40.861  24.953   3.803
55599W        W23817   9.639  44.290  14.880
55600W        W23818  17.324  40.972   3.855
55601W        W23819   9.593  25.078   3.258
55602W        W23820  35.646  28.221   0.401
55603W        W23821  30.023  20.775   4.393
55604W        W23822   9.407   9.704   4.502
55605W        W23823  27.768   4.503  11.556
55606W        W23824  26.071  43.762   3.202
55607W        W23825   2.527  43.364   3.372
55608W        W23826  34.456  36.229  14.451
55609W        W23827  31.873  16.279  14.831
55610W        W23828  27.607  14.458   4.501
55611W        W23829   6.671  12.184  10.782
55612W        W23830  29.035   9.094   4.059
55613W        W23831  12.617  20.738   2.773
55614W        W23832  28.123  31.033  11.406
55615W        W23833  44.803  41.944   1.920
55616W        W23834  27.636  21.690   0.961
55617W        W23835   8.481  16.611  10.797
55618W        W23836  11.710   2.696  11.401
55619W        W23837  10.948  14.063  14.140
55620W        W23838   6.318   2.145  10.688
55621W        W23839   5.716   6.748   2.381
55622W        W23840  32.497  41.004   0.331
55623W        W23841   0.795  35.952  13.398
55624W        W23842  31.969  10.398   1.372
55625W        W23843  14.193   1.924  12.047
55626W        W23844  44.876  42.453  10.819
55627W        W23845   9.747   8.841  11.531
55628W        W23846  20.715  32.468  14.956
55629W        W23847  29.174   5.317  10.956
55630W        W23848  32.999  25.526   2.299
55631W        W23849  32.842  41.425   1.384
55632W        W23850  12.303  36.279  12.031
55633W        W23851  25.221  13.915  10.269
55634W        W23852  44.906  26.208   0.086
55635W        W23853  27.410  32.331   3.260
55636W        W23854   8.301  42.961  11.435
55637W        W23855  11.960  19.806  11.064
55638W        W23856   5.150  15.273  10.610
55639W        W23857   3.726  30.149   4.516
55640W        W23858  36.607  35.582  14.857
55641W        W23859  10.733  25.500   3.764
55642W        W23860  33.034  30.593  12.851
55643W        W23861  17.747   8.328  10.608
55644W        W23862  25.453   4.752  10.954
55645W        W23863   1.385  31.651   0.777
55646W        W23864  43.454  41.303  10.739
55647W        W23865  20.748  43.392   3.965
55648W        W23866  11.405  29.579  12.589
55649W        W23867  32.171  16.781   1.749
55650W        W23868  39.883   0.884  11.527
55651W        W23869  31.194   1.891   2.928
55652W        W23870  20.327   4.816   2.622
55653W        W23871  22.220  31.132   3.452
55654W        W23872   9.336  34.202   4.071
55655W        W23873  24.742  44.291   5.062
55656W        W23874  26.710  31.845   3.781
55657W        W23875  38.350   4.801   4.223
55658W        W23876  27.940  31.420   1.220
55659W        W23877  14.339   6.611   3.679
55660W        W23878  37.806  31.446   2.915
55661W        W23879  17.290   0.485   3.288
55662W        W23880  39.511  24.031  10.652
55663W        W23881  34.049  33.267   3.824
55664W        W23882  37.148   4.640  11.114
55665W        W23883  20.759  39.747  14.487
55666W        W23884  27.997  27.539  14.388
55667W        W23885  38.363  38.577  10.374
55668W        W23886  41.379  34.938   1.944
55669W        W23887  44.330  10.201  13.755
55670W        W23888  24.567  33.383   0.713
55671W        W23889  11.192  21.464  10.994
55672W        W23890  30.025  43.463   3.199
55673W        W23891  25.337  22.023  13.438
55674W        W23892  36.403  40.606  12.143
55675W        W23893   6.833   4.901  14.932
55676W        W23894  13.583  25.116  10.683
55677W        W23895  33.388   2.107   3.070
55678W        W23896  33.092  34.965   1.032
55679W        W23897  41.323  34.275   2.753
55680W        W23898  22.041  26.487   4.353
55681W        W23899  36.054  42.468   4.574
55682W        W23900  11.878  11.429  14.876
55683W        W23901   7.443  34.414  14.435
55684W        W23902  17.733  10.979  14.515
55685W        W23903  18.771  16.827   0.889
55686W        W23904  30.090  31.341   1.788
55687W        W23905  11.315   1.173   3.377
55688W        W23906  14.836  11.210   3.537
55689W        W23907  30.709  35.557   4.096
55690W        W23908  39.157  43.039   0.810
55691W        W23909  31.882  41.469   4.082
55692W        W23910   5.187   4.377  13.050
55693W        W23911  21.164  26.596   1.365
55694W        W23912  37.848  30.868   1.891
55695W        W23913  35.341   0.384   4.871
55696W        W23914  11.191  38.337  11.091
55697W        W23915  37.072   0.996   0.787
55698W        W23916   8.234  36.176   1.474
55699W        W23917  25.485  38.182   0.308
55700W        W23918  41.039  19.528  10.276
55701W        W23919  30.692  22.720   4.426
55702W        W23920  20.198  34.524  12.021
55703W        W23921  43.917  30.925  10.560
55704W        W23922  34.027  30.991   1.192
55705W        W23923  37.114   1.935   1.081
55706W        W23924  22.001  42.125   3.718
55707W        W23925   7.132   7.195   4.449
55708W        W23926  12.154  38.690  11.433
55709W        W23927  42.796  31.587   2.851
55710W        W23928  33.040  32.491   1.688
55711W        W23929  10.635  30.901  12.843
55712W        W23930  29.080   2.840   1.919
55713W        W23931  36.053  33.745   1.284
55714W        W23932  19.234   4.248   2.101
55715W        W23933  25.925  18.770  14.842
55716W        W23934  38.913  34.637   0.623
55717W        W23935  29.009  21.951  11.567
55718W        W23936  15.710  14.383  10.877
55719W        W23937  44.222  13.815   4.424
55720W        W23938  29.398   3.830   2.759
55721W        W23939  12.777   7.493   4.866
55722W        W23940  25.253   5.126  12.118
55723W        W23941  29.551  23.297  14.275
55724W        W23942   6.235   3.893  14.365
55725W        W23943   1.389  44.162   2.322
55726W        W23944  14.049   0.842   0.467
55727W        W23945  21.145   1.808  10.588
55728W        W23946  43.816  34.096  11.858
55729W        W23947  44.576  15.605   4.528
55730W        W23948   4.958  27.914  13.426
55731W        W23949  39.907  43.539  10.672
55732W        W23950   4.285  36.093   3.932
55733W        W23951   8.576   5.647  11.051
55734W        W23952  32.503  36.388   1.272
55735W        W23953  14.350   6.683  10.582
55736W        W23954  43.865  30.647  10.999
55737W        W23955   4.734  12.203  10.649
55738W        W23956  25.781  37.911   4.409
55739W        W23957   7.238   5.293  11.869
55740W        W23958  24.505  25.668  10.188
55741W        W23959  39.143  20.099  13.356
55742W        W23960  12.724   8.429  12.907
55743W        W23961  39.518  16.038   0.461
55744W        W23962  22.153  42.289   4.587
55745W        W23963  16.338  39.426  10.653
55746W        W23964  19.375  26.687  10.709
55747W        W23965  25.117  30.499  14.253
55748W        W23966   0.738  15.325   4.323
55749W        W23967  15.951  12.888   4.901
55750W        W23968  24.767   5.192   3.634
55751W        W23969  20.523   7.256  10.699
55752W        W23970  25.526  15.346   4.196
55753W        W23971  27.756  40.395  12.961
55754W        W23972  12.387  12.043  12.647
55755W        W23973  32.449  26.954   1.268
55756W        W23974  13.736  15.232  10.561
55757W        W23975  41.456  24.218  12.138
55758W        W23976  10.674  30.103  11.020
55759W        W23977  23.151   4.507  14.260
55760W        W23978  17.134   1.976  10.655
55761W        W23979  40.312  10.739  14.517
55762W        W23980  27.943  34.086   1.444
55763W        W23981  16.946  15.211  10.402
55764W        W23982  27.893  33.590   1.263
55765W        W23983  12.559  44.964   1.770
55766W        W23984   1.530  30.162  10.753
55767W        W23985  10.436  10.277   1.159
55768W        W23986  22.976   7.791   2.677
55769W        W23987   4.399   2.093   4.144
55770W        W23988   3.822  43.807   3.765
55771W        W23989  30.874  17.554   2.177
55772W        W23990  19.028  35.639  11.188
55773W        W23991  32.697  22.666   0.802
55774W        W23992  12.898  43.729  12.922
55775W        W23993   4.440  44.505   1.777
55776W        W23994  28.018  29.900  13.949
55777W        W23995   2.268   1.262   4.676
55778W        W23996  29.871   2.952  14.442
55779W        W23997  11.160  38.777  14.388
55780W        W23998  34.575  11.609   2.366
55781W        W23999  44.505  35.366   3.715
55782W        W24000  18.133  38.106  10.819
55783W        W24001  40.785  11.890   0.777
55784W        W24002  11.541  17.935   3.804
55785W        W24003  34.002  11.245  12.141
55786W        W24004  41.827  35.891  11.710
55787W        W24005  30.898  26.492  11.693
55788W        W24006  14.364  21.579   0.885
55789W        W24007   8.576   9.553   0.885
55790W        W24008  10.848  40.724  11.541
55791W        W24009  32.546  44.489  13.986
55792W        W24010  31.671  20.967  10.540
55793W        W24011  13.007   0.263   1.362
55794W        W24012  19.556  42.353  14.821
55795W        W24013  19.169  12.859   4.958
55796W        W24014  35.834  10.189   2.752
55797W        W24015  31.482   2.599  10.332
55798W        W24016  35.689  25.388   0.857
55799W        W24017  16.011  33.995  14.347
55800W        W24018   3.803  24.226   0.060
55801W        W24019  36.912   0.626  13.473
55802W        W24020  39.844  41.404  13.540
55803W        W24021  20.825  40.796   1.103
55804W        W24022  31.038  44.756  11.930
55805W        W24023   0.948  20.244   0.875
55806W        W24024  42.877  36.287  11.126
55807W        W24025   6.655  14.539   2.243
55808W        W24026  19.785  14.826  12.945
55809W        W24027  13.636  12.891  14.391
55810W        W24028  20.756  43.167   3.481
55811W        W24029  41.348  21.832   1.805
55812W        W24030  44.266  18.563  12.938
55813W        W24031   5.158  11.186  14.247
55814W        W24032  33.246  23.555  13.990
55815W        W24033  19.791  25.122   3.330
55816W        W24034   6.211  22.817   4.806
55817W        W24035  15.796  34.649   1.334
55818W        W24036  20.683  41.342  13.768
55819W        W24037  20.720  39.908   1.409
55820W        W24038  39.115  12.938   3.237
55821W        W24039  10.282  27.085   4.531
55822W        W24040   5.369  12.432  11.680
55823W        W24041   7.689  42.950   1.330
55824W        W24042  36.470  20.132  13.091
55825W        W24043  21.917  38.305   0.431
55826W        W24044  24.275   5.364   3.734
55827W        W24045  19.793  39.966   1.466
55828W        W24046  20.707  13.712   0.006
55829W        W24047   0.684   9.146  11.089
55830W        W24048  11.478  22.486  14.716
55831W        W24049  25.414  16.588  14.290
55832W        W24050  17.662  29.876  10.542
55833W        W24051  29.027   2.502  14.464
55834W        W24052  19.036  41.844  12.816
55835W        W24053  24.171   7.052   2.041
55836W        W24054  38.551  11.797   4.109
55837W        W24055   9.213  12.127  10.697
55838W        W24056  38.807  36.340   1.667
55839W        W24057   5.889  43.113  10.218
55840W        W24058  39.613  31.506   2.789
55841W        W24059  15.314  33.073  12.123
55842W        W24060   8.949  20.275   0.359
55843W        W24061  43.494  15.405  14.065
55844W        W24062  32.629  21.751  12.285
55845W        W24063  37.934   7.662  12.190
55846W        W24064  14.852   6.398   1.428
55847W        W24065  17.590  43.406   4.906
55848W        W24066  21.930   9.256   0.568
55849W        W24067  38.103  43.906   0.803
55850W        W24068  40.349  12.251  11.018
55851W        W24069  38.998  30.662  13.429
55852W        W24070   8.447  27.469   0.522
55853W        W24071  40.901  20.067   0.942
55854W        W24072   7.722  29.865   4.153
55855W        W24073  11.890  28.910  14.674
55856W        W24074  37.051  12.155   2.395
55857W        W24075  28.619  43.107   0.469
55858W        W24076   7.384   6.264   1.634
55859W        W24077  26.963  17.069   2.750
55860W        W24078  40.203   6.636   2.040
55861W        W24079  28.574   1.321  12.023
55862W        W24080  16.355   4.427  11.704
55863W        W24081  25.028  19.731   1.286
55864W        W24082  10.106  14.956  12.087
55865W        W24083  33.517  23.213   4.109
55866W        W24084  10.090  32.364   4.904
55867W        W24085  39.299   8.801  13.866
55868W        W24086  43.211  26.915   3.276
55869W        W24087  41.310   2.918  11.562
55870W        W24088  40.114  26.616  12.182
55871W        W24089  23.945  25.138  11.220
55872W        W24090  26.488  19.637  11.240
55873W        W24091   7.149  14.839  11.585
55874W        W24092   6.457  25.697  13.535
55875W        W24093  44.951  26.087  12.983
55876W        W24094  38.666   1.476   2.920
55877W        W24095   5.228   9.756  14.453
55878W        W24096  30.252  10.404  12.595
55879W        W24097  31.462  33.884   4.337
55880W        W24098  33.669  14.211   3.550
55881W        W24099   7.398  35.408  12.417
55882W        W24100   6.582  30.057   2.805
55883W        W24101  11.386  24.186   0.434
55884W        W24102   0.456  27.081   3.626
55885W        W24103   0.149  40.257  14.367
55886W        W24104   3.393   9.361   1.661
55887W        W24105  17.160   1.246  11.160
55888W        W24106   9.383  21.072   3.433
55889W        W24107  18.887  27.765  13.123
55890W        W24108  42.889  25.957   4.113
55891W        W24109  25.117   9.753  13.340
55892W        W24110   3.933  34.211   4.651
55893W        W24111   3.982  40.366   4.830
55894W        W24112  19.043  21.964  11.089
55895W        W24113  22.265  43.764  14.901
55896W        W24114   4.481  32.883   1.750
55897W        W24115   7.873  41.987   3.802
55898W        W24116  19.515  15.996   0.069
55899W        W24117  31.586  43.416  12.533
55900W        W24118  10.379   5.423   2.256
55901W        W24119  37.819   6.112   4.132
55902W        W24120   1.475  26.285  12.509
55903W        W24121  42.742  41.446  12.829
55904W        W24122  43.477  16.065  11.547
55905W        W24123  10.331  20.808   1.451
55906W        W24124   4.958   4.777  14.307
55907W        W24125   3.950  26.928  12.775
55908W        W24126  40.544  43.764  11.485
55909W        W24127  31.205  43.755   3.015
55910W        W24128   1.759  15.310   1.243
55911W        W24129  12.631  36.435   3.163
55912W        W24130   4.396  13.348   3.326
55913W        W24131   6.035  41.547   2.805
55914W        W24132  25.527  11.133   0.927
55915W        W24133  13.790   6.854  11.886
55916W        W24134   6.600  39.897   5.111
55917W        W24135   7.934  38.332   0.976
55918W        W24136  26.014  12.547   1.662
55919W        W24137  24.586  41.645   2.232
55920W        W24138  17.074  43.517  13.910
55921W        W24139  29.447  15.564  14.226
55922W        W24140   1.927  17.652   2.767
55923W        W24141  16.074   8.690  12.897
55924W        W24142  37.904   9.149  13.022
55925W        W24143  25.487   6.305   9.925
55926W        W24144   9.960   5.384  14.891
55927W        W24145  18.239  23.686   1.221
55928W        W24146  41.845  42.055   4.771
55929W        W24147  10.110  25.175   4.413
55930W        W24148  18.977  43.310   3.123
55931W        W24149   3.451   6.966  12.903
55932W        W24150   4.410  15.846   3.791
55933W        W24151  33.468  27.200   1.825
55934W        W24152  30.506  20.577  13.373
55935W        W24153  39.097  15.187  13.263
55936W        W24154   0.055  10.929  13.549
55937W        W24155  44.401  37.846  12.384
55938W        W24156   4.417   2.072   1.000
55939W        W24157  34.108  13.565  12.956
55940W        W24158  22.589  12.321   0.512
55941W        W24159  14.326  24.627   0.842
55942W        W24160  21.557  35.969   0.662
55943W        W24161  25.493  39.007   2.405
55944W        W24162  21.452  35.978  11.088
55945W        W24163  10.350  30.457  12.950
55946W        W24164   2.980  19.858   1.760
55947W        W24165  26.671  21.638   2.203
55948W        W24166  30.158  31.517   0.564
55949W        W24167  38.758  29.072   4.663
55950W        W24168  40.355  19.194  14.797
55951W        W24169   6.238  19.016   2.721
55952W        W24170   1.778   3.928   2.328
55953W        W24171   8.949  20.244  14.839
55954W        W24172  24.213   1.816   0.584
55955W        W24173   2.723  44.299  12.148
55956W        W24174  21.317  26.094   1.328
55957W        W24175  24.058  40.833  12.853
55958W        W24176  26.599  13.485   0.235
55959W        W24177  22.049   9.914   3.220
55960W        W24178  40.262  40.062  14.898
55961W        W24179   0.381  22.018  12.140
55962W        W24180   8.231   4.422   4.792
55963W        W24181  10.658  22.671   0.886
55964W        W24182  31.203  25.930  14.408
55965W        W24183   7.760  36.067  13.905
55966W        W24184   6.462  18.817  13.507
55967W        W24185  16.533  39.493  13.374
55968W        W24186   3.404  42.106   2.504
55969W        W24187  44.310  31.469  12.448
55970W        W24188   7.813  25.475   1.915
55971W        W24189  34.042  39.474  12.106
55972W        W24190  38.885  18.190  10.753
55973W        W24191   5.947   9.305   9.672
55974W        W24192   2.834  34.500  12.489
55975W        W24193  44.973  30.047  11.541
55976W        W24194  11.147  18.698  10.647
55977W        W24195  24.693  26.517   4.579
55978W        W24196  22.331   7.152  12.929
55979W        W24197  25.306   3.509  13.449
55980W        W24198  27.013   8.913   2.226
55981W        W24199  29.447  40.949   3.192
55982W        W24200  32.977  44.230  13.833
55983W        W24201   9.878   4.899   1.736
55984W        W24202  40.003  37.817   0.895
55985W        W24203  22.096   9.696  10.871
55986W        W24204  39.897  25.064   4.683
55987W        W24205  11.809  41.013   1.401
55988W        W24206  19.643  41.344   4.561
55989W        W24207  14.849  14.713  12.403
55990W        W24208  42.047  21.147   4.604
55991W        W24209  27.999  25.383   0.204
55992W        W24210  43.208   6.144  12.034
55993W        W24211  29.826   2.933  11.164
55994W        W24212  39.092  29.588   5.281
55995W        W24213  11.706  15.270   0.683
55996W        W24214  35.020  44.445   2.655
55997W        W24215  35.893  44.722  13.427
55998W        W24216  23.998  28.453  12.190
55999W        W24217  16.574  12.607   1.758
56000W        W24218  19.530   5.296  13.991
56001W        W24219  20.575  42.872   3.876
56002W        W24220   9.422  44.478  14.443
56003W        W24221   5.887  35.464   3.407
56004W        W24222   3.848  26.072  12.546
56005W        W24223  25.811   6.929   0.383
56006W        W24224  42.362  20.817  11.656
56007W        W24225  17.118   0.773   4.997
56008W        W24226  38.344  41.414   0.470
56009W        W24227  37.975  29.600   2.392
56010W        W24228   7.324  12.154   2.401
56011W        W24229  44.938  31.436  12.478
56012W        W24230  28.466  42.654   4.372
56013W        W24231  43.821  26.486  10.790
56014W        W24232  22.039  28.176  11.246
56015W        W24233  44.414  19.103   3.928
56016W        W24234  22.739  33.422   1.722
56017W        W24235  11.095  15.184  11.055
56018W        W24236  18.604  12.792  11.857
56019W        W24237  38.877   6.861   2.346
56020W        W24238   9.664  42.294  12.553
56021W        W24239  11.134  20.030   3.852
56022W        W24240  43.780  28.901   4.072
56023W        W24241  35.477  15.150  12.435
56024W        W24242   7.298  17.676  13.291
56025W        W24243  25.237  13.820  11.980
56026W        W24244  24.552  23.826  11.995
56027W        W24245  11.541  10.759  10.725
56028W        W24246  18.845  38.117   1.236
56029W        W24247  42.019  28.352  12.539
56030W        W24248  17.084  23.709   3.145
56031W        W24249  41.588  24.723   0.978
56032W        W24250  10.823   6.861   1.834
56033W        W24251  38.379   4.696  14.794
56034W        W24252  43.515   2.224   2.721
56035W        W24253   8.401   3.803  14.432
56036W        W24254  18.180  15.297  12.946
56037W        W24255  14.423   5.492   1.732
56038W        W24256   6.265  16.538  12.099
56039W        W24257  10.776  10.724  11.351
56040W        W24258   4.413   4.251  11.548
56041W        W24259  36.091  21.023  11.068
56042W        W24260  27.154  23.897   3.163
56043W        W24261  11.136   9.209   4.053
56044W        W24262  17.290  19.629  13.566
56045W        W24263  11.587  23.676  13.989
56046W        W24264  12.848  15.242  14.384
56047W        W24265  14.444  16.942   3.289
56048W        W24266  35.196  21.206  14.296
56049W        W24267  43.135  39.256   1.336
56050W        W24268  41.979  43.297  10.477
56051W        W24269  22.483   0.159   1.923
56052W        W24270  41.316  13.725   4.394
56053W        W24271  24.494   1.008   0.550
56054W        W24272   9.653  32.476   1.319
56055W        W24273  29.640  37.806  10.674
56056W        W24274  19.353   2.474  14.295
56057W        W24275   8.195  42.498  14.913
56058W        W24276   1.842  28.307  12.530
56059W        W24277  44.238  35.051  12.025
56060W        W24278  35.636  16.551   0.369
56061W        W24279  32.266  11.415  12.622
56062W        W24280  20.498  33.477   2.221
56063W        W24281  41.655  20.286   4.594
56064W        W24282  32.871  25.518   0.679
56065W        W24283  39.249  26.601   2.431
56066W        W24284  39.812   9.631   2.176
56067W        W24285  30.424  32.123  14.377
56068W        W24286  16.697  19.449  12.952
56069W        W24287  37.937  35.376  10.518
56070W        W24288  34.407  42.313  11.969
56071W        W24289  39.538  29.479  13.866
56072W        W24290  39.665  15.081   4.214
56073W        W24291  21.246  11.443   3.462
56074W        W24292  13.555   8.821  14.655
56075W        W24293  20.097   4.938   0.567
56076W        W24294   1.563  17.828   3.129
56077W        W24295  26.476  17.856   9.606
56078W        W24296  10.737  26.661  14.693
56079W        W24297  24.440   4.783  14.101
56080W        W24298  14.093  14.871  11.747
56081W        W24299  29.904  38.840   2.863
56082W        W24300  39.324  32.145  13.066
56083W        W24301   7.722  15.228  11.274
56084W        W24302   7.830  11.768  14.349
56085W        W24303  13.844   3.637  12.618
56086W        W24304  41.931   4.879   1.367
56087W        W24305  43.043  36.123   2.312
56088W        W24306  31.238  40.789   3.082
56089W        W24307  25.760  18.274  13.998
56090W        W24308  23.109  26.084   3.709
56091W        W24309  15.567  44.923  14.490
56092W        W24310  36.394  19.202   4.753
56093W        W24311  11.276  33.661  11.642
56094W        W24312  18.853  12.661   4.575
56095W        W24313  19.605  25.965   0.740
56096W        W24314  17.281  33.135   0.394
56097W        W24315  17.583  24.946   4.241
56098W        W24316  39.825  33.744   0.834
56099W        W24317   1.306   5.722  11.908
56100W        W24318  24.223  24.096  14.962
56101W        W24319  38.390  39.602   1.384
56102W        W24320  24.979  33.019  14.894
56103W        W24321   7.265   6.230  14.754
56104W        W24322   2.050  41.386  11.698
56105W        W24323  21.242  41.327  13.932
56106W        W24324  34.404  33.590   0.459
56107W        W24325  10.978  28.387   2.380
56108W        W24326   3.677  22.368   2.118
56109W        W24327  39.443  19.535  12.141
56110W        W24328   0.175  20.762  12.877
56111W        W24329  17.562  16.554   4.682
56112W        W24330  44.408  44.021   0.381
56113W        W24331  42.848   6.925  13.271
56114W        W24332  21.008   1.243  13.796
56115W        W24333  26.070  30.362   2.220
56116W        W24334   8.108  17.561  10.905
56117W        W24335  12.704  35.501  13.503
56118W        W24336  37.944  17.181  12.535
56119W        W24337   7.010  10.569  11.678
56120W        W24338  33.533  22.446   0.782
56121W        W24339  41.915  31.443   1.869
56122W        W24340  10.859  30.373  10.625
56123W        W24341  33.094  31.897   4.729
56124W        W24342  10.703  14.043   4.754
56125W        W24343  12.013  22.182  12.546
56126W        W24344  36.574  10.504  12.425
56127W        W24345  18.688  39.597   1.213
56128W        W24346  39.454  25.438   3.339
56129W        W24347  34.682   2.129  13.056
56130W        W24348   0.914   5.993  13.554
56131W        W24349   9.598  24.423   0.419
56132W        W24350  36.379  21.452  14.845
56133W        W24351   5.283   7.281  12.444
56134W        W24352  40.533  32.983  13.864
56135W        W24353  38.413  41.927  11.533
56136W        W24354  42.520   5.759  14.579
56137W        W24355  10.124  41.911   4.098
56138W        W24356  30.110  15.273   2.869
56139W        W24357  26.840  19.569   1.138
56140W        W24358  39.969  13.833   3.626
56141W        W24359  13.717  32.655   0.307
56142W        W24360  30.091  18.115   0.987
56143W        W24361   1.900  11.117  11.998
56144W        W24362  13.926  24.468  12.527
56145W        W24363  33.146  41.544  10.836
56146W        W24364  10.223   6.921   2.653
56147W        W24365  26.541  21.187  11.126
56148W        W24366   2.814  44.358   4.679
56149W        W24367  41.871   2.042   5.092
56150W        W24368   6.121   8.484   5.360
56151W        W24369  14.191  42.830  11.138
56152W        W24370  14.363   3.363   3.227
56153W        W24371  10.059  10.841  11.080
56154W        W24372  17.628   7.330   3.610
56155W        W24373  44.553   6.975   4.647
56156W        W24374  17.934  23.305   0.361
56157W        W24375  37.184   4.310   2.408
56158W        W24376  39.980  37.823   3.813
56159W        W24377   7.489  38.047  14.558
56160W        W24378   4.147  42.362   2.338
56161W        W24379   0.375  18.941  12.921
56162W        W24380  32.510  13.114   0.971
56163W        W24381  32.503  41.565  11.563
56164W        W24382  33.082  36.983   2.663
56165W        W24383  14.256  32.561   2.189
56166W        W24384  20.417  28.021  12.038
56167W        W24385   1.349   2.573   4.151
56168W        W24386  37.617   7.465  13.628
56169W        W24387   4.220  21.495  12.940
56170W        W24388  27.548  32.418  14.182
56171W        W24389  27.491  10.696   1.558
56172W        W24390  43.018  17.487  12.359
56173W        W24391  35.170  10.588  13.342
56174W        W24392  11.598   7.888   1.007
56175W        W24393  32.721  21.286  11.466
56176W        W24394  21.798  36.113  13.823
56177W        W24395  10.703   7.304   2.634
56178W        W24396  11.242  10.161   4.532
56179W        W24397   1.380  35.619   4.809
56180W        W24398  12.494  19.240   1.592
56181W        W24399  10.938  34.058   2.914
56182W        W24400   1.778  40.001  11.510
56183W        W24401  30.914   0.163   1.333
56184W        W24402  21.277  17.598  13.279
56185W        W24403  17.594   4.992  12.221
56186W        W24404  44.321  37.568  13.480
56187W        W24405  13.150  26.177  12.596
56188W        W24406  18.637  18.376  10.323
56189W        W24407   3.949  12.286  11.165
56190W        W24408  21.185  42.406   2.572
56191W        W24409   7.352  20.873   1.755
56192W        W24410   1.409  29.087   0.951
56193W        W24411   6.429  38.623  13.385
56194W        W24412  32.729  10.727  13.732
56195W        W24413  24.118  36.144   2.778
56196W        W24414  10.916  26.743  13.319
56197W        W24415  11.880  42.281  13.298
56198W        W24416   7.236  21.976   2.541
56199W        W24417  26.978  39.730   1.804
56200W        W24418  33.893  29.743   5.025
56201W        W24419   1.840   7.333   4.580
56202W        W24420  43.586  15.785   4.527
56203W        W24421  43.084  28.770  10.261
56204W        W24422  25.524  19.884   3.209
56205W        W24423   8.511  24.551   1.163
56206W        W24424  21.167  36.467   3.824
56207W        W24425  26.197  28.162  14.462
56208W        W24426   5.289  11.849   2.342
56209W        W24427   7.967  15.708  11.453
56210W        W24428   1.042  17.058   4.616
56211W        W24429   8.009   4.363   3.256
56212W        W24430  33.970  15.763   1.640
56213W        W24431  12.788   0.726  12.143
56214W        W24432  38.264  38.346   3.737
56215W        W24433  31.083  22.273   0.725
56216W        W24434  24.954  32.096  13.939
56217W        W24435   7.647  20.675   3.836
56218W        W24436  26.436  10.323  12.457
56219W        W24437  34.592  22.493  14.484
56220W        W24438  42.054  40.352  14.892
56221W        W24439   9.396   1.892   1.853
56222W        W24440  22.467  39.639  14.962
56223W        W24441  24.162  10.881  10.923
56224W        W24442  21.509  17.703  10.696
56225W        W24443  36.984  40.521  11.428
56226W        W24444  32.023  17.749   3.604
56227W        W24445  34.827  33.860   0.266
56228W        W24446  40.498  37.745   0.039
56229W        W24447   7.156  36.374   4.257
56230W        W24448   6.724   2.106   4.827
56231W        W24449   1.511   7.982   4.208
56232W        W24450   7.213  32.040  13.918
56233W        W24451  21.380  38.867   4.736
56234W        W24452  14.805  28.657   0.789
56235W        W24453  33.315   5.481  10.185
56236W        W24454  31.613  29.915  12.060
56237W        W24455   9.382  30.664   1.755
56238W        W24456   5.874  16.335   0.878
56239W        W24457  21.203  11.543  14.508
56240W        W24458  18.428   7.764  14.202
56241W        W24459   5.163  31.774  13.546
56242W        W24460  14.701  26.043  14.504
56243W        W24461  37.552  23.676  12.130
56244W        W24462   2.465  29.888   3.733
56245W        W24463   5.372  15.291  13.223
56246W        W24464   7.595  42.882  14.262
56247W        W24465  26.500  25.553   1.813
56248W        W24466  28.643  22.344   1.324
56249W        W24467  27.733   4.648   3.706
56250W        W24468   1.349  36.926   0.013
56251W        W24469   6.284   8.761  10.570
56252W        W24470  43.585  43.223   4.696
56253W        W24471  38.964  18.203   1.970
56254W        W24472  21.539  31.594   3.645
56255W        W24473  14.719  43.213   4.699
56256W        W24474  12.601  18.158  11.650
56257W        W24475  16.279  14.638  14.543
56258W        W24476  34.727  11.287   0.979
56259W        W24477  33.681  27.568  13.876
56260W        W24478  40.747  16.663   4.271
56261W        W24479  10.891  31.094   1.480
56262W        W24480  21.315   2.224   0.190
56263W        W24481  21.231   4.967   3.830
56264W        W24482  19.031  25.280   1.767
56265W        W24483  33.386   2.261  11.220
56266W        W24484  20.053   6.281   1.388
56267W        W24485  15.766  37.700  14.876
56268W        W24486  17.083  29.725   0.209
56269W        W24487  22.150  34.350   1.398
56270W        W24488  42.226  40.520   2.145
56271W        W24489  36.649   3.377   4.538
56272W        W24490   0.403  44.752   2.764
56273W        W24491  18.580   5.796   4.526
56274W        W24492   6.704  44.061   3.767
56275W        W24493  31.025   2.511  13.923
56276W        W24494  30.590  35.994   3.885
56277W        W24495  15.835  28.849  13.799
56278W        W24496  19.411  29.718   0.392
56279W        W24497   6.359  20.205   4.833
56280W        W24498   0.400  31.891   2.897
56281W        W24499  18.243  37.490  13.912
56282W        W24500  15.533  23.434   2.275
56283W        W24501  35.960  34.476  14.546
56284W        W24502  19.127  33.902  14.532
56285W        W24503  43.757  28.489  13.434
56286W        W24504  39.413   1.864   2.844
56287W        W24505  14.672  28.206   3.731
56288W        W24506   3.640  20.126  13.616
56289W        W24507   7.928  35.407  11.490
56290W        W24508   4.237  18.104   0.857
56291W        W24509  41.635  30.716   0.432
56292W        W24510  32.695   4.263   2.884
56293W        W24511  17.068  24.720   1.839
56294W        W24512  14.794   5.924  13.297
56295W        W24513  22.092   1.196  12.410
56296W        W24514  37.675  42.981   0.743
56297W        W24515  26.108   3.316   0.860
56298W        W24516  13.564  28.669   0.309
56299W        W24517  30.703   2.493   3.669
56300W        W24518  23.450   1.654   0.917
56301W        W24519  38.046  28.750   0.245
56302W        W24520   2.251  27.613  12.910
56303W        W24521  15.168  38.436  14.967
56304W        W24522   6.402  27.496   3.289
56305W        W24523   2.635  13.908  11.201
56306W        W24524   6.347  13.006   5.095
56307W        W24525  18.360  34.669  14.354
56308W        W24526  10.406  42.763  10.979
56309W        W24527  18.779  26.727   5.172
56310W        W24528  10.138  23.527   0.031
56311W        W24529  27.563  25.612  14.013
56312W        W24530   1.484  36.510  13.114
56313W        W24531  33.354  13.848   4.890
56314W        W24532  44.806  13.023   2.374
56315W        W24533  41.845  17.592  12.012
56316W        W24534  18.529   0.851  13.049
56317W        W24535  35.463  22.938   0.444
56318W        W24536   4.950  31.355  13.793
56319W        W24537  17.650   2.432  13.814
56320W        W24538   3.876  41.728  13.408
56321W        W24539   4.235  18.300  11.448
56322W        W24540  21.194  17.355   1.603
56323W        W24541   5.177  34.513  11.771
56324W        W24542   7.400  29.442  12.414
56325W        W24543  37.145  41.743   2.894
56326W        W24544  40.439  36.281   3.351
56327W        W24545   3.372  40.558  12.013
56328W        W24546   0.334  40.985  14.021
56329W        W24547  16.062   5.923  14.559
56330W        W24548  18.574  40.417   0.928
56331W        W24549  35.128  41.495   3.222
56332W        W24550  38.757   6.003   3.314
56333W        W24551   9.874   7.418   2.245
56334W        W24552   3.648  37.880  13.963
56335W        W24553  29.111  40.764   1.898
56336W        W24554   7.436  32.967  11.195
56337W        W24555  30.451   9.191   3.269
56338W        W24556  14.269  43.689  13.731
56339W        W24557  26.409  20.272   2.347
56340W        W24558  13.279  18.859   4.607
56341W        W24559  38.899  42.913   2.369
56342W        W24560   0.465  24.674   4.798
56343W        W24561  21.844   0.779  12.607
56344W        W24562   3.194   0.321   1.327
56345W        W24563  27.842  38.867   2.780
56346W        W24564  16.416   3.482  12.894
56347W        W24565  18.853  13.009  12.282
56348W        W24566  24.727   2.837  14.938
56349W        W24567  44.801  35.695   1.691
56350W        W24568  22.147  31.719   2.105
56351W        W24569  40.990   6.732  14.773
56352W        W24570   1.935  33.870   3.768
56353W        W24571  12.434   2.526  13.339
56354W        W24572  32.134  10.633  14.892
56355W        W24573  11.746  16.492  12.512
56356W        W24574  21.317  22.281  10.647
56357W        W24575  25.678   5.473  12.987
56358W        W24576  17.651  17.589   1.134
56359W        W24577  28.119  11.895   1.376
56360W        W24578   9.356  14.182   2.923
56361W        W24579  20.233  13.248   1.079
56362W        W24580  15.039  14.946  13.871
56363W        W24581  38.345  10.711   3.219
56364W        W24582  29.445  26.924   0.821
56365W        W24583   5.364   5.129   4.839
56366W        W24584  16.818   5.233  11.511
56367W        W24585  12.298   5.164  13.779
56368W        W24586   8.561  27.605  13.027
56369W        W24587   4.677  30.098   1.370
56370W        W24588   8.155  44.461   0.755
56371W        W24589  31.182   5.921   4.503
56372W        W24590  26.564  37.557   0.863
56373W        W24591  17.140  34.564   1.798
56374W        W24592  26.489  40.967   2.942
56375W        W24593  42.832   2.694   2.948
56376W        W24594  22.785   0.512   3.183
56377W        W24595  24.618  37.450   2.276
56378W        W24596  14.582  10.334  10.151
56379W        W24597   7.846  12.185   1.330
56380W        W24598  41.035   8.636  13.912
56381W        W24599  28.587  34.486   2.125
56382W        W24600  31.832  27.235   2.405
56383W        W24601  32.562  22.537   1.297
56384W        W24602  17.743  13.734  14.810
56385W        W24603  35.111  43.756   4.911
56386W        W24604   0.174  30.200   1.251
56387W        W24605   7.221  31.650   0.730
56388W        W24606  34.422  15.679  12.558
56389W        W24607  33.935  21.541  11.126
56390W        W24608  36.555  44.066  14.744
56391W        W24609  23.560  32.840  10.525
56392W        W24610   7.924  13.684  11.170
56393W        W24611  40.907  21.056   1.991
56394W        W24612  39.879  40.569  13.489
56395W        W24613  41.248  42.117  13.445
56396W        W24614  30.441   9.370   2.566
56397W        W24615  43.097   5.527  11.142
56398W        W24616  15.749  14.391  11.905
56399W        W24617  21.736   1.495  14.940
56400W        W24618  22.986   6.678  10.749
56401W        W24619  24.172  40.452   2.663
56402W        W24620  14.411  25.780   3.257
56403W        W24621  20.005  18.638   3.936
56404W        W24622  20.978  11.800   3.147
56405W        W24623  34.383  31.917  12.830
56406W        W24624  31.406  33.468  11.353
56407W        W24625  25.823  28.632   2.432
56408W        W24626  33.169  14.327   3.594
56409W        W24627  37.407  24.069  14.637
56410W        W24628  42.412  21.191   2.880
56411W        W24629  20.821  31.161  13.516
56412W        W24630  37.394   8.826  13.836
56413W        W24631  14.684   6.183  12.838
56414W        W24632  37.874  25.767  12.998
56415W        W24633   9.168  28.420  12.972
56416W        W24634  35.264  36.119  14.738
56417W        W24635  28.530  24.166   1.757
56418W        W24636  27.074  15.358  14.472
56419W        W24637  43.410  28.509  12.663
56420W        W24638  44.000  29.244   1.779
56421W        W24639  41.187  38.941   1.837
56422W        W24640  17.345  33.404   5.090
56423W        W24641  24.625  15.832   3.917
56424W        W24642  32.414  29.541   3.555
56425W        W24643  36.015  34.237   1.088
56426W        W24644  24.488   9.899   4.104
56427W        W24645  28.083  15.804   3.617
56428W        W24646  34.964  42.505   4.362
56429W        W24647  44.913   6.236   0.232
56430W        W24648   6.048  31.392   2.774
56431W        W24649   3.516   1.870   0.585
56432W        W24650   5.817  18.204  11.952
56433W        W24651   2.071  23.582   1.209
56434W        W24652  16.311  40.512  14.154
56435W        W24653   0.222  18.072   4.204
56436W        W24654  31.994  24.676   2.822
56437W        W24655  30.507  18.912  14.279
56438W        W24656  37.450  18.549  13.533
56439W        W24657  10.159  35.090   0.848
56440W        W24658   4.467  26.191  14.920
56441W        W24659  40.427  24.998  12.415
56442W        W24660  20.099  35.901   0.870
56443W        W24661  37.482  27.145   3.339
56444W        W24662  28.073  30.121   1.498
56445W        W24663  37.084  37.371  12.515
56446W        W24664  35.094  15.999  11.881
56447W        W24665   3.713  20.068   3.680
56448W        W24666  34.955  44.748  13.295
56449W        W24667  12.018  30.441   0.929
56450W        W24668  40.337   4.925  12.975
56451W        W24669  34.587  30.132  11.237
56452W        W24670  43.667  32.704   2.930
56453W        W24671   6.969   4.854   3.998
56454W        W24672  16.518  31.530   4.095
56455W        W24673  34.878   4.957  13.000
56456W        W24674  18.859  38.002  12.532
56457W        W24675  14.268   6.008  14.053
56458W        W24676  30.993  24.486  12.765
56459W        W24677  24.661  15.691   0.388
56460W        W24678  29.512  44.115   1.538
56461W        W24679  37.650  24.525  13.229
56462W        W24680  26.060  42.243   1.376
56463W        W24681  31.882  32.857  11.137
56464W        W24682  39.936  27.697   1.851
56465W        W24683  13.090   1.610   2.218
56466W        W24684  29.032  25.861  13.072
56467W        W24685  20.001  43.768   1.441
56468W        W24686  12.346  44.189  13.958
56469W        W24687   4.560   6.456   0.547
56470W        W24688  33.166   1.501   1.420
56471W        W24689  29.984  27.156  11.118
56472W        W24690  30.025  16.407  12.044
56473W        W24691   8.398  32.948   2.303
56474W        W24692   2.701  36.991   3.510
56475W        W24693  42.483  27.257   2.795
56476W        W24694  19.550  36.662  14.204
56477W        W24695  30.376  13.670   2.547
56478W        W24696  37.321  35.031  12.086
56479W        W24697  42.769  37.982  14.377
56480W        W24698  18.301  25.552  14.976
56481W        W24699  33.259  20.927  10.106
56482W        W24700  14.259  30.102  12.239
56483W        W24701  41.401  33.969  11.940
56484W        W24702  28.621  23.588  11.144
56485W        W24703  31.187  10.372   2.829
56486W        W24704  41.513  15.490  12.575
56487W        W24705  12.736  34.822  12.852
56488W        W24706  27.972  41.530   1.458
56489W        W24707  23.522  28.872  13.735
56490W        W24708  22.619  20.633  12.877
56491W        W24709  29.934  14.431  12.485
56492W        W24710  33.473  22.915   4.568
56493W        W24711   5.179  12.563   2.687
56494W        W24712  10.501   2.266  11.691
56495W        W24713  36.129  10.663  11.105
56496W        W24714  19.484  24.066   4.539
56497W        W24715  44.033  20.050  14.300
56498W        W24716   1.344  33.371  11.530
56499W        W24717  40.490  20.889   3.217
56500W        W24718  14.018  12.852  12.521
56501W        W24719  43.479  22.993  13.353
56502W        W24720  38.380  41.323  12.041
56503W        W24721  11.642  19.969   3.693
56504W        W24722   0.801   6.132  12.537
56505W        W24723  44.969  18.876   2.578
56506W        W24724   4.401  37.889   4.134
56507W        W24725  32.912  21.537  14.368
56508W        W24726  28.745   0.793   3.586
56509W        W24727  23.163  27.528   2.448
56510W        W24728  43.511  28.024   1.435
56511W        W24729  23.672  10.900  14.467
56512W        W24730   7.210   7.471  12.466
56513W        W24731  34.797   3.713  12.378
56514W        W24732   3.760  19.780   3.248
56515W        W24733  35.854  25.108   1.328
56516W        W24734   5.948  39.934   3.223
56517W        W24735  28.796  23.462  13.518
56518W        W24736   0.528  18.798  14.097
56519W        W24737  26.678  32.044   1.438
56520W        W24738  20.852  30.618  12.398
56521W        W24739  43.140  37.049   4.641
56522W        W24740  27.440  17.119  14.821
56523W        W24741  26.065  34.114  14.600
56524W        W24742  42.487  11.246   3.098
56525W        W24743  41.551  31.432  11.954
56526W        W24744  20.114  44.424   0.422
56527W        W24745  17.013  11.078   3.323
56528W        W24746   4.964   7.608   1.492
56529W        W24747   8.611  43.896  12.481
56530W        W24748   1.397  29.198  13.809
56531W        W24749  24.651  37.639   3.270
56532W        W24750  12.252  33.364  10.636
56533W        W24751  31.585  36.421  13.081
56534W        W24752  19.300  25.779  10.828
56535W        W24753   0.671  29.688   0.934
56536W        W24754  29.372  43.833  11.999
56537W        W24755  43.847  44.302   2.041
56538W        W24756  17.688   7.885  10.906
56539W        W24757   4.131  44.759  11.149
56540W        W24758  43.057  37.070   1.335
56541W        W24759   0.964  27.011  10.773
56542W        W24760  22.028  26.568   4.866
56543W        W24761  16.655   0.367   1.458
56544W        W24762   7.935   7.617   1.229
56545W        W24763   4.257   0.485  13.503
56546W        W24764  17.756  22.594   3.183
56547W        W24765  30.484  15.605   3.685
56548W        W24766  31.945  44.032   0.359
56549W        W24767  43.051  34.917  14.340
56550W        W24768  30.458   2.321  14.397
56551W        W24769   3.434   1.362  12.371
56552W        W24770   4.453   2.632   0.054
56553W        W24771  16.071  11.805  13.342
56554W        W24772  35.615  27.515   2.176
56555W        W24773   9.852  26.190  14.816
56556W        W24774  15.161  38.964  10.569
56557W        W24775  20.877  12.560  14.406
56558W        W24776  15.922   2.377   1.333
56559W        W24777   5.865  44.509   2.185
56560W        W24778  24.722  20.731  12.481
56561W        W24779   5.592  29.559   4.037
56562W        W24780  33.879  30.045   3.136
56563W        W24781  20.552  43.618  11.945
56564W        W24782  18.496  10.716   2.121
56565W        W24783  24.055  36.881  10.637
56566W        W24784   3.240  39.382  11.447
56567W        W24785  27.193  21.430   3.702
56568W        W24786  36.945  43.294  12.054
56569W        W24787   0.751   7.927  12.536
56570W        W24788   8.133  28.530  11.591
56571W        W24789   9.213  40.765  10.488
56572W        W24790  21.229   5.151   4.686
56573W        W24791   1.898  31.389  14.275
56574W        W24792  42.624  31.891   1.171
56575W        W24793   6.446  25.432  13.077
56576W        W24794  39.595  29.557   0.753
56577W        W24795  42.866  44.977  11.195
56578W        W24796   6.440   4.332  11.078
56579W        W24797  32.025  36.677   0.539
56580W        W24798  36.821   1.900  14.612
56581W        W24799  22.116   3.379   1.225
56582W        W24800   7.725  14.600   1.374
56583W        W24801  20.070  27.739   0.936
56584W        W24802  37.894   4.452   4.394
56585W        W24803  20.651  30.721   4.437
56586W        W24804   3.862  15.280  13.366
56587W        W24805   2.801  15.886   3.379
56588W        W24806  44.491  11.247   0.189
56589W        W24807  29.732  27.540   0.005
56590W        W24808  26.450  43.583   0.094
56591W        W24809   1.493  21.134  11.894
56592W        W24810  35.602   4.630   4.569
56593W        W24811  19.341  19.307   1.249
56594W        W24812  21.690   1.835   2.621
56595W        W24813   4.042  37.251  12.987
56596W        W24814  25.571  40.576   0.048
56597W        W24815  43.245  18.155   2.286
56598W        W24816  33.270  14.935   3.616
56599W        W24817  21.530  29.662  10.710
56600W        W24818  11.074  25.231   4.637
56601W        W24819   4.959  27.411  14.924
56602W        W24820  32.319  20.586   4.188
56603W        W24821  27.954  31.169  12.829
56604W        W24822  39.949  44.486   4.305
56605W        W24823  28.929  26.468   3.421
56606W        W24824   3.183  37.919  10.578
56607W        W24825  13.772  24.965   1.531
56608W        W24826  31.154   5.923   2.753
56609W        W24827  18.494  25.874   3.180
56610W        W24828  12.666  24.787   3.724
56611W        W24829  18.849  28.888   4.324
56612W        W24830   3.424   2.904   2.231
56613W        W24831  34.580  28.599   2.124
56614W        W24832  34.067  10.771  12.335
56615W        W24833  39.672  43.932  14.366
56616W        W24834  41.982   4.033  10.151
56617W        W24835  28.679   3.573   3.023
56618W        W24836  36.612  40.368   0.298
56619W        W24837  30.341  16.343  12.476
56620W        W24838  20.122   5.344  12.323
56621W        W24839  18.622  43.711   4.204
56622W        W24840  21.658  23.734   4.523
56623W        W24841  19.892  24.327   1.760
56624W        W24842  43.433  18.254  12.599
56625W        W24843  26.151  23.720  14.642
56626W        W24844  41.007  27.555   4.736
56627W        W24845   3.478  31.920   1.759
56628W        W24846  16.860  35.045   0.099
56629W        W24847  42.419  11.638   4.318
56630W        W24848   0.463  23.435  14.478
56631W        W24849  11.871  40.494   1.383
56632W        W24850   3.603   6.904  14.094
56633W        W24851  15.382  42.401  13.442
56634W        W24852  44.732  14.275  13.545
56635W        W24853   6.300  37.031  13.859
56636W        W24854   3.521   3.013  10.397
56637W        W24855  43.291  18.210  14.046
56638W        W24856  39.422   5.221   0.352
56639W        W24857  43.955  16.810   4.599
56640W        W24858   9.477  39.996  11.053
56641W        W24859  24.399  27.439   0.834
56642W        W24860  38.978  44.919   1.173
56643W        W24861   0.496   4.133   1.588
56644W        W24862  13.682  39.941   1.640
56645W        W24863  10.151  17.803  13.776
56646W        W24864  12.020  37.355  14.998
56647W        W24865  26.184  24.963   0.232
56648W        W24866   1.614  20.463   4.109
56649W        W24867   5.223  28.029  10.598
56650W        W24868  22.243  44.808  11.495
56651W        W24869  36.525   9.163   2.274
56652W        W24870  21.719  22.175  12.176
56653W        W24871  23.785  30.658  14.329
56654W        W24872  36.117   8.086  11.081
56655W        W24873  29.076   0.312   0.404
56656W        W24874  29.993   3.915  14.370
56657W        W24875  33.919  32.095  12.963
56658W        W24876  18.161   5.904  12.897
56659W        W24877   0.824  22.192  10.459
56660W        W24878  27.858   8.562   3.634
56661W        W24879  19.876  12.613   9.925
56662W        W24880  22.449  10.838   4.067
56663W        W24881   2.916   8.691  10.951
56664W        W24882   3.304  12.811  14.993
56665W        W24883   8.100  44.155  12.140
56666W        W24884  25.264  19.066  11.019
56667W        W24885   7.122  18.243   5.052
56668W        W24886   2.867   0.406   2.719
56669W        W24887  11.175  25.477  14.938
56670W        W24888  22.005   6.375   4.622
56671W        W24889  24.496   4.149   0.833
56672W        W24890  14.423   5.586   0.828
56673W        W24891  37.134  19.804   1.057
56674W        W24892   9.307  22.623  12.791
56675W        W24893   8.127  24.559   1.512
56676W        W24894  29.220   8.838  12.390
56677W        W24895  14.712   6.665  11.054
56678W        W24896  18.115   8.425   3.253
56679W        W24897  33.569  41.156  11.440
56680W        W24898   7.809  10.640   1.333
56681W        W24899  38.909  21.736   1.845
56682W        W24900  11.905  22.644   5.210
56683W        W24901  10.492  36.378   0.253
56684W        W24902  42.874  32.100  10.790
56685W        W24903  30.927  19.820  13.453
56686W        W24904  43.374  36.131   4.287
56687W        W24905  31.374  23.574   0.551
56688W        W24906   0.957   3.878   3.235
56689W        W24907  39.196  43.026  14.899
56690W        W24908  21.543  40.424   1.338
56691W        W24909  37.994   9.211   1.526
56692W        W24910  43.639  28.861  14.317
56693W        W24911  14.261  15.792  12.541
56694W        W24912  39.314  43.520  14.442
56695W        W24913   6.891  43.287  14.764
56696W        W24914  39.493  24.917   3.287
56697W        W24915  12.597  24.336   4.598
56698W        W24916   1.793   6.908  13.334
56699W        W24917  35.062  41.247   2.763
56700W        W24918  34.001  17.226  12.353
56701W        W24919  38.024  18.106   0.233
56702W        W24920  13.591  25.642   4.580
56703W        W24921  41.531  38.837   3.294
56704W        W24922  13.868  24.687   4.449
56705W        W24923  10.676  14.678   4.562
56706W        W24924  19.289  21.366  13.834
56707W        W24925   2.925   1.225   3.453
56708W        W24926  22.872  34.961  13.086
56709W        W24927  42.530   4.704   0.781
56710W        W24928  12.840   8.355  12.011
56711W        W24929  14.310  25.982  12.068
56712W        W24930  17.259  23.061  14.814
56713W        W24931  44.041  28.098  12.026
56714W        W24932  40.849  33.332   0.994
56715W        W24933  38.550  34.745   2.432
56716W        W24934   6.300   1.192  12.465
56717W        W24935  22.706  27.683   1.715
56718W        W24936  43.866   1.859   2.560
56719W        W24937  16.680  26.637   4.242
56720W        W24938  12.361  37.941   3.615
56721W        W24939  43.751  26.874   4.559
56722W        W24940  35.418  35.391   1.459
56723W        W24941   3.815   3.782   2.254
56724W        W24942  41.863  15.916   1.826
56725W        W24943   2.250   8.710   4.145
56726W        W24944  39.863  17.732  14.749
56727W        W24945  27.698  12.199   1.418
56728W        W24946  37.836  44.575   0.328
56729W        W24947  22.474  28.848   0.588
56730W        W24948  18.061   5.819   4.565
56731W        W24949  14.105  13.817   4.081
56732W        W24950   9.815  12.133  11.086
56733W        W24951  36.322  33.914  13.872
56734W        W24952  28.655  15.290   0.045
56735W        W24953   2.403  23.504   0.805
56736W        W24954  36.622  31.801  11.562
56737W        W24955  43.901   5.052  12.889
56738W        W24956   5.907  12.729  12.945
56739W        W24957   0.325   6.723  11.476
56740W        W24958   6.443  44.858   4.617
56741W        W24959  10.659  38.862   0.447
56742W        W24960  31.578  34.816  14.927
56743W        W24961  17.910  11.658   4.211
56744W        W24962  14.582  31.933  10.807
56745W        W24963  32.543  33.142   1.705
56746W        W24964  37.804   0.617   0.361
56747W        W24965  38.388  19.129  12.161
56748W        W24966  17.255  30.186  14.292
56749W        W24967  44.870  26.912   3.595
56750W        W24968  44.316  35.819  12.484
56751W        W24969  23.587  27.656  10.356
56752W        W24970  29.733  23.048   0.782
56753W        W24971  36.861  42.970  14.040
56754W        W24972   7.652  39.980   1.895
56755W        W24973   1.321  16.627  12.487
56756W        W24974   7.704   1.235   0.321
56757W        W24975  14.355  17.457  12.990
56758W        W24976   7.013  43.958   1.284
56759W        W24977  22.636  20.577   4.051
56760W        W24978  19.807  21.286  12.030
56761W        W24979  40.371  26.019  11.444
56762W        W24980   5.405   8.685   1.906
56763W        W24981  18.756  21.603   1.432
56764W        W24982  16.597  21.959  13.984
56765W        W24983   1.404  42.878   1.927
56766W        W24984  23.557  38.980  11.385
56767W        W24985   1.906  25.734   0.388
56768W        W24986   3.827   9.209  14.209
56769W        W24987  24.087  37.932   0.240
56770W        W24988  26.401  22.601   3.159
56771W        W24989   0.250   3.982   0.034
56772W        W24990   5.505  25.556   4.699
56773W        W24991  37.884  15.997  11.460
56774W        W24992  44.396   1.482  10.574
56775W        W24993  30.966  11.692  10.969
56776W        W24994  31.702  35.018  13.609
56777W        W24995  42.372  17.041  12.140
56778W        W24996  24.553   0.271  13.968
56779W        W24997   2.338   0.823  11.578
56780W        W24998  28.871  10.389  13.520
56781W        W24999  27.154  28.052   3.749
56782W        W25000  32.048  40.344  13.555
56783W        W25001  11.249  32.183  14.043
56784W        W25002  30.517  44.722  14.064
56785W        W25003  30.709  22.586   1.508
56786W        W25004  11.318  25.263  11.572
56787W        W25005  26.926  33.401   1.241
56788W        W25006  41.237   4.999  13.128
56789W        W25007   0.869   9.747  12.138
56790W        W25008  35.694  39.393   0.370
56791W        W25009  21.172  39.885  13.292
56792W        W25010  40.856  30.461  13.176
56793W        W25011  13.250  21.582  11.842
56794W        W25012   6.857   8.283  14.494
56795W        W25013  12.872  41.397  14.429
56796W        W25014   2.428  36.431   1.242
56797W        W25015  39.402  24.958   4.578
56798W        W25016  44.801   5.513   3.941
56799W        W25017  15.818  23.238   1.892
56800W        W25018   4.531   3.203  14.971
56801W        W25019   0.253  17.251  13.932
56802W        W25020  40.963   1.332   3.350
56803W        W25021  34.634  38.713   2.374
56804W        W25022  31.754  26.686  12.174
56805W        W25023  29.904  29.839   0.286
56806W        W25024  14.572  28.716  11.202
56807W        W25025  42.975  35.887  13.687
56808W        W25026  32.044  11.255   0.950
56809W        W25027   6.409  17.950   1.059
56810W        W25028  22.247   7.099  11.105
56811W        W25029  24.376  20.236   4.622
56812W        W25030   6.006  40.604  14.220
56813W        W25031  40.733  20.191   1.973
56814W        W25032  16.981  34.924  11.886
56815W        W25033   0.040  21.485   2.827
56816W        W25034  34.381  13.166   0.411
56817W        W25035  37.887   7.304   0.963
56818W        W25036  31.372  20.010   4.277
56819W        W25037   9.293  41.501   0.918
56820W        W25038  17.201  10.574  11.129
56821W        W25039  20.254  29.506   4.580
56822W        W25040  39.323  40.959   2.733
56823W        W25041  15.387  39.499   3.348
56824W        W25042  12.658   8.449   0.869
56825W        W25043   3.282  26.619   2.773
56826W        W25044  16.406  22.740  11.903
56827W        W25045   5.214  30.045  11.657
56828W        W25046  20.292  34.846  11.545
56829W        W25047  12.349  39.430   3.079
56830W        W25048  37.937  22.427  13.817
56831W        W25049  37.603   4.645   2.364
56832W        W25050  10.347  43.419   1.325
56833W        W25051  44.792  23.352   2.302
56834W        W25052  30.414   2.375   5.010
56835W        W25053  35.552  32.190   1.325
56836W        W25054  20.050  31.002  11.906
56837W        W25055  33.877  28.909   5.176
56838W        W25056  17.069  40.286  12.890
56839W        W25057  26.969  35.627   2.809
56840W        W25058   5.151  21.811  13.871
56841W        W25059  11.214  16.738  14.861
56842W        W25060  40.867  32.893  10.994
56843W        W25061  42.603  35.969   3.184
56844W        W25062  41.261  22.241   4.178
56845W        W25063  18.046   8.948   3.256
56846W        W25064  11.185   4.344   4.386
56847W        W25065  39.938  14.661  14.417
56848W        W25066  13.955  34.825   3.390
56849W        W25067  22.764  17.001   0.686
56850W        W25068  14.805  37.323  12.653
56851W        W25069  21.467  37.709   3.531
56852W        W25070   7.921  16.508  13.586
56853W        W25071  15.049  26.368  13.576
56854W        W25072  10.387   1.480  13.891
56855W        W25073  11.457  38.445   1.818
56856W        W25074  20.036  15.199  13.250
56857W        W25075  40.567  16.175  10.761
56858W        W25076  40.041  14.845  13.001
56859W        W25077  40.797  13.339  11.571
56860W        W25078  35.820   4.419   4.048
56861W        W25079  16.094  34.198   1.440
56862W        W25080  14.071  10.595  14.413
56863W        W25081  14.406   3.863   1.992
56864W        W25082  22.759  25.057  12.629
56865W        W25083  15.790  34.935  12.927
56866W        W25084  16.884  34.866  13.124
56867W        W25085  24.955   4.813   3.325
56868W        W25086  15.593  19.982  11.484
56869W        W25087  19.117  33.456  13.542
56870W        W25088  15.909  24.604  10.592
56871W        W25089  30.482  18.556   3.218
56872W        W25090  39.955  17.352   1.371
56873W        W25091   3.919  30.390  13.603
56874W        W25092  15.137  40.105   3.682
56875W        W25093  27.664  19.140  14.878
56876W        W25094  30.698   7.674   2.317
56877W        W25095  15.992   1.979  12.077
56878W        W25096  34.495  23.069   4.276
56879W        W25097   8.178  26.356  11.922
56880W        W25098  23.096  29.157   4.746
56881W        W25099  17.621  18.150  13.579
56882W        W25100  28.313  26.503  12.859
56883W        W25101  22.639  17.992  13.750
56884W        W25102  29.380  17.519   4.662
56885W        W25103  30.127   5.725   4.296
56886W        W25104  16.107  34.518  12.986
56887W        W25105  14.919  17.662  11.594
56888W        W25106  15.035   5.752   2.831
56889W        W25107  38.752  24.507   4.177
56890W        W25108  24.655   6.716  11.128
56891W        W25109  42.126  38.537  10.639
56892W        W25110   1.208  26.743   0.715
56893W        W25111  24.094   2.405   4.149
56894W        W25112  40.761  39.394  11.054
56895W        W25113  25.946  14.470   5.028
56896W        W25114   5.139  34.070  10.530
56897W        W25115  10.712  10.840   4.189
56898W        W25116  39.827  35.294  13.948
56899W        W25117  42.858  25.184   1.977
56900W        W25118  38.724  37.930   2.755
56901W        W25119  15.199   8.814  11.535
56902W        W25120  17.147  38.991  10.385
56903W        W25121  10.424  21.023   2.301
56904W        W25122  20.495  19.603  13.377
56905W        W25123  17.278   1.712   4.125
56906W        W25124  37.613  22.742  14.208
56907W        W25125  19.419  42.620   4.056
56908W        W25126  35.398   3.830   5.120
56909W        W25127  16.382  36.020  13.837
56910W        W25128   9.590  36.904  12.936
56911W        W25129   1.842  40.123   4.541
56912W        W25130   9.110  20.665  13.534
56913W        W25131  36.496  23.919  14.821
56914W        W25132  28.705  42.888  11.595
56915W        W25133   9.029  39.851  11.995
56916W        W25134   1.035  24.472   4.926
56917W        W25135  37.782  16.533  11.318
56918W        W25136   1.804  22.785   2.966
56919W        W25137   7.176   5.471   0.253
56920W        W25138  37.365  15.551  10.664
56921W        W25139  42.423   1.050  11.467
56922W        W25140  18.977   8.165  14.167
56923W        W25141  35.935   8.884  10.796
56924W        W25142  37.963  38.583   2.666
56925W        W25143  18.642  18.260  12.589
56926W        W25144  43.367  20.611  13.058
56927W        W25145  37.272  38.570   4.646
56928W        W25146   3.895  42.859   2.314
56929W        W25147  17.665  43.764  12.528
56930W        W25148   9.228  24.736  13.454
56931W        W25149  35.981  41.475  12.615
56932W        W25150  41.905  19.653  13.115
56933W        W25151  43.249  25.964   3.690
56934W        W25152   6.787  17.950  13.374
56935W        W25153   9.815  38.751  13.086
56936W        W25154   9.928  21.353  11.499
56937W        W25155  21.561   0.386  12.457
56938W        W25156   0.891  30.091  12.996
56939W        W25157  38.046  18.624  10.680
56940W        W25158  26.227  23.224  13.920
56941W        W25159  38.240  27.407  13.388
56942W        W25160  38.850  31.937  13.061
56943W        W25161  20.008  29.508   4.107
56944W        W25162  28.189  11.729  10.301
56945W        W25163  43.769   4.896   0.230
56946W        W25164  34.335  24.281   0.026
56947W        W25165   2.286   1.645  12.150
56948W        W25166  40.269  39.002   0.705
56949W        W25167   7.546  28.793   0.695
56950W        W25168  33.151  24.721   0.834
56951W        W25169  20.496  36.952  11.158
56952W        W25170  24.132  23.731  13.266
56953W        W25171  17.821   7.897   0.382
56954W        W25172   2.399  44.875  10.706
56955W        W25173  25.042  28.888  13.065
56956W        W25174   1.409  36.530   3.288
56957W        W25175  25.647  21.827  10.622
56958W        W25176  26.831  13.421   2.127
56959W        W25177   2.006  39.699   0.428
56960W        W25178  40.942  23.555  14.266
56961W        W25179  24.308  22.590   0.762
56962W        W25180  35.424  18.879  10.646
56963W        W25181   6.356  28.986   3.829
56964W        W25182  23.830  24.530   0.262
56965W        W25183  32.461   2.108   3.170
56966W        W25184  34.455  21.296  10.754
56967W        W25185  33.402  24.072   3.706
56968W        W25186  21.635  44.060  13.383
56969W        W25187  31.939  27.486  13.350
56970W        W25188   6.104  18.570   4.525
56971W        W25189  10.363   5.793  11.605
56972W        W25190  22.592  44.882   0.749
56973W        W25191  42.355  35.816  12.377
56974W        W25192  34.908   7.721  13.367
56975W        W25193  14.816  24.553  14.479
56976W        W25194  38.079  27.958   3.750
56977W        W25195  44.404   3.514   3.241
56978W        W25196  40.065  40.270  14.463
56979W        W25197   1.985   4.869   4.606
56980W        W25198  23.458  32.933   0.023
56981W        W25199  28.429  25.032   0.213
56982W        W25200   7.478  22.288  12.416
56983W        W25201  31.078  31.153  12.002
56984W        W25202  38.083   0.793   2.377
56985W        W25203  33.613  19.849   3.266
56986W        W25204  26.925   8.157  11.610
56987W        W25205  20.140  26.725   4.924
56988W        W25206   6.485  27.215   0.687
56989W        W25207   3.275  40.469   0.644
56990W        W25208  30.877  22.872  13.405
56991W        W25209   1.924  31.616  14.767
56992W        W25210  10.556  23.481   0.373
56993W        W25211   5.911  35.776  11.901
56994W        W25212   7.969   8.220   4.638
56995W        W25213  39.319  20.067  11.898
56996W        W25214  23.481  34.393  12.033
56997W        W25215  28.488  28.658   3.304
56998W        W25216  26.651   8.771  13.354
56999W        W25217  29.099  19.705  14.667
57000W        W25218   9.582  25.483   4.827
57001W        W25219   0.458  39.556   3.082
57002W        W25220  22.414  37.483  12.516
57003W        W25221  13.103  35.441  12.891
57004W        W25222  41.481  20.756   0.742
57005W        W25223  33.600  35.793   3.757
57006W        W25224   9.661   9.869  12.864
57007W        W25225  14.455  43.469  11.640
57008W        W25226  19.215  32.348   0.968
57009W        W25227  19.292  29.283   4.768
57010W        W25228  27.566   9.031  13.922
57011W        W25229  26.983   6.763  14.479
57012W        W25230  21.530   9.626   1.462
57013W        W25231  33.725  27.880  11.234
57014W        W25232  15.282  41.010  13.495
57015W        W25233  37.238   9.442  12.422
57016W        W25234   4.656  14.284  12.033
57017W        W25235  43.977  32.447  13.536
57018W        W25236  28.177   0.604  10.367
57019W        W25237  38.101  13.898  13.466
57020W        W25238   7.705  36.168  11.360
57021W        W25239  30.171   8.440  14.957
57022W        W25240  28.840  25.242  11.983
57023W        W25241  33.510   9.974   3.736
57024W        W25242   9.923  16.154   3.284
57025W        W25243  29.125   7.948  10.512
57026W        W25244   0.368  14.098   4.623
57027W        W25245  35.801  37.320  12.045
57028W        W25246  32.452  28.890  13.474
57029W        W25247  30.707  16.638  11.100
57030W        W25248  18.507  26.042   0.789
57031W        W25249   6.681  21.143  14.389
57032W        W25250   6.722  30.084   0.387
57033W        W25251  33.657   4.326  13.505
57034W        W25252   6.626  24.257  12.549
57035W        W25253  34.271  17.300  13.520
57036W        W25254  39.368  19.317   0.777
57037W        W25255  14.970  10.251   5.012
57038W        W25256  16.989   6.017  14.941
57039W        W25257  33.549  28.033   2.845
57040W        W25258   7.211  24.717  13.915
57041W        W25259  37.933   2.185  13.394
57042W        W25260  27.730  42.827  10.924
57043W        W25261  17.497  44.969  12.109
57044W        W25262   2.013  33.338   2.940
57045W        W25263  27.215  29.037   2.261
57046W        W25264  44.038  37.880   0.406
57047W        W25265  10.165  17.865   9.878
57048W        W25266  38.258  15.680   1.812
57049W        W25267  14.332   4.331  12.405
57050W        W25268  34.434   9.639   3.315
57051W        W25269  24.052  42.728  12.938
57052W        W25270  24.191  18.447   0.509
57053W        W25271   9.683  40.112  12.764
57054W        W25272  28.089  31.157  10.922
57055W        W25273  29.918  27.478  11.527
57056W        W25274  13.359   5.700  11.653
57057W        W25275  37.721  44.122   4.613
57058W        W25276  21.279  20.756  10.578
57059W        W25277   5.440  25.002  12.471
57060W        W25278  33.026   9.535   3.242
57061W        W25279  39.929  13.993   2.772
57062W        W25280  40.205  30.394   0.969
57063W        W25281  44.455  42.448   2.606
57064W        W25282  10.741   9.094  13.979
57065W        W25283   8.468  29.734  10.794
57066W        W25284   6.665  15.070  14.069
57067W        W25285  38.871  28.421  12.517
57068W        W25286   5.443  36.365   3.203
57069W        W25287   6.236  20.647  10.594
57070W        W25288  38.495  22.221   2.943
57071W        W25289  17.013  30.562  13.351
57072W        W25290   2.755  19.781   3.168
57073W        W25291  19.776   7.179   2.779
57074W        W25292  25.928  21.217   0.251
57075W        W25293  20.699  27.111  10.493
57076W        W25294  29.152  21.945   1.279
57077W        W25295  30.984  31.075   4.801
57078W        W25296  27.973  28.404   0.440
57079W        W25297  34.540  15.429   0.777
57080W        W25298  20.415  38.763   3.681
57081W        W25299  21.054  43.271  14.879
57082W        W25300  42.980  34.355  13.193
57083W        W25301  38.931  44.742   3.408
57084W        W25302  36.039  32.594   3.602
57085W        W25303  31.179  27.606  12.889
57086W        W25304  20.266  38.603   4.549
57087W        W25305  43.170   1.003  10.693
57088W        W25306  38.548  41.264  14.837
57089W        W25307   7.316  37.830   1.352
57090W        W25308  31.674   3.323   1.367
57091W        W25309   0.738  34.467   4.067
57092W        W25310   5.399  37.119  12.917
57093W        W25311  44.706  25.177  10.594
57094W        W25312  20.587  35.026   4.114
57095W        W25313  44.488  34.374   5.074
57096W        W25314   4.729   4.888   3.684
57097W        W25315  28.647   9.898  13.382
57098W        W25316  10.310  41.876  11.650
57099W        W25317  33.167   2.739  13.407
57100W        W25318  24.739  13.429  11.046
57101W        W25319   5.692  38.870  14.350
57102W        W25320   7.911  37.247  12.174
57103W        W25321   2.863  10.194  11.607
57104W        W25322  38.070   4.447  12.587
57105W        W25323  27.664   0.219  13.710
57106W        W25324  41.457  32.622  11.629
57107W        W25325  12.161   7.298  12.060
57108W        W25326   5.755   8.652  12.631
57109W        W25327  25.451  27.277   2.480
57110W        W25328  25.954  40.030  13.016
57111W        W25329   7.117  28.654  14.333
57112W        W25330  16.868  16.302  13.706
57113W        W25331  26.517  36.357   4.549
57114W        W25332  43.831  24.271   2.791
57115W        W25333  25.672  13.758  13.842
57116W        W25334  11.774   5.396  13.079
57117W        W25335  25.829  14.527  14.403
57118W        W25336   4.412   6.821  13.909
57119W        W25337  37.947  36.966   4.030
57120W        W25338  11.668  26.473   3.868
57121W        W25339   7.847  14.711  10.014
57122W        W25340   2.502   3.338   3.682
57123W        W25341  10.787  25.976   3.936
57124W        W25342  11.878   6.972   4.437
57125W        W25343  31.960  35.687   3.196
57126W        W25344   9.783  18.003  12.435
57127W        W25345  18.499   3.210   2.344
57128W        W25346  35.307  35.633  11.084
57129W        W25347  20.113  28.666   2.259
57130W        W25348  30.300   3.307   4.118
57131W        W25349  30.749  20.473   3.001
57132W        W25350  18.608   7.768   4.084
57133W        W25351   3.537   7.785  10.548
57134W        W25352  18.891  42.372  14.615
57135W        W25353   7.379   2.436  11.172
57136W        W25354  21.506   0.488  14.925
57137W        W25355  29.968   5.189  11.608
57138W        W25356   7.427  30.185   3.876
57139W        W25357  38.105   3.839  12.107
57140W        W25358   8.315  12.914   1.908
57141W        W25359  24.910  35.863   2.374
57142W        W25360  41.289  10.937  14.422
57143W        W25361  32.299   5.777  12.330
57144W        W25362  21.330   0.916   3.710
57145W        W25363  33.374  44.394   3.121
57146W        W25364   8.896   3.660  14.473
57147W        W25365   5.065   4.226  13.531
57148W        W25366   5.414  25.974  11.463
57149W        W25367  32.142  34.801   3.627
57150W        W25368  16.199  31.987  13.518
57151W        W25369  29.977  20.758   3.075
57152W        W25370  40.350  22.036  12.651
57153W        W25371   8.267   9.289  10.726
57154W        W25372  44.551  19.542   0.415
57155W        W25373  26.091  35.476   2.469
57156W        W25374  32.703  35.807  14.620
57157W        W25375  42.842  32.169  11.446
57158W        W25376  44.323  27.618   0.026
57159W        W25377  34.001  38.945   4.593
57160W        W25378  23.952   4.571  12.613
57161W        W25379  10.795  19.793   1.460
57162W        W25380  30.007   9.361   0.410
57163W        W25381  20.126  40.942  11.128
57164W        W25382  25.975   2.281  12.468
57165W        W25383   4.861  27.035  10.675
57166W        W25384  32.148   2.096   3.706
57167W        W25385  24.606   5.626   2.354
57168W        W25386   5.108   9.075   2.843
57169W        W25387   8.383  32.982   1.374
57170W        W25388   7.349  37.818   2.181
57171W        W25389  14.368  26.033  11.230
57172W        W25390  22.561   9.570   4.542
57173W        W25391  16.163   9.685   4.197
57174W        W25392  39.500  26.067   0.316
57175W        W25393  31.774  41.025   1.344
57176W        W25394  34.572  15.773  11.180
57177W        W25395  37.848   8.863  11.908
57178W        W25396  31.644  43.923  12.572
57179W        W25397  39.070  10.933   0.046
57180W        W25398  42.831  34.382  12.679
57181W        W25399  39.916  18.096  12.856
57182W        W25400   5.162  12.943  13.530
57183W        W25401  35.807   4.804  14.325
57184W        W25402   0.831  16.533  10.209
57185W        W25403  36.335  25.963  10.715
57186W        W25404   3.682  19.107  14.850
57187W        W25405  14.261  23.785   3.808
57188W        W25406   5.696  28.045   1.227
57189W        W25407  15.554  14.263   4.971
57190W        W25408   0.109  25.999   2.533
57191W        W25409   2.216  38.846  14.483
57192W        W25410  19.371  10.259   0.759
57193W        W25411  22.224  41.274  12.682
57194W        W25412  26.684  32.819  14.317
57195W        W25413  13.782   9.673  14.322
57196W        W25414  43.762  32.852  14.808
57197W        W25415  17.090  15.327   2.335
57198W        W25416   3.768   5.631   1.843
57199W        W25417  37.047   4.779  13.394
57200W        W25418  33.357  43.659  12.861
57201W        W25419   6.907  20.377  14.740
57202W        W25420  27.923  34.129  14.477
57203W        W25421  20.807  32.423  10.322
57204W        W25422  35.107   4.793   4.372
57205W        W25423   9.020  26.898   3.290
57206W        W25424  43.709  16.207  12.739
57207W        W25425  35.130   5.603   0.354
57208W        W25426  23.938  38.162   2.939
57209W        W25427  41.292   2.900   9.884
57210W        W25428  28.079  15.576   0.837
57211W        W25429   8.486  40.402   0.243
57212W        W25430  21.300  28.117  10.761
57213W        W25431  40.808   1.929  14.992
57214W        W25432  26.960   2.253  13.465
57215W        W25433  36.168   1.351   3.716
57216W        W25434   5.693  26.394   4.498
57217W        W25435  17.681   4.901   0.042
57218W        W25436  20.690   9.762   0.866
57219W        W25437  32.703  33.675   0.741
57220W        W25438  39.106  30.547  11.506
57221W        W25439  18.204  33.869  14.892
57222W        W25440  19.131  18.336   3.119
57223W        W25441  15.089  18.431  13.410
57224W        W25442   6.839  23.040  14.426
57225W        W25443  42.979  19.159  13.505
57226W        W25444  40.271  11.832  12.488
57227W        W25445  24.995  24.802  13.268
57228W        W25446  32.914  25.906   5.457
57229W        W25447   3.969   9.961   0.326
57230W        W25448  17.752  14.623   4.164
57231W        W25449  41.988  25.982   4.634
57232W        W25450   6.665  14.749  11.661
57233W        W25451  27.572  29.833  14.828
57234W        W25452  13.820  25.274  12.911
57235W        W25453   1.465   5.716   4.866
57236W        W25454   6.477   4.734  13.371
57237W        W25455  25.072  11.049   0.194
57238W        W25456  14.255  19.110  13.575
57239W        W25457  35.341  17.848  12.523
57240W        W25458   5.640  29.744  11.859
57241W        W25459  33.508  12.136  13.948
57242W        W25460  31.048  17.092   2.385
57243W        W25461  11.605   3.215   0.836
57244W        W25462  29.978   0.867   0.879
57245W        W25463  20.455   5.031   4.243
57246W        W25464  35.331   4.808   0.667
57247W        W25465  36.100  25.902  13.885
57248W        W25466  44.639  26.376  14.495
57249W        W25467  27.483  40.507   0.897
57250W        W25468  21.080  33.809  11.089
57251W        W25469  23.154   7.829   0.693
57252W        W25470   8.279   4.689   3.879
57253W        W25471  38.338  29.929  10.752
57254W        W25472   8.760   4.843  14.500
57255W        W25473  27.482  14.110  12.006
57256W        W25474   8.237  22.729   4.799
57257W        W25475  12.684  27.004   1.987
57258W        W25476  39.758  11.098  11.608
57259W        W25477   6.763  27.169   3.508
57260W        W25478  32.125  27.745   3.361
57261W        W25479   2.861  32.092  10.819
57262W        W25480   1.704  29.836  12.990
57263W        W25481  11.186  43.947  14.303
57264W        W25482  29.408  17.024   1.734
57265W        W25483  20.311  34.200  11.184
57266W        W25484  16.600  12.380  11.022
57267W        W25485  36.936  43.876   0.034
57268W        W25486   4.693  39.570   0.409
57269W        W25487  26.358  40.455   0.750
57270W        W25488   5.211  11.471  13.815
57271W        W25489  26.068  23.741   3.374
57272W        W25490  31.731  27.581   1.984
57273W        W25491  43.083   0.422   2.867
57274W        W25492   3.276  33.094  13.578
57275W        W25493  34.018   2.778  13.500
57276W        W25494  11.780  26.651  13.866
57277W        W25495  17.827   3.416  11.423
57278W        W25496  19.218  12.679   3.234
57279W        W25497  39.449  15.795   0.923
57280W        W25498  26.344   0.936   3.372
57281W        W25499   2.238  39.085  13.936
57282W        W25500   2.942  24.162   1.239
57283W        W25501  39.214  14.116  11.473
57284W        W25502  23.912   2.815   0.495
57285W        W25503  33.077  15.171   3.210
57286W        W25504  20.390  23.756  11.167
57287W        W25505  16.408  17.869  11.468
57288W        W25506   1.482  31.427  11.704
57289W        W25507  23.002   0.224   0.811
57290W        W25508  31.360  21.442   4.800
57291W        W25509  36.980   7.453   0.918
57292W        W25510  10.264  40.504  14.336
57293W        W25511  18.034  11.412   3.325
57294W        W25512   0.335   9.212   4.059
57295W        W25513   5.805  12.706   1.845
57296W        W25514  31.990  10.144   4.497
57297W        W25515  36.831   1.462   3.333
57298W        W25516  10.773  39.745  13.443
57299W        W25517  29.768  19.522  11.988
57300W        W25518  37.020  35.119   0.101
57301W        W25519  33.884   0.038   3.697
57302W        W25520   1.352  35.678  12.984
57303W        W25521  21.200  41.981   3.306
57304W        W25522  38.638  15.794  11.860
57305W        W25523  35.953   8.602   3.156
57306W        W25524  21.597  11.162   2.600
57307W        W25525  33.895  34.423   2.184
57308W        W25526   0.850  30.148   2.488
57309W        W25527  24.452  21.032  12.110
57310W        W25528  15.418  22.094  13.525
57311W        W25529  11.896  21.973   2.285
57312W        W25530  22.891  19.011  11.723
57313W        W25531  39.300   2.718  14.913
57314W        W25532  43.724  41.443   1.945
57315W        W25533  39.302  10.961   1.740
57316W        W25534  19.642  40.526  13.894
57317W        W25535  17.827  22.281  13.510
57318W        W25536  25.185  37.081  11.493
57319W        W25537  18.901  40.970  10.581
57320W        W25538  34.118  42.492   0.756
57321W        W25539   7.408  29.809   2.898
57322W        W25540   3.658  32.594   0.416
57323W        W25541   2.537  29.960  10.760
57324W        W25542  14.281  31.051  10.874
57325W        W25543  26.825  43.068  13.455
57326W        W25544  30.098   4.636   2.910
57327W        W25545  39.985  35.331  12.449
57328W        W25546   7.846  26.940   1.804
57329W        W25547  30.235  24.000   2.408
57330W        W25548   0.355  12.527  13.398
57331W        W25549  25.764  38.804  13.503
57332W        W25550  14.931   4.303   1.252
57333W        W25551  24.529  25.320  14.442
57334W        W25552  28.084  39.080   0.992
57335W        W25553  39.217  13.550   3.687
57336W        W25554  29.359  27.035  12.912
57337W        W25555  42.016   2.444   3.684
57338W        W25556  18.178  25.485   0.802
57339W        W25557  20.974  10.127  11.087
57340W        W25558  33.491  34.599  11.131
57341W        W25559  26.738   8.571  11.147
57342W        W25560  38.628   4.320  11.519
57343W        W25561  17.363  39.776  11.497
57344W        W25562  31.477   8.165   1.363
57345W        W25563   7.922  30.929  12.595
57346W        W25564  13.545  33.538   4.531
57347W        W25565  15.145  43.053  12.113
57348W        W25566  19.691  36.650  11.625
57349W        W25567  25.660  17.357  12.515
57350W        W25568  41.611  26.988  11.214
57351W        W25569  26.115  10.726  14.843
57352W        W25570  35.652  14.950  14.820
57353W        W25571   1.444  25.985   4.149
57354W        W25572  33.600   3.295   4.074
57355W        W25573  34.098  14.280   2.184
57356W        W25574  27.129  41.019  10.731
57357W        W25575  13.082   8.167   4.128
57358W        W25576  14.908  11.262   2.152
57359W        W25577  41.901   9.849  12.476
57360W        W25578  12.049   1.865   1.181
57361W        W25579  42.501  13.754   3.034
57362W        W25580  11.232  16.232  11.388
57363W        W25581  39.970  42.246   2.722
57364W        W25582  40.346  14.657   3.744
57365W        W25583  25.245   1.825  10.908
57366W        W25584  23.104   8.481  11.524
57367W        W25585  19.867   1.736   2.163
57368W        W25586   5.178  30.912   2.804
57369W        W25587  42.790  39.391  14.153
57370W        W25588  14.569  27.119   3.278
57371W        W25589   5.796  35.946  10.470
57372W        W25590  27.636  28.439   0.036
57373W        W25591   0.639  43.103   0.753
57374W        W25592  35.365  36.278   2.898
57375W        W25593  14.673  20.738  12.117
57376W        W25594  11.580  11.067   3.477
57377W        W25595  27.689  32.957   4.517
57378W        W25596   4.431  20.579   1.301
57379W        W25597  40.374  16.588  14.405
57380W        W25598  36.928  26.970   0.816
57381W        W25599  33.474  26.671  10.484
57382W        W25600   6.266  27.503  14.782
57383W        W25601  11.417  17.546  12.067
57384W        W25602   8.388   8.638   0.970
57385W        W25603   0.634  14.205  12.129
57386W        W25604  37.054  33.143   2.057
57387W        W25605  17.071  19.773   0.317
57388W        W25606  39.042   8.422  12.774
57389W        W25607  43.552  11.752   3.712
57390W        W25608  41.784   9.149   3.708
57391W        W25609  32.035  19.582  12.070
57392W        W25610  13.854  39.439  11.023
57393W        W25611  38.618   0.251   1.739
57394W        W25612  28.694  16.400   2.790
57395W        W25613  23.646  24.012  13.300
57396W        W25614  15.735  22.012  14.899
57397W        W25615  21.562  19.082  12.490
57398W        W25616  28.846   4.433   3.179
57399W        W25617  11.575  31.143  14.351
57400W        W25618   4.877   7.333   1.902
57401W        W25619   4.619  41.426   0.344
57402W        W25620  13.277  38.154  12.664
57403W        W25621  19.790  32.561  14.599
57404W        W25622   2.149  28.453   3.716
57405W        W25623  36.194  21.013   5.114
57406W        W25624  33.598  21.633  13.843
57407W        W25625  35.753  19.081  13.791
57408W        W25626  27.223  20.978   5.430
57409W        W25627  35.435  14.858   1.820
57410W        W25628   2.785  33.711   1.426
57411W        W25629  22.978  41.929   2.876
57412W        W25630   2.295  28.067   0.893
57413W        W25631  33.410  30.440   0.733
57414W        W25632   8.972  36.397  11.616
57415W        W25633  34.390  43.800  14.316
57416W        W25634  10.693  13.663  13.806
57417W        W25635  37.313  34.524   2.255
57418W        W25636   5.057  17.150  10.733
57419W        W25637  19.639  17.328  13.079
57420W        W25638  35.368  27.232   1.788
57421W        W25639   4.456  16.567  11.246
57422W        W25640  14.519  33.850   1.375
57423W        W25641  44.894  25.456   4.460
57424W        W25642   1.875  27.369  14.521
57425W        W25643  43.702  20.446  14.380
57426W        W25644  22.419  26.213  11.098
57427W        W25645   6.806  43.495   2.326
57428W        W25646  10.136  17.807  10.730
57429W        W25647  20.149  27.583   3.371
57430W        W25648  16.319   3.670  12.422
57431W        W25649   6.642  20.658  11.539
57432W        W25650  25.233  15.973   4.677
57433W        W25651  14.220   5.761   2.113
57434W        W25652  40.526  38.799  13.451
57435W        W25653   7.450   5.780   1.439
57436W        W25654  27.605  36.767   4.114
57437W        W25655  36.809  28.896  11.638
57438W        W25656  17.125  15.040   1.440
57439W        W25657  16.806  38.284  14.794
57440W        W25658  19.089  40.880   0.899
57441W        W25659  40.093   6.287   1.301
57442W        W25660  17.844  35.661  13.801
57443W        W25661  18.050   2.843   1.931
57444W        W25662  43.261  38.341   0.349
57445W        W25663  39.836  20.492   3.475
57446W        W25664  22.829  24.150   1.221
57447W        W25665  19.041   9.354  14.342
57448W        W25666  40.343  21.942  12.169
57449W        W25667  40.807  14.699   0.441
57450W        W25668  17.132  19.593   3.373
57451W        W25669  42.354  42.756   2.694
57452W        W25670  23.619  15.485   4.223
57453W        W25671   7.462  32.201  11.615
57454W        W25672  16.053  38.425   0.314
57455W        W25673  42.286  17.113  14.436
57456W        W25674  10.240   9.835   3.319
57457W        W25675  21.000  32.251   0.929
57458W        W25676  32.537  35.963  12.230
57459W        W25677  41.946   5.892   2.296
57460W        W25678  15.256  21.752  14.939
57461W        W25679   2.522   9.835  14.371
57462W        W25680  13.173  34.682   3.149
57463W        W25681  32.490  15.259   1.158
57464W        W25682  11.110   2.782  13.495
57465W        W25683  21.675   5.896   3.830
57466W        W25684  28.207  13.286   0.525
57467W        W25685  41.300  40.031  11.398
57468W        W25686  41.037  40.090  10.603
57469W        W25687  44.680  25.078   0.897
57470W        W25688  14.356  39.417   2.694
57471W        W25689  24.392   9.747  12.035
57472W        W25690  14.776  26.419  14.862
57473W        W25691  42.539  13.068  12.431
57474W        W25692  22.603  24.956  14.368
57475W        W25693  23.230  32.095   3.552
57476W        W25694  39.951  19.557  12.029
57477W        W25695   3.392   8.182  11.535
57478W        W25696  19.683  23.949   2.088
57479W        W25697  23.291  30.659   0.490
57480W        W25698  40.422   8.068   3.168
57481W        W25699  11.584   5.305   2.944
57482W        W25700  13.381  43.981  12.070
57483W        W25701   3.338  24.234  14.286
57484W        W25702  14.801   1.921  10.839
57485W        W25703  20.005   3.267   3.100
57486W        W25704  39.067  25.645  10.630
57487W        W25705  18.929  22.278  13.781
57488W        W25706  35.823   6.914   0.189
57489W        W25707  10.485  18.375   4.764
57490W        W25708   0.459  28.930   4.179
57491W        W25709  24.168   2.610   3.537
57492W        W25710  17.779  18.707   0.916
57493W        W25711   0.819  25.864   0.778
57494W        W25712  37.560  12.241  10.714
57495W        W25713   8.621   5.522   4.231
57496W        W25714  31.926  21.180   1.274
57497W        W25715  44.728   5.248   0.296
57498W        W25716  10.625  18.568   0.888
57499W        W25717  20.086  22.979  11.643
57500W        W25718  31.442  43.963   4.819
57501W        W25719  24.231  42.897  10.879
57502W        W25720  44.738  11.709   1.868
57503W        W25721  39.101  20.804   4.135
57504W        W25722  16.828   5.033  11.032
57505W        W25723  14.273  41.846  12.002
57506W        W25724  19.308  39.932   1.721
57507W        W25725  43.823  39.074   0.521
57508W        W25726  36.577  37.487   3.447
57509W        W25727   7.230  31.949  12.081
57510W        W25728  15.300  10.308   0.288
57511W        W25729  22.474  44.024  13.066
57512W        W25730  17.677  27.932   1.761
57513W        W25731  38.418  29.722   2.615
57514W        W25732  42.384  28.451  13.566
57515W        W25733  23.109  34.000   1.219
57516W        W25734   3.879   4.256   4.934
57517W        W25735  20.586  42.538  12.531
57518W        W25736  32.899  18.197   0.318
57519W        W25737   5.251   5.485  12.001
57520W        W25738  37.660  33.076  12.579
57521W        W25739  19.687  11.920   3.542
57522W        W25740  19.517  28.628  12.670
57523W        W25741  36.806  27.051  13.413
57524W        W25742  16.631   2.939   1.465
57525W        W25743   6.682  40.249  14.813
57526W        W25744  40.785  27.539  12.086
57527W        W25745  30.136  34.925  12.411
57528W        W25746  24.453  27.726   4.090
57529W        W25747   2.709   9.944  12.011
57530W        W25748  37.829   9.600   3.254
57531W        W25749  44.415   7.182   0.386
57532W        W25750  32.100  14.532  11.999
57533W        W25751  13.303  27.472  12.926
57534W        W25752   3.640   5.174  11.976
57535W        W25753  38.890  19.609   0.785
57536W        W25754   9.130  27.224  13.484
57537W        W25755  29.883  39.914   1.038
57538W        W25756  38.718  44.024   1.720
57539W        W25757  30.559  12.730   0.227
57540W        W25758   5.885  17.037   5.000
57541W        W25759  41.341  43.954   4.151
57542W        W25760  28.485  38.615   4.161
57543W        W25761  11.763  12.140  11.603
57544W        W25762   4.402  42.076   3.778
57545W        W25763  36.793  29.928  12.050
57546W        W25764   2.786  28.995   3.696
57547W        W25765  15.975  20.489   4.291
57548W        W25766  34.925  18.552  14.725
57549W        W25767  35.004  15.106   3.208
57550W        W25768  40.841  36.418  12.456
57551W        W25769  33.568  38.016   4.372
57552W        W25770   6.565   1.186   0.855
57553W        W25771  37.430  26.716   0.005
57554W        W25772  16.065  22.818  11.498
57555W        W25773  32.464  26.958   3.603
57556W        W25774   8.421  41.752   0.412
57557W        W25775  24.583   3.617   0.892
57558W        W25776  19.101  13.795   1.356
57559W        W25777   0.120   9.715   0.777
57560W        W25778  39.058  16.760  10.990
57561W        W25779   3.710  15.504  13.809
57562W        W25780  32.786   7.006  13.300
57563W        W25781   3.956  32.543   1.319
57564W        W25782  26.367  19.682   0.956
57565W        W25783  38.930   5.771  13.494
57566W        W25784  44.868   9.129   0.783
57567W        W25785  16.803  36.622   2.666
57568W        W25786   4.219  19.178  14.905
57569W        W25787  35.867  30.547   1.069
57570W        W25788   2.483   6.951   0.423
57571W        W25789  41.320   4.200   3.631
57572W        W25790   3.359  31.173   2.221
57573W        W25791  44.128  20.768   4.127
57574W        W25792  26.093   6.793  14.354
57575W        W25793  22.741   5.823   4.587
57576W        W25794  30.664  19.302  11.167
57577W        W25795  23.446  43.193  12.632
57578W        W25796   0.254  21.351   2.266
57579W        W25797  20.749  13.833  12.883
57580W        W25798  39.683  14.267  11.358
57581W        W25799  10.287  14.313   3.327
57582W        W25800  39.133  35.383   4.185
57583W        W25801  41.413  17.157  12.893
57584W        W25802  15.830  39.316  10.727
57585W        W25803  34.868  33.659   4.293
57586W        W25804   8.700  30.582  13.315
57587W        W25805  22.069   7.376   2.284
57588W        W25806  14.623   1.211  11.195
57589W        W25807   5.653  17.706   3.762
57590W        W25808  30.837  44.686  13.654
57591W        W25809  10.793  26.946   2.910
57592W        W25810   1.902  23.481  12.066
57593W        W25811  32.471  13.626   2.811
57594W        W25812  35.093   6.308  13.356
57595W        W25813   8.024   3.358   4.168
57596W        W25814  33.636  33.563   1.852
57597W        W25815  40.418  30.106   3.674
57598W        W25816  20.652   5.332  14.482
57599W        W25817  25.077  19.250   2.811
57600W        W25818  37.352  13.216   3.223
57601W        W25819  18.666  32.420   2.638
57602W        W25820  22.229  42.759   2.701
57603W        W25821  32.907  31.880   0.968
57604W        W25822   9.263   1.240   4.521
57605W        W25823  42.346  21.682  10.961
57606W        W25824  10.912  41.307  12.429
57607W        W25825  21.854  10.143   3.667
57608W        W25826  20.865   8.831   5.054
57609W        W25827  11.624  37.578   0.278
57610W        W25828  44.909   0.745   4.406
57611W        W25829   0.512  44.893  14.574
57612W        W25830  36.346  18.060  12.470
57613W        W25831  34.800  41.410   1.401
57614W        W25832   4.103  12.456  13.184
57615W        W25833  15.623  20.151  14.951
57616W        W25834  26.591  15.607  14.777
57617W        W25835  12.353  18.245   0.036
57618W        W25836  15.270  44.958  14.944
57619W        W25837  14.764  22.931  11.610
57620W        W25838  37.886  13.637   2.408
57621W        W25839  21.136  32.613  14.698
57622W        W25840  27.987  11.996   4.407
57623W        W25841  26.957  19.096   1.412
57624W        W25842  39.841  20.923  12.028
57625W        W25843   5.793   5.223  14.527
57626W        W25844  15.267  13.865  13.015
57627W        W25845  15.551   7.304   2.892
57628W        W25846  43.702  21.253   1.283
57629W        W25847  24.300  12.847  10.716
57630W        W25848  22.667   3.898  10.317
57631W        W25849   3.198  15.397  10.698
57632W        W25850  42.865  18.761  13.120
57633W        W25851  33.440  17.080   4.799
57634W        W25852  19.797  17.332  12.070
57635W        W25853  11.379  17.656  13.075
57636W        W25854  25.009  24.697  13.779
57637W        W25855  15.345  11.837   0.623
57638W        W25856   5.236  17.883   2.831
57639W        W25857  19.162  34.922  11.478
57640W        W25858  28.973   1.442   1.634
57641W        W25859  21.142  11.217   3.914
57642W        W25860   6.719  20.649  14.294
57643W        W25861   6.351   9.440   0.388
57644W        W25862  28.945  11.330  11.545
57645W        W25863   6.124   2.118  11.451
57646W        W25864  10.436   6.218   1.426
57647W        W25865   5.020  13.652   1.202
57648W        W25866  32.925  38.998   1.851
57649W        W25867  16.623  34.417   4.553
57650W        W25868  33.419  26.281   0.876
57651W        W25869  28.957  32.973  11.439
57652W        W25870  39.045  29.013  13.552
57653W        W25871  25.530  22.722   3.690
57654W        W25872   2.194  36.901   2.150
57655W        W25873  26.950  36.487   1.655
57656W        W25874  42.250  22.285  12.653
57657W        W25875   3.564  18.603  12.952
57658W        W25876   6.700   4.416  11.959
57659W        W25877  42.829  31.451   1.381
57660W        W25878  11.915   6.637   2.838
57661W        W25879  12.626  17.353   0.806
57662W        W25880  24.420  34.512  14.861
57663W        W25881  39.978  16.247  10.782
57664W        W25882  16.611  12.083   1.700
57665W        W25883  37.350   2.924   1.410
57666W        W25884   0.194  42.910   2.328
57667W        W25885  32.407  28.369  12.294
57668W        W25886  31.474  21.045   0.345
57669W        W25887   5.807  31.970  11.983
57670W        W25888  44.622   9.600   0.723
57671W        W25889  44.886  32.602   4.665
57672W        W25890  44.357  12.247  12.665
57673W        W25891  27.497  15.625   0.239
57674W        W25892  26.454  44.377  13.859
57675W        W25893  25.066   2.830  10.684
57676W        W25894   7.013  34.060  11.936
57677W        W25895   3.907  28.466   1.475
57678W        W25896  30.831   3.003  13.951
57679W        W25897   9.743   7.673   2.672
57680W        W25898  22.688  15.695   0.244
57681W        W25899  44.849  42.187   3.286
57682W        W25900  37.371   1.516   1.273
57683W        W25901  24.976  22.629  14.329
57684W        W25902  19.519  16.305   4.734
57685W        W25903  37.769  14.156   0.737
57686W        W25904  32.424  24.818  12.024
57687W        W25905  39.990   3.870  11.496
57688W        W25906  30.911  39.462   4.760
57689W        W25907  10.854   0.777   0.687
57690W        W25908   0.018   0.435  13.125
57691W        W25909  21.942  41.236  11.193
57692W        W25910  34.875  11.773  13.978
57693W        W25911   9.705  21.994   0.781
57694W        W25912  25.185  25.183   0.463
57695W        W25913   2.984  34.025  10.648
57696W        W25914  27.049  33.138   3.114
57697W        W25915  17.057  41.424   4.604
57698W        W25916  28.064  30.645  14.279
57699W        W25917  24.287  19.842   3.852
57700W        W25918   9.881   7.865  11.921
57701W        W25919   7.605  40.580   1.824
57702W        W25920  37.525  13.596   0.771
57703W        W25921  29.909  25.059  14.057
57704W        W25922  33.052   1.754  10.163
57705W        W25923  29.935  22.966   4.309
57706W        W25924  24.962  21.700  12.618
57707W        W25925   0.578  23.057   1.754
57708W        W25926  33.206  37.010   2.167
57709W        W25927  44.596  30.387  11.590
57710W        W25928  13.784   4.841   4.505
57711W        W25929   3.274  14.716   4.096
57712W        W25930  39.922  24.819  13.524
57713W        W25931  15.163   4.215   2.941
57714W        W25932   8.440   2.493   2.687
57715W        W25933  44.225  21.042   2.682
57716W        W25934   8.133   5.398   1.776
57717W        W25935  42.593  19.585   2.304
57718W        W25936  11.299  34.104  12.397
57719W        W25937   5.874  25.407   3.723
57720W        W25938  18.199  19.055   4.473
57721W        W25939  14.636   0.981   0.903
57722W        W25940   5.780   4.269   1.468
57723W        W25941  42.960  36.318  13.384
57724W        W25942  36.490  32.786   1.751
57725W        W25943  16.329  25.297  11.117
57726W        W25944  18.433   6.425  10.695
57727W        W25945  11.889  37.591   1.421
57728W        W25946  41.011  35.992  10.631
57729W        W25947   0.567  12.183   3.136
57730W        W25948  44.934  28.604  11.110
57731W        W25949  27.483  30.618   3.318
57732W        W25950  31.524  38.047  12.533
57733W        W25951  33.601   1.792  11.285
57734W        W25952  30.599   7.938  11.085
57735W        W25953   4.357  18.359   3.600
57736W        W25954  22.725  24.691   1.863
57737W        W25955  32.961  16.867  12.524
57738W        W25956  35.659  13.007   3.578
57739W        W25957  21.497  24.073  11.125
57740W        W25958   9.266  32.507  11.026
57741W        W25959  29.193  10.367  13.079
57742W        W25960   9.572  24.914   0.255
57743W        W25961  16.051   4.782   1.734
57744W        W25962  24.433  16.733  13.547
57745W        W25963   4.280  44.201   2.598
57746W        W25964  25.113  14.608   3.823
57747W        W25965  40.873  33.232  13.041
57748W        W25966  32.457  42.352   0.896
57749W        W25967  24.155  15.171   3.305
57750W        W25968   2.454  24.372   1.138
57751W        W25969   3.480   8.813   2.438
57752W        W25970  22.725   3.798  14.033
57753W        W25971  17.592  15.258  12.522
57754W        W25972  40.753  21.269  12.817
57755W        W25973  20.693  33.656  14.805
57756W        W25974  43.916  31.371   4.020
57757W        W25975  38.414   5.241  14.739
57758W        W25976  18.307   4.311  12.073
57759W        W25977  13.064  42.269  11.585
57760W        W25978  11.113  29.178  12.403
57761W        W25979   9.628  26.208   1.292
57762W        W25980  15.122  23.090  13.533
57763W        W25981   8.153  36.905   1.729
57764W        W25982  44.668  23.278  11.184
57765W        W25983  24.952   0.966  14.339
57766W        W25984   7.270   8.255   3.600
57767W        W25985  44.526  13.147  14.912
57768W        W25986  17.703   0.040  13.106
57769W        W25987  31.383  18.780   2.859
57770W        W25988  42.488  12.995  10.557
57771W        W25989  29.121  33.423   4.198
57772W        W25990  21.424   8.483  13.853
57773W        W25991   7.689   6.473  14.932
57774W        W25992  39.634   1.346  11.496
57775W        W25993  13.558  15.114   2.252
57776W        W25994   2.002  17.564  14.353
57777W        W25995  33.497   7.965   5.045
57778W        W25996  11.844  34.475   2.785
57779W        W25997  30.661  32.019   4.313
57780W        W25998   4.842  44.871  12.345
57781W        W25999  27.195  28.956  12.887
57782W        W26000  42.056   0.014   0.435
57783W        W26001  26.498  34.094   1.267
57784W        W26002  29.044  39.706  12.543
57785W        W26003   7.315  17.043  14.964
57786W        W26004  38.952  35.427   3.206
57787W        W26005  34.466   2.814   3.073
57788W        W26006  28.511  44.823   3.717
57789W        W26007   3.254  34.565  14.921
57790W        W26008  32.930   7.145  12.445
57791W        W26009  29.116   4.833   1.362
57792W        W26010  21.853  17.700   3.274
57793W        W26011  23.955  32.109   4.608
57794W        W26012  11.263   1.865   1.668
57795W        W26013  22.008  17.020  11.027
57796W        W26014  44.924  35.127  14.391
57797W        W26015  32.501  15.891  10.306
57798W        W26016  31.507   9.181  10.632
57799W        W26017   7.026  35.219   4.324
57800W        W26018  38.153  38.899  14.486
57801W        W26019   3.939  32.039   2.943
57802W        W26020  41.884  35.969  14.282
57803W        W26021   6.438  43.502   0.458
57804W        W26022   7.746  24.087  10.947
57805W        W26023  28.371  42.727   0.003
57806W        W26024   4.188   6.722   1.457
57807W        W26025  15.200  19.235  13.104
57808W        W26026  31.421   4.663   3.235
57809W        W26027  43.770  18.783  13.075
57810W        W26028  24.679  18.554   1.246
57811W        W26029  42.348  43.593   0.486
57812W        W26030  25.116  15.145   3.950
57813W        W26031  12.638  35.210   4.593
57814W        W26032  25.170  38.104  13.457
57815W        W26033  25.636   7.747  11.499
57816W        W26034  10.304  17.329  12.390
57817W        W26035  18.307   9.142   2.800
57818W        W26036  24.682  33.844   3.894
57819W        W26037  15.851   6.806   4.999
57820W        W26038  11.752  41.133   3.838
57821W        W26039  44.426   2.664   2.679
57822W        W26040  15.166   1.470   4.236
57823W        W26041  36.770   9.889   1.667
57824W        W26042   6.783   9.123  14.019
57825W        W26043  19.077  14.344  11.641
57826W        W26044  29.448  28.538  14.109
57827W        W26045   7.355  36.860  11.060
57828W        W26046  27.555  26.127  14.791
57829W        W26047  36.390  26.259   3.161
57830W        W26048  28.667  32.800   2.265
57831W        W26049  40.626  41.879  12.002
57832W        W26050  19.696  23.694   3.394
57833W        W26051  27.096  19.108   0.899
57834W        W26052  11.292  28.461  13.876
57835W        W26053  15.444  11.418   0.896
57836W        W26054  14.842  15.801  10.219
57837W        W26055   8.328  26.559  11.403
57838W        W26056   3.148  11.121   2.719
57839W        W26057  18.874   6.943   4.264
57840W        W26058  36.329   7.532   4.713
57841W        W26059  44.709  14.768  13.368
57842W        W26060  18.179  22.529   4.151
57843W        W26061  27.831   0.543  14.930
57844W        W26062  26.038   3.295  12.124
57845W        W26063  17.987  40.004  14.241
57846W        W26064  41.033  28.587   0.715
57847W        W26065  19.314  23.096  11.920
57848W        W26066   9.745   6.611   2.742
57849W        W26067   2.250  28.772   0.314
57850W        W26068  35.428  39.666   2.744
57851W        W26069  13.759  24.220   3.194
57852W        W26070  18.272  23.246   0.957
57853W        W26071  40.644  33.591   1.482
57854W        W26072  41.051  27.077  13.873
57855W        W26073   0.299  42.794   3.234
57856W        W26074   2.347  42.752  11.135
57857W        W26075  37.448  15.330  12.390
57858W        W26076  34.091  22.529   0.320
57859W        W26077   7.669  44.365  10.738
57860W        W26078  13.811  27.094   3.945
57861W        W26079  31.488   7.284   0.958
57862W        W26080  38.071  26.109   4.212
57863W        W26081  32.434  15.867   1.912
57864W        W26082  44.605   0.093   0.343
57865W        W26083  42.367  18.650   4.085
57866W        W26084  34.540  28.266  12.885
57867W        W26085  41.075  18.513   4.114
57868W        W26086  12.234   5.853   1.498
57869W        W26087   7.799  44.647   0.276
57870W        W26088  39.466   6.638  13.987
57871W        W26089  39.791  14.498   2.391
57872W        W26090  22.077   9.646  14.673
57873W        W26091  39.150  31.265   4.875
57874W        W26092  12.467  32.589  14.772
57875W        W26093  15.648  28.552   4.523
57876W        W26094   4.254  20.674   0.771
57877W        W26095  25.766  19.064  11.110
57878W        W26096  11.306   8.131   3.427
57879W        W26097  40.998  32.391  11.588
57880W        W26098  22.056  41.673   1.131
57881W        W26099  20.410  10.115   2.674
57882W        W26100  31.640  36.026  10.419
57883W        W26101  15.750  24.099  10.814
57884W        W26102  27.437   8.126  11.590
57885W        W26103  19.262   8.863  12.457
57886W        W26104  32.311   3.310  14.378
57887W        W26105  31.445  35.453  12.937
57888W        W26106   2.446  22.620   4.746
57889W        W26107  34.375  44.914  12.456
57890W        W26108   2.434  31.899  13.983
57891W        W26109   7.331  43.904  14.439
57892W        W26110  39.763  28.629  11.540
57893W        W26111  15.252  22.138   0.302
57894W        W26112   2.540  10.253  13.992
57895W        W26113  14.379  25.252  12.387
57896W        W26114  39.896  32.862  13.000
57897W        W26115   1.878  34.885   0.375
57898W        W26116  13.894   3.313   3.012
57899W        W26117  33.502  19.577  12.886
57900W        W26118  25.021  27.431  13.006
57901W        W26119  34.327  38.166  10.698
57902W        W26120  17.829  16.991  14.318
57903W        W26121  23.146  42.787  12.972
57904W        W26122  22.989  27.641  13.802
57905W        W26123  40.315  39.808   1.862
57906W        W26124  31.409  36.806  14.282
57907W        W26125  19.612  19.770  13.631
57908W        W26126  41.552  14.181   4.231
57909W        W26127  25.633   1.685   4.167
57910W        W26128  40.519  41.446   2.742
57911W        W26129  37.677  41.952  13.936
57912W        W26130  32.379   6.782  11.571
57913W        W26131  14.418   4.985  11.237
57914W        W26132  23.324  30.429  14.320
57915W        W26133  27.595  37.639   4.623
57916W        W26134  40.367  27.080   1.845
57917W        W26135  31.040  10.366  14.801
57918W        W26136  41.876  24.536  14.264
57919W        W26137  16.052  42.462  14.410
57920W        W26138  28.075  19.016  14.349
57921W        W26139   1.385  15.042  13.568
57922W        W26140   0.369  27.745   0.542
57923W        W26141  40.099  26.121  14.343
57924W        W26142   8.731  14.725  10.492
57925W        W26143  42.886  28.482  13.489
57926W        W26144  40.296  42.998   3.033
57927W        W26145  33.625   2.701   1.593
57928W        W26146  14.646  31.671  12.318
57929W        W26147  38.146  28.013   4.590
57930W        W26148  44.009  14.773  11.626
57931W        W26149  34.287  29.685  10.986
57932W        W26150   1.871  14.881  14.040
57933W        W26151  30.927   2.228   1.339
57934W        W26152   6.788  39.950  11.980
57935W        W26153   8.951  21.770  14.294
57936W        W26154  21.991  41.899   3.237
57937W        W26155  15.544  43.269  11.187
57938W        W26156  31.417  34.046  12.927
57939W        W26157  43.649  19.276  10.454
57940W        W26158  11.620  29.520  13.983
57941W        W26159   7.769  13.240  14.995
57942W        W26160   4.264  11.776  14.853
57943W        W26161  17.850  29.704   3.670
57944W        W26162  24.970  20.766   1.138
57945W        W26163  24.493   5.258   4.217
57946W        W26164   9.094  18.306   2.431
57947W        W26165   8.347  29.018  14.794
57948W        W26166   9.304  34.611   1.971
57949W        W26167  24.263  21.120   5.036
57950W        W26168  23.907  30.336   4.999
57951W        W26169   8.191  19.926   4.226
57952W        W26170  30.868  37.588   4.235
57953W        W26171  43.695  41.903   2.209
57954W        W26172  39.178  32.548  13.367
57955W        W26173  40.420  15.811   0.490
57956W        W26174  21.794  25.919   1.281
57957W        W26175  38.829   3.009  12.486
57958W        W26176  19.525  10.861  13.512
57959W        W26177  17.619  31.215  12.959
57960W        W26178  27.906   9.879   1.374
57961W        W26179  28.109   7.520  11.952
57962W        W26180  41.277  32.646   4.163
57963W        W26181  42.943  32.061  12.903
57964W        W26182  30.348  13.661   3.752
57965W        W26183  36.789  29.650  14.288
57966W        W26184  37.047  20.268  14.290
57967W        W26185  33.411  15.660   2.879
57968W        W26186   8.144   0.277  12.851
57969W        W26187  27.393  32.380  13.077
57970W        W26188  19.511  34.284  13.977
57971W        W26189   1.273  16.577   0.600
57972W        W26190   2.632  21.196  12.641
57973W        W26191  37.852  36.937  13.016
57974W        W26192  43.130   3.191  11.132
57975W        W26193  31.320   4.953  10.732
57976W        W26194  15.247  18.998   4.559
57977W        W26195  20.516  41.788  11.269
57978W        W26196   5.916  26.911   1.689
57979W        W26197  39.362  14.562   1.317
57980W        W26198  11.085  38.412   2.338
57981W        W26199  27.619   2.292  12.047
57982W        W26200  41.425  30.586   2.049
57983W        W26201   2.861  21.263  12.192
57984W        W26202   8.127  38.827  11.826
57985W        W26203  17.534  30.489   4.077
57986W        W26204  10.562  24.241   3.615
57987W        W26205  19.828  14.528  13.383
57988W        W26206  43.422  36.581  13.469
57989W        W26207  24.032   3.459   1.556
57990W        W26208   0.410  38.957   2.150
57991W        W26209  44.082   4.464   3.120
57992W        W26210  37.788  30.679  12.539
57993W        W26211  27.661  32.524  12.137
57994W        W26212  14.892  29.143   1.002
57995W        W26213  30.986  12.397   4.095
57996W        W26214  39.849  42.079  12.474
57997W        W26215  38.516  29.726   3.137
57998W        W26216  32.031  44.012  10.543
57999W        W26217  35.973  37.617  11.656
58000W        W26218  36.393  21.464   1.536
58001W        W26219   9.356  42.536   4.944
58002W        W26220  42.598  20.481   0.246
58003W        W26221  17.757  26.945   4.092
58004W        W26222  28.423  18.685  14.055
58005W        W26223   6.360  38.750   4.643
58006W        W26224  35.031  16.267   2.097
58007W        W26225  33.359  26.172  13.415
58008W        W26226   1.929  22.619   4.775
58009W        W26227  15.681  10.889   4.457
58010W        W26228  14.280   2.333   3.248
58011W        W26229  20.626   9.911  13.333
58012W        W26230  19.698  23.166   2.793
58013W        W26231   7.785  14.149   4.512
58014W        W26232  11.193  16.132  13.404
58015W        W26233  12.897  19.354  14.287
58016W        W26234  28.860  17.155   1.712
58017W        W26235  40.435   3.394   3.556
58018W        W26236  10.775   0.681  12.780
58019W        W26237   2.228   7.283   2.336
58020W        W26238  43.668  25.045  14.850
58021W        W26239  39.944  21.198  12.455
58022W        W26240  33.040  10.840   0.984
58023W        W26241   3.393   9.533  12.432
58024W        W26242  23.104  34.341   9.923
58025W        W26243  14.899  17.948  10.323
58026W        W26244  31.179  18.222  10.525
58027W        W26245  27.696  16.849   1.896
58028W        W26246   1.236   8.167   4.622
58029W        W26247  34.020  23.762   4.622
58030W        W26248  32.973  18.310   4.813
58031W        W26249  31.115   6.577  12.920
58032W        W26250   1.112  12.238   1.831
58033W        W26251  22.295   3.724  14.983
58034W        W26252   1.780   4.720  11.798
58035W        W26253  40.170  30.421  11.759
58036W        W26254  39.375  43.160  10.765
58037W        W26255   4.990  26.475  14.706
58038W        W26256  17.794  36.874  12.936
58039W        W26257  13.153   1.190  12.410
58040W        W26258   4.378  14.188  13.364
58041W        W26259  43.211  15.706  13.770
58042W        W26260  21.718   8.378   0.148
58043W        W26261   3.907  24.870   0.929
58044W        W26262  24.333  28.727   4.164
58045W        W26263  35.370  38.826   1.004
58046W        W26264  44.774  23.036   3.677
58047W        W26265  13.024  34.554  13.458
58048W        W26266  33.524  11.406  12.900
58049W        W26267  13.742  37.509   4.438
58050W        W26268  41.711   1.505   0.297
58051W        W26269  37.793  42.811  11.160
58052W        W26270   4.292  35.436   4.238
58053W        W26271  13.655  34.413   3.472
58054W        W26272  34.653  43.821   4.172
58055W        W26273   0.286  33.404  10.336
58056W        W26274  21.053  38.949   4.339
58057W        W26275   3.849  27.894  11.229
58058W        W26276  15.912   6.690  11.716
58059W        W26277  19.282  38.921   2.183
58060W        W26278  28.153  39.366   4.432
58061W        W26279  32.214   7.749  14.294
58062W        W26280  25.110  29.552  14.915
58063W        W26281  43.963  31.381   0.016
58064W        W26282   7.357   4.893   1.317
58065W        W26283   3.876  24.366   0.984
58066W        W26284  21.653  31.864  14.774
58067W        W26285   3.802  25.910   4.685
58068W        W26286  38.319  26.710   0.419
58069W        W26287  39.768  29.489   0.246
58070W        W26288  22.818  32.944   0.857
58071W        W26289   0.219  37.610  13.902
58072W        W26290  23.729  26.098  11.979
58073W        W26291  18.538  44.837  11.919
58074W        W26292  26.379  24.677   4.548
58075W        W26293   8.315  13.369  14.236
58076W        W26294  24.669  33.039  11.941
58077W        W26295  11.124  24.540  11.712
58078W        W26296  38.350  26.315  13.453
58079W        W26297  44.166  20.673  12.084
58080W        W26298   2.481   8.130  11.993
58081W        W26299  23.698  35.491   1.310
58082W        W26300  18.755  22.513   1.484
58083W        W26301  28.935  13.048   1.126
58084W        W26302  31.425   4.997   4.915
58085W        W26303  11.820  31.625   1.425
58086W        W26304   2.736   0.951  11.285
58087W        W26305  24.011   7.487   1.789
58088W        W26306  14.570   9.539   3.578
58089W        W26307   3.311   4.419  14.060
58090W        W26308  14.680  18.248   4.540
58091W        W26309  39.774  10.126   2.382
58092W        W26310  11.592  33.542  14.008
58093W        W26311  16.677  16.319   2.365
58094W        W26312  27.009  39.794  11.610
58095W        W26313  12.702  33.637  11.542
58096W        W26314  14.078  25.213   1.893
58097W        W26315  12.557  15.768  14.297
58098W        W26316  39.661  29.114  13.227
58099W        W26317   8.806   1.046   2.282
58100W        W26318  37.253   0.218  10.467
58101W        W26319  18.641  12.710   4.111
58102W        W26320   8.402  32.703   1.805
58103W        W26321  14.007   1.810   3.518
58104W        W26322  26.589  22.921   0.900
58105W        W26323   8.468   7.689  13.891
58106W        W26324  26.064   0.481   1.197
58107W        W26325  25.488  41.221  10.017
58108W        W26326  10.231  24.939  13.053
58109W        W26327   4.272  34.619   4.606
58110W        W26328  19.942  24.058   2.554
58111W        W26329   5.695  14.873   1.225
58112W        W26330   9.743  28.002  14.310
58113W        W26331  16.906  15.181   1.877
58114W        W26332   8.584  34.140  14.455
58115W        W26333   5.193  12.621   3.642
58116W        W26334   7.146  24.489   3.568
58117W        W26335  38.537   8.196   2.580
58118W        W26336  24.135  36.507   1.379
58119W        W26337   2.672  41.085  14.027
58120W        W26338  14.740  40.752   3.234
58121W        W26339   5.437   0.395  11.433
58122W        W26340  10.727   3.092  12.246
58123W        W26341  32.080   1.338  12.017
58124W        W26342   2.348  27.393  12.445
58125W        W26343  42.877  19.585  14.778
58126W        W26344  34.442   1.346   3.886
58127W        W26345  15.753  19.304  12.110
58128W        W26346   4.081  19.764  12.047
58129W        W26347   4.152  32.841   4.210
58130W        W26348  26.544  22.699  13.916
58131W        W26349   8.514  41.918   1.868
58132W        W26350  21.510  34.592   1.840
58133W        W26351  15.810   1.892   2.126
58134W        W26352  15.526  25.243  10.739
58135W        W26353  10.241  34.097  13.071
58136W        W26354   7.628  36.805   0.439
58137W        W26355  22.361  12.489  10.777
58138W        W26356  24.244  10.269  12.089
58139W        W26357  17.790  44.812   4.674
58140W        W26358  40.286  41.756   0.666
58141W        W26359   6.562  41.580   4.533
58142W        W26360   9.601  23.557   0.016
58143W        W26361  36.919  38.104   1.173
58144W        W26362  22.195  16.862   0.714
58145W        W26363  17.940  25.289  13.494
58146W        W26364  13.602  39.018   2.777
58147W        W26365  18.860  25.732  11.690
58148W        W26366  16.613  27.954   0.779
58149W        W26367   9.387  29.769   2.733
58150W        W26368   9.811   7.097  10.811
58151W        W26369  34.673  22.201  13.152
58152W        W26370  22.722  21.084   1.789
58153W        W26371  31.879  24.037  10.713
58154W        W26372  36.659   3.503   0.534
58155W        W26373  19.159  29.499  12.535
58156W        W26374  21.640  35.875   9.992
58157W        W26375   5.543  31.557   2.705
58158W        W26376  25.719  12.585  12.950
58159W        W26377  23.070  39.110  14.755
58160W        W26378  13.333  14.196   4.670
58161W        W26379   6.810  17.819   4.505
58162W        W26380  18.801  18.642   4.763
58163W        W26381  31.397   3.373   1.855
58164W        W26382  32.041  27.135  14.778
58165W        W26383  22.150  39.586  11.594
58166W        W26384  43.699   4.025  11.982
58167W        W26385   3.265  31.425   3.833
58168W        W26386  25.205   0.056   1.115
58169W        W26387  13.643  14.307   2.854
58170W        W26388  18.802   7.152  11.309
58171W        W26389  37.978  40.556   2.830
58172W        W26390  20.328   9.619   2.574
58173W        W26391  20.733  13.077   4.545
58174W        W26392  23.378   7.888   4.611
58175W        W26393  33.583   9.594   4.061
58176W        W26394  42.475   7.935  13.589
58177W        W26395  33.902   3.982   3.610
58178W        W26396  37.867  42.044   0.992
58179W        W26397  28.894  25.724  14.915
58180W        W26398  13.082  17.115   0.762
58181W        W26399  21.559  38.321   4.349
58182W        W26400  42.512  22.704  10.883
58183W        W26401  33.427  16.119   0.877
58184W        W26402   7.708  14.135  12.045
58185W        W26403  28.265  30.385  10.546
58186W        W26404   2.130   3.420   4.976
58187W        W26405  29.129  32.916   0.453
58188W        W26406  34.923   1.721  11.513
58189W        W26407  31.140  33.599   0.776
58190W        W26408  31.323  32.058   4.887
58191W        W26409  27.102  27.237   0.395
58192W        W26410  44.327  18.082  13.891
58193W        W26411  19.459   2.422  12.169
58194W        W26412  20.039   4.901   3.988
58195W        W26413  43.871   5.321   4.427
58196W        W26414   4.185  34.485   2.256
58197W        W26415  39.962  39.421   0.837
58198W        W26416  11.930   7.682   0.335
58199W        W26417  38.362   0.849  13.682
58200W        W26418  42.065  16.710   2.786
58201W        W26419   8.332   7.387   3.106
58202W        W26420   4.410   6.934   4.146
58203W        W26421  37.176  13.783  10.677
58204W        W26422  23.769  35.614   4.341
58205W        W26423  17.534  20.038  12.954
58206W        W26424  28.948  34.147   3.734
58207W        W26425   9.169  35.530   1.501
58208W        W26426  41.030  35.513  14.245
58209W        W26427  22.442  42.402  12.027
58210W        W26428  34.044   3.745  13.630
58211W        W26429  12.333   6.925   0.226
58212W        W26430  18.576  19.211  12.577
58213W        W26431   9.303  35.170   2.900
58214W        W26432   6.011  43.185   3.692
58215W        W26433   0.273  30.549   2.716
58216W        W26434  15.139  12.266  14.038
58217W        W26435   0.483  27.547  14.157
58218W        W26436  25.409  15.060  12.131
58219W        W26437  16.161  19.990   4.408
58220W        W26438   1.755  30.095   3.686
58221W        W26439  15.412  40.825   2.922
58222W        W26440  11.833   7.236   1.853
58223W        W26441  37.473  38.411  13.604
58224W        W26442   2.047  29.898  13.469
58225W        W26443  33.315   1.807  14.608
58226W        W26444   5.480  12.768   1.357
58227W        W26445   2.712  40.371   0.656
58228W        W26446  23.075   4.713  14.764
58229W        W26447  36.357  12.942   2.407
58230W        W26448  34.295   3.932  11.206
58231W        W26449   8.588  26.740  14.629
58232W        W26450  27.159  11.768  13.362
58233W        W26451  41.395  24.663  13.492
58234W        W26452   1.543  21.159   0.224
58235W        W26453  29.421  43.439  11.687
58236W        W26454   5.912  36.585   3.226
58237W        W26455  12.633   3.398  11.117
58238W        W26456  14.750  40.274  12.453
58239W        W26457  42.281   7.146  14.276
58240W        W26458  36.143  29.727   5.049
58241W        W26459  14.697  43.821   3.933
58242W        W26460  19.726  23.509   0.248
58243W        W26461  38.174   0.333  12.571
58244W        W26462  15.570  35.277  14.226
58245W        W26463  24.575  27.181  11.041
58246W        W26464  34.298  12.405  12.483
58247W        W26465  37.520  33.599   1.239
58248W        W26466  31.730  37.494  10.775
58249W        W26467  15.299  14.897   3.209
58250W        W26468  30.708  18.606  11.502
58251W        W26469  28.125  16.801  10.039
58252W        W26470   4.773  43.825   4.413
58253W        W26471  39.880   5.412  14.100
58254W        W26472   8.625  35.969  11.583
58255W        W26473  16.581  17.293   4.102
58256W        W26474   9.901  15.676  14.102
58257W        W26475  31.989  44.039  10.004
58258W        W26476  12.777  11.394   1.774
58259W        W26477  15.112  16.737  13.737
58260W        W26478  36.327   1.883   1.420
58261W        W26479   5.961  37.809   3.943
58262W        W26480   7.608  24.208  13.471
58263W        W26481  10.367  23.289   3.552
58264W        W26482  28.025   8.704   3.173
58265W        W26483  21.946   5.276  12.953
58266W        W26484  42.004  30.452   3.730
58267W        W26485  25.871  16.133   4.023
58268W        W26486  41.037   5.927   4.623
58269W        W26487   1.754  17.473  12.845
58270W        W26488   1.478  44.667   2.306
58271W        W26489   6.593  27.742  11.575
58272W        W26490  36.061   2.903   0.341
58273W        W26491  18.141  30.810   2.867
58274W        W26492   4.368  40.079  10.637
58275W        W26493   6.759   9.394  12.035
58276W        W26494   5.210   6.648   3.729
58277W        W26495   9.220  14.645   2.702
58278W        W26496  38.018  23.279   1.823
58279W        W26497  29.913  20.635  11.559
58280W        W26498  44.987   8.737  14.340
58281W        W26499  35.833  28.144  14.529
58282W        W26500  36.479  18.271   3.480
58283W        W26501  34.899  24.716  12.833
58284W        W26502  17.819  35.596   1.425
58285W        W26503  13.148  36.032   4.622
58286W        W26504  28.541  29.577   3.105
58287W        W26505  25.541  34.620   3.575
58288W        W26506  13.785  25.948  11.507
58289W        W26507  26.790  36.922   4.235
58290W        W26508   5.145   2.608  10.720
58291W        W26509  18.208  13.629  12.369
58292W        W26510  43.433  38.016   3.277
58293W        W26511  40.799  32.873  14.833
58294W        W26512   4.089   6.858  10.717
58295W        W26513  15.716   9.439   4.125
58296W        W26514   8.667  41.115  11.201
58297W        W26515  11.011  16.143  10.943
58298W        W26516  16.931  29.500  13.557
58299W        W26517  25.314  16.186  10.206
58300W        W26518  35.456  41.104  10.487
58301W        W26519  37.872  18.919   1.881
58302W        W26520  22.127   3.017   0.816
58303W        W26521  31.462  16.263  10.557
58304W        W26522  27.108  39.288  11.621
58305W        W26523  34.138  19.070   3.263
58306W        W26524  29.904  18.228  12.569
58307W        W26525   1.897  11.766  10.747
58308W        W26526  17.879   4.212  14.756
58309W        W26527  37.037  40.369  10.920
58310W        W26528   4.462  37.576  12.778
58311W        W26529  33.374  16.849  13.500
58312W        W26530  36.497  34.882   0.893
58313W        W26531  35.476   9.564   2.159
58314W        W26532   4.423  19.732   0.607
58315W        W26533   2.975  25.034  12.489
58316W        W26534  39.795  19.535   0.995
58317W        W26535  21.121  26.962   0.975
58318W        W26536  35.855  37.894  10.756
58319W        W26537  26.567  13.697  12.782
58320W        W26538  43.981  41.177  12.204
58321W        W26539  31.845  38.464   3.248
58322W        W26540  30.123   0.824   2.416
58323W        W26541  20.214   6.409  10.655
58324W        W26542  29.461  41.558  11.643
58325W        W26543   3.281  42.823   3.124
58326W        W26544  37.045  19.601  14.369
58327W        W26545  12.288   8.870   0.037
58328W        W26546  39.770   9.419  14.932
58329W        W26547  22.411  10.745  11.801
58330W        W26548   9.580   0.189   4.194
58331W        W26549  10.439   1.508  12.994
58332W        W26550  18.647  32.448   3.558
58333W        W26551  37.196  13.414  11.057
58334W        W26552   6.151  36.072  14.527
58335W        W26553  17.109  25.499   2.462
58336W        W26554   6.521  29.025   4.877
58337W        W26555   1.350  34.414  12.891
58338W        W26556   5.146  44.912  12.828
58339W        W26557  11.668   3.790  11.619
58340W        W26558  38.440   2.665   3.364
58341W        W26559   5.441  32.433  14.037
58342W        W26560  31.445  39.737   4.029
58343W        W26561  39.046  24.165   1.455
58344W        W26562   6.966  36.440   4.766
58345W        W26563   6.675   1.769   0.153
58346W        W26564  36.475  19.709  14.827
58347W        W26565  21.730  10.632  13.045
58348W        W26566  13.596  44.282  14.797
58349W        W26567  30.712  37.540  13.939
58350W        W26568   3.680  21.693  12.086
58351W        W26569  10.324  40.570   1.081
58352W        W26570  22.227  40.605  13.863
58353W        W26571  27.839  39.803  11.984
58354W        W26572  16.509  33.617   2.427
58355W        W26573  34.849  43.241  11.743
58356W        W26574  22.762  17.843  11.081
58357W        W26575  18.020  33.000  12.043
58358W        W26576  38.124  40.798   4.142
58359W        W26577  24.306  44.381   3.267
58360W        W26578  15.932   9.499   2.111
58361W        W26579  36.508  24.097  11.671
58362W        W26580   2.161  36.966   0.763
58363W        W26581   6.806  14.141   0.160
58364W        W26582  32.453  28.394   0.646
58365W        W26583   8.307   9.375  14.188
58366W        W26584  15.715  42.572   3.317
58367W        W26585  41.014   5.199  11.912
58368W        W26586  35.581  27.490  10.955
58369W        W26587  38.190   7.135   1.946
58370W        W26588  19.837   4.115   4.742
58371W        W26589  37.470  28.334   2.716
58372W        W26590  24.852  41.415   0.252
58373W        W26591  32.701  24.957  11.564
58374W        W26592  22.001  37.330   1.400
58375W        W26593  22.789   6.761   1.353
58376W        W26594  19.268  17.320  13.426
58377W        W26595   5.269  12.311  12.360
58378W        W26596   6.877  33.603   2.199
58379W        W26597  34.833  10.789   2.261
58380W        W26598  37.000  38.368  13.813
58381W        W26599  16.512  34.134   4.129
58382W        W26600  43.803  23.114  14.701
58383W        W26601  24.624  44.087  11.529
58384W        W26602  23.024   2.918  13.289
58385W        W26603  18.337  11.201  13.354
58386W        W26604  30.738  41.880  13.262
58387W        W26605  27.867  35.829   0.947
58388W        W26606   1.500  35.563   4.314
58389W        W26607  38.016  31.609  13.465
58390W        W26608   0.521  22.089   2.710
58391W        W26609   6.955  29.039  12.136
58392W        W26610  23.154  21.903   1.740
58393W        W26611   2.210  27.107   2.231
58394W        W26612  21.248  41.161   2.768
58395W        W26613  16.620  44.230  14.913
58396W        W26614   0.386   3.235  11.587
58397W        W26615  30.397  30.103  12.586
58398W        W26616  28.727  29.680  12.130
58399W        W26617   0.833  36.930  10.389
58400W        W26618  18.769   1.644   4.077
58401W        W26619  27.669  30.527  12.424
58402W        W26620   3.736   0.630  13.400
58403W        W26621   4.137  28.308  11.137
58404W        W26622  17.523  24.271   4.485
58405W        W26623  14.060  14.426   3.205
58406W        W26624  17.257  39.876  13.135
58407W        W26625  13.168  24.926   4.188
58408W        W26626  11.296  14.589   2.809
58409W        W26627  33.545   1.717   1.107
58410W        W26628  21.079  44.271   1.833
58411W        W26629   0.370  29.993  14.800
58412W        W26630  11.937  38.827  10.708
58413W        W26631  27.898  21.618  10.783
58414W        W26632  39.901  18.709   0.104
58415W        W26633  38.100   9.874  10.963
58416W        W26634  27.489  13.354   1.802
58417W        W26635  16.142   2.470  13.866
58418W        W26636  22.056  10.126   0.849
58419W        W26637  28.267  11.594   4.559
58420W        W26638   2.050  24.472  14.882
58421W        W26639   4.448  15.714   4.693
58422W        W26640  34.085  35.498  12.355
58423W        W26641  23.283  28.208  11.574
58424W        W26642   1.832  41.581   2.109
58425W        W26643   0.243  28.100   2.776
58426W        W26644  10.508  29.165  10.114
58427W        W26645   4.696  23.355   3.718
58428W        W26646  28.693  19.657   4.483
58429W        W26647  10.856  39.331  10.984
58430W        W26648  42.063  42.187   1.931
58431W        W26649  24.061  13.626   1.378
58432W        W26650   2.148   1.229   1.378
58433W        W26651  25.447  29.121   0.970
58434W        W26652  34.907  32.710   1.358
58435W        W26653  24.699  30.073   3.315
58436W        W26654   1.991  25.573   3.317
58437W        W26655   0.957  34.907   3.836
58438W        W26656  40.186  17.726   2.730
58439W        W26657  34.776   0.982   3.762
58440W        W26658  13.253  16.486  13.631
58441W        W26659  36.539  27.978   0.267
58442W        W26660  25.628  38.706   0.194
58443W        W26661  38.641  26.644   4.610
58444W        W26662  41.698  28.596   0.376
58445W        W26663   8.252  37.814   1.694
58446W        W26664  37.988  23.542  11.881
58447W        W26665  36.922  41.126   0.687
58448W        W26666   3.551  24.224  13.414
58449W        W26667   9.022  22.204  12.723
58450W        W26668  26.900   3.112  10.961
58451W        W26669  34.205   0.760   0.451
58452W        W26670  30.009  35.518   2.884
58453W        W26671  11.956  16.691   9.885
58454W        W26672  18.101  31.054  12.990
58455W        W26673  18.183  35.581   4.045
58456W        W26674  34.117  19.641  14.470
58457W        W26675  31.679   1.917   1.413
58458W        W26676  33.376  39.153   2.303
58459W        W26677  25.122  38.963   3.966
58460W        W26678   6.836  14.431  12.896
58461W        W26679   0.396  17.926  13.519
58462W        W26680  36.692  30.448   2.298
58463W        W26681  30.707   7.862   2.812
58464W        W26682  34.543  36.326   4.158
58465W        W26683  43.453   7.206   2.620
58466W        W26684  23.125  31.872  12.499
58467W        W26685  24.244  18.035   2.832
58468W        W26686  38.865  24.221   3.412
58469W        W26687  44.255  29.686   4.165
58470W        W26688  11.413   1.359   0.524
58471W        W26689  16.226   4.375  13.936
58472W        W26690  18.729  35.381  12.525
58473W        W26691  13.421  13.189  14.886
58474W        W26692   3.052   4.094  13.001
58475W        W26693  20.065  35.511   4.172
58476W        W26694  27.979  44.528   2.357
58477W        W26695  14.801   5.344   3.116
58478W        W26696  36.343   1.960  13.483
58479W        W26697  24.308  18.705   0.068
58480W        W26698   5.753  42.954   1.021
58481W        W26699  30.986  40.859   4.457
58482W        W26700  16.340  15.676  12.163
58483W        W26701  16.796  30.361  11.552
58484W        W26702  31.383  21.073   4.173
58485W        W26703   0.834   8.422  11.606
58486W        W26704   9.468  29.363  13.843
58487W        W26705  19.560  32.618   3.742
58488W        W26706  26.879   9.661   3.723
58489W        W26707  22.254  43.408   0.733
58490W        W26708  18.886   6.881  10.691
58491W        W26709  44.147  19.166   2.787
58492W        W26710  31.235  24.677   1.186
58493W        W26711  39.080  11.920   3.291
58494W        W26712  17.512  40.247  13.465
58495W        W26713  26.812  38.290   5.122
58496W        W26714  33.775  19.105   4.615
58497W        W26715   5.876  40.997   0.509
58498W        W26716  24.388  18.520   3.701
58499W        W26717  35.493  20.230  11.223
58500W        W26718  27.985  44.338  12.965
58501W        W26719  33.889  22.097  10.599
58502W        W26720  42.462  12.068   2.948
58503W        W26721  36.040  17.522   2.412
58504W        W26722   5.956  33.594   3.257
58505W        W26723   8.115  30.139   2.276
58506W        W26724   4.277   3.757  11.263
58507W        W26725  38.541  18.271   0.258
58508W        W26726   9.702  10.919   0.714
58509W        W26727  30.197   8.419   3.711
58510W        W26728  17.521  23.984  14.910
58511W        W26729  18.562   0.383   3.660
58512W        W26730  28.037   4.193  10.226
58513W        W26731  22.189  24.958   1.315
58514W        W26732  16.217  44.518  13.185
58515W        W26733  42.026  16.320   3.147
58516W        W26734  27.686  18.632   0.181
58517W        W26735  15.414   1.003   4.224
58518W        W26736  22.763  11.571  13.247
58519W        W26737  44.911   3.723   3.258
58520W        W26738   1.033  19.899   0.425
58521W        W26739  31.508  29.166   1.290
58522W        W26740  16.843  13.825  14.565
58523W        W26741  32.168  14.116  10.289
58524W        W26742  17.093  27.893  10.651
58525W        W26743  11.229  26.192   3.715
58526W        W26744  32.917  11.102   0.544
58527W        W26745  23.477  18.103  13.548
58528W        W26746  40.500  23.208   0.047
58529W        W26747  23.136  37.882   0.258
58530W        W26748  41.805  40.394   2.930
58531W        W26749  23.037  11.858  12.126
58532W        W26750  13.379  29.150   1.449
58533W        W26751  33.892   3.434   2.742
58534W        W26752  10.375   9.194  10.898
58535W        W26753   1.503  42.944   3.730
58536W        W26754  13.730  36.631   4.190
58537W        W26755  33.218  39.690   2.350
58538W        W26756  13.696  41.084   1.313
58539W        W26757  28.514  17.193   5.071
58540W        W26758  14.753  10.301  12.931
58541W        W26759  25.199  20.506  12.640
58542W        W26760  21.839  22.379   3.448
58543W        W26761  19.138  27.232   3.790
58544W        W26762  20.518  41.317   0.173
58545W        W26763  31.550  37.412  13.841
58546W        W26764  37.086   9.323  11.787
58547W        W26765  24.287   1.962   3.968
58548W        W26766  36.432   0.025   4.140
58549W        W26767  28.631  18.522   3.594
58550W        W26768  27.001   9.147  11.628
58551W        W26769  33.366  26.606  13.945
58552W        W26770  38.957  18.168  13.482
58553W        W26771  13.737  41.477   9.815
58554W        W26772   8.233  29.154   3.623
58555W        W26773   4.556  41.086  12.946
58556W        W26774  41.900  15.600  14.912
58557W        W26775  31.484  33.111  13.128
58558W        W26776  33.509  31.176  13.933
58559W        W26777  30.128  29.434   2.085
58560W        W26778  14.214  18.562   1.238
58561W        W26779  25.154  10.790   3.263
58562W        W26780  44.171  11.997   0.928
58563W        W26781  38.426  29.010  12.164
58564W        W26782  40.992  33.835  13.915
58565W        W26783  44.906  35.941  13.160
58566W        W26784  22.564  26.749   1.539
58567W        W26785  15.695  33.927   4.511
58568W        W26786  43.729  21.610  10.301
58569W        W26787  28.567  43.104   1.973
58570W        W26788  12.755  43.318   5.007
58571W        W26789  22.386  19.982  11.091
58572W        W26790   4.378  34.176  11.067
58573W        W26791  15.122  28.723   1.199
58574W        W26792  26.410  24.064   2.761
58575W        W26793   8.590  42.457   5.039
58576W        W26794  10.388  34.271  11.260
58577W        W26795  18.588  28.151  12.964
58578W        W26796  16.098  17.261  13.303
58579W        W26797  19.683  38.947  11.195
58580W        W26798  33.072   4.820   2.478
58581W        W26799  44.223  42.393   4.531
58582W        W26800  35.719  23.729  10.680
58583W        W26801  14.239  30.853   3.849
58584W        W26802   3.019  38.435  12.166
58585W        W26803  25.135   1.183   2.153
58586W        W26804  20.122   1.272   0.897
58587W        W26805  22.441  38.868  10.606
58588W        W26806  14.400  10.336   3.908
58589W        W26807  34.431  39.905   2.743
58590W        W26808  24.001  35.110   4.253
58591W        W26809  40.475  38.181  12.281
58592W        W26810  15.516  18.714   0.307
58593W        W26811   6.195   9.914  11.599
58594W        W26812  25.108   3.443  12.572
58595W        W26813  34.149  25.957   2.825
58596W        W26814  44.070  38.896   2.438
58597W        W26815  33.462  41.440  12.575
58598W        W26816  28.257  22.716  13.444
58599W        W26817  30.928  28.402  12.428
58600W        W26818   4.770  10.709   3.105
58601W        W26819  26.594  26.014   5.026
58602W        W26820   9.236   0.770   4.274
58603W        W26821  23.675  24.088  12.018
58604W        W26822   2.257  14.578   4.059
58605W        W26823  26.412  11.077   0.830
58606W        W26824  17.052  12.370   1.828
58607W        W26825  10.832  31.161   3.736
58608W        W26826  23.121  41.737  13.101
58609W        W26827  20.044  42.316  11.508
58610W        W26828   5.816  14.796   4.000
58611W        W26829  33.542  29.649  11.411
58612W        W26830  38.325  11.348   1.319
58613W        W26831  34.339  38.296   0.167
58614W        W26832   9.365  23.598   3.684
58615W        W26833  44.728   6.396   3.136
58616W        W26834   5.803  33.348   3.717
58617W        W26835  30.128   1.409  10.714
58618W        W26836  29.877  19.566  10.815
58619W        W26837  29.278  30.479  12.094
58620W        W26838  29.631  28.525  12.904
58621W        W26839  32.176  31.102  14.851
58622W        W26840  26.205  25.500   0.308
58623W        W26841  44.303  13.671   3.798
58624W        W26842  34.060  10.379   3.055
58625W        W26843  21.411  41.624   2.568
58626W        W26844  22.169   6.733  14.966
58627W        W26845   6.618   4.439   0.827
58628W        W26846  26.183  41.011   0.749
58629W        W26847  24.076  26.333  10.048
58630W        W26848  36.894  32.544   4.560
58631W        W26849   6.841   1.816   2.740
58632W        W26850  13.774  23.533  13.392
58633W        W26851  38.900  22.992  13.400
58634W        W26852   5.299  26.957  13.497
58635W        W26853   4.664   4.983   1.771
58636W        W26854  29.498   2.300  14.348
58637W        W26855  15.061  20.067   3.707
58638W        W26856  41.639  35.593   2.340
58639W        W26857  39.420  21.038  12.345
58640W        W26858  19.595  29.075   1.214
58641W        W26859  41.379   8.884   2.137
58642W        W26860  31.212  15.397   1.777
58643W        W26861  10.117  13.335   0.926
58644W        W26862  15.710  20.944   0.368
58645W        W26863  13.672  24.200  14.870
58646W        W26864   6.213  19.661  13.799
58647W        W26865  44.780  13.223   4.191
58648W        W26866  19.601   6.616  13.057
58649W        W26867  22.215  30.392   2.169
58650W        W26868  30.941  15.885   4.598
58651W        W26869  13.316  20.258   1.245
58652W        W26870  26.500  35.332  14.988
58653W        W26871  25.642  31.758   0.873
58654W        W26872  23.309  25.032  12.142
58655W        W26873  31.540  15.351  12.923
58656W        W26874  18.297   3.699  12.962
58657W        W26875  13.626   5.208   0.772
58658W        W26876  42.880  27.954  13.373
58659W        W26877  41.499  25.529  13.456
58660W        W26878  15.631  27.185   1.701
58661W        W26879   3.843  16.387   2.738
58662W        W26880  31.318  41.969  14.336
58663W        W26881  32.856   3.847   3.184
58664W        W26882  36.541  42.427  12.582
58665W        W26883  40.888  33.384  14.923
58666W        W26884  24.004   5.645  14.049
58667W        W26885  43.509  21.654   3.722
58668W        W26886   0.295  11.226   0.964
58669W        W26887  43.414   7.145  10.984
58670W        W26888  40.987  38.350   2.137
58671W        W26889  40.387  14.893  12.190
58672W        W26890  19.449   8.478  10.733
58673W        W26891  23.858  27.451  11.535
58674W        W26892  21.301  29.170  12.875
58675W        W26893  34.632  21.798  10.765
58676W        W26894  16.236  33.626  11.161
58677W        W26895   6.981  30.078   0.846
58678W        W26896   4.213  10.313   3.671
58679W        W26897  18.757  21.476  11.643
58680W        W26898  44.951  29.794  12.953
58681W        W26899  17.994  21.315  10.143
58682W        W26900  25.936  23.517  13.554
58683W        W26901  17.243  21.487  14.809
58684W        W26902   4.738  19.343   1.748
58685W        W26903  28.532  11.031   2.263
58686W        W26904   4.370  16.290   3.506
58687W        W26905  21.204  30.909   3.302
58688W        W26906  15.316  17.326   3.195
58689W        W26907   9.918  25.565  10.937
58690W        W26908   5.034  21.137  12.933
58691W        W26909   5.809  33.154   4.566
58692W        W26910  37.884  32.207   5.019
58693W        W26911   8.162  18.171   0.974
58694W        W26912  12.129  19.080  13.975
58695W        W26913  44.467  29.418   3.634
58696W        W26914  21.648  19.714   0.879
58697W        W26915  33.828  38.987   9.744
58698W        W26916  34.085  43.507   1.885
58699W        W26917  30.014   3.039  14.942
58700W        W26918   5.538  39.163   1.709
58701W        W26919  39.916  39.863   3.774
58702W        W26920  36.014  16.705   2.208
58703W        W26921  42.890  37.351   1.740
58704W        W26922  13.652  13.549   3.258
58705W        W26923  36.822  18.749  10.528
58706W        W26924  25.529  18.243  10.683
58707W        W26925  20.436  25.559  11.563
58708W        W26926  30.539  40.226  12.962
58709W        W26927   4.253  24.881  10.810
58710W        W26928  14.029   2.267   2.671
58711W        W26929  21.556  34.006   0.786
58712W        W26930  19.679  24.604   4.382
58713W        W26931  41.357  42.529  10.889
58714W        W26932  39.543  14.802  12.124
58715W        W26933  37.605  27.770   3.828
58716W        W26934  17.832  19.024   3.141
58717W        W26935  36.595  19.687  12.862
58718W        W26936  37.550  29.481   0.825
58719W        W26937  18.615  31.138   1.256
58720W        W26938   7.938   7.768  13.903
58721W        W26939   1.723  13.386  14.934
58722W        W26940   2.045  41.805  11.027
58723W        W26941   3.135  33.556  14.801
58724W        W26942  43.844  27.017  10.937
58725W        W26943  14.724   4.304   4.593
58726W        W26944  11.287  25.945   1.247
58727W        W26945  38.827   9.883   4.052
58728W        W26946   2.386  42.800  14.774
58729W        W26947  16.536  11.324   1.024
58730W        W26948  37.558  29.209  11.118
58731W        W26949  39.999  23.246   1.416
58732W        W26950  10.233   3.849   4.459
58733W        W26951  15.331  34.681   3.940
58734W        W26952  12.791   7.008   4.694
58735W        W26953  19.887  22.171   2.305
58736W        W26954  40.330  19.512   0.929
58737W        W26955  44.924  18.221   0.813
58738W        W26956  27.231  37.561   0.483
58739W        W26957  16.817  12.894  14.526
58740W        W26958  16.679  44.243   9.846
58741W        W26959  36.334  38.987   1.410
58742W        W26960  12.614  38.651  13.123
58743W        W26961  23.650  34.628  13.603
58744W        W26962   4.717  12.842   0.886
58745W        W26963  25.618  34.510  12.036
58746W        W26964  13.841  30.155  13.079
58747W        W26965   6.939  43.060   3.636
58748W        W26966  23.234   0.512   4.854
58749W        W26967  28.779  41.821  10.558
58750W        W26968  42.696  12.773   0.944
58751W        W26969  16.759  42.393   0.853
58752W        W26970  24.460  10.151   1.280
58753W        W26971  12.123  13.217   4.493
58754W        W26972   0.843  23.673  13.527
58755W        W26973  16.151  26.665   0.953
58756W        W26974  40.480   6.841   0.212
58757W        W26975  22.219   8.290  14.405
58758W        W26976   2.923  30.478  12.664
58759W        W26977   7.213   0.924   2.437
58760W        W26978   1.490  41.007   0.877
58761W        W26979  26.378  44.114   1.828
58762W        W26980   9.747  27.017   4.613
58763W        W26981  35.057  42.728   9.886
58764W        W26982  36.778   1.047   2.074
58765W        W26983  31.888  33.694  12.925
58766W        W26984  11.063   5.330   0.895
58767W        W26985  37.268   0.313   1.880
58768W        W26986  18.530  40.489   2.782
58769W        W26987  15.134  39.074  13.971
58770W        W26988  21.682  20.092   1.840
58771W        W26989  40.031  31.498   3.081
58772W        W26990  21.347  42.534  14.432
58773W        W26991  13.826  13.680  11.146
58774W        W26992  28.686  40.056  12.952
58775W        W26993   1.929  13.241   1.383
58776W        W26994  10.714   2.695  12.590
58777W        W26995  17.323  28.632   2.098
58778W        W26996   8.453  33.101  13.532
58779W        W26997  25.574  37.697  12.941
58780W        W26998   2.302  34.058   4.742
58781W        W26999  14.125  33.488   3.760
58782W        W27000   0.566   6.932   0.480
58783W        W27001  24.932  39.155   3.112
58784W        W27002  24.913  14.612  10.538
58785W        W27003   1.366  11.191   2.819
58786W        W27004  20.543  34.947  14.081
58787W        W27005  25.112  41.490   2.321
58788W        W27006  35.529   2.206  13.986
58789W        W27007   6.238  37.447  14.571
58790W        W27008  25.108  41.590  11.126
58791W        W27009  22.997   9.845  14.810
58792W        W27010  38.587  10.172   0.251
58793W        W27011  44.834   3.449   2.811
58794W        W27012  21.472  38.276   1.383
58795W        W27013  22.110   5.175   4.960
58796W        W27014  18.178  39.049  10.348
58797W        W27015   0.881   5.331   1.452
58798W        W27016  39.370  28.762   3.018
58799W        W27017  17.631   0.363   2.373
58800W        W27018  23.441  15.876   3.388
58801W        W27019   1.547  33.071  11.129
58802W        W27020   7.724   9.178  11.896
58803W        W27021  37.048  43.345  13.612
58804W        W27022  26.117  32.054  12.490
58805W        W27023  30.640  43.801   0.834
58806W        W27024  34.856  29.665  12.401
58807W        W27025  34.426   7.862   4.314
58808W        W27026   8.713  15.245   3.165
58809W        W27027   4.088  10.161  12.578
58810W        W27028  17.463  25.457  11.682
58811W        W27029  30.265  29.790   1.711
58812W        W27030  29.502  30.737  11.189
58813W        W27031  18.388   7.152   2.694
58814W        W27032  11.847  27.620  13.924
58815W        W27033  30.630   4.116  14.001
58816W        W27034  10.045  43.946  10.678
58817W        W27035  13.109  32.742  11.587
58818W        W27036  36.201  43.450   2.811
58819W        W27037  12.241  30.758  10.730
58820W        W27038  29.729  35.573  13.253
58821W        W27039  16.154  15.604  14.559
58822W        W27040   3.454  31.283   1.217
58823W        W27041  11.484   2.484  14.954
58824W        W27042  21.633  37.802   1.490
58825W        W27043  39.462  28.596  14.768
58826W        W27044  15.218   9.709   2.519
58827W        W27045   6.307  34.538   3.295
58828W        W27046  39.735  38.369  14.711
58829W        W27047   5.932  23.053   2.168
58830W        W27048  24.280  23.137   2.007
58831W        W27049   0.811  35.844   1.163
58832W        W27050   1.979   9.439  11.627
58833W        W27051  13.124   2.817   1.640
58834W        W27052  32.666  28.606  13.073
58835W        W27053  17.239  15.960   1.139
58836W        W27054  13.762  36.321   0.063
58837W        W27055  14.563  12.574  14.941
58838W        W27056   1.825  34.407   4.105
58839W        W27057  14.621  41.854   0.665
58840W        W27058  18.757  30.652   1.403
58841W        W27059  35.425   3.102  10.175
58842W        W27060  19.020   5.155   2.193
58843W        W27061  18.894   8.642  12.717
58844W        W27062  44.491  20.941  11.136
58845W        W27063  44.883  41.232  11.030
58846W        W27064   7.647  21.126   2.171
58847W        W27065  10.720  27.116  11.171
58848W        W27066   4.874   8.306  13.717
58849W        W27067  40.364  12.567   3.581
58850W        W27068  35.611  37.858   4.099
58851W        W27069  36.189  21.931  14.819
58852W        W27070  43.320  16.312   1.876
58853W        W27071  40.736  43.425   1.630
58854W        W27072  17.220  43.376   1.612
58855W        W27073  32.671  30.497   2.111
58856W        W27074  27.428  40.843  11.128
58857W        W27075   4.226  43.803   0.833
58858W        W27076   7.110  38.321   1.380
58859W        W27077  41.252  38.456  13.847
58860W        W27078  12.245   6.475  11.202
58861W        W27079  34.782  44.555  11.077
58862W        W27080   8.018   8.257  13.103
58863W        W27081  13.182  17.726  12.599
58864W        W27082  37.701   3.926   4.943
58865W        W27083  40.912  32.930  13.503
58866W        W27084  15.805   8.252   1.791
58867W        W27085   7.857   2.495  14.825
58868W        W27086  34.999   5.811   2.114
58869W        W27087  42.419  42.525   3.151
58870W        W27088  25.071  32.916  12.641
58871W        W27089  34.387  31.459   4.629
58872W        W27090  32.201  43.085  12.014
58873W        W27091  29.637  18.316  10.654
58874W        W27092  42.301  36.473   3.603
58875W        W27093  25.063  41.110  11.251
58876W        W27094  11.368  20.203   0.302
58877W        W27095   0.888   1.929  11.394
58878W        W27096  17.120  25.737   3.300
58879W        W27097  34.380  30.608   1.014
58880W        W27098  27.995  40.822  11.106
58881W        W27099  24.029   6.272   0.948
58882W        W27100  33.774   2.176  11.637
58883W        W27101  23.784   5.888   2.354
58884W        W27102  18.250   9.642   2.710
58885W        W27103  28.396  31.057  12.533
58886W        W27104  30.167  28.438   1.345
58887W        W27105  21.194  24.271  14.307
58888W        W27106  30.242  10.174   3.131
58889W        W27107  22.590  41.933   2.546
58890W        W27108  30.511  19.229  14.758
58891W        W27109  22.967   6.736  14.892
58892W        W27110   9.267  33.687   3.179
58893W        W27111  17.794   0.603   3.251
58894W        W27112   9.241  34.419   4.541
58895W        W27113  22.831  24.507  11.147
58896W        W27114  29.523  30.643  14.911
58897W        W27115   3.330  37.610  11.950
58898W        W27116  20.754  42.332  13.554
58899W        W27117  24.968  30.055  11.590
58900W        W27118  10.737  30.454   0.507
58901W        W27119  24.518   6.118   1.294
58902W        W27120   7.438  24.739  10.946
58903W        W27121   0.441  23.198  11.530
58904W        W27122   3.918  37.665   1.747
58905W        W27123  14.122  18.829  12.760
58906W        W27124  23.346  20.273  11.032
58907W        W27125  40.338  42.167   0.961
58908W        W27126   8.152  19.990   0.171
58909W        W27127  10.908  17.470   3.675
58910W        W27128  41.984  22.764  12.706
58911W        W27129  34.079  16.592   2.907
58912W        W27130  29.236  44.467   4.635
58913W        W27131  26.256  25.630   0.813
58914W        W27132  37.298  36.909  12.475
58915W        W27133   9.182   5.367  10.436
58916W        W27134  36.702  28.435  10.918
58917W        W27135   4.326  35.842  14.295
58918W        W27136   7.738   0.299  13.167
58919W        W27137  32.337   6.964   3.521
58920W        W27138  33.539  14.723  13.330
58921W        W27139   6.793  39.433   4.263
58922W        W27140  21.516  18.681   3.166
58923W        W27141   5.308  25.599  14.916
58924W        W27142  22.608  22.238  12.475
58925W        W27143   1.279  15.410  13.140
58926W        W27144  30.454  25.802  13.837
58927W        W27145  44.731  43.455  11.623
58928W        W27146  23.636  36.424  10.178
58929W        W27147   7.138  12.746  12.577
58930W        W27148  31.811   9.113   2.247
58931W        W27149  35.450  10.237  13.595
58932W        W27150  32.126  19.381   5.094
58933W        W27151  16.765  16.697  13.374
58934W        W27152  10.300  42.107  11.190
58935W        W27153   5.873   8.633  11.290
58936W        W27154   2.862  33.194  13.907
58937W        W27155  41.312  28.564   2.816
58938W        W27156  16.686   7.998  13.330
58939W        W27157  34.272  42.277   0.279
58940W        W27158  22.048  32.563  10.914
58941W        W27159  12.542  31.522  10.974
58942W        W27160  38.083  13.097  12.999
58943W        W27161  33.692  15.935  12.112
58944W        W27162  12.312  35.523   4.880
58945W        W27163  38.818  41.533  10.303
58946W        W27164  10.247   5.471   0.483
58947W        W27165  27.908   5.857   0.387
58948W        W27166  20.758  24.140  11.584
58949W        W27167  14.173   6.671  14.241
58950W        W27168  38.627  37.687  14.725
58951W        W27169  27.407   0.690   1.742
58952W        W27170   3.528  22.524  12.549
58953W        W27171   2.479  19.777   1.926
58954W        W27172  15.124   6.613  14.755
58955W        W27173   9.666  31.526  13.526
58956W        W27174   2.006  32.949  12.093
58957W        W27175   7.678  43.758   0.197
58958W        W27176  30.012  16.537  10.721
58959W        W27177  36.394  27.645   0.768
58960W        W27178  15.124  34.970  14.704
58961W        W27179  20.987  39.937  10.727
58962W        W27180  14.594   4.624   0.452
58963W        W27181  27.165  10.371  14.863
58964W        W27182  44.243  20.307   2.418
58965W        W27183  12.730  24.680   0.496
58966W        W27184  12.411  11.675  14.463
58967W        W27185   1.815  24.302  13.008
58968W        W27186  12.502   8.920   5.039
58969W        W27187  26.212   2.795  14.337
58970W        W27188   3.772  12.318   2.802
58971W        W27189  40.418  23.081  11.496
58972W        W27190  21.339  43.338  13.969
58973W        W27191  34.427  34.953  12.922
58974W        W27192  43.966  16.752   2.378
58975W        W27193  33.622  10.083   2.312
58976W        W27194  28.013  29.438  14.388
58977W        W27195   0.396  33.063   0.507
58978W        W27196  18.639   8.203  10.976
58979W        W27197   5.673   2.222   2.433
58980W        W27198  19.736  15.301   4.579
58981W        W27199  22.260  13.234  13.482
58982W        W27200  35.302  37.591  12.962
58983W        W27201  11.724  16.655   4.875
58984W        W27202  32.698  31.064  12.905
58985W        W27203  31.582  18.587   1.874
58986W        W27204  39.581  36.541   2.290
58987W        W27205  38.021  12.875  14.998
58988W        W27206  35.316  26.142  11.243
58989W        W27207  15.830  10.304   0.404
58990W        W27208   9.174  28.494  10.653
58991W        W27209  31.935  19.982   0.858
58992W        W27210  43.764  16.674  13.628
58993W        W27211   9.836  16.640  13.646
58994W        W27212  16.164  25.580   4.631
58995W        W27213   6.795  15.288   1.724
58996W        W27214   1.661  22.738  11.499
58997W        W27215  19.171  17.017   2.873
58998W        W27216  25.590  18.708   4.681
58999W        W27217  31.407  43.230   2.352
59000W        W27218   1.471  30.098   0.817
59001W        W27219   1.702   5.339   3.609
59002W        W27220  25.148  26.564   2.132
59003W        W27221  15.929  36.520  12.948
59004W        W27222  39.965   7.799   4.731
59005W        W27223  13.581  43.971   1.642
59006W        W27224   2.955  19.365  12.624
59007W        W27225   5.428  22.192  10.764
59008W        W27226  18.713  29.214   1.103
59009W        W27227   4.243   8.817   3.804
59010W        W27228   8.150  34.784  10.767
59011W        W27229  17.258  19.453   4.852
59012W        W27230  25.683   2.677   2.820
59013W        W27231  25.615  14.182   2.722
59014W        W27232  24.644  12.084   0.741
59015W        W27233  12.681  36.661  10.891
59016W        W27234   1.258   3.483  13.850
59017W        W27235   6.866  40.920  13.966
59018W        W27236   6.703  18.351  14.829
59019W        W27237  31.597  24.440  12.045
59020W        W27238  28.052   4.987   4.496
59021W        W27239  29.985  44.810   4.702
59022W        W27240  18.146  32.045   1.437
59023W        W27241  29.173  13.562  10.956
59024W        W27242  13.911  24.484   2.765
59025W        W27243   9.180   6.217   1.325
59026W        W27244  37.055  30.642  14.267
59027W        W27245  44.221  44.436  14.031
59028W        W27246  12.157  24.072  14.770
59029W        W27247  43.942   3.883  10.671
59030W        W27248   4.899  14.555   1.820
59031W        W27249  19.661  44.933   4.453
59032W        W27250   9.817  26.591   0.465
59033W        W27251  14.658  43.182  11.186
59034W        W27252  43.452   1.758   0.890
59035W        W27253  12.895  42.470  11.151
59036W        W27254  17.847  41.608   2.900
59037W        W27255  36.491  31.991  12.603
59038W        W27256   7.380  16.533   4.016
59039W        W27257  16.611  32.506   0.059
59040W        W27258  12.166  35.399  14.520
59041W        W27259  35.479   4.485  10.831
59042W        W27260  21.482   9.309   0.319
59043W        W27261  36.930  17.765   3.645
59044W        W27262  32.385  14.151   2.779
59045W        W27263   7.713  20.804  13.461
59046W        W27264  10.940  21.261  11.495
59047W        W27265  26.244  41.004  13.426
59048W        W27266  36.491  14.620  13.871
59049W        W27267  19.012   0.171   2.879
59050W        W27268  29.193  32.355   1.875
59051W        W27269  15.578   4.661  10.657
59052W        W27270   6.442  20.215  13.639
59053W        W27271  12.777   7.415  12.996
59054W        W27272  17.237  33.598  10.003
59055W        W27273  25.748  27.982   2.706
59056W        W27274  43.314  16.301  11.107
59057W        W27275  16.792  41.734   4.262
59058W        W27276  17.742  40.026   3.386
59059W        W27277   8.726  35.386   1.245
59060W        W27278  36.767  42.260  11.888
59061W        W27279  16.296   1.423   0.051
59062W        W27280  11.243   7.235   2.562
59063W        W27281  36.191  16.792   3.693
59064W        W27282  27.128  26.554   1.723
59065W        W27283  24.608  21.130  13.010
59066W        W27284  41.427  30.957  12.961
59067W        W27285  39.397  22.495  13.867
59068W        W27286  33.890   4.398   0.931
59069W        W27287   1.843  38.357  10.786
59070W        W27288  30.565  10.119  13.423
59071W        W27289  28.470   7.472   0.985
59072W        W27290  43.899  32.919  13.297
59073W        W27291  39.871  33.254   0.989
59074W        W27292  10.913  15.576   0.368
59075W        W27293  43.793  26.652   0.719
59076W        W27294  29.922  44.368   0.821
59077W        W27295  11.215  11.927   3.747
59078W        W27296   2.697  38.270  12.564
59079W        W27297   3.399   0.343  14.105
59080W        W27298  34.047  18.525   1.677
59081W        W27299  16.105  14.687  10.718
59082W        W27300  35.959  14.770  13.134
59083W        W27301   9.208  27.885  14.530
59084W        W27302  42.198  15.034  14.403
59085W        W27303   1.494  39.488  13.997
59086W        W27304   5.794   7.204  10.722
59087W        W27305   9.772  12.915  11.643
59088W        W27306  42.451   2.729  13.129
59089W        W27307  25.170  35.054   1.018
59090W        W27308  26.367  10.545   0.831
59091W        W27309  11.102  18.051   3.017
59092W        W27310  32.018  20.057  14.571
59093W        W27311  25.507  38.520   2.686
59094W        W27312  27.855  31.458   0.649
59095W        W27313  31.380  34.110  13.776
59096W        W27314  13.859   3.429   2.011
59097W        W27315  31.576   1.024  12.591
59098W        W27316  19.660  44.387  13.594
59099W        W27317   7.717  15.215  13.142
59100W        W27318  38.380  21.210  14.864
59101W        W27319  12.767   6.505   4.734
59102W        W27320  35.506  14.526  13.054
59103W        W27321   7.090  21.609  14.030
59104W        W27322   1.733  20.108  11.048
59105W        W27323  25.399  16.285  11.606
59106W        W27324  26.613   7.816  13.333
59107W        W27325  43.747  34.513  14.832
59108W        W27326  13.830  41.472   3.997
59109W        W27327   6.929  32.397  14.768
59110W        W27328  14.777  30.239  12.198
59111W        W27329  35.164  39.009   4.819
59112W        W27330   5.186  39.038   3.648
59113W        W27331  13.542  17.248   0.535
59114W        W27332  17.861   0.137   1.749
59115W        W27333  13.978  17.606   2.156
59116W        W27334  25.798   5.750  13.425
59117W        W27335  28.256  39.184   3.647
59118W        W27336  11.207  20.012   1.710
59119W        W27337   5.259  13.641  14.487
59120W        W27338  43.994  18.817  10.618
59121W        W27339  11.436  19.187   4.895
59122W        W27340   3.676  21.281   3.241
59123W        W27341  32.493  40.184  12.667
59124W        W27342  42.463   1.769   2.647
59125W        W27343  37.426  34.633   1.364
59126W        W27344  18.330  41.594   0.945
59127W        W27345  16.883   9.866  13.428
59128W        W27346  25.093  34.037   3.588
59129W        W27347  32.927  18.078   4.307
59130W        W27348  26.657  29.823   0.327
59131W        W27349  12.086  31.802   0.800
59132W        W27350  36.370   5.115   2.171
59133W        W27351   6.338  42.447   0.378
59134W        W27352  39.573  43.365   0.829
59135W        W27353  10.746  35.522  11.022
59136W        W27354  17.100  31.062   4.591
59137W        W27355  23.961  27.511   0.382
59138W        W27356  41.549  34.186   1.375
59139W        W27357  39.826  42.333  11.705
59140W        W27358  37.087  30.043   2.818
59141W        W27359  36.985  10.264  13.592
59142W        W27360   1.407  23.411  12.785
59143W        W27361  22.985  15.962  12.959
59144W        W27362  38.294  41.815   4.120
59145W        W27363  42.539  39.026  13.673
59146W        W27364  16.119  39.714   4.620
59147W        W27365  36.373  33.417  11.510
59148W        W27366  19.488   9.572  14.923
59149W        W27367   8.308  31.132  11.488
59150W        W27368  30.913   8.676  13.065
59151W        W27369  31.982  43.087   4.549
59152W        W27370  21.769  34.343   0.046
59153W        W27371  27.119  37.909   4.350
59154W        W27372  13.810  27.124  13.914
59155W        W27373   7.743   6.299  13.841
59156W        W27374  18.765  21.713   3.227
59157W        W27375  43.427  32.951  12.203
59158W        W27376  27.062  19.025  14.516
59159W        W27377  19.752  17.838  12.069
59160W        W27378   4.566  13.786  12.478
59161W        W27379  14.168  24.146   0.227
59162W        W27380  38.618  42.798   1.317
59163W        W27381  14.748  38.000   0.896
59164W        W27382  35.392  29.559  14.101
59165W        W27383   0.208  43.257  10.815
59166W        W27384  19.210  21.630   1.188
59167W        W27385   4.507  16.451  11.861
59168W        W27386  32.187  19.747   4.174
59169W        W27387   1.840   3.773   1.422
59170W        W27388  22.160   8.375  10.614
59171W        W27389  12.227  16.567   0.956
59172W        W27390  23.648   7.880  14.739
59173W        W27391  32.544   9.938  10.227
59174W        W27392  42.843  13.054  12.853
59175W        W27393  34.007  11.594  13.074
59176W        W27394  33.599  10.220   3.281
59177W        W27395  11.930  11.349  11.213
59178W        W27396   1.158  24.011   2.666
59179W        W27397   5.702   3.835  11.400
59180W        W27398  40.561  25.699  12.374
59181W        W27399  28.081  22.983   4.045
59182W        W27400  36.462   7.988  12.756
59183W        W27401  44.186  40.301   1.848
59184W        W27402  43.391  29.316   0.305
59185W        W27403  20.111  22.721  12.095
59186W        W27404  16.231  23.631   0.292
59187W        W27405   9.614   4.446   1.731
59188W        W27406  23.386  34.699   5.063
59189W        W27407  18.018  24.444  13.825
59190W        W27408  44.872  16.869   4.194
59191W        W27409  14.577  12.212  12.006
59192W        W27410  41.285  19.323  13.949
59193W        W27411  39.363  12.603   2.422
59194W        W27412   8.935  12.753  14.248
59195W        W27413  31.596  12.787   0.087
59196W        W27414  27.520  32.059   0.481
59197W        W27415  26.840  42.456   0.280
59198W        W27416  44.714  40.365   2.777
59199W        W27417  37.175  26.083   1.738
59200W        W27418  25.358  21.083   1.717
59201W        W27419   3.003  24.644  14.461
59202W        W27420  39.433  39.228   2.643
59203W        W27421  43.056  15.835   4.533
59204W        W27422  13.259  16.135   0.917
59205W        W27423  18.160  12.304   9.851
59206W        W27424  34.460   0.512  11.388
59207W        W27425  34.419  25.314  13.388
59208W        W27426  37.941  40.331  11.252
59209W        W27427  30.475  21.600   3.898
59210W        W27428  40.372  13.564  11.243
59211W        W27429  20.325  38.890   2.901
59212W        W27430   0.346   7.746   3.201
59213W        W27431  36.531  44.088  12.062
59214W        W27432  40.338  43.511   0.382
59215W        W27433  14.087   8.709  10.738
59216W        W27434  31.682   7.789  14.127
59217W        W27435  17.320  17.040   4.626
59218W        W27436  31.538   8.336   2.728
59219W        W27437  32.398  15.196  10.782
59220W        W27438  38.846  25.889   4.147
59221W        W27439   4.624   5.918   4.668
59222W        W27440  28.910  31.555  12.812
59223W        W27441   8.625  33.272   3.629
59224W        W27442  32.010  18.825   0.237
59225W        W27443  31.123  30.349   1.773
59226W        W27444  26.615  29.897  12.608
59227W        W27445  27.592  16.184  12.549
59228W        W27446  35.061  12.209  13.768
59229W        W27447  21.742  42.809  10.997
59230W        W27448  13.818   0.687  13.001
59231W        W27449  27.029   6.449   1.807
59232W        W27450   4.192   1.579   0.923
59233W        W27451  14.250  33.954  14.324
59234W        W27452  23.366  12.831   0.413
59235W        W27453  38.868  32.412  10.514
59236W        W27454   6.692   3.943   3.162
59237W        W27455   1.875  21.545   3.259
59238W        W27456  13.733   4.587  12.485
59239W        W27457  23.050  31.908   4.578
59240W        W27458  10.837   1.526   1.940
59241W        W27459  14.458   6.717   0.917
59242W        W27460  11.315  11.164   1.001
59243W        W27461   3.758  12.072  13.076
59244W        W27462  39.310  35.516   0.414
59245W        W27463  13.037  23.058  14.507
59246W        W27464  17.356  17.965  11.447
59247W        W27465  30.217  13.403   3.326
59248W        W27466  29.304  31.594   1.001
59249W        W27467  34.508  35.359   0.820
59250W        W27468   9.847  42.427   2.439
59251W        W27469   5.315  19.265   1.445
59252W        W27470  43.873  10.169   3.372
59253W        W27471  11.422  29.192  10.487
59254W        W27472  23.054  15.312   0.410
59255W        W27473  31.501  19.519  12.660
59256W        W27474   2.774  31.491  12.747
59257W        W27475  38.472  39.027  13.292
59258W        W27476  22.773  36.078   4.771
59259W        W27477  32.398  22.428   3.069
59260W        W27478  20.289  37.998   0.844
59261W        W27479   7.293  10.356   2.672
59262W        W27480  33.653   1.944  13.120
59263W        W27481  20.081  11.770   1.861
59264W        W27482  17.102  31.596   1.873
59265W        W27483   9.125   0.978   1.894
59266W        W27484  29.588  40.414   0.926
59267W        W27485  15.345  10.675  14.774
59268W        W27486   5.518   0.408  14.253
59269W        W27487  28.421  14.713   0.310
59270W        W27488   3.092  17.217   2.640
59271W        W27489   5.805  22.086  13.971
59272W        W27490  13.382  29.515  14.409
59273W        W27491  28.659   5.261  11.058
59274W        W27492  33.467  35.314   0.908
59275W        W27493  20.186  39.155  14.708
59276W        W27494   3.635   5.310   4.095
59277W        W27495  28.155   5.020  14.267
59278W        W27496  31.874   3.653  14.357
59279W        W27497  23.286  43.061   4.523
59280W        W27498   1.733  36.578  14.443
59281W        W27499  17.210  29.512   2.178
59282W        W27500  11.187  18.264  13.571
59283W        W27501  16.562  37.153  11.689
59284W        W27502  25.135   9.763  12.386
59285W        W27503  31.544  41.557  11.487
59286W        W27504   7.116   4.133   4.108
59287W        W27505  10.745  27.434   3.631
59288W        W27506  10.790  14.368  10.650
59289W        W27507   5.432  37.847   2.793
59290W        W27508  11.365  40.463   3.172
59291W        W27509  26.670  19.757   3.799
59292W        W27510  21.143  35.965  10.150
59293W        W27511  10.812  10.291   3.889
59294W        W27512  28.463  20.699  14.528
59295W        W27513  23.982  15.553  12.849
59296W        W27514  32.630  17.672   2.031
59297W        W27515  34.470   1.502  14.820
59298W        W27516  27.778   3.197  10.297
59299W        W27517  39.826  36.145  12.431
59300W        W27518   2.325   8.240  14.804
59301W        W27519  28.776  29.120  12.795
59302W        W27520  10.397  38.341   0.973
59303W        W27521  41.765   2.699  10.399
59304W        W27522   1.229  26.858  12.123
59305W        W27523  29.105  23.051  14.890
59306W        W27524  25.433  24.591   0.361
59307W        W27525  14.542  42.982  14.001
59308W        W27526  10.343  21.081   4.908
59309W        W27527  28.982  32.144  12.136
59310W        W27528  16.201  30.794   0.544
59311W        W27529  19.880  17.171  13.510
59312W        W27530   1.435  12.470  12.352
59313W        W27531  11.387   5.299  14.057
59314W        W27532  17.029  18.573  12.537
59315W        W27533  22.770  35.289  14.489
59316W        W27534  33.389  19.508   0.798
59317W        W27535  15.658  32.446   0.054
59318W        W27536  32.643   6.771  10.725
59319W        W27537   1.380  20.969  10.379
59320W        W27538  41.236  38.062   1.285
59321W        W27539   8.634  43.772   0.321
59322W        W27540  41.733  27.047   2.414
59323W        W27541  26.206  18.241  14.874
59324W        W27542  21.752  35.440   1.944
59325W        W27543  21.647   3.214   2.085
59326W        W27544  17.244  42.505  13.980
59327W        W27545  38.510  16.344   0.987
59328W        W27546  13.846  13.332  12.599
59329W        W27547  23.039  20.540   1.358
59330W        W27548  16.747  11.564  14.827
59331W        W27549  27.044  36.912  10.875
59332W        W27550  39.952  35.048  13.461
59333W        W27551  18.864  12.297  11.043
59334W        W27552  32.149  17.623  13.527
59335W        W27553  42.469   8.220   0.277
59336W        W27554  27.635   9.685  12.693
59337W        W27555  36.462   4.580  12.230
59338W        W27556  20.399   9.327   0.849
59339W        W27557   5.898  15.016  14.382
59340W        W27558   0.661  26.910  12.501
59341W        W27559   8.195  15.960   2.246
59342W        W27560  15.716  41.487  14.748
59343W        W27561  40.292  22.566  10.319
59344W        W27562   4.395  23.254   4.120
59345W        W27563  37.852   6.302  14.039
59346W        W27564  16.772  14.580  13.498
59347W        W27565  42.498  35.105   0.787
59348W        W27566  33.135   5.989   4.059
59349W        W27567  24.451  25.988   1.933
59350W        W27568  14.239  25.015   4.646
59351W        W27569  19.036  21.035  10.270
59352W        W27570  28.074   2.689   2.235
59353W        W27571  43.892  12.512   2.283
59354W        W27572   0.458  19.148  12.403
59355W        W27573  26.821  41.443   3.832
59356W        W27574  36.065  20.514   4.668
59357W        W27575  30.932   2.908  12.974
59358W        W27576  27.808   6.127   0.856
59359W        W27577   3.777  30.567  14.875
59360W        W27578  25.707   1.761   0.706
59361W        W27579  42.407   2.971   4.358
59362W        W27580   4.345  13.905   2.256
59363W        W27581  14.731   6.284   4.605
59364W        W27582   3.416  19.185  13.517
59365W        W27583  40.077  19.968   0.924
59366W        W27584  33.994  14.837  10.665
59367W        W27585  41.059   3.176  12.090
59368W        W27586   0.588  27.213  13.356
59369W        W27587  15.092  35.005   1.593
59370W        W27588  19.661   1.683  14.030
59371W        W27589  26.245  37.590   1.258
59372W        W27590  22.105  20.665   4.087
59373W        W27591  15.840  26.081   4.925
59374W        W27592  35.192  25.521   0.943
59375W        W27593  16.021  12.383   0.913
59376W        W27594  21.562   7.507  13.981
59377W        W27595  14.072  24.772  14.314
59378W        W27596  31.711  27.061  11.602
59379W        W27597   2.045  18.812   0.295
59380W        W27598   0.782  42.716   0.384
59381W        W27599   6.368  14.550   4.204
59382W        W27600  33.966  21.152  10.742
59383W        W27601   8.878  22.479   3.772
59384W        W27602  17.728  43.991  13.360
59385W        W27603  41.498  22.257   3.703
59386W        W27604  31.944   5.626  10.351
59387W        W27605  24.665  37.387   4.246
59388W        W27606  26.604  19.270   0.787
59389W        W27607  39.469  31.420  13.039
59390W        W27608  31.122  26.345   1.235
59391W        W27609   2.710  22.174  11.277
59392W        W27610  43.571  41.494   1.199
59393W        W27611  41.595  26.679  11.927
59394W        W27612  33.905   8.339   4.849
59395W        W27613  11.458   2.271  11.587
59396W        W27614  36.160  44.865   0.861
59397W        W27615   9.688  29.304  11.128
59398W        W27616  15.535  39.215  11.624
59399W        W27617  44.285  22.967  12.549
59400W        W27618  39.135  41.857   0.328
59401W        W27619  33.911   8.438  10.734
59402W        W27620  26.018  38.758   4.375
59403W        W27621  41.511  29.708   2.356
59404W        W27622   9.734   9.712   3.539
59405W        W27623  33.852  30.360   2.714
59406W        W27624  12.354  33.109  14.932
59407W        W27625  34.170  43.356  14.436
59408W        W27626   8.603  19.112  13.033
59409W        W27627  23.581  23.662  14.927
59410W        W27628  14.834  15.238  11.466
59411W        W27629   4.157  29.922  14.362
59412W        W27630  14.138  14.222   1.333
59413W        W27631  24.667  42.782  13.510
59414W        W27632  41.242  30.117  14.155
59415W        W27633   8.115  20.173  10.933
59416W        W27634   0.921   0.443   4.326
59417W        W27635  44.204  44.920  12.664
59418W        W27636  41.562  37.099   0.736
59419W        W27637  10.343  18.358  13.557
59420W        W27638  17.148  25.311  11.261
59421W        W27639  23.971  15.159   1.405
59422W        W27640   5.838  37.948  10.856
59423W        W27641  12.346  28.198  11.434
59424W        W27642  18.601  42.962  14.761
59425W        W27643  21.531  22.752  13.391
59426W        W27644  38.798  41.007  10.242
59427W        W27645  44.346  35.919   1.859
59428W        W27646  31.413   5.684   2.376
59429W        W27647  39.182   1.268   3.684
59430W        W27648  35.343  11.360   3.674
59431W        W27649  31.635  26.464   1.306
59432W        W27650   6.425  39.802   3.477
59433W        W27651  21.593  40.402  11.234
59434W        W27652  12.531  43.291   4.165
59435W        W27653  15.066  13.223  10.725
59436W        W27654  14.328   5.958  13.535
59437W        W27655  35.972  44.037  12.849
59438W        W27656  13.756  10.267  13.915
59439W        W27657   9.368   3.356  10.409
59440W        W27658  10.335  20.540  13.032
59441W        W27659   6.419  15.476  10.552
59442W        W27660   5.408  39.828  14.197
59443W        W27661  36.354  35.506   2.709
59444W        W27662  40.469  20.003  14.163
59445W        W27663  36.439  25.347  13.136
59446W        W27664  41.417  29.466  13.584
59447W        W27665  35.603  38.789  11.913
59448W        W27666  33.950  16.038   1.163
59449W        W27667   9.128  42.769   5.786
59450W        W27668  28.893  36.833   3.119
59451W        W27669   8.461  12.721  12.033
59452W        W27670  14.772  37.755   1.784
59453W        W27671   1.541   7.190   3.751
59454W        W27672  13.145  15.775  11.593
59455W        W27673  36.764   8.096   2.829
59456W        W27674  31.379  32.275  12.026
59457W        W27675  38.611  21.719   0.055
59458W        W27676  15.304  32.705   4.778
59459W        W27677  39.543  25.992   1.735
59460W        W27678  44.467  37.488   1.752
59461W        W27679  20.593  16.390   1.306
59462W        W27680  29.548  35.481   4.696
59463W        W27681   5.040   5.706  14.296
59464W        W27682  35.832   0.942   0.391
59465W        W27683  24.071  25.265   4.250
59466W        W27684  10.575  44.035   0.795
59467W        W27685  16.702  34.912   3.620
59468W        W27686  19.274   7.348   2.829
59469W        W27687  29.051  34.204  13.302
59470W        W27688  23.011  26.063  14.967
59471W        W27689   4.440  32.324  12.101
59472W        W27690  17.565  35.575  14.834
59473W        W27691   5.195  12.089   3.643
59474W        W27692   3.752  26.397   2.835
59475W        W27693   8.709  34.652  11.976
59476W        W27694   7.808  37.094   2.275
59477W        W27695   4.190  42.844  12.359
59478W        W27696  18.722  34.001   5.368
59479W        W27697  25.866   3.771   0.946
59480W        W27698  40.888  30.958   3.855
59481W        W27699   7.668   1.453   1.669
59482W        W27700  37.092  13.967  14.108
59483W        W27701  40.252   9.910   2.343
59484W        W27702  12.276  44.046   3.717
59485W        W27703  18.949  38.940  11.666
59486W        W27704  39.505  40.975   4.508
59487W        W27705  19.842  13.645  11.124
59488W        W27706  13.649  15.103   0.602
59489W        W27707   8.250   0.359  10.921
59490W        W27708  44.751  42.456  11.319
59491W        W27709  16.829  11.740  12.799
59492W        W27710  31.050  21.846  13.386
59493W        W27711  30.513  40.832  12.958
59494W        W27712   1.535   3.509  10.689
59495W        W27713  29.919  41.293  11.590
59496W        W27714  44.334  20.944  10.248
59497W        W27715  11.413  17.436   3.646
59498W        W27716  32.378  28.286  14.201
59499W        W27717  26.502  38.390  11.572
59500W        W27718   7.385  44.814   3.712
59501W        W27719  10.106   4.040   2.316
59502W        W27720  29.387  39.534   3.209
59503W        W27721  41.087   1.523  12.888
59504W        W27722  38.236  25.538  10.887
59505W        W27723   3.471  29.166  12.972
59506W        W27724   2.455  34.012   2.444
59507W        W27725  20.547  32.550   0.852
59508W        W27726  28.546  19.227  14.445
59509W        W27727  39.929  23.880   2.726
59510W        W27728  14.517   5.218  10.779
59511W        W27729  33.567  31.450   0.381
59512W        W27730  16.312   1.465  14.039
59513W        W27731  16.142  18.345  14.956
59514W        W27732  33.456  28.546  10.769
59515W        W27733  28.081  41.822   0.985
59516W        W27734  21.779  17.492  11.121
59517W        W27735  25.679   1.951   5.124
59518W        W27736  15.488  31.949   0.175
59519W        W27737  29.047  19.274  11.635
59520W        W27738   9.362   8.952   3.662
59521W        W27739  17.186   5.059   4.139
59522W        W27740  29.955  15.502  13.517
59523W        W27741   2.919   0.519  14.854
59524W        W27742  25.031  16.280   1.478
59525W        W27743  27.565  23.247   1.550
59526W        W27744  42.981  17.819   0.376
59527W        W27745   5.639  19.427   1.038
59528W        W27746   7.493  11.043   4.007
59529W        W27747  27.668  13.284  12.262
59530W        W27748  26.660  14.796   0.849
59531W        W27749  36.067   1.882   4.196
59532W        W27750   0.869  28.707  11.147
59533W        W27751  39.010  41.345  12.602
59534W        W27752  18.534  35.501  11.590
59535W        W27753  18.759  32.865   2.287
59536W        W27754  36.705   4.279  12.569
59537W        W27755  10.030  29.503  10.795
59538W        W27756  24.623   4.663   0.959
59539W        W27757  22.029   5.604   3.585
59540W        W27758  43.105   7.304  12.919
59541W        W27759   2.800  43.480  10.982
59542W        W27760   1.965  12.188   2.023
59543W        W27761   3.426  34.987  13.426
59544W        W27762  17.544   3.514  12.174
59545W        W27763   8.400  23.791   0.781
59546W        W27764  33.902   2.069   0.886
59547W        W27765  33.111  40.000  13.807
59548W        W27766  10.954   3.232  12.700
59549W        W27767   5.224  10.754  12.427
59550W        W27768  28.331   1.939   1.454
59551W        W27769  33.569  16.556   2.790
59552W        W27770  11.649  24.087  14.733
59553W        W27771  34.538   3.774   0.957
59554W        W27772  30.079  37.147  12.720
59555W        W27773  36.062  16.766   1.313
59556W        W27774   4.244  35.480  11.833
59557W        W27775  37.083  40.968  13.825
59558W        W27776  33.007  10.738   2.028
59559W        W27777  33.819  33.009  13.980
59560W        W27778  22.586  29.136  11.171
59561W        W27779   0.254  24.039  10.742
59562W        W27780  11.833   7.367   3.207
59563W        W27781   7.635  17.330  13.108
59564W        W27782  12.623  34.118  14.295
59565W        W27783  28.957  28.150  10.974
59566W        W27784  30.631  34.361   4.591
59567W        W27785  30.378  16.377   3.270
59568W        W27786  12.122   9.137  13.113
59569W        W27787   1.017  32.701   2.154
59570W        W27788  31.048  26.861   1.274
59571W        W27789   0.914  11.257   3.584
59572W        W27790   6.772  35.969   4.886
59573W        W27791  42.549  28.605  14.030
59574W        W27792  27.786   2.428  13.913
59575W        W27793   1.349  21.513   1.008
59576W        W27794   6.105  36.744   4.795
59577W        W27795  23.169  41.861   0.924
59578W        W27796  32.897  13.634   3.176
59579W        W27797  23.589  20.740   3.636
59580W        W27798  18.898  40.827   2.685
59581W        W27799   3.872  18.563   1.426
59582W        W27800  37.916   1.302   2.488
59583W        W27801  43.259  29.736  13.544
59584W        W27802  33.307  37.826  12.436
59585W        W27803  28.402  23.190   2.680
59586W        W27804  33.599   9.662  13.747
59587W        W27805  33.882   0.378  10.644
59588W        W27806  14.260   1.961   0.913
59589W        W27807  16.324   7.209  12.483
59590W        W27808  11.648  16.191   4.664
59591W        W27809  10.769   1.840  10.689
59592W        W27810  24.477  14.823  10.882
59593W        W27811  12.848  33.866  11.097
59594W        W27812  29.172  27.560  12.118
59595W        W27813  33.785  28.180   4.105
59596W        W27814  22.301   3.386  11.051
59597W        W27815  20.599  16.839   4.069
59598W        W27816  21.055   0.923   4.162
59599W        W27817  15.850  17.053  13.758
59600W        W27818  25.095  30.210   1.334
59601W        W27819   5.278  27.954  14.956
59602W        W27820  21.214  15.104  14.158
59603W        W27821   2.019  16.509  14.376
59604W        W27822   0.492  26.484   1.224
59605W        W27823  44.847   7.561  13.416
59606W        W27824  43.926  27.900  10.678
59607W        W27825  39.735  31.575  11.882
59608W        W27826   4.176  40.553   4.366
59609W        W27827   1.757   1.342  11.170
59610W        W27828  20.699  16.780  10.569
59611W        W27829  13.832  15.549  11.818
59612W        W27830   6.412  17.189   2.218
59613W        W27831  34.740  20.658   4.265
59614W        W27832  31.782   3.521   4.399
59615W        W27833   4.877  31.400  11.187
59616W        W27834  16.355  21.432   0.937
59617W        W27835  33.102  44.921  12.218
59618W        W27836  18.680  16.011  13.110
59619W        W27837  40.976   2.168  12.208
59620W        W27838  24.037   5.024  13.399
59621W        W27839  44.889  30.212   2.754
59622W        W27840   8.132   2.397   0.293
59623W        W27841  21.211  40.020   4.196
59624W        W27842  42.062   2.461  14.398
59625W        W27843  42.771  15.222   2.825
59626W        W27844  12.601  18.219  13.950
59627W        W27845  10.673   3.160   0.023
59628W        W27846  38.182  37.803  10.683
59629W        W27847  27.943  20.741   1.273
59630W        W27848  42.418  29.416   1.218
59631W        W27849  27.885  16.612   2.346
59632W        W27850   2.698  25.208   3.771
59633W        W27851  43.957  39.397   2.858
59634W        W27852  21.523  44.069   3.684
59635W        W27853  41.991  32.037   0.590
59636W        W27854  21.582  16.294  13.879
59637W        W27855  39.743   1.586   3.133
59638W        W27856   9.220  28.077   1.480
59639W        W27857  40.004  38.857  12.661
59640W        W27858   3.315  40.724   2.569
59641W        W27859  12.043  30.507   4.958
59642W        W27860  42.332   0.034   3.252
59643W        W27861   8.322  35.536  13.469
59644W        W27862  40.792  33.573  10.053
59645W        W27863   0.061  40.350   2.216
59646W        W27864  14.381  27.446  13.798
59647W        W27865  23.452  25.679  10.602
59648W        W27866  24.452  37.418   2.849
59649W        W27867  39.855  28.203   1.093
59650W        W27868  20.690  24.050   2.313
59651W        W27869  18.872   9.829   3.305
59652W        W27870  33.892  43.484  12.173
59653W        W27871  31.529  19.618   2.323
59654W        W27872   9.275  18.148  12.362
59655W        W27873   8.763   0.967  14.585
59656W        W27874   4.365  10.219   4.920
59657W        W27875   3.742  40.755   4.514
59658W        W27876   8.278  10.503  14.332
59659W        W27877  20.317  44.718   2.327
59660W        W27878  13.591  11.727   2.739
59661W        W27879  34.776  27.497  11.892
59662W        W27880  21.018  39.577   1.699
59663W        W27881  36.737  20.899   5.048
59664W        W27882  40.996  18.034  13.908
59665W        W27883  28.565  44.895  13.349
59666W        W27884  20.134  44.429  11.526
59667W        W27885  39.570  30.902   3.706
59668W        W27886  24.106  33.852   3.299
59669W        W27887  44.699  25.013  14.953
59670W        W27888  24.606  38.931  10.597
59671W        W27889  35.836  12.905   2.954
59672W        W27890  11.752   9.405   3.169
59673W        W27891  31.111   7.420   0.357
59674W        W27892   3.177   7.655   3.286
59675W        W27893  15.518  36.938   2.808
59676W        W27894  23.671  35.829  11.558
59677W        W27895  18.126  33.202  11.489
59678W        W27896  28.502  31.383   1.346
59679W        W27897  42.942  27.728   3.739
59680W        W27898  27.701   4.933   4.144
59681W        W27899  39.277  44.391   0.447
59682W        W27900  33.163  30.493   0.272
59683W        W27901  12.101   5.549  11.163
59684W        W27902  14.041  28.449   0.368
59685W        W27903  25.089  30.447  14.770
59686W        W27904  11.293  16.376   5.006
59687W        W27905   5.669  17.515   5.058
59688W        W27906  36.063  41.536  11.020
59689W        W27907   0.181  19.766  13.318
59690W        W27908   6.961  18.794  12.213
59691W        W27909  37.846  31.860   4.188
59692W        W27910  29.122  17.615   1.825
59693W        W27911  21.522  17.768  13.910
59694W        W27912  17.376  37.588  11.473
59695W        W27913  23.481  41.984  11.663
59696W        W27914  11.394  33.477   0.462
59697W        W27915  34.855  21.700   4.447
59698W        W27916  16.448  28.045   2.789
59699W        W27917   3.760  10.682   4.459
59700W        W27918  28.370  28.280   1.213
59701W        W27919  19.224   2.953  12.928
59702W        W27920   0.713  17.686  13.112
59703W        W27921   4.258  24.800   4.157
59704W        W27922  10.623  35.078   1.452
59705W        W27923  14.294   2.964  11.066
59706W        W27924  24.548  26.177  11.441
59707W        W27925  25.596  36.321   2.683
59708W        W27926  42.912   5.481   3.613
59709W        W27927  23.309  33.185  13.956
59710W        W27928  24.663  17.161   3.332
59711W        W27929  24.213  18.925  13.505
59712W        W27930  32.839  36.252  12.548
59713W        W27931   5.591  13.544  12.398
59714W        W27932  11.643  18.786   0.484
59715W        W27933   9.651  14.090  12.351
59716W        W27934   6.358  26.230  13.508
59717W        W27935   9.941  35.966   4.095
59718W        W27936  12.295  10.404   2.267
59719W        W27937  32.549  26.555  11.675
59720W        W27938  32.595  28.830  10.829
59721W        W27939  20.364  15.837   5.033
59722W        W27940  13.499  24.146   1.329
59723W        W27941  40.309  14.699  11.229
59724W        W27942  13.119  29.138  11.689
59725W        W27943   4.828  43.538  14.273
59726W        W27944   4.331   8.091  11.189
59727W        W27945   3.479  19.784  14.602
59728W        W27946  20.156  28.093  13.836
59729W        W27947  30.181  34.616   0.894
59730W        W27948  27.019  34.238  14.557
59731W        W27949  38.357   5.270   1.617
59732W        W27950  21.232  24.671   4.788
59733W        W27951  22.731  30.466   4.549
59734W        W27952  11.768  40.427   0.321
59735W        W27953  11.822   8.439  12.844
59736W        W27954  29.512  29.037   4.021
59737W        W27955  35.595  40.147  10.758
59738W        W27956  20.201   8.895  14.050
59739W        W27957  35.444   0.309  14.803
59740W        W27958   9.236  26.490   0.728
59741W        W27959   4.820  23.603   4.190
59742W        W27960  33.149  18.108   3.242
59743W        W27961  37.783  32.514   3.251
59744W        W27962  16.700  44.754   1.710
59745W        W27963  16.849  34.600   1.224
59746W        W27964  10.812   0.450   4.968
59747W        W27965  43.246  38.994   2.300
59748W        W27966  38.913  12.982  14.201
59749W        W27967   9.057  44.369  11.951
59750W        W27968  29.105  37.781  11.153
59751W        W27969  26.496  27.100  12.835
59752W        W27970   4.535  29.983  12.483
59753W        W27971  15.630   9.306   0.964
59754W        W27972  27.574  29.486  10.979
59755W        W27973   7.219   0.395  11.977
59756W        W27974  33.689   8.914  10.465
59757W        W27975  38.939  26.922  11.142
59758W        W27976  39.958  23.638   3.196
59759W        W27977  40.598   4.788   0.758
59760W        W27978  20.276   9.596   0.167
59761W        W27979  27.380  16.649   2.268
59762W        W27980  30.724   0.802   0.638
59763W        W27981   5.418  15.365  14.416
59764W        W27982  21.075  44.318  13.455
59765W        W27983  14.368  39.024  12.448
59766W        W27984  31.399  44.544  13.660
59767W        W27985  34.039  36.550   1.776
59768W        W27986  13.668  32.910   0.788
59769W        W27987  23.203  29.471   1.295
59770W        W27988  23.258  22.173   2.700
59771W        W27989  40.196  14.328   1.037
59772W        W27990  24.529  37.335   4.752
59773W        W27991  13.879  39.797   3.753
59774W        W27992   0.191   5.291  12.338
59775W        W27993  23.185  13.340   4.556
59776W        W27994  27.184  13.764   3.817
59777W        W27995  38.907  17.253  10.743
59778W        W27996   1.886  34.419   4.615
59779W        W27997  13.752  23.727  12.172
59780W        W27998  43.407   0.276  12.553
59781W        W27999   5.884   3.481  11.798
59782W        W28000  22.349  19.604  10.628
59783W        W28001  40.931  32.124  14.362
59784W        W28002   8.372  26.982   3.234
59785W        W28003  30.448  17.354  13.988
59786W        W28004  27.943  12.110   2.358
59787W        W28005  18.784  13.381   2.660
59788W        W28006  23.125   0.058   4.584
59789W        W28007  44.546  30.563  14.632
59790W        W28008  15.656   6.288   4.956
59791W        W28009  44.812  21.623  10.692
59792W        W28010   8.124  22.096   2.123
59793W        W28011   1.050  27.065   0.355
59794W        W28012  13.343   4.748  10.115
59795W        W28013  34.583  13.660  11.968
59796W        W28014  30.020  39.967  13.521
59797W        W28015  27.654  44.262   0.341
59798W        W28016  39.871  20.052  14.815
59799W        W28017  11.098  32.626  13.793
59800W        W28018  18.642   1.742  13.100
59801W        W28019  24.739   1.742   1.272
59802W        W28020  10.857  16.714   0.581
59803W        W28021  24.197  37.626   4.172
59804W        W28022   8.860  26.110   0.746
59805W        W28023  23.057  29.180   2.708
59806W        W28024  21.220  21.534   4.264
59807W        W28025  16.369  20.391   4.714
59808W        W28026  19.221  37.410   2.752
59809W        W28027   0.858   6.883   0.929
59810W        W28028  11.274  39.045  11.713
59811W        W28029   7.230  17.125   4.007
59812W        W28030  11.408  12.223   0.285
59813W        W28031  27.908  28.511   1.369
59814W        W28032  39.612   0.312   2.849
59815W        W28033   7.969  32.387   3.291
59816W        W28034  41.337   9.672  14.418
59817W        W28035  40.019  38.023   3.290
59818W        W28036  20.798  29.667   3.720
59819W        W28037  41.520   5.443  13.060
59820W        W28038   9.164  26.136  13.518
59821W        W28039  19.394  21.245   1.947
59822W        W28040  10.723  11.281  11.992
59823W        W28041  40.412  27.902   0.285
59824W        W28042  20.638  24.304   0.024
59825W        W28043  43.934   3.433  11.569
59826W        W28044  33.902  13.764  11.505
59827W        W28045  16.819   2.909  11.967
59828W        W28046  18.450  38.863  11.628
59829W        W28047  32.936   2.732   0.634
59830W        W28048  20.278  31.640  11.597
59831W        W28049   4.342  31.465  14.447
59832W        W28050   6.773  43.864   0.650
59833W        W28051  15.852  25.775  13.324
59834W        W28052  44.133   3.276   1.813
59835W        W28053   3.252  16.773   0.539
59836W        W28054  10.777  34.019   1.424
59837W        W28055  12.687  23.013  13.568
59838W        W28056  10.153  15.300  13.831
59839W        W28057   6.259  44.216  12.606
59840W        W28058  16.348   8.227  13.712
59841W        W28059  15.087  11.306  11.660
59842W        W28060   0.814   1.416  11.605
59843W        W28061  30.554   4.736   3.622
59844W        W28062  38.614  25.370  10.567
59845W        W28063   6.137  24.581  14.509
59846W        W28064  13.296   7.712  13.671
59847W        W28065  31.564  44.439  12.659
59848W        W28066  19.997  19.144  11.204
59849W        W28067  44.045   6.854  11.169
59850W        W28068  15.595   8.422  13.610
59851W        W28069  23.563   0.287  12.613
59852W        W28070  12.588  38.571   0.462
59853W        W28071  18.629  40.207   3.732
59854W        W28072   6.880  32.658   0.229
59855W        W28073   0.858  39.488   1.825
59856W        W28074  25.254   5.259   2.296
59857W        W28075   4.309  35.593  10.341
59858W        W28076  44.378  10.325   4.155
59859W        W28077   4.411  13.623   4.675
59860W        W28078  33.349  21.568   2.780
59861W        W28079   9.781  16.033   4.185
59862W        W28080   5.211  22.615   3.140
59863W        W28081  15.452  25.510  14.400
59864W        W28082  34.166  34.135   3.675
59865W        W28083   9.971  27.229   3.349
59866W        W28084  20.703  13.989  13.373
59867W        W28085  25.101  17.055   5.123
59868W        W28086  31.315  38.535   3.182
59869W        W28087  18.652  36.082   3.656
59870W        W28088  19.598  30.806   4.176
59871W        W28089  13.261  34.866  12.161
59872W        W28090  42.465   1.548   3.119
59873W        W28091  29.968  35.115  11.094
59874W        W28092  16.625  33.010   0.902
59875W        W28093  26.934  19.122   4.121
59876W        W28094  28.336   7.024  14.811
59877W        W28095   4.109  29.713   1.277
59878W        W28096  33.797  22.117  13.963
59879W        W28097   5.619  33.580  12.042
59880W        W28098  41.595  16.276  12.998
59881W        W28099  21.350   3.858  13.930
59882W        W28100   8.002  22.324   1.034
59883W        W28101  10.152  43.285  11.950
59884W        W28102  20.485  10.666   3.918
59885W        W28103  41.554  34.152   2.303
59886W        W28104   8.859   9.141   4.729
59887W        W28105  12.655  22.066  10.864
59888W        W28106  33.871  30.101   2.229
59889W        W28107  32.577  33.864  11.662
59890W        W28108   3.144  26.033  13.538
59891W        W28109  22.088  22.206   1.340
59892W        W28110  35.811  22.038  14.463
59893W        W28111   2.766  16.697   2.834
59894W        W28112  32.254  33.243  10.305
59895W        W28113  35.897  36.530  13.756
59896W        W28114  28.775   0.872  12.513
59897W        W28115  43.782  34.448  12.971
59898W        W28116  34.404  37.827  13.371
59899W        W28117  34.983  22.299  12.770
59900W        W28118  39.854  39.507  12.307
59901W        W28119  42.189  41.033  12.427
59902W        W28120  38.376  18.555  13.009
59903W        W28121  42.933  28.206   0.768
59904W        W28122  26.010  27.493   4.605
59905W        W28123  23.158   0.831  10.741
59906W        W28124   5.294  30.494   0.248
59907W        W28125  30.962  19.105   2.782
59908W        W28126  32.208  10.301  12.083
59909W        W28127  14.102  16.297   1.142
59910W        W28128  26.504  33.878   3.653
59911W        W28129  13.423  21.964   3.261
59912W        W28130  26.100  14.871  11.746
59913W        W28131  23.648  44.696  14.505
59914W        W28132  29.269  17.108  13.977
59915W        W28133  18.698  28.909  11.681
59916W        W28134  17.371  37.487   2.543
59917W        W28135  36.420  23.694  14.332
59918W        W28136  42.262  17.096   2.459
59919W        W28137  12.392  40.396  13.148
59920W        W28138  16.258  20.856  14.756
59921W        W28139   6.865  28.640   1.593
59922W        W28140  40.098  39.056  12.154
59923W        W28141  39.142  23.153   1.232
59924W        W28142  40.035  36.615  14.302
59925W        W28143  17.534  19.462   1.401
59926W        W28144   2.777  29.985   1.448
59927W        W28145  41.316  44.280   2.907
59928W        W28146  16.225   2.228  11.671
59929W        W28147  36.841   7.760  13.576
59930W        W28148  44.427  24.469   2.711
59931W        W28149  39.445  24.078  13.455
59932W        W28150  41.916   9.770   3.255
59933W        W28151  21.043  15.916  14.771
59934W        W28152  10.150   4.829   3.028
59935W        W28153   6.906  23.212   4.182
59936W        W28154   1.959   9.886   1.743
59937W        W28155   2.564  38.757   4.324
59938W        W28156  40.290  12.975  10.404
59939W        W28157  14.922  16.754   1.341
59940W        W28158  18.919  17.207   4.866
59941W        W28159  33.839  28.529  12.458
59942W        W28160  19.213  20.634  11.970
59943W        W28161  43.865  12.858   0.676
59944W        W28162  33.011  27.460   1.780
59945W        W28163  17.175  19.489   0.792
59946W        W28164   9.514   3.342  14.110
59947W        W28165  20.569  15.684  14.532
59948W        W28166   9.319  39.025  11.502
59949W        W28167  16.850   0.547   2.364
59950W        W28168   5.803  18.278  13.956
59951W        W28169   3.099  11.234  13.125
59952W        W28170   5.783  19.497   2.321
59953W        W28171   7.489  35.305   3.416
59954W        W28172  10.972  14.643  12.445
59955W        W28173  44.366   5.685   4.601
59956W        W28174  37.747  39.802  13.411
59957W        W28175  22.186  26.735   1.972
59958W        W28176  16.777  40.426  12.190
59959W        W28177  33.810  36.992  14.894
59960W        W28178  18.416  13.066   2.340
59961W        W28179  33.910  39.767   2.944
59962W        W28180  29.022  33.057   2.530
59963W        W28181   6.741  21.691  12.883
59964W        W28182  21.680   2.873  13.901
59965W        W28183   7.002  35.057  14.401
59966W        W28184  41.556  41.916   3.264
59967W        W28185  24.985   0.362   0.785
59968W        W28186  15.831  23.923   4.132
59969W        W28187  25.568  19.739  11.605
59970W        W28188   6.592  26.823  12.129
59971W        W28189  30.360  17.549   9.830
59972W        W28190  23.144  21.365   1.790
59973W        W28191  38.119  32.115  11.538
59974W        W28192  22.415  23.538  12.075
59975W        W28193   7.496  23.519   4.711
59976W        W28194  11.663   8.936  12.954
59977W        W28195  15.774   3.802   2.500
59978W        W28196  15.610   5.687  14.522
59979W        W28197   5.386   7.175   3.651
59980W        W28198   7.734   0.536   4.606
59981W        W28199  27.682  38.891  11.238
59982W        W28200   5.486  27.466   3.317
59983W        W28201   8.883  38.408  13.367
59984W        W28202  12.123  21.695  10.529
59985W        W28203  17.999  30.278   1.906
59986W        W28204  20.005  40.961   4.260
59987W        W28205  22.035  43.154   3.616
59988W        W28206  35.075   5.825  10.655
59989W        W28207  40.987  17.539  12.001
59990W        W28208  26.527   2.331  13.203
59991W        W28209  17.548  28.990  14.668
59992W        W28210  19.569  37.854   1.872
59993W        W28211   2.069  29.474   1.968
59994W        W28212   0.945   9.433  11.448
59995W        W28213   9.703  26.486  11.691
59996W        W28214   6.310  10.285   1.171
59997W        W28215  32.130  19.646   2.407
59998W        W28216  25.164  21.800  13.935
59999W        W28217  25.261  22.309  11.591
60000W        W28218   7.329  38.814   3.751
60001W        W28219  35.431  21.027  12.972
60002W        W28220  38.326  20.846   2.846
60003W        W28221  34.007   9.747  11.218
60004W        W28222  27.481  19.010   2.681
60005W        W28223   7.285  31.623   4.577
60006W        W28224   7.091   8.935   1.731
60007W        W28225   9.679  32.227  11.962
60008W        W28226  39.301  30.681   1.317
60009W        W28227   0.337  25.507   0.481
60010W        W28228   8.195  25.400   2.246
60011W        W28229   4.826   3.773   3.734
60012W        W28230  34.615   2.864  11.871
60013W        W28231  27.113  40.423  11.191
60014W        W28232  14.296  38.528  14.249
60015W        W28233  37.758  28.981   1.874
60016W        W28234   3.896  39.389   2.492
60017W        W28235  41.408  14.787  11.271
60018W        W28236  23.225  16.816  12.450
60019W        W28237  39.122  26.833   4.584
60020W        W28238  41.320   4.728   3.572
60021W        W28239  36.839   3.938  10.330
60022W        W28240  26.600  14.432   3.122
60023W        W28241  33.675  12.348  12.602
60024W        W28242   9.910  14.584   0.341
60025W        W28243   0.697  43.034   2.359
60026W        W28244   5.364  11.604  11.922
60027W        W28245  10.123   2.351  13.091
60028W        W28246  15.454   4.300   1.248
60029W        W28247  44.180   3.032  12.056
60030W        W28248  43.378  22.655  12.942
60031W        W28249   6.621  17.346   1.768
60032W        W28250  43.496  12.817   2.167
60033W        W28251  39.953   1.441   0.682
60034W        W28252  35.375  42.114   1.370
60035W        W28253   9.264  44.235  12.407
60036W        W28254  23.164  15.818  10.454
60037W        W28255   0.526  23.707  11.055
60038W        W28256  35.164  17.463  11.988
60039W        W28257  30.397   9.899  11.157
60040W        W28258  44.565  31.779   3.211
60041W        W28259  37.513  36.451   0.430
60042W        W28260  11.979  39.494   1.199
60043W        W28261   8.141  39.073   1.353
60044W        W28262  18.456  44.725  10.378
60045W        W28263   7.195  19.363   2.345
60046W        W28264  29.453  10.580   2.284
60047W        W28265  30.455  23.326   1.262
60048W        W28266  22.810  31.687   0.984
60049W        W28267  33.475  22.188  14.359
60050W        W28268  12.113  33.606   2.204
60051W        W28269  34.699  18.825  14.342
60052W        W28270  26.958  36.427  12.379
60053W        W28271  41.771  29.212  14.553
60054W        W28272  42.245  10.062   2.550
60055W        W28273   3.526   4.967  12.800
60056W        W28274   8.730   7.862  14.855
60057W        W28275   1.349  18.198  10.702
60058W        W28276  18.256  36.103  12.945
60059W        W28277  44.878  32.536  10.441
60060W        W28278   6.942  29.853   4.471
60061W        W28279   4.951  18.998   2.671
60062W        W28280   0.351  26.945  14.802
60063W        W28281  25.231  13.773   0.371
60064W        W28282   1.685  29.053  11.404
60065W        W28283  28.364  25.743  10.849
60066W        W28284  10.455  30.671   4.661
60067W        W28285  41.300  16.551   2.323
60068W        W28286  39.869  43.706   2.484
60069W        W28287   1.845   9.742   4.228
60070W        W28288  29.693  22.804   2.096
60071W        W28289   4.783  33.550   0.565
60072W        W28290  43.537  34.966   4.662
60073W        W28291  33.521  10.725   3.261
60074W        W28292   6.764  31.494   3.419
60075W        W28293  30.222  23.476  13.579
60076W        W28294  33.153  23.504  10.597
60077W        W28295  31.497  20.362   1.985
60078W        W28296  41.535  11.618  10.391
60079W        W28297  20.494   2.792  10.787
60080W        W28298   6.935  15.279   0.033
60081W        W28299  35.510  25.850  10.891
60082W        W28300   7.434  20.077   4.662
60083W        W28301  14.886  37.370   3.319
60084W        W28302  18.890  17.828   1.645
60085W        W28303  28.766  24.660  14.856
60086W        W28304  41.541  30.540   2.872
60087W        W28305  23.916   3.326  10.301
60088W        W28306  33.049  27.080  13.840
60089W        W28307  13.194  23.284   2.467
60090W        W28308  32.638  39.574   3.123
60091W        W28309  34.616  44.736   4.201
60092W        W28310  43.938  15.282   3.772
60093W        W28311  14.016   1.523  13.370
60094W        W28312  31.033  29.667   4.797
60095W        W28313  38.857  39.817   4.628
60096W        W28314   4.723  10.686  11.308
60097W        W28315  31.704  25.132   4.147
60098W        W28316  11.833   1.184   0.749
60099W        W28317  40.545  33.134  14.372
60100W        W28318   2.075  41.234   3.756
60101W        W28319  37.547  15.008   1.281
60102W        W28320  13.245  44.871   4.095
60103W        W28321   9.250  23.342   1.856
60104W        W28322   7.242  42.888   0.492
60105W        W28323  36.827   2.154  12.875
60106W        W28324  17.358  15.369  13.921
60107W        W28325  37.002  41.348  12.429
60108W        W28326   1.992  12.553  12.208
60109W        W28327  39.251  21.771   4.200
60110W        W28328  42.730  43.428   1.850
60111W        W28329  29.142  24.586   3.965
60112W        W28330  31.012  13.090   4.943
60113W        W28331  39.327   6.694   5.006
60114W        W28332  10.404  30.920   5.128
60115W        W28333  10.774  22.327  14.691
60116W        W28334  33.789  23.587  13.965
60117W        W28335  27.601  21.164   3.091
60118W        W28336   6.723  32.833   3.652
60119W        W28337   8.303  14.656   4.537
60120W        W28338  20.213  11.455   1.444
60121W        W28339  43.315  38.013  11.010
60122W        W28340  24.527   2.790  14.451
60123W        W28341   5.566  21.431  11.865
60124W        W28342  26.084  17.695  14.854
60125W        W28343  42.573  44.242   4.839
60126W        W28344  16.876  22.740   1.372
60127W        W28345  26.763  37.057   3.728
60128W        W28346  21.290   5.608  14.008
60129W        W28347   0.758  34.083  12.817
60130W        W28348  34.570  15.941   0.835
60131W        W28349  19.415  31.024  13.563
60132W        W28350  37.487  11.672   3.409
60133W        W28351  30.357  26.511   0.458
60134W        W28352   3.950  14.732   1.055
60135W        W28353  41.552  20.585   3.038
60136W        W28354  30.493  37.753  14.917
60137W        W28355  33.551  28.016  13.643
60138W        W28356  27.053   4.764  13.109
60139W        W28357  30.422   2.293  13.340
60140W        W28358  20.759  28.076  10.728
60141W        W28359  44.931  44.956   1.298
60142W        W28360  22.196  34.553  12.453
60143W        W28361  32.690  41.340   2.234
60144W        W28362  16.518  26.080   2.137
60145W        W28363  21.059   2.195  13.082
60146W        W28364  19.579   1.800   4.396
60147W        W28365  38.413  42.396   4.852
60148W        W28366  13.181  11.815   0.519
60149W        W28367  22.021   7.139   3.696
60150W        W28368  17.238  42.947  13.067
60151W        W28369  24.850  23.396  12.019
60152W        W28370   1.619   1.231   0.663
60153W        W28371  23.127  39.417   3.631
60154W        W28372   8.612  20.811  14.565
60155W        W28373  14.279  39.935   4.259
60156W        W28374  15.656   6.211  14.485
60157W        W28375  39.280  27.891   2.377
60158W        W28376  21.053  29.156  12.293
60159W        W28377  14.861  19.914  11.169
60160W        W28378  33.981  34.872   2.417
60161W        W28379  38.571  14.197  12.190
60162W        W28380  18.640  11.641  13.327
60163W        W28381  32.659  28.567  14.743
60164W        W28382   4.691  21.255  10.147
60165W        W28383  24.075  18.587   3.204
60166W        W28384  20.054  40.962  14.756
60167W        W28385  36.345  24.474  13.070
60168W        W28386   0.489  33.965   4.225
60169W        W28387  38.011  29.443   4.611
60170W        W28388  23.534  31.531   1.461
60171W        W28389  38.128  30.323   1.771
60172W        W28390  34.459  15.297  11.900
60173W        W28391   4.437  32.502  13.101
60174W        W28392  16.822  13.231  14.968
60175W        W28393  35.236   4.666   2.920
60176W        W28394  43.220  43.968  13.899
60177W        W28395   5.181  12.043  13.769
60178W        W28396  18.630  27.151  12.188
60179W        W28397   4.144  38.933   2.362
60180W        W28398   8.832  17.620  10.959
60181W        W28399  34.388  23.230  12.442
60182W        W28400  35.830  30.442  11.975
60183W        W28401  14.061   9.945  11.258
60184W        W28402  19.296   6.275   0.940
60185W        W28403  44.528  21.252   3.121
60186W        W28404  44.438  15.552  10.739
60187W        W28405   4.650  22.716   0.969
60188W        W28406   6.421  43.979   4.643
60189W        W28407  15.009  10.073  11.148
60190W        W28408  18.626   0.252   1.274
60191W        W28409  43.012  30.673  14.420
60192W        W28410   6.179  16.967   0.286
60193W        W28411  34.720  38.450   2.976
60194W        W28412  24.402  12.579  14.432
60195W        W28413  27.720  15.204  13.949
60196W        W28414  30.892  39.326   2.226
60197W        W28415  43.919  38.875  11.616
60198W        W28416   0.431  37.165  12.088
60199W        W28417  43.058  12.062  13.891
60200W        W28418  11.660  10.949   4.714
60201W        W28419  44.708   8.681   0.200
60202W        W28420  30.010  40.989  11.161
60203W        W28421  35.266  23.245  13.366
60204W        W28422  10.309  13.592  10.641
60205W        W28423   7.255  18.121  13.556
60206W        W28424   9.073   0.413  13.092
60207W        W28425  21.603   9.918   1.031
60208W        W28426  38.700  26.072  14.868
60209W        W28427  41.241  21.295  14.651
60210W        W28428  12.679  25.179   1.736
60211W        W28429  34.435  23.496   2.906
60212W        W28430  16.473  42.006  13.959
60213W        W28431  31.581  25.146  13.758
60214W        W28432  35.043  33.219   4.089
60215W        W28433  38.948  18.542  11.601
60216W        W28434   6.108  16.705  12.561
60217W        W28435  17.569  41.522  14.833
60218W        W28436  18.648  17.075  12.958
60219W        W28437  44.499  20.136  11.576
60220W        W28438  29.160   0.640   2.316
60221W        W28439  34.086  21.683   0.210
60222W        W28440  35.613  28.655   3.161
60223W        W28441  12.177   3.639  11.185
60224W        W28442  37.749  22.777   0.923
60225W        W28443  12.125   5.250  14.584
60226W        W28444  38.976  35.977   3.118
60227W        W28445  43.732  40.932   3.472
60228W        W28446   5.391   9.695   4.043
60229W        W28447  11.060  17.744  14.894
60230W        W28448   1.481  27.475  13.363
60231W        W28449  20.234  39.419   0.378
60232W        W28450  37.047  14.546  14.975
60233W        W28451   2.815  27.197  14.917
60234W        W28452   5.321  44.428   5.071
60235W        W28453  32.819  31.746  12.136
60236W        W28454  34.289   6.723  11.557
60237W        W28455  40.741  24.550   1.280
60238W        W28456   1.058  43.452   0.657
60239W        W28457  10.263   2.343   3.216
60240W        W28458  36.990  37.389   0.729
60241W        W28459  25.907   3.908  10.486
60242W        W28460  27.648   3.796  14.383
60243W        W28461  32.361   1.791  13.301
60244W        W28462   4.256  43.473   0.076
60245W        W28463  21.373   2.623   1.667
60246W        W28464  11.205  44.011  10.245
60247W        W28465  30.481  27.078   2.160
60248W        W28466  23.907  28.979   3.003
60249W        W28467  38.084  10.942  13.802
60250W        W28468  40.916  21.257   1.496
60251W        W28469  18.406  37.958   3.633
60252W        W28470  29.025  37.471   4.277
60253W        W28471  18.086   0.618   2.281
60254W        W28472  43.933  26.394  12.537
60255W        W28473  37.430   4.072   2.820
60256W        W28474   6.301  25.956   1.873
60257W        W28475  25.956  29.095  12.058
60258W        W28476  31.056  42.876   2.464
60259W        W28477  31.942  24.754   0.206
60260W        W28478  40.392   8.303  14.948
60261W        W28479  38.450   3.925   5.405
60262W        W28480  35.407  30.018   3.437
60263W        W28481  22.224  43.857  12.509
60264W        W28482  37.871  34.510  13.431
60265W        W28483  37.243   5.569   2.556
60266W        W28484   2.236   7.376  12.940
60267W        W28485   7.556  18.564   3.160
60268W        W28486  30.258  35.294  11.477
60269W        W28487  14.287  20.728   0.377
60270W        W28488   5.321  24.242   1.542
60271W        W28489  19.794   7.681  12.534
60272W        W28490   4.514  28.620  14.893
60273W        W28491  14.469  33.937   0.543
60274W        W28492  17.558  11.720  11.484
60275W        W28493  33.095  22.597   1.474
60276W        W28494  13.349  18.829  12.219
60277W        W28495  43.511  12.316  13.953
60278W        W28496  27.486  25.071   2.857
60279W        W28497  17.473   0.064  12.628
60280W        W28498  13.896  24.686  14.874
60281W        W28499   8.038   5.592   2.227
60282W        W28500   1.295  30.604   0.809
60283W        W28501   2.981   9.695   2.877
60284W        W28502  33.846  17.175   1.806
60285W        W28503   6.916  22.129  11.112
60286W        W28504  31.612   6.375   5.066
60287W        W28505  32.967  10.252  12.784
60288W        W28506  42.374   5.277  12.379
60289W        W28507   1.944  16.761  10.694
60290W        W28508  26.593   4.301   2.699
60291W        W28509  40.304   0.368  13.613
60292W        W28510   7.161  10.644   4.097
60293W        W28511  32.530  41.388   2.735
60294W        W28512  19.152  20.655   2.245
60295W        W28513   7.382  14.919   3.186
60296W        W28514  36.503  26.690  13.620
60297W        W28515  32.628  40.693  12.824
60298W        W28516   2.415   4.296   0.769
60299W        W28517  38.270  23.720  14.983
60300W        W28518  36.849  12.903  13.984
60301W        W28519  18.251   7.649   2.795
60302W        W28520  21.244  42.855  10.848
60303W        W28521  41.106  27.158   2.627
60304W        W28522   9.173  31.415  13.488
60305W        W28523  42.683  15.210  14.312
60306W        W28524  21.229  27.120  14.866
60307W        W28525  30.153  12.151   2.710
60308W        W28526   9.206  25.135   0.549
60309W        W28527  43.900  28.794  13.835
60310W        W28528   1.460  10.753  12.024
60311W        W28529  25.283  33.417  11.071
60312W        W28530  18.146   2.929   4.953
60313W        W28531  18.771  39.868  13.420
60314W        W28532   5.322   3.591  10.458
60315W        W28533  14.124  35.407  10.675
60316W        W28534  28.711  26.485   2.110
60317W        W28535  13.102  17.796   4.883
60318W        W28536  13.803  21.229  14.915
60319W        W28537   8.825   3.894   0.842
60320W        W28538  14.879   7.947  11.511
60321W        W28539  20.987  42.384  10.770
60322W        W28540  24.523  30.478   3.590
60323W        W28541  22.017  37.245  13.045
60324W        W28542  26.157  11.733  11.152
60325W        W28543  33.544  31.521  11.481
60326W        W28544  19.266  26.584   4.405
60327W        W28545  43.447   6.379  12.421
60328W        W28546  18.741  27.277  13.027
60329W        W28547  40.078  44.793  14.399
60330W        W28548  13.819  22.547   3.770
60331W        W28549  15.666  19.733   3.197
60332W        W28550  32.142   9.747   0.694
60333W        W28551   7.293  43.634  12.807
60334W        W28552  17.760  26.687   2.742
60335W        W28553  29.157   2.340  10.476
60336W        W28554  28.687  29.222   4.803
60337W        W28555  31.928  20.489  12.664
60338W        W28556  20.193  25.724   2.802
60339W        W28557  15.299  31.024   0.474
60340W        W28558  26.439  18.498  13.348
60341W        W28559  15.607   1.774   0.390
60342W        W28560   4.728  40.990   1.008
60343W        W28561   4.247   5.853   1.889
60344W        W28562  31.894  41.780   3.317
60345W        W28563  42.048  44.501   2.634
60346W        W28564  12.714  33.596  12.595
60347W        W28565  40.976  10.244   4.793
60348W        W28566  32.056   7.010  13.919
60349W        W28567  40.978  39.398   0.698
60350W        W28568   4.823   8.643   2.386
60351W        W28569  30.693  26.599   2.355
60352W        W28570  26.682  33.632   4.988
60353W        W28571  21.961  15.068   3.232
60354W        W28572  34.813   3.479  13.116
60355W        W28573  39.940   4.373   2.407
60356W        W28574  30.980   3.393   0.497
60357W        W28575  20.201  25.627  11.105
60358W        W28576  22.710  32.832  14.801
60359W        W28577  20.676  31.676  12.437
60360W        W28578  43.361  43.373   2.458
60361W        W28579   6.702  33.346   3.699
60362W        W28580  37.266  15.380   0.383
60363W        W28581  31.064  19.852   0.722
60364W        W28582  31.615  10.682  12.189
60365W        W28583  30.389  26.279  12.978
60366W        W28584  24.329  31.606  12.661
60367W        W28585  25.899   8.879   4.805
60368W        W28586  36.883  33.506   4.914
60369W        W28587   9.836  28.913   1.714
60370W        W28588  25.280  31.426   0.253
60371W        W28589   9.823   1.467  13.961
60372W        W28590  30.906  36.453  11.631
60373W        W28591  33.384   0.846   3.177
60374W        W28592  34.055  33.558  13.920
60375W        W28593  26.788  40.486   1.087
60376W        W28594  10.892  28.715  12.471
60377W        W28595  42.488  27.676   0.391
60378W        W28596  44.291  23.618  14.966
60379W        W28597  13.147  12.400  12.478
60380W        W28598  38.897  13.332   1.894
60381W        W28599   0.299   1.418   0.406
60382W        W28600  35.901  18.660   2.049
60383W        W28601   9.117  18.117  11.849
60384W        W28602  37.446   6.841  10.673
60385W        W28603  13.978  10.311   1.880
60386W        W28604  13.692  43.579  12.040
60387W        W28605  39.565  32.505   4.425
60388W        W28606  26.465  35.037  11.393
60389W        W28607  38.843  28.981  14.961
60390W        W28608  29.512  44.928   4.593
60391W        W28609  39.266  10.494  11.874
60392W        W28610  14.332  19.782  13.813
60393W        W28611  35.463  40.780  12.938
60394W        W28612  16.266  21.562  10.856
60395W        W28613  14.576  33.077  11.720
60396W        W28614   4.594  10.026   5.361
60397W        W28615  13.796  43.782  12.990
60398W        W28616  28.637  31.353   2.724
60399W        W28617   8.190   6.316   4.568
60400W        W28618  44.210   7.932   0.768
60401W        W28619  14.335   5.236   2.857
60402W        W28620  21.725  22.063   1.762
60403W        W28621  17.747  34.061   1.712
60404W        W28622  36.897  41.365   2.639
60405W        W28623  27.140  41.850   3.923
60406W        W28624  22.905  18.154   0.133
60407W        W28625   4.016  34.377  13.185
60408W        W28626  11.075   7.590   0.098
60409W        W28627  12.532  21.480   4.183
60410W        W28628  32.404  38.228  12.644
60411W        W28629  36.581  13.538   3.602
60412W        W28630  34.405  18.751   1.199
60413W        W28631  25.627   1.958  10.582
60414W        W28632  31.242   4.760   2.319
60415W        W28633  13.164  10.297   2.923
60416W        W28634  17.110   8.329  13.282
60417W        W28635  43.456  40.423  13.585
60418W        W28636  13.362  20.994   4.605
60419W        W28637  16.048  14.807   1.814
60420W        W28638  16.710  10.164   0.046
60421W        W28639  20.051  17.581  12.946
60422W        W28640  16.791  22.278   2.162
60423W        W28641  36.492  22.939   2.973
60424W        W28642   7.799  30.406  11.647
60425W        W28643  36.985  15.607   3.324
60426W        W28644  44.182  36.237  14.747
60427W        W28645  44.185  32.793   1.421
60428W        W28646   4.283   7.373   0.877
60429W        W28647  44.135  43.921   1.650
60430W        W28648  44.882  12.920   1.518
60431W        W28649   7.854   1.265  13.342
60432W        W28650  25.557   7.330  10.664
60433W        W28651  13.602   5.460   2.694
60434W        W28652  16.218  38.895   4.567
60435W        W28653  44.955  34.598  14.411
60436W        W28654  36.128  18.220   5.094
60437W        W28655  15.738   2.353  11.847
60438W        W28656  22.455   6.275  12.422
60439W        W28657   6.395  23.003   1.867
60440W        W28658  13.602  21.627  12.228
60441W        W28659   8.731   1.730  10.605
60442W        W28660  14.098  43.083  12.434
60443W        W28661  42.301   8.260   3.879
60444W        W28662   2.299  28.850  14.717
60445W        W28663  20.064  35.511  13.038
60446W        W28664  27.103  44.339  12.840
60447W        W28665  38.540  20.713   0.236
60448W        W28666   3.976   1.986   1.302
60449W        W28667   9.914  33.973   1.769
60450W        W28668  22.834  31.082  14.772
60451W        W28669   6.436  41.779  10.504
60452W        W28670  43.441  22.087  14.275
60453W        W28671  27.661  43.764   0.152
60454W        W28672  28.374  32.056  13.533
60455W        W28673  12.273  40.365   0.459
60456W        W28674   0.531  43.246   2.796
60457W        W28675  30.487  27.222   3.142
60458W        W28676   1.104   7.283  14.210
60459W        W28677  27.971   5.875  14.418
60460W        W28678  18.662  35.073  13.548
60461W        W28679  39.301  44.276   4.654
60462W        W28680  24.306  31.077   1.191
60463W        W28681   8.799  38.109   2.409
60464W        W28682   9.584  43.805   0.662
60465W        W28683   6.020  36.965  14.313
60466W        W28684  21.594  24.610   3.244
60467W        W28685  26.144  22.432   3.879
60468W        W28686  29.968  13.254   1.877
60469W        W28687  33.440  24.572   3.812
60470W        W28688  44.529   0.440  11.076
60471W        W28689  12.235  30.238  10.646
60472W        W28690   3.685  31.425  11.944
60473W        W28691   3.261  43.432   3.934
60474W        W28692  19.285  24.270   1.898
60475W        W28693  13.094  35.322  14.309
60476W        W28694  16.703   2.182  11.480
60477W        W28695   1.432   6.462   4.925
60478W        W28696   6.688  41.447   0.961
60479W        W28697   4.769  26.701  10.272
60480W        W28698  15.522  12.785   3.138
60481W        W28699  42.074  41.340  14.027
60482W        W28700  30.961  29.787   0.923
60483W        W28701  35.300  12.813  12.534
60484W        W28702  38.397  23.142  13.294
60485W        W28703  39.975  28.579   1.498
60486W        W28704   9.221  17.518  13.395
60487W        W28705  28.151  21.176  10.090
60488W        W28706  29.147  26.920   0.392
60489W        W28707  30.842  16.624  10.247
60490W        W28708   9.681  25.923   1.736
60491W        W28709  43.305  10.898  14.766
60492W        W28710  26.694  16.591   0.890
60493W        W28711   1.279  43.361   0.190
60494W        W28712  31.879  26.003   4.570
60495W        W28713  17.623  28.045   4.153
60496W        W28714  19.123  11.092   1.763
60497W        W28715  12.853  40.857  14.106
60498W        W28716   8.307   0.864  10.466
60499W        W28717  36.753  26.669   9.655
60500W        W28718  18.078  35.695  14.273
60501W        W28719  20.314  35.370   2.301
60502W        W28720   9.246  13.170   2.814
60503W        W28721  38.812  40.485   3.267
60504W        W28722  19.957  44.801  11.196
60505W        W28723  37.327  42.562   2.404
60506W        W28724  29.987   2.528  14.808
60507W        W28725  19.473   0.270  13.793
60508W        W28726   3.687  30.146  11.659
60509W        W28727  22.547  14.733   0.227
60510W        W28728   5.927  40.762   2.213
60511W        W28729  20.449  30.376   2.829
60512W        W28730  32.048  13.618   3.090
60513W        W28731   9.607  38.016   3.234
60514W        W28732   6.743   9.611  13.469
60515W        W28733  44.422  17.728   3.274
60516W        W28734   3.865   3.643  13.791
60517W        W28735  21.204   9.761   2.061
60518W        W28736  36.063  32.009   1.479
60519W        W28737  12.598  26.380   4.116
60520W        W28738  28.440  44.959  11.160
60521W        W28739  40.897   0.770   0.740
60522W        W28740  17.394  41.405   1.654
60523W        W28741  21.230  33.412  13.043
60524W        W28742  33.221  27.196   3.124
60525W        W28743  20.164   8.712   0.508
60526W        W28744  26.121  39.070  14.164
60527W        W28745   8.897   8.931   1.475
60528W        W28746  43.417   6.451  11.652
60529W        W28747   2.844  43.099  13.871
60530W        W28748  22.642  28.878   2.838
60531W        W28749  28.389  14.691   1.229
60532W        W28750  16.103  43.984   2.293
60533W        W28751   8.018  32.446  13.986
60534W        W28752  31.965  26.047   1.122
60535W        W28753  18.553  20.500  12.494
60536W        W28754  37.173  41.891  13.989
60537W        W28755  19.644  31.450  13.733
60538W        W28756  27.528   6.663   4.536
60539W        W28757  25.675   6.446   1.756
60540W        W28758  17.984  12.706   0.852
60541W        W28759  18.480  28.566  13.364
60542W        W28760  22.505  15.754  12.930
60543W        W28761  28.388  37.425   3.601
60544W        W28762   6.857  16.693   0.462
60545W        W28763  34.905  12.738  14.066
60546W        W28764  43.846  27.980  14.184
60547W        W28765   3.869  10.665   0.811
60548W        W28766   9.754  32.557   2.192
60549W        W28767  15.743  44.879   2.720
60550W        W28768  35.746  44.636   2.276
60551W        W28769  30.441  43.936  12.086
60552W        W28770  15.130   7.207  10.250
60553W        W28771   1.092  37.433   3.110
60554W        W28772   9.115   1.816   3.146
60555W        W28773  37.070  15.374   2.757
60556W        W28774  14.363  42.988  11.572
60557W        W28775  18.801  39.565  14.287
60558W        W28776  38.933  39.981  11.045
60559W        W28777   3.861  44.330   3.752
60560W        W28778  30.791  41.309   2.237
60561W        W28779   9.082  39.608  13.666
60562W        W28780  37.367  21.805   3.201
60563W        W28781  14.208  20.763   1.448
60564W        W28782  19.977  24.145  11.155
60565W        W28783  21.267  24.172  12.416
60566W        W28784  12.129  31.484   3.252
60567W        W28785  42.641  20.333   4.282
60568W        W28786  27.078  32.286  11.610
60569W        W28787   3.251   7.871   3.739
60570W        W28788   8.821  40.072   3.801
60571W        W28789  34.127   3.882  14.122
60572W        W28790  28.979  33.151   4.641
60573W        W28791   3.907  36.518  12.131
60574W        W28792  14.008  32.212  12.978
60575W        W28793  13.699  11.565  13.387
60576W        W28794  35.095  28.396  14.960
60577W        W28795  21.015  43.370   2.158
60578W        W28796  28.753   4.058  12.016
60579W        W28797  43.946  10.878   4.623
60580W        W28798  12.162  18.814  14.721
60581W        W28799  20.966  15.242   1.865
60582W        W28800  20.140  23.777   1.120
60583W        W28801   9.785   5.241  11.093
60584W        W28802  27.100   0.123   2.423
60585W        W28803  43.288  42.356   3.402
60586W        W28804   9.380  36.458   0.918
60587W        W28805  30.682  25.264   2.315
60588W        W28806  38.109   8.866   0.149
60589W        W28807  18.569   6.297   2.182
60590W        W28808   3.770  29.993  13.943
60591W        W28809  30.036   5.472  14.377
60592W        W28810  44.691  16.624  11.124
60593W        W28811  37.324  31.926  11.183
60594W        W28812  36.542  29.588   1.870
60595W        W28813   9.189   2.460  14.513
60596W        W28814  33.720   2.325  14.328
60597W        W28815  13.694  31.320  11.524
60598W        W28816  34.263  29.228   4.085
60599W        W28817   7.349  17.686  13.833
60600W        W28818   6.714  21.119   4.518
60601W        W28819  32.884  18.107   2.194
60602W        W28820   6.917  21.658  12.385
60603W        W28821  17.567  40.095  12.757
60604W        W28822   6.772  43.608   5.084
60605W        W28823  31.046  12.358   1.113
60606W        W28824  22.504   8.835  10.660
60607W        W28825  11.584   8.963   3.424
60608W        W28826   6.677   7.696  10.638
60609W        W28827  34.204  30.965   4.494
60610W        W28828  28.193  12.833   3.223
60611W        W28829   9.876  30.409   0.303
60612W        W28830  33.291  31.042  11.047
60613W        W28831  22.966  24.003  12.472
60614W        W28832   2.530   1.528   0.498
60615W        W28833  25.509  14.162   5.085
60616W        W28834   8.638  18.669  12.404
60617W        W28835  15.680   4.838   1.257
60618W        W28836  18.286  17.237  14.358
60619W        W28837  18.168  18.540   3.898
60620W        W28838  43.335   1.737  11.170
60621W        W28839  14.033  19.007   0.990
60622W        W28840  31.971   6.507   0.714
60623W        W28841  17.039  14.331  13.878
60624W        W28842  39.761   0.257  14.497
60625W        W28843  14.595  27.419  14.658
60626W        W28844  40.663  27.890  12.911
60627W        W28845   3.418  29.418  13.416
60628W        W28846  34.435  13.042  13.450
60629W        W28847  39.581  19.079   0.345
60630W        W28848   0.839  13.776   2.450
60631W        W28849  28.949  27.423  11.668
60632W        W28850   7.866   6.417  12.921
60633W        W28851   8.673  43.431   4.554
60634W        W28852  43.405  25.103   1.727
60635W        W28853  34.412   3.311   3.714
60636W        W28854   4.638   7.808  13.003
60637W        W28855  21.762   1.084  13.603
60638W        W28856  22.727  35.670  12.606
60639W        W28857  24.472   0.620   2.760
60640W        W28858  27.169  37.960  10.681
60641W        W28859  17.313  20.801  10.582
60642W        W28860  28.095  13.316   1.027
60643W        W28861  35.324   8.781   0.448
60644W        W28862   0.828  35.405  12.222
60645W        W28863  10.160  40.788   1.820
60646W        W28864  43.584   5.675  11.200
60647W        W28865  37.888   9.748  14.237
60648W        W28866   4.345  19.201   0.535
60649W        W28867  18.895  30.107  12.983
60650W        W28868  25.515  28.386   3.416
60651W        W28869  44.520  26.694  10.351
60652W        W28870  20.492  36.945  14.521
60653W        W28871   0.382  19.159  10.540
60654W        W28872   8.580  26.958  11.137
60655W        W28873   1.629  35.531  13.415
60656W        W28874  24.275  29.400   2.155
60657W        W28875  31.132   9.330  13.265
60658W        W28876  40.352  32.521   1.546
60659W        W28877  22.589  41.488   0.442
60660W        W28878  14.699   6.725   0.013
60661W        W28879  26.990   8.791  10.751
60662W        W28880  32.353  28.127   2.223
60663W        W28881  13.154   7.153   0.774
60664W        W28882  13.223  28.444  13.045
60665W        W28883   1.319  11.124  14.517
60666W        W28884  37.990  35.209  13.885
60667W        W28885  18.454  25.858   2.391
60668W        W28886  29.125   5.648   4.140
60669W        W28887  36.492  16.603  12.527
60670W        W28888  44.752   6.318   0.723
60671W        W28889  14.634  18.041   1.850
60672W        W28890  31.791  23.802   1.259
60673W        W28891  15.051  43.059  13.931
60674W        W28892  17.367  26.968   3.689
60675W        W28893   7.335  24.039   1.752
60676W        W28894  38.123  17.185   3.148
60677W        W28895  30.339   6.355   1.331
60678W        W28896  28.845  28.949   0.513
60679W        W28897   6.572  32.642  10.566
60680W        W28898  14.283  35.359  11.528
60681W        W28899   6.971  11.075   2.276
60682W        W28900  12.660   9.121  12.453
60683W        W28901   7.879   9.247   1.409
60684W        W28902   4.926  26.440   1.421
60685W        W28903  22.140  17.818  14.471
60686W        W28904  28.650  23.253   4.669
60687W        W28905  39.347  26.104  12.839
60688W        W28906  43.454  17.974   3.981
60689W        W28907  23.741  21.579   3.218
60690W        W28908  31.369  32.840  11.189
60691W        W28909  37.082  21.654  10.431
60692W        W28910  32.946  14.096  11.102
60693W        W28911  36.814  18.304  12.389
60694W        W28912  17.773  10.773   3.630
60695W        W28913  31.659  22.957   4.825
60696W        W28914  20.190  24.754   1.707
60697W        W28915  32.952  19.702   3.720
60698W        W28916  11.688  39.752   1.800
60699W        W28917  15.518  32.814  14.244
60700W        W28918  44.166  39.874  12.562
60701W        W28919  16.062   9.048   0.686
60702W        W28920  34.356  20.593  12.422
60703W        W28921  19.098  16.989   1.418
60704W        W28922   4.303  16.071  13.444
60705W        W28923  41.383  44.243  14.049
60706W        W28924   3.434  29.412   2.635
60707W        W28925  13.273   7.702   4.264
60708W        W28926  13.049  18.265  14.503
60709W        W28927  36.339  37.998   0.448
60710W        W28928  33.761  32.783  13.448
60711W        W28929  25.760   0.966  12.932
60712W        W28930  10.138   9.953  13.089
60713W        W28931  24.664  27.943   3.634
60714W        W28932  20.736   6.707  11.632
60715W        W28933  12.434   2.263   2.296
60716W        W28934  42.299  39.165  12.694
60717W        W28935  39.588  13.773  11.598
60718W        W28936  42.506  10.284  14.346
60719W        W28937   1.340  37.363  12.901
60720W        W28938   9.776  17.470  11.225
60721W        W28939  29.021  37.168  12.021
60722W        W28940  38.273   0.382   0.367
60723W        W28941   7.219   9.843   4.106
60724W        W28942  41.940   9.146  13.899
60725W        W28943   9.874   9.394   2.313
60726W        W28944  27.164  40.494   1.898
60727W        W28945  14.848  16.219  13.123
60728W        W28946   7.893  12.308  12.503
60729W        W28947  31.920  12.240  10.660
60730W        W28948  38.030  27.595   1.318
60731W        W28949  25.119   5.294   1.334
60732W        W28950   3.330  44.512   2.012
60733W        W28951  44.332  28.553   2.582
60734W        W28952  22.315  13.220   2.253
60735W        W28953  21.219  13.399   0.370
60736W        W28954  32.075  22.260   3.825
60737W        W28955   2.003  44.766  13.466
60738W        W28956  41.107  20.863   5.219
60739W        W28957  29.463  25.124  14.324
60740W        W28958   4.276   7.707  14.852
60741W        W28959  10.822  43.905   0.358
60742W        W28960  13.689  18.971  12.982
60743W        W28961  26.666  18.101  12.992
60744W        W28962  13.508  19.308   1.376
60745W        W28963  11.181  34.993  10.778
60746W        W28964  19.507   7.881   2.240
60747W        W28965   3.204  39.375   3.873
60748W        W28966  36.550  12.668  14.851
60749W        W28967  25.140  10.222  13.080
60750W        W28968  41.043  20.539   1.027
60751W        W28969  14.357  22.100  12.265
60752W        W28970   7.892  15.755   0.270
60753W        W28971   3.165  37.325   2.319
60754W        W28972  14.310  43.850  12.903
60755W        W28973   0.382  42.204   2.628
60756W        W28974  35.480  26.585  14.903
60757W        W28975  34.484  26.948   3.659
60758W        W28976   8.284  35.121   1.154
60759W        W28977  29.972  12.619   4.542
60760W        W28978  38.850  30.518  13.897
60761W        W28979   9.827  41.600   1.729
60762W        W28980  39.900  13.365  11.379
60763W        W28981  35.545   2.457   4.997
60764W        W28982  44.362   9.157  11.522
60765W        W28983  15.110  21.606   2.165
60766W        W28984  44.185   3.751  12.521
60767W        W28985  27.606  19.694  12.867
60768W        W28986  41.337  20.713  12.251
60769W        W28987   1.867  31.129  11.496
60770W        W28988  17.547  24.940  13.466
60771W        W28989  10.014  13.664   2.615
60772W        W28990  19.727  17.886   0.256
60773W        W28991  26.036  12.224  12.381
60774W        W28992  17.984  44.774  11.451
60775W        W28993  15.325  14.844  12.529
60776W        W28994  39.398  14.280   1.769
60777W        W28995  20.208  33.565  12.811
60778W        W28996  16.161  16.271   3.303
60779W        W28997  12.892  25.302  11.762
60780W        W28998  31.223  20.762  12.872
60781W        W28999   0.773  21.056  13.971
60782W        W29000  26.105  40.030  14.430
60783W        W29001  41.351   0.273  11.044
60784W        W29002  10.905  22.025   0.742
60785W        W29003  30.440  19.224  11.613
60786W        W29004  38.098  27.265   3.229
60787W        W29005  25.670  21.176   0.709
60788W        W29006  43.977   3.959   1.639
60789W        W29007  29.690  39.221  12.972
60790W        W29008  32.972  28.954   2.104
60791W        W29009  42.655   6.463  12.077
60792W        W29010  30.443  14.299  14.319
60793W        W29011   4.219  32.352   4.320
60794W        W29012   5.312  19.576  14.432
60795W        W29013  24.545  28.657   1.813
60796W        W29014  25.667  44.843  12.174
60797W        W29015  18.255  16.791   1.908
60798W        W29016  40.767  28.640  11.406
60799W        W29017  26.646  37.962  14.964
60800W        W29018  15.848  27.513   0.456
60801W        W29019   0.513  23.427  12.758
60802W        W29020  23.264  20.195   1.004
60803W        W29021  28.698  27.024   2.223
60804W        W29022  12.522   1.953   4.537
60805W        W29023  30.935  32.921   2.389
60806W        W29024  20.545  28.538   4.627
60807W        W29025  26.190  10.689   3.273
60808W        W29026  23.208  40.345   0.455
60809W        W29027   6.923  41.881   0.772
60810W        W29028  42.024  15.813   4.497
60811W        W29029  43.698   3.343  12.896
60812W        W29030  18.512  22.099  14.043
60813W        W29031  33.414  26.206  10.217
60814W        W29032  27.251  43.131   3.547
60815W        W29033  37.853  19.560   0.505
60816W        W29034  44.713  11.168   0.654
60817W        W29035  23.544  44.390   2.822
60818W        W29036  27.994  41.899  12.138
60819W        W29037  37.041  15.182   1.354
60820W        W29038  21.340  10.280  10.724
60821W        W29039   9.779  20.116   2.034
60822W        W29040  21.995  30.933   4.474
60823W        W29041   1.727   3.334   3.648
60824W        W29042  44.540  10.001  12.282
60825W        W29043  13.799  24.122  14.379
60826W        W29044  30.177  27.923  13.048
60827W        W29045  32.418  27.652  13.476
60828W        W29046   1.766  25.032  12.593
60829W        W29047  16.144  28.811  14.383
60830W        W29048   5.321  41.257   3.922
60831W        W29049  33.381  33.880  13.789
60832W        W29050   1.867   4.259  13.813
60833W        W29051  43.615  42.315  13.467
60834W        W29052  11.398  37.944   3.730
60835W        W29053  22.024  20.089   2.284
60836W        W29054  37.445  14.538   0.977
60837W        W29055  40.114  31.910  14.314
60838W        W29056   0.813  14.336   3.231
60839W        W29057  43.726   0.812   4.117
60840W        W29058   8.213   7.482  13.478
60841W        W29059   8.850   3.749   1.894
60842W        W29060  10.800  32.833  13.093
60843W        W29061  17.574  12.642   5.449
60844W        W29062  24.998  19.976   2.202
60845W        W29063   0.887  33.489  10.611
60846W        W29064   1.908  35.606   0.051
60847W        W29065  23.059  15.602  14.731
60848W        W29066  20.123  18.599  13.847
60849W        W29067   7.867  31.381   4.095
60850W        W29068  40.010  37.482  12.903
60851W        W29069   8.196   5.283  11.719
60852W        W29070  30.983  40.407  11.185
60853W        W29071   0.480  32.290   1.016
60854W        W29072  23.553  16.813   2.383
60855W        W29073  15.272  27.877   0.754
60856W        W29074  13.600   8.908   2.404
60857W        W29075  23.714  19.839  13.080
60858W        W29076   6.100  42.438   1.800
60859W        W29077  43.020  35.368  11.030
60860W        W29078  28.876  35.876  13.438
60861W        W29079   2.847  29.939   2.460
60862W        W29080   0.471  41.389   3.596
60863W        W29081   1.906  29.033  13.109
60864W        W29082   6.484  10.733   4.571
60865W        W29083   8.697  11.322  11.948
60866W        W29084  29.048  19.028   3.771
60867W        W29085  15.358   7.282  13.051
60868W        W29086  17.124  23.422   4.870
60869W        W29087  40.464   6.365  11.163
60870W        W29088   6.952   7.727   2.234
60871W        W29089   6.167  14.076  10.759
60872W        W29090  22.039  32.679  14.844
60873W        W29091  29.546  33.129   4.153
60874W        W29092  18.145  30.244  11.415
60875W        W29093  34.061  40.310   1.191
60876W        W29094  41.502  44.423   3.407
60877W        W29095  38.623  24.599  14.873
60878W        W29096  16.353  37.482   3.625
60879W        W29097   2.245  36.399  12.467
60880W        W29098   8.671  38.437  12.532
60881W        W29099   8.412  15.655  11.161
60882W        W29100  19.236   9.359  12.631
60883W        W29101  41.134  28.058   2.144
60884W        W29102  19.492  36.072  12.479
60885W        W29103  25.132  32.330  11.636
60886W        W29104   0.297  18.837   0.816
60887W        W29105   6.766  38.412  10.889
60888W        W29106  13.617  35.904   2.792
60889W        W29107  12.810  27.663  13.003
60890W        W29108  12.090  40.454  13.995
60891W        W29109  26.171  40.373  14.835
60892W        W29110  16.663  13.842   2.303
60893W        W29111  13.176  20.047   4.167
60894W        W29112  37.571  13.313   0.321
60895W        W29113   5.959   8.376   3.590
60896W        W29114  19.976  35.955  13.322
60897W        W29115  38.741  44.607  13.135
60898W        W29116   8.325  18.173   5.371
60899W        W29117  36.139   0.819  14.950
60900W        W29118  32.896   6.790  13.759
60901W        W29119  19.876  32.819  10.150
60902W        W29120  41.866  40.990   4.584
60903W        W29121  30.605  37.282  12.818
60904W        W29122  37.805  26.904   1.890
60905W        W29123  13.685   4.000  13.553
60906W        W29124  16.178  21.866  13.007
60907W        W29125  41.913  14.277   3.090
60908W        W29126  33.518   5.128   1.615
60909W        W29127  25.133   7.199  11.948
60910W        W29128   5.797   2.970  11.702
60911W        W29129  42.793  17.209   2.665
60912W        W29130  42.887  17.265  10.683
60913W        W29131  44.969  13.151   0.270
60914W        W29132  25.872  28.574  14.496
60915W        W29133  25.171  13.114   1.372
60916W        W29134  13.573  22.037   4.658
60917W        W29135  10.209   4.185  13.582
60918W        W29136  31.323  20.712   3.402
60919W        W29137   0.886  37.582  13.036
60920W        W29138   2.849  26.599  14.866
60921W        W29139   4.371  37.464   1.902
60922W        W29140  18.182   3.727   0.369
60923W        W29141  19.316  30.916  14.706
60924W        W29142   8.925  36.790   4.319
60925W        W29143  14.701   6.500  14.225
60926W        W29144   9.314  11.620  11.562
60927W        W29145   1.348  14.771  12.607
60928W        W29146  21.825  26.988  13.662
60929W        W29147  11.828   3.934  12.094
60930W        W29148  10.663  10.792  11.851
60931W        W29149  43.461   6.959   4.439
60932W        W29150   6.257  33.867  14.087
60933W        W29151  26.362  35.081   4.566
60934W        W29152  41.082  13.171   3.715
60935W        W29153   4.646  20.293  13.447
60936W        W29154   5.406  35.016   4.630
60937W        W29155  21.779  39.961   0.755
60938W        W29156  39.537  43.045  13.543
60939W        W29157   4.455   5.810   2.406
60940W        W29158  12.357   7.717   4.261
60941W        W29159  10.450  35.863  12.201
60942W        W29160  35.089  14.947   1.344
60943W        W29161  25.671  23.735   2.011
60944W        W29162  28.707   0.003   0.206
60945W        W29163  30.348  37.068   0.866
60946W        W29164  15.331  27.898  14.935
60947W        W29165  21.945  24.121   3.615
60948W        W29166   2.842   0.382   1.695
60949W        W29167  24.482  13.324   1.647
60950W        W29168  14.363  38.606   9.930
60951W        W29169  21.305  25.978  12.863
60952W        W29170  34.141  17.182  14.453
60953W        W29171  39.936  33.889  13.493
60954W        W29172  13.107  44.788   3.203
60955W        W29173  41.832  25.536   2.725
60956W        W29174  13.308  19.535   4.145
60957W        W29175  13.467   3.059  14.701
60958W        W29176   9.003   4.170  11.843
60959W        W29177  25.737  36.947  12.327
60960W        W29178  31.964   0.276  11.732
60961W        W29179  39.284  32.933   4.679
60962W        W29180  37.546  21.046   2.162
60963W        W29181  28.101  29.676  13.476
60964W        W29182   1.396  43.725  10.695
60965W        W29183  26.047  30.691  11.932
60966W        W29184  37.587  30.993   3.567
60967W        W29185   1.626  12.907  12.125
60968W        W29186  44.183  11.210   2.734
60969W        W29187  28.950  13.790  14.263
60970W        W29188   9.449  19.588  10.687
60971W        W29189  29.178  11.869   3.644
60972W        W29190  26.600  34.319  13.931
60973W        W29191  24.929  31.468  10.684
60974W        W29192  29.973  24.050   3.734
60975W        W29193  36.794  21.201  13.002
60976W        W29194  40.307  20.085  12.868
60977W        W29195  42.879  29.236   2.204
60978W        W29196   4.101  27.187   4.091
60979W        W29197  42.492  23.344  13.552
60980W        W29198  16.604  14.201  14.840
60981W        W29199  13.160  24.622   3.747
60982W        W29200  23.859  39.797  13.968
60983W        W29201   2.743   1.114   3.973
60984W        W29202  16.608  37.960   1.696
60985W        W29203  34.644  21.234   1.375
60986W        W29204  20.029   9.884   1.717
60987W        W29205  16.141  21.470   3.849
60988W        W29206  41.770  24.213  11.362
60989W        W29207   7.682  11.915  11.175
60990W        W29208  22.595  15.135  10.687
60991W        W29209   4.883  35.426  11.141
60992W        W29210  29.559  31.521  14.033
60993W        W29211  12.191  15.498   2.344
60994W        W29212  36.004  18.478  12.359
60995W        W29213  24.282  40.978   0.859
60996W        W29214   3.245   0.294  11.344
60997W        W29215   3.052   4.815   3.603
60998W        W29216  17.402  21.027  12.269
60999W        W29217  19.630   2.984  13.578
61000W        W29218  42.981   1.990   1.919
61001W        W29219  14.843  34.902   2.733
61002W        W29220   7.693  23.928  13.918
61003W        W29221  25.845  11.698   4.818
61004W        W29222  37.120   2.647  11.111
61005W        W29223  30.881  15.399  13.420
61006W        W29224  20.893   3.700  10.977
61007W        W29225  18.245  37.689   3.206
61008W        W29226  35.686  25.628  14.598
61009W        W29227  44.801   4.566  12.911
61010W        W29228  40.993   8.414  10.774
61011W        W29229  30.094   9.108   2.901
61012W        W29230  29.493  26.064  12.924
61013W        W29231   4.097  40.403   3.334
61014W        W29232  20.115   4.201  14.420
61015W        W29233   9.747  35.860   2.636
61016W        W29234  33.628  14.927  12.882
61017W        W29235  30.646  25.594   0.771
61018W        W29236  12.932  14.916  12.500
61019W        W29237  38.620  40.903   1.726
61020W        W29238  23.276  24.729  13.274
61021W        W29239  17.566  12.746   4.334
61022W        W29240  29.352   8.178  13.321
61023W        W29241  20.838  36.517   1.479
61024W        W29242  25.295  40.066   3.239
61025W        W29243  20.128   5.555  13.212
61026W        W29244  30.087   2.333   1.766
61027W        W29245  30.305  40.579   1.279
61028W        W29246   6.765  41.928   2.267
61029W        W29247  25.521  24.828   3.654
61030W        W29248  15.315  10.290   3.691
61031W        W29249  39.533   4.915  14.926
61032W        W29250  19.183  26.471  12.980
61033W        W29251  27.600   1.232  13.928
61034W        W29252  41.404  17.737  12.233
61035W        W29253  19.294  15.895   4.354
61036W        W29254  32.489   9.296   4.384
61037W        W29255  15.138   7.836   2.141
61038W        W29256  34.809  20.731  11.531
61039W        W29257  10.153  23.127  11.943
61040W        W29258  12.281  42.801   1.469
61041W        W29259  32.570   2.794   4.930
61042W        W29260  17.107  22.425  10.703
61043W        W29261  24.247  15.589   3.633
61044W        W29262  20.701  26.999  12.085
61045W        W29263  18.798  31.727   0.740
61046W        W29264   2.886  19.522   2.151
61047W        W29265  34.638  25.655  14.506
61048W        W29266  42.304  22.330   1.834
61049W        W29267   0.517   9.479   2.682
61050W        W29268   5.834  10.846   0.384
61051W        W29269  41.884  15.468  11.619
61052W        W29270  34.677  15.314   3.864
61053W        W29271  44.971  14.191  13.080
61054W        W29272   2.928  17.125  14.353
61055W        W29273   9.148  30.196   4.029
61056W        W29274  10.311  20.057   3.187
61057W        W29275  24.462  16.442  14.561
61058W        W29276  22.582  16.762   2.061
61059W        W29277  24.898  19.660  13.993
61060W        W29278   0.671  28.043   0.900
61061W        W29279   7.357  40.594   3.049
61062W        W29280  35.341  40.928   3.176
61063W        W29281   8.039   7.805  11.534
61064W        W29282  38.043  14.221   4.157
61065W        W29283  26.957  16.668   4.530
61066W        W29284   8.187  17.681   0.360
61067W        W29285  19.981  17.979  11.621
61068W        W29286  14.884  24.520  10.630
61069W        W29287  20.430   0.770  13.486
61070W        W29288  42.802  12.904   4.372
61071W        W29289  27.732  35.008   4.107
61072W        W29290   4.576   6.029   0.849
61073W        W29291  10.889  27.914  12.930
61074W        W29292   1.705  27.679   1.995
61075W        W29293   8.867  16.744  11.521
61076W        W29294  24.068  40.932   3.126
61077W        W29295  35.047  29.522   2.150
61078W        W29296   0.993  22.140  14.395
61079W        W29297  16.652  29.444   0.428
61080W        W29298  34.335  32.596   0.366
61081W        W29299  36.832  37.934  13.010
61082W        W29300   5.821   5.904   4.655
61083W        W29301  29.325  28.504   4.902
61084W        W29302  32.868  38.019  10.318
61085W        W29303  23.740  22.795  10.219
61086W        W29304  13.708  20.498  14.322
61087W        W29305  17.504  20.076   3.631
61088W        W29306  15.118  13.618   4.537
61089W        W29307   6.870  16.984   2.349
61090W        W29308   2.406  41.332   0.023
61091W        W29309  24.272  17.254  14.079
61092W        W29310  18.356   4.757   2.918
61093W        W29311  43.975   3.786   3.082
61094W        W29312   8.408  19.119  13.987
61095W        W29313   3.977  31.612  13.006
61096W        W29314   9.741  17.752   3.258
61097W        W29315   6.907  16.127  14.787
61098W        W29316   1.506  43.997  14.382
61099W        W29317  26.170  29.109   1.458
61100W        W29318  26.039   0.945  14.307
61101W        W29319  26.016  41.750  10.542
61102W        W29320  10.682  22.230  11.241
61103W        W29321  13.843  10.353  11.997
61104W        W29322  38.889  33.097   1.894
61105W        W29323   1.774  42.077  14.793
61106W        W29324  19.980  16.356   3.780
61107W        W29325  39.003  24.989  11.208
61108W        W29326  39.014  12.547   1.395
61109W        W29327  38.115  41.519  14.902
61110W        W29328   0.730  43.027  10.764
61111W        W29329  24.910  26.196  13.160
61112W        W29330  14.751  40.969  13.562
61113W        W29331  31.452  13.845  14.329
61114W        W29332   5.786   3.758  14.577
61115W        W29333  32.489  16.259  13.498
61116W        W29334  36.606  41.428  11.100
61117W        W29335  11.338   1.112   3.881
61118W        W29336  13.048  43.462   3.669
61119W        W29337  19.450  18.039  11.723
61120W        W29338  17.121  29.991  14.763
61121W        W29339  26.609  37.881   2.224
61122W        W29340  35.379  34.461   1.679
61123W        W29341  44.894  38.423   1.666
61124W        W29342  30.768  43.594  13.005
61125W        W29343   2.823   7.339  14.527
61126W        W29344  20.437  31.410  14.747
61127W        W29345  37.535  40.713  13.592
61128W        W29346   0.694  31.948   2.416
61129W        W29347  10.812  18.625   1.400
61130W        W29348  39.665  31.594   0.720
61131W        W29349  37.998   1.829   3.826
61132W        W29350  29.429  27.149  11.917
61133W        W29351   0.391  21.971   1.340
61134W        W29352  26.123   1.949   0.955
61135W        W29353   0.292  36.130  13.428
61136W        W29354  43.895  12.015   2.172
61137W        W29355  37.994   3.790   2.236
61138W        W29356  29.636  32.639   1.837
61139W        W29357  42.485   9.847  14.963
61140W        W29358  38.009  43.083   3.864
61141W        W29359   8.146  19.631   3.608
61142W        W29360  24.028  40.309  12.979
61143W        W29361   0.157  42.708  11.537
61144W        W29362  39.581  40.492  14.467
61145W        W29363  42.447  19.362   1.470
61146W        W29364  28.658   9.358   1.143
61147W        W29365   8.758   4.101  10.654
61148W        W29366  22.552   4.395   2.627
61149W        W29367  20.577  25.572   1.145
61150W        W29368  36.746  31.635  13.888
61151W        W29369   7.216  30.436  13.352
61152W        W29370  33.977  40.854  13.563
61153W        W29371  23.641  18.755   4.872
61154W        W29372   4.028  38.698   0.273
61155W        W29373  21.515  31.241  10.803
61156W        W29374  26.750  40.861  13.490
61157W        W29375  24.376  26.684   0.060
61158W        W29376  31.283  13.882  10.341
61159W        W29377  20.819   3.905  14.055
61160W        W29378   3.832  38.351  14.842
61161W        W29379  39.721   6.860   2.003
61162W        W29380  38.408   4.431   3.725
61163W        W29381  12.513  25.045   2.424
61164W        W29382  12.998  25.576   2.502
61165W        W29383   2.275  43.878  10.715
61166W        W29384  15.757   9.644  14.246
61167W        W29385   4.982   3.298   0.236
61168W        W29386  20.353  25.677   4.729
61169W        W29387  12.604  15.377   2.030
61170W        W29388  19.199  37.345   0.349
61171W        W29389  15.198  43.725   2.756
61172W        W29390  12.180  38.736   0.178
61173W        W29391  40.710  32.987   2.716
61174W        W29392   0.148  20.096   3.742
61175W        W29393   1.662  11.552   3.691
61176W        W29394  35.121  26.604  11.167
61177W        W29395   3.930  15.990   4.742
61178W        W29396  12.679  29.986   3.889
61179W        W29397  38.526  22.198   3.458
61180W        W29398  20.712  27.659   0.414
61181W        W29399  21.618  27.590  12.982
61182W        W29400  26.345   9.803   3.751
61183W        W29401  16.949  40.652  11.388
61184W        W29402   7.227  13.968   3.191
61185W        W29403  28.220  12.349  13.560
61186W        W29404  26.441  43.357   3.281
61187W        W29405  26.804   0.265   0.249
61188W        W29406   5.357  17.752  11.373
61189W        W29407  39.138  41.845  11.995
61190W        W29408  38.934  38.854  13.508
61191W        W29409  23.734   1.525  14.857
61192W        W29410  28.586   5.931  13.487
61193W        W29411  16.141   0.812   0.361
61194W        W29412  10.341  42.312   3.857
61195W        W29413  21.234  23.716  10.491
61196W        W29414   0.715  23.253  11.980
61197W        W29415   1.353  25.015  13.943
61198W        W29416  14.199  44.459   1.584
61199W        W29417  17.680  15.701  11.564
61200W        W29418  21.049  37.273   0.689
61201W        W29419  32.166   5.912  11.773
61202W        W29420   1.989   5.951  12.456
61203W        W29421  15.310   8.259  12.225
61204W        W29422  13.695  44.339  12.882
61205W        W29423  44.791  33.177  11.015
61206W        W29424  21.121  35.906  12.481
61207W        W29425  14.583  42.925  12.414
61208W        W29426   2.688  29.412  13.925
61209W        W29427  11.920  41.032  12.057
61210W        W29428  23.614  23.828   1.169
61211W        W29429  12.180  28.831   4.330
61212W        W29430  34.391  38.745   1.442
61213W        W29431  23.106  28.873  14.351
61214W        W29432   2.897   0.053  10.730
61215W        W29433  38.924  29.902   3.907
61216W        W29434  24.670  17.790   4.618
61217W        W29435  17.376  25.897   3.747
61218W        W29436   1.869  32.914  14.580
61219W        W29437  33.013  23.923   3.401
61220W        W29438  33.964  19.089  13.018
61221W        W29439  10.215  30.123   2.136
61222W        W29440  12.961  33.022   1.240
61223W        W29441  39.786  25.800  13.531
61224W        W29442  43.886  29.995   4.047
61225W        W29443  20.632  40.822   0.196
61226W        W29444  38.933  41.859   5.039
61227W        W29445  11.044   3.032  13.979
61228W        W29446  32.893  27.970   2.876
61229W        W29447   1.711  28.830  14.043
61230W        W29448  12.697  15.733  11.373
61231W        W29449  12.979  21.241  12.758
61232W        W29450  43.389  30.171   0.697
61233W        W29451  26.431   1.989   3.625
61234W        W29452  33.359  32.962   2.879
61235W        W29453  34.313  44.477  11.270
61236W        W29454   4.839  20.332   3.593
61237W        W29455  42.957  18.105   0.884
61238W        W29456   2.899  10.836  11.056
61239W        W29457  21.562  37.027   2.658
61240W        W29458  42.861  27.217  11.503
61241W        W29459  31.552  20.504   0.463
61242W        W29460  11.549  34.945  13.941
61243W        W29461  34.623  32.319  10.705
61244W        W29462   5.577  33.928   3.342
61245W        W29463  12.795  33.878   3.266
61246W        W29464   2.934  34.942   4.587
61247W        W29465   8.851  33.078  10.410
61248W        W29466  16.298  34.117  11.983
61249W        W29467  16.657  32.203   1.382
61250W        W29468   6.912  17.461  13.603
61251W        W29469  40.388  41.961   1.838
61252W        W29470  13.192   2.484  12.962
61253W        W29471  12.619   1.767   2.030
61254W        W29472  24.350  34.397  11.053
61255W        W29473  35.104  43.458  12.145
61256W        W29474  10.942   7.599  13.969
61257W        W29475  24.240  38.498   3.221
61258W        W29476   9.771  33.045  14.917
61259W        W29477  43.297  13.800   2.239
61260W        W29478  34.408  31.013  12.952
61261W        W29479  42.917   2.680  15.000
61262W        W29480  25.065  31.103   4.039
61263W        W29481  11.874  36.936   3.330
61264W        W29482  14.495   6.219   2.205
61265W        W29483  24.675   8.565  11.222
61266W        W29484  38.102   9.957   4.546
61267W        W29485   8.958  10.232   1.751
61268W        W29486  32.400  35.866  12.696
61269W        W29487  21.378  23.447  14.601
61270W        W29488  28.713   3.795   1.912
61271W        W29489  15.195   3.159  13.452
61272W        W29490   5.576   8.846  12.103
61273W        W29491  29.545   7.684   4.632
61274W        W29492  19.573  17.629   1.384
61275W        W29493  37.815  13.879   2.873
61276W        W29494   3.913  16.577  14.014
61277W        W29495   0.978   3.019  13.715
61278W        W29496  21.642   8.401  12.519
61279W        W29497  35.316  21.750  14.817
61280W        W29498  24.522  27.618  10.689
61281W        W29499  25.558  10.674  12.193
61282W        W29500  26.157   0.965   3.841
61283W        W29501  19.520   6.134  12.482
61284W        W29502  35.890  10.878   2.320
61285W        W29503  36.045  33.963  10.687
61286W        W29504  19.855  43.402  13.206
61287W        W29505  18.752  31.195   0.664
61288W        W29506  12.885  12.140  13.355
61289W        W29507  23.621  40.034  10.505
61290W        W29508  43.329  43.616  11.586
61291W        W29509   3.953  39.506  13.669
61292W        W29510   4.889  26.615  13.411
61293W        W29511   4.263   5.754   3.893
61294W        W29512  14.140   7.883   1.163
61295W        W29513   9.719  42.446   3.344
61296W        W29514  41.864  41.187   5.054
61297W        W29515  25.731  35.392   0.383
61298W        W29516   8.391  10.182   0.236
61299W        W29517   0.270  36.593   3.732
61300W        W29518  37.356  33.008  12.172
61301W        W29519  11.260  31.981  10.244
61302W        W29520  16.253  22.368  13.077
61303W        W29521  29.617  33.438   3.716
61304W        W29522   8.078  13.222   0.989
61305W        W29523  24.877  37.455  11.301
61306W        W29524  29.016  25.498   1.925
61307W        W29525   0.822   5.764   1.216
61308W        W29526   0.023  22.638  14.680
61309W        W29527  15.707  12.323   4.849
61310W        W29528  15.566  28.164  14.565
61311W        W29529  31.857  15.690  11.121
61312W        W29530  24.547  26.692  11.347
61313W        W29531  31.928   7.001   1.183
61314W        W29532  15.566  33.204   0.672
61315W        W29533  19.485  38.916   3.147
61316W        W29534  36.247   2.298  10.661
61317W        W29535  28.902  44.340   0.799
61318W        W29536  14.713  33.975   4.236
61319W        W29537  28.066  25.060   0.615
61320W        W29538  35.729   0.629   4.071
61321W        W29539  14.505  11.399   0.990
61322W        W29540  19.140  10.715  14.400
61323W        W29541  43.255   1.247  12.362
61324W        W29542   7.873   0.198  14.480
61325W        W29543  14.657   1.328   4.110
61326W        W29544   5.220  37.624   3.678
61327W        W29545  26.704  19.063  10.906
61328W        W29546   4.941   8.794  10.054
61329W        W29547  14.006  41.041  11.569
61330W        W29548  22.046  27.228   2.821
61331W        W29549   0.952  28.197  11.142
61332W        W29550   5.566   1.250  14.311
61333W        W29551  36.231  39.908  11.731
61334W        W29552   0.372  37.469  12.994
61335W        W29553   8.736  42.046  13.030
61336W        W29554  40.263   8.327   3.665
61337W        W29555   8.301  31.715  11.998
61338W        W29556   5.955  37.867  14.973
61339W        W29557  15.792  26.150  13.748
61340W        W29558  39.160  39.785  14.346
61341W        W29559  40.440  35.583  14.773
61342W        W29560   7.472   1.060  13.058
61343W        W29561  27.721  21.154  14.738
61344W        W29562  25.650   0.777  13.403
61345W        W29563  13.500   5.151  11.131
61346W        W29564   6.219  14.037  12.932
61347W        W29565  40.016  14.557  12.119
61348W        W29566  36.458   5.706  14.843
61349W        W29567  43.938   6.981   0.409
61350W        W29568  24.067  13.353  12.352
61351W        W29569  22.108   4.986  12.520
61352W        W29570  17.316  19.961  11.155
61353W        W29571  29.387  36.767  10.711
61354W        W29572   7.674  40.303   2.291
61355W        W29573  25.184   9.099  13.943
61356W        W29574  18.635  34.280  12.943
61357W        W29575  12.849   7.537   2.445
61358W        W29576  14.126  12.069  12.881
61359W        W29577  39.748   0.267   4.544
61360W        W29578  10.858   1.819   4.033
61361W        W29579   6.195   8.385   2.177
61362W        W29580   9.696  33.115  10.943
61363W        W29581  22.700  27.266   4.604
61364W        W29582  14.932  31.237  12.445
61365W        W29583  37.247  33.444   0.793
61366W        W29584   1.750   1.395   2.171
61367W        W29585  37.407  18.278   4.508
61368W        W29586   2.792  24.644   1.413
61369W        W29587  18.827   5.481  12.446
61370W        W29588   2.462   6.168   1.316
61371W        W29589  10.079  12.683   0.266
61372W        W29590  41.396   9.136  14.376
61373W        W29591  17.600   9.184  10.583
61374W        W29592  23.650  22.265   0.072
61375W        W29593  41.835   3.932  13.448
61376W        W29594  22.116  42.937  14.423
61377W        W29595  17.109  20.736  14.294
61378W        W29596  33.978  42.813  11.430
61379W        W29597   2.867  44.780  11.994
61380W        W29598  29.909  25.484  11.254
61381W        W29599  38.808  10.158  10.827
61382W        W29600  17.229  11.720   2.768
61383W        W29601  43.022  41.946  11.959
61384W        W29602  25.125   6.991   1.202
61385W        W29603  43.517   7.313   0.224
61386W        W29604  34.062  29.710  14.319
61387W        W29605  30.665  31.475   0.653
61388W        W29606   7.449  37.504   4.688
61389W        W29607  19.112   9.037   1.291
61390W        W29608  35.517  31.494  10.745
61391W        W29609  39.657  33.952  12.598
61392W        W29610  39.493   6.509   1.667
61393W        W29611  11.334  31.329  13.924
61394W        W29612  10.147  44.040   5.232
61395W        W29613  40.792  28.431  12.884
61396W        W29614  14.092  19.694  12.449
61397W        W29615  35.084  42.767   0.826
61398W        W29616   8.290  44.939  14.347
61399W        W29617  16.562   2.698  11.536
61400W        W29618  16.171  35.309  12.541
61401W        W29619  42.548   1.787  13.287
61402W        W29620  21.044  42.283  12.521
61403W        W29621  43.366  33.761  10.608
61404W        W29622  21.299  14.599   2.257
61405W        W29623  44.419  13.343   2.462
61406W        W29624  21.263   9.204  13.408
61407W        W29625  24.046  35.480  11.776
61408W        W29626  43.269  21.615   3.277
61409W        W29627  42.835  27.062  14.777
61410W        W29628  41.809  22.685  14.089
61411W        W29629  17.632  10.075   0.210
61412W        W29630  36.796   6.930  13.406
61413W        W29631  15.098  28.931  14.789
61414W        W29632  20.731  10.774  11.826
61415W        W29633  20.748  29.030  13.900
61416W        W29634  36.031  33.499  11.964
61417W        W29635  29.405  27.461  11.473
61418W        W29636  43.466   2.972   1.258
61419W        W29637  31.378  17.973   2.180
61420W        W29638  32.654  16.727  14.972
61421W        W29639  22.517  17.806   1.001
61422W        W29640  37.051  11.917  11.541
61423W        W29641   9.354  21.830  11.084
61424W        W29642  32.366   5.239  13.942
61425W        W29643  28.827  27.966   4.376
61426W        W29644  22.189  28.733  13.457
61427W        W29645   6.096   8.300  12.946
61428W        W29646  28.707  43.121  11.045
61429W        W29647  34.207  44.040  13.866
61430W        W29648   1.055  29.326  14.520
61431W        W29649  43.360   6.502   4.634
61432W        W29650  25.091  37.487  10.815
61433W        W29651  11.886   5.111  14.129
61434W        W29652   3.109   7.129   2.238
61435W        W29653  38.264  20.310  13.475
61436W        W29654  17.631  34.226   2.591
61437W        W29655  16.795  31.556   3.664
61438W        W29656   3.987  38.318  13.835
61439W        W29657  22.428  31.638  10.684
61440W        W29658  17.839  10.773  14.987
61441W        W29659  32.049  24.874  13.517
61442W        W29660   1.422  37.915  11.712
61443W        W29661  27.429  17.976   5.106
61444W        W29662  17.681  12.209  11.684
61445W        W29663  34.173  41.852   1.944
61446W        W29664  38.870  44.353   1.284
61447W        W29665   0.844  44.584   2.551
61448W        W29666  35.051  18.484   4.113
61449W        W29667  38.875  19.098  10.352
61450W        W29668  34.413  15.666   0.343
61451W        W29669  42.352  42.332  14.973
61452W        W29670  13.422  18.531  13.096
61453W        W29671   1.413  32.390   0.268
61454W        W29672  32.590  17.749   0.364
61455W        W29673  19.800  28.290   0.599
61456W        W29674  29.661  21.086   4.154
61457W        W29675  43.775  26.881  12.548
61458W        W29676   5.141  32.834  14.063
61459W        W29677  38.881   5.509   3.201
61460W        W29678  32.495  38.410  14.453
61461W        W29679  42.294   5.707  12.040
61462W        W29680   1.339   2.661   1.891
61463W        W29681  40.970  38.854   2.332
61464W        W29682  12.087  24.484   3.698
61465W        W29683  14.761  40.003   4.033
61466W        W29684  25.032  31.706   1.207
61467W        W29685  32.854  42.924  13.364
61468W        W29686  28.790  37.840   4.610
61469W        W29687  25.452  40.492  13.660
61470W        W29688  16.098  19.009   2.122
61471W        W29689  38.264   6.150   3.262
61472W        W29690  18.773  12.936  12.784
61473W        W29691  15.504   1.863  12.160
61474W        W29692  17.472  34.810  10.724
61475W        W29693  31.405  38.871  11.998
61476W        W29694  19.727  16.146   2.420
61477W        W29695  34.955  21.749  11.977
61478W        W29696  12.789  30.632   4.294
61479W        W29697  27.005  31.340   2.970
61480W        W29698  31.457  43.024   1.696
61481W        W29699  44.304  10.292   2.625
61482W        W29700  22.664  19.720   4.115
61483W        W29701  37.016  13.240  11.512
61484W        W29702  42.984  11.180  12.134
61485W        W29703   9.125  39.415   2.224
61486W        W29704  40.398  11.231   0.287
61487W        W29705  43.276   9.294   0.961
61488W        W29706  17.484   2.229   3.218
61489W        W29707  27.739   1.388   4.833
61490W        W29708   1.412  10.128  14.818
61491W        W29709  43.199  33.546  12.386
61492W        W29710  13.838  43.412   4.228
61493W        W29711  44.860  29.128   2.239
61494W        W29712  36.311   2.840  14.882
61495W        W29713  15.623  21.952  12.548
61496W        W29714  33.707  18.074  13.072
61497W        W29715  28.392  24.947   2.892
61498W        W29716   2.203  18.052  13.607
61499W        W29717  40.441  33.920  14.802
61500W        W29718  37.451  38.375   0.061
61501W        W29719  20.397  13.800  10.220
61502W        W29720  40.406  15.557  10.462
61503W        W29721   4.633  12.304  14.049
61504W        W29722  18.814  30.866  12.488
61505W        W29723  40.154   8.710  12.785
61506W        W29724  21.552  37.841   4.488
61507W        W29725  30.228  26.576  10.921
61508W        W29726   9.199  38.783  14.870
61509W        W29727   8.056  22.180  11.256
61510W        W29728  28.005  28.052   0.008
61511W        W29729  18.070  20.043  13.493
61512W        W29730  20.516  32.681  10.682
61513W        W29731  39.357  22.646   3.707
61514W        W29732  41.843  29.899  12.250
61515W        W29733  27.134  32.918   4.461
61516W        W29734  38.993  43.834   0.324
61517W        W29735   3.380  32.025  10.677
61518W        W29736   0.952  22.283   0.656
61519W        W29737  30.072  24.123   1.929
61520W        W29738   7.190   7.842  11.008
61521W        W29739   4.813  18.380   3.937
61522W        W29740   8.226  30.420   4.627
61523W        W29741  29.812  26.711   1.111
61524W        W29742  22.206   1.757   2.763
61525W        W29743  24.821  31.572   4.639
61526W        W29744  21.175  40.423  13.963
61527W        W29745  22.479  31.567   1.390
61528W        W29746  35.525   5.257   3.741
61529W        W29747   2.877   2.715  13.796
61530W        W29748   3.576  10.782   1.230
61531W        W29749   0.749  17.459  10.740
61532W        W29750  40.725  11.549   1.190
61533W        W29751  13.319  29.588   0.291
61534W        W29752  42.847  22.026   0.326
61535W        W29753  42.302  14.899   3.699
61536W        W29754  30.079   0.082   0.498
61537W        W29755  23.867  30.104   1.904
61538W        W29756  30.430  29.231  12.993
61539W        W29757  27.977  32.602   3.886
61540W        W29758  13.601  10.139  11.066
61541W        W29759  37.525  31.245  12.906
61542W        W29760  44.884   0.344   2.243
61543W        W29761  31.540  27.173  14.592
61544W        W29762   2.649   1.705   1.752
61545W        W29763  14.876  36.389  13.463
61546W        W29764  37.143  28.659   2.971
61547W        W29765  18.310  30.244  13.450
61548W        W29766  13.749  33.737   1.202
61549W        W29767  19.728  26.078   0.266
61550W        W29768   4.890  22.980   3.283
61551W        W29769  40.450  24.199   3.436
61552W        W29770  19.831  25.608  12.925
61553W        W29771  32.577  19.078  13.961
61554W        W29772  15.042  18.107   3.644
61555W        W29773  19.570  38.454  11.169
61556W        W29774  17.245  37.508   9.873
61557W        W29775  18.065  34.695  11.655
61558W        W29776   7.375  34.612  11.698
61559W        W29777  18.281  19.585  13.203
61560W        W29778  27.444   6.584   1.484
61561W        W29779  10.286  44.196  12.434
61562W        W29780   1.290  30.528  11.016
61563W        W29781  31.129  28.006   4.603
61564W        W29782  17.156   2.067  14.947
61565W        W29783  24.906   8.657  13.964
61566W        W29784  22.952  32.084  13.885
61567W        W29785  33.711   3.202  12.385
61568W        W29786  33.007  26.522  10.266
61569W        W29787   4.797  13.174   0.463
61570W        W29788   8.321  25.728   3.835
61571W        W29789  39.481  26.594  12.553
61572W        W29790   3.015  43.807   0.395
61573W        W29791  41.898  39.754  14.057
61574W        W29792   2.080   1.832  12.997
61575W        W29793  14.069  36.871  14.358
61576W        W29794  32.092   9.834  10.459
61577W        W29795   2.818  38.422  13.510
61578W        W29796  28.490  10.769   2.718
61579W        W29797  41.420  22.731   3.526
61580W        W29798  34.115  30.494   3.193
61581W        W29799  35.845  44.996  12.583
61582W        W29800  39.870   1.171   5.037
61583W        W29801  42.157  41.479  10.220
61584W        W29802  28.005  31.000   1.981
61585W        W29803  20.684   9.082  12.829
61586W        W29804  37.595  30.194   1.394
61587W        W29805  29.195  23.432   2.667
61588W        W29806  36.435  26.659   3.517
61589W        W29807   0.942  15.298  13.519
61590W        W29808  24.222  38.553  10.710
61591W        W29809  44.351   2.678  14.066
61592W        W29810   3.570  34.629  13.063
61593W        W29811  18.502  19.159  13.560
61594W        W29812  15.596  27.720   3.704
61595W        W29813  36.427  11.225   5.051
61596W        W29814  25.152  12.226  10.630
61597W        W29815   5.690  15.232  13.968
61598W        W29816  34.964  31.713  14.469
61599W        W29817   4.716   6.033   2.019
61600W        W29818  32.096  10.508   4.856
61601W        W29819  34.598   2.961   4.071
61602W        W29820  35.429  31.053   2.184
61603W        W29821  25.788  13.308   0.430
61604W        W29822   6.676  39.030  13.960
61605W        W29823  30.058  13.698   2.929
61606W        W29824  17.095  33.518  11.086
61607W        W29825  26.954  35.880  11.195
61608W        W29826  33.091  38.532   1.692
61609W        W29827  18.063   1.789  11.019
61610W        W29828  41.307  31.655   2.765
61611W        W29829  14.729  42.861  12.989
61612W        W29830  34.606  17.229   0.399
61613W        W29831   6.761  23.807  11.163
61614W        W29832   7.920  17.299   3.140
61615W        W29833  23.485  18.772  13.809
61616W        W29834  36.841  23.542   1.876
61617W        W29835  18.853  28.669  14.845
61618W        W29836  14.527   6.585   1.823
61619W        W29837  16.071  12.652   2.727
61620W        W29838   7.697  31.867   0.862
61621W        W29839  31.148  40.325   2.240
61622W        W29840   7.986  44.413  13.977
61623W        W29841   6.781   2.315   1.394
61624W        W29842   2.310  31.639  14.432
61625W        W29843  26.661  37.831  10.678
61626W        W29844  29.402  43.770   2.882
61627W        W29845  34.534   2.884   2.583
61628W        W29846   0.796  24.062  10.725
61629W        W29847   4.701  30.039  10.734
61630W        W29848   4.684  11.163  10.607
61631W        W29849   8.217   2.372   2.240
61632W        W29850   7.273  34.743  14.796
61633W        W29851  22.094  19.121   1.433
61634W        W29852  42.885   6.341   3.603
61635W        W29853   0.803  24.130  11.672
61636W        W29854  29.810  39.083  10.963
61637W        W29855  29.607   5.731   3.549
61638W        W29856  25.446  41.529  12.407
61639W        W29857   1.770  10.820  12.927
61640W        W29858  24.173  26.069   4.612
61641W        W29859  36.707   9.491  12.456
61642W        W29860   1.360  44.333  13.112
61643W        W29861  33.886   0.391   2.359
61644W        W29862   3.982  21.456   1.133
61645W        W29863  28.972  13.373  12.522
61646W        W29864  29.185  31.611  14.686
61647W        W29865  38.243  31.987   2.782
61648W        W29866  40.597  44.820  14.478
61649W        W29867  28.782  31.978   2.337
61650W        W29868  40.361  23.265  10.660
61651W        W29869  18.860  29.572   3.876
61652W        W29870   4.198   5.868   4.384
61653W        W29871   3.499  18.328   0.257
61654W        W29872  41.371  38.859   4.038
61655W        W29873  43.021  38.944  12.872
61656W        W29874   8.739  37.913  11.140
61657W        W29875  39.151   0.952  13.153
61658W        W29876  29.226   7.946   0.814
61659W        W29877  32.639   1.017   5.036
61660W        W29878  17.258  18.577   2.631
61661W        W29879  11.720  26.590   0.865
61662W        W29880   5.828  41.562   1.870
61663W        W29881  24.582  37.267   0.676
61664W        W29882  30.170  30.673   4.684
61665W        W29883   3.285  22.304   4.200
61666W        W29884  35.181  24.052  12.138
61667W        W29885  42.869  26.708   3.619
61668W        W29886  29.280  26.517  10.635
61669W        W29887  12.079  22.173   3.694
61670W        W29888  29.530  42.939  10.420
61671W        W29889  11.892  16.726  10.990
61672W        W29890  19.504   0.418   3.599
61673W        W29891  36.395  43.987  13.331
61674W        W29892  16.575  17.250   0.610
61675W        W29893   9.622  14.816  10.425
61676W        W29894  32.093   8.754  12.478
61677W        W29895  25.870   7.385  14.050
61678W        W29896  30.576  17.783   0.768
61679W        W29897   6.879  11.728  14.473
61680W        W29898  16.661  20.137   4.375
61681W        W29899  10.883   1.322   0.507
61682W        W29900  23.999  26.112   0.215
61683W        W29901  33.841   7.432  12.486
61684W        W29902  13.208  28.244   4.188
61685W        W29903   0.308  25.759   0.932
61686W        W29904  16.346   6.320  10.630
61687W        W29905  13.733  33.256  14.395
61688W        W29906  36.465  41.212   1.935
61689W        W29907  38.035  16.241   1.173
61690W        W29908  14.332   3.360   1.777
61691W        W29909  37.652  40.294   1.567
61692W        W29910  20.751   8.789  12.396
61693W        W29911  17.506   1.341   4.793
61694W        W29912  19.338  10.611   1.763
61695W        W29913  32.115  16.553   3.719
61696W        W29914   8.820  38.428   1.758
61697W        W29915  27.891  40.490   0.577
61698W        W29916   0.769  38.957  13.272
61699W        W29917  26.550  12.063  12.093
61700W        W29918   7.267  33.702  14.868
61701W        W29919  14.158  22.690   0.004
61702W        W29920  16.297  33.879   0.736
61703W        W29921  35.121  28.038   4.066
61704W        W29922   7.745   8.652  13.709
61705W        W29923  10.940  36.814   4.236
61706W        W29924  22.487   3.745  12.535
61707W        W29925  37.156  22.714  14.469
61708W        W29926   2.897  40.856   4.260
61709W        W29927   2.732  28.625  14.488
61710W        W29928  12.780  27.665   0.704
61711W        W29929  41.085  17.879   2.315
61712W        W29930  38.377  41.135  10.980
61713W        W29931  17.016  24.250  11.182
61714W        W29932  18.393  19.597  14.925
61715W        W29933  11.618  23.589   2.115
61716W        W29934  17.180  40.080  11.927
61717W        W29935  38.584   4.405  12.575
61718W        W29936   4.680  14.644   0.018
61719W        W29937   8.892  35.096  12.836
61720W        W29938  28.468  28.591  14.009
61721W        W29939   6.416  44.738   3.211
61722W        W29940  16.574  30.548   4.381
61723W        W29941  18.680  10.247   2.299
61724W        W29942  17.671  14.875   3.166
61725W        W29943  10.180  24.042  14.553
61726W        W29944   9.274   3.903  12.560
61727W        W29945  26.049  15.600  11.139
61728W        W29946  28.770  18.362  11.880
61729W        W29947  31.572  19.654   0.716
61730W        W29948  21.744  12.620   4.007
61731W        W29949  44.526  32.164  14.046
61732W        W29950  35.992  11.378  10.659
61733W        W29951  38.225  28.137   3.252
61734W        W29952   8.112  18.688  13.812
61735W        W29953  10.291  15.271   3.867
61736W        W29954  39.473   2.326  12.423
61737W        W29955   4.412  38.462  10.701
61738W        W29956   2.004   5.949   0.320
61739W        W29957  33.041  14.603  13.400
61740W        W29958  15.488  24.759   0.687
61741W        W29959  31.093   5.452  10.825
61742W        W29960  36.529  23.983   4.677
61743W        W29961  39.500  36.371  14.994
61744W        W29962  22.625  11.176   1.496
61745W        W29963  15.051   6.419  11.807
61746W        W29964   9.817  37.946   4.976
61747W        W29965  18.035  35.675   3.178
61748W        W29966  30.456  18.271   0.671
61749W        W29967  34.388  19.369   3.639
61750W        W29968  28.043  35.434   1.770
61751W        W29969   7.189   5.714  10.680
61752W        W29970   0.111  13.031  10.788
61753W        W29971  37.483  44.704   4.233
61754W        W29972  33.728  20.477  13.013
61755W        W29973  24.675  41.874  11.057
61756W        W29974   5.854  36.861  12.943
61757W        W29975  41.531  14.594  11.731
61758W        W29976  41.604   8.042  12.044
61759W        W29977  16.170  29.742  13.479
61760W        W29978  43.052  35.841   1.886
61761W        W29979  33.794  44.166   4.007
61762W        W29980  13.602  42.031   2.142
61763W        W29981  21.534  39.236   3.324
61764W        W29982  23.380  26.755  12.330
61765W        W29983  27.663   5.854  12.169
61766W        W29984  33.673  35.957   3.286
61767W        W29985  21.468  26.691   3.213
61768W        W29986  37.109  20.601   4.298
61769W        W29987   0.285  15.079   1.655
61770W        W29988  14.068   7.814  14.011
61771W        W29989   9.794  41.961  13.873
61772W        W29990  42.365  37.048  10.855
61773W        W29991  37.068   9.810   4.884
61774W        W29992  10.613  23.061  12.840
61775W        W29993  11.178  39.460  12.870
61776W        W29994  35.344   3.962  11.156
61777W        W29995  34.358   9.684  12.889
61778W        W29996   7.819  11.558   4.865
61779W        W29997  26.497  25.741  13.339
61780W        W29998  10.401  41.242  12.398
61781W        W29999  21.234  11.265  13.356
61782W        W30000   2.788  22.477  11.708
61783W        W30001  10.057   5.843   2.321
61784W        W30002  17.828  41.619  11.079
61785W        W30003  31.310   9.238   2.213
61786W        W30004  31.175   7.634  12.096
61787W        W30005  41.454  27.575   3.772
61788W        W30006  18.556   4.106   0.264
61789W        W30007   1.690   6.111   2.795
61790W        W30008   8.129   4.349   0.505
61791W        W30009  21.143  32.030  10.508
61792W        W30010  26.127  34.399  13.726
61793W        W30011   4.518  25.630  11.162
61794W        W30012  26.073  33.015   2.871
61795W        W30013  12.982   9.349  12.797
61796W        W30014  40.074  13.194   4.694
61797W        W30015  17.467  13.523  12.983
61798W        W30016  14.508  38.075   0.035
61799W        W30017  27.546  33.509  10.711
61800W        W30018  43.477   2.451  10.612
61801W        W30019   1.825  35.358   1.856
61802W        W30020  40.792  35.831   4.586
61803W        W30021  30.028  39.018   4.565
61804W        W30022  41.453  29.987   2.839
61805W        W30023  30.959  17.268  14.009
61806W        W30024  38.056  25.653  11.803
61807W        W30025  43.434  16.214   1.000
61808W        W30026  37.914   9.479   4.423
61809W        W30027  10.865  33.136   0.165
61810W        W30028  25.661  30.944  14.988
61811W        W30029   8.176  24.126  11.231
61812W        W30030  20.351  37.575  12.959
61813W        W30031  36.871  24.459   4.311
61814W        W30032  41.232  12.030  11.671
61815W        W30033   0.242   2.378  11.992
61816W        W30034  16.147  21.706  13.853
61817W        W30035   3.783  25.507   0.421
61818W        W30036   0.327  21.321   3.223
61819W        W30037  13.588  10.178  14.402
61820W        W30038  42.844  40.777   4.588
61821W        W30039  24.221   5.992   3.147
61822W        W30040  38.057  40.394   2.165
61823W        W30041   7.759   8.414   2.462
61824W        W30042  31.646  18.086   3.506
61825W        W30043   0.343  19.807   0.828
61826W        W30044  39.411  39.026  13.680
61827W        W30045  30.909  21.496  11.634
61828W        W30046   9.421   8.740   2.757
61829W        W30047  27.463  19.573  11.985
61830W        W30048  31.935   4.985  14.903
61831W        W30049  12.458  11.138   0.380
61832W        W30050  15.227  25.979  14.427
61833W        W30051  36.573  43.878  11.119
61834W        W30052  20.555  23.964   3.788
61835W        W30053  10.622  33.464  13.855
61836W        W30054  42.964  10.160  11.141
61837W        W30055   0.238  39.394   0.444
61838W        W30056  29.141  42.367   1.857
61839W        W30057  19.719  39.426  11.388
61840W        W30058   0.859   7.862  14.884
61841W        W30059  40.250  34.463   3.740
61842W        W30060   0.893   3.437  14.652
61843W        W30061  21.986  20.988  10.181
61844W        W30062  15.231  19.324  14.524
61845W        W30063  28.493  30.225   0.201
61846W        W30064  19.118  43.042   3.968
61847W        W30065  41.441   3.275  12.437
61848W        W30066  40.032  23.251   3.734
61849W        W30067  32.586  40.855   2.734
61850W        W30068  21.948  31.499   1.248
61851W        W30069  23.314  42.558   0.241
61852W        W30070  26.244  30.458   0.772
61853W        W30071   5.123  23.296  14.646
61854W        W30072  27.193  24.115   1.431
61855W        W30073  10.587   5.771   3.198
61856W        W30074  35.886  13.367   0.285
61857W        W30075  41.344  21.513   4.645
61858W        W30076  26.739  19.748   0.595
61859W        W30077  18.559  29.518   2.386
61860W        W30078  21.717  26.180  12.016
61861W        W30079  42.266   4.132  13.254
61862W        W30080  21.460  37.306   9.885
61863W        W30081  27.019  21.441   5.200
61864W        W30082  42.932  12.814  11.225
61865W        W30083  37.832  20.228  12.035
61866W        W30084   9.129  31.987  14.590
61867W        W30085  39.361  23.194  12.822
61868W        W30086   7.900  41.050  12.536
61869W        W30087  31.438  13.778  12.949
61870W        W30088  25.993  26.311   1.387
61871W        W30089  26.975  39.112   0.042
61872W        W30090   6.890  39.024   4.848
61873W        W30091  11.385  21.325  11.800
61874W        W30092  14.263  25.466   2.861
61875W        W30093  18.064  14.255   1.265
61876W        W30094  24.370  36.998   2.557
61877W        W30095  12.114   0.420   1.075
61878W        W30096  29.467  30.916   1.433
61879W        W30097  32.486  12.142  13.879
61880W        W30098  27.338  19.462   1.188
61881W        W30099  36.035  14.292   3.534
61882W        W30100  37.474   1.617   0.176
61883W        W30101   7.407  42.306  14.299
61884W        W30102  11.399  10.265  11.963
61885W        W30103  25.920   6.158   4.074
61886W        W30104  17.682   9.228  11.618
61887W        W30105  38.808  39.406  10.036
61888W        W30106  38.978  34.956  13.481
61889W        W30107   8.734  36.620   2.291
61890W        W30108  21.128  19.363  12.434
61891W        W30109   4.937  13.824  13.895
61892W        W30110  11.734  31.676   4.654
61893W        W30111  26.526  21.921   4.117
61894W        W30112  20.823  32.267   4.150
61895W        W30113  13.379  35.201  12.528
61896W        W30114  38.945  22.014   2.675
61897W        W30115  23.972  20.409   3.759
61898W        W30116   3.705  42.245  14.578
61899W        W30117  17.272  24.439  14.859
61900W        W30118  20.871  23.066  11.587
61901W        W30119   4.975  25.163   1.774
61902W        W30120   1.251  28.544  13.303
61903W        W30121  20.221  28.451  13.402
61904W        W30122  32.523  43.979  13.882
61905W        W30123  34.825   9.767  11.548
61906W        W30124  35.303  21.859   1.388
61907W        W30125   0.964   6.711  10.965
61908W        W30126   0.120  23.597  13.648
61909W        W30127  25.495   7.227  12.657
61910W        W30128  40.275   2.366  14.847
61911W        W30129  42.877   7.423   0.947
61912W        W30130   1.838   2.782  10.683
61913W        W30131  42.351  44.003  11.606
61914W        W30132  44.912  33.932   0.831
61915W        W30133  30.030  10.787  10.899
61916W        W30134  16.344  41.330   3.896
61917W        W30135  17.654   4.465  14.375
61918W        W30136  25.491   3.030  13.321
61919W        W30137   5.734   9.348   4.264
61920W        W30138  28.003  21.951   3.896
61921W        W30139  14.745  28.212  13.361
61922W        W30140  13.972   9.072  13.546
61923W        W30141   1.545   5.353   0.746
61924W        W30142   6.755  39.429  13.150
61925W        W30143   3.886  39.427   0.952
61926W        W30144  33.017  38.428  10.623
61927W        W30145  44.045  12.966  11.445
61928W        W30146  24.507  23.998   1.689
61929W        W30147  25.252  44.643  12.993
61930W        W30148  30.982   1.804  12.336
61931W        W30149  20.769  16.644   0.363
61932W        W30150  12.370  33.461   0.341
61933W        W30151   4.252  30.031   1.718
61934W        W30152  41.742  41.457   1.766
61935W        W30153  16.999  38.368   4.407
61936W        W30154  31.937  14.543  13.995
61937W        W30155  31.242  37.594  11.586
61938W        W30156  33.344  41.899  11.168
61939W        W30157   3.874   1.947   2.752
61940W        W30158  31.454   2.784  12.965
61941W        W30159  43.688   3.944  13.955
61942W        W30160  17.230  31.713   2.359
61943W        W30161  10.793  20.543   3.874
61944W        W30162   2.835  27.325  12.296
61945W        W30163   8.643   0.208   1.687
61946W        W30164   6.329  39.995   1.348
61947W        W30165  40.738   7.710  12.129
61948W        W30166   9.149  30.330   4.538
61949W        W30167  41.554  30.886  12.072
61950W        W30168  34.615  28.831   5.483
61951W        W30169  33.648  36.926   1.262
61952W        W30170   6.165  34.098  11.535
61953W        W30171  42.456   2.358  12.780
61954W        W30172  42.090   9.198  11.457
61955W        W30173  37.018  43.748   0.946
61956W        W30174  23.292   7.456  14.407
61957W        W30175  23.301  33.887   4.592
61958W        W30176  33.233   8.446   4.221
61959W        W30177  23.813   2.198  14.052
61960W        W30178   4.351  36.938   1.225
61961W        W30179  14.838  17.015   2.075
61962W        W30180  10.355  36.307  13.923
61963W        W30181  10.152  38.482   0.527
61964W        W30182  25.983  28.269  10.711
61965W        W30183  21.309   3.742   0.004
61966W        W30184  43.990  40.787   3.934
61967W        W30185  38.426   6.687  14.993
61968W        W30186  34.431  29.459  13.571
61969W        W30187   6.143  25.034  14.762
61970W        W30188  42.847  20.468   0.888
61971W        W30189  32.080  13.422  14.986
61972W        W30190  24.190  42.826  11.660
61973W        W30191   4.179  26.059  14.503
61974W        W30192  34.395  20.067  14.308
61975W        W30193  36.808   8.662  12.492
61976W        W30194  20.590   2.684  11.663
61977W        W30195  25.501  20.166   2.757
61978W        W30196  25.081   4.476   0.794
61979W        W30197  35.629  31.206   1.700
61980W        W30198  12.287  25.550   4.992
61981W        W30199   2.128  33.685  13.159
61982W        W30200  40.774  23.322   4.167
61983W        W30201  38.017  13.073  11.456
61984W        W30202   5.655  12.348  14.999
61985W        W30203  15.520   0.397  14.734
61986W        W30204  14.673   3.943   2.691
61987W        W30205  39.861  35.590   2.563
61988W        W30206  25.521  42.383   2.251
61989W        W30207   7.776  44.394  13.516
61990W        W30208   2.036  29.899   4.085
61991W        W30209  33.157  21.083  14.359
61992W        W30210  27.077  20.152   0.497
61993W        W30211  44.981  11.096  14.344
61994W        W30212  29.191  15.697  12.870
61995W        W30213  39.372  36.258  11.396
61996W        W30214  19.905  16.793   0.877
61997W        W30215  24.534  22.326  14.414
61998W        W30216  25.498  23.723   2.858
61999W        W30217  20.518  11.000   1.384
62000W        W30218  39.552  34.045   1.248
62001W        W30219  38.329   7.268  11.486
62002W        W30220  24.658  34.036   4.390
62003W        W30221  30.056  32.184  10.668
62004W        W30222  18.147   0.214  14.030
62005W        W30223  32.717  44.836  11.461
62006W        W30224   3.452   2.463   3.398
62007W        W30225   5.310  27.668   1.198
62008W        W30226  23.602  19.707  12.583
62009W        W30227  15.333  15.401   1.836
62010W        W30228  25.537  16.152   1.611
62011W        W30229  27.064   7.392   4.733
62012W        W30230  43.530  23.302   0.879
62013W        W30231  17.775  42.431   0.672
62014W        W30232  16.509   8.820  11.205
62015W        W30233  17.283   5.183  12.636
62016W        W30234  29.931  23.524  12.165
62017W        W30235  29.906   8.263  13.333
62018W        W30236  44.500  22.772   4.061
62019W        W30237  13.585   6.796   3.017
62020W        W30238  30.834  34.651   3.662
62021W        W30239  20.630  27.885  13.028
62022W        W30240  34.000   1.189   3.183
62023W        W30241  26.675  43.934   1.467
62024W        W30242  40.330  43.519   3.252
62025W        W30243  30.060  29.959   3.693
62026W        W30244  29.963  37.736   4.111
62027W        W30245  24.565  37.243  11.889
62028W        W30246  32.600  28.296   3.877
62029W        W30247  43.276  28.945  12.433
62030W        W30248  12.100  17.328  13.474
62031W        W30249  32.702  25.397   4.795
62032W        W30250   7.421  28.966  11.452
62033W        W30251  29.560  14.261  13.786
62034W        W30252  44.029   0.285   2.725
62035W        W30253  27.938  19.582   1.947
62036W        W30254  35.883   0.295   0.750
62037W        W30255  17.070  43.438  13.097
62038W        W30256  24.887  33.572   4.326
62039W        W30257   3.234  44.443   2.515
62040W        W30258  17.004  18.075   1.017
62041W        W30259  10.865  40.078  14.840
62042W        W30260   3.483   5.275  14.608
62043W        W30261   7.919  23.790   0.014
62044W        W30262  12.733   9.654   1.336
62045W        W30263  19.260  19.799   1.411
62046W        W30264  19.248   1.398  12.921
62047W        W30265  43.772   9.778   2.684
62048W        W30266   3.421  19.878  10.539
62049W        W30267  22.800  44.461  13.064
62050W        W30268   5.739   6.219  12.433
62051W        W30269  10.810  12.925   3.190
62052W        W30270  13.148  18.222  13.548
62053W        W30271  40.131   9.714  14.158
62054W        W30272  15.757   8.308   4.561
62055W        W30273   7.409   9.120  12.899
62056W        W30274  39.283  17.777  13.534
62057W        W30275  31.313   4.438  11.620
62058W        W30276  43.807   6.708   0.868
62059W        W30277   7.218  34.330  13.568
62060W        W30278  38.814  16.164  13.526
62061W        W30279   8.704  14.105  11.058
62062W        W30280  24.728   4.917  14.503
62063W        W30281  21.887  41.203   4.156
62064W        W30282  20.544  19.695   3.782
62065W        W30283  28.612  13.580   3.730
62066W        W30284   7.253   4.445  12.925
62067W        W30285  17.849  32.459   2.243
62068W        W30286   1.159   0.435  10.504
62069W        W30287  28.699  23.612   2.683
62070W        W30288  39.455  38.661  13.328
62071W        W30289  16.176  30.005   4.950
62072W        W30290   8.868  13.919  12.471
62073W        W30291  42.743  44.237   4.314
62074W        W30292  31.611   2.086   4.519
62075W        W30293   6.496  14.728  13.441
62076W        W30294  40.263  38.498  11.027
62077W        W30295  13.645  36.991   4.555
62078W        W30296  35.667  39.030   4.900
62079W        W30297   6.348  14.099  12.102
62080W        W30298  32.189  21.740  13.972
62081W        W30299  40.895  34.652  10.445
62082W        W30300  15.273  10.165   4.218
62083W        W30301  44.442  39.225   2.737
62084W        W30302  31.321  41.243  11.114
62085W        W30303  43.991   3.834   4.488
62086W        W30304  20.750  18.203   4.948
62087W        W30305  12.222  20.111  11.664
62088W        W30306   5.788  27.089  11.354
62089W        W30307  41.158  11.596   0.086
62090W        W30308  34.952  28.706  12.975
62091W        W30309  25.026  14.093  10.713
62092W        W30310  22.625  40.820  13.327
62093W        W30311  40.352  26.254   3.640
62094W        W30312  31.483  35.026   4.708
62095W        W30313  35.293  41.927  13.006
62096W        W30314   1.919  22.715   3.856
62097W        W30315  21.257   0.715  12.115
62098W        W30316  38.912  10.144  12.041
62099W        W30317  19.257  30.637   1.961
62100W        W30318   9.208  34.940   4.576
62101W        W30319  31.566   1.633   3.237
62102W        W30320   6.409  27.423   4.286
62103W        W30321   5.966  43.675  11.536
62104W        W30322  38.869  12.685   2.243
62105W        W30323  18.117  34.191  11.661
62106W        W30324  25.735  31.335   2.396
62107W        W30325  26.684  20.609   1.455
62108W        W30326  22.771  21.485   4.130
62109W        W30327  44.769  11.735  10.437
62110W        W30328  24.732  38.419  10.641
62111W        W30329  29.665  12.296   1.795
62112W        W30330  14.378   3.949  14.179
62113W        W30331  14.838  30.731  14.413
62114W        W30332  17.138  36.478   4.556
62115W        W30333  43.046  14.368   4.228
62116W        W30334  11.344   0.405  11.419
62117W        W30335   1.254  17.579   2.767
62118W        W30336  19.026  35.141  11.043
62119W        W30337   0.429  20.767  11.354
62120W        W30338  10.847  31.562   1.694
62121W        W30339   4.434  38.174   2.743
62122W        W30340  43.967  38.534  10.654
62123W        W30341  23.945  21.808  13.943
62124W        W30342  22.816  32.359   3.177
62125W        W30343  19.755  15.336  11.885
62126W        W30344  27.334  14.220   3.660
62127W        W30345  13.858  27.186   0.954
62128W        W30346  12.744  43.935   4.531
62129W        W30347  42.879  25.077  10.344
62130W        W30348   2.913  43.774   4.252
62131W        W30349  35.870   2.927  12.665
62132W        W30350  39.542   4.354   4.138
62133W        W30351  17.272  37.088   2.203
62134W        W30352  19.746  21.800  12.111
62135W        W30353  36.788  33.495   2.361
62136W        W30354  26.417   3.883  10.633
62137W        W30355  17.723   3.780  12.580
62138W        W30356  33.683  39.397  14.903
62139W        W30357  10.701  12.338  14.807
62140W        W30358  19.805   5.760   4.086
62141W        W30359  21.097  43.868  12.546
62142W        W30360  40.897  25.269  14.958
62143W        W30361  19.568   3.184   1.328
62144W        W30362  23.429  42.436  13.882
62145W        W30363  11.562  27.687  13.479
62146W        W30364  33.792  12.513  14.545
62147W        W30365   2.002  19.589   1.827
62148W        W30366   9.690  31.518  14.490
62149W        W30367  37.997  20.772   1.182
62150W        W30368  13.407  33.437  12.054
62151W        W30369  40.325   5.148   2.262
62152W        W30370  14.607  36.585  14.885
62153W        W30371  21.086  35.036   0.370
62154W        W30372  20.019  30.513  12.072
62155W        W30373  34.750   5.130   2.243
62156W        W30374  37.635  23.878  13.808
62157W        W30375  37.706  28.573  14.290
62158W        W30376   3.811  16.844  13.583
62159W        W30377  35.064  19.858   2.257
62160W        W30378  40.730  13.554  14.448
62161W        W30379  33.923  19.479  14.922
62162W        W30380  43.712  36.029   3.913
62163W        W30381  17.086  35.807  13.403
62164W        W30382  22.873  43.711  13.143
62165W        W30383  21.997  10.418   2.152
62166W        W30384  32.321  29.596  10.468
62167W        W30385  25.608  44.319   1.384
62168W        W30386  41.871  10.355  13.370
62169W        W30387  20.545   7.701   2.271
62170W        W30388  44.978   1.237  11.108
62171W        W30389  11.690  21.004  13.057
62172W        W30390  21.691  10.907  12.538
62173W        W30391   2.691  15.776  14.581
62174W        W30392  39.883  22.108  12.837
62175W        W30393  15.796   4.262   3.837
62176W        W30394   3.086  17.210   1.174
62177W        W30395  24.237  19.738  11.885
62178W        W30396  27.022  40.528  14.288
62179W        W30397  23.669  22.858  12.387
62180W        W30398  23.288  27.933  10.711
62181W        W30399   7.835  25.648  13.356
62182W        W30400  42.459  20.568  12.934
62183W        W30401  37.961  23.807  10.639
62184W        W30402  33.902  30.556  11.051
62185W        W30403  39.780  30.673   0.840
62186W        W30404  18.545  23.614   4.493
62187W        W30405  43.714  10.760  11.282
62188W        W30406  24.904  38.049   1.642
62189W        W30407  31.124   1.557   0.866
62190W        W30408  13.002  25.411   4.179
62191W        W30409  25.093  17.528   2.484
62192W        W30410  20.257  14.259  13.402
62193W        W30411  11.735  24.888   3.596
62194W        W30412  23.574   4.838  11.460
62195W        W30413  13.959  10.078  10.076
62196W        W30414   2.210  12.832  12.585
62197W        W30415  32.558  12.031   3.645
62198W        W30416  33.456  19.551   3.720
62199W        W30417   8.727  40.674  14.868
62200W        W30418  11.344  26.192   0.793
62201W        W30419   2.960  29.664  13.511
62202W        W30420  35.775  10.318   1.369
62203W        W30421  19.635  43.762  14.402
62204W        W30422  29.653   3.422   3.675
62205W        W30423  34.681  11.340  11.252
62206W        W30424  18.290  16.783   2.424
62207W        W30425  38.027  25.215   5.046
62208W        W30426  20.515  37.335  10.223
62209W        W30427  16.815  16.342  11.979
62210W        W30428  19.564   3.956  10.982
62211W        W30429   2.734  37.013   2.459
62212W        W30430  38.415  40.952   0.703
62213W        W30431  39.426  17.045   0.293
62214W        W30432   6.053   1.294   0.879
62215W        W30433  30.483  44.909   1.475
62216W        W30434  17.245  16.504  13.375
62217W        W30435   6.898  38.116  11.934
62218W        W30436   1.529  31.450  11.191
62219W        W30437  18.200  29.735  11.561
62220W        W30438  16.544   5.663  11.610
62221W        W30439  16.719  39.805  14.492
62222W        W30440  32.647  40.535  12.309
62223W        W30441  27.999  11.552   4.126
62224W        W30442  21.536  14.850   0.381
62225W        W30443  34.875   9.253  11.468
62226W        W30444  44.449   2.202  11.666
62227W        W30445   7.844  29.151  14.689
62228W        W30446  38.729  42.018   1.794
62229W        W30447   3.207  28.507  11.703
62230W        W30448  15.738  12.304  13.340
62231W        W30449  22.271  31.456  14.441
62232W        W30450  18.872   7.760   3.139
62233W        W30451   5.756   8.597   1.381
62234W        W30452   0.793  39.937   3.306
62235W        W30453  12.964  42.823   3.310
62236W        W30454  32.900  33.051   4.243
62237W        W30455  21.609  12.047  13.039
62238W        W30456  30.738  20.599  12.901
62239W        W30457  35.022  15.789   1.803
62240W        W30458   0.490   7.212  14.783
62241W        W30459  18.440  15.287   2.757
62242W        W30460  17.154  27.665   2.997
62243W        W30461  35.866  24.430  13.994
62244W        W30462  23.617  15.504  14.566
62245W        W30463  36.207  41.482   1.302
62246W        W30464  11.749  15.104  13.680
62247W        W30465  11.476   4.969  12.883
62248W        W30466   9.873  35.336  14.306
62249W        W30467  37.152  32.204  10.791
62250W        W30468  29.388   8.386  12.818
62251W        W30469  12.445  23.398  11.066
62252W        W30470  21.576  15.437  14.350
62253W        W30471  37.399   2.149  12.210
62254W        W30472   7.877  16.696  11.563
62255W        W30473  17.332  42.155   0.430
62256W        W30474  14.630  27.959  12.903
62257W        W30475  10.914  28.906  10.321
62258W        W30476  36.557   9.608   2.909
62259W        W30477  44.997  40.081   3.728
62260W        W30478  41.643  11.224  10.729
62261W        W30479  35.045  34.503  12.403
62262W        W30480   0.183  21.529  11.485
62263W        W30481  42.901  40.499  12.588
62264W        W30482   9.696  35.093   1.082
62265W        W30483  22.243  17.283   2.204
62266W        W30484  28.526  38.982   0.699
62267W        W30485  32.063   3.735   0.672
62268W        W30486  25.442  13.320  13.614
62269W        W30487   2.366  43.528   4.269
62270W        W30488  27.172  29.337  12.535
62271W        W30489   1.207  20.771  12.860
62272W        W30490  23.147  26.954   1.401
62273W        W30491  42.014  25.185   3.064
62274W        W30492   8.239  38.542  11.017
62275W        W30493  24.973  38.740   4.412
62276W        W30494  30.666  36.529   4.555
62277W        W30495  19.098   6.821   0.623
62278W        W30496   7.007  32.796  11.698
62279W        W30497  19.728  40.849  14.307
62280W        W30498  28.046  42.807  10.134
62281W        W30499  16.526  31.981   3.793
62282W        W30500  21.119  18.842  12.384
62283W        W30501  24.223   8.257   0.386
62284W        W30502   9.562  21.856   3.092
62285W        W30503  32.011  23.311   1.268
62286W        W30504  24.323   0.289  13.096
62287W        W30505  30.109  17.160   1.733
62288W        W30506  10.228   5.001  14.600
62289W        W30507   7.435  22.786  10.674
62290W        W30508  19.392  14.099  14.194
62291W        W30509  14.887  35.870  10.972
62292W        W30510  25.231  17.290  13.998
62293W        W30511  25.171  41.249  13.901
62294W        W30512  38.384   5.271  11.280
62295W        W30513  22.443  41.981  14.719
62296W        W30514  26.167  39.900   0.504
62297W        W30515  25.557  40.040   4.467
62298W        W30516  29.706   8.153   1.368
62299W        W30517  34.395  44.843  13.484
62300W        W30518  25.060  15.324  11.514
62301W        W30519  38.304  42.977   1.711
62302W        W30520  23.351  13.667  12.107
62303W        W30521   6.765  37.612  10.197
62304W        W30522  32.230   0.893   0.293
62305W        W30523  27.564  30.965   1.428
62306W        W30524  43.283  26.890   0.003
62307W        W30525   0.350  43.912   3.175
62308W        W30526  21.164  34.107   1.196
62309W        W30527  30.718  13.643  11.945
62310W        W30528  31.537  19.821  13.061
62311W        W30529  11.813  26.686  12.381
62312W        W30530  39.584   3.418  11.144
62313W        W30531  40.446  40.608   3.674
62314W        W30532  36.248   8.871   3.730
62315W        W30533  31.053  22.743   3.165
62316W        W30534   2.515  37.353  10.727
62317W        W30535  13.813  42.893  14.920
62318W        W30536  37.965  41.725  14.426
62319W        W30537   4.894  18.107  10.331
62320W        W30538  15.072   3.811  12.107
62321W        W30539  15.089  34.015  12.424
62322W        W30540   6.420   4.042   2.635
62323W        W30541  35.852  26.199  10.728
62324W        W30542  19.725  19.628  14.606
62325W        W30543  40.989   0.729   2.749
62326W        W30544  34.528  41.454  13.541
62327W        W30545  30.645  12.106  12.118
62328W        W30546  37.773   5.147   0.343
62329W        W30547  19.183  41.911   2.269
62330W        W30548   4.302   0.744   0.750
62331W        W30549  36.454  35.974  14.176
62332W        W30550  22.531   8.153   2.264
62333W        W30551  40.909   4.362   2.865
62334W        W30552  31.879  36.087   1.820
62335W        W30553  37.372   3.023   2.924
62336W        W30554   1.008  40.786   4.011
62337W        W30555  36.562  21.951   1.321
62338W        W30556  10.388  26.758   2.224
62339W        W30557   4.217  21.737  11.266
62340W        W30558  23.751   9.202   1.828
62341W        W30559  44.299  12.889   3.339
62342W        W30560  33.079  21.256  10.467
62343W        W30561   8.210  42.798   0.363
62344W        W30562  14.316  31.863   4.622
62345W        W30563  19.634  23.487  12.434
62346W        W30564  23.922  28.810  11.618
62347W        W30565  42.538   1.705   1.766
62348W        W30566   2.175  39.112  10.283
62349W        W30567   3.840   4.841   3.052
62350W        W30568  41.421  20.756   3.993
62351W        W30569  10.558  20.636   2.710
62352W        W30570  44.951  34.225  11.198
62353W        W30571  24.595   8.498   3.181
62354W        W30572  40.002   5.936  10.333
62355W        W30573  44.388  36.969  14.352
62356W        W30574   1.728   9.351  14.389
62357W        W30575   8.042  36.358   3.365
62358W        W30576   5.325  35.940  10.673
62359W        W30577   4.636   9.735   3.963
62360W        W30578  20.508   7.844  11.793
62361W        W30579  20.194   2.582  14.335
62362W        W30580  12.361  10.642   3.187
62363W        W30581  43.747  34.001  10.844
62364W        W30582  36.367  40.831   3.325
62365W        W30583  33.392  10.335   5.176
62366W        W30584   1.027  34.004   1.762
62367W        W30585   4.902  37.678  12.491
62368W        W30586   7.888  12.837   3.678
62369W        W30587  33.846  21.902  13.371
62370W        W30588   0.900  22.656  13.586
62371W        W30589  20.156  24.286   3.752
62372W        W30590  37.076  24.004   3.365
62373W        W30591  35.458  43.599   2.274
62374W        W30592  32.948   6.607   1.886
62375W        W30593  11.672   6.860   0.104
62376W        W30594  20.667   4.921  14.856
62377W        W30595  36.088  17.843  12.024
62378W        W30596  44.880  24.399   4.606
62379W        W30597  36.194   3.869  12.899
62380W        W30598   2.071  16.143  11.577
62381W        W30599  19.192  44.620   2.678
62382W        W30600  11.676  16.330   3.287
62383W        W30601  29.116  38.320  11.143
62384W        W30602  34.915   5.668   4.272
62385W        W30603  22.566  44.070   4.606
62386W        W30604  27.087   4.852   3.196
62387W        W30605  26.742  23.823  12.478
62388W        W30606  15.824  26.035   0.231
62389W        W30607  29.576  23.738  12.478
62390W        W30608  29.445  25.754  12.048
62391W        W30609  12.519  41.181   4.958
62392W        W30610  20.193  27.556   3.876
62393W        W30611  15.688  23.994   0.804
62394W        W30612  26.987  44.909  11.031
62395W        W30613   9.476  17.381   3.631
62396W        W30614  36.559  16.053  12.894
62397W        W30615  29.953   4.255  13.980
62398W        W30616  27.473  39.556   1.850
62399W        W30617   4.712  42.548  14.390
62400W        W30618  14.120  18.583   0.215
62401W        W30619  38.660  27.610   0.972
62402W        W30620  39.034   3.100  11.998
62403W        W30621  22.617  39.184   1.418
62404W        W30622  33.889  34.898   1.463
62405W        W30623  22.162  30.719   2.667
62406W        W30624   7.868  35.307   0.307
62407W        W30625   3.858  15.611  12.919
62408W        W30626  13.755  43.275   4.752
62409W        W30627  38.761  36.398  11.850
62410W        W30628  33.435  40.246   4.074
62411W        W30629   2.636  25.414  12.520
62412W        W30630  30.976   4.029  11.539
62413W        W30631  40.891  37.551   4.183
62414W        W30632   5.870  12.428   1.369
62415W        W30633  13.830   4.275  10.576
62416W        W30634  39.356  23.490   0.329
62417W        W30635   0.962  31.721   0.027
62418W        W30636  32.209  30.857   4.537
62419W        W30637  30.470  38.769   1.281
62420W        W30638  21.427   4.477   3.887
62421W        W30639  41.966  19.246   2.771
62422W        W30640  31.189  40.366  10.702
62423W        W30641   1.500  11.970   1.633
62424W        W30642  38.557   6.605   4.196
62425W        W30643  14.960  40.034   2.662
62426W        W30644  18.256   8.454  13.169
62427W        W30645  33.054  26.432  11.706
62428W        W30646  43.344  15.657   1.905
62429W        W30647  12.681  16.740   2.821
62430W        W30648  25.534  11.813   4.414
62431W        W30649  39.309  14.192  14.215
62432W        W30650  32.934  23.568  14.423
62433W        W30651  15.027  25.600   0.312
62434W        W30652  36.422  38.543  14.994
62435W        W30653  15.751  15.371   4.974
62436W        W30654  38.852  28.863   2.261
62437W        W30655   8.255  35.899  13.104
62438W        W30656  21.945  36.401   5.082
62439W        W30657   9.204  28.191   3.798
62440W        W30658   3.130  43.892  12.979
62441W        W30659   6.328  31.470   2.273
62442W        W30660  40.533  28.608  12.436
62443W        W30661  28.450  37.888  14.780
62444W        W30662  13.178   9.328   2.910
62445W        W30663   4.508  18.572  11.133
62446W        W30664  42.041  19.770   1.435
62447W        W30665  40.259  39.428  11.003
62448W        W30666  27.909   2.967  12.086
62449W        W30667   7.351   8.469   4.056
62450W        W30668   2.990  20.013  14.001
62451W        W30669   9.345   6.274   2.830
62452W        W30670  33.137   5.749  11.902
62453W        W30671  14.769   7.153   1.841
62454W        W30672  33.444  41.439  12.021
62455W        W30673  42.621  41.504  11.136
62456W        W30674  10.662  43.707  13.398
62457W        W30675   1.267  15.160   3.197
62458W        W30676  21.096   3.475  14.147
62459W        W30677   4.256  26.764  11.988
62460W        W30678  12.842  35.309   4.117
62461W        W30679  19.130  26.206  11.715
62462W        W30680  36.535  31.855   3.203
62463W        W30681   6.777  31.856  12.447
62464W        W30682  20.254   6.409   2.781
62465W        W30683  13.605  24.605  14.452
62466W        W30684  14.859  32.149  14.039
62467W        W30685  29.575  39.181  11.560
62468W        W30686  35.064  17.163  13.115
62469W        W30687  37.356   6.322  14.010
62470W        W30688  16.275  23.676  14.775
62471W        W30689  13.934   6.862  10.868
62472W        W30690   7.625  34.641  10.862
62473W        W30691  20.069  26.814  14.447
62474W        W30692  30.154  15.239   4.470
62475W        W30693  18.146  30.928   1.356
62476W        W30694  33.514  18.559   1.799
62477W        W30695  36.934  41.368   3.185
62478W        W30696  23.637  36.457   4.674
62479W        W30697  34.973  15.152   0.856
62480W        W30698  34.487  13.553  10.688
62481W        W30699  20.596  23.803   1.804
62482W        W30700  40.274  29.128   0.914
62483W        W30701  15.280  25.544   1.866
62484W        W30702  43.362  41.220   5.175
62485W        W30703   7.384  34.100   1.473
62486W        W30704  22.714  23.753  10.688
62487W        W30705  15.436  26.076  13.393
62488W        W30706   2.701  36.500   3.657
62489W        W30707  14.102   5.833   4.629
62490W        W30708  12.962  43.622   0.539
62491W        W30709  25.713  27.942   3.579
62492W        W30710  24.740  10.291   3.131
62493W        W30711  41.808  42.829   0.510
62494W        W30712  36.635  36.337  10.966
62495W        W30713  25.341  44.384   4.286
62496W        W30714  44.386  29.512   0.341
62497W        W30715  40.407  16.276  12.163
62498W        W30716  27.055  14.295   0.447
62499W        W30717  32.940  43.448  13.173
62500W        W30718   7.684  28.635   2.920
62501W        W30719   0.979   9.383   1.626
62502W        W30720   8.606  15.727  12.613
62503W        W30721   6.143   4.764  11.136
62504W        W30722   9.248  23.831   0.797
62505W        W30723   6.195  39.054  10.677
62506W        W30724  16.628  43.721  14.863
62507W        W30725   4.217   4.409  12.882
62508W        W30726   9.842   3.914  13.307
62509W        W30727  14.241  32.965   2.887
62510W        W30728  19.222  28.145  10.596
62511W        W30729   2.351  17.981  11.660
62512W        W30730  42.766   2.771   1.447
62513W        W30731  38.169   5.385  10.487
62514W        W30732  21.792   4.983  11.061
62515W        W30733   9.394   5.603  14.460
62516W        W30734  21.400  11.391  13.820
62517W        W30735  11.831  33.591  11.755
62518W        W30736   9.587   2.513   4.402
62519W        W30737  14.174  38.025  10.680
62520W        W30738  28.587  27.041  14.594
62521W        W30739   7.101   2.769  11.606
62522W        W30740  14.405  38.664  12.075
62523W        W30741  43.470  25.545  12.388
62524W        W30742  22.682   3.647   0.329
62525W        W30743   5.406  38.135   1.871
62526W        W30744   6.640  19.479  10.484
62527W        W30745   0.833   5.371   1.960
62528W        W30746  29.457  14.679  12.389
62529W        W30747   0.502   3.643   1.429
62530W        W30748  29.607  42.442   2.644
62531W        W30749  27.665  20.147  11.646
62532W        W30750  18.939  32.082  12.685
62533W        W30751  44.707  10.928  13.936
62534W        W30752  35.801  24.500   1.774
62535W        W30753   9.211  35.483   4.081
62536W        W30754  25.677  27.381  11.112
62537W        W30755   2.729   0.908  14.439
62538W        W30756  22.083   7.655   2.721
62539W        W30757  41.073  23.243  12.548
62540W        W30758  19.717  21.538  14.067
62541W        W30759   0.494   8.700   0.053
62542W        W30760  10.630  32.996  10.629
62543W        W30761  25.466   6.940   3.701
62544W        W30762  27.548  31.479  12.466
62545W        W30763  35.007   7.885   4.607
62546W        W30764   8.173  10.651  12.852
62547W        W30765  14.006   8.018   3.702
62548W        W30766  29.974  17.346   4.411
62549W        W30767  41.978   7.715  11.226
62550W        W30768   9.752  40.793  13.337
62551W        W30769  15.051  15.322   4.566
62552W        W30770  25.031   3.937   3.107
62553W        W30771  37.585  20.100   5.090
62554W        W30772   7.133  16.887  12.507
62555W        W30773  24.106   5.875  10.853
62556W        W30774  21.119  41.286   2.249
62557W        W30775  12.608   3.792   1.424
62558W        W30776  24.879  34.513  12.784
62559W        W30777  42.777  44.247  13.950
62560W        W30778  42.388  41.228   0.818
62561W        W30779   6.677  17.558   1.280
62562W        W30780  31.938  13.815  12.728
62563W        W30781  10.374  40.967  14.037
62564W        W30782  37.048  18.788  12.452
62565W        W30783  29.198  30.402   0.275
62566W        W30784  12.673  32.532  12.100
62567W        W30785  37.003  41.737  11.036
62568W        W30786  16.790  31.946   3.312
62569W        W30787  34.896  23.662   0.735
62570W        W30788  42.742   1.921  12.832
62571W        W30789  36.110  42.112   0.186
62572W        W30790  11.869   0.281  14.366
62573W        W30791  12.642  14.838   4.172
62574W        W30792   5.014   8.787  14.417
62575W        W30793  24.209   7.133   1.032
62576W        W30794  21.605  28.630   1.830
62577W        W30795  25.141  33.859  11.676
62578W        W30796  23.873   7.259  13.980
62579W        W30797  29.523   3.637   1.708
62580W        W30798  44.826  19.837   0.739
62581W        W30799  24.321  26.172  10.927
62582W        W30800   0.870  22.469  12.516
62583W        W30801  11.122  14.283   4.616
62584W        W30802   8.351  44.747   3.883
62585W        W30803  14.014  17.329  12.279
62586W        W30804  27.444  36.291  14.259
62587W        W30805   2.458  35.135  12.885
62588W        W30806  29.747  41.858  13.497
62589W        W30807  35.086  36.563   4.140
62590W        W30808  16.997  14.302  11.772
62591W        W30809  28.632  18.723   4.511
62592W        W30810  27.986  25.645  12.326
62593W        W30811  25.673   3.987   1.387
62594W        W30812  39.512   7.711  14.405
62595W        W30813  13.308  17.018  13.749
62596W        W30814   8.438  33.320  10.694
62597W        W30815   6.452  24.726   0.931
62598W        W30816  16.987  36.545   0.830
62599W        W30817  22.496   7.120  14.034
62600W        W30818  30.893  10.371   3.688
62601W        W30819  31.899   0.737  14.868
62602W        W30820  33.449  19.751  11.883
62603W        W30821   9.208  16.220  11.591
62604W        W30822   0.028  25.909  11.478
62605W        W30823  12.878  41.410  11.052
62606W        W30824  31.301  28.740  10.224
62607W        W30825  22.449  18.362   3.623
62608W        W30826  21.575  23.362  12.787
62609W        W30827  22.960  19.591   2.306
62610W        W30828   2.858   5.766   0.340
62611W        W30829  29.349  41.828  13.155
62612W        W30830  44.334   0.845  12.401
62613W        W30831  36.011  35.887   1.847
62614W        W30832   6.943  20.048   2.044
62615W        W30833   7.646  14.772  12.382
62616W        W30834  17.611  23.660   4.844
62617W        W30835  12.584  42.317   0.026
62618W        W30836  35.504   8.667   4.240
62619W        W30837   3.248  30.686   2.026
62620W        W30838  16.094  14.625  13.970
62621W        W30839   9.845  39.255  11.035
62622W        W30840  25.277  44.258  14.456
62623W        W30841  33.407  21.094  13.884
62624W        W30842  30.279  16.549   0.531
62625W        W30843  20.989  17.122   1.176
62626W        W30844  10.330  30.271  14.012
62627W        W30845   2.512  43.272  12.996
62628W        W30846   3.615  20.769  11.932
62629W        W30847   9.191   5.468  12.080
62630W        W30848  36.897   6.132   1.278
62631W        W30849   5.898  37.302   2.248
62632W        W30850  31.094   5.343  13.524
62633W        W30851   0.705  21.030   2.267
62634W        W30852  35.391  14.862   0.926
62635W        W30853  22.958  30.260   9.939
62636W        W30854  30.694  15.221  10.091
62637W        W30855   0.390   1.560  10.928
62638W        W30856  37.871  21.847  12.504
62639W        W30857  36.597  38.123  14.065
62640W        W30858  23.265  30.704  10.742
62641W        W30859   4.250  44.012   3.554
62642W        W30860  32.934  41.152   0.553
62643W        W30861  20.699  28.130   3.874
62644W        W30862  27.880  18.523  11.309
62645W        W30863  44.460  36.409  11.608
62646W        W30864  12.556  14.494   1.006
62647W        W30865  11.812  36.990   2.291
62648W        W30866  20.082  12.768  11.693
62649W        W30867  24.699  40.385  14.801
62650W        W30868  19.302  25.581   0.869
62651W        W30869  39.030  22.519   2.489
62652W        W30870   4.971  33.364  12.577
62653W        W30871  30.222  44.481   1.247
62654W        W30872  44.179  34.008  11.104
62655W        W30873  41.458  28.033  13.334
62656W        W30874  27.218  22.918   3.264
62657W        W30875  26.511  44.550  14.769
62658W        W30876  36.678  19.219   0.497
62659W        W30877   9.634  12.318  14.914
62660W        W30878  38.984  13.642  14.282
62661W        W30879  42.406  13.687  11.240
62662W        W30880  42.744  20.611  12.472
62663W        W30881   1.807  33.019   2.127
62664W        W30882  21.975  44.875   2.615
62665W        W30883  34.449  13.551  13.349
62666W        W30884  44.742   8.757   5.097
62667W        W30885  29.099  25.452   3.321
62668W        W30886  38.579  30.853   4.675
62669W        W30887  41.434  21.768   0.907
62670W        W30888  27.271  37.067   4.357
62671W        W30889  13.558  29.742  13.066
62672W        W30890   0.524  11.570   2.858
62673W        W30891  36.394  24.020  11.132
62674W        W30892  30.467  42.096   1.310
62675W        W30893   4.710  30.630  11.876
62676W        W30894  37.088   0.044  13.876
62677W        W30895  33.338   4.778  14.487
62678W        W30896  34.912  22.413   4.324
62679W        W30897  34.933  30.520  11.159
62680W        W30898  40.022  39.386  12.785
62681W        W30899  42.079  34.855   3.779
62682W        W30900  32.070  11.146   4.100
62683W        W30901   0.864  42.499  14.571
62684W        W30902  16.098  36.336   3.237
62685W        W30903  27.250  26.134   3.631
62686W        W30904  31.352  33.262   0.448
62687W        W30905  32.502   1.856   2.413
62688W        W30906   4.395  40.147   4.588
62689W        W30907  20.086  37.532   0.837
62690W        W30908  30.538  40.446   2.789
62691W        W30909  40.077  15.154   1.350
62692W        W30910  44.883  22.756   2.333
62693W        W30911   4.971  32.601  13.637
62694W        W30912  25.753  29.373   0.351
62695W        W30913  17.381  27.290   4.135
62696W        W30914  24.624   1.265   2.253
62697W        W30915   3.283  25.185  13.362
62698W        W30916  14.655   0.553   3.136
62699W        W30917  16.112  11.583  11.349
62700W        W30918  23.225  23.536  12.486
62701W        W30919  14.758  31.766   3.805
62702W        W30920  10.522  35.323  11.484
62703W        W30921   5.965  30.294  11.227
62704W        W30922  17.827   8.630  14.456
62705W        W30923   1.019  17.843  11.504
62706W        W30924  39.572  19.667   0.045
62707W        W30925  39.284  14.044   1.327
62708W        W30926  32.877   5.030  12.484
62709W        W30927  10.319   8.376   3.687
62710W        W30928  26.730  27.640   2.458
62711W        W30929  44.264  16.474   1.733
62712W        W30930  22.814  29.613   4.811
62713W        W30931  19.267  12.913   5.479
62714W        W30932   4.694  36.547   4.227
62715W        W30933  13.227  23.460   0.767
62716W        W30934   2.332  27.554   1.364
62717W        W30935  28.951  41.832   4.081
62718W        W30936  10.408  16.658  14.388
62719W        W30937  25.593  24.578  13.136
62720W        W30938  15.343   5.859   4.141
62721W        W30939  24.195  34.437  12.414
62722W        W30940  20.187  10.375   4.332
62723W        W30941  17.766   6.167  11.036
62724W        W30942  20.287  35.916  14.751
62725W        W30943  31.894  38.338   2.390
62726W        W30944  17.572  34.381   2.084
62727W        W30945   9.128  40.035   1.770
62728W        W30946  10.309  11.568  10.673
62729W        W30947  42.626  13.707   0.396
62730W        W30948   8.224  44.789  13.122
62731W        W30949   2.669   3.510  14.866
62732W        W30950  36.096  17.152  14.251
62733W        W30951  15.803  16.994  12.322
62734W        W30952  20.321  44.346   4.468
62735W        W30953   5.789  18.556   5.016
62736W        W30954   5.283  34.611  11.288
62737W        W30955  14.075  22.770   2.186
62738W        W30956  40.348  27.505   1.408
62739W        W30957  33.374  36.187  13.961
62740W        W30958   8.731  21.193  10.988
62741W        W30959   6.345  26.768  13.425
62742W        W30960  15.161  30.077   2.133
62743W        W30961  19.962  36.079  11.052
62744W        W30962  16.435  17.620   2.870
62745W        W30963   1.222  29.218  11.555
62746W        W30964  41.882  20.172   2.977
62747W        W30965  36.121  26.928  13.904
62748W        W30966  10.373  44.544  10.156
62749W        W30967  29.577  44.533   4.243
62750W        W30968  12.697   1.760   2.547
62751W        W30969  31.525  32.425   0.540
62752W        W30970  32.519  23.526  12.430
62753W        W30971  27.252  38.938  10.948
62754W        W30972  31.360   5.452   2.861
62755W        W30973  31.939  42.802   2.211
62756W        W30974   1.434  15.193  14.050
62757W        W30975  20.559  30.184  11.537
62758W        W30976   3.666   6.143   0.537
62759W        W30977  30.437   1.483  10.301
62760W        W30978  38.169  11.555  10.770
62761W        W30979  32.517  19.272   0.950
62762W        W30980  21.594  35.618  11.468
62763W        W30981  20.753  17.735   4.652
62764W        W30982  35.817  29.911   2.142
62765W        W30983   8.390   8.692  11.975
62766W        W30984  22.144   4.905   4.525
62767W        W30985   9.331  33.817  10.582
62768W        W30986  42.426  14.431  10.637
62769W        W30987  41.860  44.540  11.518
62770W        W30988  25.692  14.506   4.516
62771W        W30989  16.650   4.727  12.003
62772W        W30990  37.969  12.049   4.503
62773W        W30991  12.362  27.480  13.918
62774W        W30992  19.489  20.992  10.644
62775W        W30993  27.931  28.334  14.574
62776W        W30994  20.113  31.867   0.996
62777W        W30995   4.657  19.863  12.891
62778W        W30996  43.646  10.611   3.241
62779W        W30997  34.891  31.730   4.672
62780W        W30998  23.584  12.259   2.735
62781W        W30999  17.551   0.324   2.880
62782W        W31000  29.912   3.369  14.118
62783W        W31001  34.983  25.077   4.643
62784W        W31002  35.297  42.283  13.875
62785W        W31003   1.979  12.100   4.104
62786W        W31004  40.083  22.713  13.620
62787W        W31005   3.311   9.360  10.616
62788W        W31006  10.651  19.691   0.445
62789W        W31007  16.760  39.283   3.051
62790W        W31008  43.492   4.441   2.280
62791W        W31009  42.342  25.735   0.064
62792W        W31010  38.119  34.515  12.137
62793W        W31011  38.187  24.652  14.514
62794W        W31012  24.739  15.757   1.318
62795W        W31013  42.955   7.901  10.701
62796W        W31014  18.620   5.587   0.595
62797W        W31015  28.495  42.003  12.987
62798W        W31016  37.733   4.348   3.145
62799W        W31017  12.452  32.094   2.362
62800W        W31018  22.231  25.511   4.840
62801W        W31019  19.631  32.837  10.698
62802W        W31020  34.594  22.143   2.480
62803W        W31021  37.092  17.191   1.989
62804W        W31022   7.663  18.047  11.511
62805W        W31023  39.943  24.309  13.480
62806W        W31024  27.930  30.705  10.775
62807W        W31025  24.403  25.460   2.671
62808W        W31026  30.758  28.983  11.667
62809W        W31027  38.025  44.332   2.729
62810W        W31028   8.891   1.388  12.973
62811W        W31029  36.858  40.596  11.930
62812W        W31030   4.180  39.756  14.908
62813W        W31031  43.001  36.650   2.213
62814W        W31032  23.169   4.895  10.260
62815W        W31033  40.514  41.625   3.621
62816W        W31034  37.562  27.222  13.855
62817W        W31035  13.740  22.886   1.295
62818W        W31036  14.836  19.083  14.759
62819W        W31037  39.819  34.668   1.805
62820W        W31038  41.427  41.784   4.580
62821W        W31039   5.256  24.757  12.052
62822W        W31040  26.456  37.886  14.010
62823W        W31041   7.347  21.949   1.721
62824W        W31042  40.776  28.688  10.643
62825W        W31043  11.319  13.664   1.119
62826W        W31044   4.726  21.552  12.947
62827W        W31045  28.885  20.566  12.134
62828W        W31046  14.029   2.702  10.693
62829W        W31047  22.987  14.812   0.487
62830W        W31048   0.839  32.904  11.832
62831W        W31049  43.566  24.472   4.585
62832W        W31050   6.758  17.820  14.428
62833W        W31051  40.396  33.670   4.172
62834W        W31052  22.329  24.472  11.088
62835W        W31053  30.458  15.214   0.033
62836W        W31054  19.002   5.741  12.012
62837W        W31055  26.181  14.312  14.726
62838W        W31056  44.401  10.741   2.883
62839W        W31057   9.306  12.050   2.710
62840W        W31058  15.154   6.259  14.384
62841W        W31059   9.112  28.723  14.322
62842W        W31060  22.558   0.438   3.651
62843W        W31061  30.356  34.327  14.894
62844W        W31062  18.581  29.571  14.799
62845W        W31063  22.723  12.880  10.727
62846W        W31064  44.372   5.058  10.809
62847W        W31065  18.255   0.827   3.797
62848W        W31066   7.841  39.010  13.031
62849W        W31067  29.253  31.958  11.177
62850W        W31068  24.725  25.194  11.638
62851W        W31069  42.515  35.452   3.204
62852W        W31070  43.012   9.987   1.368
62853W        W31071  38.516   5.263   5.049
62854W        W31072  31.925   2.742   2.235
62855W        W31073   7.677   6.379   4.606
62856W        W31074  37.605  43.921   0.647
62857W        W31075  33.630   4.209  10.801
62858W        W31076  12.727  18.635  10.652
62859W        W31077  19.566  21.518   3.716
62860W        W31078  38.330   7.063   3.289
62861W        W31079  43.834  29.554   1.216
62862W        W31080  16.757  30.224   1.532
62863W        W31081   3.038  41.057  14.422
62864W        W31082  11.102   8.247   4.426
62865W        W31083  23.682  33.347   1.369
62866W        W31084  30.163  25.115  14.502
62867W        W31085  33.925   8.097   3.527
62868W        W31086  31.633  31.159  12.974
62869W        W31087  35.936   1.973  11.534
62870W        W31088  27.934  34.585  14.200
62871W        W31089  37.270   6.451   2.166
62872W        W31090  24.573   0.705   1.466
62873W        W31091  41.905   1.906   0.058
62874W        W31092  11.885   4.163   2.162
62875W        W31093  35.902  22.045  12.149
62876W        W31094  16.674  26.956   3.186
62877W        W31095  10.117   0.506  11.152
62878W        W31096  42.821  20.445   2.841
62879W        W31097  37.104   1.918  11.720
62880W        W31098  33.141  16.328   1.400
62881W        W31099  34.168  26.399  13.030
62882W        W31100   8.114   8.633   5.010
62883W        W31101  16.307   2.934   3.391
62884W        W31102  19.003  29.738   2.199
62885W        W31103  27.583  35.569  10.627
62886W        W31104  30.398  11.315   1.438
62887W        W31105  17.641  24.207   3.664
62888W        W31106   8.956  11.961  12.864
62889W        W31107  15.049   9.312  10.667
62890W        W31108  25.186  10.220  14.878
62891W        W31109  22.211  20.432   1.805
62892W        W31110   2.370  24.728   2.233
62893W        W31111  28.593  24.557   2.623
62894W        W31112  21.288   3.420  14.601
62895W        W31113   9.826  10.434   4.651
62896W        W31114  11.204   1.985  14.377
62897W        W31115   5.417  44.283   1.394
62898W        W31116  13.421   6.350  13.905
62899W        W31117  16.353   1.621   0.985
62900W        W31118  37.418  41.321   2.685
62901W        W31119  34.023   3.842  11.676
62902W        W31120  32.684   5.919   3.639
62903W        W31121  42.281  23.646  13.905
62904W        W31122  38.413  20.661  14.326
62905W        W31123   5.657  35.854   4.335
62906W        W31124  38.795   6.073  11.603
62907W        W31125  28.426  32.583  12.010
62908W        W31126  37.611   9.860   3.635
62909W        W31127   3.666   4.730  12.297
62910W        W31128  12.414  43.835  13.013
62911W        W31129  37.888   0.144   4.699
62912W        W31130  34.958  35.055   0.837
62913W        W31131  31.473  17.327   0.963
62914W        W31132  43.525  14.977  10.750
62915W        W31133  38.425  34.482   1.976
62916W        W31134  33.527  22.708  12.617
62917W        W31135  11.718  44.856   9.708
62918W        W31136  15.149   8.436   4.130
62919W        W31137  13.789  21.470   0.364
62920W        W31138  35.327  25.905   1.699
62921W        W31139  32.467  22.989  14.986
62922W        W31140  39.928   4.807   1.099
62923W        W31141  22.729  40.366   2.255
62924W        W31142   0.866  33.071  12.785
62925W        W31143  18.992  32.478  11.893
62926W        W31144  27.420   2.275  11.570
62927W        W31145  13.644  21.944   1.445
62928W        W31146  20.264  34.330   3.640
62929W        W31147  44.459  19.224   0.817
62930W        W31148   0.687  31.097  11.645
62931W        W31149  39.018  37.639   3.931
62932W        W31150  42.583  43.459   3.746
62933W        W31151  18.159  35.919   3.637
62934W        W31152  20.733  27.125  14.669
62935W        W31153  33.366   2.936  10.538
62936W        W31154  22.282  41.494  14.742
62937W        W31155  39.880   1.352  12.440
62938W        W31156  35.892  16.556  14.920
62939W        W31157   9.911  28.150   3.161
62940W        W31158  33.481  21.365   4.130
62941W        W31159  40.508  13.742   0.662
62942W        W31160  43.766  24.587   2.356
62943W        W31161   8.255   2.895  14.474
62944W        W31162   6.893  30.876  13.415
62945W        W31163  22.710  13.142   4.715
62946W        W31164   2.803  34.680   1.702
62947W        W31165   3.253  14.207   1.428
62948W        W31166   6.121  10.412  12.844
62949W        W31167   1.684   0.427  11.138
62950W        W31168  13.929  15.389   0.925
62951W        W31169  41.653  43.390   4.023
62952W        W31170  22.988  19.576  11.749
62953W        W31171  13.385  43.052   2.445
62954W        W31172  35.802  12.670  12.545
62955W        W31173   9.630   1.767   1.387
62956W        W31174  22.459  43.332  11.912
62957W        W31175  17.502  23.501   0.808
62958W        W31176  11.933   4.358   0.352
62959W        W31177  42.221  24.123  11.598
62960W        W31178  34.539  24.868   1.963
62961W        W31179  23.107  10.306   4.634
62962W        W31180  13.313  30.142  13.309
62963W        W31181  33.840  17.297  10.650
62964W        W31182  28.456  23.266   3.791
62965W        W31183  23.183  25.662   4.140
62966W        W31184  34.571  29.561   4.331
62967W        W31185  43.953  17.054   3.582
62968W        W31186   2.422  20.131   4.231
62969W        W31187  34.830   2.765  10.586
62970W        W31188  40.334  22.158  13.143
62971W        W31189  19.726  35.218   0.154
62972W        W31190  15.894   8.187  10.666
62973W        W31191  26.687  40.955   0.910
62974W        W31192  14.336   1.928  12.561
62975W        W31193   5.207  41.738   0.217
62976W        W31194  34.956  28.564   4.071
62977W        W31195  27.674  40.582   4.549
62978W        W31196  41.345  27.470  11.146
62979W        W31197  10.840  20.633  13.049
62980W        W31198  37.944   8.784   3.327
62981W        W31199   5.459  41.929  12.220
62982W        W31200  17.783  21.558   4.201
62983W        W31201  36.376  15.926   2.235
62984W        W31202  13.644  11.804   4.691
62985W        W31203  25.891  28.142   1.183
62986W        W31204  41.083  35.466  11.647
62987W        W31205  38.037   8.784   2.283
62988W        W31206   9.167  39.323   1.329
62989W        W31207   2.447  23.531   4.675
62990W        W31208  30.155  30.595   0.969
62991W        W31209  34.857   4.445  10.056
62992W        W31210  37.924   1.364  12.569
62993W        W31211  44.449  44.417   5.119
62994W        W31212  19.838  13.958  14.473
62995W        W31213   1.076  26.353   3.861
62996W        W31214  28.676  10.126   5.018
62997W        W31215  16.876  21.816  13.550
62998W        W31216  28.796  39.505  14.756
62999W        W31217   9.407  18.440   0.078
63000W        W31218  34.987  30.178  14.499
63001W        W31219  43.529   1.247   3.902
63002W        W31220   4.265   5.739  12.864
63003W        W31221  11.246   1.377  13.109
63004W        W31222   1.610  33.431  12.318
63005W        W31223  35.383   0.960   0.917
63006W        W31224  20.341   4.278  13.048
63007W        W31225  38.566   5.714   2.851
63008W        W31226  20.485  39.230  13.904
63009W        W31227  18.756  17.587  13.030
63010W        W31228  24.101  11.612   3.679
63011W        W31229  16.214  36.087  11.159
63012W        W31230  21.285  15.090  12.556
63013W        W31231  37.418  11.808   2.912
63014W        W31232  23.074  21.606  12.218
63015W        W31233  17.257  13.355   3.640
63016W        W31234  27.923  38.589  10.171
63017W        W31235  27.114  12.103   2.801
63018W        W31236  11.833   6.141  11.118
63019W        W31237  17.525  14.315  12.192
63020W        W31238   2.495  19.103   4.709
63021W        W31239  27.162   6.222  10.658
63022W        W31240  31.886  14.052  14.090
63023W        W31241  29.423  17.792   1.274
63024W        W31242  40.954   6.402   3.801
63025W        W31243   0.436  23.992   1.293
63026W        W31244  24.105  38.211   1.945
63027W        W31245  34.919  31.158   4.037
63028W        W31246  21.000   2.222  11.122
63029W        W31247  20.792  43.749   0.297
63030W        W31248   4.902  42.748   3.848
63031W        W31249   6.753  38.927   4.366
63032W        W31250   1.733  15.336  13.349
63033W        W31251  12.822  28.066   3.893
63034W        W31252  26.629   3.800  13.848
63035W        W31253  31.075  10.992  11.545
63036W        W31254  36.891  36.622  13.551
63037W        W31255  34.404  14.707  12.593
63038W        W31256  20.335  26.211  12.213
63039W        W31257   1.754   8.754  14.892
63040W        W31258  17.815  13.006  13.527
63041W        W31259  18.568  43.451   3.432
63042W        W31260  18.759  22.455  11.587
63043W        W31261  27.656  28.149  10.616
63044W        W31262  23.768  19.936   3.188
63045W        W31263  34.691   1.304  10.447
63046W        W31264   4.768  28.191   0.742
63047W        W31265  27.688   9.840   0.522
63048W        W31266  44.423  23.181  11.646
63049W        W31267  36.528  31.407  13.450
63050W        W31268  15.893  32.082  13.983
63051W        W31269  44.012  17.281   0.895
63052W        W31270  41.255  32.588  11.158
63053W        W31271  10.456  31.160  11.602
63054W        W31272  11.738  23.747   4.419
63055W        W31273  34.919  10.621  14.228
63056W        W31274  25.988   0.972  11.614
63057W        W31275  15.145  17.131  10.663
63058W        W31276  39.977  35.114   4.714
63059W        W31277   7.130  42.816  14.458
63060W        W31278  23.124  17.339  13.425
63061W        W31279   0.388   7.806  13.357
63062W        W31280  14.788  12.119   1.878
63063W        W31281   0.734  12.595   4.586
63064W        W31282  30.103  16.207  12.953
63065W        W31283   4.368  10.173   4.132
63066W        W31284  17.721   4.176   4.169
63067W        W31285  29.190  35.504   3.772
63068W        W31286  41.042  16.360  11.555
63069W        W31287  33.897   7.622   2.702
63070W        W31288   9.637   9.454  14.555
63071W        W31289   9.327   2.065  11.174
63072W        W31290  31.584  19.957   3.818
63073W        W31291  14.330   8.383   4.828
63074W        W31292  24.554  26.977   4.768
63075W        W31293  28.989  13.775   2.202
63076W        W31294  32.002  28.200   0.815
63077W        W31295  21.896   0.558  12.116
63078W        W31296  24.033  15.358  11.922
63079W        W31297  32.825  27.325   1.304
63080W        W31298  23.276  34.357   2.405
63081W        W31299   6.316  30.117   1.941
63082W        W31300  13.739  18.232   0.342
63083W        W31301  21.870   3.483   0.728
63084W        W31302  43.274  35.483   3.820
63085W        W31303  26.023  30.446  14.803
63086W        W31304  38.620  43.524   0.065
63087W        W31305  22.262   1.347   4.578
63088W        W31306  11.646  17.239   1.310
63089W        W31307  38.968  27.138  13.799
63090W        W31308  28.404  10.214   4.585
63091W        W31309  18.684  15.018   0.295
63092W        W31310  38.763   2.305   4.590
63093W        W31311  19.016   1.362   0.465
63094W        W31312  11.184  26.369  11.471
63095W        W31313  44.360  20.763  11.611
63096W        W31314  37.070  34.935  13.911
63097W        W31315   9.380  28.054   4.288
63098W        W31316  13.831  34.842   2.870
63099W        W31317   0.020  37.998   0.389
63100W        W31318  22.279  25.936   1.371
63101W        W31319  32.587  35.435   4.546
63102W        W31320  27.218   4.371   2.325
63103W        W31321   6.688  10.395  13.894
63104W        W31322  21.598  13.645  11.516
63105W        W31323  12.561  12.166   2.154
63106W        W31324  25.304  39.989   2.196
63107W        W31325  25.619   1.861  12.625
63108W        W31326  41.790  30.466  10.663
63109W        W31327  11.650   2.394  12.031
63110W        W31328  44.937  43.033   3.521
63111W        W31329   1.286  14.086   3.414
63112W        W31330  24.534   9.346  12.863
63113W        W31331  19.610  18.230   0.664
63114W        W31332  42.033  21.601   0.291
63115W        W31333  27.256  27.933  11.537
63116W        W31334  41.567  10.678  14.802
63117W        W31335  41.345   4.391  14.083
63118W        W31336  36.074  18.651  13.467
63119W        W31337  25.505   8.734   2.863
63120W        W31338  18.976  20.001  13.103
63121W        W31339  12.807  37.922   2.476
63122W        W31340   0.403  23.626   3.435
63123W        W31341   4.835  20.124  11.571
63124W        W31342   3.253   2.690   4.296
63125W        W31343  28.918   9.782   3.347
63126W        W31344  37.134  32.922  13.299
63127W        W31345  12.757  23.790  12.027
63128W        W31346  30.760   3.637   3.098
63129W        W31347  33.033   7.732   3.911
63130W        W31348   5.917   3.393  11.014
63131W        W31349   8.103   2.396  14.376
63132W        W31350  14.279  28.117   2.887
63133W        W31351  22.732  31.596  11.112
63134W        W31352  28.655   5.306  12.830
63135W        W31353  20.731  42.013  11.667
63136W        W31354  10.300  25.109   1.474
63137W        W31355   8.385  35.717  13.954
63138W        W31356   4.923  20.282  12.976
63139W        W31357  25.721  39.415  10.285
63140W        W31358  31.772   3.005  12.516
63141W        W31359   2.843  20.265  12.334
63142W        W31360  33.990   8.450   1.372
63143W        W31361   3.677   3.850   1.046
63144W        W31362  39.941  42.991  12.769
63145W        W31363   6.893  35.003   4.806
63146W        W31364  17.113   2.292  11.159
63147W        W31365   6.674  24.470   3.788
63148W        W31366  37.373  30.986  11.623
63149W        W31367  39.764   7.825   1.063
63150W        W31368  22.120  22.781   0.216
63151W        W31369   5.721  33.512   4.194
63152W        W31370   4.429   9.394  10.601
63153W        W31371  13.371  37.432  11.584
63154W        W31372   3.757  30.028   1.517
63155W        W31373  35.138   0.797   1.971
63156W        W31374   4.864   9.688   1.256
63157W        W31375  19.145  20.953  13.050
63158W        W31376  37.018  34.078   2.078
63159W        W31377  23.982  27.783   3.910
63160W        W31378  31.734  32.670  11.874
63161W        W31379  19.872  39.530  13.199
63162W        W31380  24.704  25.538   4.030
63163W        W31381  18.641  33.196   0.957
63164W        W31382  30.346  34.573   2.679
63165W        W31383  33.158  11.359   0.969
63166W        W31384  11.372   6.657  11.405
63167W        W31385   2.753  39.593   3.720
63168W        W31386  24.093  11.267  12.264
63169W        W31387  38.591  27.844  13.402
63170W        W31388  31.884  23.564  14.865
63171W        W31389  31.489  23.803  12.402
63172W        W31390   4.933  29.349  14.692
63173W        W31391  24.162  16.368   3.402
63174W        W31392  41.004   8.698  11.208
63175W        W31393  24.711   8.434  14.431
63176W        W31394   5.204  40.935  11.054
63177W        W31395  15.810   6.005   1.699
63178W        W31396  18.778  43.792  11.119
63179W        W31397  10.206  35.354  14.801
63180W        W31398  18.761   2.301   1.952
63181W        W31399  19.103  28.661  10.582
63182W        W31400  14.670  28.932  11.662
63183W        W31401  23.749  28.154  10.892
63184W        W31402  26.928  42.312   3.753
63185W        W31403   6.121  10.783  11.830
63186W        W31404   0.391  26.584   3.210
63187W        W31405  13.541  22.103   0.870
63188W        W31406  22.572  14.873  14.704
63189W        W31407  39.246  17.535  13.038
63190W        W31408  31.344   0.358  14.525
63191W        W31409  22.750  28.986   0.178
63192W        W31410  43.325  35.435   4.669
63193W        W31411   1.255  17.423   1.296
63194W        W31412  39.869  42.946  14.095
63195W        W31413  11.561  44.038   1.275
63196W        W31414  44.465  24.176  11.146
63197W        W31415   9.726  26.647  13.154
63198W        W31416  43.773  43.861  11.437
63199W        W31417  44.790  18.127   3.205
63200W        W31418  43.481  10.074  14.284
63201W        W31419  39.834  13.606  14.445
63202W        W31420  17.106   5.107   2.346
63203W        W31421  16.177  27.933   1.930
63204W        W31422  25.030  37.550   1.471
63205W        W31423   5.148  12.111   1.842
63206W        W31424  12.094   1.746   3.384
63207W        W31425   4.112  12.177  11.690
63208W        W31426   5.860  32.359   2.543
63209W        W31427  16.407  10.704  14.824
63210W        W31428   5.808  41.838  13.461
63211W        W31429   3.224  17.348  13.960
63212W        W31430  20.136   9.388  13.892
63213W        W31431  33.569  42.910   3.120
63214W        W31432  16.106   6.643   3.162
63215W        W31433  28.108  17.242  12.652
63216W        W31434  10.205  27.373  13.673
63217W        W31435  16.591  12.913  12.061
63218W        W31436  19.574   0.462   0.912
63219W        W31437   3.846  29.114   3.256
63220W        W31438  25.702  22.210  12.470
63221W        W31439  35.040   2.529  12.841
63222W        W31440  35.722  17.616   3.268
63223W        W31441   2.424  24.709  11.857
63224W        W31442  31.443  27.134  12.048
63225W        W31443  43.579  34.605   0.314
63226W        W31444  30.196  21.990   1.349
63227W        W31445  40.775  34.394  14.766
63228W        W31446   6.316  16.608   0.619
63229W        W31447  20.349  19.490  12.455
63230W        W31448  39.971  38.084  11.132
63231W        W31449  27.012  20.302  10.595
63232W        W31450  16.577  22.441   3.397
63233W        W31451  27.095  31.816  11.843
63234W        W31452  24.677  30.214   1.995
63235W        W31453  18.516   0.194   2.768
63236W        W31454  10.762  40.543   4.228
63237W        W31455  29.119  12.185  11.117
63238W        W31456   4.321   3.701  13.535
63239W        W31457  10.441  26.596  13.361
63240W        W31458   3.481  13.830  12.438
63241W        W31459  23.711  35.023   1.023
63242W        W31460  25.517  20.273   3.855
63243W        W31461  21.041   4.219   1.435
63244W        W31462  18.074  16.050   4.535
63245W        W31463  27.166  33.874  13.464
63246W        W31464  12.310  26.216   2.625
63247W        W31465   3.355  44.861  10.585
63248W        W31466  42.751  43.686  11.461
63249W        W31467  22.443  12.094  12.427
63250W        W31468  23.622  26.115   4.534
63251W        W31469  33.444  25.948  12.566
63252W        W31470  35.059  42.269  13.356
63253W        W31471  34.037  31.443  11.156
63254W        W31472  16.369  24.627  12.618
63255W        W31473  31.669   6.647   1.510
63256W        W31474  26.111  12.729  13.809
63257W        W31475  24.071  38.946   1.507
63258W        W31476  19.888  15.290  14.446
63259W        W31477  16.908  12.250   3.259
63260W        W31478  31.877  10.937  11.549
63261W        W31479  36.591  39.984  13.954
63262W        W31480  19.097  11.685  12.515
63263W        W31481  24.005  17.574   0.355
63264W        W31482  13.912  40.094   0.655
63265W        W31483  26.547   5.462  12.548
63266W        W31484  32.090   2.273   2.337
63267W        W31485   8.411  11.712  12.046
63268W        W31486  25.826  39.236   4.362
63269W        W31487  19.204  19.623  10.909
63270W        W31488  31.402  21.780   1.895
63271W        W31489  34.537  23.076  11.967
63272W        W31490   7.193  24.600  14.427
63273W        W31491  42.189   5.425   2.103
63274W        W31492  41.413  37.064   4.655
63275W        W31493  30.362  31.467   3.137
63276W        W31494  25.910  11.796   3.614
63277W        W31495  27.533  13.065  13.261
63278W        W31496  20.262  37.769  13.970
63279W        W31497   2.499   4.303   0.040
63280W        W31498   5.773  24.922  13.341
63281W        W31499  24.433  28.149  14.897
63282W        W31500  27.887  14.145   2.803
63283W        W31501  16.215  35.854  14.315
63284W        W31502  35.089  30.143   0.721
63285W        W31503  35.412  12.300   4.690
63286W        W31504  27.637  15.518  13.398
63287W        W31505  16.498  26.449  13.296
63288W        W31506  12.987  12.518  11.560
63289W        W31507  13.124  36.761  11.154
63290W        W31508  26.972  16.265  11.732
63291W        W31509  15.297  38.969   3.228
63292W        W31510  43.832   2.689   4.709
63293W        W31511  18.622  30.065  11.255
63294W        W31512  30.213  25.692   1.067
63295W        W31513  27.488  19.212   3.172
63296W        W31514  27.207  25.303   3.248
63297W        W31515  18.126  34.395  12.122
63298W        W31516   1.369  12.411  10.561
63299W        W31517  22.829  36.974   3.249
63300W        W31518  27.412  29.667   1.244
63301W        W31519  16.291   8.563  10.807
63302W        W31520  28.629   5.555   0.763
63303W        W31521  34.877  30.076  10.485
63304W        W31522  12.340  41.785  13.789
63305W        W31523  11.742   4.577  14.890
63306W        W31524  24.000  27.515  13.935
63307W        W31525  22.560  39.801   2.756
63308W        W31526   9.701   3.718  12.837
63309W        W31527  23.222  29.178   0.302
63310W        W31528   8.133  42.841  12.830
63311W        W31529  42.483   6.668   1.425
63312W        W31530  41.988   0.470  11.218
63313W        W31531  22.459   2.499   2.234
63314W        W31532  20.300  35.596   3.190
63315W        W31533  24.694  16.187   3.095
63316W        W31534  34.235   3.510   9.831
63317W        W31535  30.110   4.800   1.587
63318W        W31536  23.461   1.953   0.067
63319W        W31537  35.817  19.593  14.613
63320W        W31538  37.577  34.563  12.990
63321W        W31539  43.032  30.658   4.598
63322W        W31540   5.094  40.448  11.225
63323W        W31541  29.325  39.027  11.091
63324W        W31542   5.998  31.960  10.723
63325W        W31543  32.131  18.124   3.262
63326W        W31544  37.773  31.467   3.428
63327W        W31545  19.128  21.668   1.795
63328W        W31546   4.300   2.941   0.930
63329W        W31547   2.637   8.788   9.543
63330W        W31548   9.057   8.372  13.975
63331W        W31549  19.122  35.092   2.110
63332W        W31550  31.961  40.828  13.872
63333W        W31551   4.473  27.714  11.869
63334W        W31552  44.214  34.334   4.293
63335W        W31553  39.428  40.337  12.022
63336W        W31554  36.366  41.307  12.954
63337W        W31555  24.138  41.867   3.132
63338W        W31556  23.248  22.197  10.589
63339W        W31557  16.650  31.850  12.602
63340W        W31558  36.914  44.300   0.882
63341W        W31559  31.432   7.442  13.773
63342W        W31560   4.263  21.993   4.491
63343W        W31561  39.132  31.606  14.312
63344W        W31562  14.192  34.559   0.564
63345W        W31563  17.323  34.083   0.714
63346W        W31564  16.691  40.101   2.608
63347W        W31565   5.336  40.133   4.982
63348W        W31566  11.277   0.459   0.489
63349W        W31567   2.921   7.170  12.698
63350W        W31568  34.822  14.248  11.483
63351W        W31569  43.523  22.610  12.273
63352W        W31570  33.649  29.623   0.352
63353W        W31571  22.882  36.834   5.063
63354W        W31572   8.111  42.889  14.212
63355W        W31573  29.089   3.901   1.578
63356W        W31574  44.409  43.999  12.420
63357W        W31575  33.961  27.018   1.904
63358W        W31576  40.794  24.076  10.394
63359W        W31577  25.206  29.166  11.523
63360W        W31578  13.268  38.602  12.394
63361W        W31579  34.135  41.741  14.147
63362W        W31580  21.439  23.249  12.252
63363W        W31581  25.610  37.848  11.616
63364W        W31582   3.466  40.895  11.083
63365W        W31583  27.002  23.651  10.298
63366W        W31584  19.534  23.196   3.292
63367W        W31585  29.012  11.120   4.136
63368W        W31586  14.143  27.453   3.727
63369W        W31587  34.615  43.520  13.056
63370W        W31588  17.023  11.080   4.062
63371W        W31589  28.029  25.602  14.217
63372W        W31590  36.486  24.520  14.832
63373W        W31591  44.873   7.418   2.711
63374W        W31592  15.546  35.960  11.759
63375W        W31593  11.636  27.157  13.573
63376W        W31594  12.652  36.153  13.828
63377W        W31595  43.548  37.031  14.853
63378W        W31596   4.461  33.382  13.517
63379W        W31597  32.073  19.860  14.070
63380W        W31598  22.988   3.335  12.939
63381W        W31599  19.872   5.318   4.786
63382W        W31600   0.255  21.593   4.672
63383W        W31601  11.231  38.417  13.391
63384W        W31602  23.206  17.305   3.281
63385W        W31603  13.374  26.072  13.950
63386W        W31604  14.121  14.668   2.742
63387W        W31605   8.886  39.383   1.762
63388W        W31606   2.489  40.374  13.898
63389W        W31607  41.803  12.272   2.269
63390W        W31608  31.527  11.691   1.219
63391W        W31609  20.212  29.945   0.400
63392W        W31610  41.340  25.434  12.265
63393W        W31611  32.565  20.707   4.640
63394W        W31612  20.294  19.081  12.134
63395W        W31613   1.446  39.436  13.449
63396W        W31614  31.631  44.207  14.974
63397W        W31615  31.918  11.418  11.692
63398W        W31616   1.424  35.514   3.314
63399W        W31617   5.447  33.118   2.884
63400W        W31618  29.500   2.022  11.256
63401W        W31619  11.295   5.902   1.776
63402W        W31620   2.852  38.269   3.313
63403W        W31621  16.158   7.920  13.339
63404W        W31622  26.378  27.489  12.467
63405W        W31623   1.993  21.755   1.865
63406W        W31624   1.722  17.205   1.889
63407W        W31625  36.316  12.311  12.041
63408W        W31626   5.624  42.490  12.670
63409W        W31627  16.882  20.248  14.333
63410W        W31628  44.275   4.838  11.662
63411W        W31629  35.529  29.890  13.113
63412W        W31630  36.413  25.728   4.298
63413W        W31631  38.016   0.517   3.355
63414W        W31632  15.566  36.940   1.347
63415W        W31633   1.417  40.192   1.531
63416W        W31634   8.647  30.167   4.811
63417W        W31635   1.028   1.412  13.995
63418W        W31636  18.163   1.062  14.974
63419W        W31637   2.943  16.081   3.847
63420W        W31638   5.442   4.054   1.825
63421W        W31639   3.815  28.603  14.522
63422W        W31640  42.551   9.289  11.721
63423W        W31641  18.816  39.340  10.881
63424W        W31642  23.931  14.294  12.110
63425W        W31643   5.210   9.229   4.191
63426W        W31644   6.428  20.289  14.542
63427W        W31645  37.757  25.160   0.870
63428W        W31646  40.015  28.762   2.404
63429W        W31647  19.990  29.211   2.854
63430W        W31648  36.892  24.820   9.795
63431W        W31649   1.052  41.246  11.971
63432W        W31650  29.928  43.377  11.736
63433W        W31651  30.532  24.772  11.204
63434W        W31652  12.038  10.099   2.624
63435W        W31653  25.226  11.235  14.740
63436W        W31654  38.012  20.999   2.447
63437W        W31655  32.485  20.819  11.408
63438W        W31656  15.198   6.465  10.794
63439W        W31657   7.165  16.590  14.738
63440W        W31658  25.008   5.813   2.674
63441W        W31659  36.834   3.248   3.681
63442W        W31660  44.962  11.859  14.792
63443W        W31661  39.611   4.395  14.513
63444W        W31662   5.739  44.953  12.565
63445W        W31663  44.993  29.240  12.020
63446W        W31664   5.284  15.621   3.683
63447W        W31665  35.080   4.232  12.471
63448W        W31666  23.103  16.641   2.110
63449W        W31667  29.607  12.391   0.366
63450W        W31668  31.619  24.639   3.717
63451W        W31669  31.947  30.021  13.509
63452W        W31670  34.846  44.484  14.976
63453W        W31671  25.433  22.083   1.252
63454W        W31672   6.087  36.775  11.604
63455W        W31673  39.066  12.013   1.552
63456W        W31674   0.075  12.204   3.283
63457W        W31675  15.954  44.070   1.256
63458W        W31676   1.085  21.410  14.855
63459W        W31677   8.195   1.885   0.384
63460W        W31678  41.660  43.540  12.574
63461W        W31679  15.717  35.777  14.158
63462W        W31680  41.378  30.964   1.701
63463W        W31681  18.569  41.075  12.066
63464W        W31682  19.093   7.966  13.149
63465W        W31683   0.938  15.736  14.480
63466W        W31684   1.722  19.187   3.585
63467W        W31685  44.309  14.771  11.164
63468W        W31686  26.036   7.350   3.188
63469W        W31687  35.426  41.801   0.914
63470W        W31688  43.252  19.235  10.781
63471W        W31689   4.655   0.022  14.354
63472W        W31690  37.309   0.175   0.982
63473W        W31691  30.530  10.450  11.149
63474W        W31692  23.707  34.189   5.422
63475W        W31693  34.869  20.684  14.733
63476W        W31694  21.730  11.672   0.989
63477W        W31695   0.153  13.366   4.542
63478W        W31696   2.789  24.993   5.133
63479W        W31697   6.172  12.843   0.673
63480W        W31698   8.963  13.886   2.699
63481W        W31699  35.660  15.292  11.141
63482W        W31700  12.437  14.261  14.831
63483W        W31701  18.838  42.844  12.859
63484W        W31702  18.682   5.332   3.475
63485W        W31703   9.186   0.652   3.376
63486W        W31704   9.699   4.078   3.771
63487W        W31705  31.677  18.221  12.255
63488W        W31706  42.050  10.854  13.371
63489W        W31707  41.296  24.662  11.891
63490W        W31708   4.090  12.872   1.591
63491W        W31709  34.281  32.244   1.883
63492W        W31710   1.491  41.406   2.466
63493W        W31711   6.315   7.621  11.188
63494W        W31712  20.276   1.842   3.632
63495W        W31713   3.022  30.178  13.600
63496W        W31714   7.757  32.629  14.434
63497W        W31715  15.251  23.676  14.409
63498W        W31716  32.052  15.045  13.977
63499W        W31717  29.666  21.322   0.017
63500W        W31718  12.133   8.156   4.475
63501W        W31719  21.675  36.883  10.261
63502W        W31720  40.591  24.092   3.916
63503W        W31721   8.260  23.048   4.388
63504W        W31722  12.742  41.060   3.644
63505W        W31723  42.301  14.092  12.089
63506W        W31724  10.485  32.120  14.255
63507W        W31725  26.694  42.043  13.030
63508W        W31726  44.990  26.613   5.025
63509W        W31727  40.218  27.919   4.489
63510W        W31728  31.560  17.724  14.399
63511W        W31729  37.293  11.566  12.350
63512W        W31730  16.597  42.686  14.686
63513W        W31731  39.813  13.176  12.268
63514W        W31732  34.608  26.933  14.821
63515W        W31733  36.782  12.638  10.261
63516W        W31734   5.724  40.027  11.901
63517W        W31735  37.345  42.786  12.469
63518W        W31736  28.405  41.893   2.346
63519W        W31737  11.849  25.161  10.399
63520W        W31738  22.518  41.863  11.988
63521W        W31739  30.066   0.338   0.948
63522W        W31740  35.011  17.690  11.564
63523W        W31741   5.459  10.305  12.351
63524W        W31742  11.550  14.454   2.347
63525W        W31743  29.157   7.724   1.312
63526W        W31744  37.485  42.519   3.374
63527W        W31745  26.061  33.811   4.539
63528W        W31746   2.374  18.609   0.893
63529W        W31747  32.514  32.145   4.215
63530W        W31748  29.166  13.011  14.097
63531W        W31749  16.048  11.450   3.477
63532W        W31750  29.112  40.306  14.238
63533W        W31751  26.535  31.780  11.617
63534W        W31752  44.304  29.920  11.194
63535W        W31753   7.275  22.468   1.665
63536W        W31754  20.880  19.878  13.606
63537W        W31755  25.726  35.908   0.471
63538W        W31756  30.930  30.945  13.460
63539W        W31757  41.823  43.042  12.403
63540W        W31758  39.639  33.363   0.508
63541W        W31759  34.909   8.484  13.860
63542W        W31760  37.831  14.109   1.661
63543W        W31761   4.511  31.505  11.557
63544W        W31762  27.698  18.537   2.614
63545W        W31763  17.966  10.797   2.198
63546W        W31764  24.707   8.845   3.983
63547W        W31765  27.960  34.824  12.462
63548W        W31766  28.388  40.479  10.708
63549W        W31767  28.995  40.824  14.260
63550W        W31768  14.727  43.234   0.364
63551W        W31769  25.209   3.256   0.486
63552W        W31770   3.450  29.448   1.831
63553W        W31771  30.110  38.990  13.823
63554W        W31772  13.311  24.542   3.232
63555W        W31773  43.776  30.078   3.561
63556W        W31774   4.247  27.170   1.281
63557W        W31775  40.661  23.026  12.874
63558W        W31776  23.685  36.938   4.436
63559W        W31777  33.569  13.603   1.238
63560W        W31778  42.937  34.868  10.901
63561W        W31779  11.167  21.130  13.103
63562W        W31780  39.485  14.263   4.590
63563W        W31781   5.878  39.717   1.407
63564W        W31782   9.523  35.920   0.884
63565W        W31783  31.340   3.377   4.184
63566W        W31784  29.695   4.661   0.324
63567W        W31785  41.801  32.488  14.279
63568W        W31786  33.637  25.694   0.354
63569W        W31787   8.370  28.214  10.654
63570W        W31788  41.008  26.677   2.819
63571W        W31789  15.747  39.347   4.716
63572W        W31790  19.042  38.242  11.046
63573W        W31791  44.728  13.851  14.902
63574W        W31792   0.646  20.630  12.054
63575W        W31793  28.159  24.516   3.704
63576W        W31794  32.970   1.298  11.186
63577W        W31795   0.061  23.077   1.741
63578W        W31796   1.711  25.573  14.538
63579W        W31797  33.905  12.056  11.788
63580W        W31798   4.788  21.525  11.455
63581W        W31799  28.502  23.416  12.015
63582W        W31800  13.189  18.038   1.889
63583W        W31801  44.487  28.169  13.369
63584W        W31802  13.854  19.782  11.009
63585W        W31803  29.908  24.469  12.979
63586W        W31804   8.317  11.189   3.405
63587W        W31805  43.051  41.050  12.295
63588W        W31806   0.181  39.564  12.873
63589W        W31807   0.775  43.406  12.380
63590W        W31808  24.741  37.547  14.694
63591W        W31809  28.900   8.210  13.575
63592W        W31810  31.288   0.181  11.013
63593W        W31811   6.920   7.830   1.254
63594W        W31812   8.898   1.334   0.411
63595W        W31813  21.643  17.979  13.234
63596W        W31814  23.974  17.743  10.752
63597W        W31815  38.577  26.679  11.465
63598W        W31816   7.801  38.397  13.631
63599W        W31817  17.692  22.670   0.479
63600W        W31818   5.642  41.105   1.872
63601W        W31819  36.297  21.172  12.926
63602W        W31820  16.836  19.846  10.885
63603W        W31821  24.080  27.494   2.904
63604W        W31822  12.669  43.018   2.910
63605W        W31823  43.895  39.066  10.752
63606W        W31824   6.098  23.593   0.461
63607W        W31825   8.728  27.583  14.767
63608W        W31826  24.744  22.376   3.639
63609W        W31827  39.033  20.004  13.842
63610W        W31828  12.716   5.389  14.027
63611W        W31829  44.795   1.228  13.370
63612W        W31830  44.565  21.229  11.549
63613W        W31831   6.868  38.856   1.703
63614W        W31832  42.859   9.901  12.725
63615W        W31833  38.299  37.903   3.416
63616W        W31834  12.660  39.622   4.395
63617W        W31835  33.465  14.882   4.296
63618W        W31836  24.486  24.208   2.862
63619W        W31837   6.264  16.625   1.615
63620W        W31838  43.906  12.719   4.363
63621W        W31839  41.316   0.485   0.900
63622W        W31840   9.673  25.128   2.387
63623W        W31841  28.222  23.022   3.181
63624W        W31842  38.317  12.608  12.376
63625W        W31843  42.391  14.201   4.636
63626W        W31844   9.903  32.063   2.305
63627W        W31845  32.521  23.522  11.896
63628W        W31846  19.443  26.426   0.530
63629W        W31847  19.714   6.127  12.954
63630W        W31848   5.877   7.484  13.657
63631W        W31849  43.069  35.538  14.047
63632W        W31850  33.797  12.292   4.942
63633W        W31851  39.251  10.153   4.230
63634W        W31852   0.557  14.836  11.460
63635W        W31853   9.188  21.260   0.705
63636W        W31854  25.997   8.601  11.575
63637W        W31855  16.973   2.175  12.461
63638W        W31856  12.405   3.459   4.030
63639W        W31857  14.749  24.497  13.964
63640W        W31858  20.316   2.910   2.123
63641W        W31859  33.558  31.452  10.970
63642W        W31860   4.212   2.519  12.715
63643W        W31861  32.930  30.676  14.398
63644W        W31862  23.224   0.990  14.359
63645W        W31863   5.889  33.500  13.843
63646W        W31864  40.814  19.340   2.380
63647W        W31865  32.363  39.522  12.923
63648W        W31866  25.469  11.698   1.830
63649W        W31867  37.660  34.402   0.951
63650W        W31868  43.069   2.834  13.633
63651W        W31869  31.415  22.057  13.986
63652W        W31870  40.771  33.380  10.944
63653W        W31871  22.527  28.328  14.565
63654W        W31872  44.881  36.393   0.910
63655W        W31873   1.919  20.254   0.671
63656W        W31874  32.056  43.277  14.174
63657W        W31875  11.706  16.819  14.333
63658W        W31876  43.168  40.887  12.777
63659W        W31877  39.297  39.401   4.142
63660W        W31878  32.939   6.255  14.916
63661W        W31879   8.897  42.155  13.509
63662W        W31880  23.581  44.532   1.911
63663W        W31881  30.645  11.343  10.663
63664W        W31882   4.884  39.187   2.380
63665W        W31883   5.673  32.226   0.238
63666W        W31884  22.122   6.259   2.589
63667W        W31885  17.653   3.679   4.224
63668W        W31886  42.108  10.241  12.084
63669W        W31887  40.363  37.091   4.545
63670W        W31888   9.976  15.768   1.813
63671W        W31889  37.445  37.072   2.611
63672W        W31890  13.136  31.429   1.904
63673W        W31891  13.331  19.083   3.309
63674W        W31892  35.297  41.591   1.426
63675W        W31893  30.656  13.227   2.430
63676W        W31894   1.019   3.365   1.881
63677W        W31895  41.901   1.237  10.765
63678W        W31896  38.286  43.895   3.641
63679W        W31897  22.484  28.034   4.135
63680W        W31898  35.280   9.217   2.813
63681W        W31899  43.719  21.555   4.188
63682W        W31900   9.972  10.172  13.654
63683W        W31901  20.025   6.212   4.166
63684W        W31902  42.993  23.150  13.526
63685W        W31903  33.437   8.243   4.637
63686W        W31904  41.303   3.951   0.397
63687W        W31905   5.659   9.794   0.837
63688W        W31906  28.418  44.474   0.868
63689W        W31907  38.142  13.976  11.981
63690W        W31908   8.644   1.002  12.661
63691W        W31909  25.251  35.247  10.838
63692W        W31910  30.539  35.278  13.255
63693W        W31911  17.839  37.059  10.401
63694W        W31912  17.120   4.234   1.142
63695W        W31913  19.592  34.064   0.831
63696W        W31914   7.248   0.037  12.944
63697W        W31915  23.723  13.258   1.232
63698W        W31916   8.990  32.941   3.757
63699W        W31917  40.097  19.575   4.145
63700W        W31918  37.821  16.169  10.983
63701W        W31919   6.235   3.660  12.463
63702W        W31920   2.752  31.900  14.440
63703W        W31921  13.928   1.862   2.324
63704W        W31922   4.611  18.902   4.833
63705W        W31923  40.354  14.170   3.567
63706W        W31924  38.272  25.696  12.636
63707W        W31925  39.962   8.236   0.750
63708W        W31926  11.279  38.799   2.657
63709W        W31927  21.833  32.711  11.473
63710W        W31928   1.743   6.360   0.528
63711W        W31929  18.028  30.997   4.802
63712W        W31930  14.849  14.221   1.957
63713W        W31931   0.065   5.840  11.097
63714W        W31932  25.678  32.271   0.743
63715W        W31933  33.417  19.893  11.059
63716W        W31934  24.484  42.755   0.007
63717W        W31935  20.760  42.381   2.962
63718W        W31936  13.579  42.442   3.906
63719W        W31937  27.171  22.265  12.480
63720W        W31938  36.836   1.448  13.467
63721W        W31939  23.082  33.613  10.543
63722W        W31940  31.449  29.520  12.970
63723W        W31941  40.740  31.573  10.689
63724W        W31942   4.453  16.929  13.189
63725W        W31943  33.326  21.752  13.407
63726W        W31944  27.383  16.604  14.919
63727W        W31945  29.490  11.615  10.784
63728W        W31946   5.348  13.294  14.934
63729W        W31947  35.082  34.299   0.375
63730W        W31948  31.478  35.994  12.174
63731W        W31949  40.915   1.721   0.456
63732W        W31950  27.364  40.332   2.847
63733W        W31951  40.447  22.743   4.588
63734W        W31952  14.565  37.029  13.479
63735W        W31953  14.199  21.197  13.569
63736W        W31954  35.264  21.229  10.660
63737W        W31955  12.778  38.107  13.593
63738W        W31956  20.253  17.273  11.082
63739W        W31957  30.729  39.583   1.812
63740W        W31958  42.337  16.598   2.346
63741W        W31959  14.510  10.124  12.514
63742W        W31960   0.207  15.627   0.901
63743W        W31961  17.761  43.307   1.483
63744W        W31962  21.724  26.002  10.579
63745W        W31963  36.334  18.895   0.214
63746W        W31964  17.476  25.990   1.072
63747W        W31965  20.787  14.363  14.258
63748W        W31966   2.313  44.485   4.757
63749W        W31967  39.619   2.626  11.250
63750W        W31968  15.406  39.695   3.836
63751W        W31969  34.105   2.507  12.434
63752W        W31970  42.715  10.657  14.041
63753W        W31971  33.063  42.555   1.739
63754W        W31972  25.131  37.353   2.358
63755W        W31973  43.762  20.673   1.794
63756W        W31974  15.739  37.924   4.805
63757W        W31975  44.790   8.404  14.736
63758W        W31976  22.336  21.403   1.657
63759W        W31977  33.944  34.084   2.799
63760W        W31978   5.339  11.433  12.815
63761W        W31979   8.135   0.847  13.427
63762W        W31980  33.909  18.864  11.100
63763W        W31981  42.021   3.850   4.757
63764W        W31982  31.402   0.789   2.690
63765W        W31983  41.028  29.551   3.700
63766W        W31984  34.187  16.143   0.374
63767W        W31985  20.074  14.747  12.372
63768W        W31986  34.699  33.967   1.345
63769W        W31987  14.731  37.810   0.424
63770W        W31988  44.990   0.709   3.178
63771W        W31989  10.251   7.376   1.369
63772W        W31990   4.532  19.177  14.498
63773W        W31991  28.090  21.688  11.682
63774W        W31992  34.809   0.732   1.580
63775W        W31993  23.676   1.740   4.387
63776W        W31994  30.481  24.755  13.860
63777W        W31995  18.383  26.213   4.531
63778W        W31996  16.692  19.565   1.968
63779W        W31997  32.483  24.898   2.934
63780W        W31998  20.210  43.315   1.212
63781W        W31999  41.290  29.873   4.201
63782W        W32000  15.311   1.501   3.739
63783W        W32001  19.075  40.348   0.876
63784W        W32002   1.756  14.347   0.733
63785W        W32003  13.431   7.283   1.234
63786W        W32004  42.266  37.938   3.422
63787W        W32005  24.809  18.125   9.835
63788W        W32006  25.751  20.592  11.109
63789W        W32007  38.081  34.020  12.486
63790W        W32008  38.558  40.509   3.707
63791W        W32009  31.285  29.922   4.362
63792W        W32010  12.326  35.442   1.791
63793W        W32011   0.148  23.411   3.829
63794W        W32012  30.166   0.199   3.619
63795W        W32013   1.003   4.345  12.712
63796W        W32014   5.012  14.567   0.429
63797W        W32015  33.013   0.482  14.362
63798W        W32016   4.636  20.665  11.695
63799W        W32017  41.396  12.999   0.365
63800W        W32018   2.393  12.032  14.427
63801W        W32019  28.837   3.984   3.468
63802W        W32020   6.245  23.953  11.427
63803W        W32021   5.816  24.242   1.753
63804W        W32022  27.057  32.084  13.877
63805W        W32023  43.932  21.198   3.889
63806W        W32024  35.581  18.785   4.780
63807W        W32025  22.697  31.989  13.330
63808W        W32026  10.426   1.770   2.707
63809W        W32027  41.556  29.183   2.227
63810W        W32028  34.504   5.757  11.901
63811W        W32029  22.187  40.726   1.355
63812W        W32030  38.366   7.477  13.805
63813W        W32031  30.028   6.723  10.942
63814W        W32032  43.280  18.630   1.779
63815W        W32033  14.868  31.270  13.601
63816W        W32034  42.321  37.643   0.891
63817W        W32035   0.790  21.643  14.434
63818W        W32036  18.080  17.335   1.227
63819W        W32037  17.358   3.228   4.240
63820W        W32038  25.938  10.439   3.721
63821W        W32039  15.571  18.659   4.105
63822W        W32040  31.865   7.124   4.846
63823W        W32041  20.701  12.568  11.509
63824W        W32042  36.246  18.045  11.146
63825W        W32043  11.597  21.792  11.111
63826W        W32044  29.696   3.216  12.864
63827W        W32045  32.194  21.473  12.417
63828W        W32046   6.669  40.085  14.277
63829W        W32047  18.812  33.508   4.295
63830W        W32048  18.322  26.692   4.709
63831W        W32049   9.730  31.704   1.915
63832W        W32050  28.648   1.706   3.424
63833W        W32051   6.760  35.400   3.782
63834W        W32052  24.744   8.915   3.487
63835W        W32053  26.937   7.231  11.730
63836W        W32054  20.312  29.045  11.071
63837W        W32055  35.038  31.653  13.435
63838W        W32056  31.067   0.877  12.532
63839W        W32057  18.014  44.669   1.901
63840W        W32058  23.442  18.172   3.573
63841W        W32059  25.926  34.683   0.715
63842W        W32060  12.599   6.761   2.281
63843W        W32061  29.155  34.851   1.448
63844W        W32062  31.185  41.079   2.605
63845W        W32063  29.905  31.775  12.588
63846W        W32064  29.418   7.890   1.754
63847W        W32065  12.376  39.485   0.852
63848W        W32066  20.232  22.349   1.235
63849W        W32067  23.451  31.537  10.677
63850W        W32068  39.018  31.551   1.844
63851W        W32069   0.584   6.445   2.830
63852W        W32070  43.440  38.313   0.861
63853W        W32071   1.199  15.186  11.591
63854W        W32072  19.041  29.506  13.038
63855W        W32073  44.462  29.400  11.223
63856W        W32074   5.170  44.870  11.923
63857W        W32075   1.860  14.271  11.524
63858W        W32076  42.048   2.979  11.982
63859W        W32077  42.494  33.114  14.385
63860W        W32078  34.508  19.179   2.703
63861W        W32079  11.336  16.223  10.549
63862W        W32080   9.729  42.446  11.623
63863W        W32081  11.658  26.494  11.356
63864W        W32082  20.944  24.288   5.004
63865W        W32083  39.056   9.840  11.181
63866W        W32084  12.166  23.711  10.761
63867W        W32085  29.925  21.780  13.284
63868W        W32086  14.122   5.519  13.323
63869W        W32087  35.147  16.802   3.692
63870W        W32088  17.793   2.063  13.479
63871W        W32089  30.592  42.227  12.550
63872W        W32090  38.554   5.163   0.649
63873W        W32091  35.955  31.151   0.353
63874W        W32092  38.892   9.961  12.522
63875W        W32093  33.820  44.306   0.910
63876W        W32094  11.890  19.568  13.955
63877W        W32095  24.628  19.389  11.880
63878W        W32096  42.687  21.631   4.157
63879W        W32097   6.249  17.284  11.515
63880W        W32098  26.237  35.279  11.005
63881W        W32099  24.125  44.817   1.769
63882W        W32100  17.617   5.905  12.182
63883W        W32101  39.779  19.091  10.845
63884W        W32102  12.137  21.172   3.289
63885W        W32103  12.031   3.831   3.167
63886W        W32104   3.838  36.469   3.228
63887W        W32105  24.097   6.801  13.788
63888W        W32106   1.459  42.312  12.922
63889W        W32107   1.158  16.256  10.544
63890W        W32108  39.487  38.385  11.630
63891W        W32109  17.624  25.946   0.578
63892W        W32110  31.462  44.785   2.931
63893W        W32111  10.654   6.621   2.824
63894W        W32112   5.414  16.795   1.221
63895W        W32113  35.868  13.719   2.452
63896W        W32114  33.950  34.886   0.512
63897W        W32115  30.682  27.615  11.979
63898W        W32116  31.490  40.653   2.484
63899W        W32117  12.788  18.655   1.333
63900W        W32118  12.253  28.153   2.737
63901W        W32119  34.627   3.275  10.621
63902W        W32120  28.115   7.886   4.863
63903W        W32121  38.018  29.594   2.919
63904W        W32122  13.614  43.816   0.676
63905W        W32123  20.271  10.881  12.081
63906W        W32124  24.070  11.706   2.706
63907W        W32125  38.850  26.921   4.131
63908W        W32126  42.993  22.864  10.417
63909W        W32127  42.463  32.414  11.731
63910W        W32128  22.170  20.525  10.369
63911W        W32129   0.215  15.324   0.185
63912W        W32130  41.813  20.025  13.981
63913W        W32131  28.067  33.663  13.896
63914W        W32132  25.996  44.118   0.878
63915W        W32133   4.437  17.635   0.830
63916W        W32134  23.496  10.573  12.613
63917W        W32135  40.581  21.235  13.356
63918W        W32136  32.000  13.786   0.970
63919W        W32137   2.749   5.289   4.607
63920W        W32138  29.572  19.950  12.175
63921W        W32139  15.552   5.704   3.692
63922W        W32140  41.842  29.738  13.416
63923W        W32141  33.201  31.444   5.019
63924W        W32142  33.521  36.147  11.029
63925W        W32143  22.977  43.310   3.293
63926W        W32144  27.795  15.055   1.678
63927W        W32145  27.665  38.137  10.719
63928W        W32146   3.897  26.417   4.721
63929W        W32147   8.296  19.684   2.074
63930W        W32148  26.266   1.784  11.948
63931W        W32149  38.314  17.305  11.683
63932W        W32150  33.319  42.864   1.144
63933W        W32151   2.832  39.928   0.917
63934W        W32152   1.350  11.204   4.865
63935W        W32153  14.213  33.137   0.903
63936W        W32154  32.965  16.149  13.986
63937W        W32155   6.915  35.935  12.022
63938W        W32156  11.292  19.079  11.968
63939W        W32157  28.724  33.403   2.839
63940W        W32158  26.245   4.752  12.887
63941W        W32159   1.502   4.483   0.269
63942W        W32160  43.763  10.240   1.392
63943W        W32161   3.183  11.918   3.390
63944W        W32162  16.723  34.563   2.084
63945W        W32163   7.931  19.439  10.909
63946W        W32164  37.248  25.003   0.957
63947W        W32165  32.905   5.784  10.921
63948W        W32166  39.597  38.972  12.325
63949W        W32167  37.044  22.483  12.517
63950W        W32168   4.980  16.802   3.297
63951W        W32169   8.373  30.282  13.048
63952W        W32170  32.406  18.499  11.679
63953W        W32171   9.877  35.971   4.606
63954W        W32172   9.241  32.305  13.654
63955W        W32173  40.092  19.101  12.784
63956W        W32174  19.264  20.495  14.347
63957W        W32175   9.399  31.556  11.019
63958W        W32176  33.869  14.968   3.556
63959W        W32177  42.440  38.137   1.709
63960W        W32178  33.835   0.793   2.025
63961W        W32179  32.089   2.395   0.428
63962W        W32180   7.748   3.762  13.841
63963W        W32181  42.545  16.281   3.170
63964W        W32182  24.371  21.569  10.040
63965W        W32183  35.514   3.328  13.363
63966W        W32184  37.368  16.230  12.549
63967W        W32185   2.030  31.873  12.144
63968W        W32186   6.854  39.259  11.172
63969W        W32187  11.859  17.727   1.228
63970W        W32188  33.931   5.108   3.194
63971W        W32189   3.115  28.559   4.950
63972W        W32190   1.579  34.067   2.624
63973W        W32191  36.784  10.139   4.590
63974W        W32192   0.713  16.195  14.425
63975W        W32193  18.264   9.272  13.858
63976W        W32194  39.721   0.405  12.491
63977W        W32195  22.463   3.801  14.486
63978W        W32196  44.235  28.936  11.625
63979W        W32197  35.794  19.202   4.100
63980W        W32198   5.752  33.781  14.275
63981W        W32199  42.610  31.835  11.149
63982W        W32200  11.335   1.410  11.610
63983W        W32201  33.558   4.360   3.775
63984W        W32202  41.363  25.798   2.681
63985W        W32203  30.808  43.742  13.756
63986W        W32204  43.369  32.870   3.706
63987W        W32205  26.476  28.118   5.146
63988W        W32206  21.390  43.872  11.615
63989W        W32207  32.900  17.653   3.059
63990W        W32208  22.034   5.413  10.716
63991W        W32209  13.959   6.510   0.952
63992W        W32210   3.319  10.025   1.931
63993W        W32211  31.663  31.498   4.169
63994W        W32212  39.925  23.210  11.422
63995W        W32213  36.338  25.136   0.886
63996W        W32214   1.811  42.259  13.396
63997W        W32215  41.993  18.291  12.758
63998W        W32216  43.783  12.889   3.197
63999W        W32217  44.266  42.052   0.011
64000W        W32218   5.855   3.919  10.520
64001W        W32219  37.051  16.787   0.676
64002W        W32220  40.559   9.961  12.913
64003W        W32221  28.722  18.086  12.317
64004W        W32222  23.723  14.976   4.226
64005W        W32223   9.189  13.295   1.854
64006W        W32224   6.016  26.118  13.881
64007W        W32225  19.351   9.787  13.580
64008W        W32226  18.572  38.892  12.660
64009W        W32227   0.869  44.525   3.803
64010W        W32228  31.644  13.196  11.027
64011W        W32229  35.401  44.845   2.641
64012W        W32230  35.141  28.058  12.654
64013W        W32231  24.277  29.248   3.327
64014W        W32232  43.809  35.048  11.403
64015W        W32233  15.909  20.023  14.532
64016W        W32234  22.020  25.303   0.338
64017W        W32235  18.515   5.682   2.833
64018W        W32236  21.563  37.990   3.963
64019W        W32237  14.111   5.931  11.108
64020W        W32238  25.259   5.229   3.307
64021W        W32239  37.099  39.990  14.068
64022W        W32240  37.481   3.465  14.278
64023W        W32241  27.897  18.096   3.730
64024W        W32242  13.128  13.690  14.220
64025W        W32243  36.939  17.341  13.886
64026W        W32244  44.496  26.731  13.876
64027W        W32245  27.669  20.676  11.118
64028W        W32246   5.826  15.543   2.500
64029W        W32247   3.929   4.840  10.815
64030W        W32248   3.805  29.095  11.920
64031W        W32249   8.931  43.026   1.432
64032W        W32250   4.717  26.550  14.027
64033W        W32251   1.635   0.893   1.349
64034W        W32252  15.108  15.766   2.348
64035W        W32253   4.768  44.686   3.349
64036W        W32254  33.600  35.211   0.314
64037W        W32255  12.191  16.295   1.377
64038W        W32256  28.357  39.486   2.300
64039W        W32257  32.003  13.226  10.652
64040W        W32258  26.214  15.880  11.605
64041W        W32259  20.152  13.819  11.522
64042W        W32260  29.213  42.913   2.281
64043W        W32261  12.660  27.024   1.461
64044W        W32262  34.088  25.362   3.197
64045W        W32263  26.029  28.975  14.792
64046W        W32264  28.416  44.945   3.220
64047W        W32265  12.338  16.127  10.367
64048W        W32266   5.456  23.051   2.385
64049W        W32267  23.614  38.785   4.808
64050W        W32268  43.062  31.981   1.453
64051W        W32269  39.707  43.033  12.317
64052W        W32270  29.659  11.680   3.642
64053W        W32271   8.062  30.817  13.901
64054W        W32272  19.722  25.745   1.704
64055W        W32273  14.300  31.785  12.956
64056W        W32274  42.832  40.946   0.070
64057W        W32275  37.735  10.576  13.770
64058W        W32276   7.813  37.637  12.532
64059W        W32277  33.851   0.928   4.573
64060W        W32278  16.365  44.982   3.224
64061W        W32279   9.574  17.496  14.931
64062W        W32280   9.818  40.431   0.212
64063W        W32281  17.226  27.528   0.347
64064W        W32282  11.197   4.304   3.258
64065W        W32283  35.823  22.016   0.476
64066W        W32284  26.073  29.580  11.168
64067W        W32285  30.707  34.990   2.667
64068W        W32286   0.448  17.703  12.672
64069W        W32287  38.019  19.482   2.780
64070W        W32288  35.486  12.424  14.684
64071W        W32289  29.033  35.373   4.246
64072W        W32290   0.191   7.853   0.551
64073W        W32291  27.969  15.260   4.434
64074W        W32292   4.250  32.978  14.428
64075W        W32293  41.525  36.394  14.242
64076W        W32294  35.591  42.315   4.240
64077W        W32295  30.888  29.270   0.860
64078W        W32296  31.493  36.336   0.462
64079W        W32297  40.533  43.335  12.654
64080W        W32298  33.944  39.759   3.474
64081W        W32299  21.389  42.743   1.768
64082W        W32300  40.408  32.993  10.727
64083W        W32301  20.239  21.607  13.985
64084W        W32302  14.536   5.663   3.956
64085W        W32303   6.739  23.518   1.319
64086W        W32304  15.783   0.433  11.706
64087W        W32305  36.273  14.637   4.207
64088W        W32306  11.580   7.046  11.841
64089W        W32307  16.683  39.334   4.088
64090W        W32308  23.678  21.254  14.948
64091W        W32309  44.088  42.229   3.733
64092W        W32310  26.910  34.047   1.913
64093W        W32311  44.678  40.837  10.757
64094W        W32312  26.937  37.411   4.114
64095W        W32313  22.164  10.132   1.754
64096W        W32314  33.306  29.333  11.045
64097W        W32315   3.679  17.214  13.242
64098W        W32316  37.018  24.001  10.890
64099W        W32317  38.572  16.095  14.043
64100W        W32318  33.816  44.516   2.165
64101W        W32319  18.293  31.880  14.917
64102W        W32320  37.413  31.453  11.425
64103W        W32321  41.586  21.050   4.812
64104W        W32322  33.905  38.203  11.728
64105W        W32323  10.738  43.185   4.061
64106W        W32324  14.427   4.331   2.285
64107W        W32325  37.363  37.505   2.318
64108W        W32326  13.737  27.782  10.946
64109W        W32327  43.181  20.514   3.199
64110W        W32328   7.899  34.049  14.938
64111W        W32329  41.816   5.380  12.094
64112W        W32330   4.809   4.220   2.381
64113W        W32331  44.773   3.399   4.627
64114W        W32332  26.671  30.008   2.257
64115W        W32333   5.842  23.652  10.647
64116W        W32334  35.534  40.478   4.394
64117W        W32335  24.555   6.382  13.468
64118W        W32336  27.245  34.347   4.094
64119W        W32337   4.463   3.577   3.012
64120W        W32338  15.200  17.139   4.000
64121W        W32339  34.995  18.343  10.603
64122W        W32340   0.415  32.939  12.514
64123W        W32341  36.895  43.275  11.191
64124W        W32342  29.234   0.385  11.143
64125W        W32343   1.042   9.349  13.827
64126W        W32344  27.996  26.085   4.565
64127W        W32345   4.096  16.823   1.795
64128W        W32346   2.524  30.639   0.348
64129W        W32347  30.492  26.116  11.511
64130W        W32348  21.716   5.489  11.098
64131W        W32349  22.491  22.286   4.664
64132W        W32350  30.835  18.013  14.504
64133W        W32351  25.677  37.784   4.914
64134W        W32352   2.740  11.674  14.985
64135W        W32353  44.867   9.331  14.874
64136W        W32354  40.299   1.826  14.956
64137W        W32355  29.512  22.245   4.877
64138W        W32356  32.747  15.081  11.741
64139W        W32357  17.492  39.048   3.133
64140W        W32358  24.843   0.431   1.903
64141W        W32359  41.812   9.549   0.677
64142W        W32360   2.794   1.710  13.405
64143W        W32361  14.933  18.847   2.791
64144W        W32362   4.676  17.637   2.246
64145W        W32363  16.897  18.134  14.523
64146W        W32364   1.779  29.853   3.233
64147W        W32365   6.943   5.484  12.522
64148W        W32366  23.285  36.887  13.970
64149W        W32367  15.102  36.994  12.423
64150W        W32368  31.248  40.720  11.639
64151W        W32369  29.371  15.056   2.468
64152W        W32370   9.671  31.351   3.384
64153W        W32371   0.514  35.113  14.781
64154W        W32372  10.642  34.276   3.278
64155W        W32373  31.433   6.710   4.236
64156W        W32374  19.495  24.921  11.165
64157W        W32375  16.853   3.301   1.813
64158W        W32376  40.743  21.676  13.942
64159W        W32377  29.574  17.315  12.568
64160W        W32378   2.267  22.173   0.328
64161W        W32379   8.227  29.488   1.028
64162W        W32380  26.550   6.533   1.574
64163W        W32381   5.706   3.646  12.408
64164W        W32382  25.128  35.639  11.748
64165W        W32383  34.955   7.671   3.599
64166W        W32384  25.149  26.578  10.093
64167W        W32385  40.284   2.746  13.333
64168W        W32386  12.107  11.646   4.536
64169W        W32387  34.001  23.167  12.906
64170W        W32388   2.587  19.504   0.943
64171W        W32389  24.934   3.233  11.609
64172W        W32390   2.295   4.715  12.045
64173W        W32391  19.065  26.512   3.320
64174W        W32392   5.314   9.865  10.457
64175W        W32393  22.670  12.901   4.246
64176W        W32394  22.697  41.416   3.342
64177W        W32395  11.437   3.723  13.422
64178W        W32396  27.262  42.241  11.131
64179W        W32397  36.885  15.461   1.768
64180W        W32398  32.954  30.191   0.737
64181W        W32399  35.873  33.060  12.434
64182W        W32400  23.530  23.163   2.755
64183W        W32401  38.846  32.641  11.950
64184W        W32402  27.571  12.494  11.194
64185W        W32403   7.635  39.105   2.402
64186W        W32404   7.630  13.238   3.890
64187W        W32405   2.371   0.044  14.369
64188W        W32406   2.908  33.995   0.676
64189W        W32407  39.928  10.405  13.418
64190W        W32408  22.005  23.863   4.895
64191W        W32409  13.095  43.495  10.587
64192W        W32410   3.192  22.521  13.957
64193W        W32411  21.472   3.946   2.827
64194W        W32412  26.654   6.243  10.623
64195W        W32413  18.625   0.970  14.426
64196W        W32414  35.032  14.272  14.983
64197W        W32415  11.873  25.154   1.375
64198W        W32416  23.657  11.446   1.366
64199W        W32417  31.548   1.399   2.303
64200W        W32418  36.032  35.163  10.484
64201W        W32419  38.554   3.183  12.894
64202W        W32420   8.073   8.280  13.949
64203W        W32421   8.701  15.777   3.323
64204W        W32422  30.615   0.017   2.905
64205W        W32423   8.781  39.656  12.928
64206W        W32424  36.477  28.473  10.471
64207W        W32425  16.261  11.245   4.877
64208W        W32426  39.187   4.394   5.101
64209W        W32427  10.729  44.726  13.303
64210W        W32428  12.430  12.923  14.964
64211W        W32429  43.664  25.593   3.024
64212W        W32430  37.104  25.377  11.544
64213W        W32431  38.404   8.935  14.311
64214W        W32432   5.961  36.261  12.082
64215W        W32433  32.092  21.971  11.047
64216W        W32434  13.044   0.885   0.340
64217W        W32435  15.410  41.341   0.975
64218W        W32436  25.178  43.768  13.549
64219W        W32437  16.969  16.676   4.500
64220W        W32438  18.480  10.252  11.668
64221W        W32439  38.967  33.341  14.568
64222W        W32440   3.185  32.499  10.762
64223W        W32441   6.203  29.936   0.442
64224W        W32442   0.480   8.393  13.825
64225W        W32443  17.276  32.689  10.482
64226W        W32444  42.828  17.810   2.377
64227W        W32445  17.676   2.399   0.676
64228W        W32446  16.258  15.551   0.074
64229W        W32447  30.502  21.216   1.870
64230W        W32448  24.682  42.500   1.828
64231W        W32449  13.214  28.695  13.988
64232W        W32450  19.547  22.900  14.364
64233W        W32451  18.526  44.046   0.874
64234W        W32452  25.167   6.682   0.183
64235W        W32453  41.967  36.449  14.488
64236W        W32454  39.064  38.345  13.388
64237W        W32455  26.511  26.558  14.142
64238W        W32456  18.844  26.594  13.948
64239W        W32457   3.924   7.740   0.744
64240W        W32458  37.798  40.734   1.811
64241W        W32459  25.193  23.133  14.344
64242W        W32460   0.512  30.207  10.758
64243W        W32461   8.656   6.893   4.056
64244W        W32462  20.292   1.552   4.121
64245W        W32463  35.391  30.975  10.688
64246W        W32464   0.352   2.405   3.835
64247W        W32465  44.532  23.800  14.554
64248W        W32466  17.674  17.186  11.408
64249W        W32467  32.593  15.061  11.257
64250W        W32468   7.815  11.779   2.545
64251W        W32469  20.260  22.646  14.632
64252W        W32470  22.699  32.049  11.382
64253W        W32471   1.349  39.370  11.112
64254W        W32472   1.908   3.207  11.441
64255W        W32473  26.530  40.915   1.902
64256W        W32474  37.083  35.599   3.345
64257W        W32475  32.115  17.107  13.372
64258W        W32476  26.909  17.874   3.523
64259W        W32477  42.561   3.815   3.557
64260W        W32478  11.771  12.687  10.789
64261W        W32479  44.001  11.037   1.851
64262W        W32480   6.149  16.074  11.115
64263W        W32481  16.525  16.166  13.336
64264W        W32482  17.843  16.723   3.376
64265W        W32483   8.165  15.045   3.727
64266W        W32484  22.584  24.785  10.770
64267W        W32485  30.880  23.868  10.664
64268W        W32486  16.692  13.172   0.921
64269W        W32487   6.448  43.540  11.383
64270W        W32488  31.557  18.836   2.342
64271W        W32489  10.015  18.774  13.471
64272W        W32490  26.753  44.168   4.998
64273W        W32491   6.966  20.993   1.193
64274W        W32492  16.651  11.925  11.956
64275W        W32493  27.995  20.199  13.428
64276W        W32494  37.844  25.405  13.480
64277W        W32495   9.709   7.808  14.316
64278W        W32496  16.492   7.511  13.421
64279W        W32497  40.396  24.753   4.683
64280W        W32498  14.669   4.163   1.670
64281W        W32499  30.748  40.592   3.287
64282W        W32500  21.596  13.681  12.429
64283W        W32501  21.230  29.767  13.519
64284W        W32502   1.970  36.261   4.203
64285W        W32503  37.879  35.709  10.941
64286W        W32504  33.094  27.439  11.558
64287W        W32505  23.742   2.960  11.051
64288W        W32506  29.074  37.525  13.365
64289W        W32507   7.457  29.016   3.278
64290W        W32508   0.963  40.359   2.259
64291W        W32509   9.136  42.347  14.791
64292W        W32510  11.298  25.399   1.327
64293W        W32511  26.592  12.565   3.696
64294W        W32512  35.463   8.835  12.455
64295W        W32513  22.951  36.181  11.991
64296W        W32514   4.773  37.929  13.761
64297W        W32515   5.628  13.561   3.674
64298W        W32516   3.809  14.628   0.569
64299W        W32517  43.989  23.740   1.330
64300W        W32518  36.613   1.441   0.264
64301W        W32519  35.039  16.547  11.634
64302W        W32520  23.943   4.709   4.783
64303W        W32521   9.254  32.996  11.210
64304W        W32522   3.021  28.538   2.717
64305W        W32523  27.606  40.651   1.669
64306W        W32524   1.682  20.210   3.640
64307W        W32525   4.085  22.340   3.081
64308W        W32526   7.712  22.201  13.597
64309W        W32527  10.748  22.107  10.749
64310W        W32528  26.242  14.288  13.104
64311W        W32529  21.942  29.617  12.412
64312W        W32530  14.823  42.333  13.574
64313W        W32531  16.179  33.195   4.645
64314W        W32532   9.757  10.857  10.661
64315W        W32533  15.070  14.753   4.620
64316W        W32534  18.320  41.716  13.402
64317W        W32535   0.960   4.458  13.576
64318W        W32536   6.272  44.843   4.138
64319W        W32537  27.664  15.123   2.188
64320W        W32538  41.375  25.176   0.801
64321W        W32539   1.508  15.640   0.222
64322W        W32540  41.594   3.771   4.414
64323W        W32541  12.733   7.727   1.939
64324W        W32542   5.847  13.808   1.857
64325W        W32543   8.942  27.156   0.028
64326W        W32544  24.504  42.490  12.134
64327W        W32545  41.407  20.228   4.129
64328W        W32546  42.927  29.877  14.918
64329W        W32547  43.775   9.954  12.159
64330W        W32548  22.692  40.527   0.437
64331W        W32549  17.697  22.261   1.811
64332W        W32550  27.839  14.276   3.675
64333W        W32551   4.236  13.387   1.446
64334W        W32552  15.157  39.916  14.401
64335W        W32553   7.342  38.813   5.005
64336W        W32554   0.433   4.873  11.174
64337W        W32555  10.196  25.021   0.961
64338W        W32556  38.045  43.750   4.423
64339W        W32557  34.494   2.815   3.581
64340W        W32558  38.130   5.746  14.637
64341W        W32559  23.091  13.666   2.411
64342W        W32560  15.786  24.604   1.408
64343W        W32561   7.203   9.472  14.009
64344W        W32562  23.609  10.443   1.305
64345W        W32563  13.522  12.300  10.695
64346W        W32564  14.772  20.482   0.162
64347W        W32565  44.361  32.531   3.737
64348W        W32566   2.892  11.960   1.919
64349W        W32567  15.544   2.242  13.423
64350W        W32568   7.896  14.553   5.364
64351W        W32569  37.725  20.096  13.641
64352W        W32570   2.377  23.981   1.914
64353W        W32571  26.933   2.941   1.400
64354W        W32572  24.478  13.897  14.970
64355W        W32573   7.147  19.097   3.295
64356W        W32574  22.103  44.600   5.063
64357W        W32575  38.801  22.677   4.420
64358W        W32576   9.642  19.493   2.828
64359W        W32577  13.893  40.227  14.309
64360W        W32578  30.431  41.838   0.037
64361W        W32579  34.924   4.709   2.518
64362W        W32580  27.674   0.212   0.292
64363W        W32581  24.521   9.809  14.610
64364W        W32582  27.707  40.523   3.283
64365W        W32583   9.863  29.612  12.618
64366W        W32584  43.750   1.699   4.236
64367W        W32585  25.858  44.675   2.841
64368W        W32586  23.647  22.578  12.848
64369W        W32587  44.403   5.794  12.558
64370W        W32588   8.158  35.552  11.938
64371W        W32589  42.363  42.849  10.962
64372W        W32590  16.728  27.582   3.846
64373W        W32591  17.079  40.727   0.205
64374W        W32592  23.227   6.194  12.033
64375W        W32593  10.136  10.956   0.329
64376W        W32594  18.173  19.550  13.716
64377W        W32595  31.878   4.938   4.099
64378W        W32596  31.387  42.198  14.783
64379W        W32597  20.250   9.064   3.787
64380W        W32598  12.130   1.432   1.518
64381W        W32599  27.984   1.890  10.505
64382W        W32600  22.566  35.547  14.085
64383W        W32601  26.511  17.736  11.002
64384W        W32602  33.103  28.877  13.003
64385W        W32603  28.770  17.729  10.260
64386W        W32604  25.144   6.327  10.744
64387W        W32605   4.061  22.605  14.802
64388W        W32606  37.854  36.240  10.852
64389W        W32607  21.253  22.759  12.265
64390W        W32608  11.106  37.339  14.724
64391W        W32609   9.423  27.680   1.924
64392W        W32610  27.923  28.514  10.342
64393W        W32611  30.155  26.607   1.487
64394W        W32612  26.926  12.239  13.362
64395W        W32613  35.088   2.009  11.948
64396W        W32614  41.288  17.999  14.389
64397W        W32615  10.051  41.605  11.182
64398W        W32616   7.585  17.553  12.263
64399W        W32617  32.297  26.299   1.878
64400W        W32618  25.561  25.858  11.531
64401W        W32619  38.788  33.132  11.053
64402W        W32620  13.281  17.504  13.071
64403W        W32621   4.412  35.039  12.097
64404W        W32622  30.714   9.214  12.486
64405W        W32623  15.713  42.370   2.834
64406W        W32624  19.660  44.576  11.676
64407W        W32625  37.423   0.292   0.509
64408W        W32626   9.314  40.562   4.136
64409W        W32627   6.329  22.215  13.871
64410W        W32628  24.277  17.103  14.947
64411W        W32629  37.020  18.605  12.943
64412W        W32630   9.831   7.849  11.398
64413W        W32631   7.584  12.246   0.899
64414W        W32632   5.616  36.961  11.541
64415W        W32633  29.836  22.516  10.925
64416W        W32634   6.747  38.829  14.419
64417W        W32635   8.770  39.133  12.998
64418W        W32636  32.565  38.684  14.889
64419W        W32637   9.153  40.767  11.837
64420W        W32638  28.127  16.483  13.663
64421W        W32639  35.397  12.668   2.594
64422W        W32640   1.923  16.615   1.268
64423W        W32641  42.984  22.785  12.200
64424W        W32642   1.999  24.154  11.183
64425W        W32643  25.561  11.389   3.737
64426W        W32644  11.543  16.445  10.104
64427W        W32645  27.525  20.784   5.013
64428W        W32646  34.547  35.671   1.274
64429W        W32647  35.443  28.454   4.172
64430W        W32648  21.432  27.291  11.129
64431W        W32649  11.129   6.106  12.477
64432W        W32650  21.160  42.104   1.276
64433W        W32651  19.596   9.602   1.807
64434W        W32652   6.722  19.589   2.270
64435W        W32653  13.750  26.900  12.610
64436W        W32654  10.697  32.788   4.452
64437W        W32655   4.943  33.421   3.639
64438W        W32656  21.619   6.259   1.217
64439W        W32657  10.380  29.647  12.585
64440W        W32658   1.626  40.311  13.128
64441W        W32659   3.300  37.200   4.494
64442W        W32660  35.113  44.913   4.906
64443W        W32661  20.224  31.599  10.710
64444W        W32662  10.276   7.864  11.132
64445W        W32663  23.482  31.555   3.717
64446W        W32664  16.835  23.918  12.377
64447W        W32665  26.086  43.689   1.876
64448W        W32666  20.184  23.527   5.188
64449W        W32667  39.291  23.621  10.378
64450W        W32668  10.079   0.262   4.182
64451W        W32669  36.459  23.568  13.813
64452W        W32670   5.135   4.766  11.250
64453W        W32671  19.284  14.142  11.210
64454W        W32672  25.573  12.829   0.515
64455W        W32673  43.740  16.592  11.968
64456W        W32674  42.330   7.094  11.568
64457W        W32675  28.469  37.113  14.502
64458W        W32676  27.723  27.123   3.705
64459W        W32677  43.350  31.358  10.653
64460W        W32678  37.192  29.323  13.399
64461W        W32679  37.537  43.367  14.823
64462W        W32680  21.281  25.935   4.607
64463W        W32681   5.391  16.482   2.101
64464W        W32682  43.357  37.477   4.148
64465W        W32683  11.659   6.434   4.187
64466W        W32684  34.418  31.641  11.491
64467W        W32685   8.032  16.598  11.077
64468W        W32686   8.764  19.584   2.885
64469W        W32687  22.344  24.206  11.531
64470W        W32688  40.633  38.432  10.658
64471W        W32689  17.175   0.885   2.632
64472W        W32690  19.712   2.185  13.121
64473W        W32691  20.141  24.289   0.887
64474W        W32692  20.737  31.183  11.641
64475W        W32693   2.082  16.001   4.209
64476W        W32694  28.956   1.817  11.099
64477W        W32695   0.854  16.624   2.411
64478W        W32696  42.344  24.552  14.488
64479W        W32697  23.624  27.663   1.681
64480W        W32698  10.257  35.184   2.754
64481W        W32699  35.922  25.644  10.672
64482W        W32700  24.167   7.252  10.665
64483W        W32701  19.199  30.042  12.465
64484W        W32702  33.097  18.519   0.852
64485W        W32703   6.776  23.227  14.912
64486W        W32704   7.215   4.435  11.975
64487W        W32705  19.773  32.268   1.257
64488W        W32706  27.547  16.768   2.741
64489W        W32707  23.628   9.749  11.521
64490W        W32708  22.669   8.308  10.717
64491W        W32709  17.666  10.161   3.290
64492W        W32710   7.261   4.366   4.574
64493W        W32711  15.868  36.366  11.552
64494W        W32712   8.877  27.726   2.348
64495W        W32713  17.058   4.535   2.409
64496W        W32714   3.308   3.003  13.695
64497W        W32715  44.007   3.751  13.142
64498W        W32716  23.486  10.199   0.869
64499W        W32717   0.241  27.342  10.942
64500W        W32718  11.240   1.152   5.087
64501W        W32719  39.491  28.556   4.607
64502W        W32720  18.212  34.896  13.900
64503W        W32721   8.249  23.427  14.909
64504W        W32722  41.296  16.699  11.061
64505W        W32723  19.414  30.471   2.647
64506W        W32724  42.897  41.286   4.537
64507W        W32725  18.504  14.638  12.441
64508W        W32726  28.520   9.783  10.147
64509W        W32727  18.596  27.556   4.864
64510W        W32728  44.756  18.258  11.846
64511W        W32729  23.616  31.673  12.445
64512W        W32730  43.213   4.811   3.199
64513W        W32731  31.901  39.940  14.791
64514W        W32732  17.052  17.278   0.872
64515W        W32733   8.212  34.804   1.993
64516W        W32734  31.766  40.764  11.913
64517W        W32735  11.042  17.813  10.308
64518W        W32736   4.547  11.207   1.012
64519W        W32737  16.773   1.706  14.272
64520W        W32738  22.787  31.447   2.756
64521W        W32739  13.177  35.531   4.457
64522W        W32740  40.272  28.627  11.498
64523W        W32741  42.215   1.384   0.384
64524W        W32742  34.582   4.337   4.658
64525W        W32743  23.189  37.767  14.344
64526W        W32744  14.895   6.645   2.813
64527W        W32745  42.976   7.594   5.253
64528W        W32746  22.570  29.184   4.730
64529W        W32747  36.338  17.928   2.277
64530W        W32748   4.675  30.522   4.090
64531W        W32749  40.795  41.891   0.763
64532W        W32750  24.709   5.616   3.917
64533W        W32751  13.883  38.864  14.468
64534W        W32752  23.567  19.140  12.157
64535W        W32753   7.977  44.953  14.906
64536W        W32754  38.533  25.505  14.797
64537W        W32755  31.068  38.959   2.928
64538W        W32756  12.581  12.769   3.130
64539W        W32757  12.415   4.195   3.829
64540W        W32758  27.652  15.096   4.046
64541W        W32759   1.762  36.632   2.317
64542W        W32760  18.390  17.275   2.565
64543W        W32761   0.249  10.202   4.864
64544W        W32762  17.498  21.230  11.276
64545W        W32763  29.045  20.192  14.789
64546W        W32764  27.645   7.108  12.643
64547W        W32765  22.627  15.339   2.429
64548W        W32766  14.753  23.645   3.935
64549W        W32767   4.414  35.892   2.350
64550W        W32768  32.413  19.452   1.780
64551W        W32769  27.581  27.533   1.304
64552W        W32770   2.589  34.785  10.371
64553W        W32771  18.067   6.974  10.802
64554W        W32772  16.107  35.949  13.422
64555W        W32773  30.478  40.615  14.815
64556W        W32774  38.524  33.996   0.669
64557W        W32775  23.663  38.357   4.040
64558W        W32776  44.005  32.997  10.581
64559W        W32777  16.227   0.905  11.040
64560W        W32778  32.130  38.509  13.440
64561W        W32779  27.204  10.819  11.288
64562W        W32780  43.715  13.172  12.106
64563W        W32781  17.563  24.073  12.938
64564W        W32782   3.816   9.758  14.368
64565W        W32783  10.553  36.418  13.449
64566W        W32784  31.400  11.162   1.170
64567W        W32785  18.214   7.922  11.107
64568W        W32786  41.419  25.970   3.163
64569W        W32787  13.111  22.570  12.026
64570W        W32788  32.991  19.195   3.563
64571W        W32789  40.629  17.871  10.770
64572W        W32790   5.154   6.133  13.994
64573W        W32791  25.006  38.931  14.778
64574W        W32792  11.107  29.962  12.963
64575W        W32793  15.574  43.434  13.513
64576W        W32794  43.988  40.059  13.017
64577W        W32795   4.210  16.780   2.691
64578W        W32796  23.679   6.903   2.351
64579W        W32797  44.459  24.166   1.432
64580W        W32798  23.436   2.913   0.282
64581W        W32799  37.218  15.283  10.228
64582W        W32800   7.466  27.986  14.153
64583W        W32801   6.623  10.826   1.959
64584W        W32802   3.167  34.067  14.818
64585W        W32803  10.182  15.071   0.232
64586W        W32804  11.708   5.286   1.919
64587W        W32805  30.427   6.377   2.660
64588W        W32806  32.004  39.835  13.747
64589W        W32807  26.511  33.642  11.548
64590W        W32808   7.280  13.086  14.939
64591W        W32809   8.642  42.576   3.150
64592W        W32810   7.011  26.894   4.689
64593W        W32811  38.357   4.798   1.859
64594W        W32812  24.682   7.631  14.769
64595W        W32813  11.850  38.452  14.880
64596W        W32814  43.305  11.670  11.985
64597W        W32815  40.835  34.911  14.649
64598W        W32816  16.699  25.972  13.326
64599W        W32817  38.656  23.149  10.943
64600W        W32818  18.602  39.719   3.489
64601W        W32819  40.615   3.962  10.348
64602W        W32820   8.120  42.741  11.873
64603W        W32821   3.597  10.832  12.180
64604W        W32822   1.649   1.792   0.217
64605W        W32823   4.027  14.951   3.709
64606W        W32824  14.257  11.578   4.553
64607W        W32825  38.924   2.369  14.595
64608W        W32826   3.735  29.767  10.777
64609W        W32827  16.537  19.625   4.302
64610W        W32828  41.994  19.113  14.393
64611W        W32829  28.664  16.807  10.212
64612W        W32830  15.017  40.607   3.677
64613W        W32831   1.781  44.554   4.626
64614W        W32832  18.214  32.201  11.504
64615W        W32833  26.649  27.062  12.347
64616W        W32834  24.095  26.774   2.158
64617W        W32835  10.844  28.129  11.365
64618W        W32836  34.829  39.509  13.022
64619W        W32837  13.241  42.369  14.509
64620W        W32838  24.308   2.383  14.877
64621W        W32839   4.676  35.913  12.545
64622W        W32840  11.690  21.040   2.369
64623W        W32841   0.974  26.627  13.557
64624W        W32842  26.926  14.050   4.914
64625W        W32843  18.541   5.907  12.458
64626W        W32844  41.060  40.087   0.816
64627W        W32845   7.873   4.828   0.477
64628W        W32846  10.530  34.448   2.244
64629W        W32847  15.325  35.070  10.452
64630W        W32848  28.440  29.059   0.836
64631W        W32849  33.922  13.319  14.924
64632W        W32850  17.123   6.391   1.862
64633W        W32851   3.796  38.947  12.210
64634W        W32852  20.615   3.636   2.740
64635W        W32853   0.421  21.999   4.393
64636W        W32854  16.925  39.026  13.747
64637W        W32855  33.272  30.638   3.550
64638W        W32856   1.826  36.309   0.286
64639W        W32857  19.230   0.364   4.948
64640W        W32858  27.650  28.083   3.591
64641W        W32859  30.454  19.167   4.490
64642W        W32860  10.915   4.883  13.379
64643W        W32861   6.337  16.738   3.132
64644W        W32862   7.407   5.832   2.796
64645W        W32863  41.413  16.081  14.309
64646W        W32864  34.432  17.833   3.020
64647W        W32865   3.793   3.221   4.682
64648W        W32866  40.950  16.897   3.683
64649W        W32867  11.245  41.307   3.662
64650W        W32868  22.109  24.953  10.966
64651W        W32869  33.655  32.177   0.825
64652W        W32870   2.403  29.975   4.636
64653W        W32871  24.631  43.549   4.218
64654W        W32872  44.367  30.958   4.597
64655W        W32873  40.791  21.487   4.569
64656W        W32874  15.232  38.035  14.064
64657W        W32875  43.050  28.920   0.276
64658W        W32876  19.503  41.648  10.667
64659W        W32877  25.438  35.581   0.760
64660W        W32878  28.841   0.521   2.698
64661W        W32879  15.708  11.400  11.987
64662W        W32880  32.773   1.375  13.934
64663W        W32881  36.825   0.712  11.138
64664W        W32882  34.353  14.197  13.932
64665W        W32883   7.177  13.611  14.344
64666W        W32884  16.605  32.757   2.761
64667W        W32885  23.090  42.599   4.627
64668W        W32886   2.835   3.871   4.294
64669W        W32887   7.967  23.274  11.199
64670W        W32888  30.955  43.552  14.708
64671W        W32889  36.335   4.644  14.414
64672W        W32890  28.717   6.014  11.495
64673W        W32891  44.362  14.655  12.010
64674W        W32892  34.956  16.328   1.594
64675W        W32893  38.596  17.015  11.105
64676W        W32894  35.478  14.815  11.188
64677W        W32895  31.125   4.934   5.347
64678W        W32896  32.599  24.899  13.701
64679W        W32897  33.442  31.684   1.642
64680W        W32898   1.317  22.983  11.168
64681W        W32899  31.493  42.694  14.748
64682W        W32900   3.489   6.326   3.630
64683W        W32901  15.040  43.390  13.522
64684W        W32902  33.193  35.090  11.692
64685W        W32903  15.732  11.209   3.147
64686W        W32904  30.201  26.199  14.281
64687W        W32905  29.440  11.057   2.095
64688W        W32906   9.722  38.622   3.928
64689W        W32907  28.916  41.517  12.974
64690W        W32908  20.376   1.418   0.237
64691W        W32909   4.927   0.408   0.032
64692W        W32910  13.287   7.310   2.154
64693W        W32911  14.687  43.504   2.794
64694W        W32912  11.226   8.599   0.770
64695W        W32913  16.746  41.120   2.307
64696W        W32914  24.910   7.730   1.791
64697W        W32915   5.878  18.187  13.447
64698W        W32916  13.930  24.459  13.510
64699W        W32917  33.819  14.639  11.108
64700W        W32918  32.859  20.651  14.352
64701W        W32919  12.852  39.910  12.467
64702W        W32920  27.190  34.081   0.003
64703W        W32921   9.224  44.013   1.887
64704W        W32922  11.458  44.687  10.918
64705W        W32923  35.887  16.624   3.292
64706W        W32924  23.848  39.190  13.125
64707W        W32925  34.898  43.608  14.960
64708W        W32926  35.044  20.498  13.736
64709W        W32927  40.870  41.546   4.517
64710W        W32928  32.135  40.577   1.376
64711W        W32929  26.415  30.802   2.956
64712W        W32930  26.394   1.334   4.716
64713W        W32931  15.822  33.859  12.872
64714W        W32932   6.722  37.151   4.093
64715W        W32933  19.816   4.324  10.572
64716W        W32934  24.415  14.486  13.549
64717W        W32935  34.434  18.314   4.770
64718W        W32936  40.908  22.278   1.406
64719W        W32937  12.391  27.995  14.945
64720W        W32938  37.352  33.952   0.887
64721W        W32939  33.347   5.285   1.149
64722W        W32940  17.759  30.163   1.092
64723W        W32941  44.838   7.045   0.100
64724W        W32942   2.983  18.287   4.271
64725W        W32943  31.054  16.349   2.921
64726W        W32944  21.217  29.597   1.148
64727W        W32945  16.920  22.816  11.892
64728W        W32946  15.697  19.084  11.284
64729W        W32947  39.502   7.982  13.505
64730W        W32948   6.831  24.222  10.835
64731W        W32949  27.871  30.509  11.426
64732W        W32950   4.269  24.696  12.700
64733W        W32951   3.404  35.932  10.310
64734W        W32952  15.630  29.926   1.788
64735W        W32953  44.043  21.167  11.563
64736W        W32954   9.407  21.088   2.278
64737W        W32955  24.956  44.666  12.554
64738W        W32956  36.631  23.604  13.299
64739W        W32957  41.455   9.640  13.051
64740W        W32958  12.162  20.531  11.984
64741W        W32959  44.967  34.787   2.758
64742W        W32960   3.859  39.979   0.884
64743W        W32961  42.309  25.694  12.175
64744W        W32962  42.516   7.791   3.733
64745W        W32963   4.438   5.068   0.717
64746W        W32964   2.948  12.012   4.710
64747W        W32965  11.157  10.346   0.682
64748W        W32966  21.260  14.056  10.277
64749W        W32967  16.460   5.061  13.359
64750W        W32968  11.967  34.631  14.813
64751W        W32969  26.912   6.659   3.272
64752W        W32970  34.245  44.525  14.088
64753W        W32971  36.668  31.091   3.802
64754W        W32972  18.264  19.792  11.664
64755W        W32973  28.975   9.330  11.164
64756W        W32974  21.262  26.387  11.876
64757W        W32975  12.691  28.340   1.908
64758W        W32976  20.596  12.825  12.948
64759W        W32977  43.269  35.578  14.840
64760W        W32978  29.900  15.276   1.248
64761W        W32979  42.730  17.598   4.354
64762W        W32980  13.751   0.298   0.288
64763W        W32981  36.300  12.922   5.021
64764W        W32982  42.532   8.562   0.651
64765W        W32983  24.212  26.320   2.337
64766W        W32984  36.345  39.293  12.821
64767W        W32985  11.918  40.290  13.515
64768W        W32986  14.791   3.037  13.757
64769W        W32987  23.464  27.094   0.023
64770W        W32988  29.519   6.786   2.308
64771W        W32989  17.218  12.242  14.345
64772W        W32990  16.020  34.079   0.271
64773W        W32991  41.910  20.071  11.708
64774W        W32992  22.794   3.303  11.156
64775W        W32993  27.989  12.452   3.508
64776W        W32994   4.258  10.853  10.642
64777W        W32995  12.792  17.055   1.282
64778W        W32996  10.913  31.489  14.819
64779W        W32997  24.975  26.952   2.432
64780W        W32998  29.926   3.817   2.727
64781W        W32999   8.291  18.821  14.395
64782W        W33000  23.108  14.068   0.876
64783W        W33001  31.326  28.706  12.595
64784W        W33002   5.632  44.910  13.631
64785W        W33003  24.653  38.254  13.417
64786W        W33004  23.243  29.072  11.730
64787W        W33005  34.260   9.226  14.909
64788W        W33006  44.513  29.873  11.641
64789W        W33007   1.370  35.073   2.645
64790W        W33008  11.073  16.628  10.753
64791W        W33009  44.066  23.555  11.723
64792W        W33010  26.100  39.970   1.029
64793W        W33011  34.450  29.026   1.813
64794W        W33012  17.823   3.259   0.697
64795W        W33013  38.117  13.681   1.748
64796W        W33014   4.846  13.284  13.831
64797W        W33015  19.913  36.441   3.341
64798W        W33016  23.537  19.350   1.320
64799W        W33017  13.442  15.611   4.549
64800W        W33018  11.264  31.198  10.637
64801W        W33019  38.971  33.935   0.427
64802W        W33020  43.026   5.566   4.901
64803W        W33021  42.010  35.177   0.714
64804W        W33022  38.550   4.800  12.935
64805W        W33023   7.400  29.848   4.813
64806W        W33024  34.048   0.889  13.957
64807W        W33025  26.883  43.373  14.836
64808W        W33026  24.223  38.961  12.048
64809W        W33027   2.326   1.972  12.538
64810W        W33028   3.183  23.666   2.270
64811W        W33029  42.464  31.319  12.980
64812W        W33030   0.274  19.292  11.030
64813W        W33031  31.257  19.189  12.047
64814W        W33032  39.470  22.214   4.425
64815W        W33033  10.921  24.369   4.461
64816W        W33034  30.630  37.816  13.506
64817W        W33035   3.487   7.895   4.216
64818W        W33036  30.947  35.889   1.870
64819W        W33037  44.842   5.739   0.047
64820W        W33038  17.148  22.524   0.714
64821W        W33039  17.134  22.648   4.172
64822W        W33040  18.400  26.848   9.920
64823W        W33041  20.545  14.957   9.892
64824W        W33042  30.723  24.056   2.526
64825W        W33043  18.448  32.571  10.983
64826W        W33044  29.021  38.594   0.704
64827W        W33045  39.732  37.874  12.420
64828W        W33046  25.767  26.466  10.971
64829W        W33047  43.719  20.382   0.376
64830W        W33048  11.344  26.061  11.095
64831W        W33049  44.822   2.436   2.894
64832W        W33050  25.482  13.685   2.640
64833W        W33051  10.437  25.062  12.582
64834W        W33052  21.808  11.247   4.612
64835W        W33053  23.965   8.549   5.026
64836W        W33054  21.318  27.089  13.556
64837W        W33055  28.129  14.675   1.685
64838W        W33056  22.880  27.116   3.245
64839W        W33057   6.743  35.098   2.794
64840W        W33058  19.519  38.779   1.748
64841W        W33059  43.530  38.006  13.900
64842W        W33060  14.849  37.585  14.958
64843W        W33061   4.596  11.997   1.938
64844W        W33062  35.147  14.628   3.306
64845W        W33063   1.765  16.736   0.746
64846W        W33064  23.558  29.993  14.506
64847W        W33065   3.463  18.893  11.803
64848W        W33066  20.864  14.695   1.873
64849W        W33067  16.680  36.347  11.202
64850W        W33068  43.336  26.713   0.977
64851W        W33069  20.868  33.558   5.561
64852W        W33070  10.064  37.984  11.987
64853W        W33071   3.021   4.855   4.587
64854W        W33072  18.053  23.011   2.306
64855W        W33073  30.523  36.280  14.454
64856W        W33074  10.006   8.431   3.214
64857W        W33075   8.295  27.104  11.534
64858W        W33076   8.662   1.177  13.455
64859W        W33077  27.512  43.912  14.376
64860W        W33078   2.350   4.183   1.290
64861W        W33079  19.034  27.458   1.862
64862W        W33080  40.469   1.939   3.026
64863W        W33081   8.880  39.448   3.144
64864W        W33082  34.739  20.286   2.178
64865W        W33083  41.041  31.575   4.430
64866W        W33084  11.025   9.563   1.003
64867W        W33085  14.649  23.980  14.522
64868W        W33086  25.816   3.682   1.781
64869W        W33087   3.742   5.613   4.502
64870W        W33088  30.488  14.167  13.812
64871W        W33089   7.747  36.598  13.864
64872W        W33090  22.200  35.098   1.907
64873W        W33091  37.034  34.424   4.372
64874W        W33092   6.897  34.741   4.243
64875W        W33093   4.160  30.118  10.748
64876W        W33094  42.441  30.039  13.839
64877W        W33095  42.508   1.842   1.245
64878W        W33096  35.719  43.939  14.722
64879W        W33097  11.726   9.896   4.556
64880W        W33098   6.976  27.938  13.225
64881W        W33099  20.072  31.225   2.814
64882W        W33100  41.588  22.234  10.781
64883W        W33101  35.547  37.305   2.255
64884W        W33102  27.109   3.734  13.128
64885W        W33103  25.122   9.351   1.301
64886W        W33104  34.915  36.640   1.190
64887W        W33105   8.208  16.078  13.532
64888W        W33106   9.831  21.463  12.604
64889W        W33107  26.097   3.019  13.896
64890W        W33108  16.655  32.466  11.848
64891W        W33109  22.525  26.931   2.853
64892W        W33110  33.081  30.161  14.398
64893W        W33111  41.297  30.402  13.668
64894W        W33112  15.276  26.959   4.613
64895W        W33113  26.511   8.746   4.246
64896W        W33114  30.927  18.663   1.166
64897W        W33115   7.894   7.424  10.364
64898W        W33116   0.373  29.744  11.594
64899W        W33117   1.663  23.058   4.683
64900W        W33118  27.417  44.420  11.683
64901W        W33119  23.689  16.823   0.855
64902W        W33120  16.540   6.165  11.589
64903W        W33121   5.869   5.881  14.723
64904W        W33122   7.936  10.195  12.888
64905W        W33123   8.065  44.463  10.396
64906W        W33124  21.793   0.459  14.465
64907W        W33125  23.854   2.492   0.965
64908W        W33126  27.681  24.427   4.053
64909W        W33127   0.322  10.075   3.268
64910W        W33128  43.859  26.567   2.783
64911W        W33129  31.469  37.844  13.543
64912W        W33130   1.714  42.960   3.252
64913W        W33131  18.975  10.108   0.382
64914W        W33132  40.334   1.039   1.363
64915W        W33133   1.224  19.021  10.767
64916W        W33134  44.029  38.875   3.314
64917W        W33135  16.542  12.681  14.938
64918W        W33136  44.253   3.786   0.585
64919W        W33137   2.260  19.103   0.793
64920W        W33138  20.138   7.659   3.535
64921W        W33139   3.655  43.956  11.195
64922W        W33140  11.120  21.030  12.140
64923W        W33141  22.343  15.125  12.197
64924W        W33142  37.403  44.379   1.914
64925W        W33143  38.115  35.970  14.404
64926W        W33144   3.480   0.764  12.958
64927W        W33145  21.706   5.859  12.142
64928W        W33146   4.717  22.220   1.860
64929W        W33147  21.800  18.177  11.561
64930W        W33148  40.062   1.527   2.693
64931W        W33149  38.216  43.993   1.858
64932W        W33150  38.694  24.237   0.236
64933W        W33151   8.890  19.219   1.585
64934W        W33152  18.220  34.462   0.744
64935W        W33153  26.583  22.468   4.138
64936W        W33154  42.009  32.876  13.982
64937W        W33155  43.352   7.879   4.321
64938W        W33156   5.174  33.298  11.948
64939W        W33157  31.423  21.150   2.697
64940W        W33158  20.101  37.779  14.476
64941W        W33159  19.003  20.404  13.907
64942W        W33160  22.719  17.531   3.600
64943W        W33161  31.527   6.208   0.714
64944W        W33162  12.230  43.622  10.623
64945W        W33163  40.404  21.596  11.265
64946W        W33164   5.750  25.178  13.804
64947W        W33165  42.507   5.582  11.567
64948W        W33166   7.835  13.083   1.423
64949W        W33167   4.200  29.519  14.001
64950W        W33168  24.306  15.103   3.817
64951W        W33169  27.711   0.978   4.272
64952W        W33170  39.727  41.977  14.834
64953W        W33171   1.079  10.313   3.213
64954W        W33172  42.909  13.785   0.844
64955W        W33173  11.604  33.071  10.590
64956W        W33174  35.915  14.788   0.943
64957W        W33175  36.892  37.459   4.582
64958W        W33176  40.462   0.085   1.793
64959W        W33177  41.315  17.799   4.339
64960W        W33178   3.701   8.251  11.059
64961W        W33179  41.907  41.443   3.756
64962W        W33180  31.417  33.213   0.967
64963W        W33181  25.753  37.270   5.033
64964W        W33182  18.380   3.873   1.585
64965W        W33183  19.597  33.434   2.484
64966W        W33184  20.281  42.280   3.167
64967W        W33185  18.719  16.795  12.520
64968W        W33186  26.435  32.945  10.933
64969W        W33187   7.454  22.885   0.394
64970W        W33188  24.027   9.674  10.696
64971W        W33189  40.099  20.729   1.647
64972W        W33190  17.980  33.445   3.417
64973W        W33191  20.558  42.769  13.778
64974W        W33192  29.712  44.415  11.222
64975W        W33193  40.105   9.221  12.071
64976W        W33194   3.987   5.359   0.815
64977W        W33195  11.083  34.532   3.236
64978W        W33196  10.698  28.927   1.908
64979W        W33197  38.958  44.101  11.839
64980W        W33198  33.334  11.585  13.859
64981W        W33199  14.999  21.273   4.059
64982W        W33200  17.336  36.605  12.922
64983W        W33201  25.562   5.258   0.217
64984W        W33202   5.900  42.300   2.315
64985W        W33203  37.679   3.823   3.219
64986W        W33204  25.398   2.493  13.376
64987W        W33205  44.780   5.942   1.937
64988W        W33206  32.471  31.810   3.808
64989W        W33207   7.895  13.144   4.768
64990W        W33208  37.541  13.777  11.105
64991W        W33209  31.426  38.717   4.909
64992W        W33210  10.836   2.060  11.155
64993W        W33211   0.510  21.505  13.993
64994W        W33212  44.551  29.693  12.641
64995W        W33213  35.579   6.418   1.334
64996W        W33214   1.527  43.585   3.178
64997W        W33215  41.503  18.799  11.399
64998W        W33216  42.878  32.671  11.538
64999W        W33217  22.562  12.781  14.973
65000W        W33218   1.748  10.284  13.036
65001W        W33219  10.050  36.367  14.340
65002W        W33220  18.935  33.170   3.152
65003W        W33221   7.699  19.474  11.391
65004W        W33222   3.657   6.320   0.041
65005W        W33223   6.804  11.290   1.767
65006W        W33224   2.839  26.699   3.539
65007W        W33225   8.178   0.830   2.000
65008W        W33226  36.420  29.610  10.277
65009W        W33227  22.187  33.427  13.028
65010W        W33228  19.694  40.292  13.438
65011W        W33229  10.186   3.986  10.693
65012W        W33230  21.260  35.857   2.446
65013W        W33231  37.533   6.656   3.294
65014W        W33232  38.167  19.222  14.294
65015W        W33233  34.522  37.878   0.961
65016W        W33234  35.429  23.982   3.314
65017W        W33235  20.049  23.120  14.401
65018W        W33236  18.071  23.424  11.136
65019W        W33237  32.637  40.642   3.748
65020W        W33238  20.858  11.556   4.160
65021W        W33239  20.065  13.754   2.314
65022W        W33240   2.654   1.329   1.412
65023W        W33241  33.594  23.278  14.363
65024W        W33242  32.867  42.290   4.598
65025W        W33243  37.855  20.644  13.498
65026W        W33244  13.805  38.431   4.559
65027W        W33245  38.980  24.041  10.578
65028W        W33246   7.710  36.566   2.210
65029W        W33247   6.238  13.623   4.881
65030W        W33248  39.590  24.554  11.508
65031W        W33249   7.124  38.783  14.001
65032W        W33250  36.251  31.704   3.630
65033W        W33251  36.875  14.411   1.802
65034W        W33252  34.133  25.683  14.462
65035W        W33253   7.340  41.978   1.044
65036W        W33254  16.306  30.979   1.490
65037W        W33255  35.883  20.009  12.022
65038W        W33256  21.015  44.982  11.980
65039W        W33257  24.564  21.055   2.526
65040W        W33258  40.244  31.574  11.993
65041W        W33259  38.371   3.681   0.854
65042W        W33260  18.671   5.216  11.475
65043W        W33261  34.987  10.930  13.716
65044W        W33262  35.508  40.483   4.917
65045W        W33263  24.294  14.273   3.664
65046W        W33264  16.197   5.934  11.967
65047W        W33265  12.447   2.250  13.755
65048W        W33266  33.803  43.653  11.573
65049W        W33267  38.924  23.132   2.600
65050W        W33268   0.747   1.818   1.806
65051W        W33269   2.006  35.062  13.088
65052W        W33270  31.448  34.964   0.798
65053W        W33271  17.729  11.281  10.301
65054W        W33272   1.444  11.756  14.435
65055W        W33273   8.494  38.460  13.022
65056W        W33274  43.923  24.551  11.476
65057W        W33275   5.744  10.693   3.207
65058W        W33276  35.193   9.238   1.771
65059W        W33277  19.264  36.357  11.623
65060W        W33278   2.446  28.295   0.446
65061W        W33279  13.221  14.523   1.746
65062W        W33280  43.835   6.495   3.726
65063W        W33281  10.254   2.381  12.588
65064W        W33282   6.241  19.028   3.604
65065W        W33283  15.705  18.121  14.768
65066W        W33284  19.754   8.726   4.581
65067W        W33285  23.673   7.690   0.695
65068W        W33286  12.160  40.039  12.057
65069W        W33287  41.321  42.019   0.943
65070W        W33288   0.384  22.187  10.735
65071W        W33289  31.254  24.047  12.001
65072W        W33290  36.494  22.687   0.294
65073W        W33291  31.941   6.022  10.664
65074W        W33292  15.218  10.647   1.160
65075W        W33293  37.137  21.038   0.702
65076W        W33294  35.492  28.199  14.024
65077W        W33295  17.726  29.967  11.560
65078W        W33296  10.888  17.960   3.881
65079W        W33297  16.373  31.314  12.198
65080W        W33298  31.529  32.930  14.637
65081W        W33299  44.538  39.032   2.241
65082W        W33300  27.479  14.652   1.489
65083W        W33301  27.153  22.155   2.254
65084W        W33302  16.635  43.891   2.535
65085W        W33303  16.721  40.318  14.460
65086W        W33304  10.172  36.271  14.845
65087W        W33305  42.635   1.254   3.614
65088W        W33306  37.403   2.773   2.430
65089W        W33307  13.188  10.385   1.575
65090W        W33308  42.449  21.092  12.958
65091W        W33309  17.728   6.811  12.972
65092W        W33310   2.935  36.292  12.078
65093W        W33311  15.149  39.541   0.825
65094W        W33312  42.608  26.629   1.808
65095W        W33313  14.445  39.553  14.224
65096W        W33314  36.224  23.887   1.081
65097W        W33315  21.947   4.894   2.196
65098W        W33316  41.031   1.660  12.137
65099W        W33317  28.006   1.213   3.394
65100W        W33318  10.344   3.392   1.360
65101W        W33319  28.460  20.672  13.559
65102W        W33320  28.672  16.844   3.358
65103W        W33321  40.831  27.135   3.058
65104W        W33322  14.263  44.928   3.682
65105W        W33323  20.172  15.331  10.566
65106W        W33324  37.096  10.450   3.744
65107W        W33325  26.155  36.047   1.789
65108W        W33326  23.551  29.056   4.536
65109W        W33327  41.259   0.482  14.473
65110W        W33328  10.746   1.366  14.436
65111W        W33329  39.423  39.737   0.217
65112W        W33330  13.293  14.793   0.349
65113W        W33331  44.956  31.700  14.893
65114W        W33332  29.528   4.930  11.535
65115W        W33333  15.367  18.244  13.826
65116W        W33334  19.333  34.517  12.485
65117W        W33335  41.478  28.187   2.517
65118W        W33336  41.792  26.257   0.366
65119W        W33337  40.293  36.627  11.259
65120W        W33338   7.484  14.690   0.752
65121W        W33339   5.480  36.308  14.929
65122W        W33340  13.800   9.831   3.397
65123W        W33341  10.679  14.657  12.896
65124W        W33342  11.764   4.564   5.032
65125W        W33343  36.208  24.945   3.663
65126W        W33344  39.171  38.945   0.758
65127W        W33345  18.667  16.510   4.219
65128W        W33346  30.633  38.346  13.465
65129W        W33347  36.886  22.268   4.682
65130W        W33348  39.373  28.121   0.921
65131W        W33349  12.784  37.922   4.350
65132W        W33350   2.701  27.612   1.754
65133W        W33351  33.900  30.144  12.061
65134W        W33352  42.783  19.910   2.662
65135W        W33353  24.483  21.511   2.777
65136W        W33354   0.471   7.438  12.014
65137W        W33355   0.967  23.427  11.130
65138W        W33356   5.990  17.310  14.001
65139W        W33357  44.037  20.356  11.659
65140W        W33358  40.336  11.593  11.527
65141W        W33359  18.325  35.822   2.744
65142W        W33360  22.782  32.939   9.957
65143W        W33361  26.340   1.406  14.214
65144W        W33362  18.266  12.657  11.002
65145W        W33363  34.837  35.659  11.353
65146W        W33364   4.124  28.697  12.006
65147W        W33365  25.521  17.190   4.865
65148W        W33366  20.576   6.858   1.096
65149W        W33367  29.189  30.594   1.746
65150W        W33368  34.804  37.877  10.748
65151W        W33369  40.879  28.681   3.772
65152W        W33370  42.539  25.102   4.509
65153W        W33371  37.865   3.575  12.508
65154W        W33372   7.233  11.928   0.204
65155W        W33373  24.794   1.756   2.245
65156W        W33374   9.625   5.861  14.845
65157W        W33375  23.213   2.841  11.029
65158W        W33376  14.345  19.849  11.188
65159W        W33377  28.942  14.428   0.946
65160W        W33378   4.960  40.857   3.986
65161W        W33379   3.318  42.080   0.526
65162W        W33380  10.588  35.133   0.109
65163W        W33381   2.383  36.887  14.273
65164W        W33382  13.727  31.001   2.285
65165W        W33383  29.135  35.458  14.801
65166W        W33384  14.620   9.822   0.787
65167W        W33385  20.660   6.171  10.776
65168W        W33386  10.672  22.515  12.118
65169W        W33387  34.087  39.899  14.455
65170W        W33388  26.494  28.127  10.420
65171W        W33389  34.955  33.998  12.385
65172W        W33390  20.536  41.470  13.295
65173W        W33391   0.567  15.916   5.153
65174W        W33392   6.166   8.543   4.027
65175W        W33393  16.607  27.897  10.416
65176W        W33394  42.629  43.778  11.965
65177W        W33395  32.169  30.536   1.260
65178W        W33396  30.148  32.559  14.944
65179W        W33397   5.977  30.860  14.460
65180W        W33398  22.340  24.652   3.813
65181W        W33399  24.487  37.839  11.227
65182W        W33400   1.030  13.167  14.516
65183W        W33401  15.715  21.685  12.053
65184W        W33402   7.867  24.712   2.886
65185W        W33403  17.153  43.579   3.696
65186W        W33404  34.575  43.777   0.385
65187W        W33405  10.668   5.918  14.732
65188W        W33406  35.123  24.659  13.327
65189W        W33407  28.620  41.816   0.417
65190W        W33408  13.591   2.617   1.774
65191W        W33409   8.822  11.182   4.181
65192W        W33410  29.501  35.430   2.160
65193W        W33411  17.668  12.231   1.802
65194W        W33412  44.463  19.229  11.505
65195W        W33413  24.502   2.945  13.232
65196W        W33414  29.956  28.994   2.740
65197W        W33415  28.485  18.171  10.214
65198W        W33416  21.148   0.821  11.605
65199W        W33417  18.204  33.686  12.528
65200W        W33418   6.355   3.469  12.000
65201W        W33419  19.983  12.831   1.381
65202W        W33420   3.704  24.106  13.912
65203W        W33421  39.613  25.007  13.889
65204W        W33422  30.147  35.773  11.606
65205W        W33423  16.435   5.549  13.507
65206W        W33424   6.982  17.506  14.117
65207W        W33425  35.109  36.840  12.161
65208W        W33426  20.388  29.719  12.197
65209W        W33427  24.601  30.167   0.794
65210W        W33428  40.536   2.119  10.922
65211W        W33429  30.816  15.691  14.537
65212W        W33430  15.570  20.325  11.845
65213W        W33431  21.143  21.079   3.158
65214W        W33432  44.907  32.635  10.931
65215W        W33433  32.676  12.730  14.996
65216W        W33434  26.101  12.745   1.168
65217W        W33435   9.224  24.506  14.353
65218W        W33436  15.866  26.309  13.164
65219W        W33437  19.060  38.926  13.556
65220W        W33438  12.693  23.002  12.384
65221W        W33439  13.623  35.562   3.184
65222W        W33440  27.151  37.011   1.270
65223W        W33441  34.951  15.555   4.252
65224W        W33442  16.488  39.975  14.937
65225W        W33443  22.011  19.840  12.429
65226W        W33444  44.321  27.628  13.307
65227W        W33445   0.750  24.696  12.256
65228W        W33446   0.920  12.552   4.091
65229W        W33447   6.252   4.367   1.214
65230W        W33448   2.713  43.963   1.767
65231W        W33449  23.211  44.801  13.918
65232W        W33450  37.274  15.555  12.959
65233W        W33451  31.500  29.779   9.806
65234W        W33452  33.379  44.488  12.441
65235W        W33453  22.705  36.430  14.516
65236W        W33454   3.357  15.394   0.006
65237W        W33455  42.714   1.258   0.465
65238W        W33456  10.821   9.395  10.674
65239W        W33457  21.920  23.424  12.099
65240W        W33458   2.293  33.922  11.973
65241W        W33459   2.417   9.462  10.706
65242W        W33460   6.669  15.344   0.901
65243W        W33461   8.665  44.886   3.072
65244W        W33462   6.020  11.204   0.791
65245W        W33463  32.357  12.361  14.807
65246W        W33464   4.959  21.775   1.909
65247W        W33465  34.960  15.788   2.332
65248W        W33466   7.647  11.666   1.171
65249W        W33467  35.912  41.271  14.082
65250W        W33468  18.681  38.543   4.833
65251W        W33469  31.619  36.446   4.543
65252W        W33470  16.053   8.470  13.369
65253W        W33471  37.903  25.912   0.191
65254W        W33472  16.678   5.293   1.619
65255W        W33473  17.050  17.008   2.845
65256W        W33474  34.911  26.943  11.531
65257W        W33475  30.527  30.563   3.314
65258W        W33476  37.890  31.881  12.892
65259W        W33477  35.051  35.883  12.689
65260W        W33478  42.346   6.809  10.362
65261W        W33479  27.296  12.559  10.716
65262W        W33480  23.900  26.646   2.654
65263W        W33481  43.896  32.305  11.478
65264W        W33482   4.318   2.261  11.759
65265W        W33483  34.622  23.019   2.773
65266W        W33484  33.326   4.923   4.667
65267W        W33485  39.336  10.610   4.525
65268W        W33486  10.141  32.414   0.019
65269W        W33487  32.847  29.611  11.166
65270W        W33488   7.935   4.376  14.112
65271W        W33489  44.223  34.699  12.883
65272W        W33490   9.467  40.311   1.367
65273W        W33491   3.950  11.344   2.323
65274W        W33492  19.291  11.412  11.298
65275W        W33493  24.016  10.611   0.040
65276W        W33494  20.964  11.891   1.316
65277W        W33495  22.012  11.896   3.221
65278W        W33496   5.727  39.021   3.622
65279W        W33497   6.465  18.937   4.507
65280W        W33498   8.100  22.395   0.030
65281W        W33499  20.961   3.809  14.546
65282W        W33500  42.493  41.231  13.497
65283W        W33501  29.456  13.833   4.053
65284W        W33502  17.590  22.615  10.708
65285W        W33503  21.578  22.751  13.900
65286W        W33504   8.201  26.914  12.689
65287W        W33505   1.370   0.787   4.258
65288W        W33506  26.580  18.609   2.035
65289W        W33507   2.508  21.267   3.933
65290W        W33508  23.999  19.090   1.253
65291W        W33509  32.083  30.103   4.051
65292W        W33510  20.569  23.525  10.730
65293W        W33511  38.157  27.668   2.905
65294W        W33512  37.764   8.947   2.693
65295W        W33513  36.790  32.169  11.879
65296W        W33514   8.862  24.569   2.789
65297W        W33515  34.621  16.836   1.178
65298W        W33516  38.433  18.395  13.521
65299W        W33517   8.147  11.675  11.164
65300W        W33518  24.541  25.062   4.211
65301W        W33519  40.484  40.681   4.566
65302W        W33520  11.299  36.078  12.137
65303W        W33521   1.409  24.367   1.461
65304W        W33522  25.876  38.884   1.525
65305W        W33523  42.557  29.990  10.578
65306W        W33524  29.844  20.333  11.996
65307W        W33525  37.697  21.130   1.428
65308W        W33526  22.723   0.424  11.482
65309W        W33527   9.938  22.199  14.728
65310W        W33528  10.271  29.555  14.433
65311W        W33529  10.346  17.746   1.823
65312W        W33530  32.674  34.847  13.574
65313W        W33531  29.348  16.181  14.790
65314W        W33532  16.271   6.294  14.274
65315W        W33533  21.702  15.760   3.591
65316W        W33534  41.379  41.509  12.509
65317W        W33535  38.817  44.431  14.431
65318W        W33536   1.864  21.301   2.797
65319W        W33537  28.381  42.987  14.509
65320W        W33538  28.444  31.271  12.047
65321W        W33539  36.693  44.004  11.595
65322W        W33540  11.738  39.771  13.506
65323W        W33541  35.447  42.828  11.220
65324W        W33542  23.898   9.089  12.482
65325W        W33543  21.529  34.423   2.727
65326W        W33544  34.634  34.045  13.384
65327W        W33545  11.325  32.192  13.501
65328W        W33546   8.727  18.861   0.682
65329W        W33547   7.219  44.495   4.054
65330W        W33548  22.287  14.155   4.660
65331W        W33549  18.779  35.119  12.017
65332W        W33550  15.148  30.123   2.648
65333W        W33551  12.701  24.268   3.728
65334W        W33552  40.726  42.934  10.501
65335W        W33553  14.858  44.403  14.508
65336W        W33554  37.589  22.468  10.940
65337W        W33555  35.308   1.482  10.201
65338W        W33556   3.652  44.970  11.116
65339W        W33557  19.637  35.009  12.459
65340W        W33558  12.352  30.178  13.789
65341W        W33559   2.232   1.014  13.501
65342W        W33560  24.696  39.511   2.769
65343W        W33561  26.642  11.293   1.244
65344W        W33562  39.326   2.549   2.291
65345W        W33563  13.540  28.146  14.525
65346W        W33564   0.013  30.401  14.865
65347W        W33565  28.709   7.939   0.861
65348W        W33566  17.110  32.080   4.710
65349W        W33567  34.345  37.541   3.636
65350W        W33568  44.724  42.797  14.534
65351W        W33569  30.748  25.373  10.340
65352W        W33570   9.396  39.365   3.113
65353W        W33571  29.939  28.626  10.583
65354W        W33572  14.381  35.962  12.647
65355W        W33573  24.490  15.732  12.877
65356W        W33574  29.772  29.940  14.393
65357W        W33575  18.772  39.788  10.119
65358W        W33576   1.742  41.290   0.497
65359W        W33577  30.240  19.336  12.078
65360W        W33578   8.013  32.077   4.521
65361W        W33579  25.793  29.371  14.275
65362W        W33580  36.036  25.894  11.985
65363W        W33581   4.530  13.773   1.254
65364W        W33582  23.698  11.235   0.865
65365W        W33583  42.048   4.939  10.272
65366W        W33584  24.000   7.305  12.603
65367W        W33585  25.640  32.161  11.642
65368W        W33586  42.293  30.475  10.548
65369W        W33587  11.316  12.908   1.189
65370W        W33588  13.128  41.883  12.681
65371W        W33589  15.473  40.381  14.037
65372W        W33590  24.009   4.641   3.613
65373W        W33591  43.966  15.791  10.721
65374W        W33592   0.760  36.701   0.731
65375W        W33593  21.459  25.097   0.918
65376W        W33594  31.202  16.623  11.137
65377W        W33595   7.888  21.436   3.797
65378W        W33596   7.755  40.857   0.417
65379W        W33597  29.533  29.607   3.154
65380W        W33598  36.000  36.485   4.170
65381W        W33599   8.480  20.172   4.640
65382W        W33600   5.845  17.509  10.196
65383W        W33601  22.680  29.121  12.580
65384W        W33602  38.243  28.972   4.614
65385W        W33603  38.354  32.361   1.939
65386W        W33604  20.557  43.335   0.051
65387W        W33605  21.893   6.441  11.617
65388W        W33606  11.241  21.650   4.635
65389W        W33607   4.431  36.027   0.750
65390W        W33608  43.972   3.234   3.200
65391W        W33609   7.485  20.171  10.644
65392W        W33610  20.607  29.649  10.657
65393W        W33611  43.788  30.118   1.908
65394W        W33612  25.405  19.579  13.891
65395W        W33613  22.214   8.704  11.059
65396W        W33614  38.834   1.847   2.470
65397W        W33615  24.181  39.847   1.412
65398W        W33616  16.371  43.739   0.313
65399W        W33617  34.908  15.226  13.808
65400W        W33618  31.799  25.631  13.027
65401W        W33619  12.833  11.922   1.771
65402W        W33620   8.204  28.364   2.537
65403W        W33621  39.316  36.349   2.709
65404W        W33622  26.976  35.318   4.099
65405W        W33623  16.106  30.987   1.017
65406W        W33624  29.952  33.852   1.413
65407W        W33625  17.912  37.843   3.604
65408W        W33626   8.869   7.179   4.753
65409W        W33627   5.824  16.273  12.020
65410W        W33628   8.627  35.047  10.721
65411W        W33629  31.190  18.547  12.593
65412W        W33630   5.832  39.072  11.045
65413W        W33631  12.658  20.885  12.985
65414W        W33632  15.093  15.266  12.876
65415W        W33633  22.458  40.977  11.093
65416W        W33634  22.091  20.670   0.355
65417W        W33635   6.669  29.110  13.987
65418W        W33636  27.104  17.328  11.937
65419W        W33637  20.701   6.165  13.834
65420W        W33638  41.936  12.700  10.681
65421W        W33639  43.306  39.349  13.986
65422W        W33640  25.966  24.554  11.241
65423W        W33641  30.942  14.837   9.682
65424W        W33642  30.127  31.504   3.639
65425W        W33643   1.073  27.154   4.284
65426W        W33644  37.062   7.548  12.025
65427W        W33645  16.556  19.225  11.048
65428W        W33646   4.487  17.192   2.482
65429W        W33647  11.650   1.522   3.188
65430W        W33648  42.785   7.353  11.554
65431W        W33649   6.191  22.688  12.470
65432W        W33650  38.173   1.365   3.678
65433W        W33651   4.271  44.256  11.996
65434W        W33652   6.229  16.852   2.622
65435W        W33653  18.521   1.740  10.669
65436W        W33654  32.379   3.298   2.669
65437W        W33655  43.406  32.506  12.495
65438W        W33656   5.597   1.337   1.179
65439W        W33657   9.769  16.971  12.676
65440W        W33658  35.887  39.153  14.939
65441W        W33659  37.606  41.123   0.751
65442W        W33660  22.549  14.783   4.620
65443W        W33661  26.041  21.881   2.616
65444W        W33662  16.692   3.001  11.126
65445W        W33663   4.152   5.255  11.947
65446W        W33664  10.918  29.741  13.403
65447W        W33665  20.774  39.838   0.259
65448W        W33666  28.219  14.002  14.922
65449W        W33667  39.928  32.334   2.713
65450W        W33668  34.837  21.758  12.941
65451W        W33669  16.045   0.518  14.778
65452W        W33670  17.155  37.630  14.050
65453W        W33671   8.181  43.519   0.852
65454W        W33672  21.602  15.259  13.868
65455W        W33673  13.426  43.468   1.749
65456W        W33674  32.550   9.308  14.476
65457W        W33675  11.176   7.793   1.309
65458W        W33676   5.309   1.746   0.990
65459W        W33677  10.199   8.361  13.035
65460W        W33678  38.511  25.995   1.552
65461W        W33679  37.968  13.039  12.492
65462W        W33680   9.542  26.406  14.413
65463W        W33681   7.738  14.828   0.316
65464W        W33682  17.132   2.487  10.698
65465W        W33683   3.450  40.097  12.913
65466W        W33684  29.658   4.555   3.169
65467W        W33685  39.792   5.188   1.811
65468W        W33686  25.765  35.769   4.701
65469W        W33687  25.267  17.007  11.198
65470W        W33688  18.780  10.811   0.164
65471W        W33689  43.306   8.253  11.816
65472W        W33690  22.005  31.908   2.917
65473W        W33691  28.661  36.628  12.283
65474W        W33692  19.765  37.219  10.612
65475W        W33693   7.416  40.321   4.047
65476W        W33694  23.385  38.593   3.669
65477W        W33695  42.372  26.027  13.460
65478W        W33696   4.461   9.385  12.999
65479W        W33697  24.686  15.526   1.831
65480W        W33698  32.018  35.482  11.103
65481W        W33699  16.388  20.753  10.926
65482W        W33700  39.941   4.900  13.303
65483W        W33701  42.352  42.565  14.477
65484W        W33702  40.497   5.035   1.392
65485W        W33703   6.365   9.314   3.192
65486W        W33704  17.580   9.783   1.010
65487W        W33705   2.766  10.341  14.440
65488W        W33706  44.432   8.759   2.225
65489W        W33707  34.729  23.398   0.311
65490W        W33708  19.615  22.951  11.473
65491W        W33709   0.283  22.410  11.781
65492W        W33710  17.233  35.200   4.216
65493W        W33711   0.697  16.955   3.286
65494W        W33712   3.903  36.047  11.855
65495W        W33713  15.247  12.216  13.524
65496W        W33714  13.722  10.859   0.402
65497W        W33715   5.655  26.239  11.833
65498W        W33716   7.705  16.143   1.592
65499W        W33717  25.106   0.310  10.769
65500W        W33718  43.915  27.189   3.617
65501W        W33719  32.986  25.004  11.138
65502W        W33720  31.697  16.930  12.001
65503W        W33721  35.011  42.368   1.699
65504W        W33722  43.961  38.585   0.622
65505W        W33723  32.371  41.910  12.787
65506W        W33724  17.144  38.305   1.274
65507W        W33725  11.271  41.580  10.765
65508W        W33726   5.680  32.376  10.732
65509W        W33727  43.178  17.002  10.146
65510W        W33728   0.280  12.315   2.200
65511W        W33729  28.682  40.477   2.333
65512W        W33730  44.941  14.599   3.630
65513W        W33731  21.744  43.547   2.838
65514W        W33732  16.143  42.750   2.261
65515W        W33733  29.626  21.177   1.807
65516W        W33734  17.078  30.480  12.425
65517W        W33735  22.482  39.718   1.323
65518W        W33736  26.071  32.457  14.450
65519W        W33737   8.137  43.739   0.397
65520W        W33738  17.091  15.923   4.270
65521W        W33739   7.160  20.037   4.207
65522W        W33740  38.435   9.618  12.527
65523W        W33741  41.750  22.242  14.383
65524W        W33742  19.205   3.439  11.635
65525W        W33743  30.947  25.985  14.892
65526W        W33744   2.743  36.500  14.383
65527W        W33745  31.472  15.936  12.078
65528W        W33746  34.292   0.835  12.550
65529W        W33747  23.003  34.578  11.897
65530W        W33748   6.967  39.895  13.910
65531W        W33749  22.922   1.627  13.609
65532W        W33750  14.228  27.430  14.284
65533W        W33751  20.873  41.769   2.240
65534W        W33752  19.487   6.902  13.475
65535W        W33753  29.857  16.147  14.817
65536W        W33754  31.432   1.538   3.725
65537W        W33755  12.384   5.766  11.538
65538W        W33756  31.605  35.680  10.813
65539W        W33757  14.359  43.478  10.643
65540W        W33758  36.991  26.690  10.545
65541W        W33759  12.927  37.544  12.403
65542W        W33760   4.744  34.011  12.378
65543W        W33761   7.334  43.388   2.429
65544W        W33762  35.077  35.969   1.931
65545W        W33763  18.942  39.518   4.444
65546W        W33764  18.737  20.709   3.601
65547W        W33765  14.176  13.698   0.114
65548W        W33766  24.080  37.648   4.695
65549W        W33767   9.596  15.307  11.280
65550W        W33768  12.333  25.917   4.559
65551W        W33769  19.363  24.561  13.544
65552W        W33770  22.955  34.437   1.485
65553W        W33771  28.204  36.947  14.078
65554W        W33772  16.189   2.966   3.878
65555W        W33773  40.827  36.457   1.734
65556W        W33774  14.880  32.324  11.138
65557W        W33775  36.530   7.479  12.772
65558W        W33776  13.129  42.779   2.808
65559W        W33777  20.225  15.068  12.756
65560W        W33778  10.200  28.194   0.216
65561W        W33779   8.911  33.021   4.456
65562W        W33780  37.206  37.475  13.843
65563W        W33781  12.747   5.820  12.780
65564W        W33782   8.199   9.148  12.054
65565W        W33783  40.827  39.777   2.130
65566W        W33784  24.334  24.593  12.388
65567W        W33785  22.926  25.663   1.250
65568W        W33786   5.461  21.328  10.568
65569W        W33787  21.528  14.758  13.736
65570W        W33788  40.140  16.150  13.136
65571W        W33789  30.386  43.569   1.309
65572W        W33790  43.408   5.457  14.598
65573W        W33791   4.615   7.242   9.994
65574W        W33792  17.220  11.793  10.672
65575W        W33793  20.932   1.823   4.441
65576W        W33794  13.629  22.503   2.180
65577W        W33795  11.855  22.476   2.343
65578W        W33796  20.645   9.898  11.509
65579W        W33797  36.778   6.308   2.136
65580W        W33798   4.729  25.673  12.519
65581W        W33799   1.801  12.539  11.285
65582W        W33800  44.368  15.271  12.001
65583W        W33801   2.911  14.353  11.261
65584W        W33802   6.095   1.683  10.595
65585W        W33803  43.783   2.462  13.966
65586W        W33804  44.363  33.537  13.964
65587W        W33805  21.286  16.823   1.801
65588W        W33806   6.596   8.271   4.724
65589W        W33807  35.009  33.748  10.351
65590W        W33808   9.579  21.274   1.213
65591W        W33809  38.143  41.365  13.034
65592W        W33810  25.488  44.715  13.463
65593W        W33811  16.372  33.908   1.798
65594W        W33812  29.888  32.173   2.753
65595W        W33813  19.621   3.737   4.489
65596W        W33814  20.668  19.647   4.710
65597W        W33815  33.182  30.443   1.199
65598W        W33816   5.767  44.194   2.639
65599W        W33817  13.115  40.021  11.248
65600W        W33818  32.967   0.140   1.179
65601W        W33819  20.568  19.719   1.990
65602W        W33820   0.730  24.282  13.074
65603W        W33821  10.174   4.430  12.050
65604W        W33822  14.333  13.385  13.816
65605W        W33823  25.035  11.286   1.049
65606W        W33824  14.311  24.315  14.237
65607W        W33825  17.735  28.716   2.811
65608W        W33826   1.003  37.512   3.625
65609W        W33827  11.245  22.773   0.475
65610W        W33828   8.389  13.725  12.487
65611W        W33829  36.389  34.574   1.327
65612W        W33830  12.374  10.726   1.473
65613W        W33831  22.770  10.318  14.912
65614W        W33832   8.663  27.230   4.610
65615W        W33833  39.407  10.001  12.048
65616W        W33834  19.976  36.782  11.209
65617W        W33835  34.073  14.945  14.224
65618W        W33836   7.683  19.049   3.217
65619W        W33837  36.980   8.663   4.303
65620W        W33838  43.395   6.277  13.460
65621W        W33839  23.685  12.679  10.666
65622W        W33840  40.173  38.317   4.132
65623W        W33841  10.041  15.009   2.915
65624W        W33842  38.805  38.472   4.481
65625W        W33843  28.504  11.902   3.234
65626W        W33844  22.916  22.880  13.481
65627W        W33845  29.722   4.291   2.740
65628W        W33846   9.902  30.507  13.876
65629W        W33847  37.534  15.554   1.321
65630W        W33848  15.976  21.774  14.471
65631W        W33849  19.241  15.365  13.789
65632W        W33850   5.587  23.424   0.556
65633W        W33851  12.685  27.035   2.516
65634W        W33852  32.268  38.485  12.211
65635W        W33853  40.827   3.903   0.726
65636W        W33854  37.580  22.128   4.151
65637W        W33855  43.645  11.150  13.007
65638W        W33856  40.625  39.470  11.931
65639W        W33857  19.091   7.607  13.503
65640W        W33858  12.715  28.318  14.168
65641W        W33859  33.886  21.793   5.039
65642W        W33860  21.210  11.773  14.967
65643W        W33861  22.843   9.462   4.121
65644W        W33862   9.108  23.193   1.364
65645W        W33863  13.759  29.508  11.491
65646W        W33864   8.874   5.236  10.891
65647W        W33865  35.826  38.037  14.301
65648W        W33866  30.656  43.224   2.335
65649W        W33867  18.511  32.319  12.549
65650W        W33868   6.641  19.333   3.295
65651W        W33869  13.752  37.056   2.391
65652W        W33870  10.277   2.053  11.243
65653W        W33871  22.809  18.795   0.960
65654W        W33872  15.240  32.128   1.473
65655W        W33873  14.774   9.796  12.816
65656W        W33874  28.368  27.578   3.754
65657W        W33875  17.311  38.118   0.817
65658W        W33876   5.857  37.111   3.272
65659W        W33877  39.360  24.026  11.615
65660W        W33878  20.223  13.845   2.826
65661W        W33879  14.054  25.958   0.082
65662W        W33880  17.297  44.233   0.329
65663W        W33881  44.825  22.531   4.382
65664W        W33882  43.000  32.160  13.394
65665W        W33883  28.730  43.042  13.014
65666W        W33884   9.705   0.334  10.708
65667W        W33885  36.047  19.734   0.130
65668W        W33886  12.368  37.885  13.955
65669W        W33887  13.103  35.013   4.524
65670W        W33888  28.436  37.385  14.962
65671W        W33889  31.840  20.752  13.866
65672W        W33890   2.254  22.058  13.581
65673W        W33891   8.467  20.089   9.949
65674W        W33892  15.047  14.202   0.261
65675W        W33893   3.764  25.057   4.101
65676W        W33894  21.257  10.137   0.720
65677W        W33895  25.944   9.975  11.572
65678W        W33896  28.624   6.929  13.265
65679W        W33897  44.501   0.670  12.884
65680W        W33898   5.627   7.678  12.429
65681W        W33899   5.186   3.872  11.329
65682W        W33900  25.229   5.176  13.001
65683W        W33901  37.998  31.902   3.235
65684W        W33902  16.094  10.658   4.696
65685W        W33903  15.041  23.396   3.226
65686W        W33904  11.462  15.070   4.521
65687W        W33905  42.866  35.186   3.781
65688W        W33906   3.238  30.926   4.568
65689W        W33907   2.536   0.363  12.436
65690W        W33908  19.842  44.079   1.836
65691W        W33909  10.717  11.619  14.144
65692W        W33910  15.596  27.412  10.009
65693W        W33911  25.898  21.019  13.923
65694W        W33912  27.197  33.603   1.764
65695W        W33913  21.873   7.805   1.459
65696W        W33914  36.922   1.590   5.012
65697W        W33915  36.088   2.677   0.818
65698W        W33916  21.396   6.951  12.846
65699W        W33917   9.776  30.997   0.987
65700W        W33918  44.063   1.257  10.919
65701W        W33919  32.438  29.400   0.766
65702W        W33920  23.510  17.960  10.626
65703W        W33921  14.861  23.630   2.794
65704W        W33922  26.526  18.344  11.567
65705W        W33923  26.010  13.045   1.756
65706W        W33924  11.559  13.626  10.318
65707W        W33925  11.656  43.483   4.774
65708W        W33926  28.086  21.530  14.833
65709W        W33927  21.556  13.593  13.847
65710W        W33928  39.388  16.265   3.165
65711W        W33929  34.583   1.395  14.310
65712W        W33930  19.599   8.226   4.535
65713W        W33931  23.082   6.908  11.565
65714W        W33932  16.702   5.875   1.298
65715W        W33933  18.840  11.285  11.108
65716W        W33934   6.894  36.138  13.796
65717W        W33935   7.927  35.948  12.176
65718W        W33936   2.242  18.348   3.689
65719W        W33937  24.964   1.463  14.481
65720W        W33938  37.786  26.604   1.482
65721W        W33939  23.928  15.258   0.467
65722W        W33940   3.465  41.435  13.738
65723W        W33941   6.111   6.799  10.665
65724W        W33942  22.785  40.039  12.649
65725W        W33943  35.865  13.663  13.490
65726W        W33944  10.231   6.681   2.154
65727W        W33945  21.598   4.906  14.463
65728W        W33946  44.959   1.407   0.790
65729W        W33947  26.137   8.639  13.556
65730W        W33948  27.588  19.411  13.337
65731W        W33949   3.768  26.102   3.481
65732W        W33950  39.356  16.007  14.489
65733W        W33951  42.199  14.063  14.917
65734W        W33952  23.277   0.494  14.462
65735W        W33953  25.085  33.414  13.528
65736W        W33954  18.143  11.425  13.820
65737W        W33955  43.112  16.313   3.173
65738W        W33956   5.810  11.626   2.411
65739W        W33957  35.367  12.802  14.341
65740W        W33958  19.644   8.054   1.746
65741W        W33959  15.077  19.407  11.118
65742W        W33960  35.529  44.724  11.858
65743W        W33961  19.706  36.356  12.928
65744W        W33962  23.263  17.127   0.848
65745W        W33963  37.762  37.841   0.942
65746W        W33964   3.641  35.085   4.135
65747W        W33965  25.006   5.972  11.147
65748W        W33966   3.512  28.458  11.275
65749W        W33967  43.278  10.431   1.460
65750W        W33968  11.591  28.889   3.681
65751W        W33969  32.088  31.385   0.282
65752W        W33970  15.261   9.090  13.004
65753W        W33971  43.524  24.113  11.319
65754W        W33972  33.998  25.949   3.788
65755W        W33973  14.309  44.702  13.857
65756W        W33974  25.677  25.443  11.120
65757W        W33975   9.923   1.628   4.190
65758W        W33976  20.765  38.037   0.986
65759W        W33977  18.975  12.677   1.760
65760W        W33978   7.392  35.589   0.259
65761W        W33979   7.914  20.588  14.819
65762W        W33980  29.958   5.473   0.373
65763W        W33981  31.336   3.890  11.198
65764W        W33982  32.929  33.930   3.974
65765W        W33983  44.415  25.058   3.636
65766W        W33984  11.119  37.944   3.267
65767W        W33985  40.450  24.242   4.614
65768W        W33986  39.800  23.664   4.008
65769W        W33987  26.362  22.029  14.611
65770W        W33988  35.308  37.409   4.268
65771W        W33989  36.794   1.487  11.648
65772W        W33990  37.635  17.289  14.923
65773W        W33991  22.651  38.598  10.985
65774W        W33992  27.627  40.793   2.847
65775W        W33993  29.223  24.938   3.122
65776W        W33994   2.353  22.212   1.358
65777W        W33995  29.627  14.395  10.719
65778W        W33996  44.712  21.308  13.997
65779W        W33997  26.138  12.651   2.705
65780W        W33998  22.102  37.854  14.606
65781W        W33999  34.546  22.610   4.019
65782W        W34000  27.969   8.573  14.779
65783W        W34001  40.748  31.963   3.584
65784W        W34002  24.411  16.141   0.373
65785W        W34003  25.035  34.928   4.342
65786W        W34004   8.699   7.669   4.882
65787W        W34005  35.841  27.531  14.488
65788W        W34006  35.885  31.007  14.452
65789W        W34007  38.398  11.303  14.968
65790W        W34008   7.905  24.650  13.068
65791W        W34009  17.318   7.453   3.200
65792W        W34010  41.405  34.686   1.441
65793W        W34011  41.829  33.434  14.526
65794W        W34012  25.151   6.371  13.144
65795W        W34013  43.387  10.888   4.788
65796W        W34014  37.529  43.308  11.582
65797W        W34015  30.756  31.550  12.948
65798W        W34016  25.794  15.252   2.601
65799W        W34017  44.484  40.417  10.546
65800W        W34018  16.779  40.465  13.939
65801W        W34019  26.433  43.756  11.806
65802W        W34020  44.986  28.470   1.780
65803W        W34021   4.412  13.863   3.340
65804W        W34022  17.581  21.257  13.606
65805W        W34023  11.119   1.364   1.511
65806W        W34024  32.111  23.288   0.266
65807W        W34025  26.185  25.221  10.633
65808W        W34026   1.728  14.210   4.562
65809W        W34027   8.750   9.030   4.179
65810W        W34028  14.708  44.473   2.724
65811W        W34029  40.350   3.203  11.491
65812W        W34030  23.230  37.098   1.871
65813W        W34031  37.937  26.066  14.303
65814W        W34032   6.778  25.382   4.967
65815W        W34033  16.082  28.543  11.971
65816W        W34034  19.707  35.606   0.524
65817W        W34035  28.723   3.256  10.710
65818W        W34036  34.008  15.665   4.729
65819W        W34037  22.932  39.544  10.884
65820W        W34038  34.003   3.984   9.872
65821W        W34039  35.570  18.745  14.542
65822W        W34040   3.481  35.533  13.010
65823W        W34041  20.737   3.965  13.064
65824W        W34042   4.712  34.044   0.235
65825W        W34043   1.924  22.244   1.681
65826W        W34044  39.612  14.754   1.752
65827W        W34045  27.212   9.182   3.076
65828W        W34046   4.226  20.228  14.896
65829W        W34047  18.096  18.374   0.234
65830W        W34048  19.186  27.764  13.744
65831W        W34049  39.138  42.839   4.430
65832W        W34050   5.633  21.605  13.858
65833W        W34051  37.795  39.524  12.935
65834W        W34052   7.836   5.668  11.766
65835W        W34053   8.193  17.022   0.066
65836W        W34054  23.734  38.044  13.494
65837W        W34055  14.532   6.367  13.301
65838W        W34056  27.746  10.106  11.310
65839W        W34057  15.437  27.314   1.235
65840W        W34058  33.083  33.920   1.540
65841W        W34059  21.664   4.075  10.721
65842W        W34060   1.409  11.703   0.330
65843W        W34061  25.781  37.619  12.463
65844W        W34062  18.497   6.216  11.567
65845W        W34063  12.036  27.260   2.606
65846W        W34064  42.084  32.691  12.922
65847W        W34065  17.522  12.872   1.155
65848W        W34066  23.957  41.983   4.180
65849W        W34067   2.230   1.856   0.214
65850W        W34068  33.000  44.345   4.514
65851W        W34069  38.178  21.913  14.814
65852W        W34070   8.861  34.626   2.308
65853W        W34071   3.605   3.199  11.115
65854W        W34072  15.739  20.026  14.008
65855W        W34073  31.154  16.862  12.045
65856W        W34074  27.395  39.589   3.186
65857W        W34075   8.415  32.184   3.579
65858W        W34076  40.012  25.518  10.870
65859W        W34077  10.711   1.050   1.739
65860W        W34078  44.712  41.844  14.875
65861W        W34079  26.468  44.231  12.001
65862W        W34080  22.206   1.783  10.461
65863W        W34081  37.031  44.422   2.856
65864W        W34082  15.622  44.566   4.128
65865W        W34083  10.813   7.182  13.075
65866W        W34084   2.747  14.352  14.089
65867W        W34085  11.336  29.545   4.696
65868W        W34086  24.243   8.200  14.461
65869W        W34087  29.386  37.052   1.878
65870W        W34088   0.890  41.548   2.832
65871W        W34089  24.042  21.335  10.369
65872W        W34090  24.555  14.554  11.325
65873W        W34091  41.674  22.429  14.851
65874W        W34092  23.211  43.801  10.489
65875W        W34093   3.518  10.218   1.475
65876W        W34094  14.296  41.475  14.195
65877W        W34095   2.933  10.692  11.563
65878W        W34096   6.648  15.630  11.552
65879W        W34097  35.558   7.156  10.795
65880W        W34098   8.897   5.562   4.676
65881W        W34099  26.279   8.402   1.278
65882W        W34100  20.189  26.741   2.750
65883W        W34101  30.952  30.570  10.759
65884W        W34102  43.596  43.485  13.066
65885W        W34103  14.907  39.310   3.288
65886W        W34104  21.539  27.953  13.383
65887W        W34105  19.119  28.601  12.021
65888W        W34106   0.269  18.289  12.019
65889W        W34107   6.402  29.004   4.353
65890W        W34108  31.523  26.944   1.057
65891W        W34109  31.609  18.600  14.275
65892W        W34110  19.982  18.144   3.098
65893W        W34111  28.247  42.393  13.839
65894W        W34112  22.716   9.829  12.531
65895W        W34113   7.187   2.313  13.418
65896W        W34114  21.565  41.868  11.002
65897W        W34115  38.814  15.096   1.874
65898W        W34116  13.193   2.087  14.884
65899W        W34117  44.842  20.762  14.814
65900W        W34118   5.382  19.408   5.245
65901W        W34119  29.860  26.429   2.044
65902W        W34120  30.470   7.373  13.618
65903W        W34121  17.242  13.161   0.269
65904W        W34122  31.986  10.302  13.955
65905W        W34123   1.879  27.222   1.795
65906W        W34124  43.977  26.697  13.867
65907W        W34125  28.624   1.705  11.527
65908W        W34126   8.536   6.125   0.624
65909W        W34127  21.617  26.028  13.503
65910W        W34128  37.371   6.266  11.257
65911W        W34129  44.391  36.971   1.960
65912W        W34130  43.386  26.759   2.784
65913W        W34131  26.847  37.484   2.467
65914W        W34132  42.564  22.247  13.923
65915W        W34133  36.596  35.095   3.362
65916W        W34134  18.486   7.437  12.507
65917W        W34135  17.528  28.441  14.483
65918W        W34136  30.200  12.595   1.165
65919W        W34137  33.930  33.126   2.050
65920W        W34138   6.948  43.669   2.798
65921W        W34139  16.441  29.325  13.569
65922W        W34140   0.004  29.764  11.987
65923W        W34141  44.262  10.782   2.393
65924W        W34142  32.111  38.111   0.307
65925W        W34143  10.153  31.105  12.763
65926W        W34144  38.351  29.029  13.045
65927W        W34145  29.174  38.789   1.509
65928W        W34146  32.624  34.929  12.607
65929W        W34147  27.989  16.601   0.755
65930W        W34148  32.472  20.536  10.416
65931W        W34149  13.853  38.443   1.104
65932W        W34150  13.174  25.923  12.149
65933W        W34151   3.976  44.661  13.463
65934W        W34152  27.160   8.067   2.554
65935W        W34153  11.406  18.845   2.778
65936W        W34154  37.815   0.593   1.261
65937W        W34155  11.219   0.510  14.974
65938W        W34156  37.351  11.426   1.830
65939W        W34157   5.433  31.334  12.715
65940W        W34158   6.113  14.219   0.683
65941W        W34159   6.371  34.550  11.664
65942W        W34160  19.266  32.459  12.806
65943W        W34161  27.405   0.869   0.878
65944W        W34162  23.738  43.487  12.975
65945W        W34163   3.338   8.997   4.936
65946W        W34164  39.912  24.451  10.878
65947W        W34165  26.665   7.683   0.885
65948W        W34166  21.433   3.727   0.587
65949W        W34167  23.080   2.513   1.676
65950W        W34168  37.819   6.320  12.887
65951W        W34169   0.257  22.660   1.991
65952W        W34170  35.079  40.743   2.713
65953W        W34171   8.733  21.983  11.785
65954W        W34172  36.004  40.811  13.532
65955W        W34173  22.550   2.070  11.631
65956W        W34174  21.993  20.778  11.533
65957W        W34175  12.146  25.887   2.230
65958W        W34176  37.762  29.692   0.211
65959W        W34177  27.409  40.091  13.354
65960W        W34178  24.653  40.816  13.515
65961W        W34179  36.475  39.239   0.945
65962W        W34180   2.748  23.767  13.115
65963W        W34181  20.022  21.558  12.457
65964W        W34182  41.379   3.664  13.401
65965W        W34183  24.707   6.125  13.960
65966W        W34184  33.228   3.155   0.302
65967W        W34185  39.016  30.955   4.399
65968W        W34186   5.784   0.346  14.842
65969W        W34187  16.738  21.626   4.978
65970W        W34188  42.460   7.264   4.624
65971W        W34189  12.104  19.054   0.602
65972W        W34190  28.213  43.850   1.966
65973W        W34191  17.248  14.856  12.884
65974W        W34192  41.837  32.645  11.973
65975W        W34193  26.520   1.107   2.843
65976W        W34194  31.991   7.970  11.563
65977W        W34195  23.051  41.672   3.806
65978W        W34196  43.383  25.416  11.460
65979W        W34197  43.841  30.743  12.867
65980W        W34198  42.458  16.059   4.257
65981W        W34199  17.819  39.869   4.289
65982W        W34200  25.200  14.961  10.137
65983W        W34201  36.506   3.525   2.822
65984W        W34202   7.267  41.919   1.535
65985W        W34203  22.236  38.545   0.762
65986W        W34204  27.052  38.565   0.488
65987W        W34205  17.688  33.933   3.071
65988W        W34206  43.518   1.775  12.574
65989W        W34207  13.411   5.724   1.828
65990W        W34208  14.866  36.903   4.177
65991W        W34209  38.861  11.264  13.793
65992W        W34210   5.539   2.182   4.586
65993W        W34211  22.107  27.166   0.026
65994W        W34212  22.928   4.781   3.120
65995W        W34213  32.646  10.537   3.785
65996W        W34214  39.812  15.793  12.980
65997W        W34215  14.332  41.032  14.528
65998W        W34216  17.572  12.756   0.058
65999W        W34217  44.663  30.180   1.402
66000W        W34218   8.229  13.724   4.226
66001W        W34219  12.787  38.338   0.055
66002W        W34220  15.563  35.632   4.072
66003W        W34221  28.083   0.082  13.404
66004W        W34222  20.972   6.242   2.242
66005W        W34223   4.920  28.993  13.686
66006W        W34224  42.834  21.895   3.266
66007W        W34225   5.181  19.238   0.920
66008W        W34226  23.620  35.422  12.074
66009W        W34227  36.128  19.118   2.551
66010W        W34228  18.350   6.317  13.128
66011W        W34229  29.381  20.353  13.515
66012W        W34230  11.696  30.640  14.250
66013W        W34231   0.874  21.118  12.054
66014W        W34232  16.006  25.681  11.161
66015W        W34233  31.958  33.301   3.258
66016W        W34234  28.204  17.793   2.794
66017W        W34235  40.034  25.543  14.502
66018W        W34236  18.800   7.666  12.163
66019W        W34237   3.951  31.560   4.812
66020W        W34238  39.880  42.992  10.769
66021W        W34239  32.498  30.986  12.080
66022W        W34240  15.905  38.909   4.967
66023W        W34241   6.672  12.437   0.047
66024W        W34242  18.533  20.567   1.311
66025W        W34243  35.604  24.861   3.119
66026W        W34244  41.152  31.637   0.139
66027W        W34245  38.507  31.066  10.984
66028W        W34246  25.203  14.235   1.864
66029W        W34247  28.698  19.986   1.895
66030W        W34248  27.369  42.893  13.604
66031W        W34249  29.379  24.558   2.260
66032W        W34250  26.857  23.526  13.431
66033W        W34251  15.270   6.188  13.592
66034W        W34252  17.882   9.685   3.229
66035W        W34253   9.900  13.347  14.902
66036W        W34254  29.130  29.052   3.642
66037W        W34255  41.827  28.596   4.151
66038W        W34256  40.446  25.968  13.836
66039W        W34257  40.360  34.052   0.779
66040W        W34258  25.644  23.732   3.744
66041W        W34259  26.421  27.559   0.715
66042W        W34260   6.910   5.848   3.748
66043W        W34261   6.868  15.640   0.417
66044W        W34262   9.149  34.686   4.105
66045W        W34263   6.377   9.886   0.668
66046W        W34264  27.450  44.700  14.668
66047W        W34265  25.543  14.837  13.829
66048W        W34266   8.223  35.078  12.556
66049W        W34267  15.834  43.612  10.006
66050W        W34268   5.660  11.844   1.404
66051W        W34269  10.251   3.769   1.896
66052W        W34270  41.491  13.793   0.929
66053W        W34271  15.334  37.617   3.149
66054W        W34272  43.090  16.601  12.364
66055W        W34273  32.329   3.843   3.251
66056W        W34274  44.687   6.967  13.550
66057W        W34275  10.861  38.992  14.033
66058W        W34276  41.525  25.276  10.577
66059W        W34277   4.476  21.961  12.758
66060W        W34278   9.314  37.680   4.269
66061W        W34279   7.618   0.831   2.734
66062W        W34280  11.286   2.966   2.780
66063W        W34281  35.552   4.582   1.892
66064W        W34282  26.239  16.815   4.043
66065W        W34283  40.045  18.657  11.082
66066W        W34284   7.860  41.223   2.519
66067W        W34285   0.411  15.101   2.953
66068W        W34286  38.231   9.715   1.853
66069W        W34287  32.411  15.539  11.160
66070W        W34288  33.905  15.240   2.410
66071W        W34289  19.187  44.550   0.425
66072W        W34290  12.588  28.638  11.090
66073W        W34291   5.299   3.056  10.480
66074W        W34292   6.689  29.488  14.839
66075W        W34293  23.953   9.066   0.470
66076W        W34294  41.172  19.137  11.192
66077W        W34295  31.924  32.099  10.480
66078W        W34296  38.442  17.487   2.852
66079W        W34297   1.463  40.389   4.845
66080W        W34298   6.403  12.962  13.830
66081W        W34299  15.192  44.233   2.699
66082W        W34300  19.670  39.902   4.785
66083W        W34301  20.667  33.096   5.440
66084W        W34302  37.026   9.574  13.008
66085W        W34303  15.728  22.305   3.951
66086W        W34304   2.236  11.292   1.677
66087W        W34305  19.070   2.459   4.149
66088W        W34306  35.072  43.881   3.386
66089W        W34307  35.853  38.063   1.888
66090W        W34308  25.611  38.938  13.026
66091W        W34309  38.830  28.743  12.967
66092W        W34310  12.716   1.429  14.029
66093W        W34311  14.687  16.046   2.300
66094W        W34312  25.626  13.234  11.292
66095W        W34313  11.153  10.743  14.410
66096W        W34314  10.596  13.891  12.003
66097W        W34315   2.484   7.826   4.127
66098W        W34316  24.229  19.375   1.751
66099W        W34317   8.725  43.801  10.603
66100W        W34318  29.703  39.871  12.097
66101W        W34319  22.190  40.127  14.415
66102W        W34320  22.227   4.310   1.220
66103W        W34321  29.501  43.097   1.435
66104W        W34322  14.142  24.953   2.819
66105W        W34323  40.256   0.843   4.160
66106W        W34324   0.932  21.633   1.295
66107W        W34325  26.620  37.363   2.929
66108W        W34326  12.255  28.679  11.518
66109W        W34327   9.149  22.725  12.319
66110W        W34328  24.615  27.114  13.137
66111W        W34329  33.790   4.034  11.266
66112W        W34330  22.449  32.410  14.592
66113W        W34331  12.780   7.879  11.659
66114W        W34332   0.043  33.579   4.810
66115W        W34333  14.327  41.674   2.808
66116W        W34334  13.523  29.895   0.942
66117W        W34335  41.572  29.886  13.851
66118W        W34336   7.794  31.589   4.572
66119W        W34337  41.594  41.663   5.048
66120W        W34338  27.054  15.611   1.755
66121W        W34339  29.745  17.010  12.949
66122W        W34340   2.299  15.021   3.312
66123W        W34341  21.704  41.394   1.429
66124W        W34342  31.141  29.174   2.575
66125W        W34343   5.755  20.252   4.064
66126W        W34344  35.855  23.447  13.311
66127W        W34345  31.198  28.126   0.447
66128W        W34346  36.931   6.924   0.869
66129W        W34347  38.957  19.539  12.347
66130W        W34348  43.420  14.690  14.473
66131W        W34349  36.028  17.670  13.381
66132W        W34350   3.824  17.651   4.535
66133W        W34351  41.885  22.086  13.476
66134W        W34352  10.864  41.254  13.360
66135W        W34353  10.764  21.676   1.760
66136W        W34354  17.604  37.000   4.074
66137W        W34355  36.189  38.969   5.067
66138W        W34356  19.078  28.048   0.916
66139W        W34357  14.149  44.427   2.819
66140W        W34358  39.879  39.343   2.906
66141W        W34359   9.260  41.387   3.918
66142W        W34360  37.113  35.918   0.740
66143W        W34361   1.562  16.725  14.323
66144W        W34362  13.368  36.081  11.532
66145W        W34363  18.799  16.568  12.053
66146W        W34364  34.850  22.938  13.532
66147W        W34365  24.117  29.022   2.510
66148W        W34366  30.940  34.389   4.153
66149W        W34367  17.857  16.610   5.165
66150W        W34368  37.630  13.725  12.016
66151W        W34369   1.808  16.378   4.471
66152W        W34370   4.887  15.053  12.633
66153W        W34371  17.519  25.745   1.533
66154W        W34372  14.511  23.150  14.799
66155W        W34373  42.491  31.829  12.980
66156W        W34374   0.540  44.539  11.923
66157W        W34375  32.161   6.886  14.730
66158W        W34376  33.482   4.051   0.226
66159W        W34377  43.026  41.390  11.896
66160W        W34378  35.462   3.796   2.496
66161W        W34379  32.775  24.480  13.937
66162W        W34380  35.978   6.648  13.049
66163W        W34381   8.956  28.911   4.084
66164W        W34382  15.280  41.709  14.943
66165W        W34383  19.128  15.369   2.273
66166W        W34384  40.414  13.275   4.291
66167W        W34385   4.202   5.374   1.682
66168W        W34386  13.141  15.714   3.770
66169W        W34387  34.365   3.983  12.555
66170W        W34388  12.316  24.074   0.804
66171W        W34389  10.848  39.627   2.064
66172W        W34390  26.037  16.190   1.898
66173W        W34391  14.115  22.142  10.951
66174W        W34392  42.233  40.626   1.633
66175W        W34393  35.108  40.241   3.226
66176W        W34394  15.031  21.980  11.283
66177W        W34395   3.779  39.950   3.265
66178W        W34396   8.398  31.163   2.844
66179W        W34397  35.819  33.838   0.775
66180W        W34398   1.847  16.007   0.442
66181W        W34399  16.270  25.983  12.990
66182W        W34400  20.446  21.090  14.699
66183W        W34401   3.412  20.703  13.470
66184W        W34402  40.466  33.190  13.369
66185W        W34403  42.473  21.560  10.480
66186W        W34404  21.816  20.317  12.124
66187W        W34405  42.722  25.182  12.997
66188W        W34406  22.318  31.130  13.336
66189W        W34407  13.245  32.204  12.492
66190W        W34408  27.097  21.729   0.168
66191W        W34409  27.613  14.455   0.981
66192W        W34410  14.866  15.119   0.975
66193W        W34411  42.947   2.717  10.835
66194W        W34412  28.439  40.692  14.774
66195W        W34413  20.916  23.562  14.837
66196W        W34414  27.050  32.889  10.565
66197W        W34415   8.838  18.292   4.140
66198W        W34416  20.573  13.062   1.975
66199W        W34417  35.898  17.534  14.955
66200W        W34418  26.603   7.185   2.395
66201W        W34419  25.583  18.244   4.917
66202W        W34420  18.273  30.539   0.425
66203W        W34421  23.888   5.787   0.875
66204W        W34422  12.569  12.286  13.894
66205W        W34423   1.297  14.599   1.339
66206W        W34424  42.922  41.732   0.036
66207W        W34425  15.789  36.959  14.213
66208W        W34426  43.804  19.525  12.590
66209W        W34427  21.312   7.270  13.245
66210W        W34428   2.829  37.473   4.267
66211W        W34429  28.648   2.336  10.528
66212W        W34430   3.747  41.602   4.211
66213W        W34431  40.005  36.914   1.898
66214W        W34432   8.577   0.467  12.592
66215W        W34433   4.115  29.732  11.114
66216W        W34434   7.372  11.972  11.582
66217W        W34435  10.153   7.647   3.183
66218W        W34436   5.030  27.505  10.572
66219W        W34437  44.860  13.495  13.907
66220W        W34438  30.988  42.568   0.695
66221W        W34439  13.921  13.878  12.848
66222W        W34440   8.604  15.699   5.052
66223W        W34441  37.603  23.973   3.286
66224W        W34442  35.198  15.591  11.245
66225W        W34443   4.164  11.373   0.376
66226W        W34444  26.386  15.593   3.330
66227W        W34445  15.904  19.272   3.093
66228W        W34446  26.170  39.491  14.468
66229W        W34447   6.905   1.989  11.443
66230W        W34448  16.768  18.953  13.033
66231W        W34449  12.902  33.497   1.035
66232W        W34450   1.222  42.455  10.512
66233W        W34451  17.254  23.260   4.401
66234W        W34452   9.137  31.491  11.501
66235W        W34453  41.450  12.366   1.742
66236W        W34454  15.842   2.222  11.334
66237W        W34455  33.485   8.193  13.810
66238W        W34456  10.162  34.342   3.078
66239W        W34457  24.214   2.382   0.410
66240W        W34458   1.816  35.073  13.566
66241W        W34459  28.305  36.435   3.672
66242W        W34460  37.516   2.776  13.952
66243W        W34461  21.689   0.064   3.749
66244W        W34462  31.557  15.094  11.092
66245W        W34463  19.480  26.120  14.817
66246W        W34464   9.251  44.224   1.395
66247W        W34465  40.445   1.869  13.062
66248W        W34466  43.250  24.516   2.366
66249W        W34467  43.949  37.096  12.265
66250W        W34468  42.565  14.236   1.691
66251W        W34469  10.313  13.334  12.545
66252W        W34470   8.857  40.033  13.514
66253W        W34471  11.939  27.589  12.204
66254W        W34472  36.442  28.185   4.313
66255W        W34473  13.144  19.384   4.603
66256W        W34474  26.003  40.744  10.641
66257W        W34475  22.005   7.031  12.482
66258W        W34476  34.081   4.868   9.776
66259W        W34477   9.929   0.786   1.543
66260W        W34478  26.607  39.279   1.640
66261W        W34479  27.125  38.160  14.876
66262W        W34480  14.259  32.099  13.537
66263W        W34481  19.783  11.346  11.248
66264W        W34482  42.123  21.322  14.856
66265W        W34483   3.412  40.303   1.483
66266W        W34484   6.388  28.628   0.768
66267W        W34485  34.498  15.050   1.577
66268W        W34486  38.499   5.507  13.383
66269W        W34487  34.939  14.108   0.923
66270W        W34488  20.227  22.513   3.267
66271W        W34489  31.210  15.854   9.795
66272W        W34490  20.144  31.682  13.819
66273W        W34491   1.650  13.027  11.138
66274W        W34492  44.228  16.803  13.847
66275W        W34493  31.314  20.634  11.983
66276W        W34494  18.266   0.897   4.356
66277W        W34495  26.175  33.828   0.034
66278W        W34496  33.497  41.081  14.292
66279W        W34497  17.556   2.033  11.066
66280W        W34498  18.111  31.133   3.766
66281W        W34499  27.465  33.917   1.293
66282W        W34500  25.191  25.236  13.020
66283W        W34501  40.310  35.713  11.118
66284W        W34502  40.039   4.193   1.500
66285W        W34503   1.268  13.210  13.506
66286W        W34504  19.559   3.750   3.635
66287W        W34505  31.967  39.482  10.784
66288W        W34506  37.606  10.187  14.250
66289W        W34507  35.454  33.958   1.921
66290W        W34508  14.085  18.109  14.447
66291W        W34509   1.389  11.240  12.184
66292W        W34510  32.784  33.595  12.514
66293W        W34511   3.986  31.924   1.835
66294W        W34512  24.544  11.826   3.438
66295W        W34513  28.907   5.233  14.835
66296W        W34514  20.768  33.537  13.980
66297W        W34515  15.735   1.803   3.617
66298W        W34516  24.339  33.462  10.227
66299W        W34517  11.608  27.866  11.516
66300W        W34518  13.855  13.279  13.590
66301W        W34519  34.136  11.421   4.504
66302W        W34520  10.903  12.226   0.376
66303W        W34521  26.507  28.891   0.079
66304W        W34522  14.054   6.435  13.415
66305W        W34523  35.710  16.762  13.938
66306W        W34524  14.665  29.459  11.688
66307W        W34525  33.032   2.112   2.260
66308W        W34526  35.846   4.585  11.614
66309W        W34527   0.867  14.128  12.969
66310W        W34528  32.527   3.275   3.903
66311W        W34529  30.836  28.422   0.208
66312W        W34530   0.405  21.107  12.329
66313W        W34531  32.995  13.681  13.545
66314W        W34532  26.007  35.176   3.299
66315W        W34533  10.141  43.966   3.799
66316W        W34534  13.731  36.461   4.692
66317W        W34535  22.659  26.443  10.691
66318W        W34536  35.405   5.809   2.818
66319W        W34537  14.864  18.513  12.081
66320W        W34538  11.339  36.230   0.539
66321W        W34539   0.887  11.650  13.430
66322W        W34540  27.096  37.008  10.349
66323W        W34541  15.754   6.596   4.544
66324W        W34542  19.984  11.158   1.088
66325W        W34543  21.838  13.584   1.010
66326W        W34544  39.407  34.885  11.231
66327W        W34545   7.768  40.384  13.056
66328W        W34546   8.489  13.303   4.121
66329W        W34547  44.766  11.203  10.588
66330W        W34548  36.495  41.822  14.363
66331W        W34549  25.873  40.666  11.482
66332W        W34550  42.641  28.260  13.051
66333W        W34551  43.827  11.240  13.489
66334W        W34552  25.926   3.489  12.604
66335W        W34553  17.097   7.307   1.240
66336W        W34554  43.371   3.301  12.386
66337W        W34555  30.195  15.107   0.848
66338W        W34556  20.620  27.182  11.607
66339W        W34557  10.646  35.562   1.804
66340W        W34558  40.356  44.715   0.817
66341W        W34559  29.882  18.867  11.244
66342W        W34560   5.777  43.813  14.372
66343W        W34561  37.114  33.236  11.798
66344W        W34562  20.970   7.678   4.580
66345W        W34563  22.323  33.584  11.622
66346W        W34564  19.114  44.912   4.278
66347W        W34565  22.962  42.253  13.989
66348W        W34566   3.307   2.703   2.878
66349W        W34567  26.516  34.393  12.488
66350W        W34568  30.395   9.789  13.785
66351W        W34569  37.011  36.253  11.698
66352W        W34570  29.756   8.177  12.527
66353W        W34571  38.406  38.824  13.757
66354W        W34572  29.599   9.686   0.572
66355W        W34573  33.981  38.441   2.250
66356W        W34574  37.833  31.973  11.137
66357W        W34575  14.957  17.598   2.530
66358W        W34576  23.556  28.943   2.579
66359W        W34577  44.905   3.275  14.500
66360W        W34578  43.295  34.573  12.854
66361W        W34579   4.017  28.544  12.487
66362W        W34580   8.909  34.019   4.708
66363W        W34581  17.803   7.028   0.300
66364W        W34582   0.858  26.704   3.044
66365W        W34583  33.081  33.602  10.741
66366W        W34584  44.055  35.704  12.937
66367W        W34585  41.238  21.540  13.940
66368W        W34586  28.106  38.937   3.225
66369W        W34587   5.627  43.767   1.733
66370W        W34588  16.886  41.166  11.340
66371W        W34589  12.059  20.964   1.531
66372W        W34590  28.509  43.575  13.594
66373W        W34591  26.479   7.009  14.757
66374W        W34592  33.378  17.740  10.888
66375W        W34593   3.390  19.575   1.979
66376W        W34594   6.979  37.053  13.456
66377W        W34595  15.221  41.356  12.673
66378W        W34596  35.860  22.165   1.876
66379W        W34597  30.023  28.900  12.915
66380W        W34598  26.672  20.482  13.070
66381W        W34599  18.556   5.798   3.668
66382W        W34600  34.434  43.337   4.092
66383W        W34601  35.824   4.797  10.152
66384W        W34602  24.928  32.299   2.413
66385W        W34603  24.149  37.727  12.586
66386W        W34604  12.280  23.172  10.637
66387W        W34605  25.078  29.604  11.866
66388W        W34606  21.439  38.966  10.618
66389W        W34607   2.267  26.184   0.869
66390W        W34608  13.218   4.994  13.118
66391W        W34609   6.409  27.946   4.122
66392W        W34610  10.385  43.516   3.819
66393W        W34611  10.116  39.116  14.365
66394W        W34612  27.887  18.996  13.408
66395W        W34613  39.314   3.236   2.718
66396W        W34614  41.586  23.272  10.697
66397W        W34615   3.719  31.075  13.968
66398W        W34616  22.994  30.584  11.726
66399W        W34617  11.712  13.196   0.064
66400W        W34618  12.634  21.703  12.634
66401W        W34619  28.095  17.741  11.950
66402W        W34620   9.160  21.538  14.739
66403W        W34621  30.343  19.165  12.986
66404W        W34622  44.714  21.731  13.617
66405W        W34623  30.069  22.081  11.397
66406W        W34624  44.553  17.021  14.522
66407W        W34625  16.230   0.789  13.430
66408W        W34626   6.903  43.226   4.249
66409W        W34627  44.456  29.489  14.004
66410W        W34628  21.111  38.469   4.566
66411W        W34629   9.376   8.295  12.507
66412W        W34630  14.256   7.991   0.638
66413W        W34631  16.705   6.199  14.548
66414W        W34632  34.990  21.091  13.448
66415W        W34633  41.459  21.259  12.937
66416W        W34634   8.716  24.947  13.906
66417W        W34635  33.745   7.301   3.121
66418W        W34636  23.966   5.956   0.063
66419W        W34637  13.864   5.299  14.769
66420W        W34638  35.750  42.145   3.739
66421W        W34639  35.793  15.494  13.223
66422W        W34640  33.609  17.176  12.678
66423W        W34641  36.969  35.652  12.505
66424W        W34642  42.049  28.094   3.348
66425W        W34643  18.423  32.722   0.902
66426W        W34644   2.049   5.511   0.678
66427W        W34645   5.280  24.356   4.405
66428W        W34646  20.079   2.963  13.328
66429W        W34647  43.325   4.863  10.732
66430W        W34648  17.791  12.278   4.469
66431W        W34649   9.797   4.236  10.910
66432W        W34650  17.819   6.245   2.716
66433W        W34651  21.519  12.147   0.894
66434W        W34652  17.604  37.877  13.875
66435W        W34653   5.693  21.777  13.014
66436W        W34654   6.692  11.162  12.510
66437W        W34655   0.696  41.367  13.930
66438W        W34656  19.638   1.269  12.607
66439W        W34657  33.476  38.331  12.025
66440W        W34658   2.222  34.790   4.087
66441W        W34659  26.354  36.404  11.506
66442W        W34660  41.832   3.488   1.349
66443W        W34661   0.183  35.166  12.858
66444W        W34662  27.976   9.195  10.574
66445W        W34663   1.934   7.684   1.206
66446W        W34664  36.787  15.671  13.253
66447W        W34665  26.372  25.496   1.309
66448W        W34666   6.358  22.097   2.009
66449W        W34667   7.825   4.468  11.048
66450W        W34668   0.928   1.318   1.756
66451W        W34669  43.485  19.658  10.125
66452W        W34670  29.745  21.296  13.448
66453W        W34671  13.763  21.547   2.648
66454W        W34672  35.926  14.897  11.572
66455W        W34673  12.752   8.624  12.440
66456W        W34674  23.130  20.594   3.850
66457W        W34675  33.672  17.792   2.348
66458W        W34676  26.204  34.321  10.924
66459W        W34677   2.750  42.932   3.123
66460W        W34678  42.435  18.075   0.920
66461W        W34679  11.609   3.773   4.938
66462W        W34680   3.896  13.333   1.003
66463W        W34681  34.503  15.777  10.667
66464W        W34682  29.910  20.739   0.760
66465W        W34683   7.872  18.181   1.435
66466W        W34684   0.924  43.632   1.112
66467W        W34685  11.838   0.028   1.369
66468W        W34686  37.983  34.044   0.112
66469W        W34687  29.807  42.762   3.880
66470W        W34688  12.610  24.814   2.902
66471W        W34689   2.079  10.334   1.962
66472W        W34690   7.685  11.402  11.158
66473W        W34691  16.961   4.245   0.195
66474W        W34692  17.138  26.724   3.289
66475W        W34693  41.845  43.709  10.999
66476W        W34694  10.598  17.680  14.077
66477W        W34695  18.624  31.866   2.681
66478W        W34696  31.950  21.926   1.907
66479W        W34697  10.868  43.406   2.251
66480W        W34698  12.801  12.682  10.668
66481W        W34699  11.366  26.690  13.556
66482W        W34700  35.923  29.406  12.551
66483W        W34701  39.608  37.113   2.883
66484W        W34702   8.761  30.456   3.267
66485W        W34703   4.693  12.854   2.811
66486W        W34704   6.192  25.543   4.139
66487W        W34705  29.521  26.482  11.495
66488W        W34706  44.280  10.218  10.775
66489W        W34707  23.491  37.104   3.999
66490W        W34708  11.675  28.237   4.899
66491W        W34709   4.419  35.529  13.335
66492W        W34710   5.353  27.065  10.529
66493W        W34711  10.894   7.673  12.936
66494W        W34712   8.948   7.180   3.763
66495W        W34713   7.319  40.630  11.877
66496W        W34714   4.323  36.920   0.186
66497W        W34715  42.360  29.632  13.508
66498W        W34716  30.147  22.548  14.514
66499W        W34717   1.099  30.716  12.612
66500W        W34718   5.647  25.955   0.875
66501W        W34719  39.550  29.489   4.845
66502W        W34720  10.283  12.842   4.917
66503W        W34721   6.775  23.271  11.266
66504W        W34722   9.905  23.708  13.152
66505W        W34723  16.840  39.500  13.953
66506W        W34724  11.866  40.309   2.105
66507W        W34725  28.143   1.412  10.681
66508W        W34726   4.419  30.937  12.184
66509W        W34727  30.161  29.404   0.414
66510W        W34728  20.391  43.961   2.726
66511W        W34729  10.107  43.315   2.917
66512W        W34730   0.615   5.491  10.758
66513W        W34731   5.698  44.240  14.667
66514W        W34732   8.137  10.593  11.985
66515W        W34733  34.447  25.913  14.908
66516W        W34734  29.598   7.830  14.880
66517W        W34735  27.143  19.969  11.027
66518W        W34736  14.197  31.378  11.994
66519W        W34737  23.404   6.341  13.308
66520W        W34738  35.020  40.993  12.787
66521W        W34739   2.012  24.219   0.902
66522W        W34740  10.654  20.270  11.164
66523W        W34741  28.176   8.773  11.482
66524W        W34742  23.057  40.309   1.840
66525W        W34743   6.951  17.603  11.582
66526W        W34744   1.658  30.129   2.832
66527W        W34745  38.567  29.559   4.621
66528W        W34746  17.898  44.317   4.541
66529W        W34747  29.519   8.234  10.704
66530W        W34748  39.758  34.459   3.631
66531W        W34749  36.150  14.474  11.936
66532W        W34750  16.226   4.945  14.462
66533W        W34751  15.445  15.119  13.623
66534W        W34752  31.566  19.972  10.382
66535W        W34753  40.474  20.472   3.747
66536W        W34754   8.516   4.130  12.062
66537W        W34755   9.752   3.739   3.350
66538W        W34756   6.014  24.174  11.835
66539W        W34757  10.575   2.443   1.896
66540W        W34758  44.672  31.361  13.888
66541W        W34759  16.017   3.689   3.187
66542W        W34760  11.648   0.063  13.517
66543W        W34761  32.088   0.923  12.301
66544W        W34762  23.885  38.811   5.246
66545W        W34763  42.284  29.517  13.018
66546W        W34764   9.616  44.426  10.695
66547W        W34765  13.681  22.117  13.629
66548W        W34766  24.729   6.084   3.007
66549W        W34767  27.930  25.546   1.881
66550W        W34768  35.798  17.329   2.834
66551W        W34769  30.574   8.671   1.275
66552W        W34770   9.877  22.260   3.129
66553W        W34771   6.480   6.700  12.339
66554W        W34772   1.366  42.414  10.994
66555W        W34773  29.680  13.343   0.918
66556W        W34774  19.467  42.659   0.274
66557W        W34775  16.823   8.875  12.523
66558W        W34776  42.363  37.935  12.174
66559W        W34777  28.203  13.116  14.149
66560W        W34778   3.438  22.295   0.218
66561W        W34779  44.793   6.715   1.489
66562W        W34780   3.765  44.022   0.838
66563W        W34781  33.574  10.546  13.869
66564W        W34782  39.281  18.182  11.756
66565W        W34783   6.989  14.399  14.759
66566W        W34784  35.502  38.759   2.494
66567W        W34785  30.104  38.068  14.297
66568W        W34786   9.654  40.365  12.324
66569W        W34787  34.636  19.273   3.189
66570W        W34788   7.791   6.159  11.914
66571W        W34789  34.390  32.151  11.448
66572W        W34790   8.662  15.253   3.697
66573W        W34791  32.558   9.931  12.880
66574W        W34792  29.485   8.732   4.795
66575W        W34793  15.400  26.506   0.314
66576W        W34794  17.905  16.587  12.144
66577W        W34795  30.389   7.671  11.467
66578W        W34796   5.419  18.065   4.063
66579W        W34797  18.603  13.064  11.328
66580W        W34798  25.926  39.492   3.879
66581W        W34799  10.735  19.852   2.277
66582W        W34800   7.312   2.010  12.090
66583W        W34801   5.385  16.532   0.766
66584W        W34802  32.018  25.984   3.645
66585W        W34803  26.946   9.207  12.438
66586W        W34804  29.932  11.727  12.868
66587W        W34805   1.535   9.795  11.674
66588W        W34806  34.983  32.015  12.498
66589W        W34807  19.266   3.771   1.871
66590W        W34808  20.266  34.987   2.897
66591W        W34809  15.046  10.751   0.183
66592W        W34810   2.996  17.772  13.744
66593W        W34811  25.062   2.960   4.561
66594W        W34812  19.225  12.066  14.067
66595W        W34813  11.771   2.407   4.651
66596W        W34814  40.130  25.686   4.491
66597W        W34815   0.853   6.244  14.025
66598W        W34816  41.502   1.535  10.716
66599W        W34817  39.815  15.279   0.899
66600W        W34818  13.250  21.631  14.272
66601W        W34819   3.811  18.020  14.301
66602W        W34820  24.795  22.242  10.813
66603W        W34821  20.013  11.293  13.128
66604W        W34822   5.457  21.711  14.719
66605W        W34823  16.304  27.194   1.399
66606W        W34824   0.895   5.711  13.995
66607W        W34825  32.923  32.483   2.726
66608W        W34826  27.466  42.409  10.676
66609W        W34827  42.385  27.168  11.698
66610W        W34828  22.680   7.352   2.021
66611W        W34829  34.421  26.431  14.839
66612W        W34830  39.760   6.289  10.684
66613W        W34831  19.167   2.679  14.903
66614W        W34832   7.611  38.843  14.765
66615W        W34833  34.249   8.410  13.031
66616W        W34834   5.501  10.248   3.272
66617W        W34835  36.057  30.503   4.862
66618W        W34836  40.896  22.784   1.384
66619W        W34837  23.166   7.854   3.743
66620W        W34838   8.736   0.876   0.923
66621W        W34839  32.459  22.130  14.477
66622W        W34840  33.562  36.675  11.092
66623W        W34841  34.371  23.776   0.773
66624W        W34842  18.382  39.384  12.816
66625W        W34843  38.601   0.850  10.746
66626W        W34844  11.797  23.137  12.597
66627W        W34845  31.641  24.491   4.693
66628W        W34846  23.286  10.213  10.713
66629W        W34847  28.438  23.532  12.915
66630W        W34848  39.497  43.916   2.805
66631W        W34849   5.812  34.424   4.049
66632W        W34850  27.502  12.371  12.259
66633W        W34851  25.641  23.465   3.279
66634W        W34852  28.872   5.566  11.686
66635W        W34853  12.312   0.972   4.457
66636W        W34854   4.362  28.204   1.400
66637W        W34855   3.417  17.211   0.782
66638W        W34856  28.771  18.166   3.148
66639W        W34857  21.567   5.757  10.687
66640W        W34858  11.358  22.966   4.598
66641W        W34859  37.990  10.633  14.222
66642W        W34860  34.987   3.669   2.748
66643W        W34861  30.912  33.308   3.321
66644W        W34862  27.185  41.573  14.310
66645W        W34863   9.918  34.023  12.410
66646W        W34864  21.259  17.461  11.067
66647W        W34865  18.656   8.082   0.447
66648W        W34866  23.255  34.437   5.496
66649W        W34867  16.139  23.042  13.503
66650W        W34868  41.913  10.162   1.791
66651W        W34869  17.759  27.202   4.545
66652W        W34870  39.263  41.791  10.231
66653W        W34871  25.671  39.292  14.491
66654W        W34872  36.146  38.343   5.053
66655W        W34873   9.645   8.921   3.205
66656W        W34874   0.077  43.457   3.817
66657W        W34875  30.012  15.913  12.534
66658W        W34876   8.833  11.549   3.789
66659W        W34877  44.498  13.124   3.768
66660W        W34878  40.500  27.253   3.872
66661W        W34879   1.571  16.203  11.576
66662W        W34880  31.657  35.063  12.667
66663W        W34881  42.917   5.469  13.433
66664W        W34882  15.529  34.802  14.393
66665W        W34883  28.613  10.667  12.198
66666W        W34884  34.988  22.704  13.083
66667W        W34885   9.308  19.109  11.429
66668W        W34886  30.617   2.400   0.925
66669W        W34887  35.109  31.027   0.933
66670W        W34888  30.222  43.030  11.972
66671W        W34889   5.725   5.944   3.259
66672W        W34890  27.627  19.872  14.394
66673W        W34891   0.300  21.570   4.146
66674W        W34892   3.008  32.004  12.102
66675W        W34893  21.641  17.574  14.387
66676W        W34894   7.125  12.203  12.052
66677W        W34895  22.534  31.338  12.168
66678W        W34896   0.499  33.100  11.501
66679W        W34897   9.285  26.411   2.240
66680W        W34898  17.509  18.725  12.462
66681W        W34899   5.175   7.242   4.520
66682W        W34900  36.860  20.715   2.916
66683W        W34901  22.616   9.633   3.690
66684W        W34902  25.656   1.402  12.313
66685W        W34903  35.261  27.009   5.072
66686W        W34904  17.393  17.380   2.726
66687W        W34905  31.526  37.473   1.915
66688W        W34906  31.695  20.452  10.497
66689W        W34907   7.686  38.793   2.834
66690W        W34908   9.091  24.159  11.986
66691W        W34909  42.558  41.705  11.941
66692W        W34910   9.171   1.468   4.067
66693W        W34911   9.644  16.684   2.141
66694W        W34912  33.057  12.286   3.714
66695W        W34913  15.867  42.930  14.278
66696W        W34914  42.047  38.259   1.249
66697W        W34915   0.437  14.983  12.239
66698W        W34916   5.627  35.357  12.099
66699W        W34917  20.797  30.638  11.594
66700W        W34918   4.909  17.875   0.766
66701W        W34919   1.959  31.620  11.551
66702W        W34920  25.959  43.834   4.570
66703W        W34921  37.069  25.341   4.570
66704W        W34922  24.867  37.042  14.777
66705W        W34923   1.070  20.523   4.109
66706W        W34924  37.451  29.663  11.317
66707W        W34925  30.503  27.748   1.748
66708W        W34926  21.086  33.342  12.081
66709W        W34927  22.256  28.052  14.874
66710W        W34928  42.992  28.815  11.042
66711W        W34929  21.582  21.699  12.342
66712W        W34930  35.132   5.738  12.661
66713W        W34931   6.935   4.864  13.051
66714W        W34932  12.596  13.087   4.298
66715W        W34933  36.131  34.873  13.094
66716W        W34934   5.648  32.556  12.785
66717W        W34935  14.361  33.810  12.005
66718W        W34936   8.807  14.270   0.660
66719W        W34937   6.965  28.230  14.058
66720W        W34938  25.256  23.777   0.926
66721W        W34939  12.130   0.508   2.739
66722W        W34940  26.432  23.629  11.128
66723W        W34941  29.891  17.662   1.110
66724W        W34942  25.069  28.973  13.890
66725W        W34943  44.814  33.386   3.772
66726W        W34944  28.591  14.105  12.220
66727W        W34945  13.702  40.420   2.456
66728W        W34946  19.532  36.628  12.509
66729W        W34947  39.268  36.412   1.883
66730W        W34948   6.378  15.988   4.932
66731W        W34949   9.439  43.378   2.199
66732W        W34950  26.586  16.277   4.660
66733W        W34951   8.888   5.761   0.462
66734W        W34952   3.334   7.717  14.515
66735W        W34953  30.938  25.971  11.762
66736W        W34954  15.038  33.142   0.451
66737W        W34955  12.343   0.472  14.459
66738W        W34956  21.593  31.023   0.845
66739W        W34957  43.928  16.351  11.552
66740W        W34958   2.386  26.264  15.000
66741W        W34959  31.134  29.827   1.701
66742W        W34960   8.963  13.824   1.770
66743W        W34961  13.025   7.936  11.154
66744W        W34962  22.016  18.225  14.937
66745W        W34963   6.246  17.819  13.353
66746W        W34964  24.803  24.069   4.061
66747W        W34965  26.613   8.194  12.573
66748W        W34966  37.587  15.154  12.860
66749W        W34967   1.015  24.264  12.168
66750W        W34968  20.672   6.311   0.374
66751W        W34969  31.671  37.273  14.324
66752W        W34970  13.809  27.155  14.425
66753W        W34971  40.802  15.414   3.728
66754W        W34972  13.905  22.973  11.510
66755W        W34973  22.499   6.358   2.260
66756W        W34974  25.603   8.960  14.851
66757W        W34975  27.432  18.127   2.421
66758W        W34976  37.692   2.517   1.245
66759W        W34977   6.730   5.814   3.259
66760W        W34978  41.573  41.475  11.882
66761W        W34979  40.418  17.502   2.249
66762W        W34980  14.212  11.614  14.340
66763W        W34981  21.859  35.175  13.002
66764W        W34982   9.849   6.480   4.368
66765W        W34983  22.498  26.424   2.890
66766W        W34984  20.223  29.250  12.004
66767W        W34985  23.934  15.865  12.021
66768W        W34986  42.014  38.952  14.857
66769W        W34987  42.868  25.396  11.540
66770W        W34988  16.793  38.054  14.324
66771W        W34989  32.725   1.229   1.302
66772W        W34990  35.376  19.723  14.339
66773W        W34991  41.831  29.768  12.907
66774W        W34992   2.831   3.161  11.580
66775W        W34993  22.715   5.963  12.075
66776W        W34994   9.221  21.614   4.240
66777W        W34995  18.802  31.786  14.879
66778W        W34996  39.992  37.402   2.717
66779W        W34997  18.644  41.054  11.148
66780W        W34998   1.135  27.186  12.502
66781W        W34999  13.335   0.677   9.766
66782W        W35000   8.391  19.928   1.626
66783W        W35001   0.697  27.543   3.329
66784W        W35002   1.757   6.715  14.722
66785W        W35003  37.590  10.325   3.816
66786W        W35004   8.955  20.140   1.128
66787W        W35005  30.021  19.555  14.489
66788W        W35006  36.835  10.622  14.809
66789W        W35007   5.295  39.999  11.062
66790W        W35008  23.952   1.332  14.402
66791W        W35009  20.357  33.978   2.297
66792W        W35010   9.673   8.363  11.960
66793W        W35011  44.260  24.767   2.298
66794W        W35012  19.873  12.577   4.628
66795W        W35013  28.024   7.439   2.928
66796W        W35014  34.442  24.335  12.528
66797W        W35015  10.902   4.860   1.754
66798W        W35016  32.440  22.177  10.700
66799W        W35017  13.136  17.247   0.234
66800W        W35018  10.838  23.776   3.614
66801W        W35019  23.409   1.854  12.885
66802W        W35020  13.589  32.644   2.693
66803W        W35021  40.030   7.692  14.346
66804W        W35022  37.921  34.577   3.323
66805W        W35023   2.368  10.329  13.077
66806W        W35024  43.002  39.631   3.687
66807W        W35025  29.635  11.348  13.690
66808W        W35026   3.988  15.347  11.118
66809W        W35027  12.584  40.233   0.881
66810W        W35028  42.305  11.645  12.285
66811W        W35029   6.685  42.769  13.917
66812W        W35030  42.468   1.027   4.413
66813W        W35031  35.333  28.514   2.733
66814W        W35032   4.372  41.273  12.374
66815W        W35033  44.397   9.141   3.744
66816W        W35034  42.020  32.416   1.848
66817W        W35035  20.165   2.393  11.559
66818W        W35036  26.798  11.326  14.835
66819W        W35037  15.381  42.613  11.947
66820W        W35038   7.881   9.727  13.593
66821W        W35039  11.772  13.297   4.079
66822W        W35040  24.249  44.354   4.247
66823W        W35041  16.130  13.493  13.893
66824W        W35042   2.561   3.290  12.045
66825W        W35043  40.485  12.168   1.226
66826W        W35044  15.056  28.519  11.166
66827W        W35045  26.264  30.205  11.835
66828W        W35046  36.413   9.190  12.090
66829W        W35047  14.055  39.456   4.144
66830W        W35048  16.356  25.591  13.402
66831W        W35049  36.586   3.636  14.351
66832W        W35050  32.975  18.692  12.237
66833W        W35051  10.667  38.797   2.260
66834W        W35052  35.582  21.562   3.308
66835W        W35053  30.064  10.294   4.104
66836W        W35054  31.417  36.277   4.105
66837W        W35055   5.393   6.961  14.566
66838W        W35056  12.735  19.504  10.695
66839W        W35057  18.423  15.655   4.567
66840W        W35058  36.906  42.749  11.147
66841W        W35059  23.953   9.823   1.840
66842W        W35060  17.133   9.874  12.982
66843W        W35061   3.455  43.504  13.975
66844W        W35062   6.405  21.821   0.958
66845W        W35063  30.639   1.403  14.437
66846W        W35064  13.913  33.129  10.574
66847W        W35065  14.071  14.235   0.398
66848W        W35066  24.111  34.611  14.436
66849W        W35067   4.753  39.462   4.126
66850W        W35068   5.082   8.853  11.964
66851W        W35069  26.272  44.858   4.103
66852W        W35070  23.894  14.813   0.729
66853W        W35071  16.713  25.928  11.266
66854W        W35072  31.014  31.193   2.740
66855W        W35073  43.894  10.670  12.990
66856W        W35074  30.546  12.499  11.305
66857W        W35075  43.280  21.838  10.151
66858W        W35076  11.315  39.016  13.108
66859W        W35077   6.854  27.687  11.134
66860W        W35078  31.339  29.520  14.961
66861W        W35079  12.891  43.843  12.116
66862W        W35080  26.082  36.065  14.792
66863W        W35081  36.352  17.890   0.911
66864W        W35082   9.821  31.010  13.995
66865W        W35083  35.729   5.443   0.998
66866W        W35084  21.193  18.622   4.290
66867W        W35085   5.095  24.152   2.713
66868W        W35086  44.861  39.047  14.886
66869W        W35087  20.814  43.170  14.036
66870W        W35088   5.451  39.082  13.489
66871W        W35089   4.834  34.940  11.328
66872W        W35090  31.192  23.244   3.062
66873W        W35091   6.970   3.718  11.294
66874W        W35092  10.364  39.549   4.017
66875W        W35093  25.767   4.968  12.971
66876W        W35094   1.419   7.655   1.043
66877W        W35095  26.388  14.483  11.515
66878W        W35096  28.017  28.113   0.868
66879W        W35097  12.544   0.916  11.712
66880W        W35098  25.061  37.465   0.963
66881W        W35099  15.235   9.344   2.908
66882W        W35100  30.677   8.308   0.326
66883W        W35101  14.095  25.613  13.789
66884W        W35102  34.053  32.041  12.426
66885W        W35103  21.555  10.755  10.731
66886W        W35104  37.971  32.760  13.912
66887W        W35105  17.062  33.530  11.610
66888W        W35106  10.351   4.303  14.091
66889W        W35107  21.818  32.342   2.701
66890W        W35108  29.220  40.478   3.164
66891W        W35109  27.629  20.382   1.470
66892W        W35110  12.912  19.472   2.482
66893W        W35111  25.095  25.643   1.338
66894W        W35112  18.724   8.241   3.880
66895W        W35113  38.541  10.291  14.749
66896W        W35114  17.077  34.725   2.825
66897W        W35115  25.944  30.665   3.234
66898W        W35116  31.034  19.700  11.991
66899W        W35117   7.268  39.537   1.283
66900W        W35118  25.821  33.682  14.337
66901W        W35119  18.211  23.742  10.649
66902W        W35120  33.097  11.861  11.316
66903W        W35121  24.270   7.748  13.357
66904W        W35122  29.161  35.763   1.153
66905W        W35123  31.549  18.463   1.340
66906W        W35124   3.951  31.161   1.347
66907W        W35125  36.909  10.000   2.693
66908W        W35126  14.630  19.056   4.192
66909W        W35127   4.514  43.427   4.232
66910W        W35128  44.789  42.957   0.836
66911W        W35129  35.033  27.868  15.000
66912W        W35130  42.773  38.549  11.600
66913W        W35131   8.941  43.441  10.211
66914W        W35132  24.237  41.363   2.519
66915W        W35133  22.622  27.414  11.611
66916W        W35134  38.031  41.903   2.457
66917W        W35135  14.040  14.153   2.239
66918W        W35136  20.489  42.817  14.306
66919W        W35137  12.785  16.728  12.833
66920W        W35138  12.059  30.966   2.750
66921W        W35139   2.224  14.289   1.389
66922W        W35140  35.426   5.942   3.589
66923W        W35141  17.026  14.889  13.831
66924W        W35142  44.058   5.340  10.475
66925W        W35143  23.671  40.141   0.579
66926W        W35144  42.233   7.847   2.372
66927W        W35145  44.370  14.736   4.689
66928W        W35146   3.275  43.218  13.576
66929W        W35147  37.586  14.733  11.906
66930W        W35148  10.883  26.259   1.363
66931W        W35149  33.745  13.528  11.063
66932W        W35150  43.145  11.350   2.877
66933W        W35151  36.925   8.106  13.965
66934W        W35152  19.704  31.543   0.877
66935W        W35153  33.927  28.601   0.293
66936W        W35154  41.642  35.743  12.920
66937W        W35155  42.542  38.935   0.715
66938W        W35156  21.492  30.376   4.256
66939W        W35157  40.965  16.124  11.107
66940W        W35158  22.937  35.574   4.597
66941W        W35159  41.142  32.256   3.805
66942W        W35160  44.549  43.659   2.805
66943W        W35161  34.300  13.214   1.788
66944W        W35162   7.708  26.584  13.327
66945W        W35163  19.420  42.687  14.407
66946W        W35164  28.454   7.437  11.101
66947W        W35165  33.005  27.621   2.267
66948W        W35166   7.831  28.981  10.692
66949W        W35167   7.237  12.734  13.483
66950W        W35168  43.724  39.984  10.961
66951W        W35169  14.727  20.449   2.183
66952W        W35170  22.681  37.935   0.585
66953W        W35171  11.365   1.970  12.850
66954W        W35172  40.800  28.270   0.339
66955W        W35173  30.258  14.787  13.883
66956W        W35174   0.902   8.279  12.932
66957W        W35175  11.612  39.016  12.164
66958W        W35176   9.354  31.920   3.750
66959W        W35177  35.511  22.353   3.715
66960W        W35178  15.792   4.653  13.923
66961W        W35179   7.738  17.982   2.384
66962W        W35180  41.553   4.418   3.208
66963W        W35181  12.654  36.539   0.959
66964W        W35182   4.743  43.275  13.785
66965W        W35183  15.034  32.025  12.174
66966W        W35184   0.596  23.779   0.846
66967W        W35185  40.731  35.479  13.188
66968W        W35186  15.578  30.351  10.431
66969W        W35187   8.143   6.879  11.611
66970W        W35188  41.917  43.293  11.944
66971W        W35189  19.529  17.309  12.561
66972W        W35190  31.453  32.345  10.435
66973W        W35191  19.675   7.770   3.796
66974W        W35192  18.002  13.372  13.843
66975W        W35193   5.877   8.433  12.108
66976W        W35194  36.812  25.177   1.178
66977W        W35195  32.428  39.964   0.501
66978W        W35196  29.898  13.937   1.325
66979W        W35197   1.061  15.822   0.413
66980W        W35198  30.009  44.374   2.627
66981W        W35199  36.955   1.887   3.659
66982W        W35200  36.096   7.204  14.014
66983W        W35201  31.149  14.149   0.435
66984W        W35202   9.145  43.380   4.322
66985W        W35203  34.880  35.282   1.325
66986W        W35204   6.418  21.611   3.722
66987W        W35205  26.228  32.094   1.201
66988W        W35206  36.034   1.779   5.034
66989W        W35207   4.144   4.751  13.631
66990W        W35208  12.097  14.366   0.245
66991W        W35209  38.928  14.079  14.567
66992W        W35210   9.684  38.820  10.195
66993W        W35211  23.050  33.649  11.047
66994W        W35212  37.441   1.455  12.404
66995W        W35213  26.423  36.081   3.753
66996W        W35214  38.008  32.228  10.692
66997W        W35215  23.583   3.156   4.400
66998W        W35216  28.579  10.961   0.053
66999W        W35217  37.082  44.012   0.504
67000W        W35218  21.628  23.822  12.569
67001W        W35219  28.688  30.970   0.781
67002W        W35220   5.957  18.683  12.503
67003W        W35221   3.835  17.723  13.468
67004W        W35222  43.409  10.305   3.593
67005W        W35223  20.260  28.567   1.346
67006W        W35224   0.800  15.938  14.944
67007W        W35225  16.395  20.216  11.728
67008W        W35226  19.512  34.190   1.766
67009W        W35227  29.014   0.828   4.790
67010W        W35228  21.500  35.158  11.238
67011W        W35229  16.511  40.767   4.109
67012W        W35230  26.345  15.172   3.686
67013W        W35231  36.002  37.102  11.632
67014W        W35232   6.432  29.149   2.373
67015W        W35233  41.925  10.038   4.515
67016W        W35234  22.553   9.197  12.997
67017W        W35235  39.465  11.353  14.292
67018W        W35236  12.344  30.021  11.107
67019W        W35237  28.764  35.369   2.117
67020W        W35238  42.090  24.935  11.815
67021W        W35239  10.839   7.768   3.318
67022W        W35240  13.417  15.065  12.626
67023W        W35241   3.206  20.104  11.643
67024W        W35242  24.776  37.157  12.471
67025W        W35243  24.932  40.955  11.716
67026W        W35244  42.386   5.423   4.306
67027W        W35245  41.035  24.759  14.055
67028W        W35246   2.865  30.136   3.926
67029W        W35247  19.678  12.425  12.457
67030W        W35248  25.609  14.777   5.433
67031W        W35249  33.455   7.884   2.758
67032W        W35250   5.716  24.410   0.429
67033W        W35251  19.008  12.549  12.093
67034W        W35252  14.842  24.147   4.137
67035W        W35253  20.734  44.534   3.205
67036W        W35254  13.758  10.343  11.495
67037W        W35255   5.909  20.153  13.441
67038W        W35256  44.759  12.960   4.647
67039W        W35257  42.684  22.199  14.856
67040W        W35258  12.829  33.335  11.105
67041W        W35259  41.534   1.996   0.434
67042W        W35260  34.389  17.351   4.499
67043W        W35261  12.903  43.156  14.812
67044W        W35262  24.780   1.444   3.562
67045W        W35263  31.454   6.291  13.245
67046W        W35264  28.954  14.901  12.177
67047W        W35265   4.775  20.990  14.110
67048W        W35266  34.363  33.649   3.714
67049W        W35267   1.260  42.476   0.373
67050W        W35268  14.782  36.042   5.156
67051W        W35269  40.096  42.976  14.547
67052W        W35270  33.679  16.309  14.502
67053W        W35271  39.009  10.971  12.362
67054W        W35272  28.562  22.421  10.121
67055W        W35273  42.348  24.704  13.417
67056W        W35274  16.669  34.820   3.121
67057W        W35275   5.350  13.814  10.947
67058W        W35276  19.372  14.302  13.307
67059W        W35277   8.599  18.040   2.244
67060W        W35278  22.943   6.044  14.305
67061W        W35279   1.986   9.664   3.700
67062W        W35280  36.001  19.730   4.136
67063W        W35281   7.468  25.991   2.864
67064W        W35282  18.348   2.829  11.594
67065W        W35283  32.650  11.785  10.663
67066W        W35284  39.511   7.184   4.181
67067W        W35285  25.487   7.677   3.941
67068W        W35286  38.492  19.014   3.614
67069W        W35287  19.753   2.630   0.448
67070W        W35288  10.810   8.345   0.094
67071W        W35289  16.975  11.362  11.532
67072W        W35290  28.566   0.149  13.791
67073W        W35291  27.009   1.922   1.896
67074W        W35292  30.158  30.080  10.683
67075W        W35293   0.017   3.517  12.891
67076W        W35294  37.478  40.144  13.123
67077W        W35295  23.122   0.505   1.242
67078W        W35296  21.637  30.534   3.367
67079W        W35297  35.599  15.930  14.546
67080W        W35298  10.332  34.007   4.504
67081W        W35299  19.492  32.418  11.964
67082W        W35300   2.337  16.827   2.463
67083W        W35301  30.179  24.094   0.368
67084W        W35302  18.828  20.572   2.716
67085W        W35303   1.133  20.054  13.371
67086W        W35304   4.379  28.543  10.731
67087W        W35305   8.678  21.234   4.576
67088W        W35306  38.232   0.793   5.162
67089W        W35307  41.456  17.346   4.611
67090W        W35308  14.339  23.901  11.220
67091W        W35309  43.958   4.022   4.009
67092W        W35310   1.960  44.085   2.842
67093W        W35311  38.411   2.322   1.902
67094W        W35312  21.996   6.493  12.473
67095W        W35313  19.225  33.573   5.039
67096W        W35314   8.366  39.603   3.178
67097W        W35315  11.105  43.765   1.380
67098W        W35316  15.277  32.861  13.440
67099W        W35317  19.676  19.911   4.135
67100W        W35318  15.516  39.297   2.892
67101W        W35319  17.860  10.376  12.917
67102W        W35320   0.296  23.535  11.911
67103W        W35321  13.660  26.779  11.259
67104W        W35322  31.659  17.437  11.485
67105W        W35323  38.981  21.491  11.107
67106W        W35324   8.176  12.766   4.088
67107W        W35325  18.887  24.948  12.871
67108W        W35326  14.756  30.008  11.725
67109W        W35327  28.991  22.529  10.692
67110W        W35328  11.467   5.730  13.369
67111W        W35329  25.333  43.945   2.557
67112W        W35330  18.651  29.390  10.416
67113W        W35331  32.135  19.563   3.267
67114W        W35332  32.930  11.506   3.144
67115W        W35333  43.303  26.201   0.927
67116W        W35334   8.505  12.365   3.971
67117W        W35335  42.454   7.445  11.172
67118W        W35336  32.027  44.950   1.760
67119W        W35337  16.659  23.129   2.717
67120W        W35338  17.098  30.167   0.480
67121W        W35339   2.005  35.878  10.769
67122W        W35340  27.568   3.276   1.844
67123W        W35341  27.490  23.759  12.181
67124W        W35342  28.685  34.043   4.481
67125W        W35343  44.974  33.115   2.905
67126W        W35344  33.219  44.930  12.719
67127W        W35345  37.850   7.816   1.283
67128W        W35346  22.274  22.874   4.083
67129W        W35347  43.468  40.523   2.221
67130W        W35348  27.016  25.615   3.645
67131W        W35349  42.955  33.080   0.228
67132W        W35350  29.089  11.397   4.572
67133W        W35351   6.781  16.278   9.951
67134W        W35352  24.172  16.083   3.835
67135W        W35353  23.784  31.538  13.955
67136W        W35354  28.692  34.884  11.646
67137W        W35355  33.519  34.709   3.615
67138W        W35356  40.082   3.414   3.176
67139W        W35357  21.518  32.345  13.069
67140W        W35358  14.219  38.819   2.205
67141W        W35359  36.912  27.982   2.074
67142W        W35360  20.988  18.151  14.933
67143W        W35361  44.506  19.870   2.352
67144W        W35362   8.739  33.761   3.736
67145W        W35363   5.164  35.461  10.678
67146W        W35364  21.210   4.570  13.727
67147W        W35365  11.199  14.558  14.253
67148W        W35366  43.618  30.394   1.112
67149W        W35367  40.461   3.663  10.761
67150W        W35368  42.977  34.993  14.857
67151W        W35369  33.844  36.579   0.344
67152W        W35370  44.415  25.151  11.038
67153W        W35371  15.190  13.373   3.232
67154W        W35372  44.256   3.365   4.581
67155W        W35373  36.124   7.354   2.843
67156W        W35374   5.986  17.450   4.628
67157W        W35375  11.392  23.096  11.151
67158W        W35376  16.590   3.459   2.296
67159W        W35377   4.325  42.608  13.995
67160W        W35378  22.622  14.279  11.091
67161W        W35379  13.878  14.205  14.489
67162W        W35380  23.706  40.872   4.174
67163W        W35381  11.336  12.212   2.766
67164W        W35382  37.451  11.436  13.543
67165W        W35383  28.327   0.831   3.275
67166W        W35384  27.089   8.440   1.284
67167W        W35385  16.924  44.418   3.708
67168W        W35386   0.902  31.500   3.311
67169W        W35387   1.429  40.766   3.118
67170W        W35388  38.991  27.920   1.941
67171W        W35389  21.778  42.071   2.415
67172W        W35390  32.124  24.383  11.959
67173W        W35391  14.105  44.326  14.779
67174W        W35392  35.808   7.364   0.484
67175W        W35393   8.178  39.329  11.735
67176W        W35394  22.785  23.169  12.133
67177W        W35395   9.386  27.680  13.301
67178W        W35396  31.919  31.560  12.826
67179W        W35397  26.594  11.416   4.215
67180W        W35398   1.429  36.628  11.531
67181W        W35399  24.272   9.697  14.182
67182W        W35400  39.578  11.446   1.724
67183W        W35401  10.369  23.205  12.418
67184W        W35402  18.740  18.261  13.967
67185W        W35403  18.456  30.510  14.913
67186W        W35404  37.910  20.808  14.349
67187W        W35405  14.281  30.011  13.298
67188W        W35406  20.507  19.217  11.188
67189W        W35407  18.638  15.326   3.270
67190W        W35408   8.623  30.499   0.341
67191W        W35409  34.833  32.198  11.149
67192W        W35410  12.125  16.083   3.146
67193W        W35411  26.851  25.674   5.510
67194W        W35412  18.491  12.655   0.743
67195W        W35413  15.662  29.994   0.844
67196W        W35414  30.495  10.286  13.923
67197W        W35415  27.989   4.870  12.917
67198W        W35416  30.071  33.462  11.900
67199W        W35417  33.617   4.921   5.124
67200W        W35418  29.405  30.908   4.690
67201W        W35419   1.202  37.775  12.151
67202W        W35420  14.193  35.974  14.913
67203W        W35421  40.443  27.549  14.497
67204W        W35422  39.805  23.270   0.483
67205W        W35423  10.214   6.695   4.022
67206W        W35424  36.976   2.343   0.792
67207W        W35425  23.978   7.905   3.059
67208W        W35426  35.968  28.334   4.109
67209W        W35427  12.895   3.783   0.977
67210W        W35428  25.631  21.313  10.531
67211W        W35429  33.052   6.673   2.878
67212W        W35430  13.185  44.438  11.946
67213W        W35431  13.104   5.411   4.090
67214W        W35432  26.061  37.163  13.844
67215W        W35433   3.725  30.834  12.408
67216W        W35434  44.033  42.924  13.891
67217W        W35435  19.431  28.171   1.364
67218W        W35436  38.109  15.147  12.938
67219W        W35437  31.873  39.406  15.000
67220W        W35438  12.308  28.991  13.885
67221W        W35439  37.297   5.460  12.885
67222W        W35440  22.974  19.018  14.292
67223W        W35441  18.177  27.830   0.088
67224W        W35442  19.497  22.218  11.975
67225W        W35443  44.322  41.281  14.297
67226W        W35444  42.330  41.571  12.464
67227W        W35445  28.333  29.625   0.958
67228W        W35446  20.584   2.926   1.055
67229W        W35447  32.655  27.262   3.986
67230W        W35448  31.553  42.312   4.647
67231W        W35449  15.180   9.148   0.748
67232W        W35450  44.475  34.577  12.014
67233W        W35451   9.383  24.452   4.114
67234W        W35452  39.190  15.062   2.272
67235W        W35453  10.831  23.720   1.774
67236W        W35454  27.744  40.304   1.309
67237W        W35455  23.763  23.071  13.717
67238W        W35456  29.822  31.475  13.237
67239W        W35457   9.227  35.989  10.700
67240W        W35458  23.025   5.003   0.261
67241W        W35459  27.182  37.472  10.973
67242W        W35460  26.254  38.839  11.745
67243W        W35461   0.280   4.258  13.029
67244W        W35462  16.190  26.457   3.670
67245W        W35463   3.883  21.593  11.621
67246W        W35464   8.908  17.307   2.355
67247W        W35465  38.657  43.643  10.193
67248W        W35466  16.847  14.624   1.345
67249W        W35467  13.287  13.233   0.831
67250W        W35468  18.313  13.452   4.522
67251W        W35469  13.251   3.510   4.182
67252W        W35470   2.461  37.222   4.903
67253W        W35471   2.918   6.391   2.452
67254W        W35472  40.496  28.043   0.775
67255W        W35473  43.673  39.232   2.461
67256W        W35474   7.919  23.217   2.148
67257W        W35475  12.345  27.929  12.864
67258W        W35476   3.072  17.737  13.110
67259W        W35477  38.493  40.805  11.976
67260W        W35478  26.493  32.635   4.761
67261W        W35479   3.840  16.590  12.640
67262W        W35480   4.841  18.958  13.884
67263W        W35481   1.818   2.123   2.743
67264W        W35482   5.978   0.053  13.993
67265W        W35483   2.106  17.239  14.784
67266W        W35484  32.683  10.879  11.178
67267W        W35485  34.218  20.159   4.832
67268W        W35486   8.808  42.648  10.194
67269W        W35487  28.541  42.576   4.892
67270W        W35488  20.045  22.051   3.158
67271W        W35489  19.930   4.025   0.362
67272W        W35490  18.246  15.098  14.953
67273W        W35491  10.837   5.127  12.924
67274W        W35492  39.863  30.132   1.941
67275W        W35493   4.292  44.939  12.532
67276W        W35494  20.448  30.914   4.869
67277W        W35495   5.275  38.864   3.138
67278W        W35496   7.758  24.133   4.675
67279W        W35497  38.506  33.097  12.842
67280W        W35498   0.870  14.260   1.302
67281W        W35499  41.009  22.515  13.106
67282W        W35500  41.762  15.617  13.912
67283W        W35501   7.714  33.557  14.086
67284W        W35502  42.093  32.197   3.047
67285W        W35503  38.316  12.623  11.485
67286W        W35504  10.808  16.667   1.093
67287W        W35505   4.280  33.867   1.450
67288W        W35506  11.016   5.372  12.496
67289W        W35507  27.409  33.510   0.310
67290W        W35508  17.088  42.085  14.239
67291W        W35509  14.310  31.588   2.150
67292W        W35510  41.648  18.327   4.975
67293W        W35511  41.942  18.743   1.437
67294W        W35512  18.321  33.406  12.063
67295W        W35513  20.571  17.669  13.728
67296W        W35514  31.845  10.176   0.779
67297W        W35515  39.007  11.173  13.310
67298W        W35516  18.738  41.995   1.997
67299W        W35517  44.832  20.111  13.410
67300W        W35518   5.023  26.542   1.942
67301W        W35519  41.047  37.239   3.801
67302W        W35520  21.472  11.793   2.113
67303W        W35521  38.589  21.728   3.221
67304W        W35522  15.931  17.677   2.836
67305W        W35523  31.936  37.085   0.209
67306W        W35524   0.209   1.731  14.987
67307W        W35525  29.255  23.531   9.822
67308W        W35526   0.904  44.092  14.867
67309W        W35527  42.468  16.632  14.543
67310W        W35528  17.133  43.287  11.000
67311W        W35529  25.172  34.813   1.466
67312W        W35530  32.196  14.125   4.073
67313W        W35531   3.017  21.653  13.513
67314W        W35532  12.123  44.976   3.710
67315W        W35533  15.410  21.665  11.449
67316W        W35534  40.826   1.394  13.375
67317W        W35535  26.996  42.945  13.973
67318W        W35536  44.216   8.917   0.181
67319W        W35537  40.302  23.500   4.092
67320W        W35538  44.239  19.693  11.781
67321W        W35539   5.827  32.487  12.065
67322W        W35540  37.959  29.581  10.944
67323W        W35541  32.972  25.761   3.998
67324W        W35542  14.609  17.220  13.496
67325W        W35543  34.946  25.253  11.622
67326W        W35544  15.024  14.769  11.586
67327W        W35545   7.668  37.729  10.272
67328W        W35546  11.707  30.588   2.609
67329W        W35547  30.636   2.181  13.804
67330W        W35548  37.450  40.478  11.238
67331W        W35549  11.280  30.376  13.869
67332W        W35550  23.590  27.460   3.204
67333W        W35551  38.510  33.997   0.158
67334W        W35552  27.765   1.770   3.943
67335W        W35553  19.975  42.002   1.868
67336W        W35554  10.715  23.396  13.792
67337W        W35555   6.408  43.291  14.984
67338W        W35556  21.076  20.334   0.416
67339W        W35557  41.972  23.664  11.573
67340W        W35558  12.865  21.195   2.768
67341W        W35559  29.902  23.729  14.479
67342W        W35560  24.024  35.964   1.855
67343W        W35561  36.256  42.276  14.520
67344W        W35562  41.315  17.526   3.342
67345W        W35563  25.183  12.252  14.494
67346W        W35564  30.209  21.768  13.740
67347W        W35565  24.810  38.520  12.548
67348W        W35566  17.862  44.775  12.448
67349W        W35567  10.035  27.006   0.714
67350W        W35568   9.596  14.124   0.304
67351W        W35569  44.762  36.499   0.302
67352W        W35570  10.666  32.007   1.856
67353W        W35571  33.039  34.124  10.798
67354W        W35572  40.990  37.411   1.746
67355W        W35573  14.056  20.619  12.855
67356W        W35574   0.459  31.368   2.876
67357W        W35575  35.390   1.766   1.936
67358W        W35576  32.603  18.782  11.216
67359W        W35577  39.328  15.582  13.960
67360W        W35578  21.442  33.431  14.751
67361W        W35579  30.139  38.533  13.504
67362W        W35580  31.772   1.329  14.022
67363W        W35581  20.747  35.098  11.624
67364W        W35582  44.805  43.631  12.585
67365W        W35583  34.011   9.716   1.841
67366W        W35584  31.622   0.387  10.589
67367W        W35585  38.641  31.400   4.710
67368W        W35586  19.983  21.189  13.404
67369W        W35587   6.168   7.852   4.532
67370W        W35588  20.229  21.006   0.706
67371W        W35589  18.184  41.461  12.017
67372W        W35590  30.971  19.222   4.622
67373W        W35591   1.443  36.663  14.012
67374W        W35592  32.447   2.297   4.141
67375W        W35593  32.020  32.331   4.159
67376W        W35594  19.658  29.563  14.486
67377W        W35595  21.019  33.925   2.110
67378W        W35596   5.704  28.464  13.488
67379W        W35597   0.391  42.818   1.423
67380W        W35598  12.589   3.752   2.307
67381W        W35599  30.958  33.439  14.309
67382W        W35600  22.499  17.991  14.816
67383W        W35601  43.467  25.054   3.660
67384W        W35602  16.109  37.868  14.488
67385W        W35603  17.177  11.232  13.877
67386W        W35604  44.877  14.613  11.994
67387W        W35605  14.186  35.457   0.541
67388W        W35606  33.584  25.444   1.234
67389W        W35607  35.464  19.355   0.910
67390W        W35608  18.207  23.148   4.261
67391W        W35609  17.248  22.804  14.339
67392W        W35610  30.942  44.682   4.035
67393W        W35611  39.330   7.256  13.167
67394W        W35612  32.175  26.509   0.407
67395W        W35613   4.840   7.885  11.094
67396W        W35614  37.997  32.427  14.911
67397W        W35615  10.306  16.504   3.173
67398W        W35616  40.482   2.017   3.660
67399W        W35617   7.146  18.311  12.032
67400W        W35618  27.478  13.863  11.532
67401W        W35619  32.520  42.793  10.588
67402W        W35620  12.231  16.764   0.484
67403W        W35621   5.411  11.521  10.047
67404W        W35622  39.297  31.572   3.191
67405W        W35623  14.920  31.138   1.760
67406W        W35624  10.210  11.823  11.120
67407W        W35625   1.654  41.083  13.821
67408W        W35626  27.784  17.234  13.853
67409W        W35627  37.922  35.256   0.843
67410W        W35628   3.134  12.580  12.787
67411W        W35629  29.490   8.366  14.955
67412W        W35630  38.420  10.311  12.155
67413W        W35631  25.017  28.220   3.137
67414W        W35632  40.403  11.866  10.160
67415W        W35633  26.671  10.082  12.876
67416W        W35634  13.162  43.560  13.305
67417W        W35635   2.230  19.074   1.726
67418W        W35636  34.969  27.440   0.961
67419W        W35637  32.056  31.509  14.220
67420W        W35638  41.942   8.034  10.707
67421W        W35639  44.496  43.002  12.156
67422W        W35640  27.680  40.613  13.893
67423W        W35641  28.238  40.857   4.577
67424W        W35642  32.150  28.618  13.087
67425W        W35643  30.346  12.903  13.325
67426W        W35644  11.288  25.744  10.678
67427W        W35645  33.406  28.449  14.400
67428W        W35646  10.444  42.095   1.767
67429W        W35647  41.884   4.835  12.065
67430W        W35648  17.735  27.428   1.890
67431W        W35649   3.040  42.209  12.487
67432W        W35650   4.655  12.674  14.520
67433W        W35651  28.982   5.740   1.176
67434W        W35652  26.867  12.839   4.273
67435W        W35653  11.626   8.833  10.130
67436W        W35654  18.593  31.390  14.361
67437W        W35655  13.305   1.865  13.992
67438W        W35656  31.150  33.960  11.185
67439W        W35657  29.416  11.673  13.103
67440W        W35658  14.716  35.997   0.792
67441W        W35659  26.433  23.669  13.725
67442W        W35660  43.462  30.889  10.806
67443W        W35661   7.323  40.966   3.388
67444W        W35662  39.954  24.287   1.402
67445W        W35663  41.403  33.924   0.854
67446W        W35664  41.282   2.295  13.285
67447W        W35665  17.818  16.059  12.004
67448W        W35666  19.525  18.113   2.778
67449W        W35667  23.156  14.137  14.843
67450W        W35668  17.090   6.402  11.126
67451W        W35669  23.275  18.042   1.543
67452W        W35670  26.075   7.825   3.389
67453W        W35671   2.903   1.278  13.095
67454W        W35672   1.491  17.671  14.326
67455W        W35673  37.325  19.456   4.586
67456W        W35674  37.151  24.679  13.434
67457W        W35675  15.848   1.319   0.350
67458W        W35676  26.276  17.113  14.010
67459W        W35677  44.206  20.279   1.089
67460W        W35678  34.189  20.568   3.758
67461W        W35679  22.084  14.200  11.946
67462W        W35680  25.789  40.321  14.017
67463W        W35681  37.578  29.083   1.374
67464W        W35682  27.666  41.420  12.050
67465W        W35683  38.046  20.307  14.465
67466W        W35684  38.178   2.785   1.829
67467W        W35685   2.213  28.516   1.805
67468W        W35686  12.291  38.567   2.896
67469W        W35687  35.832  42.995  12.592
67470W        W35688  31.026  17.032   0.398
67471W        W35689  25.075   3.417   2.798
67472W        W35690   1.383  20.694   3.714
67473W        W35691   6.713   9.191   4.249
67474W        W35692  41.659  26.672   4.174
67475W        W35693   3.032  39.023   1.431
67476W        W35694  16.347  25.184  12.035
67477W        W35695   7.304  16.655  12.934
67478W        W35696  27.438  12.564   5.019
67479W        W35697  39.271  10.331   5.298
67480W        W35698  35.340  17.815   3.596
67481W        W35699  25.478  39.274   3.752
67482W        W35700  41.032   1.731  13.736
67483W        W35701  43.785  29.470   3.190
67484W        W35702  12.102   1.097  13.061
67485W        W35703  22.606  17.095  14.267
67486W        W35704   9.200  24.720   4.535
67487W        W35705  32.807  28.488   2.749
67488W        W35706   5.287   8.838  10.652
67489W        W35707  38.335   0.183   3.058
67490W        W35708  22.539  37.916  10.436
67491W        W35709  35.729  33.771   2.380
67492W        W35710  29.449  23.750  10.635
67493W        W35711  21.077  29.419  10.663
67494W        W35712  34.017   9.174  11.403
67495W        W35713  14.695   6.821  12.034
67496W        W35714  20.320  18.655  12.448
67497W        W35715  14.821  21.737   4.395
67498W        W35716  13.547  17.159   4.840
67499W        W35717   3.252  26.915  11.104
67500W        W35718  14.863  32.498   3.234
67501W        W35719  17.753  33.564  14.018
67502W        W35720  43.114  41.951  14.205
67503W        W35721  24.521  30.834   4.454
67504W        W35722  10.225  23.376  12.959
67505W        W35723  35.671  25.626  14.088
67506W        W35724  33.653  20.266  12.016
67507W        W35725  25.829  41.175  11.566
67508W        W35726  13.406  21.979  12.555
67509W        W35727  17.801  28.023  13.881
67510W        W35728  29.635   4.731   0.846
67511W        W35729  28.416   3.852  13.213
67512W        W35730   7.042  24.992   2.636
67513W        W35731  18.718  31.361  12.482
67514W        W35732  27.204   2.801   4.376
67515W        W35733  24.206  11.845  10.580
67516W        W35734   1.548  31.683  12.137
67517W        W35735   5.972  32.793   2.154
67518W        W35736  23.250  11.270  12.379
67519W        W35737   1.396  15.211   4.526
67520W        W35738  10.105  30.066   4.724
67521W        W35739  12.579  19.509  13.359
67522W        W35740  23.195  14.887  12.383
67523W        W35741  20.176   7.273  11.096
67524W        W35742  16.720  38.558  12.515
67525W        W35743  32.608  13.062   3.686
67526W        W35744  27.613  29.267   0.405
67527W        W35745  13.522  39.818  14.470
67528W        W35746  35.804  34.836   0.372
67529W        W35747  44.287  31.052  14.742
67530W        W35748  35.777  12.174  14.327
67531W        W35749  30.367   3.523  13.408
67532W        W35750  34.109  36.917  13.971
67533W        W35751   2.959  34.375  14.436
67534W        W35752  25.035  13.144   3.519
67535W        W35753   5.494   6.464   4.159
67536W        W35754  35.051  37.830  12.589
67537W        W35755  22.062   7.576  12.767
67538W        W35756  10.418   3.921   1.012
67539W        W35757  39.950  31.920  13.519
67540W        W35758  11.041  41.442   1.766
67541W        W35759  34.539  39.801   0.505
67542W        W35760  13.028  44.467   0.316
67543W        W35761  35.166   9.341  12.965
67544W        W35762   4.251  32.034  13.438
67545W        W35763   8.300  44.360  13.523
67546W        W35764  24.053  20.940   3.759
67547W        W35765  39.044  15.353   2.789
67548W        W35766  17.212  22.567   3.180
67549W        W35767  14.029  37.866  14.885
67550W        W35768  41.367  23.679   2.169
67551W        W35769  24.683  30.105  12.554
67552W        W35770   0.592  37.270   4.954
67553W        W35771  38.118   1.265   5.400
67554W        W35772  10.544  22.446   4.773
67555W        W35773  30.005   2.714   0.339
67556W        W35774   2.953   7.692  14.892
67557W        W35775  37.517  24.045  10.756
67558W        W35776  31.243  13.549  14.790
67559W        W35777  23.802  34.132  10.314
67560W        W35778   8.473  23.591   4.610
67561W        W35779  32.974  12.916  12.059
67562W        W35780  34.144   7.187  13.492
67563W        W35781  13.033  12.373   2.024
67564W        W35782  33.922   3.493   0.730
67565W        W35783  20.200  19.442   4.576
67566W        W35784  24.847  21.272   1.143
67567W        W35785  17.786  18.691   1.818
67568W        W35786  13.611  28.402   3.901
67569W        W35787  31.358  10.323  10.998
67570W        W35788  34.028  22.011  12.359
67571W        W35789   7.619   9.136   4.011
67572W        W35790  29.681  12.900  11.163
67573W        W35791  29.909   2.233   3.349
67574W        W35792  31.534  11.800   0.398
67575W        W35793   5.691   8.414  13.711
67576W        W35794  34.661  23.749   1.208
67577W        W35795  22.589  21.661  11.533
67578W        W35796  35.649  26.581   3.559
67579W        W35797  43.805   8.306   1.791
67580W        W35798  19.292  32.437  13.303
67581W        W35799  42.854  36.534  12.477
67582W        W35800  21.628  44.986   2.213
67583W        W35801   0.980  12.131   4.664
67584W        W35802  26.699   2.858   1.869
67585W        W35803  20.543  33.336  14.410
67586W        W35804  36.765  15.610  12.732
67587W        W35805   6.199  22.011   1.477
67588W        W35806   2.531   2.185   2.389
67589W        W35807  30.565   9.376  11.125
67590W        W35808   0.824   6.752   0.069
67591W        W35809   1.730  10.262  14.432
67592W        W35810   3.580  11.877  13.520
67593W        W35811  14.195  22.220   2.813
67594W        W35812  24.552   3.755  10.810
67595W        W35813  43.887  14.005  11.091
67596W        W35814  41.131  14.598   4.109
67597W        W35815  15.269   5.285   2.825
67598W        W35816  22.629   1.563  11.697
67599W        W35817  26.105  13.144   2.575
67600W        W35818   3.330  20.997  14.856
67601W        W35819  37.441   2.515   1.709
67602W        W35820  42.244  30.686  12.045
67603W        W35821  35.459  22.442  12.965
67604W        W35822  38.979  37.059  12.971
67605W        W35823  11.772  20.592  14.840
67606W        W35824  10.798  41.298   2.340
67607W        W35825   8.643  39.446   0.461
67608W        W35826   7.615  10.784   2.780
67609W        W35827  40.840  24.722  12.120
67610W        W35828  22.156  14.816  11.223
67611W        W35829  23.606   3.356  10.740
67612W        W35830  39.434   0.810   2.838
67613W        W35831  34.436  38.297   4.784
67614W        W35832  27.586  27.460   2.623
67615W        W35833  16.630  20.962   0.092
67616W        W35834   3.778  18.590   4.532
67617W        W35835   4.896  19.137   0.441
67618W        W35836  20.119  23.718  14.383
67619W        W35837  25.846  24.518   2.716
67620W        W35838   8.315   9.118   3.249
67621W        W35839  33.490  25.099  13.826
67622W        W35840  31.552  30.917  12.093
67623W        W35841   2.920   9.284  13.729
67624W        W35842  32.622  42.589  13.014
67625W        W35843  17.424  31.162   1.907
67626W        W35844   5.355  14.839  12.903
67627W        W35845   7.730  20.300  14.378
67628W        W35846   0.475  11.287   1.441
67629W        W35847  19.657  32.256   0.362
67630W        W35848  18.555   4.915   2.103
67631W        W35849   2.544  43.545  14.040
67632W        W35850  35.804   9.752   0.374
67633W        W35851  12.051  33.475   1.322
67634W        W35852  43.380  10.155   1.035
67635W        W35853  43.513  12.600  11.482
67636W        W35854  23.238  25.813  11.056
67637W        W35855  27.491  43.826  13.556
67638W        W35856  42.411  37.079   4.831
67639W        W35857  27.840  43.520   2.161
67640W        W35858  26.314  39.144   4.540
67641W        W35859  37.853  37.770   3.673
67642W        W35860  10.794   8.917  12.591
67643W        W35861  40.056  38.737   4.889
67644W        W35862  41.491  40.150   1.565
67645W        W35863  24.644  44.403   2.396
67646W        W35864  25.687  40.335   2.383
67647W        W35865  30.336  34.857  13.797
67648W        W35866  14.593  12.056  14.962
67649W        W35867   4.303  43.903  10.788
67650W        W35868  11.574  36.090  14.010
67651W        W35869  19.929  18.783   1.371
67652W        W35870  17.487  22.185   0.513
67653W        W35871  35.465  37.430  11.609
67654W        W35872  17.045  27.757  13.426
67655W        W35873  24.061  41.951   1.244
67656W        W35874  30.469  27.622   4.208
67657W        W35875  22.232  23.072   0.850
67658W        W35876   0.323   0.332   1.987
67659W        W35877  43.360   5.491  13.165
67660W        W35878  44.244  23.595   0.897
67661W        W35879  30.067   2.486  11.385
67662W        W35880  21.781  42.504   1.458
67663W        W35881  39.964  20.520   3.993
67664W        W35882  40.902  29.957  13.071
67665W        W35883   5.176  28.133   0.440
67666W        W35884  28.626   2.829  14.014
67667W        W35885  41.262  36.406  13.263
67668W        W35886  33.585  23.817  13.416
67669W        W35887  25.007  27.028   1.917
67670W        W35888   0.777  27.473   2.358
67671W        W35889  22.059  10.562  12.458
67672W        W35890  20.751  44.908  10.710
67673W        W35891  40.039  23.829  13.157
67674W        W35892  25.556  44.387  11.928
67675W        W35893  24.261  33.970  10.132
67676W        W35894  10.022   6.246   4.974
67677W        W35895   7.746  13.611  13.841
67678W        W35896   4.808  44.417  10.058
67679W        W35897   8.536   5.732   2.358
67680W        W35898  39.659  13.529   2.773
67681W        W35899  25.636   1.320  13.307
67682W        W35900  30.629  40.636   0.318
67683W        W35901   0.075  29.114  13.332
67684W        W35902  20.550  31.790   4.169
67685W        W35903  33.426  33.906  14.662
67686W        W35904  15.168  14.162   4.645
67687W        W35905  13.475   9.904  10.244
67688W        W35906  20.420  28.056   0.218
67689W        W35907  26.535  38.884  10.704
67690W        W35908  12.983  42.926   4.555
67691W        W35909  15.518   7.730  14.405
67692W        W35910   5.206  36.106   0.929
67693W        W35911  24.168  12.028   4.758
67694W        W35912  22.789  12.153   3.404
67695W        W35913  23.626  38.247   0.377
67696W        W35914   1.992  13.321   4.188
67697W        W35915  31.363  41.706  14.941
67698W        W35916  29.060  21.442  14.871
67699W        W35917  14.374   2.857   0.829
67700W        W35918  21.496  28.923   1.355
67701W        W35919  37.868  17.658   4.437
67702W        W35920  31.010   6.438  10.675
67703W        W35921  20.800   5.978   4.159
67704W        W35922   3.647  21.559  10.575
67705W        W35923  24.732   5.832   0.354
67706W        W35924   0.008   9.522   2.167
67707W        W35925   3.860  21.117  14.405
67708W        W35926  38.258  15.912   4.823
67709W        W35927  29.579   1.476   2.800
67710W        W35928  29.030  31.973   3.264
67711W        W35929  42.731  35.009   0.335
67712W        W35930  35.969   1.452   1.395
67713W        W35931  30.765  36.654  11.145
67714W        W35932  30.555   0.334   0.791
67715W        W35933   5.562  38.908  12.637
67716W        W35934   3.818   5.701   3.157
67717W        W35935   1.416  36.067   4.492
67718W        W35936  12.934  10.238   3.754
67719W        W35937  19.026  37.434   0.846
67720W        W35938  36.706  27.223   2.865
67721W        W35939  31.118   3.567  12.419
67722W        W35940  43.049  42.785  13.758
67723W        W35941  35.576  21.705   2.780
67724W        W35942   2.173  42.060   4.080
67725W        W35943  15.886  21.519  11.581
67726W        W35944   4.380  33.570   0.927
67727W        W35945  26.556  40.421  12.033
67728W        W35946  39.279   1.239  10.109
67729W        W35947  26.499  25.669  12.796
67730W        W35948  13.501  31.302   4.181
67731W        W35949   0.537  16.711   0.261
67732W        W35950  27.383  18.916  13.470
67733W        W35951   3.154  42.053   1.950
67734W        W35952  27.705   2.804  14.542
67735W        W35953  23.134  35.137   4.990
67736W        W35954  17.761  29.542  10.936
67737W        W35955   0.808  18.712  12.121
67738W        W35956   5.668  31.035   4.921
67739W        W35957  41.525  44.878  12.668
67740W        W35958   0.320  10.076  13.150
67741W        W35959  36.657  40.335  12.501
67742W        W35960   6.281  32.558   3.719
67743W        W35961  14.921  37.434  13.156
67744W        W35962  20.759   6.651   1.956
67745W        W35963  10.876  29.810  10.662
67746W        W35964  36.751  14.774   4.104
67747W        W35965  29.502  15.710  13.721
67748W        W35966  12.902  26.981   0.945
67749W        W35967   3.222   4.627   0.288
67750W        W35968  16.188  38.952  10.876
67751W        W35969  35.567  18.577  13.564
67752W        W35970  32.181  43.840  12.599
67753W        W35971  32.462  25.210  13.318
67754W        W35972   0.873   7.754  14.333
67755W        W35973  35.855  33.043  13.892
67756W        W35974  36.997  19.149   3.735
67757W        W35975  22.485  17.803   2.337
67758W        W35976   7.003  35.728   4.216
67759W        W35977  24.001  12.644   4.047
67760W        W35978   8.359   8.882   1.433
67761W        W35979  30.621  26.457   1.298
67762W        W35980  18.152   2.188   2.800
67763W        W35981  17.670   7.807  10.386
67764W        W35982   0.336  20.840   3.387
67765W        W35983  18.113  18.057   3.192
67766W        W35984  42.428  20.549   3.168
67767W        W35985   9.385  18.193  10.895
67768W        W35986  18.218  14.740  13.797
67769W        W35987  13.127  20.280  10.614
67770W        W35988  44.736  34.441   4.183
67771W        W35989  42.928  29.379   0.041
67772W        W35990  13.974  25.195   5.067
67773W        W35991  33.022  40.928   2.207
67774W        W35992  24.318   6.609   1.250
67775W        W35993  10.595  14.205   1.478
67776W        W35994  22.362   0.902   3.713
67777W        W35995  32.341   5.200   4.060
67778W        W35996  37.802  20.250  14.944
67779W        W35997   7.214  10.591  12.354
67780W        W35998  19.428  42.965   5.011
67781W        W35999   9.969  13.113  11.178
67782W        W36000  37.842  14.800  12.564
67783W        W36001   7.733  22.048   2.669
67784W        W36002  11.815  39.100  11.138
67785W        W36003  31.002  17.700   2.686
67786W        W36004  19.931  12.170   0.884
67787W        W36005   7.926  27.932  10.649
67788W        W36006  37.496  32.262  12.943
67789W        W36007  12.178   7.696  11.627
67790W        W36008   9.785  24.254  14.254
67791W        W36009  40.705   5.419  12.613
67792W        W36010  20.142   8.128  12.438
67793W        W36011   3.299  36.923  14.294
67794W        W36012  25.110  16.811   1.708
67795W        W36013  36.322  39.904  12.514
67796W        W36014  31.575  33.233  14.119
67797W        W36015  13.686  22.754  14.825
67798W        W36016  27.825  17.831   4.603
67799W        W36017  13.712  18.130   4.531
67800W        W36018   6.263  24.528   1.814
67801W        W36019  39.768  38.553  12.052
67802W        W36020  27.048  22.435   1.451
67803W        W36021  12.234  14.561  13.991
67804W        W36022  42.424  32.364  10.720
67805W        W36023  37.153  20.340   3.137
67806W        W36024   1.884  35.698   3.148
67807W        W36025  26.506  30.155  10.735
67808W        W36026   6.412  32.459  14.001
67809W        W36027  22.749  36.611   4.569
67810W        W36028   7.345   5.206  12.370
67811W        W36029  18.490  26.677  12.040
67812W        W36030  37.933  43.703   1.544
67813W        W36031  20.766  26.642  10.658
67814W        W36032  44.851  39.321  10.793
67815W        W36033  39.564  44.246  12.966
67816W        W36034   9.330  35.462   1.009
67817W        W36035  38.946  22.082   3.183
67818W        W36036  14.052   8.635  12.880
67819W        W36037  25.657   6.207  12.629
67820W        W36038  29.329  32.576   0.828
67821W        W36039  37.899  36.614   4.755
67822W        W36040   4.055  36.322  12.993
67823W        W36041   4.254  14.124  13.869
67824W        W36042  15.865  20.192   3.324
67825W        W36043  40.076  28.582  13.379
67826W        W36044  27.685   7.866   0.996
67827W        W36045  17.712  19.685   1.836
67828W        W36046  12.555  34.669  10.712
67829W        W36047  27.451   8.292   4.362
67830W        W36048  23.450  29.105   0.766
67831W        W36049  42.780  23.418  10.057
67832W        W36050  36.618  21.623  10.908
67833W        W36051  13.825  25.191   3.737
67834W        W36052   3.405   6.462  13.076
67835W        W36053  24.933  30.160   0.415
67836W        W36054  40.078  16.610   0.690
67837W        W36055   6.287  17.043   4.041
67838W        W36056   6.642   0.538   4.631
67839W        W36057  39.886   2.247  13.899
67840W        W36058  10.958  26.971  12.868
67841W        W36059  23.359  25.475  11.450
67842W        W36060  44.594   1.777  12.579
67843W        W36061  16.228  25.294   3.255
67844W        W36062  27.957  15.841  14.480
67845W        W36063  42.778  23.147   1.289
67846W        W36064  40.367  23.597   2.690
67847W        W36065  36.507  18.088  11.580
67848W        W36066   8.018  33.182  10.413
67849W        W36067  30.359  19.172   1.897
67850W        W36068  32.430  31.094   2.831
67851W        W36069  44.764  15.033  11.161
67852W        W36070  15.365  26.455   1.262
67853W        W36071  10.294  10.094  11.512
67854W        W36072  38.435  33.074  10.633
67855W        W36073   0.834   6.230  14.977
67856W        W36074  15.849  39.711  14.014
67857W        W36075  25.230   5.906   1.244
67858W        W36076  34.394  18.527  14.875
67859W        W36077  15.539  33.666  14.928
67860W        W36078   4.959  22.170   3.288
67861W        W36079  24.070  20.291   2.936
67862W        W36080  16.218  31.676  13.944
67863W        W36081  39.487  40.884  13.811
67864W        W36082  41.416  16.187  11.845
67865W        W36083   0.898   2.339   1.889
67866W        W36084  42.540  12.782  13.985
67867W        W36085  42.354  27.730  14.886
67868W        W36086  21.018  33.420   2.257
67869W        W36087  42.507  24.980  14.237
67870W        W36088  28.943  14.728  11.165
67871W        W36089  20.798   6.387   4.900
67872W        W36090  38.699  33.508   4.713
67873W        W36091  26.536  22.196  14.149
67874W        W36092  20.218  30.633  11.123
67875W        W36093  15.386   5.819  12.479
67876W        W36094   5.163  13.134   3.710
67877W        W36095   8.453  37.433   0.243
67878W        W36096  39.844  32.172  13.959
67879W        W36097  44.157  40.385   4.240
67880W        W36098  21.603  10.117   2.335
67881W        W36099  35.597  38.960  12.831
67882W        W36100  36.807  21.998  11.224
67883W        W36101  41.401  34.636  10.662
67884W        W36102  31.350  15.702   2.905
67885W        W36103  18.973   4.641   1.354
67886W        W36104  20.805   7.221  13.375
67887W        W36105  40.364  39.506  12.375
67888W        W36106  30.917  17.092  11.137
67889W        W36107   9.394  36.859   4.047
67890W        W36108  11.690   8.833  14.374
67891W        W36109  23.733  15.128  13.100
67892W        W36110  21.254  22.934  12.977
67893W        W36111  18.755  26.041  14.387
67894W        W36112  22.339  21.614   2.175
67895W        W36113   6.009  18.006  10.236
67896W        W36114  25.266   0.190  12.147
67897W        W36115   6.594  28.930   1.927
67898W        W36116  34.928  30.900   3.186
67899W        W36117  21.790   4.464   0.919
67900W        W36118  36.941  39.956  13.576
67901W        W36119  12.352   1.476   3.732
67902W        W36120   9.167  40.172   2.697
67903W        W36121  43.505  16.737   2.105
67904W        W36122  11.677   1.311   4.214
67905W        W36123  16.526   7.004   2.929
67906W        W36124  25.763  29.441   4.587
67907W        W36125  38.838   0.802  11.223
67908W        W36126  17.646  19.805  14.343
67909W        W36127  19.542  42.302   1.142
67910W        W36128   2.990  22.714   0.880
67911W        W36129  37.548  39.022  13.813
67912W        W36130  43.406  24.903   0.302
67913W        W36131  30.492  44.357   1.709
67914W        W36132   2.774  21.400  10.576
67915W        W36133  16.592  18.542   3.364
67916W        W36134  21.327  27.434  12.556
67917W        W36135  42.729  33.580  12.588
67918W        W36136  35.592  41.334   3.369
67919W        W36137  40.020  41.830   3.575
67920W        W36138  11.506  17.661   1.617
67921W        W36139  20.038   1.320   2.827
67922W        W36140  44.808  14.538   0.906
67923W        W36141   5.991   2.704   2.787
67924W        W36142  12.026   8.818  10.917
67925W        W36143   4.177  23.235   2.621
67926W        W36144  37.824  15.355  14.332
67927W        W36145  27.684  26.499   4.531
67928W        W36146  10.334  17.786  11.192
67929W        W36147  35.436  42.985  14.404
67930W        W36148  14.239  44.141   2.403
67931W        W36149  24.984  10.196  11.208
67932W        W36150   9.708  20.497   1.688
67933W        W36151   2.534  23.875   1.109
67934W        W36152   6.238   1.729   1.789
67935W        W36153  33.148  29.506   1.300
67936W        W36154  15.226  15.318  14.618
67937W        W36155  39.401  43.321   1.332
67938W        W36156  18.810  24.830  13.462
67939W        W36157  24.702   2.158  12.621
67940W        W36158  31.609  24.240  11.096
67941W        W36159   3.444  14.355  13.561
67942W        W36160   8.734  44.418   3.731
67943W        W36161   2.984   3.967   4.788
67944W        W36162  36.542  21.569   0.520
67945W        W36163  25.445  43.305  13.493
67946W        W36164  25.179  13.663  13.019
67947W        W36165  42.325  23.123  12.143
67948W        W36166  28.909  38.333   3.244
67949W        W36167  36.390  36.072  11.917
67950W        W36168  30.980  41.553   2.665
67951W        W36169  42.274   9.255  10.787
67952W        W36170  23.452   4.210  13.955
67953W        W36171  10.998  32.245  13.091
67954W        W36172  12.376  38.020  14.445
67955W        W36173  28.448  37.850  11.662
67956W        W36174  12.287  37.381  11.178
67957W        W36175  44.666  39.837   4.091
67958W        W36176  26.975   2.827  14.890
67959W        W36177  17.245  40.054   0.858
67960W        W36178  43.471   2.715   1.712
67961W        W36179   0.269   5.349  11.089
67962W        W36180  14.276  42.909   1.285
67963W        W36181  15.312  36.745  11.125
67964W        W36182  32.694  41.922   1.518
67965W        W36183  36.872   6.174  11.133
67966W        W36184  40.728   7.721   2.741
67967W        W36185  14.263  44.802  14.695
67968W        W36186  15.089  24.844  11.771
67969W        W36187  17.606  26.643  12.575
67970W        W36188  42.500  17.233  14.898
67971W        W36189  25.652  33.102   4.193
67972W        W36190  23.420  11.803  11.054
67973W        W36191  40.827  35.483   0.334
67974W        W36192  43.583  34.354   0.758
67975W        W36193  17.113  14.714   3.173
67976W        W36194  12.219  44.175   0.424
67977W        W36195  14.219   9.332  13.932
67978W        W36196  16.794  18.572  14.828
67979W        W36197   6.233  16.709   1.104
67980W        W36198   7.257   5.167  14.822
67981W        W36199  10.558   3.928  10.351
67982W        W36200  36.248  15.515   3.724
67983W        W36201  17.644  11.897  12.159
67984W        W36202  44.934  26.020   4.375
67985W        W36203   7.766  40.541  12.572
67986W        W36204  44.189  17.722  12.776
67987W        W36205   6.143  40.935  10.632
67988W        W36206  18.234  18.599   0.694
67989W        W36207  27.075  36.607   2.926
67990W        W36208  43.267  26.946  12.522
67991W        W36209   9.306  34.316  10.619
67992W        W36210  15.004  18.310  14.218
67993W        W36211  16.745  32.640  14.070
67994W        W36212  23.876   3.300   4.806
67995W        W36213  23.041  32.423  11.546
67996W        W36214  39.048  24.493   4.596
67997W        W36215  25.560   0.159  11.267
67998W        W36216   0.299   5.380   3.676
67999W        W36217  42.709   8.541  12.576
68000W        W36218   2.229   7.453  11.654
68001W        W36219   3.181  43.028  12.105
68002W        W36220  14.152  14.618  10.749
68003W        W36221   8.469   1.000   4.960
68004W        W36222  38.992  21.033   4.587
68005W        W36223   3.281  35.340  11.984
68006W        W36224  14.181  42.543   2.112
68007W        W36225  35.414  29.660   5.351
68008W        W36226  20.580  41.028   2.751
68009W        W36227  34.876  31.612   3.757
68010W        W36228  32.512  41.141   3.760
68011W        W36229  31.398  39.375   3.162
68012W        W36230   9.118  15.697  12.772
68013W        W36231  41.132  34.359   4.845
68014W        W36232  44.278  15.957   1.582
68015W        W36233  29.492   5.669   0.459
68016W        W36234  21.579  26.501   4.098
68017W        W36235   3.897   2.258   3.215
68018W        W36236  31.925  18.568  11.965
68019W        W36237   2.718  17.577   1.267
68020W        W36238  25.736  16.095  11.967
68021W        W36239  26.341  18.677   2.909
68022W        W36240  11.867  23.206  14.798
68023W        W36241  14.721  16.724   3.686
68024W        W36242   2.005  33.119   1.661
68025W        W36243  21.976   4.282  12.061
68026W        W36244  30.341  11.827  12.494
68027W        W36245  27.466  41.602   1.560
68028W        W36246  28.546  23.883  10.712
68029W        W36247  11.674  43.034  11.542
68030W        W36248   4.393  23.228  11.695
68031W        W36249  39.240  40.527   0.729
68032W        W36250  17.996  39.353   4.468
68033W        W36251  21.907  42.482  11.752
68034W        W36252  10.231   8.914  13.898
68035W        W36253  33.485  11.821  10.597
68036W        W36254  29.026  40.523  11.256
68037W        W36255  33.622  21.070   2.766
68038W        W36256  12.859  36.380   1.967
68039W        W36257  29.117  17.306  11.163
68040W        W36258  34.053  19.171  10.689
68041W        W36259  21.778  39.488   1.879
68042W        W36260  39.451  22.035  13.478
68043W        W36261  26.259  10.712   4.666
68044W        W36262  41.005  12.825   4.660
68045W        W36263  44.440  33.561  11.169
68046W        W36264  34.048  24.580   1.061
68047W        W36265  33.858  12.371   2.197
68048W        W36266   5.658   5.394  12.955
68049W        W36267   9.087  22.983   3.927
68050W        W36268   1.017  31.930   4.591
68051W        W36269   4.860  25.788   0.825
68052W        W36270  42.712  39.066   1.705
68053W        W36271  36.540  31.874   0.212
68054W        W36272  41.456   7.582   4.713
68055W        W36273  26.462   0.107   3.203
68056W        W36274   5.966   2.544   4.371
68057W        W36275  20.046  14.396  13.870
68058W        W36276  10.174  36.136   2.443
68059W        W36277   9.255   7.856   1.686
68060W        W36278  24.076   3.247  11.982
68061W        W36279  36.433  43.846   2.590
68062W        W36280   5.280  34.411   2.261
68063W        W36281  37.012  18.105   2.685
68064W        W36282   2.629  34.848  14.417
68065W        W36283   7.446   0.288   0.071
68066W        W36284  17.367   2.823   9.909
68067W        W36285   9.687  31.710   0.390
68068W        W36286  24.946   9.683   1.880
68069W        W36287   3.225  39.503   1.637
68070W        W36288   2.821  23.761  11.694
68071W        W36289  37.483  32.833   3.888
68072W        W36290   6.270  30.157  13.785
68073W        W36291  26.005   6.893   2.208
68074W        W36292  16.989   0.854  12.812
68075W        W36293   6.520   3.285   5.028
68076W        W36294  39.023   8.671  10.610
68077W        W36295  27.147  12.708  13.310
68078W        W36296  12.217  11.544  13.525
68079W        W36297  32.044  19.472   0.827
68080W        W36298  43.370  39.625   3.292
68081W        W36299  17.175  24.436   3.650
68082W        W36300  40.446   2.338   1.870
68083W        W36301   0.292   4.381   4.052
68084W        W36302  31.194  27.198   0.308
68085W        W36303   7.748  38.680  12.160
68086W        W36304  35.580  43.049  14.907
68087W        W36305  36.176  40.714   2.214
68088W        W36306   6.829  23.378  12.070
68089W        W36307  44.350   1.250  14.575
68090W        W36308   6.180  21.276   1.741
68091W        W36309  34.039  42.298   2.726
68092W        W36310  41.441  10.753   4.494
68093W        W36311  43.247  34.686  11.556
68094W        W36312  27.695  18.716  13.953
68095W        W36313   6.469   1.116  13.871
68096W        W36314  24.148  33.142  11.987
68097W        W36315  18.278  28.563  12.875
68098W        W36316  10.172  24.440  13.201
68099W        W36317  40.511  34.420   2.914
68100W        W36318   8.650   2.952   2.811
68101W        W36319   5.767  22.578   0.477
68102W        W36320  11.678  13.005   2.283
68103W        W36321  41.789  29.630   0.307
68104W        W36322  30.724  34.263  14.486
68105W        W36323  24.591  20.422  12.072
68106W        W36324  15.717  23.498  13.574
68107W        W36325  16.792  18.268  10.744
68108W        W36326  33.559  27.030  11.840
68109W        W36327  32.218  30.124  13.067
68110W        W36328  29.085  31.629   3.643
68111W        W36329  38.073   7.321  11.050
68112W        W36330  19.318   7.375   3.715
68113W        W36331  11.710  10.786   2.521
68114W        W36332  14.338  32.115  14.038
68115W        W36333  13.329  23.474  10.707
68116W        W36334   7.387   1.314   1.246
68117W        W36335  24.130  10.787  12.058
68118W        W36336   7.396  39.422  11.881
68119W        W36337   4.613  40.447   2.381
68120W        W36338  38.527  29.020   4.176
68121W        W36339   3.607  35.929   5.047
68122W        W36340  33.274   3.691  14.320
68123W        W36341  28.562  26.248   4.646
68124W        W36342   4.789   8.391   5.080
68125W        W36343   3.548  39.756   1.295
68126W        W36344  11.839  22.300   0.955
68127W        W36345  15.710  27.673   1.860
68128W        W36346  15.524  33.807  14.424
68129W        W36347  36.850  17.415   3.259
68130W        W36348  20.599  44.784  14.431
68131W        W36349  30.451  36.859  13.591
68132W        W36350  29.656  10.298  13.331
68133W        W36351  27.698  35.511   3.531
68134W        W36352  12.694  22.235   0.545
68135W        W36353  14.359  31.980   0.010
68136W        W36354  35.867   1.648  13.396
68137W        W36355  29.105  15.693  13.392
68138W        W36356  19.091   2.032  10.295
68139W        W36357  33.011   8.373   1.382
68140W        W36358  20.888   3.263  11.236
68141W        W36359   6.448  36.920  13.055
68142W        W36360  36.927   5.990  10.620
68143W        W36361  31.909   6.939  11.497
68144W        W36362  18.093  42.238  12.537
68145W        W36363  10.312  25.644   1.454
68146W        W36364  31.894  21.363   0.371
68147W        W36365  43.432   4.448  12.864
68148W        W36366   9.934  32.902   1.294
68149W        W36367  27.193  20.604   9.670
68150W        W36368   2.912  34.214   2.601
68151W        W36369  37.338  27.681  13.759
68152W        W36370  38.380  10.132  12.643
68153W        W36371   7.708  39.818  10.992
68154W        W36372  37.975   0.911   4.216
68155W        W36373  43.863  26.267   2.365
68156W        W36374  16.738  25.402  14.198
68157W        W36375  18.504  36.470  14.753
68158W        W36376  43.556   7.574  10.466
68159W        W36377  31.103  24.565   1.711
68160W        W36378  31.513  15.201   1.234
68161W        W36379  20.213   9.615  11.712
68162W        W36380   8.767  25.466  13.978
68163W        W36381  30.073  22.538   2.633
68164W        W36382  16.685   9.859   1.639
68165W        W36383  10.474  32.458   1.690
68166W        W36384  12.653  40.933   4.508
68167W        W36385  15.341  37.611   0.941
68168W        W36386  18.033   4.326   2.797
68169W        W36387  32.514  34.047  14.407
68170W        W36388  28.580   6.489  11.389
68171W        W36389   1.002  34.926   0.905
68172W        W36390  32.531   2.561  12.873
68173W        W36391  41.528   2.455  12.825
68174W        W36392  10.060   3.374  14.113
68175W        W36393  42.479  26.045   2.145
68176W        W36394  32.843   2.176   1.729
68177W        W36395   0.317   6.272  14.888
68178W        W36396  30.022  18.458   2.247
68179W        W36397  16.630  10.294  13.584
68180W        W36398  19.215  31.827   4.216
68181W        W36399  27.474  30.573  10.539
68182W        W36400  28.022  18.610   3.645
68183W        W36401  23.419  24.581  14.943
68184W        W36402  27.452  33.867   4.087
68185W        W36403   6.795  30.617   1.229
68186W        W36404  12.168  30.922   3.249
68187W        W36405  33.458   5.086  10.922
68188W        W36406   1.928  11.696  11.256
68189W        W36407  41.589  42.265   1.400
68190W        W36408  35.085  39.717   4.222
68191W        W36409  25.654  25.973  11.053
68192W        W36410  20.380  14.550   3.639
68193W        W36411   7.921  11.335   4.004
68194W        W36412  32.878  15.622   2.008
68195W        W36413  25.570  20.975  14.311
68196W        W36414  32.378  11.806   3.172
68197W        W36415  34.874  40.824   1.861
68198W        W36416   5.717  38.033  12.893
68199W        W36417  24.757  33.978   4.910
68200W        W36418   2.059  38.557   0.900
68201W        W36419  27.237  25.632   0.502
68202W        W36420   9.360  43.775  13.817
68203W        W36421  44.804  35.797  10.894
68204W        W36422  29.721  20.772   2.182
68205W        W36423  21.751  31.540  14.383
68206W        W36424  11.582  34.420  14.475
68207W        W36425  38.673  40.502   1.409
68208W        W36426  19.790  16.706   1.742
68209W        W36427  11.826  33.586   1.772
68210W        W36428  30.568   9.875   1.362
68211W        W36429  30.632  28.799   0.946
68212W        W36430  23.160  37.088  11.586
68213W        W36431  11.313  25.638   2.913
68214W        W36432  41.568  33.198  12.493
68215W        W36433   9.391  19.126  12.516
68216W        W36434  21.188  21.567  13.063
68217W        W36435   5.055  33.114   3.211
68218W        W36436   7.479   1.185  14.030
68219W        W36437  25.564  30.632   1.906
68220W        W36438  42.546  44.882   0.267
68221W        W36439  41.642  24.615   4.343
68222W        W36440   5.777  23.035   0.860
68223W        W36441   2.828  33.368   0.431
68224W        W36442  25.625  22.746  13.985
68225W        W36443   9.897  21.425   1.623
68226W        W36444  36.183  32.992  11.979
68227W        W36445  34.559  31.092   1.170
68228W        W36446  18.589  16.112   2.254
68229W        W36447   4.326  35.568   0.957
68230W        W36448  41.845  12.727   1.731
68231W        W36449  29.464   9.096   2.358
68232W        W36450  18.406  35.353   3.044
68233W        W36451  35.886  14.385  12.363
68234W        W36452  28.062  37.282  11.948
68235W        W36453  36.351  21.739  11.349
68236W        W36454  42.404  43.361  13.148
68237W        W36455  27.905  29.089   0.790
68238W        W36456   4.490   8.080  13.439
68239W        W36457  32.363   9.833  14.740
68240W        W36458  13.592  30.414   0.835
68241W        W36459   0.407  13.998   1.376
68242W        W36460   5.485  13.159   4.561
68243W        W36461   6.996  30.152   3.571
68244W        W36462  27.385  33.043  11.463
68245W        W36463   1.724  40.761   3.651
68246W        W36464   8.186  10.932  13.399
68247W        W36465  15.102  35.661   0.886
68248W        W36466  21.731  29.890   2.817
68249W        W36467  22.592  42.518  13.741
68250W        W36468  19.619  37.290   3.308
68251W        W36469  43.676  40.296   2.753
68252W        W36470  13.333  42.688   5.084
68253W        W36471   2.920  25.442   3.352
68254W        W36472  11.469  41.932  12.111
68255W        W36473   9.615  16.373  11.950
68256W        W36474  22.681  18.571  14.351
68257W        W36475  35.810  20.034  14.311
68258W        W36476  42.903  12.819  11.739
68259W        W36477   3.223  14.796   4.945
68260W        W36478  43.327  26.376  11.628
68261W        W36479  28.231  32.919  13.597
68262W        W36480  41.726   9.595   2.810
68263W        W36481  28.271   9.195   1.868
68264W        W36482  25.450  11.389   4.702
68265W        W36483  12.790  19.077  10.964
68266W        W36484  10.439  13.875  13.408
68267W        W36485  39.451  21.053  13.562
68268W        W36486  31.389  10.670   0.319
68269W        W36487   5.423  11.329   4.116
68270W        W36488  41.434  17.694  11.172
68271W        W36489   9.784  39.806   3.101
68272W        W36490   2.394  12.177   2.325
68273W        W36491  35.988  18.716   4.147
68274W        W36492  30.774  14.715  10.174
68275W        W36493  30.228  15.820   5.209
68276W        W36494  38.947  18.316  10.243
68277W        W36495   2.205  24.032   1.441
68278W        W36496  24.619  14.734   4.559
68279W        W36497   2.694   8.086   0.829
68280W        W36498   3.780  42.973   2.795
68281W        W36499   2.495   7.211   1.525
68282W        W36500  36.023  44.554   1.835
68283W        W36501  36.443  36.745   0.749
68284W        W36502  28.833  43.922  12.896
68285W        W36503   7.679  42.594  12.074
68286W        W36504  18.741  27.972  11.609
68287W        W36505  18.376  27.177  13.401
68288W        W36506  43.349   1.089  12.841
68289W        W36507  17.035  12.401   4.936
68290W        W36508  30.381  35.679  11.124
68291W        W36509  10.198  15.161   1.270
68292W        W36510  31.090  13.409   4.434
68293W        W36511   9.838  23.125   1.884
68294W        W36512   3.712   6.467   1.502
68295W        W36513   2.623  20.676   3.225
68296W        W36514   9.928  13.775  13.398
68297W        W36515  22.295  33.142  14.874
68298W        W36516  23.512  29.426  14.937
68299W        W36517  35.504  20.189  10.714
68300W        W36518  44.284  20.667  13.068
68301W        W36519  19.783   1.749   3.396
68302W        W36520  21.489   2.920   1.239
68303W        W36521  14.532  25.261  11.022
68304W        W36522  37.451  42.773   5.120
68305W        W36523  17.576   5.980   1.191
68306W        W36524  11.883  17.834   3.182
68307W        W36525  34.530  12.083  10.675
68308W        W36526  41.046  18.805  12.555
68309W        W36527  14.886   6.854  11.533
68310W        W36528   7.760   3.130  12.971
68311W        W36529  29.371  26.698   2.886
68312W        W36530  28.913  35.638  12.905
68313W        W36531  12.721   0.218  12.174
68314W        W36532  38.351  18.289   3.314
68315W        W36533   1.406  44.014  12.589
68316W        W36534  32.921  26.395   0.957
68317W        W36535   2.067  34.631  13.401
68318W        W36536  27.636  20.629  12.669
68319W        W36537  42.010  20.779   2.932
68320W        W36538  22.703  16.831  12.493
68321W        W36539  29.539  34.118  13.465
68322W        W36540  41.691  26.407  13.028
68323W        W36541   7.758  10.225  13.525
68324W        W36542  41.331  34.282  13.992
68325W        W36543  41.992  38.831   0.379
68326W        W36544  38.853  35.084   0.993
68327W        W36545  34.831   5.381  13.831
68328W        W36546  23.497  42.399   4.920
68329W        W36547  24.702  32.539   0.773
68330W        W36548  10.219  18.601   3.018
68331W        W36549   1.972  14.185   5.044
68332W        W36550  20.576  44.698   0.404
68333W        W36551  40.254   2.801   3.124
68334W        W36552  37.863  17.643   4.951
68335W        W36553  32.909  33.482   3.650
68336W        W36554   2.261  16.500   2.877
68337W        W36555   4.788  30.916  12.572
68338W        W36556  32.522   1.191   3.217
68339W        W36557  26.665  41.933  12.156
68340W        W36558  32.885  42.206   2.669
68341W        W36559  40.768  10.942   0.494
68342W        W36560  26.565   2.222   1.023
68343W        W36561  43.466  11.201  11.225
68344W        W36562  43.049   9.356  11.623
68345W        W36563  27.688   4.215   0.833
68346W        W36564   0.887  23.766  12.029
68347W        W36565  29.479  25.815   3.366
68348W        W36566  34.889  35.477  11.867
68349W        W36567  18.945  18.745  10.921
68350W        W36568   8.860  17.151  12.501
68351W        W36569  15.407  18.099  10.188
68352W        W36570  17.851  24.767   0.315
68353W        W36571  10.114   9.300   0.703
68354W        W36572  40.835  10.428  11.870
68355W        W36573  40.970   5.483  10.614
68356W        W36574  17.194  38.881  11.308
68357W        W36575  30.951  19.735  14.387
68358W        W36576  42.977  18.167   1.805
68359W        W36577  43.716  33.457   2.406
68360W        W36578  33.124  39.550   3.704
68361W        W36579  44.350   0.761  14.772
68362W        W36580  16.808  36.330  13.819
68363W        W36581   4.717  12.320   0.943
68364W        W36582  30.075  12.914  12.764
68365W        W36583  40.839  19.384   0.978
68366W        W36584  41.429   5.336   4.224
68367W        W36585  41.089  21.639  12.967
68368W        W36586  24.433  15.829   2.177
68369W        W36587  18.666  16.272   3.765
68370W        W36588   7.418   7.481   0.426
68371W        W36589   8.929  25.254  13.516
68372W        W36590   4.189  34.180  11.557
68373W        W36591   9.426   7.669   0.314
68374W        W36592   5.620  30.462   4.567
68375W        W36593  42.777  30.177   4.674
68376W        W36594  23.761  21.113   0.904
68377W        W36595  23.276  15.574   0.779
68378W        W36596  30.727   6.224   3.926
68379W        W36597  34.529   0.645   2.753
68380W        W36598  38.854  37.531   4.961
68381W        W36599   2.430  33.452  14.061
68382W        W36600  43.725   7.763  14.962
68383W        W36601   1.484  36.507   2.768
68384W        W36602   7.914   2.872   3.986
68385W        W36603  40.260  19.262   1.779
68386W        W36604  17.263   3.770   1.367
68387W        W36605  19.583   5.528  10.959
68388W        W36606  25.164  27.244   3.934
68389W        W36607  22.757  25.187  13.921
68390W        W36608  31.785  29.136  13.825
68391W        W36609  38.796  28.549  14.404
68392W        W36610  24.740   1.981   3.677
68393W        W36611  15.469  17.835  13.491
68394W        W36612  23.725   9.924   2.724
68395W        W36613  34.401  37.507  11.630
68396W        W36614   1.836  31.951   1.562
68397W        W36615  21.250  21.962  13.924
68398W        W36616  25.541  43.638  12.746
68399W        W36617  16.776  22.696  10.376
68400W        W36618  37.402  33.075   9.883
68401W        W36619  33.623  11.920  11.279
68402W        W36620  26.971  28.396   3.389
68403W        W36621  26.036  10.645  11.999
68404W        W36622  36.622  41.044  14.128
68405W        W36623  10.610  31.463  14.396
68406W        W36624  29.405  42.751   4.213
68407W        W36625  13.616  33.849   4.128
68408W        W36626  27.546  31.275  14.932
68409W        W36627  14.676  19.349   5.316
68410W        W36628  28.614  35.453   2.696
68411W        W36629   4.428   7.336  13.885
68412W        W36630  37.441  23.504   4.665
68413W        W36631  20.639   0.966   3.255
68414W        W36632  12.256   9.335  14.044
68415W        W36633  29.240  22.564   1.976
68416W        W36634  38.762  27.856  12.522
68417W        W36635  23.674   7.589   1.212
68418W        W36636   3.244   5.708   1.217
68419W        W36637  31.120  19.133   2.305
68420W        W36638  15.375   0.837  14.992
68421W        W36639  39.350   5.393   3.410
68422W        W36640  14.626   5.536  12.496
68423W        W36641  36.118  31.006   0.953
68424W        W36642  39.172  23.648  13.005
68425W        W36643  21.272  40.774  12.446
68426W        W36644  22.716  29.468  12.000
68427W        W36645  19.718  23.058   0.647
68428W        W36646  14.448  15.705   4.524
68429W        W36647  39.356   6.836   3.298
68430W        W36648  31.991  23.083   0.781
68431W        W36649  24.978  34.589   0.720
68432W        W36650  41.812  16.632  11.091
68433W        W36651   7.813   3.266   0.304
68434W        W36652  32.957  34.834  12.973
68435W        W36653  42.572   6.579  12.559
68436W        W36654  31.852   8.348  12.132
68437W        W36655  30.526  19.674  12.852
68438W        W36656  38.444  35.464  13.938
68439W        W36657  38.004  28.450   3.609
68440W        W36658  16.565  44.354   3.296
68441W        W36659  20.626   2.140   1.866
68442W        W36660  25.793  31.581   3.385
68443W        W36661  11.744  23.044   3.702
68444W        W36662  23.330  29.733   2.420
68445W        W36663  15.206  25.664   3.742
68446W        W36664  44.608  38.019  12.813
68447W        W36665  37.665   5.265  10.652
68448W        W36666  13.939   7.361   1.226
68449W        W36667   7.396  26.191   4.836
68450W        W36668  44.305  10.235   5.193
68451W        W36669  20.358  33.123  13.596
68452W        W36670  21.078  17.687   3.733
68453W        W36671  20.051  10.884   0.200
68454W        W36672  11.405  37.525   1.239
68455W        W36673  32.074   9.917   1.177
68456W        W36674  40.635  14.543   3.323
68457W        W36675   0.215  44.404   3.089
68458W        W36676  19.798   1.730  12.808
68459W        W36677   9.324   7.249  12.540
68460W        W36678  44.766  11.268   3.903
68461W        W36679   5.264  24.604   2.922
68462W        W36680   4.645  37.725  11.253
68463W        W36681   1.744   3.400  13.554
68464W        W36682  31.836  12.078   2.285
68465W        W36683  16.108   2.057   3.294
68466W        W36684  12.727  14.340   2.779
68467W        W36685   9.294  37.319  12.474
68468W        W36686  37.721  41.474   4.660
68469W        W36687  14.870  16.201   0.779
68470W        W36688  41.641  21.733  13.053
68471W        W36689   8.830   4.865   0.533
68472W        W36690  15.149   1.737  13.985
68473W        W36691  15.087   2.457  10.212
68474W        W36692   1.799  27.253  14.024
68475W        W36693  41.806  28.690  12.906
68476W        W36694   3.340  38.339  11.526
68477W        W36695  24.507   9.217   0.520
68478W        W36696  33.665  25.751  13.454
68479W        W36697   9.886  36.501   4.667
68480W        W36698  40.574  39.048  13.905
68481W        W36699  38.466  24.957   4.955
68482W        W36700   0.315   3.955   2.418
68483W        W36701  12.348  43.772   4.203
68484W        W36702  33.605  16.099  11.105
68485W        W36703  44.993  19.270  12.210
68486W        W36704   2.456  33.133   1.939
68487W        W36705   1.462  17.283   4.845
68488W        W36706  39.366  13.340   4.165
68489W        W36707  43.020  43.763  14.376
68490W        W36708  42.605  43.207   5.006
68491W        W36709   4.312  34.682   3.812
68492W        W36710  40.975  29.942   3.388
68493W        W36711  22.095   9.602   1.829
68494W        W36712   6.397  13.227   1.475
68495W        W36713  30.595   0.463  10.748
68496W        W36714  31.552   9.218  14.607
68497W        W36715   6.134  10.401   0.259
68498W        W36716  41.269   6.126   5.138
68499W        W36717   6.855   3.806  13.548
68500W        W36718  17.302  38.141  13.107
68501W        W36719  35.056   5.273   4.580
68502W        W36720  14.406  30.517  11.004
68503W        W36721  32.121  41.037   2.649
68504W        W36722   4.121  25.116   1.399
68505W        W36723  20.208   5.220  10.947
68506W        W36724   8.128  14.926   1.390
68507W        W36725  14.603  36.118   2.562
68508W        W36726  22.650  40.550   4.201
68509W        W36727  19.489   5.341   0.936
68510W        W36728  37.937  43.043  10.721
68511W        W36729  11.721  42.316   2.144
68512W        W36730  26.197  22.657   1.740
68513W        W36731  37.779  17.245  13.544
68514W        W36732  13.627  18.135  11.580
68515W        W36733  38.929  14.528  14.889
68516W        W36734  40.128  23.157   2.814
68517W        W36735  21.251  18.311  12.514
68518W        W36736  16.389   7.685   4.233
68519W        W36737  21.659  41.524   3.008
68520W        W36738  33.370  44.314   1.271
68521W        W36739   1.154  22.978  12.592
68522W        W36740   5.418  40.401  10.248
68523W        W36741  36.108  22.202   2.974
68524W        W36742  43.115   8.834   3.859
68525W        W36743  13.309  40.289  13.594
68526W        W36744  24.650   6.940   1.461
68527W        W36745  13.109   1.459  13.724
68528W        W36746   0.427  35.389   3.211
68529W        W36747  40.347   0.818  12.194
68530W        W36748  44.389  26.160  12.693
68531W        W36749  42.726  36.651   2.682
68532W        W36750   5.842  26.371  13.419
68533W        W36751  29.052  23.703  10.297
68534W        W36752   1.983  43.314   0.948
68535W        W36753  20.832   4.951  11.140
68536W        W36754  10.408  16.505   0.391
68537W        W36755  17.757  35.768   2.321
68538W        W36756  42.943  41.988   3.311
68539W        W36757  37.472   8.433  12.108
68540W        W36758  14.430   2.468   4.601
68541W        W36759   9.871   9.270  14.120
68542W        W36760  34.537   9.188   0.371
68543W        W36761  19.757  36.281   4.649
68544W        W36762  16.148  26.166  14.474
68545W        W36763  17.619   4.892   4.517
68546W        W36764  23.003   2.850   1.133
68547W        W36765  14.431  20.969  10.126
68548W        W36766  31.004  40.264   0.363
68549W        W36767   4.766   6.451  13.971
68550W        W36768  11.392  20.304  11.650
68551W        W36769   6.948  21.983  11.623
68552W        W36770  34.916  11.340   0.430
68553W        W36771  29.753  33.520   1.943
68554W        W36772  16.574  22.166  12.563
68555W        W36773  25.967  25.029  11.062
68556W        W36774  40.885  25.915   1.470
68557W        W36775   1.221  41.832   1.196
68558W        W36776  38.122   6.434   3.666
68559W        W36777  21.763  40.728   3.855
68560W        W36778  17.230  12.157   0.400
68561W        W36779   6.189   2.975  14.511
68562W        W36780  29.080  43.239   3.209
68563W        W36781  14.366  30.820   2.970
68564W        W36782   3.272  12.019   2.893
68565W        W36783  35.007  36.813   0.356
68566W        W36784  16.142  31.051  13.225
68567W        W36785   5.220   0.457   2.845
68568W        W36786  27.564  31.073  10.706
68569W        W36787  24.650  42.426   0.981
68570W        W36788   6.012  19.006  11.135
68571W        W36789   7.315  40.696  13.754
68572W        W36790  11.498  33.531  10.816
68573W        W36791  28.097   9.449  14.452
68574W        W36792   6.270  36.047   0.039
68575W        W36793  33.467  23.194   0.327
68576W        W36794  31.096  36.531  10.750
68577W        W36795  30.115  11.168  14.027
68578W        W36796   6.938   5.824  12.157
68579W        W36797  22.964  17.762   3.200
68580W        W36798  32.059  27.970  14.458
68581W        W36799  42.260   9.429  13.490
68582W        W36800  10.175   5.407  11.900
68583W        W36801  33.317  15.663  12.357
68584W        W36802  19.990  26.458  11.291
68585W        W36803  38.972  11.669   2.869
68586W        W36804   3.400  12.552   0.935
68587W        W36805  29.091   9.736  10.312
68588W        W36806  39.344  17.446  12.454
68589W        W36807  25.246  42.985   4.627
68590W        W36808   9.702  29.666   1.303
68591W        W36809  10.652  25.745  13.376
68592W        W36810   1.005  21.068  14.457
68593W        W36811  15.293  32.602   4.215
68594W        W36812  44.851  25.550   0.723
68595W        W36813   3.001  24.741  14.982
68596W        W36814   9.447   9.607  11.144
68597W        W36815  40.361  13.178   1.363
68598W        W36816  34.518   9.566   4.133
68599W        W36817  21.982  33.337  12.058
68600W        W36818  35.544  24.200  10.740
68601W        W36819  39.973  18.294   4.423
68602W        W36820  23.571  18.663   4.365
68603W        W36821   6.975  33.881  11.135
68604W        W36822  33.569  32.294   3.348
68605W        W36823  32.447  30.933  13.389
68606W        W36824  12.499  22.219  12.780
68607W        W36825  37.089   6.245  13.567
68608W        W36826   3.478   7.753   1.051
68609W        W36827  37.829  28.058   2.942
68610W        W36828  41.758  28.814   4.619
68611W        W36829  23.161  43.947  10.972
68612W        W36830  37.425   0.214   4.148
68613W        W36831   6.048  21.436  11.747
68614W        W36832  34.606  30.759  13.377
68615W        W36833   1.465  38.545   0.602
68616W        W36834  11.656  11.642   2.287
68617W        W36835   1.306  35.861   1.325
68618W        W36836  43.539  41.146  11.220
68619W        W36837   4.489  14.928  14.496
68620W        W36838  40.012  40.778  14.410
68621W        W36839  21.976  40.458   2.677
68622W        W36840  27.260  13.691  14.851
68623W        W36841  28.872   4.792   2.795
68624W        W36842  23.827   8.679   3.533
68625W        W36843   1.212  37.659   1.647
68626W        W36844   7.740  18.277   1.943
68627W        W36845  24.098  29.763   0.709
68628W        W36846  18.561  37.086  12.489
68629W        W36847   2.368  44.485  12.544
68630W        W36848  31.168   7.934   0.409
68631W        W36849   0.315   6.652  12.550
68632W        W36850  12.974  25.081  12.697
68633W        W36851   1.219  28.599   0.826
68634W        W36852  20.406   5.266  10.472
68635W        W36853  44.698   4.774  13.511
68636W        W36854  33.646  31.758  12.618
68637W        W36855  18.451  25.046  13.102
68638W        W36856  24.455  25.973  13.977
68639W        W36857  24.965  44.341   0.758
68640W        W36858  43.274  39.287   4.206
68641W        W36859  16.647  15.122  11.404
68642W        W36860  27.656  25.211  12.867
68643W        W36861  14.620  43.701  11.223
68644W        W36862  16.382  35.054   0.273
68645W        W36863  44.746  10.310   4.935
68646W        W36864  41.219  25.571  11.609
68647W        W36865  32.643  23.466  10.618
68648W        W36866  17.516  11.197   2.324
68649W        W36867  37.974  34.599  11.655
68650W        W36868  25.811   0.213   0.310
68651W        W36869  28.626  23.932  13.793
68652W        W36870   8.305  16.102   2.737
68653W        W36871  34.652  17.419   3.229
68654W        W36872  26.033  26.643   2.368
68655W        W36873  41.331  19.965  12.921
68656W        W36874  18.320   0.404  13.190
68657W        W36875  42.461  35.463   1.196
68658W        W36876  32.618  18.695  13.406
68659W        W36877  41.483  43.690   0.314
68660W        W36878  28.537  42.239  12.533
68661W        W36879  26.741  25.484   0.931
68662W        W36880  43.458  22.803  13.839
68663W        W36881  11.756  18.837   4.159
68664W        W36882  24.147   5.411  11.063
68665W        W36883  30.942  27.148  12.938
68666W        W36884  13.842  39.770   0.270
68667W        W36885  14.865   3.793  14.233
68668W        W36886  34.958   1.923   5.097
68669W        W36887   1.175  39.188  13.082
68670W        W36888   1.262  34.166  13.414
68671W        W36889  33.910  15.210  11.247
68672W        W36890  26.440  42.612   1.284
68673W        W36891   4.497   4.446   3.149
68674W        W36892  30.665  30.433   2.835
68675W        W36893  14.116  33.109  12.541
68676W        W36894   9.567   8.319  13.890
68677W        W36895  37.294  23.275   2.626
68678W        W36896  28.126   4.652  13.900
68679W        W36897  33.062   2.016   3.735
68680W        W36898  33.382  29.781   1.820
68681W        W36899  23.497   8.224  12.822
68682W        W36900   8.385   7.449  12.702
68683W        W36901   8.486  17.890   4.061
68684W        W36902   6.634  39.328   3.358
68685W        W36903  32.461  20.736   0.654
68686W        W36904   7.940  40.517  11.616
68687W        W36905  18.106  14.133   2.604
68688W        W36906  42.999  31.113  10.933
68689W        W36907  39.345  33.934   0.798
68690W        W36908  26.406  36.049  13.326
68691W        W36909  25.852  13.531   1.778
68692W        W36910  27.141  38.472   3.661
68693W        W36911   4.855  28.251  13.798
68694W        W36912  11.911   2.162  12.430
68695W        W36913  34.528  30.387   0.140
68696W        W36914  30.900   4.604   4.040
68697W        W36915  40.901  39.515   2.932
68698W        W36916  27.506   0.979  10.653
68699W        W36917  37.594   4.122   2.147
68700W        W36918  33.825  36.827   3.294
68701W        W36919  18.657  36.639   1.316
68702W        W36920  23.036  19.311   3.606
68703W        W36921  14.535   1.740   0.500
68704W        W36922  36.343  12.841   0.306
68705W        W36923  32.703  21.791   3.824
68706W        W36924  29.682  26.072   4.547
68707W        W36925  31.212   1.275   4.666
68708W        W36926  44.540  15.816   4.063
68709W        W36927  37.350  41.367   4.307
68710W        W36928   9.087  40.851  11.348
68711W        W36929  40.817   4.740  12.895
68712W        W36930  14.913  12.535   1.252
68713W        W36931   0.687  20.028  11.139
68714W        W36932   2.306   0.594  14.385
68715W        W36933   1.898  35.282   4.030
68716W        W36934   2.902  36.071   3.848
68717W        W36935  36.347  18.293  12.013
68718W        W36936  12.598  39.412  11.704
68719W        W36937  25.217  22.395   3.450
68720W        W36938  11.908  18.149  10.699
68721W        W36939  32.980  12.165  10.495
68722W        W36940  25.753  34.169   2.378
68723W        W36941   6.297  26.612   1.455
68724W        W36942  11.020  44.880  12.375
68725W        W36943  10.711  30.548   1.040
68726W        W36944  36.089  31.470  14.380
68727W        W36945  21.250   1.815   4.011
68728W        W36946  12.312  38.955  11.029
68729W        W36947  15.581  18.401  10.631
68730W        W36948  11.727   0.516  11.048
68731W        W36949  26.729   5.734   4.119
68732W        W36950  30.911  27.434   0.970
68733W        W36951  34.654  10.777   0.946
68734W        W36952   8.083   8.931  12.571
68735W        W36953  20.767  20.172   4.658
68736W        W36954  42.874  19.528  12.527
68737W        W36955  11.594  40.586  14.829
68738W        W36956  21.643  33.304   4.464
68739W        W36957  33.041  22.096   3.569
68740W        W36958  16.814   1.886   2.190
68741W        W36959   6.405  41.521  11.324
68742W        W36960  27.670  41.438   4.133
68743W        W36961  14.236  27.938   4.602
68744W        W36962  40.934   4.308   4.425
68745W        W36963  44.221   4.810  14.953
68746W        W36964  28.973  21.999   4.018
68747W        W36965  14.693  24.455  11.440
68748W        W36966   7.805   7.309   3.918
68749W        W36967   0.964  31.088  10.549
68750W        W36968  26.636  34.241  10.101
68751W        W36969  14.198  43.364  11.146
68752W        W36970  16.263  20.260   1.533
68753W        W36971   5.930  41.489  11.599
68754W        W36972   0.921  43.068  13.075
68755W        W36973  34.849  12.195  11.717
68756W        W36974  42.140  36.540   2.415
68757W        W36975  15.472   3.345  13.908
68758W        W36976   5.550   4.745   4.518
68759W        W36977  34.554  22.729   0.756
68760W        W36978  37.116  32.148   2.287
68761W        W36979   7.913  24.919   3.664
68762W        W36980   0.296  22.787   0.818
68763W        W36981  35.528  27.429   3.085
68764W        W36982  27.881  26.490  11.608
68765W        W36983  18.060  15.976   1.695
68766W        W36984  24.512  24.106  12.441
68767W        W36985  36.484   6.621  11.189
68768W        W36986  32.007   7.100   1.707
68769W        W36987   3.387  23.308  14.477
68770W        W36988  41.306  33.155  11.086
68771W        W36989   6.375  40.964   4.052
68772W        W36990  41.863   7.609  14.123
68773W        W36991  37.547  41.983   3.699
68774W        W36992  33.355  18.672  14.737
68775W        W36993  21.207  38.287   0.961
68776W        W36994  41.343  32.022   2.380
68777W        W36995  23.717   8.179   0.449
68778W        W36996  33.237  10.130   2.667
68779W        W36997  33.561   8.306  14.310
68780W        W36998  17.090  10.167   4.605
68781W        W36999  43.980   5.790   4.167
68782W        W37000  43.065  15.630  12.394
68783W        W37001  14.641   6.976  13.974
68784W        W37002  36.938  14.786   3.616
68785W        W37003  18.261   9.304  10.665
68786W        W37004  39.359  41.184   2.283
68787W        W37005   8.790  28.639  13.282
68788W        W37006  27.980   6.947   3.294
68789W        W37007   7.270  23.630  12.046
68790W        W37008   4.544  35.950   4.943
68791W        W37009   2.836   7.437   1.226
68792W        W37010  16.162   7.281   1.975
68793W        W37011   0.435   3.279  14.394
68794W        W37012  12.354  30.896  11.617
68795W        W37013  33.223  33.103  13.535
68796W        W37014   9.349   9.658  12.157
68797W        W37015   7.848  39.695  11.994
68798W        W37016  38.402   1.165   3.256
68799W        W37017  39.770  21.397   2.223
68800W        W37018  19.667  41.999  13.076
68801W        W37019  41.649  35.652   1.399
68802W        W37020  21.577   3.477   3.795
68803W        W37021  27.164  29.504   2.897
68804W        W37022  35.572  44.894   4.640
68805W        W37023  35.336  31.491   2.490
68806W        W37024  11.336  24.701   3.334
68807W        W37025  24.153  26.446   3.725
68808W        W37026  24.400  14.372   2.339
68809W        W37027  43.359  32.345   2.679
68810W        W37028  17.365  44.411  14.217
68811W        W37029   2.935  18.117  14.407
68812W        W37030  22.391  27.161   1.288
68813W        W37031  37.500   8.369  14.862
68814W        W37032   4.000   4.788  14.457
68815W        W37033  43.815  24.001   0.337
68816W        W37034  29.796   0.283  11.276
68817W        W37035  42.187   8.431  12.606
68818W        W37036  23.633  30.287   0.363
68819W        W37037  10.395  20.123  12.419
68820W        W37038  11.819  37.111  11.198
68821W        W37039  44.368   7.797  11.450
68822W        W37040  28.653   8.736   2.331
68823W        W37041  32.580  15.572   0.676
68824W        W37042  36.409  44.204   4.686
68825W        W37043  35.492  31.456  13.548
68826W        W37044  28.916  25.098  11.099
68827W        W37045  19.071  28.907   0.315
68828W        W37046   6.622  24.495  13.512
68829W        W37047  31.513   8.214  14.423
68830W        W37048   9.439  19.063   4.289
68831W        W37049  23.355   9.415   1.293
68832W        W37050  41.498   1.459   1.180
68833W        W37051  13.320  27.444   1.812
68834W        W37052  24.688  42.322   3.961
68835W        W37053   0.525  23.063  10.541
68836W        W37054  15.291  26.058   4.197
68837W        W37055  18.623  34.821   4.192
68838W        W37056  26.739  41.641  11.665
68839W        W37057  13.681   3.135  12.545
68840W        W37058  26.520  10.758   2.762
68841W        W37059  10.085  38.129  11.031
68842W        W37060  44.967  14.241   4.267
68843W        W37061   0.294  24.232  14.046
68844W        W37062  24.512   4.390   3.644
68845W        W37063   0.037  16.171   3.419
68846W        W37064  23.988   0.426  12.243
68847W        W37065  39.462  20.626   0.937
68848W        W37066  10.840  26.991  13.987
68849W        W37067  37.394  16.176  14.330
68850W        W37068  33.120  21.178  13.455
68851W        W37069   2.172  37.322  14.112
68852W        W37070   5.149  35.502   4.593
68853W        W37071  35.085  13.525  12.000
68854W        W37072  27.849   5.313   3.662
68855W        W37073  13.046  22.622  12.558
68856W        W37074  21.875  27.555  11.089
68857W        W37075  40.925  11.942  14.760
68858W        W37076  18.776  42.946   2.654
68859W        W37077  27.019  37.143  11.334
68860W        W37078  30.223  30.911  11.039
68861W        W37079   2.920  16.929   3.320
68862W        W37080  37.414  39.601   3.598
68863W        W37081  35.470  27.413   0.787
68864W        W37082   0.089  41.870   4.157
68865W        W37083  44.253   9.326   4.222
68866W        W37084  10.101  29.559   3.278
68867W        W37085  22.129  25.694  10.702
68868W        W37086  27.986  35.135   3.137
68869W        W37087  41.467  34.505   4.080
68870W        W37088   8.435   2.208   0.694
68871W        W37089  24.519  17.185  13.291
68872W        W37090  16.091   9.306   0.217
68873W        W37091  42.343   3.048   2.261
68874W        W37092  39.337  23.395   4.894
68875W        W37093  20.814  13.170   2.941
68876W        W37094  10.297  11.142  14.791
68877W        W37095  14.667  42.436   1.920
68878W        W37096   6.106  41.049   2.643
68879W        W37097  18.046  11.785   1.238
68880W        W37098  20.764  22.557  11.438
68881W        W37099  31.639  37.021  12.380
68882W        W37100  21.456  23.262  13.311
68883W        W37101  23.732  41.524   1.869
68884W        W37102  42.476  39.429  11.640
68885W        W37103   7.399  43.363   0.386
68886W        W37104  43.790  43.939  10.537
68887W        W37105   7.434  32.040   2.790
68888W        W37106  33.970  11.419  13.584
68889W        W37107  41.991  29.897   3.114
68890W        W37108  29.997  16.567   3.627
68891W        W37109   9.091  34.669  13.892
68892W        W37110  44.798  43.325  11.145
68893W        W37111  10.153  34.298  14.460
68894W        W37112  39.867   3.966   3.668
68895W        W37113  31.828   0.906  10.432
68896W        W37114  39.462  39.590   3.694
68897W        W37115  40.435  36.610  14.992
68898W        W37116  31.009  29.397  14.032
68899W        W37117  18.969  14.071  12.071
68900W        W37118  13.332  11.207   2.479
68901W        W37119  30.951  31.646  10.601
68902W        W37120  11.590  34.609   3.214
68903W        W37121  29.327  19.941   2.485
68904W        W37122   9.080  40.432   4.570
68905W        W37123  20.222  14.821   0.049
68906W        W37124  29.195   3.751   0.436
68907W        W37125  33.458   6.439  14.431
68908W        W37126  30.906  22.635   0.221
68909W        W37127  37.383  18.471   4.994
68910W        W37128  40.933   2.471  14.558
68911W        W37129  13.016  37.057  11.563
68912W        W37130  15.067   7.203   3.809
68913W        W37131  25.529   8.628   4.138
68914W        W37132  23.048  33.250  13.492
68915W        W37133  21.267  28.596  14.295
68916W        W37134  39.869  31.618   3.550
68917W        W37135  19.320  16.586  12.105
68918W        W37136  27.144  12.804  11.949
68919W        W37137  28.948  30.634   3.864
68920W        W37138   0.257   9.229  14.394
68921W        W37139  31.397  39.883  14.371
68922W        W37140  19.769   8.044  10.726
68923W        W37141  43.934  36.658   4.415
68924W        W37142  37.704  16.977  11.107
68925W        W37143   2.423  28.936  11.932
68926W        W37144   2.785  27.687   4.735
68927W        W37145  18.067  37.918   0.303
68928W        W37146   6.907  43.428  11.113
68929W        W37147   9.317  41.245  10.365
68930W        W37148  15.020  25.817  13.546
68931W        W37149  27.549   8.202   1.388
68932W        W37150  13.604  20.928  12.789
68933W        W37151  41.740  18.010   4.565
68934W        W37152  44.956  10.816   1.641
68935W        W37153  29.184  37.433   1.247
68936W        W37154  41.619  20.801   2.564
68937W        W37155  19.464   3.029  10.869
68938W        W37156  23.919  42.671   2.284
68939W        W37157  22.904   8.297   0.695
68940W        W37158   4.194  39.098   3.702
68941W        W37159  43.282   7.447  11.423
68942W        W37160   8.701   9.063   1.003
68943W        W37161  22.330  28.972  13.915
68944W        W37162  18.612  29.363  14.319
68945W        W37163   3.325  17.591   3.733
68946W        W37164  26.610  16.131   2.085
68947W        W37165   7.805   6.078  13.321
68948W        W37166  10.766  36.154   1.866
68949W        W37167  29.138  12.478  11.952
68950W        W37168  25.386   9.297  13.477
68951W        W37169  44.346  43.841  13.456
68952W        W37170   9.113  14.681   1.334
68953W        W37171  36.305  39.944   2.344
68954W        W37172  10.828   4.870   4.056
68955W        W37173  37.792  22.596   4.070
68956W        W37174   0.582  32.460   2.342
68957W        W37175  41.274  37.261  12.037
68958W        W37176   9.731  18.644   3.214
68959W        W37177  28.845  26.646  13.694
68960W        W37178  41.625   1.887   0.930
68961W        W37179  32.496   1.196  14.476
68962W        W37180  20.268  26.701  12.003
68963W        W37181   8.888  10.583   2.201
68964W        W37182  24.062  34.931  13.583
68965W        W37183  30.112  22.023   2.679
68966W        W37184   3.791  43.435  11.039
68967W        W37185  20.627   5.403   2.631
68968W        W37186  36.507  40.108   4.221
68969W        W37187  26.589  11.866  13.500
68970W        W37188   6.166  19.281  13.409
68971W        W37189  28.687  16.667  10.745
68972W        W37190  16.032  17.772  13.392
68973W        W37191  43.730   8.890  11.612
68974W        W37192  36.221  41.785  14.790
68975W        W37193  18.279  24.350  14.259
68976W        W37194  12.361  33.077  11.085
68977W        W37195  20.475  22.025   0.303
68978W        W37196  27.621  41.237  14.515
68979W        W37197   8.875  33.583  10.553
68980W        W37198  35.511  37.020   2.685
68981W        W37199  30.068  20.154   1.292
68982W        W37200  29.481  25.559  12.992
68983W        W37201  25.024   5.351  12.536
68984W        W37202  35.772   2.794  14.910
68985W        W37203   3.069  41.449   1.872
68986W        W37204   8.917  34.576  12.923
68987W        W37205  43.399   2.275   0.856
68988W        W37206  25.921   9.251  13.272
68989W        W37207  28.173  10.636   2.333
68990W        W37208  40.322   0.824  14.536
68991W        W37209  43.225   2.022  12.938
68992W        W37210  10.212  11.723   1.345
68993W        W37211  10.528  44.098  14.845
68994W        W37212  38.992  39.064  13.977
68995W        W37213  39.142  18.370  11.160
68996W        W37214  40.653   1.613  14.616
68997W        W37215  18.060  35.448  14.732
68998W        W37216  20.235  13.623   1.848
68999W        W37217  31.473  23.429   1.071
69000W        W37218  11.436  38.728  14.833
69001W        W37219  21.537  23.717   0.930
69002W        W37220   0.688  11.502   1.878
69003W        W37221   6.468  44.317   4.148
69004W        W37222  39.810  24.265   0.484
69005W        W37223  15.915  14.679   0.462
69006W        W37224  21.887   4.704   3.091
69007W        W37225  14.751  30.454  11.414
69008W        W37226  14.742  27.000  14.323
69009W        W37227   9.215  34.171   9.910
69010W        W37228  33.956  37.364  12.782
69011W        W37229   7.509  33.067  14.275
69012W        W37230   4.861  36.224   1.303
69013W        W37231  23.543   3.853  10.934
69014W        W37232  10.862  15.221  14.480
69015W        W37233  18.483   1.175   1.239
69016W        W37234  16.214   6.727   0.739
69017W        W37235  34.796  26.149   3.227
69018W        W37236   7.557  35.144  11.146
69019W        W37237  16.304   5.917  11.200
69020W        W37238  27.440  23.033  11.038
69021W        W37239   6.680  21.104   3.097
69022W        W37240  10.673  39.576   1.047
69023W        W37241   7.273   4.929  11.483
69024W        W37242  39.593  20.295  12.305
69025W        W37243  21.246  30.077  12.793
69026W        W37244  41.027  30.596  14.081
69027W        W37245  30.096  36.922   3.183
69028W        W37246   8.445   2.178  10.690
69029W        W37247  13.831  14.289   0.912
69030W        W37248  16.505  15.165   4.602
69031W        W37249  21.310  14.388   0.391
69032W        W37250  27.502   4.606   4.586
69033W        W37251  11.895  21.013   2.845
69034W        W37252  11.569  39.624   2.818
69035W        W37253  27.532  32.992  10.361
69036W        W37254  19.717  28.330   0.044
69037W        W37255   2.078  27.974   4.250
69038W        W37256  12.485  23.485  13.721
69039W        W37257  25.236  37.577  12.547
69040W        W37258  10.398  36.355   4.739
69041W        W37259   5.177  37.872   0.917
69042W        W37260  36.897  20.009  14.725
69043W        W37261   5.189  34.867  14.994
69044W        W37262  20.643  16.259   4.952
69045W        W37263  31.910  34.413  10.244
69046W        W37264   3.270  23.617  11.001
69047W        W37265  44.447  15.319   3.899
69048W        W37266  18.676   3.585  13.936
69049W        W37267  19.616  18.528   3.157
69050W        W37268   6.390  32.885   3.259
69051W        W37269  27.123  31.101  13.918
69052W        W37270  36.221  42.295  11.692
69053W        W37271  14.372  29.982  13.803
69054W        W37272  40.079  20.231  11.046
69055W        W37273   2.538  38.998  12.054
69056W        W37274  23.920   9.294  13.709
69057W        W37275  36.010  37.029   4.366
69058W        W37276  42.148  11.169  10.723
69059W        W37277  34.153  14.231   2.688
69060W        W37278   5.320  23.253  13.131
69061W        W37279  31.502  39.219   4.129
69062W        W37280  24.261  29.857  11.171
69063W        W37281  22.882  34.096   4.187
69064W        W37282  16.305   8.326  11.560
69065W        W37283  37.142  23.543  13.422
69066W        W37284  21.270  43.977   0.191
69067W        W37285   4.227  34.061  12.511
69068W        W37286  30.578   9.131  10.667
69069W        W37287  10.736  34.713  14.832
69070W        W37288  22.478  42.959   3.820
69071W        W37289   2.878  19.258  13.481
69072W        W37290   2.279   0.877  10.603
69073W        W37291  30.704  17.184   3.391
69074W        W37292  42.376  27.948  13.495
69075W        W37293   9.203  19.807   0.667
69076W        W37294  34.890  32.981  10.715
69077W        W37295  12.744   7.386   4.358
69078W        W37296  12.372  35.333   2.333
69079W        W37297   2.192  11.204   3.351
69080W        W37298  28.892  10.915  13.465
69081W        W37299  36.728   3.763  11.163
69082W        W37300  15.118  12.108  12.012
69083W        W37301  24.243  38.841  13.256
69084W        W37302  35.337   2.239   4.054
69085W        W37303   5.167  41.867  11.338
69086W        W37304  22.695   7.983  12.076
69087W        W37305   8.497  38.458  11.693
69088W        W37306   8.725  15.281   0.667
69089W        W37307  22.764  34.832   3.795
69090W        W37308   0.802  18.446   3.351
69091W        W37309   2.679   7.828  14.477
69092W        W37310  42.040  16.946  12.523
69093W        W37311  10.840  10.559   3.292
69094W        W37312  27.622  43.807  10.845
69095W        W37313   4.175  35.893   3.240
69096W        W37314  28.653   7.674  11.799
69097W        W37315   2.626  40.878  13.085
69098W        W37316  25.615  42.570  14.742
69099W        W37317  30.862  29.574   2.953
69100W        W37318   5.532  20.451   4.471
69101W        W37319  39.894  37.681  13.368
69102W        W37320  27.173  13.764   1.710
69103W        W37321  27.075  13.872   3.342
69104W        W37322  31.953  37.113  11.058
69105W        W37323  29.867  42.824  14.358
69106W        W37324   6.465  17.678  14.831
69107W        W37325   7.814  39.519   2.660
69108W        W37326   5.765   1.623  11.177
69109W        W37327  32.005  34.944  14.051
69110W        W37328  35.331  40.383  14.032
69111W        W37329  32.669   2.668   1.664
69112W        W37330   0.536  20.265  14.564
69113W        W37331  13.735   1.439  11.121
69114W        W37332   5.418  22.201  12.980
69115W        W37333   1.830  19.251  12.390
69116W        W37334  14.773   0.886   9.893
69117W        W37335  11.654  25.063  13.536
69118W        W37336  40.530  38.529   2.304
69119W        W37337   8.261  42.407  13.292
69120W        W37338  40.121  14.835   1.761
69121W        W37339  25.338  34.080  12.121
69122W        W37340  42.832  13.882  13.212
69123W        W37341  44.942   5.489  13.912
69124W        W37342  39.711  41.899   1.830
69125W        W37343  19.543  29.165  13.314
69126W        W37344  20.086  15.145   3.297
69127W        W37345  40.363  14.320   4.127
69128W        W37346  38.558  36.875  12.045
69129W        W37347  29.570  18.193   4.473
69130W        W37348   8.389   1.313  11.211
69131W        W37349  12.736  13.838   2.647
69132W        W37350   9.571  38.875   3.073
69133W        W37351  42.894  40.760   1.509
69134W        W37352  17.705  21.824   0.857
69135W        W37353  40.963  19.194   1.428
69136W        W37354  24.157  14.294   1.875
69137W        W37355  44.682  19.303  10.624
69138W        W37356  27.471  40.095   1.752
69139W        W37357  34.363  29.148   3.160
69140W        W37358  22.884  17.469   0.916
69141W        W37359  20.034  20.290  12.060
69142W        W37360  12.948  20.291   3.629
69143W        W37361  15.083  30.894   0.928
69144W        W37362   4.859  17.873   4.084
69145W        W37363  41.406  12.887  13.987
69146W        W37364  26.553   7.067   1.524
69147W        W37365  38.592  30.680  13.038
69148W        W37366   0.897   8.667   4.185
69149W        W37367   8.768  16.873   0.675
69150W        W37368  26.258   4.723   3.356
69151W        W37369  25.072   4.772   1.274
69152W        W37370  44.553  16.147   3.588
69153W        W37371   2.723  28.952   4.212
69154W        W37372   6.439  23.609  13.508
69155W        W37373   0.223  14.371   2.266
69156W        W37374  22.823  30.719  10.489
69157W        W37375   1.906  32.192  12.953
69158W        W37376  31.722  44.951   2.489
69159W        W37377  36.808  22.259   0.283
69160W        W37378   7.870  31.915  10.304
69161W        W37379  30.086   2.529   4.633
69162W        W37380  31.506  40.235   3.349
69163W        W37381  30.088  23.562   1.544
69164W        W37382  12.786  44.196  13.090
69165W        W37383   3.416   1.971   2.238
69166W        W37384  19.703  44.886  13.354
69167W        W37385  40.963  19.232   0.499
69168W        W37386  29.903   4.717  10.205
69169W        W37387  41.104  19.781   4.143
69170W        W37388  27.789  16.304  14.737
69171W        W37389  42.203  11.134  11.554
69172W        W37390   7.864  32.463  12.480
69173W        W37391  29.974  26.199   0.688
69174W        W37392  11.718  42.049  12.868
69175W        W37393  39.464   0.423   4.958
69176W        W37394  34.411  44.485   4.629
69177W        W37395   6.368   5.171  10.532
69178W        W37396  27.753  27.940  11.483
69179W        W37397   3.048   3.466  13.581
69180W        W37398  38.360   1.240  14.979
69181W        W37399  15.266  41.443   3.707
69182W        W37400  42.206  22.840   4.137
69183W        W37401  21.675   5.431   4.701
69184W        W37402  27.509  17.502  12.591
69185W        W37403  33.589  38.111   2.374
69186W        W37404  28.966  23.635   0.431
69187W        W37405   3.199   5.239  10.636
69188W        W37406  29.899  40.249  14.802
69189W        W37407  19.578  27.927   0.909
69190W        W37408  27.927  25.759  10.584
69191W        W37409  34.571  30.886  11.986
69192W        W37410  33.262   5.511   4.235
69193W        W37411  28.655  41.495  14.430
69194W        W37412  41.562  36.095   1.652
69195W        W37413  17.096  26.045   0.741
69196W        W37414  18.767   0.263  11.696
69197W        W37415  16.789  43.979  14.404
69198W        W37416  27.201  31.006  11.603
69199W        W37417  18.516  27.999  12.073
69200W        W37418  28.629   5.008   3.914
69201W        W37419  42.575  19.157   1.926
69202W        W37420  25.174  12.884  13.537
69203W        W37421   8.895   8.805   2.760
69204W        W37422   0.089  44.951  14.284
69205W        W37423  29.712  12.068  10.786
69206W        W37424  15.738  14.658  14.983
69207W        W37425  11.411   1.256   0.031
69208W        W37426  13.829  16.816   0.503
69209W        W37427  29.181  11.805   4.958
69210W        W37428  37.663  22.064  14.844
69211W        W37429  21.770  15.592  12.428
69212W        W37430  40.302  35.579  12.894
69213W        W37431  27.221   8.913   4.076
69214W        W37432  18.224  32.363   4.339
69215W        W37433   7.912  35.451  12.401
69216W        W37434   5.295   3.416  14.003
69217W        W37435  20.103  15.109   1.320
69218W        W37436  40.297   9.631   1.441
69219W        W37437   4.307  34.392  13.614
69220W        W37438   6.834  12.149   0.464
69221W        W37439  34.470  39.172  13.791
69222W        W37440  12.864  43.760   2.357
69223W        W37441   1.776   2.339   3.926
69224W        W37442   5.201  22.782   1.284
69225W        W37443  20.420   7.394  11.542
69226W        W37444  11.189   5.327  11.271
69227W        W37445  18.543  23.137   3.598
69228W        W37446  40.845  41.306  14.326
69229W        W37447   8.913  14.680   0.340
69230W        W37448  18.222  20.562  14.409
69231W        W37449  43.948  19.577  13.459
69232W        W37450  39.902   5.416   2.286
69233W        W37451   3.626  28.936  12.412
69234W        W37452  12.956  37.485   1.226
69235W        W37453  12.766   1.735  11.964
69236W        W37454  38.885  31.353  14.707
69237W        W37455  38.410  15.307   0.869
69238W        W37456  38.521  26.161   4.450
69239W        W37457  27.978  10.866  13.400
69240W        W37458  38.511  42.760   3.166
69241W        W37459  36.884  35.982  10.706
69242W        W37460  21.926  17.310  12.589
69243W        W37461  40.322  41.743   3.163
69244W        W37462  20.220  34.614  14.786
69245W        W37463  14.840  18.127   0.542
69246W        W37464  27.564  21.008  11.939
69247W        W37465  29.504  40.795  12.953
69248W        W37466  32.713  33.876   1.200
69249W        W37467  30.067   0.755   1.890
69250W        W37468  33.761  31.715   2.829
69251W        W37469   4.790  26.395   2.411
69252W        W37470  39.435   0.026   2.183
69253W        W37471  31.912  26.915  13.315
69254W        W37472  42.510  11.287  11.957
69255W        W37473  26.036  38.990  14.678
69256W        W37474  17.873  15.165   0.852
69257W        W37475  23.203  19.010   4.001
69258W        W37476  44.274  23.266   2.322
69259W        W37477   7.301  22.787  13.304
69260W        W37478  27.648  33.941  14.056
69261W        W37479  18.362  12.453   4.460
69262W        W37480  17.143  27.902   1.368
69263W        W37481  21.309  26.111  12.332
69264W        W37482   6.021  22.137  11.443
69265W        W37483  29.229  35.490  14.213
69266W        W37484  40.985  25.735  12.051
69267W        W37485  12.014  34.966   4.218
69268W        W37486  42.389   2.001   0.246
69269W        W37487  41.027  44.264   1.279
69270W        W37488  13.682  32.995  12.783
69271W        W37489  27.389   4.460   0.449
69272W        W37490  40.614  22.960  12.377
69273W        W37491  26.426  41.401   1.724
69274W        W37492  35.521  34.183  14.577
69275W        W37493   2.031   3.918   3.170
69276W        W37494  21.090  10.758   3.648
69277W        W37495  31.312  25.517  13.057
69278W        W37496  18.392  28.789   4.088
69279W        W37497  39.975  10.993  12.603
69280W        W37498  10.358   9.586  10.577
69281W        W37499  34.741  29.399   2.848
69282W        W37500  20.785  31.712  11.601
69283W        W37501  44.446  14.120   4.046
69284W        W37502  39.354  44.802   0.788
69285W        W37503  19.899  41.872  12.632
69286W        W37504  27.017  43.362   4.504
69287W        W37505  18.233  33.426  13.813
69288W        W37506  17.055  26.170  13.917
69289W        W37507   0.856  14.072  10.298
69290W        W37508  33.446  30.245   3.840
69291W        W37509   8.377   4.347   2.264
69292W        W37510  10.136  22.374   5.100
69293W        W37511  14.134  10.668   3.215
69294W        W37512  32.145   5.154   4.891
69295W        W37513  17.633   1.097  14.264
69296W        W37514  30.661   3.516  13.864
69297W        W37515  40.610  39.343   1.880
69298W        W37516   4.100  40.362   9.662
69299W        W37517  27.121  44.538   0.462
69300W        W37518  25.102  15.349  10.530
69301W        W37519  15.054  18.694   0.047
69302W        W37520  41.568  17.575  14.307
69303W        W37521  37.540   2.173   3.236
69304W        W37522  31.137  27.167   4.156
69305W        W37523   0.685  39.209  12.814
69306W        W37524  43.048   8.924   1.257
69307W        W37525   0.599  16.965   4.883
69308W        W37526  19.042  11.999   1.650
69309W        W37527  17.319  19.828   4.083
69310W        W37528   2.788  21.185   4.765
69311W        W37529  44.265   3.199   1.258
69312W        W37530  32.113  33.411   1.835
69313W        W37531  44.955  24.367   1.339
69314W        W37532  20.760  10.736  14.023
69315W        W37533  29.306  37.610  14.204
69316W        W37534  20.749  18.230  14.474
69317W        W37535  27.025  30.541  13.422
69318W        W37536  10.882   5.853   0.250
69319W        W37537   6.906  13.147   2.296
69320W        W37538  27.160  10.859  13.977
69321W        W37539  11.690  10.358  12.384
69322W        W37540   1.569  40.579   1.845
69323W        W37541  20.617   2.736  12.566
69324W        W37542   2.298  21.581   2.939
69325W        W37543  20.170  30.745   3.125
69326W        W37544   7.856  25.021  11.065
69327W        W37545  30.662   6.200   2.222
69328W        W37546  39.957  17.419   4.535
69329W        W37547   7.846  16.226  12.582
69330W        W37548  32.495   7.831   1.524
69331W        W37549  44.432   3.415   9.914
69332W        W37550  16.165  12.328   1.440
69333W        W37551  28.894   4.653   4.193
69334W        W37552  15.297  25.040   1.748
69335W        W37553  42.982  24.239   3.174
69336W        W37554  30.182   6.353   3.095
69337W        W37555  21.799  10.640   3.760
69338W        W37556   0.952  29.123   4.084
69339W        W37557   8.952  42.525  13.132
69340W        W37558  38.311  12.939   3.732
69341W        W37559  27.412   4.432  11.926
69342W        W37560   7.646  41.765   3.400
69343W        W37561   9.377  21.065  14.771
69344W        W37562   1.386  14.295   0.372
69345W        W37563   2.759  13.035  12.076
69346W        W37564  18.076  26.751  12.729
69347W        W37565  34.146  36.976   2.438
69348W        W37566  26.927  20.714  11.928
69349W        W37567  32.380  38.484   0.576
69350W        W37568   7.386   8.741   1.306
69351W        W37569  15.272  39.532   4.654
69352W        W37570  30.578  24.791   2.741
69353W        W37571  15.560  38.767  14.878
69354W        W37572  14.187  17.237  10.752
69355W        W37573  23.544  23.543  14.429
69356W        W37574  22.773  15.247  14.986
69357W        W37575   4.992   1.375  11.590
69358W        W37576  29.755  17.197  11.679
69359W        W37577  13.988  17.360   5.091
69360W        W37578   3.773   6.210  11.151
69361W        W37579  39.982   6.276  11.150
69362W        W37580  30.498  30.543   2.155
69363W        W37581  23.454  24.518   2.278
69364W        W37582  10.735   5.365  13.401
69365W        W37583  20.094  23.458  13.321
69366W        W37584  16.949  40.489   1.813
69367W        W37585  29.959   0.352  14.994
69368W        W37586  38.440  29.428   1.658
69369W        W37587  12.170   8.999  12.638
69370W        W37588  36.484  32.582   3.847
69371W        W37589   6.503  29.372  13.506
69372W        W37590  37.942  22.921   4.934
69373W        W37591  35.395  28.351   0.828
69374W        W37592  27.516  23.974  14.900
69375W        W37593  16.492   3.962   3.198
69376W        W37594  39.405   9.475   1.821
69377W        W37595  15.334  12.914  12.819
69378W        W37596  36.570   4.701   1.274
69379W        W37597  42.870  13.674  10.972
69380W        W37598  11.112  42.369  14.001
69381W        W37599   6.127  29.101   1.949
69382W        W37600  12.286  16.616   3.132
69383W        W37601  13.298  37.659  12.042
69384W        W37602  34.307   0.715   2.278
69385W        W37603   5.457  37.933   3.323
69386W        W37604  14.245  21.704   2.677
69387W        W37605   9.661   4.319   2.652
69388W        W37606  26.757   4.210  13.352
69389W        W37607   1.451   3.003  14.501
69390W        W37608  29.823  16.428  12.534
69391W        W37609  33.786  35.449   3.384
69392W        W37610  21.547  22.616   1.004
69393W        W37611   7.681  34.534  12.170
69394W        W37612  43.009  16.940  13.996
69395W        W37613  14.878   3.364   4.145
69396W        W37614  15.577  10.457   2.201
69397W        W37615  43.233  20.604  11.661
69398W        W37616   6.898  12.681  10.843
69399W        W37617   1.871  35.877  12.585
69400W        W37618  34.470  43.280   3.203
69401W        W37619  12.532  28.050   0.455
69402W        W37620  23.013  20.760  10.357
69403W        W37621  31.997   3.395  14.780
69404W        W37622  40.270  16.128  14.557
69405W        W37623  38.985  13.057  11.536
69406W        W37624  15.751  44.433  13.389
69407W        W37625  18.396  31.149  13.401
69408W        W37626   2.266   8.267   4.469
69409W        W37627  40.418  23.309   0.835
69410W        W37628  13.422  17.455   1.029
69411W        W37629  21.163  15.272   4.078
69412W        W37630   4.573  12.362  13.046
69413W        W37631   4.525  13.694   0.307
69414W        W37632  30.118  24.515  11.037
69415W        W37633  36.991  25.619  14.322
69416W        W37634  40.919  36.828  14.965
69417W        W37635  44.203  37.063  10.940
69418W        W37636  32.548  25.646  12.659
69419W        W37637  20.107  44.320   1.411
69420W        W37638  14.280   2.517  14.704
69421W        W37639  20.309  20.852   3.555
69422W        W37640  21.137  31.654   1.953
69423W        W37641  22.671  39.536  12.684
69424W        W37642  29.706   5.846  10.515
69425W        W37643  11.570  42.392  14.870
69426W        W37644   8.067  25.996  12.859
69427W        W37645  20.735  42.630   3.418
69428W        W37646  39.445  27.279   3.405
69429W        W37647  25.206  42.022   3.179
69430W        W37648   0.452  43.046   1.888
69431W        W37649  44.287  34.227   2.365
69432W        W37650  40.874  28.154  11.479
69433W        W37651  44.727   2.777   1.346
69434W        W37652  27.194   6.976  13.462
69435W        W37653  35.407  24.189   1.179
69436W        W37654  27.644  13.173   4.221
69437W        W37655   9.456  41.076   2.655
69438W        W37656  13.314  44.020  13.062
69439W        W37657  10.322  31.134  10.743
69440W        W37658   8.375   8.103  11.274
69441W        W37659  40.268   7.728   1.188
69442W        W37660  18.146  28.702  13.823
69443W        W37661  20.560  22.985  14.303
69444W        W37662   7.323  44.521   5.006
69445W        W37663  21.114  13.813   4.700
69446W        W37664   3.187  14.293   2.337
69447W        W37665   1.417  35.052   3.565
69448W        W37666  36.827  36.022   1.201
69449W        W37667  16.124   8.157  11.117
69450W        W37668  34.394  37.420   1.187
69451W        W37669  16.792  11.190  12.408
69452W        W37670  19.160  21.175  11.747
69453W        W37671  18.316   8.833   0.345
69454W        W37672  27.659  39.269   1.453
69455W        W37673  35.710  43.450   4.598
69456W        W37674  36.272  42.806   0.202
69457W        W37675  14.135  12.886  11.372
69458W        W37676  17.244  17.461  11.400
69459W        W37677  38.849   1.546   4.928
69460W        W37678  19.355   0.542   2.694
69461W        W37679  34.819   9.334   3.638
69462W        W37680  38.955  13.059  10.654
69463W        W37681  35.944  28.909   1.285
69464W        W37682  24.050   8.361   1.788
69465W        W37683  24.470  30.156  13.020
69466W        W37684  15.800   5.161  14.117
69467W        W37685  44.416  17.549  10.955
69468W        W37686  14.512  30.999   3.431
69469W        W37687  28.139   4.688  10.601
69470W        W37688  35.518  18.061   1.273
69471W        W37689  28.420  12.508   2.256
69472W        W37690   1.852  26.302  12.857
69473W        W37691  11.232  14.582  13.335
69474W        W37692  42.056  35.483  13.074
69475W        W37693  23.099  31.236  11.032
69476W        W37694  15.045  40.973  11.429
69477W        W37695  28.113  17.099   0.889
69478W        W37696  35.751  36.568   2.681
69479W        W37697  40.811  10.355  12.362
69480W        W37698  39.567  21.417  12.713
69481W        W37699   3.147   6.777  10.495
69482W        W37700  27.962  41.434   5.078
69483W        W37701  15.857  43.574   1.405
69484W        W37702   7.330  34.574   0.293
69485W        W37703  13.102  25.124  14.943
69486W        W37704  16.833  44.006   5.061
69487W        W37705  31.881   6.379  11.787
69488W        W37706   2.873   6.367   1.047
69489W        W37707  26.353  23.561   2.247
69490W        W37708  42.308  34.372  11.894
69491W        W37709  31.948  30.077   4.607
69492W        W37710  12.120   8.310  10.677
69493W        W37711  15.629  33.771   2.506
69494W        W37712   0.276  12.855   0.668
69495W        W37713  29.298   6.964  14.359
69496W        W37714  39.267  10.618   4.018
69497W        W37715  36.960  30.497   4.505
69498W        W37716  10.878  40.273   3.787
69499W        W37717  11.293   0.897   1.314
69500W        W37718  43.673  29.977   3.078
69501W        W37719  34.900  21.417  14.749
69502W        W37720  37.597  29.570   3.203
69503W        W37721   4.223  31.135   4.718
69504W        W37722  41.271  34.889   3.342
69505W        W37723  32.437  38.797   3.800
69506W        W37724  42.607  42.402   1.207
69507W        W37725  14.910   3.596  11.663
69508W        W37726  31.898  26.282  11.824
69509W        W37727  30.049  37.156  13.388
69510W        W37728  18.778  10.752   1.157
69511W        W37729   9.736  12.532  12.576
69512W        W37730   2.901  43.488  14.935
69513W        W37731  22.765  39.823   3.621
69514W        W37732   4.722  10.862   2.193
69515W        W37733  41.053   6.373  13.611
69516W        W37734   3.400  20.520   3.655
69517W        W37735  15.627  29.900  11.366
69518W        W37736   1.957  41.862   2.774
69519W        W37737  23.077  43.797  13.939
69520W        W37738  20.769  24.149   1.447
69521W        W37739  34.951  32.485   0.520
69522W        W37740  35.221  23.283   0.108
69523W        W37741  26.694  17.039  12.023
69524W        W37742  13.020  44.711  12.365
69525W        W37743  26.989   7.775  14.323
69526W        W37744  26.109  38.043  13.680
69527W        W37745   2.422  24.970  12.683
69528W        W37746  25.018  25.201  11.214
69529W        W37747  37.992  12.685   2.387
69530W        W37748  20.295  36.786   2.112
69531W        W37749   2.991  28.498   4.244
69532W        W37750  21.287  36.013  13.902
69533W        W37751  21.724  25.677   4.664
69534W        W37752  18.060  21.309  11.741
69535W        W37753  29.697  37.306  13.031
69536W        W37754   4.432  18.609  12.088
69537W        W37755   0.412  40.326  11.622
69538W        W37756   8.763  23.898   1.954
69539W        W37757  24.824  15.330  14.044
69540W        W37758  41.956  30.657  13.829
69541W        W37759  28.564   0.409  12.393
69542W        W37760  23.253   5.479   0.103
69543W        W37761  22.228  14.326   1.351
69544W        W37762  41.834  22.592  13.584
69545W        W37763  22.277  29.546   4.557
69546W        W37764  26.226  28.126  13.048
69547W        W37765  10.973  14.463   0.555
69548W        W37766  34.536  41.564  11.497
69549W        W37767  14.231  21.769   0.392
69550W        W37768  41.805  37.285  10.459
69551W        W37769  23.518  24.567  11.909
69552W        W37770   1.112  40.092   2.661
69553W        W37771  10.862  16.193   5.202
69554W        W37772  30.903  39.474  13.308
69555W        W37773  33.207  15.191  13.103
69556W        W37774  41.872  12.157   1.262
69557W        W37775  41.913  40.860  14.006
69558W        W37776  27.564  19.014   1.895
69559W        W37777  40.582  10.011  12.037
69560W        W37778  23.726   6.235  11.474
69561W        W37779  40.352  34.182   4.187
69562W        W37780  17.879   4.908   3.662
69563W        W37781   0.953  37.453   4.148
69564W        W37782  21.128   5.826  10.127
69565W        W37783  18.077  39.483  11.113
69566W        W37784  12.412  26.013  11.668
69567W        W37785  20.088  29.530  12.569
69568W        W37786  26.460  29.091   2.769
69569W        W37787  31.123   3.508   2.700
69570W        W37788   3.777   8.512  11.496
69571W        W37789  15.351  36.515  10.664
69572W        W37790  42.572  17.685  10.635
69573W        W37791   7.298  11.417   2.005
69574W        W37792   2.678  14.802  14.593
69575W        W37793  39.098   4.593   4.195
69576W        W37794  28.231   1.165   0.940
69577W        W37795  23.073  39.940   2.207
69578W        W37796  24.491  41.480   0.644
69579W        W37797  25.984  14.041  13.535
69580W        W37798   5.707  30.727  11.093
69581W        W37799  15.703  40.397  10.700
69582W        W37800  33.304  12.150   4.931
69583W        W37801  38.833  44.493  11.102
69584W        W37802  23.277  34.076  13.006
69585W        W37803  11.899  32.829   0.493
69586W        W37804  33.917  38.587   0.203
69587W        W37805  23.078  19.955   4.435
69588W        W37806  22.640  10.075   4.682
69589W        W37807  33.429   7.366   2.716
69590W        W37808  27.192  16.356  14.009
69591W        W37809  40.462  19.232  12.402
69592W        W37810  37.788  30.407  11.245
69593W        W37811  32.193  20.971   4.940
69594W        W37812  42.080  30.025   0.172
69595W        W37813  30.406   9.399   0.030
69596W        W37814  36.122  44.552  12.600
69597W        W37815  17.835  27.331   2.397
69598W        W37816  43.969   2.237  10.543
69599W        W37817  10.272  21.502  10.440
69600W        W37818  16.131  19.495   4.614
69601W        W37819   8.395  33.974  11.209
69602W        W37820  27.458  15.070   1.187
69603W        W37821  29.553   1.434   4.645
69604W        W37822  41.036  29.078   1.265
69605W        W37823  30.405  37.131  11.501
69606W        W37824  36.351   0.323   5.581
69607W        W37825   5.191  40.726   0.880
69608W        W37826   6.160  23.907   1.200
69609W        W37827  22.562  19.287   2.264
69610W        W37828   2.781  28.880   2.301
69611W        W37829  26.384  27.643  10.654
69612W        W37830  21.019  21.282   3.743
69613W        W37831   1.864   8.129   2.262
69614W        W37832  30.244  32.041   4.616
69615W        W37833  22.592  11.410  11.117
69616W        W37834  17.195  43.758  11.669
69617W        W37835  32.470  30.453  12.106
69618W        W37836  21.901  35.501   3.170
69619W        W37837  22.220   5.713  12.974
69620W        W37838  15.911   5.351   0.466
69621W        W37839  43.505   1.763   3.803
69622W        W37840  10.131  15.366  11.424
69623W        W37841  24.067  23.951   1.392
69624W        W37842  17.309  31.945   3.325
69625W        W37843  24.138  24.409   1.607
69626W        W37844  21.522  36.823   1.332
69627W        W37845  44.447  40.994  11.178
69628W        W37846  33.373  25.493  14.768
69629W        W37847  26.080  19.101   3.070
69630W        W37848  12.064   6.809   3.298
69631W        W37849  38.568  23.040   3.975
69632W        W37850   3.712  18.833   4.065
69633W        W37851   9.081  43.356  11.262
69634W        W37852   6.931  36.310  12.406
69635W        W37853   9.796   3.463   2.785
69636W        W37854   0.049   0.845  14.652
69637W        W37855  16.673  25.087   0.570
69638W        W37856  34.049   6.854  13.907
69639W        W37857  22.558  11.728  10.717
69640W        W37858  44.950   1.748   2.433
69641W        W37859  14.818   2.771  11.970
69642W        W37860  31.223  18.977   3.851
69643W        W37861   8.656   8.297  12.127
69644W        W37862   3.235  12.774  11.520
69645W        W37863  29.525   1.153  10.100
69646W        W37864  10.472  18.813  11.199
69647W        W37865  29.885   1.291  14.848
69648W        W37866  24.382  25.465   1.998
69649W        W37867   0.289  13.209  13.813
69650W        W37868  38.609  31.024  14.021
69651W        W37869  41.793  43.395  11.442
69652W        W37870   3.267  39.424  10.594
69653W        W37871   6.924  20.547  11.131
69654W        W37872   4.240  29.662  14.838
69655W        W37873  23.049  27.465  13.313
69656W        W37874   3.203  38.267  12.644
69657W        W37875  35.967   1.642   2.391
69658W        W37876  15.677  28.922   2.584
69659W        W37877  14.067  32.507  13.831
69660W        W37878  36.503  39.338   1.919
69661W        W37879  42.562   2.372  14.455
69662W        W37880  16.053  26.923   1.771
69663W        W37881  26.632  37.832   4.170
69664W        W37882  39.489  24.848  10.532
69665W        W37883  23.381  34.992  13.133
69666W        W37884  22.262  13.267   3.215
69667W        W37885  27.973  24.670  11.964
69668W        W37886   8.838  25.005   3.640
69669W        W37887   6.129  27.491  11.520
69670W        W37888  15.520  15.105   4.561
69671W        W37889  35.928  44.708  12.154
69672W        W37890  10.313  15.090  10.658
69673W        W37891  30.466  41.737   2.311
69674W        W37892  31.841  16.613   0.267
69675W        W37893  18.588  44.931  12.981
69676W        W37894   5.854  36.177   0.315
69677W        W37895  37.573  14.125  14.043
69678W        W37896   4.359  23.539   1.906
69679W        W37897   8.863  24.037  11.522
69680W        W37898   2.800  37.025  10.446
69681W        W37899  22.840  35.552  10.737
69682W        W37900  44.013  12.847   1.891
69683W        W37901  43.946  28.413  11.009
69684W        W37902  28.014  22.704  11.706
69685W        W37903   9.648  17.615   4.102
69686W        W37904  42.823  40.575   0.966
69687W        W37905  33.329  44.870   0.165
69688W        W37906  25.221  37.303  12.982
69689W        W37907  38.501  26.350  10.485
69690W        W37908   1.412  32.382  13.010
69691W        W37909  26.656  15.359  12.603
69692W        W37910  39.762  20.500   2.921
69693W        W37911   6.127  24.095  10.575
69694W        W37912   1.925  26.671   3.469
69695W        W37913   6.328  40.694  14.676
69696W        W37914   9.205  11.353  11.989
69697W        W37915  12.118   3.910   4.155
69698W        W37916  31.602   4.066   1.826
69699W        W37917   6.709  44.854  11.537
69700W        W37918   8.553  22.599   1.665
69701W        W37919  34.614  42.277  12.487
69702W        W37920  20.015  37.959   2.572
69703W        W37921   8.361  42.184   2.301
69704W        W37922  29.902  35.156  14.926
69705W        W37923  40.363   4.656  10.741
69706W        W37924  39.356  12.330  11.906
69707W        W37925   3.480  20.556   1.517
69708W        W37926  40.297  31.102   0.258
69709W        W37927  27.876  18.050  10.245
69710W        W37928  21.389  40.295  10.757
69711W        W37929  14.111   5.640  11.952
69712W        W37930  27.756  35.646  13.416
69713W        W37931   8.843  18.232   5.478
69714W        W37932  19.742  44.192   3.311
69715W        W37933  27.433  13.380  10.747
69716W        W37934   7.748  30.531  14.859
69717W        W37935  34.823  40.887   0.268
69718W        W37936  21.521  27.595   3.552
69719W        W37937  18.598  34.796  12.933
69720W        W37938   4.204  20.120   1.347
69721W        W37939  20.086  14.338  14.836
69722W        W37940   3.327  30.631  10.708
69723W        W37941  23.089  33.931  14.236
69724W        W37942  12.333  44.555  13.391
69725W        W37943   6.696  31.522  13.481
69726W        W37944  34.617  40.972   2.780
69727W        W37945   2.968  17.194   4.631
69728W        W37946  35.009  23.694  13.079
69729W        W37947  33.867   6.239   3.647
69730W        W37948  16.999   0.539   3.718
69731W        W37949   5.699  24.535   3.907
69732W        W37950   1.212  34.325  13.965
69733W        W37951   3.908  43.940  12.470
69734W        W37952   0.289  38.206  14.997
69735W        W37953   7.653  40.956  11.647
69736W        W37954  25.307  30.917   0.876
69737W        W37955   0.397  12.526   4.192
69738W        W37956  19.066  23.489   3.750
69739W        W37957  31.584  10.472   4.525
69740W        W37958  44.448   0.259  13.446
69741W        W37959   3.402   7.349  12.070
69742W        W37960  21.750  13.399  11.988
69743W        W37961   8.872  42.969  12.386
69744W        W37962  34.712   4.193   0.461
69745W        W37963  37.045   2.780   0.493
69746W        W37964   5.277  13.979  13.205
69747W        W37965  32.097   4.776   0.424
69748W        W37966  26.857  37.445   5.057
69749W        W37967   9.827   4.097  11.885
69750W        W37968  27.977  25.107   2.644
69751W        W37969  33.472   2.806   3.683
69752W        W37970  14.129  30.410   3.227
69753W        W37971  17.731  41.726   0.380
69754W        W37972  31.404  31.026   1.272
69755W        W37973  22.009  39.012   3.365
69756W        W37974   5.954  22.758   1.762
69757W        W37975  25.460  13.079   3.246
69758W        W37976   2.227  35.949   2.666
69759W        W37977  40.589  35.284  14.359
69760W        W37978  15.580   2.472  13.921
69761W        W37979  21.219   7.294   1.788
69762W        W37980  25.242  29.135   4.092
69763W        W37981  32.332  26.155  11.036
69764W        W37982  43.681  14.319  10.733
69765W        W37983   1.193  12.114   4.192
69766W        W37984   3.186  31.101  14.495
69767W        W37985  19.857   8.536  14.838
69768W        W37986  43.903   8.499  13.086
69769W        W37987  19.466  43.089   3.072
69770W        W37988  29.429   9.245  10.937
69771W        W37989  30.466  43.518  13.444
69772W        W37990  44.820  24.904   3.133
69773W        W37991  31.007  34.658  11.824
69774W        W37992  24.769  19.140  12.334
69775W        W37993  20.207  23.974   2.119
69776W        W37994   1.215  42.893  10.817
69777W        W37995  41.793  28.977   0.024
69778W        W37996  25.008  40.408   0.816
69779W        W37997  28.637   2.978  11.126
69780W        W37998  15.832  11.610  12.909
69781W        W37999   1.421  25.925  12.882
69782W        W38000  38.008  17.345  14.506
69783W        W38001  44.379   0.428   2.322
69784W        W38002  19.461  33.101  11.657
69785W        W38003   7.639  35.031  11.642
69786W        W38004  23.264  12.086   4.078
69787W        W38005  29.565  27.709   1.695
69788W        W38006  19.039  22.589   0.885
69789W        W38007  16.167  35.093  10.861
69790W        W38008  25.076  29.971   4.781
69791W        W38009  14.296  10.576   4.740
69792W        W38010   3.212  42.356  14.501
69793W        W38011  16.719  36.842  11.112
69794W        W38012  42.427  19.361   3.528
69795W        W38013  29.842   4.765  13.290
69796W        W38014  31.512  16.441  11.936
69797W        W38015  39.871   1.717   0.250
69798W        W38016  43.418  27.602  12.571
69799W        W38017  30.903  36.478  14.757
69800W        W38018  33.539  14.592  11.602
69801W        W38019  18.342  35.053   1.720
69802W        W38020  17.288  32.085  11.465
69803W        W38021  39.948   1.210   0.214
69804W        W38022   8.069  26.454  10.450
69805W        W38023  30.261  21.399  13.382
69806W        W38024   3.147   8.464   2.183
69807W        W38025  14.994   1.729   4.979
69808W        W38026   2.995  37.548  14.496
69809W        W38027  29.458   4.289  11.626
69810W        W38028  26.031  42.447   3.245
69811W        W38029   4.032  24.163   2.339
69812W        W38030   9.937  32.184   0.440
69813W        W38031  41.337  18.334  11.551
69814W        W38032  30.910   4.667   3.223
69815W        W38033  23.935   6.700  14.861
69816W        W38034  21.744  21.266   0.727
69817W        W38035  24.201  29.521  12.927
69818W        W38036  26.340  13.893   0.873
69819W        W38037   5.955  26.364   4.065
69820W        W38038  21.719  41.771  10.518
69821W        W38039  30.354  37.485   4.337
69822W        W38040  13.575   0.306  12.425
69823W        W38041  43.100  24.640  12.238
69824W        W38042  30.035  36.335  13.971
69825W        W38043  21.141  16.041  13.767
69826W        W38044  27.672   0.701  12.481
69827W        W38045  12.369  28.621  12.536
69828W        W38046  29.560  13.077  14.481
69829W        W38047   4.705   0.973   1.637
69830W        W38048   5.428  33.753  13.691
69831W        W38049  24.041   1.653   4.906
69832W        W38050  26.166  13.660   0.455
69833W        W38051  34.818  16.905   1.875
69834W        W38052  38.099  44.871   0.807
69835W        W38053  30.008  33.909   4.069
69836W        W38054  20.266  24.819   3.792
69837W        W38055  26.902  41.499  10.762
69838W        W38056  16.940  17.550   2.878
69839W        W38057   8.950  33.005  14.677
69840W        W38058  39.334  10.635   0.384
69841W        W38059  20.144   6.971   2.247
69842W        W38060  30.206  21.248  14.903
69843W        W38061  35.888  38.576   2.073
69844W        W38062  31.973  40.055  12.724
69845W        W38063  29.061  32.462   2.382
69846W        W38064   6.847  21.194  12.135
69847W        W38065  13.715  31.929  12.432
69848W        W38066  28.050  16.885   2.768
69849W        W38067   0.976  17.638  13.556
69850W        W38068  30.754  22.020   3.765
69851W        W38069  11.306  24.346   4.107
69852W        W38070  18.329   8.325  11.851
69853W        W38071   5.853  31.020   1.321
69854W        W38072  30.137  10.883   0.869
69855W        W38073   0.353  38.320   0.927
69856W        W38074  29.447  25.010   4.051
69857W        W38075   0.970  30.928   3.646
69858W        W38076  29.429  10.206   4.554
69859W        W38077  29.524  37.839   0.030
69860W        W38078  18.619   7.851   3.563
69861W        W38079  26.019   8.650   3.205
69862W        W38080  39.062  19.798   4.189
69863W        W38081  36.278  12.604   2.786
69864W        W38082   6.469   3.426   4.106
69865W        W38083   7.998  40.080   1.088
69866W        W38084  43.912  29.922  12.458
69867W        W38085  35.468  36.024  11.910
69868W        W38086  41.398  43.796  13.815
69869W        W38087   0.751  32.561  12.643
69870W        W38088  25.513  30.360  13.345
69871W        W38089  24.321  13.794   1.804
69872W        W38090  18.685  25.004  13.950
69873W        W38091   4.933  44.231   3.141
69874W        W38092   6.311   8.987   2.765
69875W        W38093  37.877  13.363  14.891
69876W        W38094  13.247  33.206   1.934
69877W        W38095  25.636  15.011  14.321
69878W        W38096  15.140  23.950   3.750
69879W        W38097   1.941  26.751   4.002
69880W        W38098   9.738  40.489  14.263
69881W        W38099   2.421  13.306   1.111
69882W        W38100  31.420  21.511   3.818
69883W        W38101  19.617  16.233   2.951
69884W        W38102  44.524  33.944   2.732
69885W        W38103   1.408   4.439   2.569
69886W        W38104   1.923  32.583   0.058
69887W        W38105   1.321  21.801   2.293
69888W        W38106  18.075  18.153  13.331
69889W        W38107  16.206  40.934  14.481
69890W        W38108   3.362   3.534  12.410
69891W        W38109  44.236   8.837   2.764
69892W        W38110  23.463  43.693  14.392
69893W        W38111   7.678  36.802   2.683
69894W        W38112  36.633  12.107  12.888
69895W        W38113  13.713  19.705   1.659
69896W        W38114  31.062  14.256  10.781
69897W        W38115  15.683  38.613  12.603
69898W        W38116   1.737  26.703   2.539
69899W        W38117  36.105   9.314   0.422
69900W        W38118  30.861  37.113   0.926
69901W        W38119   1.301  16.047  13.792
69902W        W38120  42.041  15.069   0.845
69903W        W38121  10.914   2.206  12.646
69904W        W38122  29.354  22.607  11.047
69905W        W38123   0.714   3.191   2.276
69906W        W38124   2.344  40.946  13.540
69907W        W38125  27.973  40.196   3.622
69908W        W38126   1.308  26.667   0.148
69909W        W38127  44.313   9.613   4.668
69910W        W38128  29.253  35.791  11.144
69911W        W38129   2.934   6.657   0.167
69912W        W38130  17.629  11.614   0.961
69913W        W38131  22.381  23.731   3.951
69914W        W38132  12.459  43.414   2.256
69915W        W38133   7.239  19.196  11.491
69916W        W38134  30.726   1.007  12.933
69917W        W38135   3.471  25.362   3.641
69918W        W38136  32.460  29.851  13.481
69919W        W38137  24.008  42.460   1.418
69920W        W38138  18.460  37.133  14.237
69921W        W38139  44.340  11.262   2.199
69922W        W38140  44.262  18.102   0.326
69923W        W38141  23.694   8.709   4.012
69924W        W38142  22.375  33.237   9.831
69925W        W38143  42.703  29.610   1.879
69926W        W38144  31.125   6.924   1.124
69927W        W38145   7.284  32.996   0.219
69928W        W38146  35.343  17.344  10.616
69929W        W38147  11.087  33.217  10.724
69930W        W38148  32.104  37.683   4.135
69931W        W38149  22.049  22.225  11.223
69932W        W38150  38.432  39.293   0.864
69933W        W38151   8.853  19.084  13.526
69934W        W38152   2.909   3.740  12.616
69935W        W38153  27.694  13.754   3.803
69936W        W38154  42.765  19.226   0.541
69937W        W38155   5.142  38.661  12.529
69938W        W38156   4.269  25.368   0.516
69939W        W38157  36.519   8.708   5.025
69940W        W38158  27.242  39.612   1.370
69941W        W38159   8.581   5.203   1.687
69942W        W38160  15.250  41.291  14.559
69943W        W38161  10.159  17.569  14.317
69944W        W38162  41.465  41.088   0.715
69945W        W38163  30.974  43.033   0.428
69946W        W38164  39.917  22.427   4.607
69947W        W38165  19.104  23.434  14.756
69948W        W38166  36.268  12.902  12.507
69949W        W38167   8.446   1.530   4.020
69950W        W38168  36.343   9.251   3.236
69951W        W38169  26.982  44.992  11.978
69952W        W38170  25.041   2.275  10.706
69953W        W38171  20.710  36.453  11.212
69954W        W38172  33.831  10.631  12.836
69955W        W38173  29.900  30.120  13.460
69956W        W38174  24.056  10.340   2.617
69957W        W38175   0.021  11.429  11.962
69958W        W38176  29.529  40.120   3.611
69959W        W38177   2.035  25.917  10.935
69960W        W38178  22.011  15.622  14.550
69961W        W38179  21.546  34.076  11.980
69962W        W38180  12.207  19.819  14.900
69963W        W38181   7.869  15.896   3.604
69964W        W38182  30.573  10.202   0.438
69965W        W38183  27.712  43.417   3.949
69966W        W38184  21.520  20.078   0.506
69967W        W38185  37.487   8.829   2.256
69968W        W38186   3.926  30.965  11.956
69969W        W38187  25.266   2.951   2.622
69970W        W38188  17.321  29.373  13.931
69971W        W38189  14.262   8.362  12.482
69972W        W38190  19.299  28.856  11.019
69973W        W38191  19.880  20.481  11.623
69974W        W38192  28.889  44.776   4.061
69975W        W38193   8.803  14.179  13.370
69976W        W38194  17.819   9.390   2.775
69977W        W38195  15.041  22.146   4.113
69978W        W38196  11.742  17.097   4.559
69979W        W38197  42.626   0.747   3.555
69980W        W38198  35.886  29.935  11.947
69981W        W38199   7.437  21.444   1.816
69982W        W38200   2.916  40.832  12.035
69983W        W38201  11.325  27.902   1.751
69984W        W38202   8.775  16.135   1.668
69985W        W38203  36.359  23.967  12.984
69986W        W38204  29.556  30.659  11.700
69987W        W38205  19.730  17.154  10.983
69988W        W38206  35.034  14.338  12.352
69989W        W38207  37.919  17.617   2.902
69990W        W38208  31.663  25.430  10.806
69991W        W38209  16.764  41.625   3.745
69992W        W38210  44.400  28.498  12.052
69993W        W38211  38.383  42.262   3.304
69994W        W38212  39.724   9.407  11.177
69995W        W38213  27.394  37.968   2.716
69996W        W38214  36.335  30.189  12.009
69997W        W38215  15.578  13.266  10.683
69998W        W38216  39.550  28.582   4.101
69999W        W38217  38.048  44.649  10.738
70000W        W38218  10.155   1.726   1.422
70001W        W38219  13.308   1.762  11.518
70002W        W38220  37.088  29.236   0.729
70003W        W38221  29.719  30.095   3.326
70004W        W38222  25.117   2.514  14.350
70005W        W38223   7.833  10.596   3.242
70006W        W38224  30.749   5.930   1.760
70007W        W38225  18.351  16.820  11.239
70008W        W38226  24.501  21.361  11.171
70009W        W38227  36.488  40.810   0.579
70010W        W38228  28.212  11.720   0.418
70011W        W38229   3.353  28.642  12.944
70012W        W38230  14.805  38.813   3.185
70013W        W38231  24.792  43.335   1.166
70014W        W38232  31.040  38.917  14.113
70015W        W38233  14.654   3.061   2.346
70016W        W38234  16.801   8.736   0.409
70017W        W38235  25.014   7.688  14.031
70018W        W38236  42.039   8.429  14.389
70019W        W38237  35.559   3.981   0.775
70020W        W38238   0.315  18.076  14.443
70021W        W38239   6.488  10.744   1.062
70022W        W38240  28.368   8.318   3.170
70023W        W38241  16.830  32.009  11.723
70024W        W38242  42.982  21.837  12.762
70025W        W38243  30.979  16.420  10.700
70026W        W38244  18.796  40.772   1.322
70027W        W38245   4.207  39.382   0.285
70028W        W38246  26.215   5.292  12.920
70029W        W38247  25.375  41.431   0.388
70030W        W38248  30.199  44.972  10.674
70031W        W38249  19.719  38.458  13.719
70032W        W38250  14.817  39.354   1.219
70033W        W38251  42.925  34.175   2.267
70034W        W38252  21.223  23.004   4.095
70035W        W38253  35.632   6.947  12.160
70036W        W38254   7.323  38.599  10.671
70037W        W38255  34.607  28.693   3.247
70038W        W38256  28.179  31.034   0.948
70039W        W38257  22.112  36.925   2.732
70040W        W38258   4.612   5.509  11.983
70041W        W38259  28.322  33.976  12.158
70042W        W38260   2.425  26.045  12.002
70043W        W38261  17.752  30.993   4.139
70044W        W38262  30.656  39.292   2.834
70045W        W38263   8.894  31.569  14.803
70046W        W38264   6.317  12.754   2.704
70047W        W38265  44.324  19.878   1.453
70048W        W38266  12.665  29.067  14.754
70049W        W38267  22.466  33.233  13.440
70050W        W38268  44.808  35.770  12.356
70051W        W38269  37.323  38.956  12.012
70052W        W38270  18.001   7.868   4.980
70053W        W38271  16.610  29.529   1.473
70054W        W38272   8.426  31.051  11.007
70055W        W38273  13.621  26.302   3.313
70056W        W38274  44.018   9.848  13.426
70057W        W38275   2.940  28.734   3.239
70058W        W38276  11.904   8.582   0.315
70059W        W38277   4.051   8.370  13.335
70060W        W38278  36.039   1.446  10.722
70061W        W38279  34.395  22.241  11.605
70062W        W38280  10.779  44.273  12.558
70063W        W38281  28.136  27.411  13.894
70064W        W38282  43.354  40.832  11.969
70065W        W38283  30.716  23.362  13.418
70066W        W38284   0.498  30.109   0.712
70067W        W38285  28.677  44.376  12.335
70068W        W38286  13.122  23.648  11.494
70069W        W38287  33.718  41.948  12.580
70070W        W38288  15.803   9.154  12.986
70071W        W38289  15.714  17.753   1.421
70072W        W38290  40.809   5.505  13.521
70073W        W38291  38.432  20.201  11.644
70074W        W38292  20.738  18.597   0.006
70075W        W38293   4.792  37.616   1.637
70076W        W38294  22.422  24.449   2.229
70077W        W38295  15.714  13.329  13.599
70078W        W38296   2.713  36.815   0.266
70079W        W38297   1.707  10.598  14.923
70080W        W38298  34.297  23.330  11.588
70081W        W38299  17.755  28.503   0.801
70082W        W38300  32.546   8.764  14.479
70083W        W38301  35.547  40.451   3.388
70084W        W38302  21.128  37.550   4.525
70085W        W38303  26.137   1.138   2.438
70086W        W38304   5.902  27.071  14.340
70087W        W38305  31.952  32.934  13.839
70088W        W38306   1.220  20.079  11.136
70089W        W38307  25.575   7.292  13.618
70090W        W38308  29.621  15.090   2.905
70091W        W38309  16.775  26.665  11.512
70092W        W38310   3.112  34.582   3.707
70093W        W38311  44.034  15.135   4.677
70094W        W38312   4.862  21.275   1.868
70095W        W38313  12.040   0.941   0.342
70096W        W38314  30.391  14.591   0.749
70097W        W38315  39.846  36.506   2.723
70098W        W38316  42.013  28.691  11.100
70099W        W38317  25.634  15.220  10.463
70100W        W38318  26.777  12.086   3.721
70101W        W38319  34.461  42.532   3.621
70102W        W38320  32.665  43.332  11.602
70103W        W38321   0.777   4.257  13.148
70104W        W38322  43.069  38.433  14.388
70105W        W38323  27.075  28.624   0.719
70106W        W38324   1.393  44.150  12.039
70107W        W38325  21.197  37.574   1.737
70108W        W38326  24.485  24.554  13.887
70109W        W38327  17.515   3.727  13.455
70110W        W38328  28.865  43.778  12.016
70111W        W38329  22.735  22.513   0.386
70112W        W38330  33.905   1.330  12.571
70113W        W38331  21.660  33.386   2.678
70114W        W38332  41.495   1.840  13.435
70115W        W38333   3.105   7.813  12.763
70116W        W38334  12.255  15.955  13.329
70117W        W38335   3.029   5.496   0.743
70118W        W38336  29.509  30.997  12.088
70119W        W38337  31.961  41.278  13.304
70120W        W38338  11.115  38.960  13.581
70121W        W38339   4.880  44.338  14.056
70122W        W38340   2.273  37.813   3.622
70123W        W38341  12.790   2.024   1.602
70124W        W38342   7.428  41.860   0.554
70125W        W38343  40.179  10.978   4.039
70126W        W38344  31.115   8.921  11.744
70127W        W38345   1.693  18.818   2.919
70128W        W38346  11.671  15.682   4.906
70129W        W38347   1.376   1.269   3.202
70130W        W38348  43.972  16.870   4.056
70131W        W38349  10.172   8.186  11.620
70132W        W38350  32.065  43.105   1.343
70133W        W38351  22.584  12.615   4.675
70134W        W38352   5.224   6.099   4.433
70135W        W38353   2.491  33.928  11.496
70136W        W38354  19.287  44.718   4.734
70137W        W38355  21.502  26.687  13.298
70138W        W38356   8.153  36.014  13.602
70139W        W38357  37.541  34.351  14.937
70140W        W38358  39.321  34.471  14.927
70141W        W38359   5.637  11.312   0.190
70142W        W38360  37.183  41.774   3.406
70143W        W38361  36.890   5.999   3.800
70144W        W38362  12.590  30.650   3.401
70145W        W38363  34.158   8.097  11.032
70146W        W38364  42.810  20.886   3.253
70147W        W38365  25.088  37.074  10.516
70148W        W38366  12.616  32.084  14.865
70149W        W38367  29.589  16.044  12.797
70150W        W38368   8.499  30.632   2.824
70151W        W38369   4.118  33.806   3.349
70152W        W38370   9.162   1.247  13.429
70153W        W38371  18.732   4.807  13.249
70154W        W38372  40.657  10.681   4.128
70155W        W38373   2.838  25.234  12.964
70156W        W38374  18.472  36.621  11.985
70157W        W38375  31.170  16.397   9.763
70158W        W38376   5.887  28.610  10.793
70159W        W38377  25.302  37.046  13.478
70160W        W38378  39.618  23.750  14.935
70161W        W38379   4.254  12.597   4.576
70162W        W38380   2.761  29.172  13.483
70163W        W38381  34.381  36.947   1.914
70164W        W38382  44.085  13.171  12.474
70165W        W38383  20.279  19.281   0.237
70166W        W38384  40.528  10.326  10.518
70167W        W38385   2.116  13.881  11.295
70168W        W38386  36.709  11.548  11.640
70169W        W38387  18.980  24.917  12.061
70170W        W38388  35.146  34.676  13.861
70171W        W38389  12.931  33.637   2.828
70172W        W38390  31.462  36.520   2.392
70173W        W38391  41.341  42.332  11.688
70174W        W38392  40.193   7.676   3.420
70175W        W38393   6.237  24.408   1.310
70176W        W38394  23.204  22.244   0.329
70177W        W38395  30.429  20.718   4.062
70178W        W38396  19.198  20.206  11.610
70179W        W38397  22.155  35.903   1.329
70180W        W38398  17.523  34.003   1.200
70181W        W38399  14.608   3.691   0.265
70182W        W38400   8.126   1.468  14.347
70183W        W38401  26.817  21.332  13.975
70184W        W38402   3.705  36.562   3.869
70185W        W38403  36.810  39.932   1.320
70186W        W38404  32.422  25.609  10.832
70187W        W38405  24.226  19.877  11.091
70188W        W38406  31.849  29.302   3.318
70189W        W38407  36.996   3.232  12.293
70190W        W38408  32.942  31.044  10.252
70191W        W38409  21.080   2.816   0.931
70192W        W38410  37.753   6.163   3.348
70193W        W38411  12.688   3.894  10.423
70194W        W38412   2.389  38.327   3.111
70195W        W38413  11.153   7.726   3.729
70196W        W38414   4.370   0.245  12.127
70197W        W38415  34.219   6.359  14.051
70198W        W38416  14.597   6.420  11.541
70199W        W38417  19.363  39.113   4.613
70200W        W38418  41.599   9.268  11.568
70201W        W38419  10.684  34.865  11.646
70202W        W38420  22.631  27.656  12.965
70203W        W38421   1.326   0.272   3.346
70204W        W38422  27.891  43.475   1.244
70205W        W38423  23.586  29.690  14.087
70206W        W38424  37.948  16.267  14.305
70207W        W38425   4.258   6.723  11.192
70208W        W38426  31.599   3.497  12.564
70209W        W38427  31.185  27.490   3.364
70210W        W38428  35.465   9.746  13.834
70211W        W38429  40.332  22.102   3.812
70212W        W38430  29.046  38.227  12.417
70213W        W38431  35.640  22.066   2.343
70214W        W38432  44.392   2.973  14.472
70215W        W38433  35.967   3.673   0.882
70216W        W38434  39.993   9.847   3.641
70217W        W38435   9.606  19.623   0.349
70218W        W38436  23.981   1.309   3.106
70219W        W38437  29.988  28.694  12.422
70220W        W38438  11.452  19.103  10.597
70221W        W38439  12.672   6.397  13.156
70222W        W38440  10.713  41.336   3.655
70223W        W38441  44.778  36.209   4.451
70224W        W38442   4.382   7.208   0.385
70225W        W38443   8.178  24.756  14.032
70226W        W38444  14.856  31.522  10.543
70227W        W38445  25.568  18.106   2.409
70228W        W38446  31.638   8.618   0.228
70229W        W38447  38.545  27.513   1.464
70230W        W38448  21.040  12.463  13.879
70231W        W38449  10.916  35.159  12.510
70232W        W38450  40.854  28.427   1.188
70233W        W38451   8.847  43.784  13.970
70234W        W38452  41.495  44.821   4.661
70235W        W38453  16.112   1.190  12.096
70236W        W38454   0.054   8.849  14.832
70237W        W38455  42.580  11.637   3.839
70238W        W38456  27.356  44.896   3.054
70239W        W38457  33.199  42.782   3.845
70240W        W38458  26.606  31.389  12.545
70241W        W38459   5.517  30.259   4.106
70242W        W38460   4.147  40.276  14.849
70243W        W38461  26.132  29.857   1.975
70244W        W38462  34.567  44.368  13.691
70245W        W38463  28.720   7.076   2.867
70246W        W38464  35.364  11.753  13.756
70247W        W38465  13.615  21.256   3.782
70248W        W38466   9.862  43.765   4.198
70249W        W38467   5.237  11.560   3.698
70250W        W38468  43.559   4.822   4.604
70251W        W38469  44.294  38.121  11.941
70252W        W38470  38.953   2.684   0.322
70253W        W38471  34.094  28.474   1.898
70254W        W38472  37.409  14.102   3.843
70255W        W38473   6.735  10.488   3.760
70256W        W38474  44.854  14.948   4.009
70257W        W38475  12.664  13.822  14.022
70258W        W38476  39.402  23.711   0.858
70259W        W38477   0.089  31.673  12.941
70260W        W38478  18.573  43.574  11.554
70261W        W38479  25.062  37.820  13.008
70262W        W38480  17.375  12.361   3.570
70263W        W38481  33.175  41.419   4.794
70264W        W38482  25.768  35.616   3.427
70265W        W38483  37.738   0.290   1.672
70266W        W38484  24.230  42.884   4.658
70267W        W38485  29.396  43.403   2.198
70268W        W38486  33.570  28.663  12.915
70269W        W38487  15.979  28.739  12.847
70270W        W38488  40.871  31.089   2.391
70271W        W38489  18.996   6.380   1.348
70272W        W38490   8.181  23.193   4.996
70273W        W38491  41.383  18.345  14.022
70274W        W38492  19.325  36.619   4.065
70275W        W38493  27.601  39.911   2.232
70276W        W38494  26.536  26.981   3.335
70277W        W38495  10.111  37.884   1.730
70278W        W38496  38.385  12.654  13.261
70279W        W38497  35.357  44.445   4.944
70280W        W38498  39.487   0.779  12.794
70281W        W38499  28.643  17.618   3.747
70282W        W38500  40.309  17.606  11.076
70283W        W38501  29.967  42.456   4.883
70284W        W38502  16.567  31.022  13.576
70285W        W38503  11.459  10.294  13.420
70286W        W38504   5.848  10.096   1.238
70287W        W38505  20.704  41.945  10.823
70288W        W38506   7.398  36.466   3.803
70289W        W38507  17.353   7.426   0.746
70290W        W38508  16.660  36.122  14.263
70291W        W38509  18.548   3.279   3.267
70292W        W38510   5.353   5.015   0.672
70293W        W38511  19.645   2.175  12.593
70294W        W38512  43.978   8.878   0.758
70295W        W38513  18.204  19.854   1.808
70296W        W38514   1.347   6.926   1.336
70297W        W38515   4.602  41.791   4.294
70298W        W38516  15.538  29.665  13.117
70299W        W38517  15.721  19.304   2.348
70300W        W38518   3.439  18.774  12.305
70301W        W38519  28.106   1.268  11.224
70302W        W38520  21.161  42.052  12.067
70303W        W38521  11.928  32.111   1.261
70304W        W38522  17.333   8.752  14.494
70305W        W38523   0.735  15.627   1.818
70306W        W38524  31.803  32.414   3.721
70307W        W38525  16.575  39.585  12.467
70308W        W38526  11.789  30.978  11.888
70309W        W38527  43.753  13.342  11.599
70310W        W38528  32.393  25.655   0.855
70311W        W38529   2.195  11.600  14.133
70312W        W38530  19.454  41.014  13.786
70313W        W38531   4.980  12.646   1.356
70314W        W38532  28.598   9.983   1.746
70315W        W38533   4.271  16.717   3.219
70316W        W38534  35.292   7.745   2.758
70317W        W38535  11.259   9.385  11.434
70318W        W38536  32.091  43.033  10.781
70319W        W38537  34.427  21.277  12.809
70320W        W38538  33.068  23.025   1.855
70321W        W38539  20.086  18.111  12.979
70322W        W38540  41.248  34.464  13.189
70323W        W38541   6.435  36.538  13.983
70324W        W38542  30.906  36.957  11.524
70325W        W38543  31.129  13.457   2.391
70326W        W38544   4.718  17.665  14.330
70327W        W38545   8.264  19.625   3.098
70328W        W38546  34.609  43.241  10.776
70329W        W38547  39.977  44.604  10.740
70330W        W38548  22.754  13.416   4.255
70331W        W38549  41.005  23.010  13.812
70332W        W38550  44.887   0.395   0.010
70333W        W38551   3.021  35.512   1.930
70334W        W38552   1.063  33.988  11.590
70335W        W38553  43.969   2.509   3.734
70336W        W38554  30.472  17.731  12.633
70337W        W38555  35.124  13.226  14.121
70338W        W38556  30.362  43.764   4.000
70339W        W38557   4.825   2.333  14.817
70340W        W38558   2.483  16.635   3.308
70341W        W38559   4.386  42.485  14.943
70342W        W38560  38.058   2.746   3.699
70343W        W38561   5.737  40.336   9.811
70344W        W38562  33.304  35.603   3.328
70345W        W38563  12.829   8.677   0.238
70346W        W38564  37.326  27.319  12.339
70347W        W38565  43.361   2.921   4.589
70348W        W38566  19.270   3.331   2.679
70349W        W38567  14.765  36.565   4.750
70350W        W38568  14.693  15.300   4.179
70351W        W38569   9.294  35.824  14.728
70352W        W38570  13.591  25.794   0.296
70353W        W38571  15.991  10.713  11.845
70354W        W38572  21.899   8.363   3.705
70355W        W38573  23.760  16.094   3.007
70356W        W38574   6.674  43.061  11.486
70357W        W38575  14.270  18.517   1.754
70358W        W38576  20.673  22.092   1.198
70359W        W38577   8.828  31.958   3.801
70360W        W38578  28.582   5.167   2.185
70361W        W38579  25.983   5.988  13.855
70362W        W38580  40.892  39.823  11.614
70363W        W38581  11.812  26.052   0.969
70364W        W38582  37.567  16.274   1.803
70365W        W38583  31.600   2.333   0.651
70366W        W38584  13.677  20.012   4.881
70367W        W38585  35.232   0.295  12.405
70368W        W38586  25.304  18.747   2.871
70369W        W38587  40.839  29.609   4.173
70370W        W38588  10.920  33.958  11.247
70371W        W38589  33.952  24.173   4.944
70372W        W38590  22.326  25.387  14.447
70373W        W38591  15.369   7.440  12.564
70374W        W38592  34.490  30.551   4.157
70375W        W38593  28.746  32.118  14.790
70376W        W38594  19.997  37.624  14.986
70377W        W38595  23.768  44.525  13.036
70378W        W38596  19.245   8.395  12.233
70379W        W38597   4.508  14.820   2.415
70380W        W38598  11.829  32.697  12.143
70381W        W38599  14.635   3.290   0.932
70382W        W38600  18.470  19.760   5.051
70383W        W38601  24.080  37.407  11.867
70384W        W38602  44.211  11.819   1.730
70385W        W38603  31.460   7.640   1.382
70386W        W38604  38.856  37.124  14.789
70387W        W38605  37.960   6.663  10.645
70388W        W38606  24.363  44.423  14.013
70389W        W38607   4.683  29.199   3.795
70390W        W38608  30.505  37.099  11.012
70391W        W38609  21.976  18.608   3.471
70392W        W38610   5.504  29.702   1.500
70393W        W38611  18.836  32.181  14.024
70394W        W38612  38.791  33.421  12.562
70395W        W38613  43.573  40.355  14.413
70396W        W38614  26.579  13.046  11.104
70397W        W38615  36.378  35.401   0.953
70398W        W38616   1.373  40.544   0.144
70399W        W38617  26.586  39.757  11.243
70400W        W38618  10.677  43.236   2.689
70401W        W38619  18.067  30.579   4.137
70402W        W38620  21.362  26.868  14.032
70403W        W38621   4.477  29.421  14.431
70404W        W38622   0.023  16.181   2.877
70405W        W38623  24.667   8.696   0.804
70406W        W38624  39.019  34.569   2.202
70407W        W38625  41.091  33.860   1.344
70408W        W38626   9.212  42.162  12.340
70409W        W38627  35.767   8.223  14.788
70410W        W38628  38.391  27.532  10.926
70411W        W38629  20.513  37.971   4.114
70412W        W38630  30.135  42.522  13.873
70413W        W38631  42.140  36.065   0.750
70414W        W38632  12.609  30.211  11.969
70415W        W38633  15.742  17.591   3.323
70416W        W38634  26.755  15.355   2.953
70417W        W38635  11.225  43.748   4.633
70418W        W38636  23.269  24.029   2.247
70419W        W38637  17.185  24.854  12.551
70420W        W38638  28.636  20.159  11.394
70421W        W38639   6.462  44.448  10.039
70422W        W38640  29.260  10.558  11.154
70423W        W38641   6.678  16.171   0.393
70424W        W38642   2.945  13.648   0.252
70425W        W38643  11.684   0.764   5.021
70426W        W38644  29.874   1.277  11.142
70427W        W38645  42.999  25.266   4.648
70428W        W38646  25.642  20.451   4.865
70429W        W38647   8.118  38.562   1.408
70430W        W38648  33.795  20.373   3.023
70431W        W38649  32.463  31.438  14.534
70432W        W38650  42.061  24.054   1.377
70433W        W38651  15.194  18.823   3.289
70434W        W38652  18.205  28.545   3.125
70435W        W38653  22.274  13.471   4.049
70436W        W38654  14.060  44.688   3.266
70437W        W38655  25.454  44.208  13.547
70438W        W38656  31.088  18.778  13.400
70439W        W38657  26.553  13.174   3.962
70440W        W38658   4.615  37.949  10.785
70441W        W38659  26.377  16.586   1.314
70442W        W38660  38.196  27.082  12.458
70443W        W38661  31.443  24.710  13.430
70444W        W38662  40.529   1.786  13.584
70445W        W38663  28.207   0.791  11.723
70446W        W38664   1.954  34.689   1.313
70447W        W38665  29.737  19.376   0.828
70448W        W38666  26.709  20.355   0.919
70449W        W38667  37.494  39.511   4.116
70450W        W38668  30.868  17.227  14.910
70451W        W38669  31.939   2.377  14.274
70452W        W38670  37.290  37.860  14.567
70453W        W38671  40.423  38.568  11.512
70454W        W38672  23.245  29.251   2.228
70455W        W38673  28.349  15.848   0.478
70456W        W38674  38.104   0.021  13.814
70457W        W38675  42.255   6.348   0.319
70458W        W38676   9.590  24.615   1.248
70459W        W38677  24.029  18.775   2.300
70460W        W38678  41.056  10.592  13.571
70461W        W38679  24.914   9.764  14.944
70462W        W38680  11.628  13.283   1.030
70463W        W38681  22.373  35.651   3.221
70464W        W38682  23.925  23.888  10.760
70465W        W38683   3.430  23.217  13.381
70466W        W38684  43.066  29.371  11.126
70467W        W38685   8.381  33.873  14.850
70468W        W38686  11.191  31.266  13.401
70469W        W38687  36.041  33.515  14.045
70470W        W38688  24.143  41.060  14.771
70471W        W38689  37.805  25.844  13.835
70472W        W38690  28.542  31.162  11.155
70473W        W38691  26.982  12.550   1.926
70474W        W38692  23.466  32.607  14.277
70475W        W38693  22.995  21.766   2.940
70476W        W38694   7.186  29.538  14.873
70477W        W38695   5.302  42.749  12.371
70478W        W38696  35.103  13.299   2.749
70479W        W38697  42.226  16.436   0.352
70480W        W38698  25.098  16.611  12.500
70481W        W38699  27.124  26.102  10.452
70482W        W38700  17.107  29.501  12.664
70483W        W38701  31.033  34.046   2.818
70484W        W38702  35.641  32.327  13.497
70485W        W38703  32.065  40.859   3.118
70486W        W38704  38.928   6.265  13.356
70487W        W38705  15.198  33.352  13.524
70488W        W38706  10.174   8.368   0.712
70489W        W38707  27.306  10.142  14.416
70490W        W38708   3.324   6.155   2.237
70491W        W38709  15.195   2.926   1.232
70492W        W38710   5.914  16.569  13.524
70493W        W38711  38.847  40.725  14.579
70494W        W38712   0.764   2.587  13.563
70495W        W38713  29.368  39.790   2.767
70496W        W38714  21.551  10.193   0.306
70497W        W38715  41.091   2.654   2.163
70498W        W38716  27.446   2.956   1.337
70499W        W38717   1.465  23.487   0.505
70500W        W38718   5.212  28.840  13.305
70501W        W38719  40.791  44.539  12.831
70502W        W38720  20.745  36.303   3.581
70503W        W38721  43.828  15.544  11.160
70504W        W38722  16.326  33.543  12.735
70505W        W38723   4.774  14.412   2.677
70506W        W38724  12.255  14.023   3.298
70507W        W38725  13.255  15.223  10.345
70508W        W38726  19.639  11.721  14.103
70509W        W38727   7.326   0.565  12.983
70510W        W38728  40.661  11.290  11.860
70511W        W38729   6.389  42.382  14.059
70512W        W38730  30.848  13.128  11.565
70513W        W38731   7.253   6.371  11.483
70514W        W38732  41.388  41.614  13.453
70515W        W38733   1.446  30.360   0.298
70516W        W38734  29.472  27.706   0.417
70517W        W38735  21.067  13.807  10.677
70518W        W38736  23.292  39.368  11.187
70519W        W38737  19.752   2.323   4.546
70520W        W38738  12.626   7.331  14.377
70521W        W38739  15.365  42.200  14.677
70522W        W38740  22.972  28.347  14.332
70523W        W38741  33.963  25.127   2.680
70524W        W38742  18.532  42.512   2.264
70525W        W38743  20.266  33.999   1.421
70526W        W38744  11.142  35.656   4.490
70527W        W38745  43.461  42.922   0.832
70528W        W38746  21.130  11.837  14.075
70529W        W38747  28.502  37.113  12.182
70530W        W38748  25.026   6.401   3.626
70531W        W38749  28.424   5.394  10.231
70532W        W38750  35.047  41.876  13.724
70533W        W38751  15.538   9.105  12.079
70534W        W38752  17.131  32.877  14.866
70535W        W38753  43.293  21.222   0.442
70536W        W38754  29.149  28.932   4.587
70537W        W38755   3.382  43.800   4.518
70538W        W38756  31.886  43.891   3.835
70539W        W38757   1.743  31.116   4.290
70540W        W38758  20.033  18.952   4.693
70541W        W38759   2.224   5.203   3.665
70542W        W38760  33.683  34.484   4.117
70543W        W38761  40.367  29.854   4.112
70544W        W38762  24.501  15.938   2.682
70545W        W38763  20.321   5.780   4.044
70546W        W38764  21.610  24.866  13.612
70547W        W38765  29.006  34.533   0.161
70548W        W38766  31.464  14.839  11.521
70549W        W38767  11.349  30.070  12.507
70550W        W38768  26.472   6.494  11.073
70551W        W38769  31.726   1.216  10.830
70552W        W38770  32.175  35.569   4.265
70553W        W38771  11.298  23.469   4.437
70554W        W38772  33.682  14.212   4.772
70555W        W38773  10.589  42.586   1.863
70556W        W38774  31.379  30.160   1.346
70557W        W38775  28.180   6.978  10.391
70558W        W38776   6.381  31.608  10.728
70559W        W38777  10.233  21.810   1.856
70560W        W38778  17.821  20.861  10.364
70561W        W38779  38.703  31.939  14.513
70562W        W38780  20.119   2.437  13.319
70563W        W38781  26.128  34.511   0.268
70564W        W38782  37.874  27.719   3.342
70565W        W38783  14.124  29.638  14.090
70566W        W38784   6.756   6.808   3.072
70567W        W38785  27.647  28.871  11.657
70568W        W38786  25.983  40.639   2.661
70569W        W38787  10.463  26.732   4.193
70570W        W38788  42.062  27.444   1.330
70571W        W38789  36.750   0.367  12.466
70572W        W38790  13.131  42.877  14.347
70573W        W38791  36.812   2.770   0.023
70574W        W38792  32.482  12.830   3.243
70575W        W38793  17.826  42.834   1.699
70576W        W38794  13.944  15.605   4.671
70577W        W38795   0.603   0.456   4.774
70578W        W38796  19.644  39.912  11.156
70579W        W38797  34.175   7.513   4.607
70580W        W38798  43.307  29.015  11.446
70581W        W38799   8.002   4.214  13.616
70582W        W38800   5.165  23.448   2.188
70583W        W38801   5.478  14.354   4.112
70584W        W38802  37.433  43.898  14.813
70585W        W38803  23.549  17.076  13.570
70586W        W38804  32.375  41.891  11.129
70587W        W38805  33.951  38.497  12.128
70588W        W38806  24.122  25.240  14.854
70589W        W38807  25.504  44.812   4.567
70590W        W38808  26.076  32.516  10.706
70591W        W38809  22.257  20.815   2.768
70592W        W38810  16.564  18.742  12.458
70593W        W38811  29.438  24.621  12.122
70594W        W38812  25.017   5.410  10.784
70595W        W38813  41.030   5.890   3.690
70596W        W38814  14.804  19.987   0.488
70597W        W38815  34.747  18.051   4.121
70598W        W38816  39.048  44.527   4.287
70599W        W38817   8.460  13.666  11.222
70600W        W38818  32.442  41.961   2.495
70601W        W38819   4.445   9.900  13.859
70602W        W38820  44.145  28.469   2.116
70603W        W38821   4.674  41.556   2.269
70604W        W38822  14.563  24.031   2.243
70605W        W38823  33.413  25.194  14.329
70606W        W38824  39.351  32.857   1.850
70607W        W38825  18.428   7.312  10.992
70608W        W38826  18.382  13.190  12.145
70609W        W38827  32.688  24.049  13.563
70610W        W38828  12.204  28.998  11.102
70611W        W38829  20.373  30.875  13.569
70612W        W38830  36.852  17.169  12.446
70613W        W38831  30.502  43.487  14.948
70614W        W38832   3.390  37.112  12.125
70615W        W38833  11.000  30.196  14.240
70616W        W38834   3.880  17.285   1.811
70617W        W38835  25.423  43.257   3.332
70618W        W38836  40.554   2.799  14.746
70619W        W38837  40.594  21.028  10.690
70620W        W38838  18.142  10.487   4.736
70621W        W38839  32.423   2.072  14.998
70622W        W38840  27.695  13.118  14.188
70623W        W38841  26.568  31.716  13.009
70624W        W38842   1.478  26.798  13.421
70625W        W38843   7.841   4.856   4.081
70626W        W38844  10.629  28.026   2.395
70627W        W38845  17.538   2.010   3.756
70628W        W38846  24.503  23.074  14.933
70629W        W38847  30.240  26.027   3.721
70630W        W38848  20.213   5.636   1.416
70631W        W38849  13.256  38.856   4.349
70632W        W38850  12.257  14.934   1.068
70633W        W38851  12.757  36.077  14.379
70634W        W38852  40.607  30.327   4.936
70635W        W38853  44.776   8.370   1.388
70636W        W38854  31.537  16.161   2.817
70637W        W38855  38.586  31.950   3.180
70638W        W38856  24.674   0.357  11.050
70639W        W38857  17.270  29.977   2.381
70640W        W38858  13.034   1.015   2.800
70641W        W38859  40.349  24.754  11.974
70642W        W38860  37.569  28.444   0.683
70643W        W38861  31.328  41.864  12.400
70644W        W38862  16.648  10.857   0.745
70645W        W38863   0.443   0.770   4.392
70646W        W38864   3.749   6.729  11.130
70647W        W38865  30.667   3.816   0.762
70648W        W38866  29.014  28.007   2.150
70649W        W38867   9.757   4.789   3.344
70650W        W38868  11.205  26.687   0.746
70651W        W38869  41.722  40.625  13.547
70652W        W38870  19.601  23.462  10.627
70653W        W38871  35.912  23.955  13.404
70654W        W38872  22.017  37.392  13.997
70655W        W38873   8.300  29.406  11.171
70656W        W38874  40.371  42.249   2.295
70657W        W38875  36.407  35.729   0.324
70658W        W38876  24.025  32.139  14.701
70659W        W38877  13.756  43.606  11.133
70660W        W38878  20.301  41.470   2.783
70661W        W38879  35.394  44.184  12.911
70662W        W38880  18.539  30.466   3.002
70663W        W38881  30.242  28.737  13.767
70664W        W38882  23.891   0.541   4.144
70665W        W38883  30.675   9.768   4.030
70666W        W38884  21.619  17.758   2.814
70667W        W38885  13.556   1.805  14.459
70668W        W38886  26.119  30.959   0.718
70669W        W38887  35.382   1.930   2.822
70670W        W38888  12.604  42.529   4.634
70671W        W38889  25.574  41.024  14.132
70672W        W38890  17.149   7.811  13.992
70673W        W38891  43.800   7.390   2.016
70674W        W38892  15.697  35.007   3.361
70675W        W38893  39.594  29.464   3.598
70676W        W38894   5.156  15.833   3.220
70677W        W38895   0.345  14.593   4.473
70678W        W38896   0.169  41.159   2.414
70679W        W38897   8.686   2.317  14.464
70680W        W38898   0.988  36.274   0.924
70681W        W38899   2.221  34.628   3.454
70682W        W38900  37.955  12.181   2.261
70683W        W38901   2.440   9.878  11.549
70684W        W38902  39.387  14.302   3.166
70685W        W38903  19.829  28.833   0.019
70686W        W38904  24.614  21.536   4.845
70687W        W38905   1.169   2.534   0.745
70688W        W38906  37.146  35.494   1.399
70689W        W38907   6.431  15.105  12.163
70690W        W38908   7.605  40.000  14.679
70691W        W38909   4.643  32.573   4.541
70692W        W38910  32.217  32.764   0.708
70693W        W38911  14.267  24.207  11.630
70694W        W38912  30.383  27.657  13.949
70695W        W38913  42.218  29.400  14.326
70696W        W38914  27.133   0.418  11.107
70697W        W38915  19.626  15.596   0.395
70698W        W38916   0.479  14.347  14.880
70699W        W38917  30.007  36.448   3.650
70700W        W38918   3.605  30.789   1.221
70701W        W38919  36.981  18.561  11.498
70702W        W38920   7.106   5.472   2.178
70703W        W38921  37.531  44.822   3.298
70704W        W38922  31.153   2.306   4.549
70705W        W38923  33.622   3.864  13.948
70706W        W38924  33.485   3.604  11.365
70707W        W38925  19.602  38.116   2.315
70708W        W38926   1.936  27.473  12.066
70709W        W38927  13.145  26.940   1.773
70710W        W38928  31.300   5.908   1.906
70711W        W38929  39.830  44.869  14.857
70712W        W38930  28.715  20.465   3.141
70713W        W38931  36.394  11.379   4.192
70714W        W38932   7.565  35.899  14.363
70715W        W38933  12.959  16.602   3.976
70716W        W38934  19.860  29.007  12.861
70717W        W38935  17.312   6.429  14.937
70718W        W38936  17.569   9.296   2.315
70719W        W38937  17.963  28.974   3.246
70720W        W38938  26.504  29.575   1.735
70721W        W38939  22.725  20.806   3.553
70722W        W38940  30.101   3.736  11.729
70723W        W38941   1.808  15.422  14.829
70724W        W38942  44.754  37.821   0.829
70725W        W38943  15.238  29.525   0.986
70726W        W38944  39.901   6.010  14.563
70727W        W38945  16.385   9.055  14.280
70728W        W38946  44.427  38.813  12.481
70729W        W38947  44.845  23.107  14.936
70730W        W38948  35.489  34.258   3.869
70731W        W38949  27.767  11.585   4.703
70732W        W38950  32.291  32.463  13.307
70733W        W38951   8.973  29.010   1.507
70734W        W38952  25.463  36.395  14.317
70735W        W38953  25.068  16.993   4.626
70736W        W38954  26.023  43.083  10.297
70737W        W38955  31.709   7.740  11.949
70738W        W38956   5.546  19.836   2.657
70739W        W38957  36.072   6.920   3.172
70740W        W38958   3.147  18.090  11.152
70741W        W38959  43.911  30.368  10.581
70742W        W38960  14.002  15.145   1.399
70743W        W38961  29.560  23.960   4.125
70744W        W38962  24.159  13.091   4.285
70745W        W38963  32.378  11.750  14.315
70746W        W38964  35.598  19.725  13.471
70747W        W38965  32.982  22.135  11.526
70748W        W38966  25.965  14.897   2.070
70749W        W38967  31.257   9.698   4.233
70750W        W38968  23.607  31.169  12.447
70751W        W38969  22.983  22.066  11.208
70752W        W38970  19.296  22.118   0.961
70753W        W38971  33.592  39.384   0.425
70754W        W38972  29.117  40.313   0.724
70755W        W38973  11.329  14.314   5.075
70756W        W38974  36.561  10.892   4.103
70757W        W38975   8.109  40.852   1.329
70758W        W38976  34.510  10.289  10.707
70759W        W38977  33.551  22.797  13.556
70760W        W38978  21.995  38.278  13.804
70761W        W38979   7.964   5.763   1.475
70762W        W38980  12.981   9.549  13.321
70763W        W38981  35.986  25.208   0.426
70764W        W38982   6.093  17.830  13.900
70765W        W38983   1.549   7.986   1.411
70766W        W38984  13.571   3.683  13.974
70767W        W38985  26.222   7.317  14.423
70768W        W38986   2.374  24.691  10.559
70769W        W38987  33.021  30.976   4.198
70770W        W38988  23.353  19.233  11.709
70771W        W38989  26.749  24.328  12.644
70772W        W38990   7.215  31.238  10.828
70773W        W38991   1.928   1.888   2.250
70774W        W38992   4.303   1.575   0.055
70775W        W38993  18.184  11.225   4.188
70776W        W38994  29.541  18.475  14.982
70777W        W38995   9.366  29.917  12.033
70778W        W38996  37.042   6.842   3.195
70779W        W38997  39.019  34.107   1.399
70780W        W38998  18.289  10.624   1.193
70781W        W38999   6.499   7.907  14.509
70782W        W39000   0.785  11.693  12.461
70783W        W39001   3.908  19.316   0.279
70784W        W39002  17.071  17.577  12.353
70785W        W39003  39.010  27.256  12.949
70786W        W39004   0.377  28.074  11.512
70787W        W39005   5.183  33.567  13.230
70788W        W39006  15.066  18.708   4.146
70789W        W39007  37.920  18.114   4.674
70790W        W39008  38.414   9.687   2.340
70791W        W39009   2.977  35.954  14.271
70792W        W39010  27.476  32.014  14.496
70793W        W39011   7.300  21.509   2.354
70794W        W39012  15.513   7.535  13.904
70795W        W39013   4.910  16.199   1.669
70796W        W39014  19.144  31.405  13.864
70797W        W39015  35.765   0.955   3.674
70798W        W39016  37.315  17.479  10.702
70799W        W39017   5.467   1.458   2.807
70800W        W39018   1.276  31.841  14.414
70801W        W39019  44.734  42.062   3.813
70802W        W39020   8.186   6.907   3.255
70803W        W39021   2.452  38.455  14.779
70804W        W39022  18.103  15.323   0.397
70805W        W39023   5.897  19.285   3.945
70806W        W39024  30.584  36.018   2.346
70807W        W39025  15.224  22.955   3.499
70808W        W39026  39.803  24.523   0.960
70809W        W39027   5.715  35.478  10.684
70810W        W39028  18.557   0.277   0.771
70811W        W39029  33.166  24.061   0.345
70812W        W39030  35.665  26.391   4.644
70813W        W39031  34.866   9.613   1.608
70814W        W39032  13.916  32.552   4.489
70815W        W39033  18.525  28.574  12.413
70816W        W39034  23.121  40.339   4.160
70817W        W39035  33.180   0.124   1.663
70818W        W39036  18.777  15.812   0.838
70819W        W39037  13.360  21.817  14.918
70820W        W39038   1.790   1.347   4.874
70821W        W39039  36.955  31.922  14.247
70822W        W39040  40.419  36.437  13.948
70823W        W39041   4.399  34.429  14.971
70824W        W39042  15.562  28.631  11.187
70825W        W39043  18.486   7.777   2.308
70826W        W39044   3.374   4.275   1.019
70827W        W39045  42.228   6.111  14.303
70828W        W39046  33.438  13.317  10.273
70829W        W39047  30.002   4.305   1.436
70830W        W39048  37.398   4.582   2.825
70831W        W39049  35.114  36.188   3.374
70832W        W39050  34.687  43.833  13.870
70833W        W39051  11.077  44.091   5.017
70834W        W39052   2.019  13.083   2.444
70835W        W39053   8.740  21.089   0.996
70836W        W39054  13.407   4.980   2.755
70837W        W39055  32.083  42.044   0.329
70838W        W39056  26.962  13.837   0.234
70839W        W39057  36.493  30.472   0.281
70840W        W39058  14.184  33.775  11.467
70841W        W39059  40.352  25.530   3.159
70842W        W39060  29.969  41.005  14.482
70843W        W39061  31.428  13.696   4.675
70844W        W39062  14.491   2.858   1.798
70845W        W39063  28.359  19.865  13.629
70846W        W39064  29.154  41.070   3.651
70847W        W39065   0.895   8.935   3.718
70848W        W39066  28.717  15.858  13.082
70849W        W39067  42.270  32.785   3.032
70850W        W39068  40.588   9.326   4.596
70851W        W39069  15.226  35.027   3.131
70852W        W39070  12.692  35.821   1.338
70853W        W39071  22.161   4.657   4.041
70854W        W39072   8.080  35.920   3.794
70855W        W39073  10.671  36.144   5.148
70856W        W39074   0.466  36.388  14.987
70857W        W39075  24.212  20.370   1.697
70858W        W39076  37.807  27.100  13.310
70859W        W39077  36.771  35.607  14.347
70860W        W39078  32.545   8.229  14.402
70861W        W39079  43.801   9.668   3.209
70862W        W39080  29.049  42.953   4.550
70863W        W39081  34.134  25.024  12.165
70864W        W39082  26.015  37.939  10.657
70865W        W39083   9.625  17.752  10.792
70866W        W39084  43.482   9.222   1.958
70867W        W39085   3.217  25.626  14.412
70868W        W39086  33.522  26.447  12.516
70869W        W39087  22.522  35.502   0.378
70870W        W39088  39.057  27.195   3.735
70871W        W39089  32.885  44.969   3.810
70872W        W39090   7.277  21.542  12.888
70873W        W39091  40.346  31.648   4.295
70874W        W39092  26.179  27.448  13.973
70875W        W39093  11.289  33.517  10.350
70876W        W39094  39.372  42.269   4.446
70877W        W39095  16.382  13.782  12.503
70878W        W39096   7.748  38.228  14.129
70879W        W39097  21.292  30.613  14.356
70880W        W39098  28.676   1.429  14.345
70881W        W39099  38.093  28.597   0.762
70882W        W39100  11.973  13.673   4.721
70883W        W39101  19.150   8.782  10.417
70884W        W39102  10.536  19.472  12.080
70885W        W39103  38.705  11.804   1.889
70886W        W39104  44.369   6.252  12.314
70887W        W39105   5.715  28.163   3.533
70888W        W39106  37.899  10.214  13.455
70889W        W39107  32.482   8.342   1.401
70890W        W39108  16.007  31.575   4.173
70891W        W39109  14.322  36.369   1.683
70892W        W39110  21.526  24.899  14.923
70893W        W39111   3.633  33.487   4.776
70894W        W39112   6.204   3.861   3.373
70895W        W39113  23.525   5.711  13.889
70896W        W39114  38.497  25.081   1.395
70897W        W39115  15.653   2.739   1.062
70898W        W39116  31.664  31.016  14.868
70899W        W39117   7.703   5.965  14.900
70900W        W39118  20.074   6.425  11.452
70901W        W39119  13.668  16.936   2.726
70902W        W39120   6.384   4.823   4.674
70903W        W39121  19.925  41.476   4.128
70904W        W39122   2.934  32.547   0.862
70905W        W39123  16.065  16.754  14.588
70906W        W39124   5.392  23.668  14.409
70907W        W39125  29.581  38.336  10.642
70908W        W39126  28.764  25.604  11.182
70909W        W39127  14.739   7.926  10.632
70910W        W39128  35.046  33.441  11.643
70911W        W39129  35.137   3.200  10.591
70912W        W39130   6.950   7.764  14.296
70913W        W39131  28.436   3.171   0.839
70914W        W39132  18.073  21.540   4.625
70915W        W39133   1.224  27.679   4.081
70916W        W39134  10.109  10.870   2.429
70917W        W39135   5.938  43.291   2.662
70918W        W39136  12.098  41.863   1.301
70919W        W39137  40.101  13.764  11.662
70920W        W39138  24.108   7.030   1.527
70921W        W39139  39.158  12.113  12.862
70922W        W39140  12.699  22.475  13.260
70923W        W39141   2.527  13.246  12.484
70924W        W39142  30.445   0.478  13.441
70925W        W39143   5.852  32.778  11.658
70926W        W39144  38.540  37.373   0.132
70927W        W39145  28.605   3.101  10.251
70928W        W39146  44.466  37.317   1.254
70929W        W39147  42.083  13.210  13.337
70930W        W39148  32.612  36.522   4.672
70931W        W39149  14.655   3.894  13.208
70932W        W39150   7.214  21.017  13.484
70933W        W39151  41.459  10.790  10.910
70934W        W39152  16.664   3.247  11.590
70935W        W39153  44.379  34.565  13.751
70936W        W39154   5.164  34.562  13.870
70937W        W39155  29.192  20.730   2.157
70938W        W39156  41.068  30.049   0.026
70939W        W39157  15.331  35.068   2.608
70940W        W39158  18.665  21.917   1.826
70941W        W39159  20.617  15.840  11.039
70942W        W39160  26.718   5.620   3.210
70943W        W39161  20.747  28.999   2.146
70944W        W39162  29.119   7.254   0.357
70945W        W39163  40.911   5.767   2.696
70946W        W39164  33.223  29.292   1.806
70947W        W39165  27.383   0.485   1.266
70948W        W39166  41.704   9.293   2.358
70949W        W39167   1.351  21.390   3.265
70950W        W39168  20.542   8.671  13.745
70951W        W39169   0.291  32.997   4.582
70952W        W39170  24.085  16.805   3.088
70953W        W39171  39.017  38.085   4.219
70954W        W39172  26.972  36.628  14.849
70955W        W39173  26.082  35.755  11.075
70956W        W39174  42.222  33.540  12.542
70957W        W39175   0.791  18.204   0.371
70958W        W39176   5.612  33.357  13.404
70959W        W39177  21.462   6.177  10.347
70960W        W39178  11.220  35.368  11.154
70961W        W39179  16.529  41.955   2.585
70962W        W39180   9.897   3.166  12.718
70963W        W39181  32.723  42.933   5.097
70964W        W39182  30.942  35.887  14.329
70965W        W39183  24.912   3.721  10.452
70966W        W39184  11.682  10.430   9.520
70967W        W39185   9.772  15.523   1.372
70968W        W39186  41.393  27.058  14.762
70969W        W39187  23.022   9.755  10.736
70970W        W39188  24.250  25.050  12.677
70971W        W39189  28.194   0.716  12.621
70972W        W39190   7.662  34.925   3.748
70973W        W39191  29.281  18.957  13.096
70974W        W39192  38.422  43.758  10.664
70975W        W39193  43.277  42.328  13.005
70976W        W39194   4.320  15.792   2.326
70977W        W39195  40.414  32.159  13.501
70978W        W39196  17.058  32.535   3.813
70979W        W39197  34.595   9.384  11.891
70980W        W39198  44.825  29.921  14.943
70981W        W39199  15.939  21.050  12.465
70982W        W39200  20.812  38.261   2.866
70983W        W39201  20.016   1.507  13.695
70984W        W39202   9.802   1.750   3.712
70985W        W39203   8.835  14.760   0.873
70986W        W39204  40.422  17.509   3.237
70987W        W39205  43.010  27.931   1.388
70988W        W39206  30.912  25.070   4.593
70989W        W39207   7.760  29.528   4.571
70990W        W39208  33.524  11.414   0.074
70991W        W39209   5.845  39.199   2.139
70992W        W39210  30.527  22.035  11.938
70993W        W39211  33.302  27.459   0.049
70994W        W39212  19.068   6.760  13.729
70995W        W39213  35.972  39.271  14.436
70996W        W39214  18.514  36.156   1.301
70997W        W39215   6.948  17.899  14.892
70998W        W39216   8.113  37.066   0.481
70999W        W39217  16.211  26.337  14.971
71000W        W39218  36.522  33.704  14.712
71001W        W39219  38.265  39.543  14.072
71002W        W39220  42.497  38.001  13.888
71003W        W39221  23.610  15.104  10.538
71004W        W39222  41.986  32.051  14.551
71005W        W39223   7.741  43.500   4.695
71006W        W39224  22.503  16.264   2.791
71007W        W39225  11.626  19.684  13.504
71008W        W39226   0.407  33.526   0.256
71009W        W39227   1.179  41.081  10.758
71010W        W39228  39.362  20.210   1.252
71011W        W39229  42.231  25.047  13.792
71012W        W39230   0.398  42.028   4.554
71013W        W39231  27.711   3.727   2.085
71014W        W39232  19.538  19.338  14.997
71015W        W39233  43.077   9.658  11.205
71016W        W39234  12.210  25.513  11.711
71017W        W39235  24.085  17.966   4.542
71018W        W39236  19.643  10.916   3.800
71019W        W39237  16.342  25.496  12.458
71020W        W39238   5.850  43.506   2.195
71021W        W39239  19.341  30.512   4.995
71022W        W39240  20.770  16.540  13.528
71023W        W39241   9.094  39.410  11.775
71024W        W39242   0.543   6.689   4.665
71025W        W39243   5.406   4.674  11.706
71026W        W39244  21.792  19.126   1.916
71027W        W39245   1.252  27.892  13.822
71028W        W39246  13.419  31.775   2.202
71029W        W39247  35.448   3.187   4.394
71030W        W39248  37.061  21.089   2.536
71031W        W39249  16.106   7.354   0.458
71032W        W39250  10.293   1.256  11.624
71033W        W39251  22.690   0.985   0.447
71034W        W39252  20.647  15.165  10.356
71035W        W39253   2.610   9.902   3.183
71036W        W39254   3.474  38.373  10.593
71037W        W39255  38.907  26.407  14.489
71038W        W39256  36.532  36.971   4.185
71039W        W39257  44.775  40.547  12.883
71040W        W39258  19.511  22.548   2.143
71041W        W39259  26.629   0.780  11.703
71042W        W39260  24.969  26.864  10.749
71043W        W39261  40.205  30.876  11.031
71044W        W39262   4.066  16.588  11.594
71045W        W39263  26.697  37.583  11.137
71046W        W39264  28.042  44.451  10.731
71047W        W39265  15.120  42.978  11.058
71048W        W39266  20.275  28.152   0.714
71049W        W39267   0.458  32.353   3.339
71050W        W39268  38.892   1.483  12.556
71051W        W39269  22.787   5.128   3.469
71052W        W39270  28.213  21.999   2.228
71053W        W39271  11.212   8.288   1.422
71054W        W39272  42.763  23.168  14.487
71055W        W39273   0.874  27.947  11.596
71056W        W39274  27.645  11.756  10.518
71057W        W39275  16.666  12.693  10.251
71058W        W39276  11.682  20.755  13.901
71059W        W39277  26.452   5.229   1.333
71060W        W39278  27.105  36.505   1.171
71061W        W39279  38.940  23.564  10.756
71062W        W39280  27.464   8.343   2.874
71063W        W39281   1.409  41.140  14.909
71064W        W39282   7.952   5.213   0.839
71065W        W39283   6.288  39.554   4.216
71066W        W39284  18.029  12.655   4.110
71067W        W39285  25.115  42.501  14.947
71068W        W39286   2.788  10.454  12.071
71069W        W39287   3.815  33.914  14.432
71070W        W39288   4.804   2.218   2.467
71071W        W39289   4.276  40.011  12.609
71072W        W39290   0.249  44.495  13.474
71073W        W39291  33.135  26.170  14.109
71074W        W39292  25.959   7.457   4.710
71075W        W39293  11.156  13.331  11.556
71076W        W39294  29.545  43.685   3.368
71077W        W39295  12.274   7.470   1.944
71078W        W39296  17.135  26.281   4.145
71079W        W39297  12.047   2.875   0.208
71080W        W39298   5.892  19.968  10.811
71081W        W39299  34.014   8.731  11.148
71082W        W39300  41.846  21.983   0.665
71083W        W39301  37.385  19.325   1.792
71084W        W39302   1.026  11.648   4.877
71085W        W39303  34.800  39.045  12.510
71086W        W39304  43.510   0.007  14.533
71087W        W39305   2.206  10.897   4.592
71088W        W39306  18.375  38.463  11.937
71089W        W39307  42.818  16.073   5.008
71090W        W39308  42.441  20.756   1.126
71091W        W39309  38.526  19.645  12.100
71092W        W39310  20.267  21.618  14.556
71093W        W39311  36.946   6.443  13.107
71094W        W39312   7.669  27.542  12.999
71095W        W39313  34.419  18.985  11.002
71096W        W39314  11.655  29.001   1.832
71097W        W39315  18.946  43.826  14.901
71098W        W39316  32.086  44.026  14.826
71099W        W39317   8.647  38.950   5.007
71100W        W39318  21.959  30.007  12.776
71101W        W39319  16.128  18.929  11.058
71102W        W39320  35.052  30.539   5.063
71103W        W39321  10.388   0.246   3.292
71104W        W39322  19.199  42.415  11.238
71105W        W39323  39.373  27.706   3.111
71106W        W39324  32.169  31.359   1.720
71107W        W39325  33.183  26.153   4.239
71108W        W39326  34.520   1.195   4.861
71109W        W39327  36.921  38.796  13.554
71110W        W39328  40.502  36.616   4.372
71111W        W39329  32.100   8.333   0.300
71112W        W39330  30.097  31.742  14.531
71113W        W39331   3.973  35.134   3.732
71114W        W39332  24.050  25.614  13.902
71115W        W39333  27.172  25.076   4.450
71116W        W39334  36.087   7.577   3.321
71117W        W39335   8.784  25.155  14.387
71118W        W39336  17.138  10.182  13.731
71119W        W39337  30.436   2.952  13.181
71120W        W39338  32.430   5.849  10.709
71121W        W39339  42.012  16.685  11.662
71122W        W39340  42.367  33.396  11.390
71123W        W39341  15.748  21.295   3.587
71124W        W39342  44.954  14.285   1.354
71125W        W39343  23.876   7.892   4.795
71126W        W39344  17.731  34.129  14.746
71127W        W39345  28.100   8.574  11.928
71128W        W39346  20.788   1.145  13.344
71129W        W39347  24.951  16.570   4.908
71130W        W39348  44.890  40.572   3.786
71131W        W39349   0.690  25.355   0.884
71132W        W39350  38.578  21.159  14.349
71133W        W39351  22.219  13.735  14.665
71134W        W39352  34.539  34.474   3.759
71135W        W39353  22.814  12.773   1.943
71136W        W39354  13.868   8.090  11.149
71137W        W39355  34.551  42.500   4.693
71138W        W39356  16.755  18.447   2.714
71139W        W39357  23.096  36.034   0.754
71140W        W39358  42.564  42.039  14.277
71141W        W39359  13.049  30.647  11.084
71142W        W39360  10.750  21.007   4.600
71143W        W39361   0.448  36.938  12.531
71144W        W39362  21.537  37.059   3.565
71145W        W39363  16.525  35.744   1.241
71146W        W39364  19.481  36.706  13.344
71147W        W39365  31.163   9.787   1.015
71148W        W39366  22.511  22.528  13.433
71149W        W39367   4.443  16.408  13.080
71150W        W39368  14.266  11.475   2.814
71151W        W39369  26.264  13.680  14.534
71152W        W39370  19.171  17.259  11.001
71153W        W39371  17.535  42.273   2.413
71154W        W39372  38.264  43.562   0.438
71155W        W39373   6.014  37.654   5.007
71156W        W39374  30.472  33.686   1.302
71157W        W39375   3.337  29.438   4.594
71158W        W39376  25.095  31.004  11.233
71159W        W39377  36.720   2.654  12.999
71160W        W39378  32.042  28.853  14.859
71161W        W39379   1.022  32.959   4.240
71162W        W39380  40.811  12.831  11.659
71163W        W39381   6.057  22.305   3.389
71164W        W39382  24.637   3.985  12.104
71165W        W39383   9.613   8.418   4.038
71166W        W39384  39.445  10.675  12.303
71167W        W39385  30.990  28.720  14.242
71168W        W39386  34.832  27.076   2.440
71169W        W39387  11.203   6.264  13.987
71170W        W39388  21.090  16.633   1.320
71171W        W39389  37.030   2.417  13.772
71172W        W39390  37.571  35.365  14.517
71173W        W39391  44.375  16.236   0.715
71174W        W39392   9.892  31.558  12.805
71175W        W39393  32.592   2.775  11.157
71176W        W39394  44.420  38.626   0.903
71177W        W39395  26.320  12.168  10.347
71178W        W39396  10.604  38.766   3.202
71179W        W39397  16.637   4.889   2.316
71180W        W39398  43.037  40.358  14.476
71181W        W39399  40.899   8.725  12.189
71182W        W39400  29.206  18.079   3.429
71183W        W39401  43.248  39.771  12.834
71184W        W39402  31.972  10.020  11.486
71185W        W39403   0.048  27.202   1.653
71186W        W39404  16.244   5.489  13.017
71187W        W39405  42.585  10.339  12.843
71188W        W39406   0.776  35.796   0.660
71189W        W39407   3.892  18.135   4.336
71190W        W39408  10.306  14.094  10.618
71191W        W39409  26.130  13.796  13.073
71192W        W39410  35.882  29.068   3.273
71193W        W39411  33.844  21.733   4.228
71194W        W39412  33.090  28.980  10.729
71195W        W39413  28.088  28.612  10.822
71196W        W39414   5.932  23.243   4.683
71197W        W39415  42.910   5.909   3.914
71198W        W39416  15.175  22.980   4.019
71199W        W39417  43.960  39.832   1.783
71200W        W39418  42.265  38.471  11.493
71201W        W39419  33.952  20.637  14.457
71202W        W39420   5.331  35.611  12.437
71203W        W39421   0.805  37.280   1.638
71204W        W39422  13.890  32.163   2.291
71205W        W39423   0.768  19.249   3.826
71206W        W39424  19.752  22.565  13.328
71207W        W39425   9.552  22.165  11.415
71208W        W39426  19.311  35.485  10.769
71209W        W39427  29.168  40.825  10.578
71210W        W39428  33.581  19.164   1.414
71211W        W39429  21.074  27.414   0.715
71212W        W39430  32.531  39.104  13.904
71213W        W39431  10.208  13.151   2.634
71214W        W39432  44.711  15.295   3.066
71215W        W39433  31.621   9.593   4.957
71216W        W39434  23.567  43.310  11.007
71217W        W39435   5.142  19.739  12.963
71218W        W39436  18.827   8.318  11.956
71219W        W39437  25.142  23.367  13.878
71220W        W39438  32.355  41.572   1.340
71221W        W39439  34.298   8.350  14.874
71222W        W39440   7.061  38.866  14.832
71223W        W39441  26.784   5.978  14.032
71224W        W39442  30.389  24.051   1.533
71225W        W39443  22.066  30.117  10.882
71226W        W39444  30.529   1.320   3.255
71227W        W39445  15.746  32.049  11.509
71228W        W39446   9.419  18.206   3.233
71229W        W39447   9.808  38.382  13.438
71230W        W39448   6.199  40.893  13.820
71231W        W39449  36.430  14.482   0.453
71232W        W39450  34.366  26.146  11.668
71233W        W39451  39.345  42.807  13.957
71234W        W39452  35.517  20.325   1.228
71235W        W39453   9.302   4.309   4.490
71236W        W39454  14.858  22.288  13.868
71237W        W39455  42.486   0.472  13.749
71238W        W39456  44.519  13.897   0.373
71239W        W39457   7.659  37.898  13.741
71240W        W39458  20.318  13.144  10.616
71241W        W39459  38.459   4.304   2.765
71242W        W39460  13.863  27.164  13.076
71243W        W39461  35.007  42.011  14.227
71244W        W39462  24.058  30.476  14.890
71245W        W39463  18.109  15.818   1.207
71246W        W39464   7.722  13.915  10.707
71247W        W39465  23.893  10.289   2.132
71248W        W39466  31.665   1.648   2.744
71249W        W39467  28.920  43.591  12.511
71250W        W39468  24.077   6.553   2.283
71251W        W39469   6.603   4.473   3.270
71252W        W39470  22.069  16.560  12.094
71253W        W39471  36.468  42.442   0.512
71254W        W39472  44.135  29.631   0.792
71255W        W39473   9.896  44.442   0.335
71256W        W39474   9.337  25.890  12.830
71257W        W39475   6.299  16.190   2.278
71258W        W39476  19.122   2.898  10.495
71259W        W39477  39.879  21.423  11.981
71260W        W39478  11.253  25.416   1.860
71261W        W39479  43.503   1.252   0.914
71262W        W39480  14.257   8.880   4.976
71263W        W39481   2.173  21.700  13.162
71264W        W39482   5.928  26.451   0.799
71265W        W39483  43.673   3.098  12.003
71266W        W39484   7.366  39.048   1.468
71267W        W39485  41.170  42.906   3.209
71268W        W39486  19.078  19.318   1.676
71269W        W39487   6.729  12.595   0.945
71270W        W39488  40.278  33.576   2.416
71271W        W39489  17.662  22.532   4.082
71272W        W39490  24.994  30.989  14.086
71273W        W39491  21.170  16.641  11.864
71274W        W39492  42.315  15.523  11.994
71275W        W39493  13.040  20.090  11.085
71276W        W39494  15.406  43.258  12.533
71277W        W39495  30.499   3.881  13.023
71278W        W39496  18.471  26.077  14.892
71279W        W39497  12.760  15.581   0.281
71280W        W39498  16.239  14.202   4.058
71281W        W39499  10.711  24.289  13.364
71282W        W39500  36.415  12.322  11.114
71283W        W39501  31.615  32.934   3.041
71284W        W39502   3.198  37.453  12.440
71285W        W39503  22.079  22.742  13.721
71286W        W39504   9.151   6.623  13.378
71287W        W39505  37.414  24.978   0.027
71288W        W39506  38.347  36.206   1.013
71289W        W39507   9.810   4.270   3.290
71290W        W39508  13.172  41.782   3.037
71291W        W39509   3.227  21.787   2.328
71292W        W39510  14.007  32.070   4.236
71293W        W39511   8.913  24.037   2.863
71294W        W39512  29.069  32.573   1.350
71295W        W39513   4.760   7.273  12.488
71296W        W39514  42.908  13.021  14.941
71297W        W39515   8.819  36.048  14.813
71298W        W39516  26.082  13.772   1.390
71299W        W39517   8.230  30.465  13.527
71300W        W39518  27.046  21.708  11.410
71301W        W39519   7.794  25.713   4.287
71302W        W39520   2.220  42.938   4.984
71303W        W39521   9.834  40.344   2.948
71304W        W39522   3.512   6.197   5.268
71305W        W39523  14.815  43.519  14.879
71306W        W39524  32.565  19.566   4.864
71307W        W39525   0.846  25.660   4.061
71308W        W39526  25.646   9.409   0.082
71309W        W39527   6.854  44.142   0.222
71310W        W39528   9.161  11.793   3.185
71311W        W39529  11.242  24.496   1.863
71312W        W39530  14.828  20.540   3.733
71313W        W39531  25.864  32.507  13.024
71314W        W39532  21.674  36.676  10.734
71315W        W39533  44.243  38.859   1.339
71316W        W39534  20.776   1.475   2.379
71317W        W39535  40.417  40.810  13.768
71318W        W39536  11.825   4.236  12.562
71319W        W39537  31.889  36.819  14.074
71320W        W39538  28.673  15.030   3.958
71321W        W39539  13.988  40.860  13.011
71322W        W39540  43.423  26.454  12.519
71323W        W39541  24.954  20.313  11.699
71324W        W39542  22.474   6.592  14.030
71325W        W39543  44.018  16.401   4.252
71326W        W39544  10.899  44.863  13.821
71327W        W39545  20.072  25.282   3.734
71328W        W39546  34.888  11.861   0.492
71329W        W39547   4.959  16.645   2.431
71330W        W39548   7.414  33.088   3.202
71331W        W39549   2.246  14.348  10.532
71332W        W39550  38.508   0.337  13.966
71333W        W39551  37.113   3.345  14.740
71334W        W39552   3.918  35.286  14.768
71335W        W39553  10.756   9.443  11.692
71336W        W39554  36.343   9.974  11.442
71337W        W39555  39.082  11.000  10.557
71338W        W39556  39.940  31.180   0.839
71339W        W39557   1.416  44.985   3.766
71340W        W39558  15.561  12.330   2.858
71341W        W39559   6.329  16.559   9.844
71342W        W39560   5.377  32.106   2.707
71343W        W39561  20.542  27.607   1.911
71344W        W39562  42.448  32.418   3.355
71345W        W39563  22.642  21.771  12.970
71346W        W39564  44.400  33.922   0.960
71347W        W39565   3.230  19.108   3.682
71348W        W39566  31.709  34.525  13.825
71349W        W39567   2.679  37.774  14.878
71350W        W39568  17.242  19.987   0.962
71351W        W39569  19.645  32.059   3.588
71352W        W39570  15.332  27.512   0.373
71353W        W39571   2.976  13.595  12.558
71354W        W39572  36.276  11.727  14.806
71355W        W39573  15.216   8.025  11.120
71356W        W39574  39.235  34.208  12.493
71357W        W39575   5.702  41.305  13.466
71358W        W39576   4.478  16.886  11.637
71359W        W39577  19.061  31.184  11.817
71360W        W39578  38.090  23.340  13.685
71361W        W39579  23.234  17.811  14.835
71362W        W39580   3.004  37.918  12.228
71363W        W39581   1.138  28.406   2.406
71364W        W39582  24.858  19.186  11.355
71365W        W39583  28.988  12.607   4.199
71366W        W39584  20.004  16.137   3.298
71367W        W39585  28.478  42.493  14.535
71368W        W39586  15.516   3.476  12.080
71369W        W39587  11.341  22.155   4.518
71370W        W39588   0.789  27.572   4.359
71371W        W39589  21.556   5.249   2.134
71372W        W39590  34.014  17.671  13.843
71373W        W39591  14.131  23.090  10.661
71374W        W39592  11.209  17.746   2.556
71375W        W39593  18.776  17.347   0.894
71376W        W39594   7.233   9.179  11.124
71377W        W39595  35.900   2.140  13.267
71378W        W39596   2.004  24.274   0.370
71379W        W39597   3.713  30.875   1.913
71380W        W39598   5.713   2.520  13.449
71381W        W39599   0.717  12.648  13.065
71382W        W39600  24.323   0.511  13.562
71383W        W39601  19.600   5.978  11.191
71384W        W39602  15.611  41.968  13.097
71385W        W39603  19.875   9.845  13.808
71386W        W39604  10.666   9.373  13.535
71387W        W39605  11.174  12.252  12.126
71388W        W39606  29.609  12.751  13.960
71389W        W39607   8.549   8.280  13.158
71390W        W39608  30.374  36.339  13.560
71391W        W39609   8.434  38.605  14.481
71392W        W39610   0.880   0.896   4.091
71393W        W39611  38.454  15.295   4.793
71394W        W39612  44.825  41.603  11.372
71395W        W39613  34.896  36.604   3.662
71396W        W39614  16.129   6.245   4.376
71397W        W39615  35.758   5.895  13.532
71398W        W39616  20.676  20.754   1.915
71399W        W39617  33.515  21.758   2.333
71400W        W39618  18.779  20.319   3.260
71401W        W39619   9.803   6.665   1.813
71402W        W39620  37.453  12.611   4.011
71403W        W39621  10.813  34.544  10.979
71404W        W39622  10.664  43.290  11.967
71405W        W39623  38.889  22.183  11.977
71406W        W39624  12.630  43.961  12.549
71407W        W39625  14.691  38.982   2.039
71408W        W39626  10.840  40.286  14.349
71409W        W39627  17.205  14.183   3.149
71410W        W39628   0.968   4.252  11.205
71411W        W39629  34.981  13.283   4.614
71412W        W39630   1.212  13.051   3.275
71413W        W39631   8.782  29.261  12.904
71414W        W39632   4.432  44.723   2.710
71415W        W39633  34.093   4.014  10.749
71416W        W39634  29.231  27.983  14.625
71417W        W39635  38.517  34.179  14.407
71418W        W39636  18.154   7.031  11.804
71419W        W39637  40.797  32.444   2.834
71420W        W39638  30.327  26.215   2.149
71421W        W39639   3.073  34.878   0.765
71422W        W39640  33.016  32.015   1.475
71423W        W39641  26.290  10.697  12.808
71424W        W39642  44.561  30.793   3.229
71425W        W39643  20.307   6.321  13.550
71426W        W39644  29.330  25.711  13.479
71427W        W39645  28.724  22.142   2.165
71428W        W39646  22.079  19.315   0.247
71429W        W39647  16.779  27.042  12.100
71430W        W39648  39.443  33.127   3.722
71431W        W39649  13.818  44.136  11.229
71432W        W39650  31.177  43.308  12.215
71433W        W39651  18.985  26.509  13.458
71434W        W39652  40.576  20.025  13.637
71435W        W39653  28.758  19.131  13.185
71436W        W39654   4.457  44.550  14.257
71437W        W39655   8.799  39.240  13.912
71438W        W39656  43.197  22.249  14.711
71439W        W39657  12.526  14.199   2.313
71440W        W39658  34.352  27.853   3.539
71441W        W39659  31.625  16.157   1.442
71442W        W39660  32.687   8.467  11.236
71443W        W39661  41.939  19.533   3.671
71444W        W39662  36.380  40.386  14.805
71445W        W39663  20.132  37.900  12.625
71446W        W39664  24.950  16.110   9.736
71447W        W39665  27.931  29.460  13.046
71448W        W39666  19.215  35.643   4.994
71449W        W39667  15.212  26.916   1.506
71450W        W39668  39.080  15.744   5.009
71451W        W39669  12.947  37.317   4.279
71452W        W39670   4.330   8.221   1.249
71453W        W39671  40.132  13.812   1.883
71454W        W39672  17.213  22.351   1.296
71455W        W39673  42.841  37.402  12.703
71456W        W39674  12.388  24.658   0.892
71457W        W39675  35.970   6.927   3.973
71458W        W39676  14.344  20.161  12.963
71459W        W39677  25.975  14.485   1.074
71460W        W39678  16.101  41.427   3.437
71461W        W39679  14.245  30.976  13.323
71462W        W39680  27.860  43.953  13.925
71463W        W39681  28.615   4.379  14.992
71464W        W39682  30.672  14.782  11.031
71465W        W39683  43.506  28.112  10.927
71466W        W39684  38.344  38.786  12.879
71467W        W39685  23.245  40.179  12.453
71468W        W39686   7.703  26.941   3.622
71469W        W39687   5.783  35.313   2.428
71470W        W39688   2.782   6.539   3.436
71471W        W39689  26.283  14.684  12.186
71472W        W39690   9.305   0.949  11.974
71473W        W39691  31.013  31.905   3.431
71474W        W39692  44.768   3.211   1.073
71475W        W39693  27.030   6.551   0.357
71476W        W39694  12.835  40.544  13.660
71477W        W39695  25.866  41.427   4.859
71478W        W39696  15.071  19.731  14.257
71479W        W39697  17.653  39.791  14.558
71480W        W39698  29.529   8.650  11.973
71481W        W39699   9.127  24.853  11.213
71482W        W39700  43.365  18.904  11.198
71483W        W39701  29.022  37.959  14.953
71484W        W39702  42.883  15.884  12.799
71485W        W39703  22.970  10.866   3.977
71486W        W39704   5.408  33.662  10.694
71487W        W39705   8.700  30.281  11.679
71488W        W39706  10.206  22.734   2.666
71489W        W39707  30.852  13.682   1.125
71490W        W39708  42.822  34.939  12.371
71491W        W39709  34.025   5.296   5.510
71492W        W39710  39.418  16.255   2.635
71493W        W39711  23.171   8.571   4.302
71494W        W39712  30.313  10.278  12.098
71495W        W39713   3.744   9.803   1.764
71496W        W39714  12.897  21.968   3.300
71497W        W39715   8.766  44.781  11.950
71498W        W39716  14.749  30.490   0.805
71499W        W39717  36.975  42.091   3.750
71500W        W39718  37.483  19.081  11.980
71501W        W39719  23.997   0.107  13.470
71502W        W39720  32.104  27.401   1.561
71503W        W39721  44.898  15.981  12.488
71504W        W39722  17.354   9.421  12.854
71505W        W39723  26.341  35.866   1.317
71506W        W39724  24.986   0.343   3.772
71507W        W39725  35.919  27.542  13.364
71508W        W39726  41.743   9.389  13.441
71509W        W39727   3.856  13.740  11.921
71510W        W39728  10.822  40.745  13.418
71511W        W39729   2.399   6.990  12.580
71512W        W39730  17.462  28.949   3.302
71513W        W39731   8.709   5.836  11.611
71514W        W39732  37.684  27.413   2.951
71515W        W39733  10.088  37.153  12.910
71516W        W39734  23.475   0.808   1.497
71517W        W39735  31.194  31.789  11.945
71518W        W39736  11.951   3.365  11.725
71519W        W39737  17.752  37.422   4.362
71520W        W39738  34.922  19.186   0.854
71521W        W39739  23.261   5.786   2.389
71522W        W39740  22.523  29.470  13.969
71523W        W39741  36.379  14.358  14.443
71524W        W39742  38.909  37.552  13.036
71525W        W39743  39.654  18.349  11.237
71526W        W39744  11.239   7.634  11.504
71527W        W39745  39.990  35.816   3.954
71528W        W39746  10.847   3.705  11.127
71529W        W39747   3.415  31.575   0.367
71530W        W39748  24.911  20.838  13.876
71531W        W39749  22.511  34.895  12.039
71532W        W39750  25.737  38.961   3.366
71533W        W39751  15.336   4.393  10.277
71534W        W39752  17.380  33.818   3.925
71535W        W39753  27.545  40.618  12.548
71536W        W39754  14.152  39.492  12.473
71537W        W39755  42.963  43.876  12.578
71538W        W39756   9.596  41.447  13.828
71539W        W39757  27.864  21.228   0.225
71540W        W39758  15.831  19.089   0.043
71541W        W39759  23.178   4.337   3.228
71542W        W39760  32.162   1.673   4.051
71543W        W39761  28.757  16.452   4.164
71544W        W39762  27.005  12.548  11.532
71545W        W39763  27.078  30.330  10.814
71546W        W39764  11.831  13.144   2.757
71547W        W39765  10.571   8.632   3.310
71548W        W39766   8.191   7.773   0.764
71549W        W39767   6.854  15.695  10.698
71550W        W39768  35.875  26.566   2.644
71551W        W39769  13.098   4.029   4.307
71552W        W39770  13.156   9.855  11.048
71553W        W39771  22.661  18.137  10.423
71554W        W39772  37.948   9.403  11.042
71555W        W39773  15.807  25.011   3.299
71556W        W39774  15.445  11.096   1.313
71557W        W39775  31.384  42.769  12.241
71558W        W39776  29.023   2.979   4.002
71559W        W39777   2.901  42.015  14.718
71560W        W39778  33.432  20.149   1.849
71561W        W39779  24.114   2.931   4.463
71562W        W39780   7.649  39.848   4.115
71563W        W39781  28.614   7.800   1.354
71564W        W39782  11.625  26.194   1.520
71565W        W39783   8.755  23.761   4.179
71566W        W39784   5.925  21.272   3.661
71567W        W39785  29.578  25.624  10.463
71568W        W39786  10.676  32.385   1.222
71569W        W39787   2.742  42.422   3.278
71570W        W39788  39.542   8.828   0.198
71571W        W39789  19.851  33.272  13.008
71572W        W39790  38.286  17.552   1.934
71573W        W39791  13.172  23.193  11.228
71574W        W39792  35.085  37.801   3.991
71575W        W39793  34.057  18.021  12.030
71576W        W39794  22.516  41.254   2.885
71577W        W39795  42.407  18.724   3.577
71578W        W39796  27.562  33.527  11.590
71579W        W39797   4.393   1.709   1.378
71580W        W39798   3.397  35.828  11.687
71581W        W39799  16.305  22.473  11.167
71582W        W39800  15.337  34.614   3.428
71583W        W39801   4.408  23.602  14.752
71584W        W39802  20.440   1.664   1.978
71585W        W39803  23.172  44.956  10.951
71586W        W39804   9.215  22.549   9.932
71587W        W39805  12.866  39.010  12.826
71588W        W39806  44.008   7.742  13.678
71589W        W39807  30.114  25.718  11.655
71590W        W39808  41.528  36.894   3.114
71591W        W39809   1.261  17.646  14.809
71592W        W39810  30.636  25.066  14.268
71593W        W39811   8.417   0.225  14.949
71594W        W39812  37.827  12.001  13.678
71595W        W39813  37.524  18.870  13.948
71596W        W39814  18.258  24.175   4.152
71597W        W39815  27.917   6.688   2.421
71598W        W39816  10.851   8.747   2.859
71599W        W39817  35.445  42.625   1.267
71600W        W39818  20.822  22.101  10.672
71601W        W39819   9.327  35.194  11.161
71602W        W39820   7.900  30.323  14.014
71603W        W39821  42.851  29.423  13.525
71604W        W39822  13.730  21.207   4.286
71605W        W39823   3.696  36.979   4.789
71606W        W39824  25.288   9.709   3.670
71607W        W39825  12.919  21.277   4.536
71608W        W39826  18.517  44.688  14.938
71609W        W39827  37.500  32.057   3.248
71610W        W39828  14.683  38.849  10.733
71611W        W39829  28.430  39.614   4.076
71612W        W39830   7.079  24.200  11.752
71613W        W39831   5.285  31.775   3.110
71614W        W39832  35.518  17.218  14.144
71615W        W39833  33.538  34.827  10.645
71616W        W39834  27.495  30.787   4.865
71617W        W39835  39.626  34.249   4.817
71618W        W39836  15.985  26.567  11.042
71619W        W39837  28.374  37.967  10.869
71620W        W39838  40.321  20.546   4.814
71621W        W39839  23.979   6.186   4.181
71622W        W39840  10.656  21.579   0.602
71623W        W39841  27.435  26.060  13.806
71624W        W39842   7.150  19.472  13.527
71625W        W39843   5.885  31.002  14.945
71626W        W39844  42.086  28.590   3.214
71627W        W39845   8.664  37.895  12.561
71628W        W39846   2.009  43.972   0.300
71629W        W39847  14.044  35.562   3.506
71630W        W39848  12.291   6.152  12.865
71631W        W39849   7.398  31.011  11.238
71632W        W39850  18.774  23.042  13.036
71633W        W39851  21.606  30.152   3.782
71634W        W39852  44.019  37.991   3.898
71635W        W39853  23.238  12.562  11.542
71636W        W39854  21.941  19.221   2.794
71637W        W39855  34.844  24.618   3.811
71638W        W39856  25.230   6.106   3.151
71639W        W39857  14.130  42.407   9.838
71640W        W39858  13.102  21.562  12.362
71641W        W39859   4.643  31.861  11.189
71642W        W39860  30.767  24.020   3.196
71643W        W39861  26.412  30.997   4.193
71644W        W39862  11.694  44.767   1.838
71645W        W39863  28.434  26.333   0.857
71646W        W39864   6.674  24.527   2.800
71647W        W39865  27.557  24.221  14.421
71648W        W39866   5.177   1.416  12.873
71649W        W39867  17.299   4.241   1.626
71650W        W39868  39.529   4.719  13.050
71651W        W39869  39.407   6.819   2.408
71652W        W39870   7.339  21.045  12.083
71653W        W39871  23.024   6.371   4.879
71654W        W39872  21.202  41.912  10.650
71655W        W39873   3.747  36.989  12.473
71656W        W39874  14.569  10.888  12.094
71657W        W39875  10.919  22.042  12.078
71658W        W39876  36.823  20.100   3.496
71659W        W39877   3.912  18.601  10.478
71660W        W39878  19.996   8.822   1.985
71661W        W39879  20.714   7.492  14.179
71662W        W39880   3.678  33.138   2.135
71663W        W39881  38.988  37.630  13.893
71664W        W39882  25.634  40.715  10.065
71665W        W39883  38.485  28.404   1.763
71666W        W39884  40.796  34.358   0.816
71667W        W39885  10.766   3.826  14.173
71668W        W39886   5.956  44.875  10.795
71669W        W39887  26.463  16.878  11.083
71670W        W39888  21.123   8.094  14.856
71671W        W39889  16.717  39.437   0.844
71672W        W39890  20.263   8.246  14.694
71673W        W39891   8.150  42.754  10.147
71674W        W39892  22.256  14.834   1.592
71675W        W39893  41.466  17.129  14.809
71676W        W39894  19.046  29.610  14.555
71677W        W39895   8.230  28.107   0.299
71678W        W39896  28.149   1.922   9.903
71679W        W39897  29.630  40.603  10.438
71680W        W39898  27.489   2.157  14.298
71681W        W39899  37.942  41.949   1.493
71682W        W39900  25.604  19.576  14.390
71683W        W39901  31.657  11.036  13.220
71684W        W39902   5.941  32.070   4.504
71685W        W39903  28.917  11.847  11.555
71686W        W39904  36.656   8.283   0.992
71687W        W39905  28.972  10.929  12.479
71688W        W39906  32.023  15.074  12.042
71689W        W39907  30.211  42.462   0.296
71690W        W39908  23.938  20.010  11.526
71691W        W39909   0.977   1.916  14.602
71692W        W39910   0.783  15.959  13.830
71693W        W39911   1.216  22.006   0.293
71694W        W39912  29.218   0.061   2.874
71695W        W39913  39.986  30.401  13.240
71696W        W39914  41.458  43.964  11.223
71697W        W39915  33.538  19.077  10.665
71698W        W39916  35.848  40.968   1.792
71699W        W39917  37.772  15.750   4.668
71700W        W39918  38.353  17.014   2.689
71701W        W39919  34.806  34.196  10.990
71702W        W39920  14.938   5.246  13.831
71703W        W39921  13.899  30.432  14.434
71704W        W39922  22.315  23.240  13.788
71705W        W39923  10.782  10.400   1.801
71706W        W39924  16.242   5.404   2.934
71707W        W39925  10.664  39.261  13.489
71708W        W39926  16.232  39.965  13.791
71709W        W39927  37.840   1.491  10.285
71710W        W39928  43.981  12.682   2.763
71711W        W39929   9.735   8.444   2.241
71712W        W39930   1.173  41.241   4.174
71713W        W39931   9.606  40.070  14.874
71714W        W39932  23.593  17.140   4.212
71715W        W39933  43.053  26.128   2.732
71716W        W39934  26.435  32.091   3.400
71717W        W39935  34.504  29.556  14.067
71718W        W39936  22.472   2.260  12.950
71719W        W39937  33.737  15.565   1.183
71720W        W39938  32.058  26.575  11.023
71721W        W39939   6.302  11.702   2.271
71722W        W39940  23.446  11.314   0.247
71723W        W39941   7.265  43.754  12.210
71724W        W39942  18.757  24.506   2.827
71725W        W39943   7.517  30.666  13.960
71726W        W39944  29.175  36.017   3.608
71727W        W39945   0.521  40.035   4.434
71728W        W39946   7.568  34.531  13.883
71729W        W39947  34.409   4.770  10.928
71730W        W39948   7.364   5.800   4.673
71731W        W39949  36.631  15.218  11.094
71732W        W39950  29.077  25.572  11.629
71733W        W39951   0.391  17.454   4.833
71734W        W39952  35.640  29.690  11.565
71735W        W39953  29.484   9.822   2.799
71736W        W39954  14.719  29.737  13.409
71737W        W39955  34.520   9.171   2.402
71738W        W39956  42.892   6.010  13.253
71739W        W39957  37.597  20.470   4.474
71740W        W39958   6.175   4.307   2.252
71741W        W39959  44.976  37.543   1.944
71742W        W39960  35.440  16.685  11.327
71743W        W39961  12.837  40.342  12.852
71744W        W39962  37.879   8.913   4.364
71745W        W39963  36.092  39.894  14.038
71746W        W39964  26.533   0.992  14.479
71747W        W39965  37.372  12.936   4.640
71748W        W39966  18.671  42.767   3.977
71749W        W39967  10.412   9.527  13.113
71750W        W39968  36.848  10.116  14.972
71751W        W39969  20.058  20.141   0.409
71752W        W39970  22.231  38.977  14.890
71753W        W39971   7.266  35.085  10.705
71754W        W39972  42.509   4.653   3.692
71755W        W39973  23.620  44.904  11.215
71756W        W39974  22.395  19.543  13.408
71757W        W39975   8.783  40.636  12.158
71758W        W39976   2.455  33.947  10.596
71759W        W39977  35.829  14.615  14.449
71760W        W39978  15.371  43.081  14.343
71761W        W39979   5.329   3.988   3.521
71762W        W39980  12.843   3.410   3.664
71763W        W39981  15.714   9.201   4.994
71764W        W39982   4.242   9.463  14.402
71765W        W39983  10.100  20.524   0.478
71766W        W39984  39.841  41.609  12.655
71767W        W39985  16.387   2.933   0.800
71768W        W39986  30.817   7.211  14.964
71769W        W39987  11.721  22.004  10.657
71770W        W39988   0.856  31.840   3.711
71771W        W39989   2.785  18.947   0.737
71772W        W39990  26.094   9.119   1.898
71773W        W39991  22.912  32.906  11.542
71774W        W39992  24.503   0.013  10.711
71775W        W39993  44.472  18.202   2.642
71776W        W39994  22.690  28.635   3.309
71777W        W39995  21.971  34.860  14.321
71778W        W39996  42.597  16.694  12.492
71779W        W39997   5.656  44.316   0.797
71780W        W39998   9.460  35.988  12.006
71781W        W39999  42.815   1.399   4.641
71782W        W40000   5.978   7.919   3.354
71783W        W40001  23.554  27.712   3.664
71784W        W40002  26.434  22.556  14.529
71785W        W40003  11.718   1.603  14.794
71786W        W40004  16.548  24.360   2.362
71787W        W40005   8.905  32.613   1.794
71788W        W40006  32.634  15.696  14.775
71789W        W40007  37.392  18.747   2.298
71790W        W40008   5.129  19.046   1.882
71791W        W40009  10.616  27.678   1.339
71792W        W40010  23.157  31.149  10.517
71793W        W40011  14.056  37.521  13.963
71794W        W40012   7.674  41.124   1.810
71795W        W40013  21.242   8.855   0.507
71796W        W40014   2.977  43.445  12.758
71797W        W40015   1.210  17.063  14.190
71798W        W40016  39.104  24.123  13.854
71799W        W40017  30.338  42.675   2.772
71800W        W40018  43.291  11.194  13.550
71801W        W40019   9.604  16.229   0.431
71802W        W40020  42.477  21.351   9.863
71803W        W40021  15.580   1.827   4.146
71804W        W40022  38.966  12.180  14.922
71805W        W40023  12.210   2.682  12.919
71806W        W40024  27.710  35.061  10.698
71807W        W40025  24.664   3.411   1.372
71808W        W40026  28.162   4.533  14.401
71809W        W40027  15.583  26.170   0.867
71810W        W40028   0.740  12.597   1.905
71811W        W40029  40.816  13.236  14.050
71812W        W40030   5.402  33.644  12.746
71813W        W40031   3.047  10.424  12.531
71814W        W40032  15.808  29.037  12.025
71815W        W40033  42.832   9.605   4.878
71816W        W40034  42.496   1.039   3.151
71817W        W40035  16.523  24.047   1.362
71818W        W40036  27.434   6.821   3.269
71819W        W40037  24.166  18.278  10.801
71820W        W40038   3.637   9.706  10.142
71821W        W40039   5.773  16.268  14.007
71822W        W40040  32.193  21.764   3.660
71823W        W40041  11.307  12.398   1.212
71824W        W40042  31.683  24.520  10.676
71825W        W40043   1.298  32.878  12.976
71826W        W40044  12.085  28.560   3.593
71827W        W40045  36.050  30.123   0.789
71828W        W40046  17.633  18.422  10.704
71829W        W40047  18.701   0.201   4.131
71830W        W40048  24.276  36.633   0.872
71831W        W40049  24.409  40.307  11.594
71832W        W40050  27.256  25.746  11.689
71833W        W40051  37.973  32.669   3.741
71834W        W40052   9.293  27.462   1.038
71835W        W40053   8.377  18.295   1.432
71836W        W40054  30.115  20.771  10.658
71837W        W40055   2.258  25.493  11.173
71838W        W40056  26.223   1.848  12.905
71839W        W40057  38.958  13.840  11.098
71840W        W40058  20.659   3.357  14.432
71841W        W40059  30.466  42.622  12.218
71842W        W40060  35.532  34.467   4.767
71843W        W40061  15.155   5.760  11.966
71844W        W40062  22.068   8.134  12.861
71845W        W40063  28.431  26.548  14.002
71846W        W40064   4.341  13.299  12.536
71847W        W40065  36.785  36.995  12.361
71848W        W40066  26.446  33.510  12.709
71849W        W40067  44.175  39.347   4.326
71850W        W40068  17.821   9.174   0.922
71851W        W40069  14.027  18.151   0.916
71852W        W40070  32.290   6.055   3.352
71853W        W40071   8.288  28.468  14.910
71854W        W40072  33.008  12.125   0.400
71855W        W40073   4.458  30.564  11.448
71856W        W40074  16.697   8.497   1.733
71857W        W40075  32.629  25.449   1.622
71858W        W40076  22.484  33.896  12.094
71859W        W40077  36.098  39.031   0.452
71860W        W40078  36.502  22.486   1.291
71861W        W40079  12.140  44.914   4.750
71862W        W40080  38.418  23.529  10.688
71863W        W40081  14.390   5.223  12.111
71864W        W40082  20.949  44.897  12.689
71865W        W40083  43.875  11.550  13.910
71866W        W40084  38.499  31.062  12.023
71867W        W40085  34.265  28.986   0.457
71868W        W40086  34.614   5.159  10.577
71869W        W40087   3.941  39.283   1.989
71870W        W40088  33.497   1.874   4.040
71871W        W40089   9.266  35.927   2.335
71872W        W40090   5.406  24.129  13.524
71873W        W40091  17.951  23.021  11.499
71874W        W40092   0.981   5.271  11.885
71875W        W40093   4.560  28.982  12.088
71876W        W40094  22.160  35.078   2.413
71877W        W40095  40.651  12.652  11.213
71878W        W40096  26.061  16.308  14.846
71879W        W40097   1.535  18.740  13.592
71880W        W40098  42.756  37.900  13.443
71881W        W40099  34.392  33.978  13.888
71882W        W40100  33.883  10.891   2.389
71883W        W40101   7.132  41.915   9.895
71884W        W40102  35.373  32.312  11.064
71885W        W40103  31.109  36.101   2.368
71886W        W40104  44.005   2.975  13.835
71887W        W40105  43.346  15.109   1.789
71888W        W40106  36.196  42.927  13.464
71889W        W40107  37.059  11.235  13.258
71890W        W40108  19.364  42.995  12.929
71891W        W40109  37.018  25.217  12.925
71892W        W40110   8.174   8.377   1.439
71893W        W40111  17.472  28.669  13.283
71894W        W40112  38.374  37.439  10.373
71895W        W40113  36.768  16.252   2.385
71896W        W40114   7.898  14.115   2.223
71897W        W40115  18.315  34.972   0.769
71898W        W40116   3.973  35.176   0.813
71899W        W40117   7.282  32.165   0.766
71900W        W40118  34.982  24.327  11.320
71901W        W40119  20.286  18.551  14.542
71902W        W40120  32.162   4.286  12.703
71903W        W40121  34.007  23.646   3.741
71904W        W40122  21.758  36.633  11.609
71905W        W40123  43.008  15.656   3.699
71906W        W40124  44.834   8.498   3.293
71907W        W40125  17.675  14.095   2.854
71908W        W40126  36.433  14.578  10.467
71909W        W40127  16.654  24.163   1.873
71910W        W40128  29.046   6.575  12.517
71911W        W40129  27.823  27.627   3.875
71912W        W40130   0.262   0.788   1.227
71913W        W40131  28.698  33.004  12.362
71914W        W40132  26.636  20.758  13.546
71915W        W40133  18.968  10.205  11.818
71916W        W40134  22.282  28.740  14.388
71917W        W40135  20.577  20.006   2.438
71918W        W40136  36.004  15.621  14.634
71919W        W40137  28.653   6.026   1.430
71920W        W40138   9.501  35.066   4.179
71921W        W40139  24.674  36.996  11.463
71922W        W40140  18.207  40.922   2.162
71923W        W40141  20.149  11.244   1.926
71924W        W40142  32.198   0.299   4.981
71925W        W40143  35.031   6.458  13.849
71926W        W40144  42.111   8.873   1.907
71927W        W40145  12.169  10.598  12.324
71928W        W40146   2.811  41.028   4.752
71929W        W40147  22.032  21.991   4.499
71930W        W40148  31.101  19.535  13.933
71931W        W40149  40.429   3.191  12.544
71932W        W40150  13.101  22.763  13.081
71933W        W40151  19.516  36.384  12.061
71934W        W40152  31.702  33.880  13.372
71935W        W40153  36.518  17.651  13.519
71936W        W40154  33.235   8.814   1.274
71937W        W40155  25.501   5.368   1.763
71938W        W40156   8.656  21.720   2.216
71939W        W40157  37.881  23.008   2.715
71940W        W40158  42.526  37.126  14.251
71941W        W40159  10.117  43.208  12.835
71942W        W40160  35.808   5.929  14.764
71943W        W40161  32.669   3.184   1.451
71944W        W40162   2.468   1.203   2.014
71945W        W40163  36.374  13.033   3.044
71946W        W40164  38.646  43.058  10.181
71947W        W40165  23.659  36.196  10.664
71948W        W40166  11.751  14.794   1.016
71949W        W40167  13.571  41.458   2.983
71950W        W40168  12.380   0.426  11.474
71951W        W40169   8.153  40.411   2.540
71952W        W40170  44.977  31.604  14.329
71953W        W40171  43.022  16.870   0.208
71954W        W40172  33.801  24.547   1.905
71955W        W40173  25.246  11.153   1.516
71956W        W40174   3.508  44.377  13.505
71957W        W40175  25.736  16.464   0.633
71958W        W40176  33.569  28.619   3.191
71959W        W40177   1.772  11.107  14.769
71960W        W40178  35.264  38.098  12.999
71961W        W40179  24.729  28.186   4.086
71962W        W40180   7.690  14.157  11.178
71963W        W40181  33.638   7.362  10.806
71964W        W40182   5.905  31.819   1.836
71965W        W40183  29.997  16.625  14.561
71966W        W40184  36.017  19.521  11.110
71967W        W40185   8.240  42.260  10.698
71968W        W40186  19.687  21.900  11.612
71969W        W40187  37.817  31.041   2.376
71970W        W40188  40.451  40.095   3.662
71971W        W40189   3.630  43.262  11.952
71972W        W40190  40.029  41.858   0.238
71973W        W40191  10.261  33.929   4.001
71974W        W40192  44.426   3.215  14.021
71975W        W40193  18.800  33.313  13.930
71976W        W40194  34.641  23.750  10.759
71977W        W40195  32.126  16.984   2.653
71978W        W40196  41.258  31.545   1.396
71979W        W40197  35.573   1.967   9.907
71980W        W40198   0.354  37.866   3.651
71981W        W40199   6.048  21.586   4.069
71982ION    NA+40200   9.642  24.537   3.331
71983ION    NA+40201  20.437  17.716  10.894
71984ION    NA+40202   2.417   1.438  13.743
71985ION    NA+40203  40.872  11.172   2.442
71986ION    NA+40204   9.310  25.805   1.358
71987ION    NA+40205   5.519  22.539  11.148
71988ION    NA+40206  34.954   7.497   1.653
71989ION    NA+40207  34.894  29.200  11.201
71990ION    NA+40208  32.864  20.861   1.647
71991ION    NA+40209  16.198  23.945  11.457
71992ION    NA+40210  22.477  31.168  11.206
71993ION    NA+40211  25.730  41.500  14.020
71994ION    NA+40212   8.934   8.589   1.036
71995ION    NA+40213  20.645   5.792  14.746
71996ION    NA+40214  31.302  28.051   4.090
71997ION    NA+40215  37.897   7.247   2.375
71998ION    NA+40216  22.827   4.440  11.895
71999ION    NA+40217  22.623  42.286   2.169
72000ION    NA+40218   5.865  39.331   4.043
72001ION    NA+40219  44.741  19.085  12.873
72002ION    NA+40220   6.193  27.928  11.863
72003ION    NA+40221  14.537  23.620  13.244
72004ION    NA+40222  13.463   6.672   2.494
72005ION    NA+40223  40.822   7.807   4.253
72006ION    NA+40224   8.097  24.179  13.358
72007ION    NA+40225  24.837   6.100   1.976
72008ION    NA+40226   1.401   6.496  10.803
72009ION    NA+40227  25.978  31.149  12.483
72010ION    NA+40228  33.285  40.053  12.270
72011ION    NA+40229  35.619  32.498  11.774
72012ION    NA+40230  30.950  19.083  11.571
72013ION    NA+40231   6.354  41.096   1.301
72014ION    NA+40232  41.367  39.116  12.460
72015ION    NA+40233  26.678   5.666  13.623
72016ION    NA+40234  30.894  18.702   2.090
72017ION    NA+40235  31.178   2.742  13.437
72018ION    NA+40236   0.366   7.815  14.188
72019ION    NA+40237  35.456  21.681  13.754
72020ION    NA+40238  14.826  30.226  10.957
72021ION    NA+40239  10.728  16.123   9.953
72022ION    NA+40240  23.755  30.893  14.780
72023ION    NA+40241   5.521  43.854   1.099
72024ION    NA+40242  21.475  41.960  13.739
72025ION    NA+40243  31.977   7.857   0.107
72026ION    NA+40244   3.458   7.761   0.535
72027ION    NA+40245   9.729  28.387   0.322
72028ION    NA+40246   0.303  24.380   4.200
72029ION    NA+40247  37.533  30.966   1.222
72030ION    NA+40248  20.260  43.609  10.335
72031ION    NA+40249  34.044  23.370   4.196
72032ION    NA+40250  37.252  31.132   4.244
72033ION    NA+40251  13.545  24.907   2.672
72034ION    NA+40252  35.311   7.335   2.443
72035ION    NA+40253  35.190  17.175  14.556
72036ION    NA+40254   8.929  15.618  10.287
72037ION    NA+40255   5.554  40.381   2.222
72038ION    NA+40256   4.293  38.592  11.568
72039ION    NA+40257   9.833   2.173   1.697
72040ION    NA+40258   3.272  22.687  11.113
72041ION    NA+40259  31.474  34.357  13.332
72042ION    NA+40260  12.358  36.385   1.805
72043ION    NA+40261   4.942   1.620  13.812
72044ION    NA+40262  26.219  18.167  12.098
72045ION    NA+40263   2.333   6.916   4.241
72046ION    NA+40264  13.575  26.437  13.497
72047ION    NA+40265  40.318   6.233  14.297
72048ION    NA+40266  37.811  14.361  12.828
72049ION    NA+40267  22.772  34.368  14.248
72050ION    NA+40268  35.936   5.756  11.196
72051ION    NA+40269  12.781  23.421   1.287
72052ION    NA+40270  32.084  18.194   9.970
72053ION    NA+40271  31.348  18.922  14.604
72054ION    NA+40272  25.100  24.009   0.465
72055ION    NA+40273  22.145  43.794   4.523
72056ION    NA+40274  31.669  27.267   0.106
72057ION    NA+40275  25.959  22.151  13.429
72058ION    NA+40276   0.380   8.742   1.493
72059ION    NA+40277  22.775  20.298   3.503
72060ION    NA+40278   7.578  28.150   4.634
72061ION    NA+40279   2.790   2.753   1.462
72062ION    NA+40280  13.847  17.103   2.267
72063ION    NA+40281  17.651   7.810  12.918
72064ION    NA+40282   6.451  22.064  10.710
72065ION    NA+40283  14.263   5.515   0.013
72066ION    NA+40284  43.712  43.169  13.486
72067ION    NA+40285  31.512  31.068   2.841
72068ION    NA+40286  27.126  26.614  10.935
72069ION    NA+40287  11.153  31.665  11.586
72070ION    NA+40288  35.025  34.456  13.351
72071ION    NA+40289  13.098  19.466   0.896
72072ION    NA+40290  27.626  34.897  14.478
72073ION    NA+40291  42.810   7.431  13.363
72074ION    NA+40292  38.337  34.939  11.939
72075ION    NA+40293   9.297  31.789  13.831
72076ION    NA+40294  27.927  36.903  10.890
72077ION    NA+40295  41.547  27.096  13.756
72078ION    NA+40296  40.962   7.642  10.288
72079ION    NA+40297  19.581  15.046  14.779
72080ION    NA+40298  37.274   5.325   4.570
72081ION    NA+40299  40.274  13.884  10.834
72082ION    NA+40300  25.768  33.563  11.141
72083ION    NA+40301   6.725  39.738  14.664
72084ION    NA+40302   9.630  27.882   3.793
72085ION    NA+40303  10.512  40.599  11.167
72086ION    NA+40304  15.949  39.986   2.321
72087ION    NA+40305  27.862  41.055  12.376
72088ION    NA+40306   4.226  21.102  12.405
72089ION    NA+40307   7.416   1.386  12.677
72090ION    NA+40308  11.139  12.894  13.875
72091ION    NA+40309  42.967  38.930  13.964
72092ION    NA+40310  26.286   2.833   2.195
72093ION    NA+40311  40.422  25.275  11.961
72094ION    NA+40312  26.326  22.133   0.523
72095ION    NA+40313   5.303  17.579   4.176
72096ION    NA+40314  11.093  42.859  14.820
72097ION    NA+40315  31.387  23.956  12.986
72098ION    NA+40316  34.461   7.757  11.675
72099ION    NA+40317  44.218  27.518  10.947
72100ION    NA+40318   3.639  38.374  12.383
72101ION    NA+40319   2.109  35.328  13.913
72102ION    NA+40320  22.749  28.896   3.747
72103ION    NA+40321   4.988  31.817  11.549
72104ION    NA+40322   9.673  30.491   2.792
72105ION    NA+40323  11.923  17.995  14.953
72106ION    NA+40324  42.385   5.665   2.926
72107ION    NA+40325  20.926  29.664   1.581
72108ION    NA+40326  33.498   5.258   0.648
72109ION    NA+40327  17.120  36.132   3.772
72110ION    NA+40328  24.741  39.006  11.922
72111ION    NA+40329  25.578  27.993   0.808
72112ION    NA+40330  32.328  28.323   1.270
72113ION    NA+40331   6.050  32.243  13.703
72114ION    NA+40332   2.028  29.658   3.640
72115ION    NA+40333  11.696  38.617   0.355
72116ION    NA+40334  28.659  13.410   9.834
72117ION    NA+40335  33.206  20.412   0.622
72118ION    NA+40336  10.251  16.749   0.835
72119ION    NA+40337  25.463  27.926   1.812
72120ION    NA+40338  20.630  22.574  13.360
72121ION    NA+40339  12.745  17.993   0.523
72122ION    NA+40340  29.221  38.675   0.210
72123ION    NA+40341  31.515  17.288  10.575
72124ION    NA+40342  39.091   8.144   0.430
72125ION    NA+40343  23.997  22.026   1.164
72126ION    NA+40344  37.977  18.785   0.571
72127ION    NA+40345  26.489  44.981   4.581
72128ION    NA+40346  39.517  32.472   0.978
72129ION    NA+40347  10.630   7.825   0.814
72130ION    NA+40348   1.613  37.050  11.295
72131ION    NA+40349  33.085  29.274   4.635
72132ION    NA+40350  25.955   0.916  11.076
72133ION    NA+40351   3.902  17.765  11.070
72134ION    NA+40352  15.563  39.158   0.800
72135ION    NA+40353  13.433  27.365  10.798
72136ION    NA+40354  11.011  44.395  13.035
72137ION    NA+40355   0.416  13.413   0.083
72138ION    NA+40356  44.747  31.735  10.838
72139ION    NA+40357  24.533  21.980  12.243
72140ION    NA+40358  32.148  16.135  14.419
72141ION    NA+40359   4.510  20.342  11.207
72142ION    NA+40360  32.714  31.391  13.299
72143ION    NA+40361  41.365  43.622  14.297
72144ION    NA+40362   2.103  18.335   0.544
72145ION    NA+40363  24.649  35.817  12.430
72146ION    NA+40364   8.555  34.709  13.853
72147ION    NA+40365   4.150  26.653   3.077
72148ION    NA+40366   8.586  22.814   4.041
72149ION    NA+40367  28.222   9.951  14.313
72150ION    NA+40368   6.807  39.058   3.848
72151ION    NA+40369  35.550  32.441   4.314
72152ION    NA+40370   6.948  40.289   4.252
72153ION    NA+40371  14.655  33.138   4.400
72154ION    NA+40372  25.064  26.397  12.144
72155ION    NA+40373  33.139  14.636   3.993
72156ION    NA+40374   6.082  11.474   1.357
72157ION    NA+40375   0.830  14.767   1.144
72158ION    NA+40376   6.784   1.475   3.557
72159ION    NA+40377  43.021   0.477  10.306
72160ION    NA+40378  25.119   3.789  12.183
72161ION    NA+40379  22.635  21.210  13.006
72162ION    NA+40380  25.716  18.840  11.555
72163ION    NA+40381  29.589  17.267  13.437
72164ION    NA+40382  30.466  38.578  13.914
72165ION    NA+40383  20.583  33.977   1.837
72166ION    NA+40384   7.314   1.522   4.454
72167ION    NA+40385  17.810  15.530  12.037
72168ION    NA+40386  14.728  14.900   3.792
72169ION    NA+40387  30.841  24.780   2.229
72170ION    NA+40388  34.487   0.550   0.828
72171ION    NA+40389   9.507  41.495   4.956
72172ION    NA+40390  27.309   8.061   0.273
72173ION    NA+40391  33.648  40.891  11.863
72174ION    NA+40392  34.065  43.026  12.374
72175ION    NA+40393  33.026  28.594   4.039
72176ION    NA+40394  31.795   1.424   0.303
72177ION    NA+40395  25.261  13.049   2.194
72178ION    NA+40396  20.855  32.631   2.946
72179ION    NA+40397   5.344  20.538   3.504
72180ION    NA+40398  30.729  23.770   1.280
72181ION    NA+40399  42.365  31.339  10.753
72182ION    NA+40400  42.870   0.024  14.894
72183ION    NA+40401  15.909   0.639  13.021
72184ION    NA+40402  42.274  34.838  11.584
72185ION    NA+40403  25.999  27.499   3.535
72186ION    NA+40404   3.155  28.626   3.742
72187ION    NA+40405   2.958  18.776   0.193
72188ION    NA+40406  18.757  21.548  11.115
72189ION    NA+40407  32.383  29.508   1.683
72190ION    NA+40408   1.032  29.580   1.895
72191ION    NA+40409  25.545   1.480   3.185
72192ION    NA+40410   7.922   7.356   4.694
72193ION    NA+40411   6.187   2.059  12.258
72194ION    NA+40412  17.670  36.525   0.295
72195ION    NA+40413  21.613  12.131  12.185
72196ION    NA+40414  31.087  33.167  13.901
72197ION    NA+40415   0.789  10.221  11.582
72198ION    NA+40416  26.614  44.707  10.623
72199ION    NA+40417  30.188   6.727   4.520
72200ION    NA+40418  13.229  37.682   4.509
72201ION    NA+40419  21.507  23.044   1.282
72202ION    NA+40420  30.408  27.147  11.991
72203ION    NA+40421  18.605  27.066  13.879
72204ION    NA+40422  27.677   8.684   4.093
72205ION    NA+40423  37.409  24.533  10.346
72206ION    NA+40424   0.423  37.181  14.200
72207ION    NA+40425  38.719  17.626  11.793
72208ION    NA+40426  19.238  34.314  13.289
72209ION    NA+40427   9.584  20.044  14.062
72210ION    NA+40428  32.334  34.818  11.565
72211ION    NA+40429  36.185   2.151   3.765
72212ION    NA+40430  23.147   3.436   4.701
72213ION    NA+40431  44.261  30.009   4.586
72214ION    NA+40432  10.234  19.716   0.766
72215ION    NA+40433  28.253   4.323   1.630
72216ION    NA+40434  30.969  27.974  10.245
72217ION    NA+40435  18.751  26.948   2.336
72218ION    NA+40436  37.282  23.231  14.295
72219ION    NA+40437  44.569  41.951   2.398
72220ION    NA+40438   3.006   7.523  12.331
72221ION    NA+40439  19.021  44.740  13.283
72222ION    NA+40440  34.201  19.580   2.635
72223ION    NA+40441  32.666  39.862   2.310
72224ION    NA+40442  19.271   1.410  11.078
72225ION    NA+40443  20.858  25.645   4.598
72226ION    NA+40444  13.697  27.906   1.228
72227ION    NA+40445  12.910  36.015  13.341
72228ION    NA+40446  29.595  32.327   2.281
72229ION    NA+40447  19.759  39.481   2.245
72230ION    NA+40448  38.389  41.021  13.337
72231ION    NA+40449  36.282  31.318   4.405
72232ION    NA+40450  14.316   4.965  14.107
72233ION    NA+40451  43.590  18.962  11.653
72234ION    NA+40452  13.598  44.765  14.564
72235ION    NA+40453  13.320  25.623   2.118
72236ION    NA+40454  28.452   5.276   3.126
72237ION    NA+40455  16.475  40.854  11.514
72238ION    NA+40456  27.054  42.256   0.831
72239ION    NA+40457   6.975  16.505  11.005
72240ION    NA+40458  35.606  10.863   4.078
72241ION    NA+40459   9.705  38.980  12.149
72242ION    NA+40460  12.035  32.850   2.666
72243ION    NA+40461   2.034  44.488   3.194
72244ION    NA+40462  39.553  38.424  12.496
72245ION    NA+40463  44.780  35.194   1.805
72246ION    NA+40464  12.468  13.809  13.150
72247ION    NA+40465   8.390  40.477  10.713
72248ION    NA+40466  24.983  24.081  12.165
72249ION    NA+40467  18.307  25.856  11.731
72250ION    NA+40468  38.028  21.550  11.188
72251ION    NA+40469  40.407  39.479   3.200
72252ION    NA+40470  15.049   1.316   1.236
72253ION    NA+40471  21.161   5.670   4.652
72254ION    NA+40472  37.069  15.559  11.110
72255ION    NA+40473  32.429  22.049   0.017
72256ION    NA+40474  43.732  23.806  12.557
72257ION    NA+40475   4.547  15.550   0.961
72258ION    NA+40476  37.335  42.671   1.443
72259ION    NA+40477  13.741  31.102  11.995
72260ION    NA+40478  30.798  20.130   2.570
72261ION    NA+40479  17.825  32.057  11.843
72262ION    NA+40480   9.259  29.092   0.117
72263ION    NA+40481  10.857   8.648   1.335
72264ION    NA+40482   2.170   0.002  12.394
72265ION    NA+40483  21.828  34.151   1.766
72266ION    NA+40484  38.145   3.663  13.459
72267ION    NA+40485  35.244  38.338   2.709
72268ION    NA+40486  24.331  24.694   2.969
72269ION    NA+40487   2.208  28.543  13.684
72270ION    NA+40488  43.489  42.211  13.983
72271ION    NA+40489  20.761  26.698  11.488
72272ION    NA+40490   1.271  32.621  11.167
72273ION    NA+40491  30.498  32.490  13.461
72274ION    NA+40492   5.286  20.846  11.303
72275ION    NA+40493  13.158   4.537  12.865
72276ION    NA+40494  41.216  10.356  10.928
72277ION    NA+40495  19.459  13.380   3.014
72278ION    NA+40496  31.679  42.350  14.383
72279ION    NA+40497  44.672   6.327   4.051
72280ION    NA+40498  15.720  41.135  14.340
72281ION    NA+40499  14.332  38.904  11.637
72282ION    NA+40500  19.296   4.342   1.059
72283ION    NA+40501  31.570   2.281   2.210
72284ION    NA+40502  29.579  37.962   1.885
72285ION    NA+40503  22.861   6.732   2.355
72286ION    NA+40504  21.485  23.598  14.104
72287ION    NA+40505  39.720  41.069  12.197
72288ION    NA+40506  16.367  35.453   3.793
72289ION    NA+40507  11.256   9.665   4.714
72290ION    NA+40508  37.163  34.194   1.299
72291ION    NA+40509  11.518  32.278  12.993
72292ION    NA+40510  22.303  19.374  14.771
72293ION    NA+40511  42.096  41.721  11.078
72294ION    NA+40512  37.995  36.517   1.516
72295ION    NA+40513   1.332  21.314   1.480
72296ION    NA+40514  30.192  10.794  12.201
72297ION    NA+40515  37.730   1.030   2.086
72298ION    NA+40516  38.775   0.146  13.306
72299ION    NA+40517   1.112   0.905  14.101
72300ION    NA+40518  37.863  35.363   3.797
72301ION    NA+40519  35.195  33.145   1.270
72302ION    NA+40520  27.430  34.418  12.950
72303ION    NA+40521   3.858  16.331  13.529
72304ION    NA+40522  18.249  19.358   2.477
72305ION    NA+40523   1.988  33.905  11.528
72306ION    NA+40524  30.049  39.033   0.640
72307ION    NA+40525   0.986  22.193  11.493
72308ION    NA+40526  11.622  36.197  11.124
72309ION    NA+40527  18.753   8.955  14.536
72310ION    NA+40528  34.574  18.451   3.849
72311ION    NA+40529  29.339  25.313   0.684
72312ION    NA+40530  31.148  14.810  14.584
72313ION    NA+40531   5.650  24.114   5.055
72314ION    NA+40532  12.889  26.138   1.493
72315ION    NA+40533  19.126  39.966  11.416
72316ION    NA+40534   0.625   6.926  11.913
72317ION    NA+40535  25.876  22.315   1.450
72318ION    NA+40536  35.688  12.002   3.100
72319ION    NA+40537   9.934  33.544   0.689
72320ION    NA+40538  38.963  29.681   1.801
72321ION    NA+40539   6.146  11.202  14.104
72322ION    NA+40540  23.166  11.398  13.885
72323ION    NA+40541  39.898  32.678   1.905
72324ION    NA+40542  21.841  44.339   0.347
72325ION    NA+40543  39.443  14.026   3.611
72326ION    NA+40544  14.135  35.375   2.434
72327ION    NA+40545  12.968  26.775   4.120
72328ION    NA+40546  44.730  11.359  14.710
72329ION    NA+40547  27.667  23.284   1.022
72330ION    NA+40548  19.292   6.650   4.436
72331ION    NA+40549  30.656  13.701  13.665
72332ION    NA+40550  41.258   9.340  14.847
72333ION    NA+40551  23.632   6.010  10.487
72334ION    NA+40552  14.306   9.375   0.818
72335ION    NA+40553  36.594   2.363   2.877
72336ION    NA+40554  43.256  34.968   1.981
72337ION    NA+40555  42.287  31.568   2.904
72338ION    NA+40556  37.611  14.941   4.453
72339ION    NA+40557  18.646  34.794   2.078
72340ION    NA+40558  22.585  36.413  11.687
72341ION    NA+40559  23.853  11.601   0.328
72342ION    NA+40560  33.623  42.998  13.903
72343ION    NA+40561  34.383   7.551  13.196
72344ION    NA+40562  27.066   2.610   3.679
72345ION    NA+40563  22.797  30.944  12.420
72346ION    NA+40564  21.991  31.437  14.866
72347ION    NA+40565  25.888  18.151   0.748
72348ION    NA+40566  19.369  18.855   0.094
72349ION    NA+40567  25.712  25.073  12.987
72350ION    NA+40568  43.920  14.588  14.046
72351ION    NA+40569  37.791  11.565  10.353
72352ION    NA+40570  38.104  31.648  12.476
72353ION    NA+40571  20.621  14.830  12.144
72354ION    NA+40572  19.052  14.489  14.265
72355ION    NA+40573   7.178  40.923   1.841
72356ION    NA+40574  14.088  30.879   4.636
72357ION    NA+40575   4.872  10.383   1.889
72358ION    NA+40576  23.487  32.698  11.479
72359ION    NA+40577  14.508  14.545  11.559
72360ION    NA+40578  42.225  18.745  13.839
72361ION    NA+40579  14.876  39.853   0.467
72362ION    NA+40580   2.438  27.480  11.957
72363ION    NA+40581  28.617   5.902   3.888
72364ION    NA+40582  13.739  37.583   0.210
72365ION    NA+40583  13.610   9.870   0.528
72366ION    NA+40584  37.339  39.649  13.726
72367ION    NA+40585  35.817  37.560   5.403
72368ION    NA+40586  21.361  20.302   2.843
72369ION    NA+40587   2.134  22.661  14.846
72370ION    NA+40588  42.023  36.377  10.861
72371ION    NA+40589  29.437  23.527   3.216
72372ION    NA+40590  41.078   1.894  14.557
72373ION    NA+40591  42.100  27.206   0.431
72374ION    NA+40592  28.559  40.447   4.547
72375ION    NA+40593   3.433  13.918   2.593
72376ION    NA+40594   4.156  44.646   2.251
72377ION    NA+40595   6.035  15.727  10.774
72378ION    NA+40596   8.610   9.236   2.808
72379ION    NA+40597  13.104  32.989  10.790
72380ION    NA+40598   3.390  20.233  13.108
72381ION    NA+40599   8.775  27.490   1.906
72382ION    NA+40600   6.697  31.939   3.136
72383ION    NA+40601  42.233  13.398  10.764
72384ION    NA+40602  34.246  12.855   2.525
72385ION    NA+40603  43.695  30.470  13.297
72386ION    NA+40604   6.649  36.010  11.564
72387ION    NA+40605  16.790  23.663   1.829
72388ION    NA+40606  42.030  43.249  12.826
72389ION    NA+40607  37.439   4.148   1.655
72390ION    NA+40608  16.217  42.466  13.911
72391ION    NA+40609   6.155  30.276   3.929
72392ION    NA+40610   1.548  41.077  11.177
72393ION    NA+40611  26.324  32.191   4.593
72394ION    NA+40612  22.871   2.683   0.117
72395ION    NA+40613   5.381  14.209  12.263
72396ION    NA+40614  12.368  26.839   0.295
72397ION    NA+40615  25.510  12.829  11.676
72398ION    NA+40616  37.555  27.909  10.620
72399ION    NA+40617  16.628  19.436   0.417
72400ION    NA+40618   3.958  18.949  12.941
72401ION    NA+40619  15.561  15.681  11.477
72402ION    NA+40620  40.549   6.588  11.606
72403ION    NA+40621  16.194  26.966   0.526
72404ION    NA+40622   9.775   4.744  14.749
72405ION    NA+40623   5.648  16.135   3.137
72406ION    NA+40624  18.548  19.123   1.682
72407ION    NA+40625   6.161  32.620  10.883
72408ION    NA+40626   8.703  16.099  11.402
72409ION    NA+40627   4.514  10.332  12.825
72410ION    NA+40628  12.231  17.641   2.814
72411ION    NA+40629  40.085  15.320  14.416
72412ION    NA+40630  43.640   8.050   2.626
72413ION    NA+40631  13.058  11.552   0.967
72414ION    NA+40632  38.253  27.674  14.262
72415ION    NA+40633   9.031  24.652   1.270
72416ION    NA+40634  14.231  11.901  12.408
72417ION    NA+40635  35.016  11.798   5.469
72418ION    NA+40636   6.665   4.146  14.489
72419ION    NA+40637   7.010  23.294   4.679
72420ION    NA+40638  18.048  12.252   4.871
72421ION    NA+40639  37.803  27.415   0.458
72422ION    NA+40640   3.620   8.905   4.168
72423ION    NA+40641  15.738  32.151  10.087
72424ION    NA+40642   0.518   0.249  14.183
72425ION    NA+40643  28.527  36.872   4.618
72426ION    NA+40644   3.649   2.751   0.032
72427ION    NA+40645  15.204  38.889  11.893
72428ION    NA+40646  44.553  10.712  10.747
72429ION    NA+40647   9.299  13.408  12.023
72430ION    NA+40648  43.911  35.467  12.134
72431ION    NA+40649  22.232  32.261   3.951
72432ION    NA+40650  39.209  19.932   2.334
72433ION    NA+40651   7.188   3.797   3.038
72434ION    NA+40652  32.892  32.815  10.371
72435ION    NA+40653  15.137  41.564  10.282
72436ION    NA+40654  41.581  35.307  13.155
72437ION    NA+40655   1.957  38.665  13.867
72438ION    NA+40656  43.888  40.476  13.320
72439ION    NA+40657   7.659  38.605   2.348
72440ION    NA+40658  26.461  43.409   2.364
72441ION    NA+40659   4.977  32.127   3.765
72442ION    NA+40660  30.814  19.317   0.352
72443ION    NA+40661  26.171  26.249  13.368
72444ION    NA+40662  18.521   2.073  12.678
72445ION    NA+40663  42.457   9.283   1.871
72446ION    NA+40664  25.748  20.558   4.247
72447ION    NA+40665  15.126  37.788   3.700
72448ION    NA+40666  11.256  22.912  13.369
72449ION    NA+40667  23.189  16.141   2.290
72450ION    NA+40668  17.674  26.310  11.485
72451ION    NA+40669  20.094  13.599  13.067
72452ION    NA+40670  19.077  15.938  10.938
72453ION    NA+40671  38.869   5.782   1.288
72454ION    NA+40672  41.721  28.195  11.668
72455ION    NA+40673  12.332  24.140   2.679
72456ION    NA+40674  23.726  28.309  11.374
72457ION    NA+40675   4.666  20.406   2.225
72458ION    NA+40676  22.665   9.561   0.087
72459ION    NA+40677   9.343   2.922  11.146
72460ION    NA+40678  43.733   2.389  12.051
72461ION    NA+40679  44.448   6.048  13.491
72462ION    NA+40680  22.150  24.940  14.620
72463ION    NA+40681  21.609  28.438   3.736
72464ION    NA+40682  11.698   7.535  11.749
72465ION    NA+40683  42.193  10.976   2.755
72466ION    NA+40684  29.613  30.339  10.856
72467ION    NA+40685  23.041  28.892   1.803
72468ION    NA+40686   0.535  31.079  10.855
72469ION    NA+40687  13.710  20.683  11.085
72470ION    NA+40688  43.190  15.136  12.543
72471ION    NA+40689  29.179  27.878  11.726
72472ION    NA+40690  14.079  16.485   0.136
72473ION    NA+40691  36.922  32.288   1.309
72474ION    NA+40692  41.544  37.268  13.088
72475ION    NA+40693  36.777  20.504   4.695
72476ION    NA+40694  41.539  14.041   3.352
72477ION    NA+40695   7.741  18.186   3.684
72478ION    NA+40696  10.600  21.907   2.215
72479ION    NA+40697   0.026  21.036  11.473
72480ION    NA+40698  16.121  21.360  12.889
72481ION    NA+40699  18.614  18.719   4.260
72482ION    NA+40700  41.500  31.897  10.488
72483ION    NA+40701  13.958   7.658  14.482
72484ION    NA+40702  18.065  38.160   4.011
72485ION    NA+40703  15.598  31.890   0.707
72486ION    NA+40704  26.980  10.527   4.347
72487ION    NA+40705   4.926  11.681  11.608
72488ION    NA+40706  24.250   8.207  13.571
72489ION    NA+40707  24.115  14.150   9.731
72490ION    NA+40708  11.323  19.573   3.627
72491ION    NA+40709  15.090  13.465  14.836
72492ION    NA+40710   9.697  32.709  11.246
72493ION    NA+40711  18.379  44.838  12.523
72494ION    NA+40712  10.857  39.303  11.908
72495ION    NA+40713  18.019  31.959   4.033
72496ION    NA+40714  14.398  11.126  13.016
72497ION    NA+40715  26.004  39.087  12.723
72498ION    NA+40716  22.739  43.305  12.821
72499ION    NA+40717  22.817   8.703   3.485
72500ION    NA+40718   9.069  15.038  12.123
72501ION    NA+40719  33.154  11.612   2.244
72502ION    NA+40720  31.975  25.900   3.138
72503ION    NA+40721  17.589  33.155  14.519
72504ION    NA+40722  39.255  43.448  11.170
72505ION    NA+40723  44.409   7.261  12.556
72506ION    NA+40724  38.024  14.552   1.946
72507ION    NA+40725  16.069   3.965  12.021
72508ION    NA+40726  40.131  36.079  12.885
72509ION    NA+40727  37.527  20.227  14.490
72510ION    NA+40728  42.136  38.901  14.345
72511ION    NA+40729  33.836  37.955   1.924
72512ION    NA+40730  37.734   4.063  12.483
72513ION    NA+40731   4.718   8.726  13.968
72514ION    NA+40732  44.840  24.920  12.362
72515ION    NA+40733  23.286   8.130  13.315
72516ION    NA+40734  36.606  44.420   5.384
72517ION    NA+40735  39.105  27.741   1.225
72518ION    NA+40736  11.280  31.403  12.899
72519ION    NA+40737   5.749  36.920   5.115
72520ION    NA+40738   2.665  35.181   1.733
72521ION    NA+40739  17.999  18.954  14.464
72522ION    NA+40740  26.754   3.959   4.971
72523ION    NA+40741  42.823  30.921  12.938
72524ION    NA+40742  18.320  41.433  11.146
72525ION    NA+40743  32.279  23.513  12.897
72526ION    NA+40744  23.854   0.319   0.283
72527ION    NA+40745  40.408   3.961   0.301
72528ION    NA+40746   1.213  17.110  11.456
72529ION    NA+40747  13.571   7.949  12.396
72530ION    NA+40748   9.204   1.987  10.681
72531ION    NA+40749  21.630  30.320  14.070
72532ION    NA+40750  20.932  43.258  10.987
72533ION    NA+40751  34.581  21.490   0.913
72534ION    NA+40752  33.449  23.035  10.728
72535ION    NA+40753  22.048  16.535  13.885
72536ION    NA+40754  41.279  16.633  12.831
72537ION    NA+40755  35.638  42.409  10.353
72538ION    NA+40756   4.548  43.040  14.189
72539ION    NA+40757  18.371  20.871   1.765
72540ION    NA+40758  38.483  26.420  12.098
72541ION    NA+40759  31.365  20.302  11.239
72542ION    NA+40760  37.106   0.336  10.942
72543ION    NA+40761  28.798  43.650  14.779
72544ION    NA+40762   3.522  21.900   2.787
72545ION    NA+40763  28.705  30.477   1.001
72546ION    NA+40764  15.579  16.396   2.213
72547ION    NA+40765   4.170  43.482  10.041
72548ION    NA+40766  34.682  14.846   0.540
72549ION    NA+40767  27.585  23.844  11.689
72550ION    NA+40768  23.696  32.403   2.827
72551ION    NA+40769  26.062   5.262   3.946
72552ION    NA+40770  30.604  33.977   1.795
72553ION    NA+40771  24.608  44.614   0.433
72554ION    NA+40772  23.700   2.609   4.574
72555ION    NA+40773  43.393  35.812   1.153
72556ION    NA+40774  15.803   5.257  11.426
72557ION    NA+40775  34.967   7.893  14.736
72558ION    NA+40776  44.549  41.341   3.579
72559ION    NA+40777  13.481  15.722  12.982
72560ION    NA+40778  29.508  27.174   1.790
72561ION    NA+40779  35.936  44.025   1.879
72562ION    NA+40780   1.748  26.214  10.605
72563ION    NA+40781  32.676   0.797  11.529
72564ION    NA+40782  12.036  34.875  10.734
72565ION    NA+40783   0.524  22.049  14.686
72566ION    NA+40784  14.868   8.281  12.471
72567ION    NA+40785   8.103  24.189  11.880
72568ION    NA+40786   4.991  31.722   4.679
72569ION    NA+40787   9.510  12.646   1.288
72570ION    NA+40788   8.536  22.673  14.998
72571ION    NA+40789  43.866  23.277   4.731
72572ION    NA+40790  14.320  36.193   2.980
72573ION    NA+40791   0.832  10.610   2.041
72574ION    NA+40792   2.872  23.742   0.763
72575ION    NA+40793   3.014  32.851   3.931
72576ION    NA+40794  14.715  13.633   3.262
72577ION    NA+40795  11.494   5.938  14.314
72578ION    NA+40796   2.918  31.048   5.070
72579ION    NA+40797   8.888  37.104   0.049
72580ION    NA+40798  38.683  23.543   4.149
72581ION    NA+40799   7.413  20.234   3.787
72582ION    NA+40800  13.701  22.093  14.577
72583ION    NA+40801  12.127   2.003  14.364
72584ION    NA+40802   9.831  31.570   4.330
72585ION    NA+40803  13.289  13.663   1.217
72586ION    NA+40804   2.360  42.996   0.591
72587ION    NA+40805  12.562  29.725   2.406
72588ION    NA+40806  41.354  11.115   3.434
72589ION    NA+40807   3.716  28.115   4.208
72590ION    NA+40808  33.459  44.132  10.159
72591ION    NA+40809  41.382  22.551   1.262
72592ION    NA+40810   3.295  18.132   0.894
72593ION    NA+40811  43.348  29.823   1.319
72594ION    NA+40812  28.192  20.053   1.810
72595ION    NA+40813  38.596  27.154   2.167
72596ION    NA+40814   9.855  27.473  11.097
72597ION    NA+40815  35.356  22.725  13.448
72598ION    NA+40816  34.981  42.303   2.810
72599ION    NA+40817  34.295  10.983   0.043
72600ION    NA+40818   7.615  37.998  11.082
72601ION    NA+40819   5.096  41.037  14.632
72602ION    NA+40820  29.493  11.463   4.086
72603ION    NA+40821  39.186  36.016   4.869
72604ION    NA+40822  34.504  13.602   1.443
72605ION    NA+40823  29.405  28.151   3.022
72606ION    NA+40824  28.226  15.541  14.833
72607ION    NA+40825  25.736  20.368   1.069
72608ION    NA+40826   1.598  12.906   1.784
72609ION    NA+40827  42.748  18.973   4.236
72610ION    NA+40828  40.859  20.236   1.443
72611ION    NA+40829  44.509  24.285  10.260
72612ION    NA+40830  15.265  42.525  11.293
72613ION    NA+40831  14.533  18.034   0.953
72614ION    NA+40832   0.517  35.095   3.642
72615ION    NA+40833  38.467   8.635  14.821
72616ION    NA+40834  26.036  25.191  11.932
72617ION    NA+40835  30.417   3.631   1.170
72618ION    NA+40836  43.579  25.728  11.086
72619ION    NA+40837  26.705  39.031  13.434
72620ION    NA+40838   8.152   4.386  11.793
72621ION    NA+40839  10.365  21.586   4.765
72622ION    NA+40840  14.772  33.876  11.243
72623ION    NA+40841  10.626  22.937  14.592
72624ION    NA+40842  13.917  23.450  11.787
72625ION    NA+40843  43.087  16.807   2.833
72626ION    NA+40844  33.258  28.030   0.898
72627ION    NA+40845  21.037   1.170   2.985
72628ION    NA+40846   1.804   6.762   1.716
72629ION    NA+40847  30.982  15.688  12.849
72630ION    NA+40848  32.718  44.775   2.404
72631ION    NA+40849   4.103  16.105  11.765
72632ION    NA+40850  20.158  38.460  12.233
72633ION    NA+40851  32.763  41.659  13.611
72634ION    NA+40852  38.663  27.458  11.863
72635ION    NA+40853   7.549  35.355   2.511
72636ION    NA+40854  39.057  18.434   3.390
72637ION    NA+40855  29.941  28.167  11.146
72638ION    NA+40856   0.958  22.331   9.975
72639ION    NA+40857   8.958  23.658   1.185
72640ION    NA+40858  23.583  41.753   1.448
72641ION    NA+40859  12.867  39.299  14.819
72642ION    NA+40860  14.723  41.558  13.904
72643ION    NA+40861  18.565   8.686   4.110
72644ION    NA+40862  21.113   5.849  11.511
72645ION    NA+40863   5.520  30.939   3.724
72646ION    NA+40864  22.892  44.954   0.287
72647ION    NA+40865  14.769   0.348   4.019
72648ION    NA+40866  22.820  43.762   1.555
72649ION    NA+40867  31.502  11.139  12.397
72650ION    NA+40868  35.979  32.683   2.664
72651ION    NA+40869  44.756  12.186   2.859
72652ION    NA+40870  27.416  42.631   0.098
72653ION    NA+40871  12.031  41.884   4.607
72654ION    NA+40872  33.903   0.012   1.435
72655ION    NA+40873  32.646  20.874   9.604
72656ION    NA+40874  20.607  36.761   3.797
72657ION    NA+40875  34.254   5.718  10.113
72658ION    NA+40876   6.910  32.163  14.310
72659ION    NA+40877  22.243   3.011  13.277
72660ION    NA+40878  16.076  10.637   4.182
72661ION    NA+40879   9.279  11.330  10.261
72662ION    NA+40880  21.380  15.331   0.579
72663ION    NA+40881  30.928   5.365   0.506
72664ION    NA+40882   2.582  22.639  10.583
72665ION    NA+40883   4.940  15.000  13.141
72666ION    NA+40884  11.723  34.951   3.616
72667ION    NA+40885  32.306  44.001   2.328
72668ION    NA+40886  19.507  31.084  14.089
72669ION    NA+40887  26.056  19.838  11.434
72670ION    NA+40888   2.839  33.764   2.833
72671ION    NA+40889   2.555   3.796  10.914
72672ION    NA+40890  28.338   2.334   9.644
72673ION    NA+40891   1.003  19.044  11.238
72674ION    NA+40892   0.492   3.142   1.237
72675ION    NA+40893  18.672  36.135  12.022
72676ION    NA+40894  41.475   9.341   1.351
72677ION    NA+40895  19.388   1.639  10.168
72678ION    NA+40896   7.343  36.539  13.316
72679ION    NA+40897  15.442  11.987   2.158
72680ION    NA+40898   5.570  37.907   0.560
72681ION    NA+40899  28.593  31.447   3.658
72682ION    NA+40900  35.994  12.575  14.965
72683ION    NA+40901  43.974  31.917  13.507
72684ION    NA+40902  31.674  38.338  11.239
72685ION    NA+40903  22.242  14.522  13.055
72686ION    NA+40904  12.639  10.547  14.559
72687ION    NA+40905   5.734   0.889   4.606
72688ION    NA+40906  43.033  27.161  13.835
72689ION    NA+40907  10.274  34.617   3.541
72690ION    NA+40908  29.364  12.974   4.178
72691ION    NA+40909  28.766  17.169  13.997
72692ION    NA+40910  39.128  34.502   4.828
72693ION    NA+40911   1.850  27.829  13.244
72694ION    NA+40912  44.710  36.128   3.945
72695ION    NA+40913  37.998  20.486   3.136
72696ION    NA+40914  37.408   9.566   0.468
72697ION    NA+40915  41.468  21.742   3.650
72698ION    NA+40916  38.841  14.706  14.397
72699ION    NA+40917  33.314  38.430  12.885
72700ION    NA+40918  42.950  18.492  12.647
72701ION    NA+40919   5.481  22.982   1.867
72702ION    NA+40920  19.740  17.747  14.359
72703ION    NA+40921  30.622  19.568   1.669
72704ION    NA+40922  28.575  22.939  14.035
72705ION    NA+40923  43.611  26.718   2.317
72706ION    NA+40924   8.229   6.352  11.609
72707ION    NA+40925  19.523  18.942   4.614
72708ION    NA+40926  29.715   6.765   0.799
72709ION    NA+40927   1.388  37.832  13.151
72710ION    NA+40928  16.293   1.498  11.202
72711ION    NA+40929  40.769  31.775  11.160
72712ION    NA+40930  18.556  34.309  14.021
72713ION    NA+40931  41.468   4.378   1.305
72714ION    NA+40932  44.314  15.531  13.151
72715ION    NA+40933  33.124  36.602   1.868
72716ION    NA+40934   3.359  39.066   0.778
72717ION    NA+40935  22.225   7.549   4.049
72718ION    NA+40936  41.752  17.101   2.343
72719ION    NA+40937   3.632  24.836   3.643
72720ION    NA+40938  41.240  30.724   2.488
72721ION    NA+40939   0.298  35.769   0.903
72722ION    NA+40940  14.887   5.187  11.126
72723ION    NA+40941  35.050  14.720  14.704
72724ION    NA+40942   4.572  26.760  12.989
72725ION    NA+40943  43.770  23.785   0.828
72726ION    NA+40944   6.808   6.722  14.352
72727ION    NA+40945   6.067  42.582  14.443
72728ION    NA+40946  38.925  22.560  10.074
72729ION    NA+40947  43.152  13.259  11.132
72730ION    NA+40948  39.923  12.292  13.796
72731ION    NA+40949   7.652  32.850   4.374
72732ION    NA+40950  29.017   1.618  12.042
72733ION    NA+40951   1.203  31.240   1.425
72734ION    NA+40952  15.135   2.678   5.210
72735ION    NA+40953  32.119  29.285  11.675
72736ION    NA+40954  32.524  30.040  10.675
72737ION    NA+40955   6.171   5.307  12.940
72738ION    NA+40956  39.909  11.805   2.655
72739ION    NA+40957  31.528  10.298   2.159
72740ION    NA+40958  18.343  38.104  13.202
72741ION    NA+40959   5.850  12.767  11.634
72742ION    NA+40960  17.807   4.443  13.392
72743ION    NA+40961  23.689   5.323  11.246
72744ION    NA+40962   5.477  15.204  12.264
72745ION    NA+40963  12.027  13.629   2.834
72746ION    NA+40964  38.597  31.870   1.950
72747ION    NA+40965  12.838  41.471   0.904
72748ION    NA+40966  33.712   2.793   4.155
72749ION    NA+40967   5.361  19.024  10.775
72750ION    NA+40968  36.891  29.342   3.673
72751ION    NA+40969   8.639  21.061  12.015
72752ION    NA+40970   6.027  30.801   4.575
72753ION    NA+40971   0.920   8.263   2.460
72754ION    NA+40972  22.018  21.834  10.896
72755ION    NA+40973   2.999   9.621   1.433
72756ION    NA+40974  26.747  28.028  11.639
72757ION    NA+40975  16.866  15.033   3.716
72758ION    NA+40976   4.933  35.974   4.580
72759ION    NA+40977  26.401  16.253   3.350
72760ION    NA+40978  23.896  35.883  13.182
72761ION    NA+40979  10.127  28.249   2.374
72762ION    NA+40980  14.292  29.175  13.032
72763ION    NA+40981  23.950  34.364   0.032
72764ION    NA+40982  17.171  20.261   1.400
72765ION    NA+40983  28.754  27.919   1.279
72766ION    NA+40984  41.961  33.611  13.170
72767ION    NA+40985  18.057  42.548   3.660
72768ION    NA+40986  28.024  11.906  13.341
72769ION    NA+40987  35.146  31.770   1.195
72770ION    NA+40988   4.193  19.743   0.138
72771ION    NA+40989   6.132  18.292   0.758
72772ION    NA+40990  44.584  37.240   4.716
72773ION    NA+40991  33.640  43.330   4.734
72774ION    NA+40992  18.331  11.331  11.230
72775ION    NA+40993   5.870  40.686  12.999
72776ION    NA+40994  15.200  42.098  12.033
72777ION    NA+40995  14.793  21.407   3.479
72778ION    NA+40996  14.645  11.832  14.497
72779ION    NA+40997   4.421   9.938   1.114
72780ION    NA+40998  38.725  13.405   5.473
72781ION    NA+40999   2.442  18.806   3.054
72782ION    NA+41000  14.465  25.970  12.908
72783ION    NA+41001  29.400  24.333   0.929
72784ION    NA+41002   6.499  35.416  10.343
72785ION    NA+41003  37.720   8.139   2.922
72786ION    NA+41004   8.701   7.639  14.381
72787ION    NA+41005   3.890  28.722  10.979
72788ION    NA+41006  28.219  31.772  10.090
72789ION    NA+41007  13.658  28.216  11.273
72790ION    NA+41008  39.910  22.280   0.447
72791ION    NA+41009  16.712  23.617   0.063
72792ION    NA+41010  18.924  27.996   1.423
72793ION    NA+41011   0.908  11.913  11.168
72794ION    NA+41012  35.933   0.678  12.012
72795ION    NA+41013  12.968  17.219  12.732
72796ION    NA+41014  33.427  31.959   0.407
72797ION    NA+41015   5.747  33.025  14.069
72798ION    NA+41016  12.413  36.123  10.313
72799ION    NA+41017  34.403  14.518  13.520
72800ION    NA+41018   8.034  35.003  14.529
72801ION    NA+41019  31.496  25.973  11.809
72802ION    NA+41020  35.966  40.786   4.045
72803ION    NA+41021  42.529   6.070  13.663
72804ION    NA+41022  40.243   5.704   3.159
72805ION    NA+41023  39.027  25.637  13.976
72806ION    NA+41024  34.138   5.791   3.655
72807ION    NA+41025  44.440  16.243  12.460
72808ION    NA+41026  18.583   8.237   3.173
72809ION    NA+41027  25.761  13.533   3.317
72810ION    NA+41028  44.995   6.864   3.271
72811ION    NA+41029   4.257   6.120  13.282
72812ION    NA+41030   6.433  21.314  10.244
72813ION    NA+41031  10.830  12.459  14.270
72814ION    NA+41032  22.966  44.660   1.547
72815ION    NA+41033  15.051  31.104  11.011
72816ION    NA+41034  32.836  24.099  11.686
72817ION    NA+41035  39.377  17.934  11.336
72818ION    NA+41036  12.889   5.184  14.956
72819ION    NA+41037   7.505  36.742  14.589
72820ION    NA+41038  33.750  17.290  13.449
72821ION    NA+41039  33.056  24.944   3.751
72822ION    NA+41040  22.029  42.065  10.847
72823ION    NA+41041   0.287  43.692  11.466
72824ION    NA+41042  17.464  11.352  10.733
72825ION    NA+41043   3.163  12.787  12.330
72826ION    NA+41044   6.422  23.572   2.727
72827ION    NA+41045   6.876  11.954  12.951
72828ION    NA+41046  44.346  31.110  12.035
72829ION    NA+41047   7.820   9.582  14.083
72830ION    NA+41048  14.219  35.138   3.758
72831ION    NA+41049  14.641  23.050   3.209
72832ION    NA+41050  41.443  15.769  12.116
72833ION    NA+41051  29.912  13.773  14.330
72834ION    NA+41052   4.947  24.473   2.292
72835ION    NA+41053  42.917  30.413   0.784
72836ION    NA+41054  43.991  13.246   0.239
72837ION    NA+41055   3.686  16.303  10.877
72838ION    NA+41056  26.639  13.481  13.677
72839ION    NA+41057  43.289   3.316   4.179
72840ION    NA+41058  27.455  24.156   1.886
72841ION    NA+41059  18.601  33.991  11.500
72842ION    NA+41060  24.668  13.193   4.293
72843ION    NA+41061  14.809  17.715  12.999
72844ION    NA+41062   7.200   7.721   3.575
72845ION    NA+41063  37.783   9.310  14.546
72846ION    NA+41064   2.269  24.924   5.109
72847ION    NA+41065  15.621  10.183   3.224
72848ION    NA+41066  34.281   0.467  14.142
72849ION    NA+41067  16.161  10.638  11.306
72850ION    NA+41068  17.697  14.369   3.290
72851ION    NA+41069  42.697  36.082   4.220
72852ION    NA+41070   6.861   2.487  13.980
72853ION    NA+41071  10.159   3.012   1.022
72854ION    NA+41072  44.495   4.644  11.201
72855ION    NA+41073   9.184   5.944  11.857
72856ION    NA+41074  11.489  32.043   2.211
72857ION    NA+41075   9.521  30.689   4.290
72858ION    NA+41076  43.710   0.383   0.300
72859ION    NA+41077  29.832   8.507   4.435
72860ION    NA+41078  32.947   9.637  10.307
72861ION    NA+41079  11.298   6.274   3.358
72862ION    NA+41080   4.723  40.335  13.724
72863ION    NA+41081  27.667   1.848  13.086
72864ION    NA+41082   5.538  43.990  11.624
72865ION    NA+41083   8.103   3.297  12.482
72866ION    NA+41084   7.378   5.015   2.236
72867ION    NA+41085  21.154   3.552   2.771
72868ION    NA+41086  11.615  33.504  11.312
72869ION    NA+41087  21.806   8.811   3.949
72870ION    NA+41088  36.136  15.065  11.124
72871ION    NA+41089  29.008  33.212   2.044
72872ION    NA+41090  20.657  12.670  10.504
72873ION    NA+41091  32.586  11.279  14.569
72874ION    NA+41092  21.398  19.804  13.485
72875ION    NA+41093  40.420  12.883  13.387
72876ION    NA+41094  33.884  11.699  10.879
72877ION    NA+41095  13.454  13.141  12.908
72878ION    NA+41096   6.648  44.956  14.104
72879ION    NA+41097   1.743  22.705  13.899
72880ION    NA+41098  37.963   6.263   2.859
72881ION    NA+41099  32.328  28.365  13.709
72882ION    NA+41100  31.841  11.892   0.860
72883ION    NA+41101   4.822  43.026   0.912
72884ION    NA+41102  36.145  31.133  13.992
72885ION    NA+41103  42.632  10.285   2.825
72886ION    NA+41104  12.377  31.907  14.445
72887ION    NA+41105   4.734   8.280   0.905
72888ION    NA+41106   0.873  39.978  14.891
72889ION    NA+41107  14.518  13.844   1.575
72890ION    NA+41108  31.996  16.596   0.783
72891ION    NA+41109  34.394  42.444   1.662
72892ION    NA+41110   1.449   3.727   3.078
72893ION    NA+41111  12.107  32.867  10.686
72894ION    NA+41112  26.746  18.237   1.011
72895ION    NA+41113  34.997  39.836  11.357
72896ION    NA+41114   7.144   8.683  12.922
72897ION    NA+41115  17.309  27.298  11.339
72898ION    NA+41116  28.491  43.363  10.612
72899ION    NA+41117  16.768  24.608  14.938
72900ION    NA+41118  21.328  38.898   2.213
72901ION    NA+41119  37.649  41.864  12.115
72902ION    NA+41120  20.761  37.287  12.841
72903ION    NA+41121  36.698  35.241   4.733
72904ION    NA+41122  31.777  42.825  12.599
72905ION    NA+41123  29.142  12.298   1.808
72906ION    NA+41124  11.421  21.380   3.990
72907ION    NA+41125  23.241  33.077  12.222
72908ION    NA+41126   7.478  21.607   2.831
72909ION    NA+41127  28.160  14.544  14.873
72910ION    NA+41128  44.834  39.340  12.516
72911ION    NA+41129   8.340  19.602   1.220
72912ION    NA+41130  20.114   2.506  10.570
72913ION    NA+41131  14.373  25.982  14.104
72914ION    NA+41132  26.235   1.353  11.043
72915ION    NA+41133  10.370  38.313  10.410
72916ION    NA+41134  44.316  42.677   1.938
72917ION    NA+41135   5.962  41.681  12.982
72918ION    NA+41136  31.154  23.689  11.584
72919ION    NA+41137  34.172  27.560   1.790
72920ION    NA+41138   9.679  32.033  14.617
72921ION    NA+41139  18.507  23.917  13.092
72922ION    NA+41140  15.307  19.260  12.479
72923ION    NA+41141  43.752  38.822   1.534
72924ION    NA+41142  23.132  34.824   2.260
72925ION    NA+41143  35.734  25.671   0.403
72926ION    NA+41144  34.432  21.672   2.276
72927ION    NA+41145  34.199  23.891  14.143
72928ION    NA+41146  33.004  33.011  11.816
72929ION    NA+41147  23.680  34.455   4.717
72930ION    NA+41148  24.433  40.003  14.607
72931ION    NA+41149  30.183  12.618   3.663
72932ION    NA+41150  33.905  44.192  11.516
72933ION    NA+41151  42.693  12.225  12.356
72934ION    NA+41152  12.225   6.666   0.918
72935ION    NA+41153  21.250  19.040   1.155
72936ION    NA+41154  25.005  24.705  14.753
72937ION    NA+41155   3.355  19.596  13.878
72938ION    NA+41156  13.912  21.844   3.054
72939ION    NA+41157  16.691  17.352   2.112
72940ION    NA+41158  28.083  24.724   4.152
72941ION    NA+41159  34.477  38.755   4.571
72942ION    NA+41160  38.030  26.607  14.267
72943ION    NA+41161  30.654   4.497  13.660
72944ION    NA+41162  34.724  24.675  10.360
72945ION    NA+41163  22.711   2.786  11.139
72946ION    NA+41164  25.542  34.880  11.033
72947ION    NA+41165  17.016  15.152  12.513
72948ION    NA+41166  31.692   7.728   2.290
72949ION    NA+41167  43.218  26.125   0.031
72950ION    NA+41168  32.662  38.080   0.431
72951ION    NA+41169   4.158   9.081   1.226
72952ION    NA+41170  33.152  23.151   3.722
72953ION    NA+41171  38.164  22.806  14.093
72954ION    NA+41172  35.707   4.904  10.657
72955ION    NA+41173  33.907  17.719   3.706
72956ION    NA+41174  28.859  12.696  11.207
72957ION    NA+41175  40.011  29.021  11.266
72958ION    NA+41176   4.725  41.535  12.086
72959ION    NA+41177  38.920   7.029  11.043
72960ION    NA+41178   7.848  38.915  10.722
72961ION    NA+41179  15.695  17.176   2.878
72962ION    NA+41180   8.447   8.378   4.719
72963ION    NA+41181  23.171   9.174   0.889
72964ION    NA+41182  16.864   0.396  13.283
72965ION    NA+41183   3.691  14.397  11.203
72966ION    NA+41184  21.084  42.770  13.587
72967ION    NA+41185  30.566  36.125  11.412
72968ION    NA+41186   4.378  19.594  13.352
72969ION    NA+41187  40.891  10.831  13.132
72970ION    NA+41188  20.298  13.846   3.803
72971ION    NA+41189  33.968  31.861   5.459
72972ION    NA+41190   8.282  27.740   0.965
72973ION    NA+41191  43.883  22.407  14.352
72974ION    NA+41192  40.555  39.809   1.391
72975ION    NA+41193  44.892  31.193   0.278
72976ION    NA+41194  21.119  35.590   4.134
72977ION    NA+41195   7.306   7.202  12.009
72978ION    NA+41196  10.652  20.358   2.296
72979ION    NA+41197  12.367   6.760  11.629
72980ION    NA+41198  44.518   8.332   0.872
72981ION    NA+41199  17.790   8.608   4.773
72982ION    NA+41200  29.839  33.912  12.044
72983ION    NA+41201  19.891  12.643  14.593
72984ION    NA+41202  15.569  22.693   3.099
72985ION    NA+41203  23.485  36.729  14.427
72986ION    NA+41204  28.606  25.576   4.117
72987ION    NA+41205  34.407  25.592  14.035
72988ION    NA+41206  17.325  17.687  11.906
72989ION    NA+41207  27.949  37.572  14.841
72990ION    NA+41208   4.290  16.314   4.015
72991ION    NA+41209   9.173  34.912  12.438
72992ION    NA+41210  31.177  17.562  12.732
72993ION    NA+41211  41.267  36.631  14.650
72994ION    NA+41212  33.053  27.095   2.188
72995ION    NA+41213  41.489  12.522   3.279
72996ION    NA+41214  19.383  31.338   1.245
72997ION    NA+41215  28.665  28.224   4.979
72998ION    NA+41216   3.919   4.270  12.277
72999ION    NA+41217   3.745  13.764   0.742
73000ION    NA+41218  15.642  29.016   1.029
73001ION    NA+41219  37.176  43.336   3.433
73002ION    NA+41220  29.907  25.488   1.489
73003ION    NA+41221  17.125  34.778   3.889
73004ION    NA+41222  20.616   1.897  11.183
73005ION    NA+41223  37.283  23.539   3.333
73006ION    NA+41224  31.667   9.680   0.906
73007ION    NA+41225  10.839  28.045  10.868
73008ION    NA+41226  24.276  42.213   2.003
73009ION    NA+41227  17.144  29.288  13.127
73010ION    NA+41228  12.102  25.201  13.359
73011ION    NA+41229  37.291  25.473  10.667
73012ION    NA+41230  39.268  13.726  12.983
73013ION    NA+41231  27.889  37.375   4.313
73014ION    NA+41232  22.952  21.521   3.609
73015ION    NA+41233  18.339   8.824  13.550
73016ION    NA+41234  33.897  40.332  14.123
73017ION    NA+41235  33.350  22.055   3.100
73018ION    NA+41236  25.990  44.491  14.791
73019ION    NA+41237  11.259  44.802   9.474
73020ION    NA+41238  33.938  21.863  12.846
73021ION    NA+41239  15.613   4.691   4.506
73022ION    NA+41240  37.032  34.950   2.070
73023ION    NA+41241   8.004  19.829  13.304
73024ION    NA+41242  38.290  26.889  13.343
73025ION    NA+41243   3.357  27.878  11.044
73026ION    NA+41244   6.217   8.711   4.904
73027ION    NA+41245  33.580  35.355  10.593
73028ION    NA+41246  38.656   3.754  11.930
73029ION    NA+41247  40.336  17.004   3.177
73030ION    NA+41248   7.629   8.104   2.874
73031ION    NA+41249  37.057   6.365   2.992
73032ION    NA+41250  41.030  36.883   2.383
73033ION    NA+41251  40.355  42.054  14.320
73034ION    NA+41252  16.082  37.990  10.732
73035ION    NA+41253   1.792  37.503   2.452
73036ION    NA+41254   1.508  12.878  13.178
73037ION    NA+41255   3.161   2.515   4.975
73038ION    NA+41256  26.412   2.463   3.848
73039ION    NA+41257  31.463  35.048  14.054
73040ION    NA+41258  18.431  26.593  11.344
73041ION    NA+41259   1.366  22.198  12.489
73042ION    NA+41260  12.901  15.902   2.626
73043ION    NA+41261  34.529  36.567   2.852
73044ION    NA+41262  14.724  29.319   5.209
73045ION    NA+41263   7.101  13.190   0.794
73046ION    NA+41264  18.663   7.563   0.464
73047ION    NA+41265  35.931   8.974  12.057
73048ION    NA+41266   5.892  44.861   1.759
73049ION    NA+41267  31.563   9.722  14.389
73050ION    NA+41268   6.290   4.929   0.368
73051ION    NA+41269   4.932   0.563  13.055
73052ION    NA+41270  25.636  26.653   1.855
73053ION    NA+41271   0.826  39.837   2.242
73054ION    NA+41272  18.866  41.121   0.274
73055ION    NA+41273  42.748  10.788  12.486
73056ION    NA+41274  41.422  29.454  14.116
73057ION    NA+41275  36.742  23.689  10.343
73058ION    NA+41276   8.133  31.077   2.336
73059ION    NA+41277  13.139  40.410  14.073
73060ION    NA+41278   5.399  17.089   3.309
73061ION    NA+41279  30.027   6.836   3.184
73062ION    NA+41280  27.438   1.629  14.252
73063ION    NA+41281  23.504  39.097  10.814
73064ION    NA+41282  43.487   5.150  11.142
73065ION    NA+41283  30.000   2.702   4.158
73066ION    NA+41284  28.748  28.702  11.357
73067ION    NA+41285  38.402  12.081   0.495
73068ION    NA+41286   6.352   7.765   2.272
73069ION    NA+41287  42.715  13.306   0.743
73070ION    NA+41288  28.515  30.365  14.295
73071ION    NA+41289  28.934  36.391  13.226
73072ION    NA+41290  11.930  35.711   4.071
73073ION    NA+41291  14.090  33.184  13.052
73074ION    NA+41292   3.893   0.340  10.854
73075ION    NA+41293  39.864   0.375   3.294
73076ION    NA+41294  33.673  14.601   2.233
73077ION    NA+41295  35.386  34.086   0.991
73078ION    NA+41296  42.779  17.522  12.819
73079ION    NA+41297   1.905  31.586   3.182
73080ION    NA+41298  16.725  11.097  14.643
73081ION    NA+41299   4.989  27.463  12.327
73082ION    NA+41300  23.026   4.191   2.614
73083ION    NA+41301  33.933  23.519  11.270
73084ION    NA+41302   2.080  40.610  13.098
73085ION    NA+41303   2.565  39.806   1.356
73086ION    NA+41304   6.649   8.019   0.841
73087ION    NA+41305  29.956  42.902  13.247
73088ION    NA+41306  33.757   2.481   2.037
73089ION    NA+41307   5.899  17.073   1.336
73090ION    NA+41308  26.061  14.701   3.765
73091ION    NA+41309   5.161  36.479   2.785
73092ION    NA+41310  26.476  43.887   4.538
73093ION    NA+41311  25.452  36.836  13.026
73094ION    NA+41312  32.176  26.774   2.694
73095ION    NA+41313  35.954  32.513   1.424
73096ION    NA+41314  17.582  40.423   1.012
73097ION    NA+41315   7.506  32.527   3.039
73098ION    NA+41316  25.631  28.082  11.552
73099ION    NA+41317   3.493  24.573   4.735
73100ION    NA+41318  30.872  40.081   2.656
73101ION    NA+41319  28.560  13.382   4.610
73102ION    NA+41320  31.574  41.258  11.916
73103ION    NA+41321  35.072  44.942   4.379
73104ION    NA+41322  26.215  19.203   3.567
73105ION    NA+41323  44.031  19.067  14.264
73106ION    NA+41324  20.686  40.235  14.353
73107ION    NA+41325  18.752  32.359   0.734
73108ION    NA+41326  23.886  17.776  12.449
73109ION    NA+41327  27.750  22.857  14.763
73110ION    NA+41328   4.808   7.451   0.158
73111ION    NA+41329  31.660  36.393  14.538
73112ION    NA+41330  28.966  17.133   0.952
73113ION    NA+41331  10.473  29.736   9.911
73114ION    NA+41332   4.090  37.367  13.488
73115ION    NA+41333  26.918  17.441  10.943
73116ION    NA+41334  12.136   4.127  12.980
73117ION    NA+41335  43.233  40.738  11.359
73118ION    NA+41336  14.797  22.608   4.093
73119ION    NA+41337  17.555  40.842  10.890
73120ION    NA+41338  26.054   4.406   0.183
73121ION    NA+41339  17.029   8.789   3.643
73122ION    NA+41340  15.115   4.865  12.148
73123ION    NA+41341  27.324  20.211   3.303
73124ION    NA+41342  15.509  24.714  11.516
73125ION    NA+41343  38.305  31.468   2.818
73126ION    NA+41344  10.846  11.171  13.866
73127ION    NA+41345  34.960  39.069   3.749
73128ION    NA+41346  31.932  44.747   3.855
73129ION    NA+41347  16.946  37.294   1.337
73130ION    NA+41348  27.235  40.362  14.727
73131ION    NA+41349  15.292  22.242  14.759
73132ION    NA+41350   6.076  29.401   2.999
73133ION    NA+41351  40.040  17.808   3.742
73134ION    NA+41352  23.989  25.032   0.332
73135ION    NA+41353  22.042  42.645   3.601
73136ION    NA+41354  14.332  31.612   2.669
73137ION    NA+41355  39.419  21.418   0.316
73138ION    NA+41356  29.756  42.240   4.077
73139ION    NA+41357   2.766  31.488   2.906
73140ION    NA+41358  20.318  20.025   4.439
73141ION    NA+41359  29.428  11.109  11.638
73142ION    NA+41360  11.070   0.438  10.474
73143ION    NA+41361  30.619  33.026   2.998
73144ION    NA+41362  44.863  22.548  10.630
73145ION    NA+41363   0.329  26.423  11.860
73146ION    NA+41364  41.101   1.215   1.394
73147ION    NA+41365   5.814  17.578  13.556
73148ION    NA+41366   1.573  30.557   2.055
73149ION    NA+41367  22.740  26.168   1.365
73150ION    NA+41368  22.960  30.299  10.796
73151ION    NA+41369  15.259   4.811  14.401
73152ION    NA+41370  38.586  17.168  13.095
73153ION    NA+41371  32.567  41.809  10.650
73154ION    NA+41372  17.777  21.318   2.939
73155ION    NA+41373  32.366  11.143   1.845
73156ION    NA+41374  26.917  31.959  14.750
73157ION    NA+41375  35.087  14.106   5.275
73158ION    NA+41376  41.768  18.910   0.073
73159ION    NA+41377  43.840  14.479   2.311
73160ION    NA+41378  36.294   3.055   4.857
73161ION    NA+41379  12.147   4.752  14.574
73162ION    NA+41380  26.697  39.470   4.631
73163ION    NA+41381  18.413   8.878   2.333
73164ION    NA+41382  17.431  29.654   2.879
73165ION    NA+41383  14.851  28.630   2.177
73166ION    NA+41384  36.775  23.126   0.155
73167ION    NA+41385   1.481  35.016  10.822
73168ION    NA+41386  15.233   4.738   2.733
73169ION    NA+41387  22.971  12.545  12.813
73170ION    NA+41388  27.507   0.081  11.139
73171ION    NA+41389  28.107  29.447   0.325
73172ION    NA+41390   5.956  19.820   3.836
73173ION    NA+41391  29.636  33.677   2.749
73174ION    NA+41392  38.508   9.593  13.417
73175ION    NA+41393  12.226   8.645  13.100
73176ION    NA+41394   8.937  30.010   0.456
73177ION    NA+41395  27.314  33.076  14.809
73178ION    NA+41396  28.317  12.513  10.346
73179ION    NA+41397  32.350  37.965  14.633
73180ION    NA+41398  44.829  29.730  11.086
73181ION    NA+41399  18.933  12.356   0.023
73182ION    NA+41400  21.646  17.350  13.022
73183ION    NA+41401  37.165  37.592   4.136
73184ION    NA+41402   2.750  11.328  11.203
73185ION    NA+41403  10.011  10.164   5.136
73186ION    NA+41404  40.815  27.190   2.165
73187ION    NA+41405   5.673  14.790  14.813
73188ION    NA+41406  31.505   3.729  13.063
73189ION    NA+41407  14.754  42.788   9.953
73190ION    NA+41408  44.129  40.854  11.787
73191ION    NA+41409  44.692  28.311   3.937
73192ION    NA+41410   4.701   3.135   5.217
73193ION    NA+41411  25.778  23.020  12.114
73194ION    NA+41412   4.881  30.757  13.423
73195ION    NA+41413  37.978   7.721  12.692
73196ION    NA+41414  28.192  15.218   2.012
73197ION    NA+41415   1.719  29.112  10.863
73198ION    NA+41416   9.237  17.035   1.728
73199ION    NA+41417   1.959  19.049  14.268
73200ION    NA+41418   9.182  11.788   1.376
73201ION    NA+41419   9.855  30.281  11.288
73202ION    NA+41420  14.118  42.514  11.558
73203ION    NA+41421  15.814   6.891  11.265
73204ION    NA+41422  28.713  43.642   2.588
73205ION    NA+41423   9.385  20.232   3.857
73206ION    NA+41424  27.031  22.708   0.485
73207ION    NA+41425  38.106   1.452   2.951
73208ION    NA+41426  17.823   5.217  13.885
73209ION    NA+41427  16.555  36.038   1.684
73210ION    NA+41428  30.477  29.120  13.505
73211ION    NA+41429  27.495  38.988  14.813
73212ION    NA+41430   1.754  12.894   4.373
73213ION    NA+41431  34.703  29.068   5.018
73214ION    NA+41432  33.317  27.420  12.046
73215ION    NA+41433  44.501   1.418  14.054
73216ION    NA+41434  14.686  37.553   1.328
73217ION    NA+41435  24.198  21.761  14.814
73218ION    NA+41436  34.797   6.303  14.775
73219ION    NA+41437  19.656  11.664  14.943
73220ION    NA+41438  30.139  43.574  11.340
73221ION    NA+41439  38.992  36.278  12.324
73222ION    NA+41440  42.949  16.103  13.982
73223ION    NA+41441   1.502  38.237  14.926
73224ION    NA+41442  43.437  25.671  12.896
73225ION    NA+41443  14.939  37.500  11.427
73226ION    NA+41444  15.794  43.201  10.750
73227ION    NA+41445   0.669  32.585   0.413
73228ION    NA+41446  36.406  29.706   2.763
73229ION    NA+41447  17.699  30.078  12.866
73230ION    NA+41448  17.665  35.338   3.233
73231ION    NA+41449  33.536  19.713   2.103
73232ION    NA+41450   8.346  27.050   2.695
73233ION    NA+41451  19.418  33.831  11.176
73234ION    NA+41452  28.598  39.030  14.237
73235ION    NA+41453  22.973  18.350  12.405
73236ION    NA+41454   9.513  31.062  12.733
73237ION    NA+41455  25.950  15.414   4.502
73238ION    NA+41456   2.416   8.356   0.459
73239ION    NA+41457   3.574  40.945   9.626
73240ION    NA+41458   9.131  41.085   1.666
73241ION    NA+41459   4.581  31.221   3.917
73242ION    NA+41460   6.765  39.934   2.693
73243ION    NA+41461  40.796  32.599  10.595
73244ION    NA+41462  12.740   2.687   4.001
73245ION    NA+41463  36.382   2.939   3.667
73246ION    NA+41464  33.394  17.532   4.559
73247ION    NA+41465  24.306  17.847   1.873
73248ION    NA+41466  18.851   1.916   2.308
73249ION    NA+41467  34.182  40.541  13.187
73250ION    NA+41468  25.406  22.020   4.578
73251ION    NA+41469  10.807  13.151  10.852
73252ION    NA+41470  33.726   3.463   1.234
73253ION    NA+41471  42.034  30.252  14.197
73254ION    NA+41472  17.449  19.459  10.949
73255ION    NA+41473   3.649   7.298   4.464
73256ION    NA+41474   6.492  22.202  11.700
73257ION    NA+41475  16.023  27.678   2.837
73258ION    NA+41476   3.458  19.290   1.187
73259ION    NA+41477  36.717   9.949  13.913
73260ION    NA+41478  10.414  32.349   4.507
73261ION    NA+41479  21.786  32.439   1.201
73262ION    NA+41480   1.214  27.560   0.207
73263ION    NA+41481  12.385  41.194   4.119
73264ION    NA+41482  13.859   4.842   1.855
73265ION    NA+41483  19.735   8.076  14.667
73266ION    NA+41484  15.653  32.302  11.072
73267ION    NA+41485  11.030  39.260   0.312
73268ION    NA+41486  16.537  42.471  10.683
73269ION    NA+41487  17.851  33.449  12.836
73270ION    NA+41488   3.281  30.424   4.377
73271ION    NA+41489   9.933  17.207   3.833
73272ION    NA+41490   3.921  15.588   9.907
73273ION    NA+41491  40.591  41.904   1.326
73274ION    NA+41492  25.214   6.269  14.725
73275ION    NA+41493   8.651  24.059  11.028
73276ION    NA+41494  17.184  21.042  13.247
73277ION    NA+41495  14.503  21.888  13.418
73278ION    NA+41496  37.949   1.900   1.812
73279ION    NA+41497   9.503  22.265  14.975
73280ION    NA+41498  21.069  34.458   0.412
73281ION    NA+41499  32.818   8.143   1.798
73282ION    NA+41500  44.277  12.395   0.240
73283ION    NA+41501  21.977  31.381   1.755
73284ION    NA+41502   1.764  17.053   3.647
73285ION    NA+41503  23.101   0.420   2.785
73286ION    NA+41504  35.154  23.645   9.713
73287ION    NA+41505  15.816  33.348  14.611
73288ION    NA+41506  34.667   1.226   1.555
73289ION    NA+41507   3.162  32.808  13.116
73290ION    NA+41508  21.796   1.666  10.764
73291ION    NA+41509   8.042   4.900   1.698
73292ION    NA+41510  19.800  23.721   4.311
73293ION    NA+41511  43.165  41.502   3.321
73294ION    NA+41512  23.196  20.819   1.779
73295ION    NA+41513  44.281  18.205   3.132
73296ION    NA+41514   4.746  26.518   0.653
73297ION    NA+41515  21.850   4.297   2.776
73298ION    NA+41516  18.010   5.815   3.649
73299ION    NA+41517  13.657  33.930   1.715
73300ION    NA+41518   8.874  26.496  11.144
73301ION    NA+41519  11.706   2.833  13.753
73302ION    NA+41520  12.777  13.898  14.547
73303ION    NA+41521  43.982  17.661   0.142
73304ION    NA+41522   2.055  42.543   2.959
73305ION    NA+41523  40.378  37.362   3.043
73306ION    NA+41524  27.554  42.932  10.297
73307ION    NA+41525   6.226  40.379   9.989
73308ION    NA+41526  30.428  31.878  12.673
73309ION    NA+41527   2.753   3.924   1.515
73310ION    NA+41528   3.304  31.976  11.172
73311ION    NA+41529  30.660  34.461   0.793
73312ION    NA+41530  14.859  13.053   1.380
73313ION    NA+41531  22.822  37.128   4.628
73314ION    NA+41532   9.761  24.635  12.902
73315ION    NA+41533  43.166  14.193  13.521
73316ION    NA+41534   2.581  38.056   2.185
73317ION    NA+41535  24.907  34.687  10.379
73318ION    NA+41536  16.852  35.364  13.180
73319ION    NA+41537  32.354  28.767   4.488
73320ION    NA+41538  37.059  16.576   4.075
73321ION    NA+41539  14.807  19.612  14.711
73322ION    NA+41540  33.553   2.242  14.842
73323ION    NA+41541  38.821  16.495  14.860
73324ION    NA+41542  44.459   5.285   3.596
73325ION    NA+41543  29.265  37.495  14.730
73326ION    NA+41544   5.887   6.304  14.401
73327ION    NA+41545  18.103  36.847  13.352
73328ION    NA+41546  36.085  39.464   2.198
73329ION    NA+41547  27.181  43.376  12.139
73330ION    NA+41548   2.774  15.689   4.930
73331ION    NA+41549  28.520   1.978   3.877
73332ION    NA+41550  18.428  40.107   2.457
73333ION    NA+41551  13.068  24.377   1.223
73334ION    NA+41552  20.882   4.503   2.917
73335ION    NA+41553  21.794  11.868  11.237
73336ION    NA+41554  31.514  19.688  12.173
73337ION    NA+41555  28.381  25.448   2.791
73338ION    NA+41556  38.442  35.872  11.594
73339ION    NA+41557  15.314   3.910  13.971
73340ION    NA+41558  27.644   1.785   2.792
73341ION    NA+41559  15.520  19.544   2.759
73342ION    NA+41560  38.705   1.330  11.273
73343ION    NA+41561  33.408  13.461   2.565
73344ION    NA+41562   2.900  14.117   0.018
73345ION    NA+41563  32.057   5.412   5.377
73346ION    NA+41564  34.157  23.944   2.132
73347ION    NA+41565  14.015  40.155   2.912
73348ION    NA+41566  10.856  43.481   3.648
73349ION    NA+41567  40.699  17.340  13.365
73350ION    NA+41568  35.648  15.478   2.184
73351ION    NA+41569  32.835  12.176   4.705
73352ION    NA+41570   3.336  36.240   4.513
73353ION    NA+41571  11.094  16.369  12.897
73354ION    NA+41572  21.192  32.037  14.923
73355ION    NA+41573  25.479   3.318   1.686
73356ION    NA+41574   0.389  27.342   4.089
73357ION    NA+41575  35.190   4.602   3.909
73358ION    NA+41576   9.541  15.961  12.899
73359ION    NA+41577  34.297  38.346   1.100
73360ION    NA+41578  38.134  33.838   1.392
73361ION    NA+41579  22.223   5.233   0.194
73362ION    NA+41580  21.101  15.076   3.598
73363ION    NA+41581  43.812   7.142  10.376
73364ION    NA+41582  21.727  11.699   0.002
73365ION    NA+41583  19.738   6.532   1.025
73366ION    NA+41584   3.215   6.261  13.520
73367ION    NA+41585   5.200  18.460   2.934
73368ION    NA+41586  30.274  11.217  13.527
73369ION    NA+41587   5.389  22.936   0.543
73370ION    NA+41588   4.650  24.037  10.533
73371ION    NA+41589  42.378  30.458   0.026
73372ION    NA+41590  44.859  37.163   1.604
73373ION    NA+41591  38.828   6.516   1.966
73374ION    NA+41592  19.519  18.010   3.284
73375ION    NA+41593   0.675   3.384   2.749
73376ION    NA+41594  18.333  11.151  12.515
73377ION    NA+41595  31.183  37.597  14.169
73378ION    NA+41596  34.196  30.522   2.327
73379ION    NA+41597  10.385  20.579  11.623
73380ION    NA+41598  27.045  40.253   0.702
73381ION    NA+41599  29.478   7.610  11.714
73382ION    NA+41600  16.301  10.032  10.683
73383ION    NA+41601  15.770  27.048   4.390
73384ION    NA+41602  12.374  15.987   1.761
73385ION    NA+41603   1.220  35.400   1.017
73386ION    NA+41604  12.233   4.373   2.815
73387ION    NA+41605  20.023  29.428  13.536
73388ION    NA+41606   3.404  17.195   3.354
73389ION    NA+41607  39.435   1.181   3.248
73390ION    NA+41608   4.040   9.774  13.517
73391ION    NA+41609  38.094  22.392   0.000
73392ION    NA+41610   3.985  17.415   0.102
73393ION    NA+41611  20.878  15.276   5.396
73394ION    NA+41612  17.601  20.486   2.274
73395ION    NA+41613  23.953  43.004   3.170
73396ION    NA+41614  11.154  39.957  11.212
73397ION    NA+41615  38.385  40.060   4.560
73398ION    NA+41616  44.716  29.313   2.714
73399ION    NA+41617  24.961  22.946   1.990
73400ION    NA+41618  39.544  22.913   5.024
73401ION    NA+41619   2.151   1.370   0.867
73402ION    NA+41620  26.538  28.335   3.074
73403ION    NA+41621  41.420  26.078   3.669
73404ION    NA+41622  24.086  38.159  12.300
73405ION    NA+41623  30.911   0.329   0.381
73406ION    NA+41624   2.953  40.269  11.867
73407ION    NA+41625  11.324  41.573  14.439
73408ION    NA+41626  11.892  29.971   3.446
73409ION    NA+41627  21.142   0.884  10.719
73410ION    NA+41628  43.020  16.044   2.189
73411ION    NA+41629  16.671  33.350  11.922
73412ION    NA+41630   3.790   8.188  11.883
73413ION    NA+41631  23.035   8.250   4.750
73414ION    NA+41632  33.403  32.403  11.130
73415ION    NA+41633  35.725   2.631   3.293
73416ION    NA+41634  33.583   7.441  14.573
73417ION    NA+41635  33.848  21.020   1.722
73418ION    NA+41636  19.345  24.775  12.729
73419ION    NA+41637   9.761  36.882   1.852
73420ION    NA+41638   9.607  21.060   2.774
73421ION    NA+41639  15.098  37.242   2.862
73422ION    NA+41640   4.835  42.522  12.210
73423ION    NA+41641   3.589   4.262  13.220
73424ION    NA+41642  35.989   7.347  12.133
73425ION    NA+41643  12.567   8.370  11.574
73426ION    NA+41644  27.254  32.834  13.436
73427ION    NA+41645  38.479  37.039   3.708
73428ION    NA+41646  14.850  44.912  10.780
73429ION    NA+41647   9.735   9.165  11.137
73430ION    NA+41648  17.527  11.901   3.875
73431ION    NA+41649  21.210  13.232  13.530
73432ION    NA+41650  16.344  19.305   3.350
73433ION    NA+41651  36.820  27.985  13.451
73434ION    NA+41652  22.192  39.060   0.767
73435ION    NA+41653  21.526  33.180   1.658
73436ION    NA+41654  42.042  22.535  10.770
73437ION    NA+41655   3.518   7.596  11.018
73438ION    NA+41656  26.573  23.283  11.507
73439ION    NA+41657  17.854   9.732  11.594
73440ION    NA+41658  19.710  33.109   3.855
73441ION    NA+41659   9.120  41.662  12.242
73442ION    NA+41660  11.826  14.465  12.056
73443ION    NA+41661  42.893   8.342  11.522
73444ION    NA+41662  36.098   1.575  12.422
73445ION    NA+41663  39.301  13.133  12.179
73446ION    NA+41664   6.201  31.433  14.479
73447ION    NA+41665  19.304  24.026   0.568
73448ION    NA+41666  11.401  27.965  13.935
73449ION    NA+41667  24.267   9.893   2.764
73450ION    NA+41668  18.743  21.165   3.828
73451ION    NA+41669  41.916  24.718  11.374
73452ION    NA+41670  17.097   5.213  14.411
73453ION    NA+41671  20.166  12.566  13.081
73454ION    NA+41672  11.811  30.010  10.483
73455ION    NA+41673  30.528  32.868   4.005
73456ION    NA+41674  43.583   9.721   0.787
73457ION    NA+41675  38.756   4.304  13.935
73458ION    NA+41676  25.847  26.386   5.074
73459ION    NA+41677  41.778  40.683  11.531
73460ION    NA+41678   7.752   3.356   3.735
73461ION    NA+41679   7.817  32.490  14.951
73462ION    NA+41680  16.087  37.538   0.255
73463ION    NA+41681  35.297  29.686   0.872
73464ION    NA+41682  21.854   8.861  12.356
73465ION    NA+41683  31.602  32.484   2.131
73466ION    NA+41684  34.613  40.851  14.748
73467ION    NA+41685  12.890   6.390   3.463
73468ION    NA+41686   7.636   4.807  14.116
73469ION    NA+41687  30.821  20.825   2.024
73470ION    NA+41688  16.721  13.555  13.712
73471ION    NA+41689   1.942  19.320   0.230
73472ION    NA+41690  31.560   1.476  13.259
73473ION    NA+41691  18.947  16.741  14.987
73474ION    NA+41692  42.540   8.268  10.562
73475ION    NA+41693  44.428   5.529  11.661
73476ION    NA+41694  44.026  34.122   3.649
73477ION    NA+41695   9.721  26.883  13.688
73478ION    NA+41696  12.190  26.939   1.274
73479ION    NA+41697  10.052  26.486  14.425
73480ION    NA+41698   6.871  22.432   4.736
73481ION    NA+41699  44.400  26.183  13.242
73482ION    NA+41700   4.445  30.120  11.182
73483ION    NA+41701   1.680  37.921   1.550
73484ION    NA+41702   8.517  29.204   4.056
73485ION    NA+41703  42.288  40.068  13.944
73486ION    NA+41704  21.166   1.514  13.378
73487ION    NA+41705   3.996  35.236  11.370
73488ION    NA+41706  44.017  21.986   4.215
73489ION    NA+41707  29.257  21.603   2.554
73490ION    NA+41708   5.956  27.721   4.247
73491ION    NA+41709  21.690  37.911  14.282
73492ION    NA+41710  34.387  26.302  12.486
73493ION    NA+41711  29.295   3.409   4.104
73494ION    NA+41712  40.369  34.647   0.517
73495ION    NA+41713  33.915   9.431  10.451
73496ION    NA+41714  17.273   2.850  12.846
73497ION    NA+41715  31.600  42.002   2.765
73498ION    NA+41716  18.450  22.155  11.904
73499ION    NA+41717   0.946  33.345  14.625
73500ION    NA+41718  30.040   4.947  14.357
73501ION    NA+41719  24.923  14.401   2.300
73502ION    NA+41720  28.627  19.669  13.179
73503ION    NA+41721  42.331  39.280   0.370
73504ION    NA+41722  12.681  25.464  11.320
73505ION    NA+41723   2.056   8.537   4.889
73506ION    NA+41724  14.115  15.563  10.624
73507ION    NA+41725   2.742   1.629   4.774
73508ION    NA+41726  33.114  31.131   3.720
73509ION    NA+41727   5.660  10.496   9.893
73510ION    NA+41728   9.067   6.922   1.620
73511ION    NA+41729  44.054  17.267   4.364
73512ION    NA+41730  38.718  35.832   1.607
73513ION    NA+41731  41.914  18.080   0.820
73514ION    NA+41732  30.351  23.992  12.909
73515ION    NA+41733  20.858   3.537  13.682
73516ION    NA+41734  28.814  27.707   3.493
73517ION    NA+41735  35.826  27.984  10.180
73518ION    NA+41736  30.431  11.014   3.220
73519ION    NA+41737  42.718  14.690   3.957
73520ION    NA+41738   8.211   9.186  14.942
73521ION    NA+41739   8.951   2.723  12.561
73522ION    NA+41740  38.467  43.076   0.299
73523ION    NA+41741  31.230   9.146   2.958
73524ION    NA+41742  22.090   8.444   0.483
73525ION    NA+41743   4.066  22.055   3.555
73526ION    NA+41744  33.535  32.009   2.436
73527ION    NA+41745   7.625  30.818   1.415
73528ION    NA+41746  35.577  40.115   2.571
73529ION    NA+41747  27.850  42.132  14.014
73530ION    NA+41748  21.814  29.180   3.097
73531ION    NA+41749  32.698  15.602   1.520
73532ION    NA+41750  12.904  22.109  12.438
73533ION    NA+41751  25.484  23.884  14.250
73534ION    NA+41752  23.848  37.533  13.504
73535ION    NA+41753  20.497  23.074  12.441
73536ION    NA+41754   9.983  21.640   3.571
73537ION    NA+41755  36.328  12.687  11.650
73538ION    NA+41756  27.920  18.209   1.863
73539ION    NA+41757  29.514  15.837   1.838
73540ION    NA+41758   4.831  42.571   2.258
73541ION    NA+41759  26.672  35.811  12.954
73542ION    NA+41760  10.363  43.558  11.344
73543ION    NA+41761  11.220  17.651   2.037
73544ION    NA+41762  37.336   4.479  13.110
73545ION    NA+41763  28.131  22.205  13.521
73546ION    NA+41764  28.662   8.683   0.461
73547ION    NA+41765   2.928  17.469  11.138
73548ION    NA+41766  30.721  16.546  12.109
73549ION    NA+41767  31.293   6.828  14.322
73550ION    NA+41768  19.272  12.340  13.635
73551ION    NA+41769  22.638  33.416  10.764
73552ION    NA+41770  22.470  13.066  11.594
73553ION    NA+41771  39.140  16.223   1.793
73554ION    NA+41772  10.170  37.371  11.496
73555ION    NA+41773   2.536   8.961  13.909
73556ION    NA+41774  37.318  32.141  11.995
73557ION    NA+41775  23.332  12.337   4.524
73558ION    NA+41776  22.137  39.216  14.053
73559ION    NA+41777   1.907  29.061  14.975
73560ION    NA+41778  34.350  27.378  14.473
73561ION    NA+41779  33.676  38.865  14.850
73562ION    NA+41780  32.873  17.031   0.989
73563ION    NA+41781  29.541   6.531  14.495
73564ION    NA+41782  20.032  15.904   0.393
73565ION    NA+41783  36.033  18.506  11.086
73566ION    NA+41784  39.755   1.631   4.832
73567ION    NA+41785  43.814  13.036  12.947
73568ION    NA+41786  17.479  43.654   5.404
73569ION    NA+41787  43.818  10.794   2.749
73570ION    NA+41788  17.394  42.228   3.127
73571ION    NA+41789  19.510  42.306   4.444
73572ION    NA+41790   9.873  24.928   1.734
73573ION    NA+41791  33.445  44.781  13.724
73574ION    NA+41792  41.888  27.395  11.092
73575ION    NA+41793   2.644  43.029  12.543
73576ION    NA+41794  35.144  16.118   3.171
73577ION    NA+41795  21.365  17.960   1.892
73578ION    NA+41796   2.968   7.875  13.270
73579ION    NA+41797  32.517   3.686  14.027
73580ION    NA+41798  14.536  13.207  10.727
73581ION    NA+41799  41.854  22.565  11.752
73582ION    NA+41800  32.597   5.141  11.622
73583ION    NA+41801  20.988  11.589  10.715
73584ION    NA+41802  32.394  42.059   3.371
73585ION    NA+41803  43.844   6.335  11.035
73586ION    NA+41804  11.623  30.116   0.768
73587ION    NA+41805   2.389  11.087   0.436
73588ION    NA+41806  41.332  41.314  12.989
73589ION    NA+41807   1.848  15.856   3.753
73590ION    NA+41808  16.657   2.887  14.974
73591ION    NA+41809  39.164  21.145   3.063
73592ION    NA+41810  40.255  10.417  11.196
73593ION    NA+41811   0.108  12.456   3.755
73594ION    NA+41812  35.472  30.931   1.295
73595ION    NA+41813  44.892  28.166  11.382
73596ION    NA+41814  31.266  12.635  10.776
73597ION    NA+41815  29.111   2.509  12.914
73598ION    NA+41816  43.892  44.756  11.367
73599ION    NA+41817  22.725  19.580  12.986
73600ION    NA+41818  27.445  15.562  12.014
73601ION    NA+41819  21.531  34.632  11.334
73602ION    NA+41820   8.874  25.494   0.419
73603ION    NA+41821  33.373  42.350   4.688
73604ION    NA+41822  37.254   9.299  13.684
73605ION    NA+41823  40.962   7.642  14.021
73606ION    NA+41824  36.889   3.441  13.789
73607ION    NA+41825  11.884  20.584  14.328
73608ION    NA+41826  30.607  17.719  11.925
73609ION    NA+41827  33.119  37.558  10.313
73610ION    NA+41828  17.398  23.913  10.605
73611ION    NA+41829  42.030   4.257  11.571
73612ION    NA+41830  32.006   2.827  13.993
73613ION    NA+41831  40.290   9.648  11.834
73614ION    NA+41832  13.587   9.340  12.143
73615ION    NA+41833  44.035  32.674  12.856
73616ION    NA+41834  14.279  31.919  10.213
73617ION    NA+41835  28.871  11.075  14.632
73618ION    NA+41836   9.737  13.288   2.816
73619ION    NA+41837  39.157  16.195   9.895
73620ION    NA+41838  38.142  20.714   4.610
73621ION    NA+41839  30.140  28.403  12.832
73622ION    NA+41840   6.903  33.469   4.140
73623ION    NA+41841  24.901  11.911   2.696
73624ION    NA+41842  35.890  34.325  13.099
73625ION    NA+41843  24.279   9.987  13.723
73626ION    NA+41844  34.418   1.265  13.309
73627ION    NA+41845  21.350  13.076  11.992
73628ION    NA+41846  24.521   4.832  13.579
73629ION    NA+41847  22.480  11.684   3.118
73630ION    NA+41848   8.345  38.827  12.310
73631ION    NA+41849  41.528   0.744  11.143
73632ION    NA+41850  19.389  11.495   3.474
73633ION    NA+41851   8.638  12.193  11.981
73634ION    NA+41852  20.984  14.723  13.905
73635ION    NA+41853  27.346  43.654   3.643
73636ION    NA+41854  28.581  10.602   3.669
73637ION    NA+41855  11.793  44.684  11.861
73638ION    NA+41856  45.000   2.052  14.567
73639ION    NA+41857  35.623   6.491   0.461
73640ION    NA+41858  43.614   9.197   4.661
73641ION    NA+41859  20.107   6.002  13.929
73642ION    NA+41860  37.130  43.216   2.442
73643ION    NA+41861   8.394  30.468   1.047
73644ION    NA+41862   5.321   4.818   2.552
73645ION    NA+41863   0.776  13.425   3.665
73646ION    NA+41864  18.387  33.350   4.026
73647ION    NA+41865  37.346  23.268  13.002
73648ION    NA+41866   7.841  10.801  14.276
73649ION    NA+41867  27.568  27.368  10.823
73650ION    NA+41868  31.595  38.398  12.129
73651ION    NA+41869  20.457  32.558   2.140
73652ION    NA+41870  35.638  22.477  11.301
73653ION    NA+41871   5.752  10.219   3.711
73654ION    NA+41872  30.806  35.770  13.834
73655ION    NA+41873  29.086  24.522  10.407
73656ION    NA+41874   4.692  11.681  10.635
73657ION    NA+41875   6.594  26.091   0.335
73658ION    NA+41876  31.103  34.603  10.361
73659ION    NA+41877  22.449  15.290  11.693
73660ION    NA+41878   1.586  31.856   5.109
73661ION    NA+41879  39.509  16.953  11.197
73662ION    NA+41880  19.046  43.473  14.070
73663ION    NA+41881  11.232   8.947  14.590
73664ION    NA+41882  16.160  16.242  12.226
73665ION    NA+41883  31.848  34.219   2.208
73666ION    NA+41884  33.869  32.837   0.224
73667ION    NA+41885   1.963   6.501   5.025
73668ION    NA+41886   9.673  17.137  13.549
73669ION    NA+41887   1.983  30.406   1.155
73670ION    NA+41888  18.063  34.084   2.223
73671ION    NA+41889  19.956  37.114  11.653
73672ION    NA+41890   4.243  38.792  13.988
73673ION    NA+41891  12.086  13.279   0.798
73674ION    NA+41892  35.102  22.078   3.502
73675ION    NA+41893  35.532  12.436   2.140
73676ION    NA+41894  25.152  10.124   9.711
73677ION    NA+41895  38.006  19.462  12.401
73678ION    NA+41896  14.641   1.358  14.719
73679ION    NA+41897   2.936  21.573   0.369
73680ION    NA+41898  44.232  41.975  12.165
73681ION    NA+41899   6.967  21.657  13.350
73682ION    NA+41900   3.850  34.808  10.443
73683ION    NA+41901  17.879   7.151   2.717
73684ION    NA+41902  36.091  23.208  13.925
73685ION    NA+41903   2.636  12.392   0.326
73686ION    NA+41904  19.243  35.943  14.883
73687ION    NA+41905   7.326  24.420   4.606
73688ION    NA+41906   2.190  15.183  11.546
73689ION    NA+41907   3.989  29.786   0.770
73690ION    NA+41908  21.834  10.485  11.070
73691ION    NA+41909  11.781  33.193   5.106
73692ION    NA+41910  44.828  35.281  11.005
73693ION    NA+41911  20.408  18.925  14.148
73694ION    NA+41912  16.735  40.605   2.334
73695ION    NA+41913  43.029  28.452   4.138
73696ION    NA+41914  12.090   4.136   0.803
73697ION    NA+41915  41.834  13.238   4.195
73698ION    NA+41916  41.080   9.440   4.715
73699ION    NA+41917  30.673  15.698   0.051
73700ION    NA+41918  38.973  13.884  13.818
73701ION    NA+41919   3.717  26.750  13.283
73702ION    NA+41920   5.326   2.753  11.981
73703ION    NA+41921   4.194  41.080  10.712
73704ION    NA+41922  33.748  15.876  13.105
73705ION    NA+41923  43.724  24.231  11.794
73706ION    NA+41924  33.929  32.625   4.209
73707ION    NA+41925  25.007  41.296   0.745
73708ION    NA+41926  26.441  33.191  14.584
73709ION    NA+41927   0.659  40.970  10.733
73710ION    NA+41928   7.430  27.932   3.372
73711ION    NA+41929  23.946  24.537   2.060
73712ION    NA+41930  17.117  11.709  14.088
73713ION    NA+41931   4.501   7.750  12.483
73714ION    NA+41932   9.367   9.822   3.124
73715ION    NA+41933  16.169   8.641   1.555
73716ION    NA+41934  38.102  15.506   5.078
73717ION    NA+41935  42.971  13.715  12.020
73718ION    NA+41936  34.507  31.603   2.391
73719ION    NA+41937  11.365  24.942   2.650
73720ION    NA+41938  34.629   9.434   1.187
73721ION    NA+41939   0.644  13.068   0.994
73722ION    NA+41940  32.951  33.348  12.982
73723ION    NA+41941  16.855  33.369  12.784
73724ION    NA+41942   8.365  22.003   0.790
73725ION    NA+41943  16.362  18.639  12.918
73726ION    NA+41944  10.613  12.813   4.175
73727ION    NA+41945  35.125  12.824   3.000
73728ION    NA+41946  24.320  11.382   3.143
73729ION    NA+41947  15.978  10.610   2.502
73730ION    NA+41948  27.307   0.084  14.289
73731ION    NA+41949  12.366   2.513  11.676
73732ION    NA+41950  30.655  16.250   9.921
73733ION    NA+41951  14.374  22.765  13.602
73734ION    NA+41952  36.782  41.601  12.816
73735ION    NA+41953  41.803  25.480  14.314
73736ION    NA+41954  14.169  36.777   2.182
73737ION    NA+41955  20.499  16.312  11.235
73738ION    NA+41956  34.239  33.014  14.284
73739ION    NA+41957  29.296  11.194  13.320
73740ION    NA+41958  43.910   1.362   0.352
73741ION    NA+41959  13.658  17.463  11.032
73742ION    NA+41960  10.329  16.242  11.899
73743ION    NA+41961  18.721   3.976  12.175
73744ION    NA+41962  26.628  34.917   3.066
73745ION    NA+41963  29.566  14.244   2.922
73746ION    NA+41964  42.426  43.328  10.733
73747ION    NA+41965  35.036   8.795   1.542
73748ION    NA+41966  34.130  17.333   1.042
73749ION    NA+41967  32.118   0.737  10.819
73750ION    NA+41968  40.615  15.888   3.635
73751ION    NA+41969  25.737  10.305   5.422
73752ION    NA+41970  44.093  37.449   3.160
73753ION    NA+41971  40.393   1.559   0.414
73754ION    NA+41972  12.434   5.054   1.002
73755ION    NA+41973  32.252   5.967  11.175
73756ION    NA+41974   9.318   5.438  11.097
73757ION    NA+41975  18.111   9.770   0.413
73758ION    NA+41976   6.338  18.678  11.508
73759ION    NA+41977   7.768  33.362   3.522
73760ION    NA+41978   6.472  20.833  11.993
73761ION    NA+41979  28.131  22.201  10.321
73762ION    NA+41980  38.394  29.734  11.244
73763ION    NA+41981   5.939  21.985  12.617
73764ION    NA+41982  22.479   4.406   1.789
73765ION    NA+41983  27.165  13.033   2.071
73766ION    NA+41984  28.333  13.407  11.677
73767ION    NA+41985  21.958  32.267  12.772
73768ION    NA+41986  30.557  32.550   2.121
73769ION    NA+41987  20.787  30.073  13.564
73770ION    NA+41988  43.066  24.859  12.716
73771ION    NA+41989  44.865  17.999  12.733
73772ION    NA+41990  35.451  38.951  11.458
73773ION    NA+41991  43.880  19.901  11.469
73774ION    NA+41992  39.797   3.886   3.148
73775ION    NA+41993   7.676  26.075   3.346
73776ION    NA+41994   9.609   4.919   2.171
73777ION    NA+41995   9.863  15.391  12.143
73778ION    NA+41996  26.542  10.367  13.707
73779ION    NA+41997  31.192  28.443   0.876
73780ION    NA+41998  16.824  43.264   1.266
73781ION    NA+41999  12.549  37.252  11.596
73782ION    NA+42000  38.376   2.781   2.867
73783ION    NA+42001  32.574  42.019   0.496
73784ION    NA+42002   5.707  23.502   4.266
73785ION    NA+42003  21.237   2.858  10.574
73786ION    NA+42004  41.838  10.253   2.978
73787ION    NA+42005  42.958  33.532   4.035
73788ION    NA+42006  20.235   7.152  11.989
73789ION    NA+42007  13.261  34.175  13.739
73790ION    NA+42008   5.384  12.887   4.103
73791ION    NA+42009  21.358  16.044  11.176
73792ION    NA+42010  10.167  32.010  12.827
73793ION    NA+42011  15.217  35.834  11.383
73794ION    NA+42012  34.699   4.646   3.451
73795ION    NA+42013  25.107   7.454  14.510
73796ION    NA+42014  18.534  23.299   1.440
73797ION    NA+42015  10.023  11.302   1.625
73798ION    NA+42016  43.157  27.332   4.622
73799ION    NA+42017   5.336  43.381   1.960
73800ION    NA+42018   0.921  39.385  13.505
73801ION    NA+42019  31.215  43.331  12.999
73802ION    NA+42020  20.076   9.170   2.417
73803ION    NA+42021  13.309  27.879  14.934
73804ION    NA+42022  30.524  10.490   0.017
73805ION    NA+42023  27.352  38.836   2.669
73806ION    NA+42024  41.127  36.133  12.821
73807ION    NA+42025  11.608  28.650  11.138
73808ION    NA+42026  13.100  18.126  11.530
73809ION    NA+42027  15.334  30.539   2.324
73810ION    NA+42028  12.651   8.649  14.750
73811ION    CL-42029  25.027   4.273   3.627
73812ION    CL-42030  36.962  26.781   0.295
73813ION    CL-42031  32.444  35.944   0.425
73814ION    CL-42032  16.034   3.815   1.786
73815ION    CL-42033   6.192  24.145  14.791
73816ION    CL-42034  33.128  19.979   0.543
73817ION    CL-42035  24.294  30.174   1.599
73818ION    CL-42036   3.742  32.143   4.923
73819ION    CL-42037  25.205  34.727  10.741
73820ION    CL-42038  28.851  21.806   2.530
73821ION    CL-42039  27.675  31.844   1.361
73822ION    CL-42040  32.526   1.855   4.383
73823ION    CL-42041   6.618  31.866   4.914
73824ION    CL-42042   3.686  16.155  11.946
73825ION    CL-42043  44.492  11.842   2.750
73826ION    CL-42044  40.347  44.450   3.976
73827ION    CL-42045   1.346  11.204   0.535
73828ION    CL-42046  29.326  30.622  12.963
73829ION    CL-42047   3.614  12.887  14.395
73830ION    CL-42048  11.361  38.926   0.317
73831ION    CL-42049   2.423  40.728  14.293
73832ION    CL-42050  11.606  20.568   2.791
73833ION    CL-42051  14.721  11.741   2.625
73834ION    CL-42052  15.132  25.723  11.843
73835ION    CL-42053  13.135  27.171  11.079
73836ION    CL-42054  27.508   0.222  14.664
73837ION    CL-42055  28.443  11.197  14.603
73838ION    CL-42056  27.390  31.499  11.500
73839ION    CL-42057  20.930  16.164  11.269
73840ION    CL-42058  13.856  31.863  13.331
73841ION    CL-42059  33.021  38.788   2.351
73842ION    CL-42060   5.965   0.985   1.312
73843ION    CL-42061  33.227  24.872   4.158
73844ION    CL-42062  17.120  42.029  13.010
73845ION    CL-42063  38.819  38.735   3.140
73846ION    CL-42064  35.610  13.548  12.780
73847ION    CL-42065  27.109  30.692   0.453
73848ION    CL-42066  22.918  23.689  12.052
73849ION    CL-42067  26.606  12.055   5.090
73850ION    CL-42068  34.726  11.727  11.938
73851ION    CL-42069  21.257  42.353  13.662
73852ION    CL-42070   4.360   6.753  11.699
73853ION    CL-42071  34.747   4.775   3.888
73854ION    CL-42072  30.378  10.901   0.128
73855ION    CL-42073  28.700   1.735   5.056
73856ION    CL-42074  26.533  35.358   3.128
73857ION    CL-42075   2.911  31.752  11.209
73858ION    CL-42076  33.359  31.498   3.660
73859ION    CL-42077  29.844  33.566  12.327
73860ION    CL-42078  19.495  21.525   2.784
73861ION    CL-42079  17.894  22.681  13.195
73862ION    CL-42080  43.463  33.104   3.230
73863ION    CL-42081   9.531  15.085  12.087
73864ION    CL-42082  26.417  39.801  10.703
73865ION    CL-42083  13.263  41.690  12.215
73866ION    CL-42084  27.184  15.920  12.057
73867ION    CL-42085  19.719   2.205  14.026
73868ION    CL-42086  27.659   7.627   4.954
73869ION    CL-42087  23.370  33.038  11.776
73870ION    CL-42088  20.792   0.971  12.065
73871ION    CL-42089  34.405  24.975   2.950
73872ION    CL-42090  12.071  32.871   4.917
73873ION    CL-42091  25.570  18.108   1.886
73874ION    CL-42092  26.347  16.362   2.898
73875ION    CL-42093  28.949  17.591  10.728
73876ION    CL-42094  19.346  21.904  13.811
73877ION    CL-42095  22.567  31.979   4.089
73878ION    CL-42096   1.092  38.333  14.753
73879ION    CL-42097  29.727  20.072  10.751
73880ION    CL-42098  30.731  30.913  11.088
73881ION    CL-42099  37.114  35.508  14.751
73882ION    CL-42100  20.128   9.299  11.301
73883ION    CL-42101  32.964  11.051   4.553
73884ION    CL-42102  23.230  30.245  10.429
73885ION    CL-42103  17.829  10.408   5.144
73886ION    CL-42104   0.185  44.090  13.129
73887ION    CL-42105  30.575  31.628   5.088
73888ION    CL-42106  28.534   8.806  13.105
73889ION    CL-42107  41.900  44.400  13.401
73890ION    CL-42108  39.762   0.846   2.093
73891ION    CL-42109  22.326  36.152   3.310
73892ION    CL-42110  34.999  41.253  11.451
73893ION    CL-42111  15.300  27.183  11.234
73894ION    CL-42112  38.961  26.681   0.724
73895ION    CL-42113  24.301   3.377  13.437
73896ION    CL-42114  20.352  28.122   2.659
73897ION    CL-42115  33.144   7.544   0.920
73898ION    CL-42116   0.960   1.902  12.369
73899ION    CL-42117  28.336  27.778   1.356
73900ION    CL-42118  22.353  31.591   4.986
73901ION    CL-42119  22.611  17.562  14.512
73902ION    CL-42120  31.377  43.000  12.729
73903ION    CL-42121  10.772  26.907   0.501
73904ION    CL-42122   8.673   3.021   0.672
73905ION    CL-42123   6.803  24.347  13.976
73906ION    CL-42124  30.181  42.379   4.047
73907ION    CL-42125  27.925  26.021   2.070
73908ION    CL-42126  42.825  43.857   1.570
73909ION    CL-42127  26.459  35.331  14.106
73910ION    CL-42128  28.392  43.790  14.081
73911ION    CL-42129   1.775  32.560   2.857
73912ION    CL-42130   3.639  26.500   0.286
73913ION    CL-42131   4.551  26.872   0.457
73914ION    CL-42132  44.476  25.196   0.407
73915ION    CL-42133   1.642  39.363   0.118
73916ION    CL-42134   3.635   2.462   0.388
73917ION    CL-42135   9.837  28.144   4.090
73918ION    CL-42136  22.004  27.178  12.028
73919ION    CL-42137   1.884   7.390   2.715
73920ION    CL-42138   3.179  36.232   4.954
73921ION    CL-42139  33.982  11.586  10.450
73922ION    CL-42140   4.235  21.607   0.628
73923ION    CL-42141  17.057  13.792  13.887
73924ION    CL-42142  37.957  29.906   1.110
73925ION    CL-42143  18.326  38.739   0.111
73926ION    CL-42144  13.956  39.712   2.962
73927ION    CL-42145  12.168  29.781  10.319
73928ION    CL-42146   4.208  37.075  13.803
73929ION    CL-42147  24.638  37.138   3.404
73930ION    CL-42148  27.927  44.307   0.784
73931ION    CL-42149  40.480  15.261  14.617
73932ION    CL-42150   9.397  32.027   1.341
73933ION    CL-42151  40.691  42.874  11.423
73934ION    CL-42152  38.807   9.710  11.633
73935ION    CL-42153  10.873   1.285  14.954
73936ION    CL-42154   1.888  42.532  11.097
73937ION    CL-42155   8.786  33.440   3.132
73938ION    CL-42156  29.497   9.092   3.341
73939ION    CL-42157  27.678  21.176  14.226
73940ION    CL-42158  24.617  18.794  13.802
73941ION    CL-42159  33.973  12.835  13.571
73942ION    CL-42160  28.302  32.835  12.653
73943ION    CL-42161  21.315  24.565  11.109
73944ION    CL-42162  37.269   8.196   2.893
73945ION    CL-42163  10.196  25.207  13.937
73946ION    CL-42164  15.990  42.104   4.948
73947ION    CL-42165   1.789  35.113  14.138
73948ION    CL-42166  35.372  16.622   4.893
73949ION    CL-42167  33.518  25.125  10.765
73950ION    CL-42168  11.336  27.142  10.316
73951ION    CL-42169  35.067  27.650   3.069
73952ION    CL-42170   0.349  31.287   0.208
73953ION    CL-42171   1.545   6.501  10.374
73954ION    CL-42172  18.698  38.333  13.377
73955ION    CL-42173  10.281   2.936   4.981
73956ION    CL-42174  35.221  15.340   2.172
73957ION    CL-42175  44.073  20.877   5.307
73958ION    CL-42176  17.927  25.127   3.471
73959ION    CL-42177  22.397  37.527  14.911
73960ION    CL-42178  23.465  11.817   0.390
73961ION    CL-42179  40.167  22.865  13.100
73962ION    CL-42180  33.653  43.810   0.806
73963ION    CL-42181   2.980  38.766   3.204
73964ION    CL-42182  33.419  36.913   0.252
73965ION    CL-42183  37.675   2.401   3.687
73966ION    CL-42184   6.514  11.583   1.407
73967ION    CL-42185   4.478  16.107  11.501
73968ION    CL-42186  18.591  22.619  14.073
73969ION    CL-42187  39.579  21.109   2.894
73970ION    CL-42188  43.326   8.793   9.718
73971ION    CL-42189  23.708  12.314   4.770
73972ION    CL-42190  33.777  19.629   2.480
73973ION    CL-42191   2.618  18.417   2.897
73974ION    CL-42192  26.389   0.957  11.245
73975ION    CL-42193  22.276  22.173  14.601
73976ION    CL-42194  28.875  43.434   2.226
73977ION    CL-42195  11.824  24.461  14.326
73978ION    CL-42196  32.854  27.906  14.204
73979ION    CL-42197   6.385   2.224   1.734
73980ION    CL-42198  23.504   7.930   2.387
73981ION    CL-42199  36.136   0.390   2.645
73982ION    CL-42200  28.867  12.385  11.527
73983ION    CL-42201  16.956  12.935   4.991
73984ION    CL-42202  10.441  32.027  12.475
73985ION    CL-42203  38.972  27.698  12.079
73986ION    CL-42204  39.127  35.971   1.404
73987ION    CL-42205  18.234  23.547   3.265
73988ION    CL-42206  30.622   5.427  11.045
73989ION    CL-42207  33.582  14.605   3.883
73990ION    CL-42208  17.875  19.895   3.304
73991ION    CL-42209  36.126  34.482  12.064
73992ION    CL-42210  39.316  29.746   0.354
73993ION    CL-42211  13.862   3.206   0.003
73994ION    CL-42212  10.600  34.778   3.285
73995ION    CL-42213   6.374  11.194  11.652
73996ION    CL-42214  13.283  20.553  11.071
73997ION    CL-42215  36.083   5.859   4.231
73998ION    CL-42216  32.995   6.308  13.490
73999ION    CL-42217  19.289  11.305   3.870
74000ION    CL-42218   8.553  25.248  12.632
74001ION    CL-42219  31.693   5.863   2.793
74002ION    CL-42220   7.179  44.647   4.538
74003ION    CL-42221  11.120  44.807   2.251
74004ION    CL-42222  44.485  42.297   2.116
74005ION    CL-42223  27.501   7.494   1.329
74006ION    CL-42224  30.879  36.368   4.112
74007ION    CL-42225  19.724  43.930  12.807
74008ION    CL-42226  11.672  14.216   1.881
74009ION    CL-42227  13.092  11.809   4.770
74010ION    CL-42228  38.409   1.245   4.973
74011ION    CL-42229  34.085   6.345   1.325
74012ION    CL-42230  20.116  43.957  14.465
74013ION    CL-42231  21.790  32.487  10.037
74014ION    CL-42232  29.533  14.633   3.140
74015ION    CL-42233  33.501  11.160  13.528
74016ION    CL-42234  19.413  23.588   0.651
74017ION    CL-42235   5.903  32.626  13.903
74018ION    CL-42236  28.560  33.863  14.026
74019ION    CL-42237  24.371  40.376  14.357
74020ION    CL-42238  15.295  12.410   2.153
74021ION    CL-42239  10.225  40.092  13.995
74022ION    CL-42240  33.210  22.064   2.677
74023ION    CL-42241  35.074  43.950   3.898
74024ION    CL-42242   8.539   8.678  12.493
74025ION    CL-42243  44.643  44.391   4.422
74026ION    CL-42244  30.923   5.209   4.102
74027ION    CL-42245  10.208   2.065   1.930
74028ION    CL-42246  11.869   2.266   2.344
74029ION    CL-42247  37.600  14.560  10.432
74030ION    CL-42248   6.748  24.556   1.334
74031ION    CL-42249  26.472  34.360   1.751
74032ION    CL-42250  16.741  20.143   5.000
74033ION    CL-42251  14.091  36.690  13.672
74034ION    CL-42252   3.028  39.984  12.205
74035ION    CL-42253  44.289  25.458   1.839
74036ION    CL-42254   6.338  10.537   1.638
74037ION    CL-42255  14.900   2.518   4.842
74038ION    CL-42256  42.368  19.634  12.394
74039ION    CL-42257   3.790  21.892   3.231
74040ION    CL-42258  42.601  35.899   4.629
74041ION    CL-42259  26.916  21.820  14.166
74042ION    CL-42260  11.584   8.948  11.143
74043ION    CL-42261  34.958   1.527   1.398
74044ION    CL-42262   8.810  42.537   1.607
74045ION    CL-42263  38.617  37.662   1.125
74046ION    CL-42264  36.844  36.638  12.000
74047ION    CL-42265  29.613  30.062  13.921
74048ION    CL-42266  23.891  38.430  12.618
74049ION    CL-42267  24.379  35.897   0.545
74050ION    CL-42268  35.434  43.019   3.842
74051ION    CL-42269  20.848  22.027   4.872
74052ION    CL-42270  13.675   1.388   3.294
74053ION    CL-42271  34.482   2.337  10.673
74054ION    CL-42272  11.555  34.595   2.336
74055ION    CL-42273  43.915  10.227  11.426
74056ION    CL-42274  23.273   7.051   4.135
74057ION    CL-42275  22.963  37.547   4.724
74058ION    CL-42276  43.587  41.765  14.022
74059ION    CL-42277  20.886  25.880   4.988
74060ION    CL-42278   1.423  31.425   1.772
74061ION    CL-42279  18.608  27.908  14.478
74062ION    CL-42280   1.037  38.101  13.096
74063ION    CL-42281   2.289   7.131   3.844
74064ION    CL-42282  21.203  36.159  10.632
74065ION    CL-42283  29.227  37.505  10.683
74066ION    CL-42284  13.563   9.076   3.433
74067ION    CL-42285  31.503  28.015  12.940
74068ION    CL-42286  38.378  10.698   4.189
74069ION    CL-42287   2.407  42.741   2.748
74070ION    CL-42288   9.317   1.596   4.930
74071ION    CL-42289  16.257  12.304  13.372
74072ION    CL-42290   5.830  18.676  14.758
74073ION    CL-42291   2.151  35.435  12.574
74074ION    CL-42292  22.375  20.097   3.392
74075ION    CL-42293   3.482  32.400  11.178
74076ION    CL-42294  30.061  32.564  13.496
74077ION    CL-42295  37.218  30.814   3.928
74078ION    CL-42296  13.845  27.402  10.607
74079ION    CL-42297  37.552  32.106   0.533
74080ION    CL-42298  28.312  34.556  11.532
74081ION    CL-42299   6.859  13.522   0.618
74082ION    CL-42300  44.525  28.696   4.091
74083ION    CL-42301   8.976  27.539  12.151
74084ION    CL-42302  16.755   6.628  11.714
74085ION    CL-42303  24.151  22.385   5.042
74086ION    CL-42304  37.077  16.224  14.765
74087ION    CL-42305  18.449  33.154   4.446
74088ION    CL-42306  37.480  40.084  13.733
74089ION    CL-42307  33.402  20.257  13.502
74090ION    CL-42308  12.108   2.386  14.129
74091ION    CL-42309   5.606  14.105  13.604
74092ION    CL-42310  42.316  38.218   5.161
74093ION    CL-42311  27.465  17.769  13.051
74094ION    CL-42312   1.586  12.460   1.774
74095ION    CL-42313  42.329   9.222   3.811
74096ION    CL-42314  17.438  11.540   3.616
74097ION    CL-42315  26.085  19.363   1.677
74098ION    CL-42316  20.830  25.064   3.772
74099ION    CL-42317  43.107   2.063  12.391
74100ION    CL-42318   8.704  23.703  10.763
74101ION    CL-42319  10.707  39.560   0.434
74102ION    CL-42320   6.474  21.630  10.582
74103ION    CL-42321  41.652  14.116  13.425
74104ION    CL-42322  24.539  40.929   4.762
74105ION    CL-42323  23.471  27.010   4.140
74106ION    CL-42324  24.072  26.554  10.581
74107ION    CL-42325  29.672  21.429   2.619
74108ION    CL-42326  27.784  32.731   1.914
74109ION    CL-42327  32.643  41.944  13.275
74110ION    CL-42328  43.490  28.778   0.038
74111ION    CL-42329   0.431   3.014   0.811
74112ION    CL-42330   1.413  15.107  14.917
74113ION    CL-42331   7.198  41.894  12.190
74114ION    CL-42332  29.932  12.429   3.346
74115ION    CL-42333   3.398   7.360   0.725
74116ION    CL-42334  10.275  26.183   5.072
74117ION    CL-42335  20.614  32.531   2.563
74118ION    CL-42336  37.263  32.372  14.181
74119ION    CL-42337  29.880  17.166  14.700
74120ION    CL-42338  16.611  13.806   4.119
74121ION    CL-42339  40.216  29.376  11.447
74122ION    CL-42340   8.091  34.364  11.070
74123ION    CL-42341  34.973  26.896   0.972
74124ION    CL-42342  25.935  32.013   4.750
74125ION    CL-42343   1.988  40.892   4.999
74126ION    CL-42344   9.954   7.709  12.976
74127ION    CL-42345  42.808  24.385   4.984
74128ION    CL-42346  40.412  44.769  10.476
74129ION    CL-42347   1.544  36.973   4.990
74130ION    CL-42348  16.029  16.319  13.515
74131ION    CL-42349  32.999  11.364   1.898
74132ION    CL-42350  20.956  43.711   2.794
74133ION    CL-42351  24.048  26.686   3.289
74134ION    CL-42352   6.278  43.631   4.989
74135ION    CL-42353   2.054  28.908  11.080
74136ION    CL-42354  40.025   9.285   0.768
74137ION    CL-42355  31.980  37.609   5.066
74138ION    CL-42356   4.450  32.505   0.085
74139ION    CL-42357  33.976  16.517  11.127
74140ION    CL-42358   6.737   9.029   2.439
74141ION    CL-42359  13.148  19.909   0.854
74142ION    CL-42360  22.197  32.016  13.068
74143ION    CL-42361  20.271  22.946   0.503
74144ION    CL-42362  21.692  18.197   3.230
74145ION    CL-42363   5.364  38.290   0.688
74146ION    CL-42364  31.643  44.198  11.733
74147ION    CL-42365  14.132  34.710   3.856
74148ION    CL-42366  32.559  30.305  14.395
74149ION    CL-42367   1.492   5.371  13.317
74150ION    CL-42368   8.876   2.491   4.996
74151ION    CL-42369  26.734  15.957   3.501
74152ION    CL-42370  39.031  19.599  11.838
74153ION    CL-42371   0.453   7.686  14.608
74154ION    CL-42372   5.164  19.995  12.507
74155ION    CL-42373  41.178  17.569  14.650
74156ION    CL-42374   5.293  32.232   2.183
74157ION    CL-42375  16.149   8.628   2.001
74158ION    CL-42376  13.582   6.328   2.234
74159ION    CL-42377  24.703  26.693   9.849
74160ION    CL-42378  21.687  10.065  11.072
74161ION    CL-42379  17.353  36.045  11.656
74162ION    CL-42380  24.424  33.894  11.072
74163ION    CL-42381  33.854   2.745   2.383
74164ION    CL-42382  32.184  12.594  13.937
74165ION    CL-42383  13.846  21.679   0.831
74166ION    CL-42384  43.100  39.503  10.628
74167ION    CL-42385   2.461   5.365   5.027
74168ION    CL-42386  19.040  40.040  14.354
74169ION    CL-42387  12.261  23.648  11.878
74170ION    CL-42388   1.819  39.968   3.186
74171ION    CL-42389  31.302  15.913  12.631
74172ION    CL-42390  14.337  32.872  14.957
74173ION    CL-42391  41.957  21.135  13.625
74174ION    CL-42392  18.198  27.324   0.313
74175ION    CL-42393  30.692  34.738   4.939
74176ION    CL-42394  36.888   8.121  11.560
74177ION    CL-42395   9.829  22.245  13.418
74178ION    CL-42396  14.896  22.281  14.956
74179ION    CL-42397  14.089   9.914   5.129
74180ION    CL-42398   8.404  23.191   3.882
74181ION    CL-42399  11.374  44.564  13.238
74182ION    CL-42400  15.889  21.651   0.892
74183ION    CL-42401  15.391   4.663   0.861
74184ION    CL-42402   0.982  30.308   0.517
74185ION    CL-42403  27.613  10.509   3.124
74186ION    CL-42404  28.105  37.041   4.534
74187ION    CL-42405   8.099  17.156   3.600
74188ION    CL-42406   5.738  10.606  14.918
74189ION    CL-42407  16.812  44.386  12.387
74190ION    CL-42408   3.744  40.980   1.320
74191ION    CL-42409  25.831  20.811   1.017
74192ION    CL-42410  18.002  13.571   4.136
74193ION    CL-42411  38.143  26.132  12.065
74194ION    CL-42412   2.956   2.711  12.492
74195ION    CL-42413  26.595  13.463  13.233
74196ION    CL-42414  25.804  42.115  14.877
74197ION    CL-42415  36.107  29.399   2.633
74198ION    CL-42416   2.325  12.709   0.274
74199ION    CL-42417  14.128  30.422   4.789
74200ION    CL-42418  38.720  16.105   1.897
74201ION    CL-42419  42.844  20.060   3.864
74202ION    CL-42420  38.125  40.111   1.737
74203ION    CL-42421  37.139  39.260  13.596
74204ION    CL-42422   8.695  30.238   0.770
74205ION    CL-42423  42.999  13.022  14.067
74206ION    CL-42424  13.827  19.174  12.521
74207ION    CL-42425  10.347   3.873  11.171
74208ION    CL-42426  20.717  19.700  11.769
74209ION    CL-42427   7.549  15.168   4.560
74210ION    CL-42428  18.433  41.084   0.141
74211ION    CL-42429  26.082  16.137  13.422
74212ION    CL-42430  39.134   1.441  11.325
74213ION    CL-42431  38.166   8.049   2.936
74214ION    CL-42432   0.879  15.292   2.872
74215ION    CL-42433   0.356  19.240   3.548
74216ION    CL-42434  15.869  31.947  12.024
74217ION    CL-42435   9.612  31.153   4.278
74218ION    CL-42436  33.327  31.654  14.060
74219ION    CL-42437  38.877  10.692  14.599
74220ION    CL-42438  24.097  41.548  11.708
74221ION    CL-42439  37.684   0.575   2.133
74222ION    CL-42440   5.675  13.067   3.820
74223ION    CL-42441  22.548  29.923   2.834
74224ION    CL-42442   7.224  43.917   3.857
74225ION    CL-42443  27.702  10.958  11.138
74226ION    CL-42444   4.779  34.042  14.308
74227ION    CL-42445  44.965  28.170  11.822
74228ION    CL-42446  35.158  32.582  13.632
74229ION    CL-42447  25.735  15.651   4.826
74230ION    CL-42448  37.682  26.774   9.946
74231ION    CL-42449  29.125  34.620   4.997
74232ION    CL-42450   9.691  27.317  13.550
74233ION    CL-42451  39.859  43.427  14.374
74234ION    CL-42452  27.022  13.339   4.077
74235ION    CL-42453  39.528  18.762   4.239
74236ION    CL-42454  43.973  40.956  11.377
74237ION    CL-42455  30.979   8.143  13.991
74238ION    CL-42456  23.542  32.254  11.382
74239ION    CL-42457  34.334  12.898  12.640
74240ION    CL-42458  40.614  20.206  11.090
74241ION    CL-42459  18.079  44.505   1.412
74242ION    CL-42460  32.647  37.717   4.895
74243ION    CL-42461  31.717  30.051  12.907
74244ION    CL-42462  37.573   1.494  12.952
74245ION    CL-42463   7.733  13.785   4.105
74246ION    CL-42464  10.985  17.722   1.662
74247ION    CL-42465  44.743  30.168  11.107
74248ION    CL-42466  41.234   7.782   2.852
74249ION    CL-42467  44.738  41.084   3.888
74250ION    CL-42468   1.832  38.801  11.603
74251ION    CL-42469  26.485  26.584   3.727
74252ION    CL-42470   0.841  20.666   3.620
74253ION    CL-42471  40.642  23.699   2.203
74254ION    CL-42472  34.926  34.847  11.646
74255ION    CL-42473  44.891  10.836   4.212
74256ION    CL-42474   9.375  12.199   1.329
74257ION    CL-42475   9.166  16.148  13.053
74258ION    CL-42476   5.224  27.843  12.374
74259ION    CL-42477  20.866   9.374  10.630
74260ION    CL-42478  30.166  27.044  11.628
74261ION    CL-42479   1.029  28.981   0.513
74262ION    CL-42480  17.351  41.834   2.897
74263ION    CL-42481  30.647  10.625   3.163
74264ION    CL-42482   1.944  23.114   3.340
74265ION    CL-42483  34.307  23.574  13.846
74266ION    CL-42484  43.682   7.829   5.364
74267ION    CL-42485  19.794  26.249  14.024
74268ION    CL-42486  39.188  24.313   0.385
74269ION    CL-42487   4.667  41.105  11.983
74270ION    CL-42488  24.895  30.877  11.685
74271ION    CL-42489  34.082  36.591   2.843
74272ION    CL-42490  42.650  30.467   0.405
74273ION    CL-42491   5.640  42.461  14.410
74274ION    CL-42492  19.459  28.014  11.053
74275ION    CL-42493  22.787  18.526  12.037
74276ION    CL-42494  33.612  12.964   3.647
74277ION    CL-42495   3.415  41.917  13.210
74278ION    CL-42496  19.750   6.237   0.691
74279ION    CL-42497  36.155  39.261   4.199
74280ION    CL-42498  22.025  21.694  11.322
74281ION    CL-42499  34.864  14.797   0.126
74282ION    CL-42500  42.129  31.720   2.516
74283ION    CL-42501  11.152   7.730  10.406
74284ION    CL-42502  11.697  20.091  10.678
74285ION    CL-42503  27.280  17.558  10.676
74286ION    CL-42504  27.259   9.974  11.963
74287ION    CL-42505  38.080  40.526   0.046
74288ION    CL-42506  40.812  30.654  10.644
74289ION    CL-42507   7.383  36.303  14.618
74290ION    CL-42508  16.904  35.355  13.626
74291ION    CL-42509  31.660  25.627   2.982
74292ION    CL-42510  41.364  24.347   4.664
74293ION    CL-42511  33.723   4.933   0.856
74294ION    CL-42512  14.381   1.878   2.773
74295ION    CL-42513  12.750  39.585   3.372
74296ION    CL-42514  37.041  18.817  14.872
74297ION    CL-42515  13.187  30.572  13.917
74298ION    CL-42516   1.181  40.703   2.664
74299ION    CL-42517  14.725  21.597  13.147
74300ION    CL-42518  22.423  19.515  14.363
74301ION    CL-42519  43.422   7.685   2.786
74302ION    CL-42520  20.762   0.286  14.499
74303ION    CL-42521  44.334  39.538  11.469
74304ION    CL-42522  12.133  27.417   4.574
74305ION    CL-42523   3.006  32.486  13.385
74306ION    CL-42524  14.342  17.202  14.019
74307ION    CL-42525   0.924   7.226  11.764
74308ION    CL-42526  25.727  42.346  11.221
74309ION    CL-42527  14.438  17.675   1.199
74310ION    CL-42528  43.719   8.734  13.507
74311ION    CL-42529   6.873  37.543   3.777
74312ION    CL-42530  31.514   2.868  10.782
74313ION    CL-42531   5.109  18.664   4.758
74314ION    CL-42532  13.536   2.410   2.733
74315ION    CL-42533  38.837  19.909   2.595
74316ION    CL-42534  38.482  23.616   4.552
74317ION    CL-42535  34.931   1.289   5.157
74318ION    CL-42536  21.956   1.939  11.079
74319ION    CL-42537   2.161  23.768  14.329
74320ION    CL-42538  41.277  13.456  12.737
74321ION    CL-42539  31.038   1.455   3.214
74322ION    CL-42540  38.567  43.735   3.249
74323ION    CL-42541  44.198  27.192   1.332
74324ION    CL-42542   7.952  15.720   1.827
74325ION    CL-42543  33.611   6.180   2.190
74326ION    CL-42544   0.776  29.694   2.245
74327ION    CL-42545  37.955   4.533  10.723
74328ION    CL-42546  11.795  36.795  13.582
74329ION    CL-42547  44.253  29.133   0.638
74330ION    CL-42548  34.347   9.690   1.434
74331ION    CL-42549   4.365  22.220   1.466
74332ION    CL-42550  30.492   6.474   4.312
74333ION    CL-42551   0.223   3.552  13.971
74334ION    CL-42552  13.003  17.084  13.158
74335ION    CL-42553   2.397  39.780  14.611
74336ION    CL-42554  34.532   7.963  13.096
74337ION    CL-42555  19.983  40.815   0.759
74338ION    CL-42556   6.846  23.923  12.155
74339ION    CL-42557   6.203  44.987  12.962
74340ION    CL-42558   2.774   0.961  11.819
74341ION    CL-42559  13.276  44.704  14.869
74342ION    CL-42560   3.674   2.886  14.595
74343ION    CL-42561  26.880  33.173  14.699
74344ION    CL-42562  37.549  40.260  11.680
74345ION    CL-42563  42.313  30.213   3.386
74346ION    CL-42564  18.173  32.325   3.825
74347ION    CL-42565   2.288  44.256  11.089
74348ION    CL-42566  25.844  18.558  11.235
74349ION    CL-42567  44.749  38.808   4.620
74350ION    CL-42568  29.588   1.395  10.708
74351ION    CL-42569  31.228  38.438  12.400
74352ION    CL-42570  37.287  43.794  13.358
74353ION    CL-42571   9.066  41.541  11.814
74354ION    CL-42572  32.105  12.877  14.894
74355ION    CL-42573  41.699   5.862  14.316
74356ION    CL-42574  37.514   6.304   2.917
74357ION    CL-42575  36.022  11.601   5.062
74358ION    CL-42576   7.448   7.923   3.250
74359ION    CL-42577  42.154  30.370  14.622
74360ION    CL-42578  14.367  33.984   2.916
74361ION    CL-42579  32.573  13.239  12.331
74362ION    CL-42580  24.718  32.513  10.421
74363ION    CL-42581  24.240  12.073  14.480
74364ION    CL-42582  12.589  44.852   3.203
74365ION    CL-42583  30.460  36.305  14.964
74366ION    CL-42584  43.991  38.461   1.646
74367ION    CL-42585  35.282  14.460  14.415
74368ION    CL-42586  40.183  12.489  13.461
74369ION    CL-42587  35.791  32.127  11.951
74370ION    CL-42588  38.386  33.059   2.077
74371ION    CL-42589  24.286  23.479   3.673
74372ION    CL-42590   0.785  34.009   1.279
74373ION    CL-42591  35.588   7.089  13.916
74374ION    CL-42592   9.485   2.271   1.423
74375ION    CL-42593   3.060  21.992   2.807
74376ION    CL-42594  30.642  24.631   3.867
74377ION    CL-42595  17.436  15.198   1.920
74378ION    CL-42596  33.425   3.476   0.890
74379ION    CL-42597  32.801  28.858   4.354
74380ION    CL-42598  18.565  26.385   3.234
74381ION    CL-42599  37.143   3.499  11.329
74382ION    CL-42600  29.217  30.633   5.075
74383ION    CL-42601  27.443   2.179   0.934
74384ION    CL-42602   5.053  35.338   1.173
74385ION    CL-42603  43.117  30.171   1.135
74386ION    CL-42604  12.486  28.821  10.236
74387ION    CL-42605  20.451  12.334  12.823
74388ION    CL-42606  31.375  17.494   2.344
74389ION    CL-42607  41.806  39.317   2.209
74390ION    CL-42608  12.089  21.937  11.030
74391ION    CL-42609  26.120   5.188   3.509
74392ION    CL-42610  26.983  40.400  13.394
74393ION    CL-42611  21.807  17.992   1.830
74394ION    CL-42612  14.451  24.011  13.023
74395ION    CL-42613  18.921  32.771   0.775
74396ION    CL-42614  23.042  32.923  12.602
74397ION    CL-42615  37.469  30.532  10.859
74398ION    CL-42616  42.108   5.850   1.285
74399ION    CL-42617   2.974  13.061  12.624
74400ION    CL-42618  42.860   9.489   0.055
74401ION    CL-42619  44.021  17.635  13.262
74402ION    CL-42620   0.848   4.705  14.000
74403ION    CL-42621  17.360  17.763   4.178
74404ION    CL-42622   8.876  20.999  13.996
74405ION    CL-42623  20.487  26.542   0.410
74406ION    CL-42624  11.163  30.967  12.968
74407ION    CL-42625  28.137   9.408  10.124
74408ION    CL-42626  24.609  40.735  11.388
74409ION    CL-42627   8.268  12.183   3.174
74410ION    CL-42628  27.912  10.272  14.273
74411ION    CL-42629  11.857   4.599  14.261
74412ION    CL-42630  38.770  35.420   1.831
74413ION    CL-42631  10.155  31.954   4.530
74414ION    CL-42632  43.042  12.303   4.563
74415ION    CL-42633  15.708   0.841   3.835
74416ION    CL-42634  35.979  27.184  13.006
74417ION    CL-42635  38.175  35.939   4.662
74418ION    CL-42636  31.636  31.949  11.217
74419ION    CL-42637  33.067   8.307   0.236
74420ION    CL-42638  42.665   5.938  14.068
74421ION    CL-42639  18.400   2.122   1.030
74422ION    CL-42640  39.472  22.530   1.528
74423ION    CL-42641  12.131  41.528   4.295
74424ION    CL-42642   7.887  23.200  12.584
74425ION    CL-42643  34.185   3.305  12.137
74426ION    CL-42644  35.830  38.801  11.278
74427ION    CL-42645  24.653  14.871  13.306
74428ION    CL-42646  23.806  39.331  11.049
74429ION    CL-42647  31.382   8.864  13.253
74430ION    CL-42648  34.145   9.150  12.966
74431ION    CL-42649  22.440  36.490   0.396
74432ION    CL-42650  40.927   5.191   4.311
74433ION    CL-42651  25.802  35.184  11.246
74434ION    CL-42652   0.804  30.583  11.736
74435ION    CL-42653  34.554   9.285  14.435
74436ION    CL-42654  21.910  26.196  11.025
74437ION    CL-42655  35.265  31.341   1.301
74438ION    CL-42656  26.455  36.537   4.075
74439ION    CL-42657  26.222  41.347  12.866
74440ION    CL-42658  34.179  10.479  13.195
74441ION    CL-42659  36.323   0.450   5.045
74442ION    CL-42660  44.911   5.098   0.772
74443ION    CL-42661  30.878  29.090  13.312
74444ION    CL-42662  34.294  14.926  11.090
74445ION    CL-42663  14.081  35.582  14.544
74446ION    CL-42664  30.920  21.711   0.519
74447ION    CL-42665  13.858   6.886  10.333
74448ION    CL-42666  25.028  10.821   4.097
74449ION    CL-42667   6.954   2.426   0.877
74450ION    CL-42668   6.454  44.941  10.691
74451ION    CL-42669   3.167  28.693   0.886
74452ION    CL-42670  14.374  22.298  13.606
74453ION    CL-42671  24.159  29.768   2.502
74454ION    CL-42672  18.073  28.115  13.050
74455ION    CL-42673  19.045  40.363  11.227
74456ION    CL-42674  24.601   9.120   0.013
74457ION    CL-42675  11.865   1.416   0.250
74458ION    CL-42676  19.719   1.898   0.862
74459ION    CL-42677  20.107  16.777   2.839
74460ION    CL-42678  35.729  23.140   1.787
74461ION    CL-42679  11.416  36.606   4.391
74462ION    CL-42680   5.208   0.871  12.883
74463ION    CL-42681  32.099  43.663   2.108
74464ION    CL-42682  11.538   3.182  14.012
74465ION    CL-42683  32.677  35.010   0.699
74466ION    CL-42684   7.181   2.707  13.758
74467ION    CL-42685  33.824   5.451  12.505
74468ION    CL-42686  31.282  38.285  11.014
74469ION    CL-42687   7.578   1.587  13.041
74470ION    CL-42688  17.300  25.612   1.992
74471ION    CL-42689  32.130  44.781   3.446
74472ION    CL-42690  13.625  11.136   1.691
74473ION    CL-42691  32.569  44.353   2.483
74474ION    CL-42692  40.666  18.396   4.958
74475ION    CL-42693  18.385  33.648   3.684
74476ION    CL-42694  20.994  26.427   3.252
74477ION    CL-42695  17.059  29.896   2.847
74478ION    CL-42696  19.471  40.554   3.271
74479ION    CL-42697   5.112   2.658  14.512
74480ION    CL-42698   2.054  17.088  12.507
74481ION    CL-42699  28.255  35.279   2.249
74482ION    CL-42700  43.355  25.182  14.463
74483ION    CL-42701  37.840   6.913   3.641
74484ION    CL-42702  35.156   4.630   3.439
74485ION    CL-42703  37.756  15.215   4.815
74486ION    CL-42704  34.372  10.505  11.548
74487ION    CL-42705   7.766   5.086   2.010
74488ION    CL-42706  43.674  24.114  12.226
74489ION    CL-42707   4.330  29.911   2.751
74490ION    CL-42708  27.128  10.878   4.608
74491ION    CL-42709  24.458  39.608  14.826
74492ION    CL-42710  26.125  43.975   1.375
74493ION    CL-42711  17.687  38.350   4.158
74494ION    CL-42712   9.395   5.091  10.806
74495ION    CL-42713  11.082  30.478  14.653
74496ION    CL-42714  42.213  10.506   2.840
74497ION    CL-42715  32.711  11.791  10.046
74498ION    CL-42716  15.625  20.869   1.457
74499ION    CL-42717  19.732   8.430  12.072
74500ION    CL-42718   1.705  41.467  11.325
74501ION    CL-42719  22.695  35.466  13.083
74502ION    CL-42720   3.011  32.822   4.999
74503ION    CL-42721  26.416  18.150  12.498
74504ION    CL-42722   3.948   1.926  11.891
74505ION    CL-42723  13.247   5.365   0.173
74506ION    CL-42724  19.123  15.194   3.808
74507ION    CL-42725   2.503  34.647  13.079
74508ION    CL-42726   7.784   0.041   1.746
74509ION    CL-42727  34.163  30.028   0.278
74510ION    CL-42728  30.747  20.531   2.363
74511ION    CL-42729  19.804  42.185   4.115
74512ION    CL-42730  30.304  31.828  12.247
74513ION    CL-42731  31.805   5.968  11.160
74514ION    CL-42732  13.995  18.494   3.720
74515ION    CL-42733  17.170   2.769   4.076
74516ION    CL-42734  40.943  12.672  14.085
74517ION    CL-42735  17.319  22.631   2.670
74518ION    CL-42736  22.141   0.934  13.004
74519ION    CL-42737  42.558  38.919  14.172
74520ION    CL-42738  18.150  26.238  11.500
74521ION    CL-42739  16.031  32.553   3.670
74522ION    CL-42740  24.201   8.932   4.137
74523ION    CL-42741  11.415  21.195   4.406
74524ION    CL-42742  43.467   9.549  14.262
74525ION    CL-42743  42.798  10.352  12.388
74526ION    CL-42744  29.068  34.555   2.318
74527ION    CL-42745   4.310   9.499   1.142
74528ION    CL-42746   5.137  30.873  13.769
74529ION    CL-42747  29.420  20.464   2.548
74530ION    CL-42748  21.707  19.009   5.071
74531ION    CL-42749  44.900  37.348  11.633
74532ION    CL-42750  14.578  28.014  12.022
74533ION    CL-42751  44.194  12.841   0.217
74534ION    CL-42752  33.057  13.559   2.305
74535ION    CL-42753   6.295   8.064   2.597
74536ION    CL-42754  31.965  12.729  12.971
74537ION    CL-42755  26.200  43.214   2.056
74538ION    CL-42756  33.768  15.852  12.655
74539ION    CL-42757  13.862  22.267  14.956
74540ION    CL-42758   2.564  42.841   0.970
74541ION    CL-42759   1.693  42.431   3.211
74542ION    CL-42760  13.278  39.840  10.795
74543ION    CL-42761   8.503  34.334  13.598
74544ION    CL-42762  14.495  14.099  11.517
74545ION    CL-42763   2.271   3.514  10.716
74546ION    CL-42764  23.265  25.126   9.490
74547ION    CL-42765  32.025   6.664   2.047
74548ION    CL-42766  38.064  19.197   4.942
74549ION    CL-42767  31.731  14.513   4.604
74550ION    CL-42768  25.229  38.879   3.439
74551ION    CL-42769   7.721  42.467  11.560
74552ION    CL-42770  14.347  40.525   1.162
74553ION    CL-42771  19.171  41.288   9.922
74554ION    CL-42772  37.572   4.550   1.506
74555ION    CL-42773  36.571  26.296  12.762
74556ION    CL-42774  25.240  23.303   1.918
74557ION    CL-42775  14.162  12.323   3.241
74558ION    CL-42776  14.671  41.838  13.560
74559ION    CL-42777  31.535   0.299   2.833
74560ION    CL-42778  15.523  32.305   0.561
74561ION    CL-42779  28.605  21.818   3.643
74562ION    CL-42780  23.872   9.831  13.827
74563ION    CL-42781   8.561  34.125   0.828
74564ION    CL-42782  32.694  14.697   4.062
74565ION    CL-42783  25.824   4.798   0.230
74566ION    CL-42784  25.676  25.140   4.808
74567ION    CL-42785  20.623  24.120   3.303
74568ION    CL-42786   7.878  22.266  12.094
74569ION    CL-42787  26.674  12.488   2.814
74570ION    CL-42788  10.414  32.623   0.855
74571ION    CL-42789  12.727  19.884  10.360
74572ION    CL-42790  26.670  22.430   0.506
74573ION    CL-42791  19.130  41.311   0.595
74574ION    CL-42792  34.334  27.812  14.356
74575ION    CL-42793   0.524  43.519  11.119
74576ION    CL-42794  38.179  41.101   1.871
74577ION    CL-42795  39.280  22.358   2.919
74578ION    CL-42796  15.620  15.042   2.784
74579ION    CL-42797  14.296   3.343   4.146
74580ION    CL-42798  33.401   7.430   4.133
74581ION    CL-42799  32.456   7.162   5.496
74582ION    CL-42800  28.443   0.910  13.432
74583ION    CL-42801   1.719  11.715   2.671
74584ION    CL-42802   8.494  16.476  11.288
74585ION    CL-42803   2.094   9.006  13.859
74586ION    CL-42804  29.244   4.853  11.973
74587ION    CL-42805  24.198   3.282   0.743
74588ION    CL-42806  35.528  34.473   1.159
74589ION    CL-42807  12.274  20.379   0.726
74590ION    CL-42808  17.291  27.825  14.819
74591ION    CL-42809  39.018  24.956   1.133
74592ION    CL-42810  19.518  35.218   5.055
74593ION    CL-42811  14.576  29.510  12.937
74594ION    CL-42812   7.946  28.546   0.396
74595ION    CL-42813  16.918  11.403  14.364
74596ION    CL-42814   5.946  40.143   0.420
74597ION    CL-42815  10.545  17.315  14.935
74598ION    CL-42816  12.011  44.288  11.894
74599ION    CL-42817  40.706  13.782  10.898
74600ION    CL-42818  37.892  41.105   2.829
74601ION    CL-42819  25.313   3.735   1.708
74602ION    CL-42820  26.127  16.490   3.656
74603ION    CL-42821  27.693   8.080   0.502
74604ION    CL-42822  24.935   5.754   1.689
74605ION    CL-42823  44.007  24.047  14.800
74606ION    CL-42824  10.421  28.917  12.967
74607ION    CL-42825  35.808  39.786   2.362
74608ION    CL-42826  35.844  20.775   1.761
74609ION    CL-42827  23.775  19.113   1.719
74610ION    CL-42828  44.369  14.035  12.549
74611ION    CL-42829  17.592   1.523  11.117
74612ION    CL-42830   8.632   3.220  14.652
74613ION    CL-42831  10.106  17.383   2.846
74614ION    CL-42832  37.605   9.222  10.225
74615ION    CL-42833  43.914  33.969   0.793
74616ION    CL-42834  40.565  18.203   0.528
74617ION    CL-42835  37.256  15.645   2.094
74618ION    CL-42836  12.452  37.690  11.565
74619ION    CL-42837  21.742  32.668  12.741
74620ION    CL-42838  17.638  32.459   1.762
74621ION    CL-42839  31.035   0.521  13.818
74622ION    CL-42840  39.671   6.397   4.144
74623ION    CL-42841   6.772   5.330   3.863
74624ION    CL-42842  28.640   7.161   0.604
74625ION    CL-42843   7.772   5.690   0.997
74626ION    CL-42844   0.484  43.192  12.761
74627ION    CL-42845  19.574  28.628   2.285
74628ION    CL-42846  15.354  42.230  11.624
74629ION    CL-42847   4.443  20.629   2.540
74630ION    CL-42848  31.905  20.320   1.230
74631ION    CL-42849  21.018  10.878   1.244
74632ION    CL-42850   2.196   6.732   4.648
74633ION    CL-42851  11.165  24.955   0.048
74634ION    CL-42852  42.751   5.432  12.024
74635ION    CL-42853  16.157  20.917  12.920
74636ION    CL-42854  30.333  17.236  10.309
74637ION    CL-42855  22.510  42.718   2.207
74638ION    CL-42856  35.120  17.363  11.121
74639ION    CL-42857  10.853  33.038  14.084
74640ION    CL-42858   0.493  43.560   1.877
74641ION    CL-42859  26.699   2.433   3.468
74642ION    CL-42860   2.139  40.166  13.133
74643ION    CL-42861   2.869   6.717   2.030
74644ION    CL-42862  28.558  31.614  13.708
74645ION    CL-42863  25.700   4.943  11.838
74646ION    CL-42864  12.777  14.954   1.094
74647ION    CL-42865  21.915  21.172   1.477
74648ION    CL-42866  10.829  40.275  11.217
74649ION    CL-42867  34.692   0.550  14.300
74650ION    CL-42868   3.100   5.204   4.205
74651ION    CL-42869  30.142  23.732  12.609
74652ION    CL-42870  26.177  26.218   4.779
74653ION    CL-42871  33.616  13.070   1.343
74654ION    CL-42872   5.626  41.639   3.688
74655ION    CL-42873   6.235  19.519   3.663
74656ION    CL-42874   1.999  28.192  13.478
74657ION    CL-42875  22.698  12.553  12.461
74658ION    CL-42876  14.210   8.360   1.424
74659ION    CL-42877  15.367  17.187  13.875
74660ION    CL-42878   7.880  18.170   3.260
74661ION    CL-42879  35.447   1.053   3.258
74662ION    CL-42880  20.622  33.978  13.234
74663ION    CL-42881  33.107  33.161   3.293
74664ION    CL-42882  37.669  21.650  13.480
74665ION    CL-42883  25.977   2.479   4.013
74666ION    CL-42884  37.901  21.310  11.542
74667ION    CL-42885  16.395  40.634  11.894
74668ION    CL-42886  44.905  31.048   3.541
74669ION    CL-42887  37.862   5.648   0.420
74670ION    CL-42888  19.951   3.985  12.444
74671ION    CL-42889  37.768  36.874   1.341
74672ION    CL-42890   7.179  30.903   1.470
74673ION    CL-42891  37.006  15.483  14.047
74674ION    CL-42892   6.343  38.982   0.432
74675ION    CL-42893   4.339  22.945  12.967
74676ION    CL-42894  28.495  30.147  12.138
74677ION    CL-42895  14.007   9.679   0.655
74678ION    CL-42896  18.636  26.588   4.238
74679ION    CL-42897  17.303  18.659   3.566
74680ION    CL-42898  38.798  42.915   1.849
74681ION    CL-42899  32.068  36.147   4.630
74682ION    CL-42900  43.690  11.208   2.865
74683ION    CL-42901  28.918   3.343   4.338
74684ION    CL-42902  17.945  37.923  13.069
74685ION    CL-42903  20.938  40.456   0.728
74686ION    CL-42904  20.578  11.625   4.583
74687ION    CL-42905  26.429   4.144   0.196
74688ION    CL-42906  21.911  44.325   9.803
74689ION    CL-42907  28.439   2.885  12.000
74690ION    CL-42908  12.199  12.413  10.864
74691ION    CL-42909  13.856  26.264   0.432
74692ION    CL-42910   1.191  44.826   1.696
74693ION    CL-42911  34.697  43.484   2.782
74694ION    CL-42912  39.363  27.665   4.373
74695ION    CL-42913  37.461  22.729  11.784
74696ION    CL-42914  42.861  29.496   2.910
74697ION    CL-42915  23.134  20.535   3.346
74698ION    CL-42916  38.611  17.380   0.706
74699ION    CL-42917  25.509  39.593   4.206
74700ION    CL-42918  30.421  27.973   5.058
74701ION    CL-42919  41.012   7.490  14.439
74702ION    CL-42920  11.331  34.830   0.368
74703ION    CL-42921  31.498  12.294  10.948
74704ION    CL-42922   3.991  24.456  13.533
74705ION    CL-42923   2.552  10.507  12.615
74706ION    CL-42924  29.598  15.444   1.640
74707ION    CL-42925   5.699  37.424   1.767
74708ION    CL-42926  43.019  11.283   4.738
74709ION    CL-42927  32.728  23.721  11.471
74710ION    CL-42928  11.340  31.869  12.898
74711ION    CL-42929  31.909   7.008   0.648
74712ION    CL-42930  28.693  36.092  12.995
74713ION    CL-42931  17.904  25.458   4.988
74714ION    CL-42932  25.826  20.203  11.554
74715ION    CL-42933  44.929  36.634   2.597
74716ION    CL-42934  41.275  43.683   1.299
74717ION    CL-42935  36.142   2.556   3.514
74718ION    CL-42936  28.450  19.433   3.236
74719ION    CL-42937  38.317  36.178   1.552
74720ION    CL-42938  43.971  18.538   1.378
74721ION    CL-42939  17.557  12.317   4.052
74722ION    CL-42940  12.140  19.471   0.294
74723ION    CL-42941  32.470  21.177  11.021
74724ION    CL-42942  28.083  25.525   0.853
74725ION    CL-42943  18.992   4.654   2.338
74726ION    CL-42944  30.424  19.492   0.219
74727ION    CL-42945  32.749  16.703  12.072
74728ION    CL-42946  39.202   1.571   3.242
74729ION    CL-42947  33.531  22.092  11.557
74730ION    CL-42948  21.634  39.760   4.324
74731ION    CL-42949  16.227  28.559   3.642
74732ION    CL-42950  40.331  12.597  11.633
74733ION    CL-42951   9.801  16.910  13.178
74734ION    CL-42952  31.012  34.790   9.947
74735ION    CL-42953  32.613  18.171   1.192
74736ION    CL-42954  41.210  30.268   2.476
74737ION    CL-42955  22.231  31.110   1.507
74738ION    CL-42956   1.070  43.070   1.044
74739ION    CL-42957   2.592  32.991   4.034
74740ION    CL-42958  26.639  12.739  10.696
74741ION    CL-42959  17.807  31.678  13.879
74742ION    CL-42960  32.757  31.511  10.366
74743ION    CL-42961  40.191  11.616  14.698
74744ION    CL-42962   8.175  44.803  12.624
74745ION    CL-42963  21.300  12.628   0.823
74746ION    CL-42964  40.272   5.680  12.446
74747ION    CL-42965  18.387  34.385   2.110
74748ION    CL-42966  40.466  26.225   2.317
74749ION    CL-42967  25.563  32.273  14.449
74750ION    CL-42968  13.866  19.773   3.103
74751ION    CL-42969   7.167   6.404   0.646
74752ION    CL-42970  12.394  33.433   0.907
74753ION    CL-42971  33.267   3.233  11.668
74754ION    CL-42972  36.616  44.252  13.957
74755ION    CL-42973   5.105   2.030  13.734
74756ION    CL-42974   1.461  21.046  14.208
74757ION    CL-42975  38.916   5.141  11.358
74758ION    CL-42976  23.031  28.433  13.029
74759ION    CL-42977  16.883  22.796   9.831
74760ION    CL-42978  34.043  42.175   1.578
74761ION    CL-42979  23.999  14.890  14.063
74762ION    CL-42980  23.424  39.039   3.413
74763ION    CL-42981  12.848   4.714  10.342
74764ION    CL-42982  18.627  22.035   0.344
74765ION    CL-42983  39.242  10.792   3.190
74766ION    CL-42984   6.983  35.928   0.533
74767ION    CL-42985  10.459  15.380   4.341
74768ION    CL-42986  18.768  30.452   1.987
74769ION    CL-42987   3.939   7.770  11.018
74770ION    CL-42988   4.337  29.495   0.713
74771ION    CL-42989  36.299  37.376   2.556
74772ION    CL-42990  37.396   4.211  12.745
74773ION    CL-42991  16.767   9.347  14.484
74774ION    CL-42992  11.539   0.037  11.733
74775ION    CL-42993   2.157  12.985  11.154
74776ION    CL-42994   1.602  20.131   1.674
74777ION    CL-42995  29.083  23.978  13.464
74778ION    CL-42996   4.178  20.012  11.193
74779ION    CL-42997  44.147  25.771  13.833
74780ION    CL-42998   6.154  35.655   2.899
74781ION    CL-42999  44.645  40.814   1.298
74782ION    CL-43000  34.570  39.347  14.603
74783ION    CL-43001   8.821  29.066   0.005
74784ION    CL-43002  24.690  22.606   2.131
74785ION    CL-43003  22.392   8.397   0.813
74786ION    CL-43004   7.407   1.781  11.626
74787ION    CL-43005   2.641   1.257   5.023
74788ION    CL-43006  38.676  10.005  13.469
74789ION    CL-43007  36.981  10.738   1.975
74790ION    CL-43008  11.732  15.971  13.993
74791ION    CL-43009  26.352  31.666  10.917
74792ION    CL-43010  32.533  38.159   0.003
74793ION    CL-43011  12.405   5.450  11.923
74794ION    CL-43012  41.704  40.579   3.935
74795ION    CL-43013  26.333  18.122   0.854
74796ION    CL-43014  26.122  31.157   3.317
74797ION    CL-43015  31.835  16.707   4.152
74798ION    CL-43016  27.040  10.336   4.770
74799ION    CL-43017   3.988  23.162   3.134
74800ION    CL-43018  22.598   9.556  14.645
74801ION    CL-43019   2.235  27.880  11.996
74802ION    CL-43020   8.647  17.982   1.075
74803ION    CL-43021   2.722  40.799   1.347
74804ION    CL-43022  33.413  42.785  10.656
74805ION    CL-43023   5.666  19.640  11.629
74806ION    CL-43024   6.002  29.377   2.555
74807ION    CL-43025  27.290  27.010  10.769
74808ION    CL-43026  40.944   9.713  13.152
74809ION    CL-43027  44.981   1.776  14.201
74810ION    CL-43028  37.386  36.452  13.378
74811ION    CL-43029  37.796   1.481   1.972
74812ION    CL-43030  40.061  42.069  13.986
74813ION    CL-43031  35.973  38.632  13.630
74814ION    CL-43032  16.362  12.572  11.417
74815ION    CL-43033  20.096  17.151   1.880
74816ION    CL-43034  18.059  31.050   0.435
74817ION    CL-43035   8.876  20.116  12.338
74818ION    CL-43036  35.904   9.904  10.725
74819ION    CL-43037  20.817   5.424   4.844
74820ION    CL-43038  18.164   0.164  12.762
74821ION    CL-43039  19.621  23.470  13.522
74822ION    CL-43040  20.695  33.363  12.449
74823ION    CL-43041  16.197   3.936   2.766
74824ION    CL-43042  10.904  18.247  14.890
74825ION    CL-43043  44.744  21.293   2.070
74826ION    CL-43044  24.778   8.792  12.669
74827ION    CL-43045  34.615  42.431  14.319
74828ION    CL-43046  21.445  28.043  12.059
74829ION    CL-43047  31.605   1.703  13.641
74830ION    CL-43048  30.241  27.489  14.965
74831ION    CL-43049  33.676   3.706  10.886
74832ION    CL-43050   3.692  40.477   0.116
74833ION    CL-43051  23.556  44.226  12.607
74834ION    CL-43052  12.165   9.345   3.976
74835ION    CL-43053  35.827  18.012  12.432
74836ION    CL-43054  27.075  18.509  11.213
74837ION    CL-43055  35.147  10.191  12.143
74838ION    CL-43056  14.795   9.621   2.808
74839ION    CL-43057   5.843  37.571   0.428
74840ION    CL-43058  42.750  34.573  14.578
74841ION    CL-43059  26.204  18.705   2.420
74842ION    CL-43060  22.644   8.746  11.618
74843ION    CL-43061  11.474  11.613  12.385
74844ION    CL-43062  13.085  24.648   4.625
74845ION    CL-43063  28.297  20.997  14.992
74846ION    CL-43064  28.716  19.475  13.573
74847ION    CL-43065   6.880  14.771   2.694
74848ION    CL-43066  22.732  21.443   3.230
74849ION    CL-43067  22.051  24.801   2.310
74850ION    CL-43068   9.984   3.065   0.616
74851ION    CL-43069  27.284  42.488   0.514
74852ION    CL-43070  26.406  23.664   1.360
74853ION    CL-43071  35.792  37.393  11.229
74854ION    CL-43072  42.215   4.166  13.776
74855ION    CL-43073  16.980  28.071   2.730
74856ION    CL-43074  32.594  13.632   0.954
74857ION    CL-43075  35.092  19.738   0.807
74858ION    CL-43076  29.392  26.322   3.270
74859ION    CL-43077  43.276  43.221  13.402
74860ION    CL-43078  41.731  28.973   3.231
74861ION    CL-43079  15.389  28.227  11.477
74862ION    CL-43080  29.686   6.874   1.809
74863ION    CL-43081  26.233  12.137   1.441
74864ION    CL-43082  37.594  20.594   3.290
74865ION    CL-43083  14.457  26.707  10.984
74866ION    CL-43084  26.003  38.404   1.717
74867ION    CL-43085  16.722  15.454   3.660
74868ION    CL-43086  40.498  17.222  13.747
74869ION    CL-43087  20.909  14.719   3.787
74870ION    CL-43088   4.270  31.069  12.672
74871ION    CL-43089  14.425  31.119   4.412
74872ION    CL-43090  37.910  27.655  10.723
74873ION    CL-43091  35.919  23.602  13.797
74874ION    CL-43092  36.176  36.498  10.850
74875ION    CL-43093   4.134  29.058  12.374
74876ION    CL-43094   4.165  26.752  13.197
74877ION    CL-43095  29.393  37.375  12.431
74878ION    CL-43096  18.691  11.177   1.446
74879ION    CL-43097  18.266  19.091   2.848
74880ION    CL-43098  26.794  36.635   0.340
74881ION    CL-43099  17.134  42.654   0.398
74882ION    CL-43100  39.871  44.959   0.809
74883ION    CL-43101  24.350  37.826  12.126
74884ION    CL-43102  27.327  12.893   1.678
74885ION    CL-43103  16.482  26.582  14.564
74886ION    CL-43104  44.316  24.776   3.194
74887ION    CL-43105  42.311  22.670   2.732
74888ION    CL-43106  33.949  35.380   2.478
74889ION    CL-43107  23.896  33.675   2.324
74890ION    CL-43108   2.070  19.030   3.194
74891ION    CL-43109  32.950  44.608  14.893
74892ION    CL-43110  19.391   1.543  10.659
74893ION    CL-43111   1.460   7.867  10.668
74894ION    CL-43112  42.715   6.274   0.064
74895ION    CL-43113  25.239  43.547  10.116
74896ION    CL-43114  37.812  15.597  13.042
74897ION    CL-43115  37.270   5.441   2.044
74898ION    CL-43116  11.675   7.467  12.189
74899ION    CL-43117  18.735  23.693   1.378
74900ION    CL-43118  36.661  44.708  13.068
74901ION    CL-43119  13.039  34.661   4.895
74902ION    CL-43120  43.925  20.563   2.801
74903ION    CL-43121  29.953  39.492  11.825
74904ION    CL-43122   0.942  33.792  14.606
74905ION    CL-43123   9.492  31.924  14.217
74906ION    CL-43124  17.945  18.510  14.489
74907ION    CL-43125   9.664   3.679  14.894
74908ION    CL-43126  44.973   6.563   1.959
74909ION    CL-43127  13.950  41.347  10.611
74910ION    CL-43128  19.167  13.072   2.870
74911ION    CL-43129   3.376  26.151   2.571
74912ION    CL-43130  29.373   0.037   0.730
74913ION    CL-43131  21.275  35.048   1.823
74914ION    CL-43132  39.343   4.394   4.615
74915ION    CL-43133  26.444  24.468  14.293
74916ION    CL-43134  15.501  13.641  14.876
74917ION    CL-43135  39.058  33.796  13.309
74918ION    CL-43136  11.719   2.239   0.798
74919ION    CL-43137   9.612  28.820   0.254
74920ION    CL-43138  18.867  19.805   3.207
74921ION    CL-43139  40.893  37.805  11.543
74922ION    CL-43140  36.620   6.409   2.875
74923ION    CL-43141   9.830  28.068   2.655
74924ION    CL-43142  26.811   2.614   4.058
74925ION    CL-43143  10.712  43.122   0.834
74926ION    CL-43144  35.233   7.458   2.011
74927ION    CL-43145   0.340  26.058   4.771
74928ION    CL-43146  18.256  44.519  12.223
74929ION    CL-43147   5.279   7.960   4.059
74930ION    CL-43148  43.818  17.607   4.551
74931ION    CL-43149   2.260  10.594   3.755
74932ION    CL-43150   6.858   0.177  13.775
74933ION    CL-43151  34.989  27.443  12.833
74934ION    CL-43152  31.941   1.636   3.603
74935ION    CL-43153  33.309   3.217   9.724
74936ION    CL-43154  10.279   8.209  10.505
74937ION    CL-43155  35.285  40.765  12.413
74938ION    CL-43156  30.049  37.148   0.420
74939ION    CL-43157  13.914  15.804  10.292
74940ION    CL-43158  34.237   4.726  11.906
74941ION    CL-43159  24.567  11.673   2.898
74942ION    CL-43160   9.876  34.876   1.970
74943ION    CL-43161  24.930   6.491   2.191
74944ION    CL-43162  10.385  43.606   5.054
74945ION    CL-43163  15.491   4.591   3.067
74946ION    CL-43164  26.306   5.680  12.136
74947ION    CL-43165  43.037  43.911   3.310
74948ION    CL-43166  27.934   0.200  11.190
74949ION    CL-43167  36.031  42.470  12.464
74950ION    CL-43168  14.239  20.486   1.887
74951ION    CL-43169  28.923  22.660  14.073
74952ION    CL-43170  20.141  26.676   4.372
74953ION    CL-43171   9.792  37.733   4.467
74954ION    CL-43172  13.299   1.280  11.356
74955ION    CL-43173  16.958  32.207  13.899
74956ION    CL-43174  17.457   5.324  14.155
74957ION    CL-43175   0.776   2.032   2.288
74958ION    CL-43176  32.722   6.722   4.323
74959ION    CL-43177  14.596   5.691   0.258
74960ION    CL-43178  21.100  35.831   3.758
74961ION    CL-43179   0.866   0.771   0.557
74962ION    CL-43180  38.001  43.757  12.070
74963ION    CL-43181  34.498  38.330   0.700
74964ION    CL-43182  29.371   2.307   1.326
74965ION    CL-43183  20.983  12.971  13.815
74966ION    CL-43184  26.882  16.343  10.369
74967ION    CL-43185  32.424   0.733  11.157
74968ION    CL-43186  41.617  42.295  11.262
74969ION    CL-43187  13.422  25.272   2.425
74970ION    CL-43188  39.857   5.837  13.349
74971ION    CL-43189  44.466  42.599  10.436
74972ION    CL-43190  42.102   7.368   2.576
74973ION    CL-43191  27.467  42.321   3.144
74974ION    CL-43192   7.331  26.015  11.581
74975ION    CL-43193  44.084  42.063  12.581
74976ION    CL-43194  10.534  25.224   5.184
74977ION    CL-43195   2.934  44.351   0.833
74978ION    CL-43196  15.771  13.331  11.146
74979ION    CL-43197  31.009  22.526   2.684
74980ION    CL-43198   7.666  37.170  14.564
74981ION    CL-43199  19.312  14.759  14.547
74982ION    CL-43200  11.412  16.076   3.673
74983ION    CL-43201   5.825  25.487   0.616
74984ION    CL-43202  42.011  38.974   9.968
74985ION    CL-43203  39.945  34.795   0.577
74986ION    CL-43204  41.065   4.676  14.836
74987ION    CL-43205   9.588  30.236   4.278
74988ION    CL-43206  42.391  21.259   0.829
74989ION    CL-43207  43.061   6.457   1.836
74990ION    CL-43208  14.296  25.235  11.591
74991ION    CL-43209  41.237   1.045   1.003
74992ION    CL-43210  30.203   1.816   1.584
74993ION    CL-43211  41.142  28.919   2.062
74994ION    CL-43212  22.959   0.725  11.833
74995ION    CL-43213  44.854  29.232  13.782
74996ION    CL-43214  37.266  35.459  13.375
74997ION    CL-43215  30.141  26.075   4.799
74998ION    CL-43216  22.766  21.145   0.697
74999ION    CL-43217  36.082  18.394  11.515
75000ION    CL-43218  15.565   5.491  11.093
75001ION    CL-43219  41.018  36.354  14.388
75002ION    CL-43220   3.631  10.454   0.381
75003ION    CL-43221  26.504  11.897   4.108
75004ION    CL-43222   5.321   6.459  11.074
75005ION    CL-43223  24.098  33.128   0.568
75006ION    CL-43224   2.574  10.865   0.778
75007ION    CL-43225  21.033  37.042  13.096
75008ION    CL-43226   7.781  24.434  12.072
75009ION    CL-43227  17.553  44.308  13.727
75010ION    CL-43228  38.130  31.057   2.799
75011ION    CL-43229  32.452  43.870   0.348
75012ION    CL-43230  35.026  11.854   4.091
75013ION    CL-43231  17.164  17.012   0.444
75014ION    CL-43232  42.130  38.160  10.264
75015ION    CL-43233  28.377   4.383  11.812
75016ION    CL-43234  41.629  11.283   0.827
75017ION    CL-43235  37.614  33.612   0.395
75018ION    CL-43236  12.388   3.982  13.319
75019ION    CL-43237  27.523   0.223   4.970
75020ION    CL-43238   9.170  11.020  14.517
75021ION    CL-43239  21.868  44.142   4.437
75022ION    CL-43240  23.447  40.920  14.422
75023ION    CL-43241  29.891   7.614  11.549
75024ION    CL-43242  39.280  41.078  12.265
75025ION    CL-43243   1.714  18.521   2.389
75026ION    CL-43244   1.145  34.723  10.857
75027ION    CL-43245  41.769  17.952  10.846
75028ION    CL-43246   5.530   4.698  10.432
75029ION    CL-43247   3.115   7.413  11.133
75030ION    CL-43248  24.609   7.959   4.194
75031ION    CL-43249  23.099   7.175   1.260
75032ION    CL-43250   9.283   5.735  11.463
75033ION    CL-43251  23.705  30.799   0.213
75034ION    CL-43252  13.052  15.608  12.873
75035ION    CL-43253   4.135  36.081  13.886
75036ION    CL-43254  16.168   4.174  13.393
75037ION    CL-43255   0.387  10.649   1.944
75038ION    CL-43256  27.224  28.067  14.496
75039ION    CL-43257  33.346  25.793  13.033
75040ION    CL-43258  25.460  43.766   3.422
75041ION    CL-43259  17.252   4.234   4.972
75042ION    CL-43260  23.067  10.125  13.298
75043ION    CL-43261  41.840  30.653   1.344
75044ION    CL-43262  40.269  25.402   1.784
75045ION    CL-43263  14.769  38.854  11.755
75046ION    CL-43264   5.686  44.387  13.782
75047ION    CL-43265  28.160   7.343  14.426
75048ION    CL-43266  24.537  11.708   1.112
75049ION    CL-43267  42.326  43.896   2.506
75050ION    CL-43268   6.701  36.166   4.411
75051ION    CL-43269   2.823  12.655  13.748
75052ION    CL-43270  14.151  37.929  14.352
75053ION    CL-43271  16.580   2.382   2.364
75054ION    CL-43272  32.274  15.477   1.589
75055ION    CL-43273  32.865   6.672  11.578
75056ION    CL-43274   4.787  25.176  13.431
75057ION    CL-43275  28.437  38.520  11.226
75058ION    CL-43276   6.920  44.956   2.907
75059ION    CL-43277   4.824  40.122  10.868
75060ION    CL-43278   9.877  26.597  14.022
75061ION    CL-43279  34.440  30.369   1.984
75062ION    CL-43280  27.459  29.788   3.550
75063ION    CL-43281  34.729  16.337   1.124
75064ION    CL-43282   8.954  33.559  12.767
75065ION    CL-43283  11.627   2.706  13.313
75066ION    CL-43284   5.650  25.161  12.908
75067ION    CL-43285  33.028  37.203  11.563
75068ION    CL-43286  13.398  11.365   0.744
75069ION    CL-43287  22.482  36.443  13.050
75070ION    CL-43288  37.157   9.221   0.339
75071ION    CL-43289  34.230  32.656  14.017
75072ION    CL-43290  29.808  15.927  11.894
75073ION    CL-43291   5.082  41.262   0.021
75074ION    CL-43292  22.455   7.463   3.677
75075ION    CL-43293  23.407   8.950   2.142
75076ION    CL-43294  39.520  39.306   0.522
75077ION    CL-43295  18.192   5.421   3.751
75078ION    CL-43296   3.338  26.654   3.727
75079ION    CL-43297   9.912   0.655   2.369
75080ION    CL-43298   5.129  22.664   0.785
75081ION    CL-43299  44.857  28.374   0.881
75082ION    CL-43300  44.236   8.800   5.105
75083ION    CL-43301   7.395  14.769   1.762
75084ION    CL-43302  30.085  29.483  11.334
75085ION    CL-43303  27.430   6.814   0.204
75086ION    CL-43304  10.988  39.463  13.845
75087ION    CL-43305  39.619  20.038   2.174
75088ION    CL-43306   4.262  15.666   0.621
75089ION    CL-43307   0.574   6.504   1.128
75090ION    CL-43308  10.754  26.682   1.665
75091ION    CL-43309  25.105   1.916   1.849
75092ION    CL-43310  27.064  39.979   3.096
75093ION    CL-43311  20.366  20.737  13.423
75094ION    CL-43312  19.802  10.386  13.728
75095ION    CL-43313  24.050  41.838   2.101
75096ION    CL-43314  11.536  22.919  13.020
75097ION    CL-43315  15.371  16.985   1.118
75098ION    CL-43316  38.268  37.943   2.433
75099ION    CL-43317   8.742   0.509   1.266
75100ION    CL-43318  33.796  23.225  10.954
75101ION    CL-43319   5.879  25.646  10.729
75102ION    CL-43320  35.776   1.646  10.313
75103ION    CL-43321  16.995  41.422  10.233
75104ION    CL-43322  21.529  33.560   4.037
75105ION    CL-43323  24.637  43.497  12.019
75106ION    CL-43324  19.247  42.492   4.791
75107ION    CL-43325  27.253   4.612  14.475
75108ION    CL-43326  43.239  25.275  12.779
75109ION    CL-43327  42.484  19.002  13.577
75110ION    CL-43328  31.922  38.138   2.878
75111ION    CL-43329  37.899   9.765   2.275
75112ION    CL-43330  18.587  14.366   3.973
75113ION    CL-43331  20.836  29.996   1.297
75114ION    CL-43332   9.429  13.092   1.353
75115ION    CL-43333   1.265  10.689   1.923
75116ION    CL-43334  27.954  42.334   4.627
75117ION    CL-43335  32.935  40.473  14.949
75118ION    CL-43336  15.175   7.705   3.730
75119ION    CL-43337   3.642   0.779   2.404
75120ION    CL-43338  17.284  11.497  11.115
75121ION    CL-43339  14.001  37.236   0.309
75122ION    CL-43340  22.584  25.930  11.714
75123ION    CL-43341  36.246   9.225   2.693
75124ION    CL-43342  20.102   2.716   1.290
75125ION    CL-43343  44.866  13.264  13.450
75126ION    CL-43344  20.878  12.995   5.044
75127ION    CL-43345   1.406  26.409  13.751
75128ION    CL-43346  36.319  36.142  12.691
75129ION    CL-43347  40.558  25.048   3.329
75130ION    CL-43348  12.899  24.723   0.998
75131ION    CL-43349  37.273  40.635   1.771
75132ION    CL-43350  17.160  38.030  11.775
75133ION    CL-43351  16.284   1.941  11.253
75134ION    CL-43352  24.636   2.913   3.616
75135ION    CL-43353   9.597  21.836  14.888
75136ION    CL-43354  44.281  12.040  11.295
75137ION    CL-43355  15.032  37.400  11.853
75138ION    CL-43356  31.079  17.354   4.901
75139ION    CL-43357  27.347  38.423   2.501
75140ION    CL-43358  20.340  36.982   5.032
75141ION    CL-43359  15.825  19.871   1.502
75142ION    CL-43360   2.256  15.246  13.472
75143ION    CL-43361   3.721  30.067   1.006
75144ION    CL-43362  25.328  33.067  13.890
75145ION    CL-43363  15.462  26.349   9.949
75146ION    CL-43364  33.571  29.946  14.477
75147ION    CL-43365  18.697   8.756  12.256
75148ION    CL-43366  27.426  41.009  12.235
75149ION    CL-43367  33.845   6.326   0.355
75150ION    CL-43368   5.487  24.528   4.909
75151ION    CL-43369  13.102   6.174   3.794
75152ION    CL-43370  25.619   3.639   4.246
75153ION    CL-43371  40.442  13.332  13.321
75154ION    CL-43372  20.031  32.534  10.568
75155ION    CL-43373  13.915  15.860  13.002
75156ION    CL-43374  28.577   8.065  12.434
75157ION    CL-43375  39.667  12.285  14.172
75158ION    CL-43376  34.012   4.661   2.231
75159ION    CL-43377  37.044  30.959  12.035
75160ION    CL-43378   6.881  19.850  14.703
75161ION    CL-43379   7.767  41.244   4.439
75162ION    CL-43380  31.793  25.716  12.039
75163ION    CL-43381  29.725   8.392   4.018
75164ION    CL-43382  42.583  17.203  12.579
75165ION    CL-43383  19.098  26.807   0.464
75166ION    CL-43384   8.053  30.669   1.296
75167ION    CL-43385  36.650   4.980  11.921
75168ION    CL-43386  22.052  22.920   2.771
75169ION    CL-43387   2.682  40.377   5.116
75170ION    CL-43388  41.073  38.021   4.066
75171ION    CL-43389  44.642  31.435   0.606
75172ION    CL-43390  14.524  23.175  13.420
75173ION    CL-43391  27.759  22.015  10.481
75174ION    CL-43392  22.077   2.691   4.502
75175ION    CL-43393  31.192  17.280  10.251
75176ION    CL-43394   4.577  19.971   0.183
75177ION    CL-43395  43.849   2.730  12.318
75178ION    CL-43396  25.702  23.201   3.721
75179ION    CL-43397  23.973   5.519  12.583
75180ION    CL-43398  42.833  22.951   0.477
75181ION    CL-43399  27.123  30.059  11.828
75182ION    CL-43400  43.962   5.956   0.573
75183ION    CL-43401  21.117  20.257   2.473
75184ION    CL-43402   3.329   0.378   0.816
75185ION    CL-43403  20.324  37.320  11.512
75186ION    CL-43404  37.873  39.727   3.280
75187ION    CL-43405   7.239  27.017  14.087
75188ION    CL-43406  21.012  16.355   2.778
75189ION    CL-43407  24.454  25.041   3.220
75190ION    CL-43408  23.492  39.153   2.406
75191ION    CL-43409  13.853  32.013  10.067
75192ION    CL-43410  20.058  13.050  14.497
75193ION    CL-43411  43.943   3.875   2.559
75194ION    CL-43412   6.403  26.435   0.562
75195ION    CL-43413  27.232  42.977  12.335
75196ION    CL-43414   5.114  40.465   2.207
75197ION    CL-43415  25.525  32.673   3.629
75198ION    CL-43416  17.343  16.797   3.488
75199ION    CL-43417   4.971  11.306   2.344
75200ION    CL-43418  14.553   8.971   3.528
75201ION    CL-43419  25.453  33.872  11.225
75202ION    CL-43420   6.318   4.447   5.004
75203ION    CL-43421  40.187  22.314  11.830
75204ION    CL-43422  24.030  28.474  13.055
75205ION    CL-43423   5.294  12.599   1.791
75206ION    CL-43424  27.200  17.084  12.372
75207ION    CL-43425  13.830  12.920  12.999
75208ION    CL-43426   2.966  22.769  10.788
75209ION    CL-43427   4.843  15.386   1.270
75210ION    CL-43428  42.510  36.985  13.261
75211ION    CL-43429  20.222  38.577  11.808
75212ION    CL-43430  39.149  13.873  13.398
75213ION    CL-43431  42.896  20.344  13.096
75214ION    CL-43432  33.641  18.731  13.359
75215ION    CL-43433  33.900  35.389  10.903
75216ION    CL-43434  14.393  43.421   5.080
75217ION    CL-43435   5.391   9.649  13.560
75218ION    CL-43436  27.167  41.724   4.840
75219ION    CL-43437  18.987  44.603  12.861
75220ION    CL-43438  20.744   5.842   0.177
75221ION    CL-43439  31.613  22.471  12.071
75222ION    CL-43440  37.028  14.484  14.015
75223ION    CL-43441   0.079  43.792  11.857
75224ION    CL-43442  13.766  39.052   2.208
75225ION    CL-43443  40.265  29.966  13.995
75226ION    CL-43444  13.179  35.657  13.345
75227ION    CL-43445  40.007  23.751   0.499
75228ION    CL-43446  21.844  32.506   3.906
75229ION    CL-43447  12.913  28.065  14.841
75230ION    CL-43448  10.516  13.097   4.532
75231ION    CL-43449  27.127  11.775  11.085
75232ION    CL-43450  30.144  32.596  10.390
75233ION    CL-43451  15.810  27.367   4.079
75234ION    CL-43452   4.924  20.566  11.270
75235ION    CL-43453  14.721  41.398  10.175
75236ION    CL-43454  35.076   7.305  10.662
75237ION    CL-43455  30.378  34.929  11.956
75238ION    CL-43456   2.258  44.695   3.520
75239ION    CL-43457  12.325  30.368  11.567
75240ION    CL-43458  11.439  41.777   1.783
75241ION    CL-43459  13.156  25.930   1.799
75242ION    CL-43460  29.102  27.846   3.169
75243ION    CL-43461  23.371   9.578   4.123
75244ION    CL-43462   2.880  36.547  11.190
75245ION    CL-43463  10.842  12.919  14.223
75246ION    CL-43464  23.317   0.824   2.771
75247ION    CL-43465  26.757   8.376   3.450
75248ION    CL-43466  17.222  31.576   4.601
75249ION    CL-43467   6.858  36.381  11.696
75250ION    CL-43468  18.567  35.254   2.572
75251ION    CL-43469  25.752  24.528   4.021
75252ION    CL-43470  33.434  10.870  11.524
75253ION    CL-43471  42.591  15.070   4.151
75254ION    CL-43472  28.247  14.248  13.073
75255ION    CL-43473  32.770  41.220  13.738
75256ION    CL-43474  11.667   5.987   0.819
75257ION    CL-43475  22.894  44.210   1.573
75258ION    CL-43476  26.736  34.477   3.116
75259ION    CL-43477  19.696  10.352   1.333
75260ION    CL-43478  21.163  32.797   3.234
75261ION    CL-43479  36.872  41.045   0.183
75262ION    CL-43480  21.167  12.781  14.802
75263ION    CL-43481   4.716  25.719   3.243
75264ION    CL-43482   4.942   2.541  12.065
75265ION    CL-43483  44.534  23.831  10.345
75266ION    CL-43484  41.561  41.058  12.702
75267ION    CL-43485  27.770  28.903   3.145
75268ION    CL-43486  23.577  37.964   0.842
75269ION    CL-43487  25.491  19.997   1.173
75270ION    CL-43488  12.700  13.962  13.495
75271ION    CL-43489  37.862  11.177  10.564
75272ION    CL-43490  40.746  36.479  11.027
75273ION    CL-43491  30.688   5.688   0.309
75274ION    CL-43492  17.350   2.369   1.649
75275ION    CL-43493  32.533  32.478  14.284
75276ION    CL-43494  12.528   4.967  14.747
75277ION    CL-43495  41.375  31.107   2.277
75278ION    CL-43496  38.615   0.146   5.397
75279ION    CL-43497  38.094   5.739  13.631
75280ION    CL-43498  24.947  41.432  12.518
75281ION    CL-43499  13.737  16.296   0.353
75282ION    CL-43500   4.220   7.911   2.007
75283ION    CL-43501  25.994  24.689   1.697
75284ION    CL-43502   1.812  38.237   0.261
75285ION    CL-43503   4.429   4.555   0.803
75286ION    CL-43504   3.432  32.764   3.766
75287ION    CL-43505  18.220   0.863  13.475
75288ION    CL-43506   4.833  34.214   4.976
75289ION    CL-43507  35.547  15.080  12.994
75290ION    CL-43508  13.328  34.598  13.867
75291ION    CL-43509  36.930   9.552  13.884
75292ION    CL-43510  33.851  22.289  12.746
75293ION    CL-43511  40.334   9.630  12.281
75294ION    CL-43512   8.345  34.927  14.208
75295ION    CL-43513  13.534  23.332  11.571
75296ION    CL-43514  35.367   4.321   4.236
75297ION    CL-43515  27.526  25.278  12.358
75298ION    CL-43516  36.768  12.769  11.641
75299ION    CL-43517  38.127  34.047  13.576
75300ION    CL-43518  41.729  29.592   4.266
75301ION    CL-43519  24.506  15.246  11.653
75302ION    CL-43520  39.801  27.381  11.139
75303ION    CL-43521   5.464  17.302  10.468
75304ION    CL-43522  36.574   7.765   0.817
75305ION    CL-43523  28.991   9.155   1.492
75306ION    CL-43524  29.440  34.801  12.277
75307ION    CL-43525  32.509   7.168  13.715
75308ION    CL-43526  22.121  24.992  14.176
75309ION    CL-43527  35.968   9.080  12.487
75310ION    CL-43528  20.147   1.248  12.807
75311ION    CL-43529  20.260  36.373  14.482
75312ION    CL-43530  22.724  27.858  14.871
75313ION    CL-43531  18.132  40.158   2.790
75314ION    CL-43532  18.782  22.713   3.328
75315ION    CL-43533   8.548  22.092  11.292
75316ION    CL-43534   8.925  31.896  12.678
75317ION    CL-43535  31.088  40.489  13.955
75318ION    CL-43536  24.969  13.162   1.872
75319ION    CL-43537  37.374  32.583   4.333
75320ION    CL-43538  33.053  23.211   5.010
75321ION    CL-43539  15.823  16.718  11.090
75322ION    CL-43540  36.960  18.026  14.216
75323ION    CL-43541  24.668  24.351  12.000
75324ION    CL-43542   7.331   7.394   1.680
75325ION    CL-43543   3.622   2.505   1.958
75326ION    CL-43544  44.974  25.326   4.965
75327ION    CL-43545  10.711   0.859  13.269
75328ION    CL-43546  37.050  23.428   5.001
75329ION    CL-43547  25.050  13.107  14.889
75330ION    CL-43548  19.855  33.747  11.088
75331ION    CL-43549  44.309  35.501  13.381
75332ION    CL-43550  23.961  43.840   4.606
75333ION    CL-43551  25.623  11.596  12.039
75334ION    CL-43552  38.798  40.966   4.936
75335ION    CL-43553  18.719   2.881  14.735
75336ION    CL-43554  11.054  14.097  11.104
75337ION    CL-43555  18.865  34.911   1.686
75338ION    CL-43556  39.686   0.794   3.307
75339ION    CL-43557   4.691  40.074   3.810
75340ION    CL-43558   0.601  44.158   4.041
75341ION    CL-43559  11.017  34.539  13.350
75342ION    CL-43560  19.148  26.463   1.402
75343ION    CL-43561  26.669  23.546  14.704
75344ION    CL-43562  28.478  26.648  12.408
75345ION    CL-43563   6.848  25.957  14.979
75346ION    CL-43564   9.770  18.782   0.262
75347ION    CL-43565  27.020  38.008   3.853
75348ION    CL-43566   7.362  40.955  10.997
75349ION    CL-43567   9.350   9.692  14.912
75350ION    CL-43568  31.825   7.902   2.681
75351ION    CL-43569  17.680   2.917  13.018
75352ION    CL-43570   9.195   6.122  13.355
75353ION    CL-43571  24.036  19.131   2.687
75354ION    CL-43572  30.608  41.083   0.021
75355ION    CL-43573  39.049  24.808  13.112
75356ION    CL-43574   5.453  24.402  11.639
75357ION    CL-43575  44.951  19.718  12.484
75358ION    CL-43576   5.374  18.658   2.572
75359ION    CL-43577  25.443  44.376   5.143
75360ION    CL-43578  43.059  36.231  12.848
75361ION    CL-43579  34.897  14.655   2.841
75362ION    CL-43580  10.059   4.508  14.497
75363ION    CL-43581   4.284  19.127  13.207
75364ION    CL-43582   0.312  20.216  13.558
75365ION    CL-43583  24.350  41.375  14.403
75366ION    CL-43584   3.351  10.922   3.573
75367ION    CL-43585  14.779  13.474   1.538
75368ION    CL-43586  17.851  19.435  10.754
75369ION    CL-43587  38.231  22.612   2.672
75370ION    CL-43588   3.745  21.908   2.371
75371ION    CL-43589  21.681  32.805   1.452
75372ION    CL-43590  43.597   8.489   2.505
75373ION    CL-43591  21.072   2.351   3.176
75374ION    CL-43592  21.421   8.809  12.247
75375ION    CL-43593   5.081  29.329  12.548
75376ION    CL-43594   6.313  19.812   0.525
75377ION    CL-43595   3.144   9.903  10.500
75378ION    CL-43596   7.650  12.790   4.156
75379ION    CL-43597  35.022  37.393  10.591
75380ION    CL-43598  25.382  31.439  11.008
75381ION    CL-43599  19.079   0.435   1.461
75382ION    CL-43600   9.005   9.875  11.191
75383ION    CL-43601   2.336  31.559   3.041
75384ION    CL-43602   0.948  11.799  12.926
75385ION    CL-43603  12.121   7.624   2.843
75386ION    CL-43604  10.279  30.384  11.187
75387ION    CL-43605  32.458  17.713  12.470
75388ION    CL-43606  36.073  43.098   4.616
75389ION    CL-43607  32.708  16.110  13.053
75390ION    CL-43608  32.147  30.890   4.024
75391ION    CL-43609  43.383  41.969   0.250
75392ION    CL-43610  12.182   3.826  11.674
75393ION    CL-43611   8.336   1.232  14.764
75394ION    CL-43612  41.608  35.051   2.417
75395ION    CL-43613  22.691  43.730  12.683
75396ION    CL-43614  17.402  27.726  11.242
75397ION    CL-43615  34.173  38.502   4.360
75398ION    CL-43616  42.260  28.184   0.161
75399ION    CL-43617  34.009   0.166   3.226
75400ION    CL-43618   8.062   0.449  11.714
75401ION    CL-43619  27.040  28.219  11.917
75402ION    CL-43620  30.213  22.701  14.026
75403ION    CL-43621   8.631  14.956  12.211
75404ION    CL-43622  36.213  34.005  13.168
75405ION    CL-43623   5.474  32.042   0.676
75406ION    CL-43624   0.637  40.164  14.556
75407ION    CL-43625   3.137  39.244  14.204
75408ION    CL-43626  11.624  14.762   4.153
75409ION    CL-43627  22.953  33.370   2.459
75410ION    CL-43628  31.303  26.217  11.481
75411ION    CL-43629  11.777  34.421  13.989
75412ION    CL-43630   1.548  33.832  11.551
75413ION    CL-43631   3.904  11.632  12.821
75414ION    CL-43632  11.835  35.314   3.866
75415ION    CL-43633  10.366  43.594   2.507
75416ION    CL-43634  40.917  20.724   4.145
75417ION    CL-43635   1.763   7.202  14.928
75418ION    CL-43636  43.564  40.406  14.923
75419ION    CL-43637  44.381  14.127   9.797
75420ION    CL-43638  39.607  29.524  12.465
75421ION    CL-43639  27.856  30.513   2.096
75422ION    CL-43640  10.708  38.416   3.860
75423ION    CL-43641  41.260   0.440   3.174
75424ION    CL-43642  12.344   5.402   1.266
75425ION    CL-43643  25.987  41.966   4.925
75426ION    CL-43644  33.358  31.717   0.778
75427ION    CL-43645  39.134  18.621   2.991
75428ION    CL-43646  20.559  29.681  11.544
75429ION    CL-43647  24.405  33.989  12.178
75430ION    CL-43648  39.399   9.806   1.392
75431ION    CL-43649  28.098   2.854  14.146
75432ION    CL-43650   8.602  18.187  14.374
75433ION    CL-43651  35.452  34.467  13.188
75434ION    CL-43652  11.089  12.439  13.890
75435ION    CL-43653  44.857  36.236   3.537
75436ION    CL-43654  13.118  22.226  13.460
75437ION    CL-43655  33.010   5.154  14.318
75438ION    CL-43656  38.233  27.297   0.422
75439ION    CL-43657  19.382  18.727   0.524
75440ION    CL-43658  33.926   3.457   1.642
75441ION    CL-43659  33.063  34.562  14.774
75442ION    CL-43660  34.945   9.090   1.196
75443ION    CL-43661  13.645  29.577  11.980
75444ION    CL-43662  10.425  18.596  11.683
75445ION    CL-43663  41.993  16.643  14.361
75446ION    CL-43664   6.094  36.114  13.986
75447ION    CL-43665  22.457   5.210  12.898
75448ION    CL-43666  10.111  43.902   1.591
75449ION    CL-43667  41.735  36.556  11.152
75450ION    CL-43668  30.784  28.345   0.715
75451ION    CL-43669  10.885   8.783  14.821
75452ION    CL-43670  24.730  40.455   2.668
75453ION    CL-43671  39.016  36.702  12.181
75454ION    CL-43672  33.578   7.192  13.155
75455ION    CL-43673  30.170  17.511   4.880
75456ION    CL-43674  16.650  33.338  12.380
75457ION    CL-43675  26.108  29.629   4.261
75458ION    CL-43676  12.146  42.302   4.770
75459ION    CL-43677  14.517  28.852   2.381
75460ION    CL-43678  27.913  41.865  13.660
75461ION    CL-43679  11.172  13.104  11.105
75462ION    CL-43680  25.491  40.549   4.501
75463ION    CL-43681  25.418   5.440   2.773
75464ION    CL-43682  15.234  40.831   0.403
75465ION    CL-43683  27.286  24.481   2.142
75466ION    CL-43684  11.696  17.178  11.158
75467ION    CL-43685  17.172   3.348   5.229
75468ION    CL-43686  42.446   5.222   2.915
75469ION    CL-43687  17.048  24.715   3.231
75470ION    CL-43688  15.824  10.405   2.879
75471ION    CL-43689  44.672  30.846   0.039
75472ION    CL-43690   9.537  14.863   3.678
75473ION    CL-43691  35.675  38.337   2.828
75474ION    CL-43692  20.567  18.509  14.093
75475ION    CL-43693  18.309  19.325   2.013
75476ION    CL-43694   8.831  23.511   0.782
75477ION    CL-43695  39.107  17.630  11.550
75478ION    CL-43696  18.647  43.274  14.042
75479ION    CL-43697   4.657  32.286   4.032
75480ION    CL-43698   0.539  17.836  11.206
75481ION    CL-43699  42.447  41.945  10.915
75482ION    CL-43700  15.712   0.236  13.049
75483ION    CL-43701   4.402  43.519  10.431
75484ION    CL-43702  24.987  11.771  13.077
75485ION    CL-43703  11.989  27.055   0.193
75486ION    CL-43704   3.395  28.300   3.949
75487ION    CL-43705  44.163  12.404  12.219
75488ION    CL-43706  28.075  28.673  12.525
75489ION    CL-43707  43.939   0.410  12.568
75490ION    CL-43708  13.009  20.565   4.076
75491ION    CL-43709  14.195   3.693  13.382
75492ION    CL-43710  27.610  23.415  11.818
75493ION    CL-43711   7.526  35.705   2.790
75494ION    CL-43712  38.364  42.427  11.433
75495ION    CL-43713   8.247   9.540  10.277
75496ION    CL-43714  22.906   4.500  12.330
75497ION    CL-43715  19.405  24.333  12.694
75498ION    CL-43716  10.387  41.540  13.323
75499ION    CL-43717   0.747   0.646  14.196
75500ION    CL-43718  10.161   8.219   4.248
75501ION    CL-43719  25.838   1.324  11.283
75502ION    CL-43720  34.863  44.383   0.733
75503ION    CL-43721  30.107  30.123  12.110
75504ION    CL-43722  27.477   6.625  14.223
75505ION    CL-43723  44.887  40.861   0.205
75506ION    CL-43724  30.907  24.345  10.442
75507ION    CL-43725   3.281  35.409   3.933
75508ION    CL-43726  31.875  13.541  14.113
75509ION    CL-43727  10.128  23.178   1.246
75510ION    CL-43728  42.006   2.434   2.762
75511ION    CL-43729  10.653  25.043  11.101
75512ION    CL-43730  20.590  30.782   0.342
75513ION    CL-43731  19.112  36.048  12.032
75514ION    CL-43732  35.540  28.126   3.810
75515ION    CL-43733  16.281   0.575   5.313
75516ION    CL-43734  13.139  35.354  12.081
75517ION    CL-43735  28.903  41.858   3.202
75518ION    CL-43736  11.164  19.689   0.300
75519ION    CL-43737  36.528  36.467   3.111
75520ION    CL-43738  28.298  40.476   4.947
75521ION    CL-43739   7.671  36.971  11.789
75522ION    CL-43740  22.262   5.721  12.061
75523ION    CL-43741   5.927  30.633   4.123
75524ION    CL-43742  21.739  38.777   2.086
75525ION    CL-43743  14.822   2.064  12.727
75526ION    CL-43744   9.115  37.027  12.042
75527ION    CL-43745  18.510  17.732  12.613
75528ION    CL-43746  13.264  34.212  12.513
75529ION    CL-43747  26.011   3.802  11.505
75530ION    CL-43748   6.118   1.010  13.273
75531ION    CL-43749   4.161  17.804  14.964
75532ION    CL-43750  22.879   0.024   2.741
75533ION    CL-43751  42.195  18.786   0.012
75534ION    CL-43752  20.646  14.533   0.078
75535ION    CL-43753   8.817  27.999   5.169
75536ION    CL-43754   6.793   1.379  14.833
75537ION    CL-43755   5.218  39.531  13.311
75538ION    CL-43756  18.294  26.446  13.065
75539ION    CL-43757  18.869  14.104  14.098
75540ION    CL-43758  22.518  32.063  10.392
75541ION    CL-43759  43.486  27.167   4.881
75542ION    CL-43760  17.691  42.474   3.397
75543ION    CL-43761  18.621  27.126   1.946
75544ION    CL-43762  38.369  18.782   0.788
75545ION    CL-43763  33.848  10.970   0.038
75546ION    CL-43764  41.739   4.592  11.546
75547ION    CL-43765  14.139  22.799   5.004
75548ION    CL-43766  42.266  29.760   2.151
75549ION    CL-43767  26.053   1.141  10.675
75550ION    CL-43768  18.770  40.097   5.278
75551ION    CL-43769  31.746  44.775   4.268
75552ION    CL-43770  15.822  31.446   2.273
75553ION    CL-43771  19.383   7.897  14.455
75554ION    CL-43772   2.631  23.260  11.632
75555ION    CL-43773  12.750   2.665   4.451
75556ION    CL-43774   9.103  15.307  10.558
75557ION    CL-43775  29.498  21.255  11.217
75558ION    CL-43776  27.142  35.797   4.136
75559ION    CL-43777  33.742  23.800   2.213
75560ION    CL-43778  27.333  17.289   4.585
75561ION    CL-43779  19.632  39.968  13.029
75562ION    CL-43780  12.767  15.483   2.536
75563ION    CL-43781   2.193   0.164  11.978
75564ION    CL-43782   6.386   5.252  13.328
75565ION    CL-43783  40.767  41.663   1.660
75566ION    CL-43784  20.760   3.172  13.923
75567ION    CL-43785  14.952  30.662  10.974
75568ION    CL-43786  21.173   9.924   3.587
75569ION    CL-43787   6.947  29.488  14.343
75570ION    CL-43788  10.426  21.647   3.498
75571ION    CL-43789   2.746   5.756   3.231
75572ION    CL-43790  15.106  35.449  11.191
75573ION    CL-43791  27.940  36.215   2.413
75574ION    CL-43792  22.280  40.399  12.031
75575ION    CL-43793  19.810  40.887  11.600
75576ION    CL-43794  16.513  23.630  11.420
75577ION    CL-43795  15.815  33.253   0.050
75578ION    CL-43796  31.774  38.362  11.698
75579ION    CL-43797   3.039  34.943  12.212
75580ION    CL-43798  33.164   2.160  13.481
75581ION    CL-43799  23.568   5.782   0.418
75582ION    CL-43800   9.054   7.698  12.538
75583ION    CL-43801  21.071   6.649  14.007
75584ION    CL-43802  11.613   6.978   2.272
75585ION    CL-43803  40.521  43.542  12.173
75586ION    CL-43804   2.047  43.029   0.258
75587ION    CL-43805  30.697  28.903  10.201
75588ION    CL-43806  28.479  12.104   0.023
75589ION    CL-43807  26.996   5.499  13.887
75590ION    CL-43808  25.367  14.470   2.312
75591ION    CL-43809  17.908  44.628  14.605
75592ION    CL-43810   6.870  22.897   4.890
75593ION    CL-43811  18.965  33.887  11.253
75594ION    CL-43812  16.302  10.415  10.929
75595ION    CL-43813  31.634  24.107  14.549
75596ION    CL-43814  11.060  24.068  11.530
75597ION    CL-43815  12.020  25.365  13.765
75598ION    CL-43816  17.867   4.830  13.624
75599ION    CL-43817  12.874  41.870  14.969
75600ION    CL-43818  36.561  31.506   4.111
75601ION    CL-43819  21.450  44.324   0.565
75602ION    CL-43820  27.995  12.651  10.630
75603ION    CL-43821  15.836  16.448  12.456
75604ION    CL-43822  19.212  24.464   0.493
75605ION    CL-43823  44.895  32.436  11.645
75606ION    CL-43824   5.842  11.160  12.934
75607ION    CL-43825   6.888  42.600  12.961
75608ION    CL-43826  34.963   8.803   1.991
75609ION    CL-43827  28.294  41.179  12.475
75610ION    CL-43828  41.439  36.971  14.902
75611ION    CL-43829   5.852  26.164   1.352
75612ION    CL-43830   7.357   3.457   0.440
75613ION    CL-43831  10.580  23.289  14.864
75614ION    CL-43832  40.760  34.536   0.310
75615ION    CL-43833  11.932  14.541  11.631
75616ION    CL-43834  28.572   2.819   0.026
75617ION    CL-43835  14.210  23.486  12.135
75618ION    CL-43836  28.887  17.259   2.606
75619ION    CL-43837   0.614  37.244  14.599
75620ION    CL-43838  44.305   1.477   0.526
75621ION    CL-43839   1.082   3.537   2.884
75622ION    CL-43840  27.420  21.302   1.341
75623ION    CL-43841  16.791   4.768   2.792
75624ION    CL-43842   6.195  14.126   1.601
75625ION    CL-43843  38.406  22.517   1.692
75626ION    CL-43844   6.531  40.357  11.207
75627ION    CL-43845  41.688  12.898  13.458
75628ION    CL-43846  12.912  32.108   1.234
75629ION    CL-43847   9.377  17.306  13.849
75630ION    CL-43848  28.165  13.359  12.087
75631ION    CL-43849  37.958   2.325   1.644
75632ION    CL-43850  43.948  32.170   0.794
75633ION    CL-43851   9.977   3.316   4.108
75634ION    CL-43852  32.769  26.532  12.127
75635ION    CL-43853  43.754  25.959  10.748
75636ION    CL-43854  38.558  14.737   3.196
75637ION    CL-43855  15.288  42.508   0.682
75638ION    CL-43856  26.115  44.304  12.951
75639ION    CL-43857  23.334  23.064   9.896
  45.00000  45.00000  15.00000
